Title
43188
    1CHL1    C3    1   2.092   6.262   5.959  0.1053  1.0817 -0.5254
    1CHL1    H3    2   2.203   6.271   5.960  0.1125  1.0167  0.0740
    1CHL1    O3    3   2.045   6.244   6.085 -0.3131  0.0050  0.4592
    1CHL1   H3'    4   2.092   6.165   6.113  2.4548  0.6348 -1.9128
    1CHL1    C4    5   2.041   6.398   5.901  0.1816  0.4417  0.7568
    1CHL1   H4A    6   1.931   6.391   5.917 -0.1733 -0.9203 -1.7800
    1CHL1   H4B    7   2.085   6.477   5.966  2.0373  1.3398 -1.4572
    1CHL1    C5    8   2.068   6.427   5.752 -0.3049  0.1885  0.1214
    1CHL1    C6    9   2.130   6.540   5.710 -0.5518 -0.2838 -0.1204
    1CHL1    H6   10   2.154   6.619   5.783  0.1405  0.6810 -1.3589
    1CHL1    C7   11   2.159   6.567   5.562 -0.1004  0.1184 -0.1665
    1CHL1   H7A   12   2.131   6.670   5.531 -1.6818 -0.0046  0.7455
    1CHL1   H7B   13   2.268   6.561   5.541 -0.0156  1.6319 -0.2463
    1CHL1    C8   14   2.089   6.469   5.459  0.1927 -0.0177 -0.3554
    1CHL1    H8   15   1.984   6.505   5.461  0.4178  0.6372  1.4462
    1CHL1   C14   16   2.160   6.471   5.326  0.5195  0.2545 -0.1388
    1CHL1   H14   17   2.264   6.437   5.346 -0.1535 -3.3530 -1.9216
    1CHL1   C15   18   2.182   6.608   5.259 -0.1912  0.6015  0.8009
    1CHL1  H15A   19   2.087   6.664   5.266 -1.1872 -0.8165 -0.6169
    1CHL1  H15B   20   2.262   6.663   5.313 -0.7043  1.2567  0.9029
    1CHL1   C16   21   2.223   6.576   5.111  0.2510  0.7992  0.0191
    1CHL1  H16A   22   2.169   6.649   5.047  2.2344  1.8902 -0.5018
    1CHL1  H16B   23   2.330   6.595   5.090  0.1119  1.6952  0.0820
    1CHL1   C17   24   2.183   6.425   5.094 -0.3924 -0.2627 -0.4270
    1CHL1   H17   25   2.281   6.373   5.099  0.0208  0.6020  0.9334
    1CHL1   C13   26   2.102   6.382   5.225  0.6777  0.0307 -0.2642
    1CHL1   C18   27   1.951   6.427   5.201 -0.3634  0.5674  0.3841
    1CHL1  H18A   28   1.904   6.437   5.301 -3.0129  1.0641 -0.8239
    1CHL1  H18B   29   1.950   6.528   5.154  0.0433  1.1793  1.6706
    1CHL1  H18C   30   1.890   6.346   5.154  0.4670 -0.2341  0.6549
    1CHL1   C12   31   2.126   6.236   5.276 -0.4756 -0.0848  0.0216
    1CHL1  H12A   32   2.080   6.167   5.202 -1.1024  1.0234 -0.6392
    1CHL1  H12B   33   2.235   6.218   5.279 -0.5523 -0.4862  1.4170
    1CHL1   C11   34   2.058   6.210   5.406 -0.5829 -0.4556 -0.1931
    1CHL1  H11A   35   1.949   6.193   5.390 -0.1737 -1.9437 -1.7342
    1CHL1  H11B   36   2.099   6.115   5.447  2.6111  0.5553 -0.7545
    1CHL1    C9   37   2.091   6.325   5.514  0.5788 -0.7715 -0.1246
    1CHL1    H9   38   2.200   6.310   5.532  0.2052 -1.7629  1.6039
    1CHL1   C10   39   2.034   6.308   5.656 -0.3436  0.2805  0.2916
    1CHL1   C19   40   1.881   6.309   5.641 -0.9172 -0.7276 -0.0079
    1CHL1  H19A   41   1.841   6.295   5.743 -0.6744 -2.6099 -0.1337
    1CHL1  H19B   42   1.842   6.407   5.606  1.0869  0.4914  0.9879
    1CHL1  H19C   43   1.844   6.223   5.582 -0.7981  0.1792 -1.4592
    1CHL1    C1   44   2.073   6.174   5.722 -0.1740  0.1675 -0.2592
    1CHL1   H1A   45   2.015   6.102   5.660 -1.1801  1.8148 -1.2945
    1CHL1   H1B   46   2.183   6.162   5.718 -0.3590 -1.3839 -1.9041
    1CHL1    C2   47   2.035   6.151   5.868  0.7785  0.5148 -0.1003
    1CHL1   H2A   48   2.073   6.053   5.903  0.0610  0.2045 -0.1825
    1CHL1   H2B   49   1.924   6.148   5.874  0.7060 -0.0131 -1.3684
    1CHL1   C20   50   2.120   6.391   4.961 -0.2246 -0.3360  0.3369
    1CHL1   H20   51   2.020   6.439   4.951 -0.0738  0.3253  1.8082
    1CHL1   C21   52   2.090   6.248   4.960  0.3048  0.3071 -0.1539
    1CHL1  H21A   53   2.070   6.207   4.859  0.9767 -2.4739  0.7549
    1CHL1  H21B   54   2.001   6.220   5.022  0.3605  0.9220  0.2114
    1CHL1  H21C   55   2.172   6.188   5.004  0.2233 -0.4125 -0.9480
    1CHL1   C22   56   2.229   6.425   4.848 -0.2075  0.5117  0.3170
    1CHL1  H22A   57   2.244   6.535   4.849 -0.4450  0.5674 -1.1563
    1CHL1  H22B   58   2.317   6.364   4.878 -3.1850 -4.7686 -0.4672
    1CHL1   C23   59   2.181   6.386   4.706  0.5454  0.7000  0.8300
    1CHL1  H23A   60   2.196   6.279   4.680  1.4218  1.2308 -0.9303
    1CHL1  H23B   61   2.073   6.414   4.699 -0.5094 -2.6516  1.7401
    1CHL1   C24   62   2.261   6.461   4.601 -0.3661 -0.0956 -0.6362
    1CHL1  H24A   63   2.244   6.570   4.609  0.4091 -0.1015  1.7667
    1CHL1  H24B   64   2.369   6.448   4.625 -0.9043  0.2604  2.4119
    1CHL1   C25   65   2.243   6.430   4.453  0.3006  0.5042  0.3342
    1CHL1   H25   66   2.265   6.322   4.445 -0.5548 -0.0432  3.6209
    1CHL1   C26   67   2.099   6.454   4.410  0.3397 -0.4935  0.1591
    1CHL1  H26A   68   2.086   6.564   4.412 -1.0001 -0.6423  1.7040
    1CHL1  H26B   69   2.074   6.414   4.310 -2.0698  0.2707  0.3958
    1CHL1  H26C   70   2.025   6.408   4.479 -0.4209  0.8335  0.2558
    1CHL1   C27   71   2.336   6.510   4.371 -0.5992 -0.6128  0.1390
    1CHL1  H27A   72   2.306   6.500   4.265 -0.3526 -2.1413  0.1873
    1CHL1  H27B   73   2.335   6.616   4.404  0.8852 -0.1281 -1.2448
    1CHL1  H27C   74   2.440   6.471   4.369 -0.2808  0.2538 -0.6660
    2CHL1    C3   75   2.050   0.682   5.600  0.2264  0.4130 -0.9327
    2CHL1    H3   76   2.029   0.791   5.596 -0.2616  0.3249 -0.7488
    2CHL1    O3   77   1.979   0.621   5.707 -0.2819 -0.2960  0.1768
    2CHL1   H3'   78   1.987   0.527   5.688 -2.1145 -0.5803  0.7046
    2CHL1    C4   79   2.006   0.614   5.468  0.3220  0.3812 -0.3010
    2CHL1   H4A   80   2.031   0.506   5.475  1.4286  0.6636  0.4546
    2CHL1   H4B   81   1.896   0.632   5.470  0.3114  0.7830 -2.3627
    2CHL1    C5   82   2.082   0.673   5.353 -0.5908  0.2089  0.6389
    2CHL1    C6   83   2.012   0.719   5.254 -0.6819 -0.4904  0.5124
    2CHL1    H6   84   1.902   0.711   5.252 -0.7502  0.3753  0.4494
    2CHL1    C7   85   2.084   0.767   5.127  0.5366 -0.3346  0.0188
    2CHL1   H7A   86   2.036   0.728   5.035  0.0520 -3.2634  1.3978
    2CHL1   H7B   87   2.081   0.876   5.108 -0.7173 -0.3945 -0.2048
    2CHL1    C8   88   2.237   0.736   5.117  0.1438  0.7539 -0.4076
    2CHL1    H8   89   2.246   0.628   5.092  0.4603  0.4665  0.8898
    2CHL1   C14   90   2.310   0.819   5.012 -0.6432  0.2509  0.5662
    2CHL1   H14   91   2.292   0.923   5.047  0.8216 -0.2277  2.9873
    2CHL1   C15   92   2.249   0.810   4.866  0.0609 -0.3962  0.4472
    2CHL1  H15A   93   2.222   0.705   4.843 -0.1076 -0.8871  2.5995
    2CHL1  H15B   94   2.166   0.882   4.853  2.0413  2.0080  0.2948
    2CHL1   C16   95   2.354   0.873   4.776 -0.3231 -0.9599 -0.4787
    2CHL1  H16A   96   2.378   0.800   4.696  0.8681  0.0284 -1.0569
    2CHL1  H16B   97   2.332   0.971   4.727  0.1478 -0.7262 -0.2265
    2CHL1   C17   98   2.483   0.895   4.870  0.5084  0.2022 -0.0147
    2CHL1   H17   99   2.475   0.998   4.912  2.0277  0.4622 -0.2993
    2CHL1   C13  100   2.462   0.804   4.988  0.1046  0.0733  0.0704
    2CHL1   C18  101   2.483   0.655   4.952 -0.0271 -0.3489 -0.2856
    2CHL1  H18A  102   2.496   0.637   4.843 -1.6569 -4.1493 -0.0128
    2CHL1  H18B  103   2.577   0.615   4.997  0.1780  0.3358 -0.0911
    2CHL1  H18C  104   2.402   0.587   4.986 -1.0383  0.7163 -0.5249
    2CHL1   C12  105   2.522   0.844   5.128 -0.0249 -0.1831 -0.5100
    2CHL1  H12A  106   2.631   0.819   5.126 -0.0743 -0.3552 -1.9231
    2CHL1  H12B  107   2.498   0.952   5.143 -0.0085 -0.2075 -0.3086
    2CHL1   C11  108   2.457   0.768   5.248  0.1352 -0.0438  1.0004
    2CHL1  H11A  109   2.487   0.662   5.230  0.5405  0.5474 -2.6033
    2CHL1  H11B  110   2.497   0.802   5.346  0.6691  0.8256  0.4944
    2CHL1    C9  111   2.300   0.763   5.253 -0.3283 -0.5250 -0.3548
    2CHL1    H9  112   2.271   0.869   5.274  0.3254  0.1512 -2.5383
    2CHL1   C10  113   2.235   0.674   5.365  0.0639  0.0920  0.1593
    2CHL1   C19  114   2.279   0.521   5.348  0.0343  0.0463 -0.1689
    2CHL1  H19A  115   2.388   0.501   5.358  0.1492  0.1058 -1.2136
    2CHL1  H19B  116   2.227   0.450   5.417  1.9682 -0.8246  0.4625
    2CHL1  H19C  117   2.258   0.492   5.243  3.3045  0.3199 -0.9958
    2CHL1    C1  118   2.282   0.715   5.505 -0.1354 -0.8511  0.1059
    2CHL1   H1A  119   2.386   0.681   5.516 -0.1132 -1.1551 -0.9953
    2CHL1   H1B  120   2.280   0.826   5.515  1.1996 -0.5703 -2.1427
    2CHL1    C2  121   2.199   0.658   5.614 -0.8294  0.3114 -0.2196
    2CHL1   H2A  122   2.229   0.705   5.710 -2.6786  0.5170  0.2874
    2CHL1   H2B  123   2.221   0.550   5.626 -1.3737  0.3981  2.0186
    2CHL1   C20  124   2.611   0.887   4.794 -0.3565  0.2419 -0.6446
    2CHL1   H20  125   2.608   0.798   4.727  1.0525  1.0569 -1.8327
    2CHL1   C21  126   2.732   0.876   4.888  0.3145  0.1029 -0.7000
    2CHL1  H21A  127   2.711   0.950   4.968  1.3098 -1.0564  0.7056
    2CHL1  H21B  128   2.829   0.901   4.840  2.2700 -1.6683  2.0518
    2CHL1  H21C  129   2.736   0.779   4.943  0.1435  1.0628  1.0805
    2CHL1   C22  130   2.638   1.009   4.702 -0.0224  0.0107  0.0402
    2CHL1  H22A  131   2.546   1.062   4.668 -0.2623  0.3687  1.2262
    2CHL1  H22B  132   2.686   1.084   4.767 -2.9477  0.1147  2.3138
    2CHL1   C23  133   2.718   0.977   4.573 -0.3157 -0.1460 -0.4303
    2CHL1  H23A  134   2.805   0.910   4.591  0.3614  0.5299 -1.0987
    2CHL1  H23B  135   2.648   0.918   4.510 -0.5355 -0.9709  0.5570
    2CHL1   C24  136   2.769   1.100   4.494  0.0045  0.4771 -0.3346
    2CHL1  H24A  137   2.700   1.187   4.495 -0.8998 -0.2298  0.6396
    2CHL1  H24B  138   2.848   1.150   4.555 -0.1549  2.6020 -1.7888
    2CHL1   C25  139   2.821   1.088   4.348  0.7327 -1.2796 -0.4547
    2CHL1   H25  140   2.745   1.022   4.301 -0.6601 -0.1376  0.1268
    2CHL1   C26  141   2.821   1.223   4.280  0.1544 -0.5832 -0.8297
    2CHL1  H26A  142   2.861   1.203   4.178 -0.0199  1.0715 -1.2635
    2CHL1  H26B  143   2.724   1.278   4.277  1.9582  3.1898  1.8579
    2CHL1  H26C  144   2.889   1.303   4.316 -1.2171  1.4506 -2.4789
    2CHL1   C27  145   2.958   1.021   4.351 -0.5006  0.0595  0.0524
    2CHL1  H27A  146   3.047   1.088   4.347  0.2148 -0.9474 -2.4349
    2CHL1  H27B  147   2.964   0.948   4.435 -1.1237 -0.1711 -0.1059
    2CHL1  H27C  148   2.977   0.977   4.251  1.0783 -0.0691  0.3778
    3CHL1    C3  149   3.220   1.064   5.925 -0.8293  0.2681 -0.5250
    3CHL1    H3  150   3.300   0.988   5.914 -0.8797  0.4350 -2.2766
    3CHL1    O3  151   3.147   1.048   6.046 -0.7844 -0.5899  0.4847
    3CHL1   H3'  152   3.102   1.130   6.069  1.3866  1.1554 -1.0417
    3CHL1    C4  153   3.281   1.201   5.923 -0.6849  0.5689 -0.2868
    3CHL1   H4A  154   3.197   1.274   5.915  0.4955  1.7736 -3.1370
    3CHL1   H4B  155   3.340   1.230   6.013  1.2405  1.5261 -1.7949
    3CHL1    C5  156   3.370   1.208   5.796 -0.0582 -0.2870 -0.8328
    3CHL1    C6  157   3.500   1.231   5.809 -0.9870 -0.0651 -0.1781
    3CHL1    H6  158   3.542   1.242   5.910 -1.0291  1.4328 -0.3036
    3CHL1    C7  159   3.594   1.243   5.694 -0.4040  0.1122  0.0332
    3CHL1   H7A  160   3.656   1.336   5.700  1.5790 -1.1703  0.5456
    3CHL1   H7B  161   3.660   1.154   5.697 -1.6885 -0.8752 -0.3561
    3CHL1    C8  162   3.526   1.245   5.557 -0.6475 -0.3679 -0.2433
    3CHL1    H8  163   3.481   1.345   5.543  1.7780  1.1361  1.8042
    3CHL1   C14  164   3.628   1.220   5.445  0.8166 -0.1926  0.1877
    3CHL1   H14  165   3.655   1.113   5.463  0.1594 -0.3889  0.0489
    3CHL1   C15  166   3.757   1.304   5.437  0.2251 -0.0321  0.2658
    3CHL1  H15A  167   3.745   1.411   5.461 -1.0398  0.4121 -2.0657
    3CHL1  H15B  168   3.830   1.267   5.513 -2.2201 -1.4382  2.1047
    3CHL1   C16  169   3.798   1.284   5.299 -0.3750  0.3610  0.6665
    3CHL1  H16A  170   3.803   1.385   5.254 -0.3929 -1.4121 -3.7812
    3CHL1  H16B  171   3.894   1.228   5.290 -1.6563 -2.2399  2.0378
    3CHL1   C17  172   3.692   1.198   5.226 -0.5223  0.3543  0.1576
    3CHL1   H17  173   3.716   1.090   5.235 -0.6339  0.4188  1.4338
    3CHL1   C13  174   3.560   1.216   5.304 -0.6146  0.5723 -0.5129
    3CHL1   C18  175   3.494   1.351   5.276 -0.4802 -0.9112 -0.1909
    3CHL1  H18A  176   3.566   1.433   5.300  0.2084 -0.9421 -1.9873
    3CHL1  H18B  177   3.464   1.369   5.170 -0.9344  0.8031  0.1919
    3CHL1  H18C  178   3.416   1.371   5.353  1.9069 -2.2378  2.7991
    3CHL1   C12  179   3.457   1.103   5.302 -0.1202  0.5358 -0.3144
    3CHL1  H12A  180   3.407   1.115   5.204  1.3444  0.7025 -1.0761
    3CHL1  H12B  181   3.515   1.010   5.318  2.3941  1.8559 -1.1699
    3CHL1   C11  182   3.350   1.131   5.411  1.3199  0.2233 -0.0062
    3CHL1  H11A  183   3.292   1.224   5.394 -0.5936 -0.8525  0.3810
    3CHL1  H11B  184   3.280   1.046   5.418  0.2220  1.0527 -0.6321
    3CHL1    C9  185   3.406   1.146   5.548 -0.6603  0.2595 -0.4095
    3CHL1    H9  186   3.447   1.046   5.572 -3.8241 -0.8086  1.1597
    3CHL1   C10  187   3.294   1.184   5.661 -0.7307  1.0008 -0.4750
    3CHL1   C19  188   3.201   1.297   5.623  0.1566  0.2311  0.4051
    3CHL1  H19A  189   3.258   1.392   5.626  1.5002 -0.5392 -0.0776
    3CHL1  H19B  190   3.158   1.293   5.521 -1.0654 -0.3715  0.9204
    3CHL1  H19C  191   3.116   1.316   5.693  0.1293 -1.0767  0.7642
    3CHL1    C1  192   3.198   1.054   5.675 -0.4477 -1.0867  0.3576
    3CHL1   H1A  193   3.125   1.051   5.591 -0.1110  0.0150  0.0239
    3CHL1   H1B  194   3.259   0.962   5.667 -1.1045 -1.8295  2.8249
    3CHL1    C2  195   3.123   1.042   5.812  0.0081 -0.8503  0.2699
    3CHL1   H2A  196   3.072   0.943   5.820  1.7628 -1.7002  1.7956
    3CHL1   H2B  197   3.053   1.127   5.827  2.2534  1.0220  0.7271
    3CHL1   C20  198   3.686   1.242   5.079 -0.3642 -0.8811 -0.3266
    3CHL1   H20  199   3.658   1.347   5.058  1.0011 -0.7138 -1.4835
    3CHL1   C21  200   3.594   1.147   5.001 -0.0580 -0.4491 -0.2813
    3CHL1  H21A  201   3.585   1.186   4.898 -1.3094 -0.3630 -0.1483
    3CHL1  H21B  202   3.487   1.145   5.029 -0.3963  2.3254 -1.0275
    3CHL1  H21C  203   3.645   1.048   5.004  0.6148 -0.1422 -1.1819
    3CHL1   C22  204   3.825   1.218   5.016 -0.6791  0.4976 -0.0962
    3CHL1  H22A  205   3.910   1.263   5.073  1.7941 -2.1112 -1.4814
    3CHL1  H22B  206   3.847   1.109   5.012 -3.1643 -0.2018  2.4554
    3CHL1   C23  207   3.843   1.287   4.878  0.8580  0.6653 -1.6359
    3CHL1  H23A  208   3.763   1.248   4.810 -1.0035 -0.4053  1.0200
    3CHL1  H23B  209   3.831   1.397   4.892  1.0552  0.4157  0.9514
    3CHL1   C24  210   3.977   1.246   4.813 -0.1481 -0.0295 -1.0905
    3CHL1  H24A  211   4.061   1.277   4.879 -2.1566 -1.1265  2.2451
    3CHL1  H24B  212   3.985   1.135   4.805 -0.3949  0.0593 -3.0272
    3CHL1   C25  213   3.997   1.294   4.669  0.6121  1.0814 -0.0715
    3CHL1   H25  214   3.918   1.253   4.603  0.1967 -0.2308  1.1955
    3CHL1   C26  215   3.983   1.447   4.649 -0.4540  0.0039 -0.2459
    3CHL1  H26A  216   4.026   1.480   4.552 -0.7469  1.0684 -0.0257
    3CHL1  H26B  217   3.880   1.488   4.643  0.0430  1.3796  0.3060
    3CHL1  H26C  218   4.040   1.490   4.734  1.3196  0.2883 -1.5119
    3CHL1   C27  219   4.134   1.248   4.613 -0.0126  0.1189  0.6265
    3CHL1  H27A  220   4.213   1.266   4.688 -0.2808  1.3446  0.6360
    3CHL1  H27B  221   4.137   1.139   4.592  0.4258  0.2138  0.1659
    3CHL1  H27C  222   4.161   1.290   4.514 -0.8391  1.9950  1.1619
    4CHL1    C3  223   4.112   6.491   5.830 -0.3708 -0.4233  0.1009
    4CHL1    H3  224   4.207   6.435   5.837  0.1352  0.0411 -2.0174
    4CHL1    O3  225   4.057   6.521   5.958  0.0904 -0.5371 -0.2383
    4CHL1   H3'  226   4.100   6.602   5.985 -0.5771  0.0594 -0.9310
    4CHL1    C4  227   4.153   6.619   5.762 -0.1343 -0.9119  0.3320
    4CHL1   H4A  228   4.069   6.691   5.770  1.1395  0.5389  1.1951
    4CHL1   H4B  229   4.236   6.658   5.825  1.8645 -1.5885 -1.7276
    4CHL1    C5  230   4.191   6.599   5.615 -0.4022  0.2970 -0.0082
    4CHL1    C6  231   4.311   6.647   5.570 -0.0403 -0.4958  1.0657
    4CHL1    H6  232   4.389   6.693   5.633  1.2194 -0.1624 -0.6868
    4CHL1    C7  233   4.354   6.626   5.425  0.3754 -0.0422  0.2506
    4CHL1   H7A  234   4.411   6.710   5.380  1.3389 -0.1312  1.2580
    4CHL1   H7B  235   4.433   6.549   5.419  0.7019  0.2775  0.3890
    4CHL1    C8  236   4.231   6.589   5.331 -0.0032 -0.4472  1.3354
    4CHL1    H8  237   4.169   6.680   5.315  2.5344  1.4618  1.7440
    4CHL1   C14  238   4.280   6.536   5.197  0.4073  0.0393  0.0002
    4CHL1   H14  239   4.339   6.445   5.217 -2.1599 -1.5902  0.7119
    4CHL1   C15  240   4.372   6.618   5.111  0.1837 -0.0967 -0.3721
    4CHL1  H15A  241   4.313   6.711   5.105 -0.4162 -0.5181 -1.2612
    4CHL1  H15B  242   4.471   6.633   5.159 -0.0463 -0.5520  0.2567
    4CHL1   C16  243   4.371   6.556   4.973  0.2410  0.8998  0.0066
    4CHL1  H16A  244   4.363   6.639   4.900  1.8079 -0.0908 -1.3507
    4CHL1  H16B  245   4.469   6.509   4.952 -0.5865 -1.0374  0.2387
    4CHL1   C17  246   4.257   6.451   4.965 -0.4661 -0.7166  0.2950
    4CHL1   H17  247   4.308   6.355   4.989 -0.8132 -1.2291 -0.8998
    4CHL1   C13  248   4.170   6.489   5.097 -0.6639 -0.0088 -0.1291
    4CHL1   C18  249   4.071   6.599   5.062  0.0196 -0.4434  0.0125
    4CHL1  H18A  250   4.005   6.634   5.144  2.0064  1.1694  1.0441
    4CHL1  H18B  251   4.127   6.692   5.040 -0.4922 -0.1068  0.1405
    4CHL1  H18C  252   4.007   6.570   4.977 -1.1487 -0.9197  1.0241
    4CHL1   C12  253   4.105   6.364   5.151  0.0556  0.5404 -0.1262
    4CHL1  H12A  254   4.028   6.311   5.092  0.2668 -0.2742  0.3071
    4CHL1  H12B  255   4.178   6.280   5.159 -1.1789 -0.4719  1.0076
    4CHL1   C11  256   4.048   6.403   5.295 -0.0165 -0.0992 -0.1478
    4CHL1  H11A  257   3.965   6.474   5.276  0.0872  0.4682  1.3696
    4CHL1  H11B  258   4.005   6.308   5.334  1.8932 -0.8799  0.1841
    4CHL1    C9  259   4.151   6.476   5.389 -0.6130 -0.3930  0.1617
    4CHL1    H9  260   4.225   6.400   5.422 -0.7542  0.1278  1.7900
    4CHL1   C10  261   4.090   6.512   5.525 -0.4233  0.0478 -0.2639
    4CHL1   C19  262   3.960   6.598   5.510 -0.7124 -0.5334 -0.6906
    4CHL1  H19A  263   3.975   6.689   5.448 -0.7716 -1.8096 -2.6900
    4CHL1  H19B  264   3.877   6.538   5.465 -1.6713  0.5422 -0.4058
    4CHL1  H19C  265   3.925   6.630   5.610  0.1150  4.9202 -1.8403
    4CHL1    C1  266   4.054   6.383   5.601 -0.5997  0.2232 -0.1047
    4CHL1   H1A  267   3.969   6.324   5.561  0.9349 -1.5007 -0.9864
    4CHL1   H1B  268   4.132   6.306   5.582 -0.3261  0.6223 -0.6265
    4CHL1    C2  269   4.006   6.411   5.752 -0.2348 -0.0457  0.6952
    4CHL1   H2A  270   3.990   6.313   5.803 -0.3986  0.2295  1.1769
    4CHL1   H2B  271   3.905   6.456   5.760  0.1665  1.8266 -2.8106
    4CHL1   C20  272   4.205   6.423   4.820  0.2395  1.2607  0.0362
    4CHL1   H20  273   4.179   6.522   4.777  1.9189  1.4288 -0.6925
    4CHL1   C21  274   4.085   6.324   4.824 -0.4866 -0.0493 -0.2997
    4CHL1  H21A  275   4.061   6.284   4.723 -1.1824  0.6754 -0.4262
    4CHL1  H21B  276   4.002   6.366   4.885  1.1714  1.0636  1.2906
    4CHL1  H21C  277   4.121   6.239   4.886  1.8128  1.4000  0.4631
    4CHL1   C22  278   4.313   6.362   4.728  0.3703 -0.0501  0.1820
    4CHL1  H22A  279   4.391   6.440   4.712 -0.7334  0.7005 -1.8909
    4CHL1  H22B  280   4.360   6.271   4.771  0.0892 -0.8030 -1.0654
    4CHL1   C23  281   4.277   6.337   4.585 -0.3589 -0.1343  0.4647
    4CHL1  H23A  282   4.367   6.329   4.520 -0.2418 -0.2068  0.6355
    4CHL1  H23B  283   4.228   6.237   4.583  0.6689 -0.7572  2.8299
    4CHL1   C24  284   4.187   6.445   4.516 -0.2972  0.2279 -0.1980
    4CHL1  H24A  285   4.086   6.438   4.562  0.5834  0.3075  1.8559
    4CHL1  H24B  286   4.218   6.548   4.545  1.2512 -0.6351  1.3337
    4CHL1   C25  287   4.193   6.447   4.371  0.3723 -0.3162  0.6588
    4CHL1   H25  288   4.301   6.460   4.346  0.1305  1.0653  0.2508
    4CHL1   C26  289   4.138   6.313   4.308 -0.2429 -0.1919 -0.1345
    4CHL1  H26A  290   4.170   6.316   4.201  0.8851 -0.3788  0.1823
    4CHL1  H26B  291   4.201   6.237   4.358 -2.1105 -2.9328 -1.7348
    4CHL1  H26C  292   4.028   6.305   4.322 -0.4152  2.0973  0.3636
    4CHL1   C27  293   4.130   6.569   4.317  0.5503  0.2550  1.0378
    4CHL1  H27A  294   4.030   6.579   4.363  0.1917  0.6442  0.1972
    4CHL1  H27B  295   4.202   6.653   4.331  3.8863 -2.1176 -0.6784
    4CHL1  H27C  296   4.125   6.553   4.207  2.2475 -0.4691  1.0356
    5CHL1    C3  297   2.052   1.133   5.639 -0.6135 -0.7822 -0.4443
    5CHL1    H3  298   2.081   1.028   5.613  1.1280 -0.6273  0.7196
    5CHL1    O3  299   2.034   1.152   5.779  0.0103 -0.5205 -0.6960
    5CHL1   H3'  300   1.999   1.242   5.781 -0.5566 -0.7540  0.2248
    5CHL1    C4  301   2.178   1.215   5.594  0.1395 -0.2538 -0.4331
    5CHL1   H4A  302   2.180   1.321   5.625  1.3611 -0.7913  1.5077
    5CHL1   H4B  303   2.269   1.170   5.640  1.5113  0.1845 -2.5862
    5CHL1    C5  304   2.195   1.199   5.447  0.6045  0.2258  0.1167
    5CHL1    C6  305   2.309   1.156   5.382  0.3518 -0.1110 -0.5124
    5CHL1    H6  306   2.403   1.128   5.433 -0.8545  0.5313  2.2187
    5CHL1    C7  307   2.329   1.172   5.231  0.7199 -0.1146 -0.5013
    5CHL1   H7A  308   2.432   1.207   5.212  0.4879  1.2211  0.5480
    5CHL1   H7B  309   2.307   1.082   5.170 -1.8921 -0.4723  0.7912
    5CHL1    C8  310   2.230   1.272   5.155  0.0780  0.1901 -0.5026
    5CHL1    H8  311   2.258   1.377   5.178 -1.7463  0.8849 -1.3089
    5CHL1   C14  312   2.236   1.259   5.004 -1.2005 -0.4514  0.4274
    5CHL1   H14  313   2.211   1.152   4.991  1.5453 -1.1938  0.5777
    5CHL1   C15  314   2.373   1.299   4.941  0.2466 -0.7038  0.5366
    5CHL1  H15A  315   2.423   1.383   4.995  0.2030  3.4900 -5.0527
    5CHL1  H15B  316   2.435   1.210   4.967 -2.5753 -2.3979  2.0546
    5CHL1   C16  317   2.343   1.321   4.795  0.2679 -0.1349  0.0839
    5CHL1  H16A  318   2.362   1.427   4.765  1.0118 -0.5554 -0.9840
    5CHL1  H16B  319   2.376   1.243   4.724  2.5620  1.2349 -0.4691
    5CHL1   C17  320   2.188   1.311   4.781  0.2746 -0.3982  0.1105
    5CHL1   H17  321   2.157   1.206   4.762 -1.0973  0.3121 -1.8370
    5CHL1   C13  322   2.136   1.338   4.923 -0.0119  0.4561 -0.8349
    5CHL1   C18  323   2.139   1.493   4.963 -0.7477  0.0933  0.0908
    5CHL1  H18A  324   2.134   1.498   5.073  0.1917 -0.8974  0.1935
    5CHL1  H18B  325   2.235   1.545   4.942 -1.0389  0.5634 -0.0906
    5CHL1  H18C  326   2.060   1.556   4.918  1.2625  1.6277 -1.5388
    5CHL1   C12  327   1.987   1.288   4.963 -0.7927  0.2443  0.2986
    5CHL1  H12A  328   1.907   1.342   4.907 -2.4277 -2.7521 -0.4597
    5CHL1  H12B  329   1.992   1.178   4.948  0.3993  0.1712  1.0943
    5CHL1   C11  330   1.978   1.302   5.120  0.7170 -0.8459  1.1031
    5CHL1  H11A  331   1.940   1.403   5.147  0.5764 -0.3918 -0.6706
    5CHL1  H11B  332   1.894   1.231   5.136  2.5056 -3.7244 -1.0971
    5CHL1    C9  333   2.088   1.241   5.210 -0.4467 -0.0093  0.8027
    5CHL1    H9  334   2.073   1.132   5.199 -0.1015 -0.0449  0.6744
    5CHL1   C10  335   2.076   1.257   5.361  0.1121  0.2973 -0.0955
    5CHL1   C19  336   2.044   1.412   5.395 -0.6204  0.4383  0.0877
    5CHL1  H19A  337   1.946   1.456   5.368  0.1747  3.0000  1.0041
    5CHL1  H19B  338   2.061   1.428   5.504 -1.0197  0.1488  0.1938
    5CHL1  H19C  339   2.122   1.478   5.351  0.5057 -0.6410  0.3986
    5CHL1    C1  340   1.956   1.170   5.418  0.3790  0.8182  0.0510
    5CHL1   H1A  341   1.868   1.178   5.351  2.4315 -1.3831 -3.1579
    5CHL1   H1B  342   1.988   1.067   5.392 -1.3174 -0.0390  1.1375
    5CHL1    C2  343   1.926   1.175   5.567 -0.2975 -0.0508 -0.2135
    5CHL1   H2A  344   1.841   1.108   5.590 -0.0555 -1.1607 -2.3141
    5CHL1   H2B  345   1.891   1.277   5.593  1.0769  0.6921 -1.1614
    5CHL1   C20  346   2.133   1.399   4.667 -0.3574  0.2558  0.1209
    5CHL1   H20  347   2.167   1.500   4.701  2.2107 -0.4203 -0.2503
    5CHL1   C21  348   1.989   1.391   4.643 -0.3102 -0.2158 -0.1659
    5CHL1  H21A  349   1.967   1.451   4.552 -1.0299 -2.1062 -1.3104
    5CHL1  H21B  350   1.927   1.432   4.726  1.0958 -1.5000  1.5937
    5CHL1  H21C  351   1.955   1.287   4.623  1.0832 -0.5927 -0.6444
    5CHL1   C22  352   2.213   1.381   4.537 -0.5662  0.3476 -0.3132
    5CHL1  H22A  353   2.170   1.461   4.472 -2.1199  0.8912  1.2874
    5CHL1  H22B  354   2.321   1.407   4.543 -0.6070  0.4115  0.2314
    5CHL1   C23  355   2.209   1.241   4.472 -0.0604  0.5033 -0.1475
    5CHL1  H23A  356   2.215   1.164   4.552 -4.1925  0.2913  0.2029
    5CHL1  H23B  357   2.107   1.238   4.429 -0.6939  0.2387  1.3101
    5CHL1   C24  358   2.316   1.212   4.368 -0.0400 -0.6178 -0.4481
    5CHL1  H24A  359   2.291   1.278   4.282 -0.7806  0.0969  0.2921
    5CHL1  H24B  360   2.417   1.232   4.410 -0.3129  0.1518 -0.1483
    5CHL1   C25  361   2.315   1.069   4.301 -0.5139  0.1385  0.0653
    5CHL1   H25  362   2.223   1.046   4.244  0.0701 -0.0618 -0.8090
    5CHL1   C26  363   2.436   1.062   4.199 -0.1387 -0.6926 -0.2135
    5CHL1  H26A  364   2.421   0.981   4.124  2.7507 -0.4098 -1.2383
    5CHL1  H26B  365   2.444   1.155   4.140  0.1326  0.1635  1.1306
    5CHL1  H26C  366   2.531   1.058   4.256  0.0534  1.7793 -0.2647
    5CHL1   C27  367   2.336   0.970   4.412  0.5475 -0.8575  0.2647
    5CHL1  H27A  368   2.353   0.867   4.372  2.8274 -1.3793  2.3301
    5CHL1  H27B  369   2.431   0.988   4.467 -0.0610 -0.6918  1.2820
    5CHL1  H27C  370   2.249   0.976   4.481  0.2395  1.9671 -0.2560
    6CHL1    C3  371   3.555   6.842   5.820 -0.2074 -0.4397  0.4172
    6CHL1    H3  372   3.627   6.927   5.819 -0.3975 -0.2666  0.8921
    6CHL1    O3  373   3.531   6.807   5.958  0.3942 -0.0256 -0.1020
    6CHL1   H3'  374   3.436   6.802   5.966  0.5473 -0.1505  1.9255
    6CHL1    C4  375   3.426   6.896   5.756  0.5022  0.2824 -0.0468
    6CHL1   H4A  376   3.336   6.831   5.766 -0.2803  0.8859 -2.5009
    6CHL1   H4B  377   3.396   6.986   5.815 -0.7885 -0.3027  0.2192
    6CHL1    C5  378   3.436   6.935   5.615 -0.3833 -0.1914  0.0646
    6CHL1    C6  379   3.414   7.055   5.566 -0.0479  0.3822  1.0629
    6CHL1    H6  380   3.374   7.126   5.640  0.0835  0.1171  1.3846
    6CHL1    C7  381   3.419   7.090   5.419 -0.8271  0.4770 -0.0324
    6CHL1   H7A  382   3.327   7.145   5.392 -0.7650  1.0380  0.8598
    6CHL1   H7B  383   3.512   7.148   5.403 -0.5466  0.2758  0.8197
    6CHL1    C8  384   3.425   6.962   5.330 -0.4386  0.8314 -0.8505
    6CHL1    H8  385   3.328   6.907   5.329 -0.3700  0.6913 -0.1545
    6CHL1   C14  386   3.458   7.001   5.188  0.1210 -0.5347 -0.5602
    6CHL1   H14  387   3.562   7.041   5.188  0.4496 -1.2643 -2.9721
    6CHL1   C15  388   3.357   7.110   5.131 -0.2739  0.2386  0.6302
    6CHL1  H15A  389   3.259   7.065   5.159  0.2508 -1.2917  0.1388
    6CHL1  H15B  390   3.360   7.216   5.163 -0.7827  0.4980 -0.1577
    6CHL1   C16  391   3.379   7.099   4.975  0.3706  0.1805 -0.0690
    6CHL1  H16A  392   3.277   7.081   4.937  0.3818  0.5819 -0.2965
    6CHL1  H16B  393   3.420   7.194   4.933 -0.0595  0.2128 -0.4251
    6CHL1   C17  394   3.476   6.983   4.957 -0.4753  0.3188  0.6507
    6CHL1   H17  395   3.575   7.032   4.945 -0.2392 -0.8023 -2.8126
    6CHL1   C13  396   3.466   6.891   5.086  0.3126  0.6449 -0.9525
    6CHL1   C18  397   3.336   6.801   5.088 -0.1017  0.8495 -0.2737
    6CHL1  H18A  398   3.313   6.758   4.989 -0.7212 -0.7841  0.5426
    6CHL1  H18B  399   3.336   6.729   5.172  0.6632 -0.6261 -1.5036
    6CHL1  H18C  400   3.246   6.857   5.122 -1.2390 -1.4113  0.5844
    6CHL1   C12  401   3.590   6.811   5.124  1.0395 -0.1466 -0.4055
    6CHL1  H12A  402   3.611   6.730   5.051  1.0205 -1.1092  0.6162
    6CHL1  H12B  403   3.682   6.871   5.106  0.9029 -0.0199 -0.6814
    6CHL1   C11  404   3.582   6.763   5.275 -0.5351  0.5351 -0.5018
    6CHL1  H11A  405   3.513   6.677   5.288  0.5953 -0.3644 -0.3548
    6CHL1  H11B  406   3.680   6.721   5.305 -1.6106 -0.3977  1.9569
    6CHL1    C9  407   3.532   6.874   5.386 -0.6561  0.7154  0.6098
    6CHL1    H9  408   3.622   6.936   5.408 -0.0474 -0.2228  0.8315
    6CHL1   C10  409   3.495   6.819   5.527 -0.2518 -0.3649  1.0878
    6CHL1   C19  410   3.387   6.705   5.524  0.6413 -0.0071  0.2511
    6CHL1  H19A  411   3.308   6.712   5.447  1.1766 -0.6592 -0.3664
    6CHL1  H19B  412   3.440   6.609   5.505  0.4253 -0.2498  0.8358
    6CHL1  H19C  413   3.341   6.690   5.625  1.0266  1.5019  0.6781
    6CHL1    C1  414   3.619   6.753   5.590 -0.2294 -0.0905 -0.2103
    6CHL1   H1A  415   3.648   6.658   5.540 -0.6195 -0.4748  0.2841
    6CHL1   H1B  416   3.702   6.826   5.577  0.9333 -0.6762  3.0986
    6CHL1    C2  417   3.614   6.724   5.744  0.2461 -0.0463 -0.2132
    6CHL1   H2A  418   3.714   6.703   5.787 -0.0266  0.1994  0.5647
    6CHL1   H2B  419   3.548   6.635   5.746  0.4231 -0.1764 -0.2189
    6CHL1   C20  420   3.454   6.921   4.813  0.6407  0.0010  0.7600
    6CHL1   H20  421   3.343   6.910   4.803  0.6031  0.0770  1.0884
    6CHL1   C21  422   3.536   6.796   4.775  0.3125  0.4409 -0.2881
    6CHL1  H21A  423   3.515   6.757   4.674  3.0194 -2.1975  0.0332
    6CHL1  H21B  424   3.494   6.712   4.835  0.6204  1.6929  1.8009
    6CHL1  H21C  425   3.643   6.811   4.804  0.5890  0.6340 -1.3892
    6CHL1   C22  426   3.490   7.028   4.696  0.4433  0.4889 -0.5208
    6CHL1  H22A  427   3.458   6.986   4.598  2.4797  1.2552 -1.5686
    6CHL1  H22B  428   3.423   7.114   4.715  0.1900  0.4957 -1.4012
    6CHL1   C23  429   3.637   7.072   4.690 -0.2551 -0.2733  0.4167
    6CHL1  H23A  430   3.687   7.095   4.786 -0.1102 -2.5903  0.9340
    6CHL1  H23B  431   3.705   7.006   4.633 -0.0241  0.1092  0.2389
    6CHL1   C24  432   3.649   7.208   4.626 -1.0274 -0.3711  0.7039
    6CHL1  H24A  433   3.592   7.281   4.687 -2.5839 -0.7282 -0.2659
    6CHL1  H24B  434   3.755   7.240   4.624 -0.6359 -1.6259  0.0135
    6CHL1   C25  435   3.592   7.220   4.484 -0.6361  0.2211  0.1814
    6CHL1   H25  436   3.482   7.201   4.488 -0.5188 -1.2163 -1.9381
    6CHL1   C26  437   3.622   7.360   4.429  0.2246  0.2359 -0.2204
    6CHL1  H26A  438   3.733   7.362   4.420  0.2049 -0.2846 -0.6550
    6CHL1  H26B  439   3.598   7.378   4.322 -1.0025  2.1760  0.3339
    6CHL1  H26C  440   3.593   7.449   4.489  1.3317  1.8444 -1.9602
    6CHL1   C27  441   3.663   7.121   4.381 -0.3866 -0.5831  0.0165
    6CHL1  H27A  442   3.625   7.133   4.277 -0.9018 -2.1337 -0.0063
    6CHL1  H27B  443   3.773   7.138   4.371 -0.3550 -0.6147  0.3155
    6CHL1  H27C  444   3.628   7.024   4.422 -0.4125  0.2909  2.1835
    7CHL1    C3  445   5.957   1.238   5.362 -0.4439  0.0081 -0.5466
    7CHL1    H3  446   6.045   1.179   5.329  0.4347  0.5683  0.7580
    7CHL1    O3  447   5.937   1.224   5.502  0.1769  0.6904 -0.2247
    7CHL1   H3'  448   6.012   1.264   5.546  0.3083  0.8013 -0.5497
    7CHL1    C4  449   5.980   1.386   5.334 -0.8981 -0.1828  0.6367
    7CHL1   H4A  450   5.895   1.440   5.381  0.6724  4.0973 -0.9459
    7CHL1   H4B  451   6.065   1.436   5.386 -2.3059  1.2572  1.6769
    7CHL1    C5  452   5.970   1.421   5.185 -0.7704  0.5909 -0.6472
    7CHL1    C6  453   6.070   1.478   5.125  0.1473  0.4493  0.0807
    7CHL1    H6  454   6.153   1.521   5.183 -1.3801  0.0746  2.7078
    7CHL1    C7  455   6.065   1.525   4.984  0.1533  0.1214  0.3905
    7CHL1   H7A  456   6.094   1.632   4.979  0.0559  0.1236 -0.1491
    7CHL1   H7B  457   6.140   1.466   4.928 -0.3045 -0.5409  0.4525
    7CHL1    C8  458   5.932   1.504   4.908 -0.0322  0.2009 -0.8670
    7CHL1    H8  459   5.867   1.591   4.932  2.1075  2.1090 -1.6080
    7CHL1   C14  460   5.939   1.508   4.754 -0.0652 -0.0021  0.3196
    7CHL1   H14  461   5.999   1.420   4.725 -0.4667 -0.1367 -0.1215
    7CHL1   C15  462   6.011   1.625   4.689  0.0071  0.2330  0.6187
    7CHL1  H15A  463   5.970   1.712   4.746 -1.2121 -0.4705  0.8512
    7CHL1  H15B  464   6.121   1.614   4.700 -0.0740 -0.3982  0.8453
    7CHL1   C16  465   5.957   1.632   4.544 -0.3937 -0.0258 -0.0742
    7CHL1  H16A  466   5.913   1.733   4.531  0.7979  1.4456  4.9428
    7CHL1  H16B  467   6.048   1.625   4.480 -0.3069 -0.6361  0.1093
    7CHL1   C17  468   5.867   1.507   4.535  0.2800 -0.2377  0.3153
    7CHL1   H17  469   5.925   1.414   4.521 -1.4684 -1.4290  0.6617
    7CHL1   C13  470   5.808   1.494   4.678  0.2018  0.2169  0.7350
    7CHL1   C18  471   5.704   1.607   4.703 -0.6900  0.4365  0.0503
    7CHL1  H18A  472   5.752   1.707   4.695 -0.5142  0.2584 -1.4541
    7CHL1  H18B  473   5.617   1.595   4.634 -0.9731 -1.2647  0.6565
    7CHL1  H18C  474   5.655   1.603   4.803 -0.0313 -1.5042  0.3391
    7CHL1   C12  475   5.755   1.360   4.721  0.2005  1.0529 -0.3743
    7CHL1  H12A  476   5.654   1.330   4.688  0.4444 -0.2152 -0.0449
    7CHL1  H12B  477   5.828   1.283   4.687  0.4366  0.8272  0.6023
    7CHL1   C11  478   5.736   1.339   4.877 -0.3334  0.2685 -0.4198
    7CHL1  H11A  479   5.656   1.413   4.899  1.2051  2.1547 -0.9655
    7CHL1  H11B  480   5.699   1.235   4.896  1.6041 -0.2475  0.8016
    7CHL1    C9  481   5.863   1.375   4.955  0.2472  0.2308  0.1288
    7CHL1    H9  482   5.934   1.297   4.923  0.9502  0.0431  2.0322
    7CHL1   C10  483   5.848   1.363   5.115 -0.6177 -0.2000 -0.2791
    7CHL1   C19  484   5.718   1.438   5.165  0.0582 -0.4816 -0.3306
    7CHL1  H19A  485   5.714   1.422   5.275  0.7917 -0.3972 -0.2899
    7CHL1  H19B  486   5.717   1.546   5.141  0.9015 -0.4775 -0.3530
    7CHL1  H19C  487   5.629   1.390   5.119 -1.4172  1.1765  0.6485
    7CHL1    C1  488   5.829   1.219   5.139  0.2087 -0.1976  0.1211
    7CHL1   H1A  489   5.725   1.198   5.107  0.0678  2.0559 -1.0284
    7CHL1   H1B  490   5.908   1.164   5.084  2.4874  2.5545  0.4349
    7CHL1    C2  491   5.835   1.184   5.287 -0.4647  0.3347  0.4949
    7CHL1   H2A  492   5.827   1.074   5.295  2.2271  0.0391  0.0581
    7CHL1   H2B  493   5.743   1.229   5.328 -0.3855  1.9186 -0.9521
    7CHL1   C20  494   5.762   1.510   4.427 -0.1206  0.1917  0.3354
    7CHL1   H20  495   5.687   1.591   4.436 -0.3399  0.6480 -3.7844
    7CHL1   C21  496   5.682   1.376   4.410 -0.6871 -0.2960 -0.2096
    7CHL1  H21A  497   5.600   1.373   4.484 -1.4640 -0.1070 -1.0393
    7CHL1  H21B  498   5.745   1.285   4.419  1.1448  1.1575  2.9666
    7CHL1  H21C  499   5.623   1.387   4.316 -0.3186 -1.3799 -0.5845
    7CHL1   C22  500   5.823   1.549   4.288 -0.0550  0.3977 -0.1631
    7CHL1  H22A  501   5.931   1.528   4.301 -0.0809  0.8181  0.8558
    7CHL1  H22B  502   5.783   1.483   4.208  0.1934  0.3929 -0.2855
    7CHL1   C23  503   5.795   1.688   4.239  0.1778 -0.6973 -0.3296
    7CHL1  H23A  504   5.826   1.756   4.321 -2.1538 -1.0411  0.9323
    7CHL1  H23B  505   5.860   1.700   4.150 -1.3799  2.4883 -1.1922
    7CHL1   C24  506   5.648   1.714   4.203 -0.3977  0.3476 -0.1860
    7CHL1  H24A  507   5.614   1.637   4.130  0.8656 -0.8147  0.4046
    7CHL1  H24B  508   5.583   1.706   4.293 -0.9137 -0.7280 -0.6221
    7CHL1   C25  509   5.607   1.856   4.157  0.0053 -0.4988  0.5321
    7CHL1   H25  510   5.641   1.925   4.237  1.1869 -2.1381  1.5012
    7CHL1   C26  511   5.667   1.892   4.016 -0.2879 -0.2757 -0.0606
    7CHL1  H26A  512   5.773   1.897   4.049 -0.6047  1.3753  0.8272
    7CHL1  H26B  513   5.648   1.817   3.936  3.4077 -1.0743 -0.3760
    7CHL1  H26C  514   5.642   1.994   3.978 -1.4943  0.3462  2.2099
    7CHL1   C27  515   5.454   1.860   4.152  0.0676 -0.1504  0.7180
    7CHL1  H27A  516   5.433   1.969   4.156 -0.0104 -0.1839  1.2720
    7CHL1  H27B  517   5.411   1.812   4.061 -0.6954  3.8069 -1.2345
    7CHL1  H27C  518   5.405   1.810   4.238 -1.0752  1.0784  0.8159
    8CHL1    C3  519   1.673   4.857   5.977 -0.0188 -0.7208  0.0554
    8CHL1    H3  520   1.777   4.823   5.962 -0.5632 -2.7167  0.4397
    8CHL1    O3  521   1.641   4.873   6.112 -0.0865  0.0108 -0.1609
    8CHL1   H3'  522   1.652   4.783   6.141  0.7517 -0.6160 -2.2512
    8CHL1    C4  523   1.636   4.988   5.908  0.3311 -0.0388  1.0925
    8CHL1   H4A  524   1.530   5.011   5.928 -0.2582 -1.0303 -0.6266
    8CHL1   H4B  525   1.700   5.068   5.949  1.2042 -0.1429  0.0058
    8CHL1    C5  526   1.648   4.964   5.758  0.8207  0.2790 -0.5344
    8CHL1    C6  527   1.741   5.026   5.683 -0.4462 -0.5507 -0.4526
    8CHL1    H6  528   1.796   5.107   5.733 -0.1400 -1.8204  1.3627
    8CHL1    C7  529   1.756   5.028   5.536 -0.2285  0.1378 -0.6286
    8CHL1   H7A  530   1.762   5.133   5.502  0.8609  1.5777  3.4031
    8CHL1   H7B  531   1.847   4.967   5.517 -1.3560 -2.2246  0.9954
    8CHL1    C8  532   1.636   4.955   5.472  0.2246  0.3501  0.2348
    8CHL1    H8  533   1.554   5.029   5.478  0.3833  0.4851  0.7708
    8CHL1   C14  534   1.668   4.921   5.324  0.2600 -0.0016  1.0629
    8CHL1   H14  535   1.751   4.849   5.318  0.0581 -0.1874  0.4857
    8CHL1   C15  536   1.708   5.040   5.234  0.0369 -1.1161 -0.5590
    8CHL1  H15A  537   1.644   5.130   5.250 -0.3583 -1.3899 -0.5696
    8CHL1  H15B  538   1.813   5.060   5.264 -0.4517 -0.0075  0.4902
    8CHL1   C16  539   1.681   4.989   5.098  0.2474 -0.9328  0.2704
    8CHL1  H16A  540   1.612   5.062   5.049  0.8156 -1.1601 -0.9152
    8CHL1  H16B  541   1.776   4.990   5.040  1.2405  0.2083  1.8112
    8CHL1   C17  542   1.608   4.855   5.105 -0.0643  1.4635  0.2668
    8CHL1   H17  543   1.700   4.793   5.099 -0.3720  0.9264  0.9613
    8CHL1   C13  544   1.553   4.858   5.248 -0.8863 -0.4462  0.7258
    8CHL1   C18  545   1.432   4.957   5.248  0.3630 -1.0234  0.5236
    8CHL1  H18A  546   1.350   4.906   5.192  1.4152 -0.2060 -1.9280
    8CHL1  H18B  547   1.383   4.984   5.344 -1.5570  0.0790 -0.6771
    8CHL1  H18C  548   1.443   5.054   5.195  1.3290 -1.1232  0.5401
    8CHL1   C12  549   1.523   4.723   5.324 -0.8114 -0.1301  0.3085
    8CHL1  H12A  550   1.441   4.669   5.272  0.4998 -2.3534  0.4131
    8CHL1  H12B  551   1.617   4.663   5.324 -1.0728 -0.5896  1.7242
    8CHL1   C11  552   1.488   4.752   5.478 -0.1383 -0.3810 -0.0529
    8CHL1  H11A  553   1.385   4.795   5.481  0.2085  0.4801 -0.2871
    8CHL1  H11B  554   1.491   4.649   5.519 -0.8383 -0.4441 -0.1453
    8CHL1    C9  555   1.600   4.829   5.549  0.6125 -1.0345  0.3188
    8CHL1    H9  556   1.692   4.767   5.553  0.1197 -1.7863  0.3275
    8CHL1   C10  557   1.560   4.858   5.695  0.8163  0.6740  0.0036
    8CHL1   C19  558   1.414   4.916   5.712 -0.6375  1.0292  0.1194
    8CHL1  H19A  559   1.407   5.009   5.653  0.6213 -0.3255 -2.3273
    8CHL1  H19B  560   1.348   4.836   5.671  0.8195 -0.4567  0.5541
    8CHL1  H19C  561   1.387   4.924   5.819  2.3717 -0.5664  1.1225
    8CHL1    C1  562   1.586   4.727   5.783  0.0825 -0.0593 -0.7071
    8CHL1   H1A  563   1.521   4.643   5.750  0.9226  0.6428 -4.6633
    8CHL1   H1B  564   1.689   4.692   5.760 -0.2641 -1.4943 -0.1673
    8CHL1    C2  565   1.569   4.752   5.935  0.1985  0.6424  0.2454
    8CHL1   H2A  566   1.593   4.656   5.986  0.4062  0.4205 -0.2689
    8CHL1   H2B  567   1.461   4.772   5.950 -0.8534 -2.2686 -2.4066
    8CHL1   C20  568   1.519   4.802   4.994  0.3803  0.1502 -0.2692
    8CHL1   H20  569   1.413   4.827   5.019  0.1605 -2.1588  1.5180
    8CHL1   C21  570   1.535   4.644   4.992 -0.1990 -0.3486 -0.3612
    8CHL1  H21A  571   1.500   4.591   5.083 -0.4224  0.5262  0.0671
    8CHL1  H21B  572   1.642   4.620   4.977  0.0623  0.5206  0.0924
    8CHL1  H21C  573   1.473   4.610   4.905 -0.4992  0.8002 -0.6156
    8CHL1   C22  574   1.566   4.854   4.856 -0.1737  0.8555 -0.9482
    8CHL1  H22A  575   1.547   4.962   4.843  0.6886  1.0269 -0.8354
    8CHL1  H22B  576   1.676   4.843   4.845  0.1942  2.4100  0.7201
    8CHL1   C23  577   1.503   4.790   4.727  0.0018  0.3113  0.2757
    8CHL1  H23A  578   1.554   4.695   4.702  0.4157  0.3377  1.0074
    8CHL1  H23B  579   1.398   4.764   4.752 -0.2039 -0.3073 -1.0996
    8CHL1   C24  580   1.511   4.882   4.603  0.2255  0.1210 -0.0103
    8CHL1  H24A  581   1.469   4.981   4.629 -1.6576 -0.6891  0.1234
    8CHL1  H24B  582   1.618   4.907   4.585 -0.0096  2.5489  1.5146
    8CHL1   C25  583   1.448   4.830   4.471 -0.1698 -0.0314 -0.7893
    8CHL1   H25  584   1.497   4.733   4.444 -1.0926 -1.2453  1.5801
    8CHL1   C26  585   1.299   4.794   4.481  0.4531  0.5482  0.1198
    8CHL1  H26A  586   1.247   4.890   4.497  0.8327  0.4547  2.1270
    8CHL1  H26B  587   1.261   4.742   4.390 -2.8161 -1.1635  2.2901
    8CHL1  H26C  588   1.277   4.725   4.565  0.8330  0.3919  0.0959
    8CHL1   C27  589   1.452   4.937   4.362 -0.1903  0.1605 -0.5082
    8CHL1  H27A  590   1.379   4.911   4.283 -0.6005  0.1956 -0.1437
    8CHL1  H27B  591   1.421   5.035   4.405 -0.7642 -1.1285  2.1972
    8CHL1  H27C  592   1.554   4.943   4.319  0.1381  0.4366  0.2803
    9CHL1    C3  593   1.447   0.376   5.790  0.0208 -0.0070  0.2795
    9CHL1    H3  594   1.440   0.486   5.780 -1.2823 -0.0271  0.8305
    9CHL1    O3  595   1.395   0.350   5.917 -0.6961 -0.1025  0.2499
    9CHL1   H3'  596   1.415   0.257   5.926 -1.1507 -0.1243  1.0230
    9CHL1    C4  597   1.360   0.314   5.676  1.0603 -0.3053 -0.6765
    9CHL1   H4A  598   1.370   0.205   5.694  1.6675  0.1926  2.5577
    9CHL1   H4B  599   1.254   0.343   5.686  1.4171  0.4314  1.7062
    9CHL1    C5  600   1.410   0.359   5.542  0.0225 -0.0885  0.2308
    9CHL1    C6  601   1.326   0.417   5.450  0.2236  0.5835  0.6031
    9CHL1    H6  602   1.219   0.420   5.473 -0.2653  1.1825 -1.5245
    9CHL1    C7  603   1.362   0.452   5.310  0.1967  0.0362  1.0984
    9CHL1   H7A  604   1.283   0.434   5.234  1.5948 -3.0662  0.2588
    9CHL1   H7B  605   1.375   0.563   5.303 -0.0846 -0.0307 -2.2936
    9CHL1    C8  606   1.497   0.386   5.274 -0.3987 -0.2520 -0.0916
    9CHL1    H8  607   1.477   0.278   5.261  0.1377 -0.6245  1.8773
    9CHL1   C14  608   1.550   0.445   5.141  1.0036 -0.5467  0.3804
    9CHL1   H14  609   1.563   0.554   5.161  3.2085 -1.0974  2.3652
    9CHL1   C15  610   1.459   0.436   5.016  0.5168  0.6639  0.4005
    9CHL1  H15A  611   1.404   0.341   5.000  0.9525  0.2780  1.1522
    9CHL1  H15B  612   1.383   0.517   5.013  0.2167  0.3690 -0.9186
    9CHL1   C16  613   1.553   0.458   4.902 -0.3552  0.2332  1.0902
    9CHL1  H16A  614   1.556   0.364   4.843 -1.8796  1.7078 -1.5066
    9CHL1  H16B  615   1.527   0.538   4.830 -2.3542 -1.5630 -0.3107
    9CHL1   C17  616   1.698   0.476   4.964 -0.1066  0.0634  0.2759
    9CHL1   H17  617   1.717   0.582   4.994  0.8546 -0.3304  1.1325
    9CHL1   C13  618   1.688   0.399   5.099 -0.2917  0.2248  0.1273
    9CHL1   C18  619   1.689   0.243   5.069  0.0508  0.4151 -0.2528
    9CHL1  H18A  620   1.631   0.218   4.977  1.3750 -1.8322 -0.5376
    9CHL1  H18B  621   1.792   0.208   5.048  0.8047  2.0684  0.5083
    9CHL1  H18C  622   1.652   0.186   5.158 -0.0982  0.0698 -0.5342
    9CHL1   C12  623   1.785   0.431   5.207  0.3478 -0.5870  0.3457
    9CHL1  H12A  624   1.887   0.404   5.173 -0.1722  1.4110 -3.2666
    9CHL1  H12B  625   1.777   0.540   5.228 -1.7274 -0.6739  0.1949
    9CHL1   C11  626   1.741   0.375   5.341 -0.5792 -0.3750  0.0319
    9CHL1  H11A  627   1.758   0.265   5.335  1.8279 -0.0844  0.2302
    9CHL1  H11B  628   1.823   0.410   5.407 -1.2436  1.6264 -0.1477
    9CHL1    C9  629   1.599   0.412   5.388  0.0685 -0.0705  0.3674
    9CHL1    H9  630   1.604   0.519   5.420 -0.1310 -0.5241  1.9890
    9CHL1   C10  631   1.558   0.337   5.519 -0.0515 -0.0434  0.6526
    9CHL1   C19  632   1.579   0.179   5.503 -0.1243 -0.4116  0.2851
    9CHL1  H19A  633   1.540   0.131   5.595 -1.0320 -0.4520 -0.1106
    9CHL1  H19B  634   1.540   0.130   5.411  0.8337 -0.2116 -0.2420
    9CHL1  H19C  635   1.689   0.163   5.507  0.0594  0.6433 -0.2515
    9CHL1    C1  636   1.644   0.395   5.634 -0.1112  0.5018  0.0227
    9CHL1   H1A  637   1.749   0.361   5.622 -0.2382 -1.0614  2.4287
    9CHL1   H1B  638   1.637   0.504   5.651 -1.7879  0.4104  0.0246
    9CHL1    C2  639   1.598   0.337   5.771 -0.5663 -0.1308  0.6266
    9CHL1   H2A  640   1.661   0.383   5.850  1.8857  0.0355 -1.3173
    9CHL1   H2B  641   1.615   0.228   5.776 -0.5955 -0.1497  0.3241
    9CHL1   C20  642   1.803   0.429   4.855  0.1915 -0.2047  0.5566
    9CHL1   H20  643   1.800   0.318   4.861 -2.6065 -0.3006 -0.7298
    9CHL1   C21  644   1.944   0.486   4.889  0.0652 -0.1894 -0.0397
    9CHL1  H21A  645   1.934   0.596   4.872 -0.4034 -0.2916 -0.4220
    9CHL1  H21B  646   2.034   0.453   4.833  1.2502 -0.5253  1.9617
    9CHL1  H21C  647   1.962   0.467   4.997  2.0884  2.0953  0.1197
    9CHL1   C22  648   1.768   0.471   4.711  0.0261 -0.9429  0.1243
    9CHL1  H22A  649   1.673   0.429   4.671 -0.4103 -0.3389  0.4966
    9CHL1  H22B  650   1.753   0.581   4.709  0.4205 -0.8584  1.1996
    9CHL1   C23  651   1.874   0.452   4.600 -0.3474 -0.1335 -0.0940
    9CHL1  H23A  652   1.961   0.519   4.614 -0.3878  0.7241 -3.2663
    9CHL1  H23B  653   1.908   0.346   4.597 -1.7293 -0.7351  2.4567
    9CHL1   C24  654   1.821   0.494   4.461  0.3180  0.3307  0.9516
    9CHL1  H24A  655   1.737   0.429   4.431 -1.0105  1.4628  2.1107
    9CHL1  H24B  656   1.776   0.595   4.472  1.4165  1.2027 -1.7559
    9CHL1   C25  657   1.934   0.489   4.348  0.0867  0.3133 -0.5521
    9CHL1   H25  658   1.967   0.383   4.349 -1.9374 -0.3528 -0.6087
    9CHL1   C26  659   1.879   0.532   4.210 -0.8385  0.6546  0.0691
    9CHL1  H26A  660   1.961   0.562   4.141 -1.3796  1.8970 -0.0452
    9CHL1  H26B  661   1.818   0.458   4.154  0.0001  1.2570 -1.7174
    9CHL1  H26C  662   1.827   0.627   4.232 -1.1577  0.2537  1.1203
    9CHL1   C27  663   2.054   0.571   4.388  0.4252  0.0502 -0.3382
    9CHL1  H27A  664   2.108   0.517   4.469 -1.9116  1.6206  2.4460
    9CHL1  H27B  665   2.121   0.594   4.302 -1.6823  0.9833 -1.8164
    9CHL1  H27C  666   2.036   0.670   4.434 -0.6191  0.0073 -0.6262
   10CHL1    C3  667   6.239   3.797   5.666  0.2987  0.1302  0.2666
   10CHL1    H3  668   6.318   3.719   5.660 -0.8152 -1.3205  2.9853
   10CHL1    O3  669   6.173   3.769   5.791  0.3419 -0.0330  0.3462
   10CHL1   H3'  670   6.124   3.850   5.809 -0.6792  0.0443 -2.3078
   10CHL1    C4  671   6.299   3.942   5.657 -0.0408 -0.0423  0.2545
   10CHL1   H4A  672   6.204   3.997   5.679  0.4333  0.9872 -0.1927
   10CHL1   H4B  673   6.378   3.949   5.734  0.2883 -0.9180  0.0027
   10CHL1    C5  674   6.347   3.983   5.516 -0.0252 -0.2385  0.2618
   10CHL1    C6  675   6.465   4.038   5.501 -0.0876 -0.2489 -0.3823
   10CHL1    H6  676   6.520   4.057   5.594 -0.6066 -1.3927  0.1787
   10CHL1    C7  677   6.529   4.078   5.372 -0.0707 -0.4907 -0.5086
   10CHL1   H7A  678   6.572   4.180   5.377  0.1818 -0.6319  2.5838
   10CHL1   H7B  679   6.613   4.010   5.345 -1.0448 -1.5655 -0.9260
   10CHL1    C8  680   6.425   4.078   5.260  0.0665 -0.1015  1.1783
   10CHL1    H8  681   6.366   4.172   5.266  0.3736  0.4339 -2.3408
   10CHL1   C14  682   6.498   4.086   5.129 -0.9056 -0.3709 -0.5108
   10CHL1   H14  683   6.551   3.988   5.132  0.0733  0.1790  1.1839
   10CHL1   C15  684   6.617   4.190   5.119  0.8677 -0.3441 -0.5602
   10CHL1  H15A  685   6.590   4.281   5.177  1.2090 -1.6662  1.8496
   10CHL1  H15B  686   6.705   4.148   5.173  2.1449  1.9342 -0.7528
   10CHL1   C16  687   6.639   4.198   4.972  0.1893 -0.3423 -0.2292
   10CHL1  H16A  688   6.636   4.306   4.947 -0.1010 -0.2455  0.2234
   10CHL1  H16B  689   6.734   4.162   4.928  0.0585 -2.4556  1.1096
   10CHL1   C17  690   6.520   4.120   4.897  0.0622 -0.2497 -0.1454
   10CHL1   H17  691   6.567   4.019   4.890  1.4304  0.2571  1.2448
   10CHL1   C13  692   6.407   4.103   5.008 -0.6909 -0.2020  1.2665
   10CHL1   C18  693   6.329   4.239   5.012 -0.2620  0.2275  0.2325
   10CHL1  H18A  694   6.268   4.252   4.920  0.6568  2.3238 -0.1274
   10CHL1  H18B  695   6.259   4.234   5.099  1.1129 -1.4989  1.2988
   10CHL1  H18C  696   6.389   4.332   5.017  0.9631 -0.5280 -0.1847
   10CHL1   C12  697   6.316   3.985   4.999 -0.1341  0.0557  0.6004
   10CHL1  H12A  698   6.248   3.992   4.912  0.9925  3.1791 -0.1448
   10CHL1  H12B  699   6.365   3.886   4.987 -0.3964  0.2124 -2.7474
   10CHL1   C11  700   6.234   3.967   5.132  0.0643  0.9303 -0.0927
   10CHL1  H11A  701   6.153   4.042   5.135 -0.5051  0.4111 -1.5193
   10CHL1  H11B  702   6.194   3.863   5.125  2.2502 -0.0959  1.2245
   10CHL1    C9  703   6.325   3.967   5.261 -0.7897  0.5222 -0.5452
   10CHL1    H9  704   6.385   3.874   5.257 -0.4426  0.6490  0.9870
   10CHL1   C10  705   6.246   3.954   5.395 -0.5206  0.2835 -0.3466
   10CHL1   C19  706   6.122   4.050   5.392 -0.2916  0.8817 -0.5299
   10CHL1  H19A  707   6.140   4.153   5.352 -2.2321  1.1036 -0.9477
   10CHL1  H19B  708   6.044   4.004   5.328  1.0434 -0.7822 -1.0296
   10CHL1  H19C  709   6.070   4.056   5.490  1.2401 -1.1336  0.4719
   10CHL1    C1  710   6.199   3.810   5.414 -0.3115  0.1537  0.5851
   10CHL1   H1A  711   6.129   3.803   5.329  0.5485  2.8902 -0.4559
   10CHL1   H1B  712   6.282   3.737   5.397  1.3067  2.1600 -0.6062
   10CHL1    C2  713   6.134   3.789   5.554  0.2056  0.6602  0.3960
   10CHL1   H2A  714   6.086   3.689   5.556 -3.7072  2.3468  0.3776
   10CHL1   H2B  715   6.050   3.860   5.572  0.2366  0.4557  1.4554
   10CHL1   C20  716   6.482   4.182   4.765 -0.0125 -0.1103  0.2243
   10CHL1   H20  717   6.454   4.288   4.784  1.0254  0.2580 -0.2195
   10CHL1   C21  718   6.371   4.113   4.704  0.0931 -0.3363  0.8455
   10CHL1  H21A  719   6.274   4.130   4.755  0.5101  0.2848  1.4574
   10CHL1  H21B  720   6.391   4.004   4.689 -1.1830 -0.1830 -2.8206
   10CHL1  H21C  721   6.357   4.161   4.605  0.4423 -1.2171  0.3571
   10CHL1   C22  722   6.611   4.204   4.678  0.0772 -0.0266  0.4018
   10CHL1  H22A  723   6.583   4.273   4.596  0.2988 -2.0722 -1.5041
   10CHL1  H22B  724   6.690   4.249   4.741 -1.0279 -1.1891  2.7513
   10CHL1   C23  725   6.658   4.074   4.618  0.0099  0.2749  0.9158
   10CHL1  H23A  726   6.678   3.992   4.690  0.1519 -0.5839 -0.0715
   10CHL1  H23B  727   6.593   4.017   4.548  2.6209 -1.4396 -0.2862
   10CHL1   C24  728   6.784   4.096   4.528  0.4517 -0.1985 -0.5694
   10CHL1  H24A  729   6.866   4.146   4.584  1.0360  1.2153 -2.5693
   10CHL1  H24B  730   6.809   3.994   4.492 -1.0773 -0.2414 -1.6043
   10CHL1   C25  731   6.762   4.185   4.400 -0.5215  0.2766  1.1414
   10CHL1   H25  732   6.739   4.287   4.438 -0.7529  0.3287  0.8584
   10CHL1   C26  733   6.896   4.201   4.324  0.6635  0.1680 -0.2036
   10CHL1  H26A  734   6.890   4.263   4.231  0.5519  2.2690  1.1246
   10CHL1  H26B  735   6.966   4.260   4.387  2.3086 -1.4475 -0.4287
   10CHL1  H26C  736   6.946   4.104   4.307 -0.8794 -1.3138  2.9183
   10CHL1   C27  737   6.648   4.143   4.308  0.6732  1.1880 -0.0459
   10CHL1  H27A  738   6.553   4.142   4.366  0.7842 -0.3363  0.1755
   10CHL1  H27B  739   6.649   4.212   4.222  1.2283 -1.2151 -2.0925
   10CHL1  H27C  740   6.659   4.046   4.255  0.4845  1.3448 -0.3697
   11CHL1    C3  741   1.267   4.171   6.132  0.0942  0.0319  0.7631
   11CHL1    H3  742   1.227   4.068   6.133 -0.6228  0.3040  0.7228
   11CHL1    O3  743   1.299   4.215   6.258  0.3736  0.1417 -0.2053
   11CHL1   H3'  744   1.253   4.297   6.274  2.0931  1.5091 -1.7476
   11CHL1    C4  745   1.392   4.186   6.046 -0.6411 -0.2127  0.4374
   11CHL1   H4A  746   1.443   4.283   6.064  1.0100 -0.7102 -1.2523
   11CHL1   H4B  747   1.465   4.110   6.080  0.8851  0.6976 -0.6570
   11CHL1    C5  748   1.371   4.186   5.893  0.3118 -0.0944  0.0387
   11CHL1    C6  749   1.448   4.114   5.811  0.0557 -0.1136  0.0369
   11CHL1    H6  750   1.528   4.054   5.858  1.0598 -0.2427 -1.7154
   11CHL1    C7  751   1.439   4.114   5.667 -0.7584 -0.0972  0.3035
   11CHL1   H7A  752   1.544   4.102   5.631 -1.1029 -5.6307  0.3938
   11CHL1   H7B  753   1.401   4.013   5.642 -1.5257  0.2593 -0.0006
   11CHL1    C8  754   1.353   4.221   5.614 -0.1112 -0.3157  0.7063
   11CHL1    H8  755   1.411   4.316   5.618 -1.3871  0.4480  2.3314
   11CHL1   C14  756   1.318   4.188   5.467 -1.0524  0.0773 -0.4640
   11CHL1   H14  757   1.257   4.096   5.466 -1.3043  0.2451 -0.9361
   11CHL1   C15  758   1.439   4.154   5.376  0.3864  0.7923  0.5136
   11CHL1  H15A  759   1.519   4.223   5.411  1.4413  0.2581 -0.7541
   11CHL1  H15B  760   1.475   4.050   5.390  0.9243  0.8210 -0.5184
   11CHL1   C16  761   1.378   4.188   5.237 -0.4801 -0.0931  0.1281
   11CHL1  H16A  762   1.450   4.260   5.193 -0.8523  0.8761  1.0665
   11CHL1  H16B  763   1.374   4.095   5.176 -1.2007 -1.2522  1.8975
   11CHL1   C17  764   1.236   4.238   5.252  0.0899  0.2706  0.1839
   11CHL1   H17  765   1.180   4.143   5.239 -0.1782  0.3741  0.5697
   11CHL1   C13  766   1.234   4.298   5.402 -0.0189 -0.3751 -0.6043
   11CHL1   C18  767   1.305   4.446   5.400  0.5538  0.1665  0.3172
   11CHL1  H18A  768   1.389   4.440   5.328  0.2535  2.2410 -0.2872
   11CHL1  H18B  769   1.234   4.522   5.360  0.8429 -0.2776 -1.0989
   11CHL1  H18C  770   1.333   4.477   5.504 -0.8696  1.3693  0.3800
   11CHL1   C12  771   1.102   4.313   5.471  0.3775  0.3535  0.0206
   11CHL1  H12A  772   1.034   4.389   5.429 -0.9710 -0.2915  0.9349
   11CHL1  H12B  773   1.046   4.218   5.455  1.4834 -0.3892  0.4593
   11CHL1   C11  774   1.119   4.333   5.626  0.1836 -0.0011  0.0925
   11CHL1  H11A  775   1.158   4.437   5.632 -1.7931  0.7604  0.5209
   11CHL1  H11B  776   1.015   4.339   5.666 -0.1274  0.7884 -0.8002
   11CHL1    C9  777   1.219   4.237   5.692  0.0395 -0.1378 -0.6854
   11CHL1    H9  778   1.163   4.141   5.697 -0.9367  0.4903  1.3247
   11CHL1   C10  779   1.254   4.267   5.843  0.0934 -0.2523  0.0188
   11CHL1   C19  780   1.269   4.422   5.856 -0.4900  0.3127  0.0376
   11CHL1  H19A  781   1.176   4.463   5.901  1.5239  1.8055  3.1822
   11CHL1  H19B  782   1.348   4.454   5.927 -2.3394  0.8221  1.9540
   11CHL1  H19C  783   1.305   4.461   5.758 -0.2885 -0.9683 -0.4082
   11CHL1    C1  784   1.130   4.235   5.934 -0.2926 -0.2980 -0.5450
   11CHL1   H1A  785   1.043   4.293   5.897  0.3394  0.8627 -0.2664
   11CHL1   H1B  786   1.114   4.126   5.918 -0.0081 -0.4382  0.0821
   11CHL1    C2  787   1.151   4.254   6.085  0.6612  0.2331 -0.1092
   11CHL1   H2A  788   1.059   4.233   6.144 -2.1161 -0.2235 -4.1877
   11CHL1   H2B  789   1.178   4.360   6.106  0.7705 -0.0933  1.5219
   11CHL1   C20  790   1.183   4.326   5.133 -0.0752  0.6961  0.8156
   11CHL1   H20  791   1.223   4.428   5.149  0.7899  0.4678  0.1978
   11CHL1   C21  792   1.037   4.335   5.139  0.4362 -0.0662 -0.3095
   11CHL1  H21A  793   0.994   4.363   5.237  1.5108 -0.3318  0.2486
   11CHL1  H21B  794   0.994   4.238   5.107 -0.2331  0.5391 -1.3057
   11CHL1  H21C  795   0.994   4.397   5.056  1.6542 -0.7103 -1.4628
   11CHL1   C22  796   1.233   4.278   4.996 -0.0018 -0.6355  0.9864
   11CHL1  H22A  797   1.344   4.273   4.992  0.0968  1.0846  0.9846
   11CHL1  H22B  798   1.196   4.176   4.973 -0.0584 -0.3411 -0.3165
   11CHL1   C23  799   1.200   4.373   4.874 -0.2326 -0.2728 -0.7959
   11CHL1  H23A  800   1.091   4.380   4.850  0.1351  0.5977 -2.3619
   11CHL1  H23B  801   1.225   4.476   4.905 -3.3095 -0.1280  1.7569
   11CHL1   C24  802   1.279   4.336   4.747  0.0429 -0.3260 -0.7176
   11CHL1  H24A  803   1.388   4.335   4.769 -0.0329  0.6659 -0.2359
   11CHL1  H24B  804   1.244   4.234   4.719  1.1949 -1.3132  1.1603
   11CHL1   C25  805   1.249   4.425   4.623 -0.5682  0.0122  1.2278
   11CHL1   H25  806   1.288   4.528   4.641 -1.9951  1.4820 -2.9282
   11CHL1   C26  807   1.333   4.380   4.497 -0.1566  0.5488 -0.4529
   11CHL1  H26A  808   1.440   4.378   4.525 -0.5714 -2.6274  1.4738
   11CHL1  H26B  809   1.303   4.280   4.458 -0.4822 -0.0594  1.2757
   11CHL1  H26C  810   1.318   4.453   4.414  0.0622  2.0685  0.8082
   11CHL1   C27  811   1.096   4.434   4.593  0.0152 -0.1301 -0.3576
   11CHL1  H27A  812   1.040   4.343   4.563  0.0960 -1.1593  2.3531
   11CHL1  H27B  813   1.039   4.478   4.678  0.9557 -1.9410  1.2808
   11CHL1  H27C  814   1.087   4.505   4.508  0.0912 -0.8349 -0.9594
   12CHL1    C3  815   2.626   5.143   5.952  0.5258 -0.6642 -0.1623
   12CHL1    H3  816   2.693   5.231   5.958 -0.0267 -0.1791 -0.9773
   12CHL1    O3  817   2.606   5.088   6.081  0.1559  0.7681  0.6788
   12CHL1   H3'  818   2.522   5.041   6.074 -0.6683  2.1841  0.6568
   12CHL1    C4  819   2.487   5.202   5.904 -0.2460 -0.0553 -0.4152
   12CHL1   H4A  820   2.407   5.125   5.904  0.4791 -0.8341 -1.5653
   12CHL1   H4B  821   2.456   5.279   5.979 -0.5555  0.4476 -1.0525
   12CHL1    C5  822   2.511   5.254   5.758  0.1206 -0.0929  0.6860
   12CHL1    C6  823   2.481   5.379   5.736 -0.1071 -0.0320  0.0181
   12CHL1    H6  824   2.457   5.439   5.825  1.2084 -0.5388  0.7502
   12CHL1    C7  825   2.493   5.450   5.603  0.2666 -0.1040 -0.0269
   12CHL1   H7A  826   2.407   5.519   5.584  1.5094  1.3312 -0.6270
   12CHL1   H7B  827   2.586   5.510   5.603 -0.4729  1.0913  0.6053
   12CHL1    C8  828   2.490   5.343   5.487 -0.7257  0.4108 -0.0272
   12CHL1    H8  829   2.388   5.299   5.495 -1.0830  1.1768 -0.3362
   12CHL1   C14  830   2.512   5.409   5.347  0.6038  0.9522  0.5653
   12CHL1   H14  831   2.614   5.451   5.351  1.4540 -1.0708  1.0330
   12CHL1   C15  832   2.429   5.531   5.309  0.1613  0.3015 -0.2505
   12CHL1  H15A  833   2.327   5.508   5.346 -0.3510  1.8176 -0.6557
   12CHL1  H15B  834   2.467   5.618   5.365 -0.3372  1.2800 -1.3765
   12CHL1   C16  835   2.428   5.528   5.158  0.2166  0.6739 -0.2866
   12CHL1  H16A  836   2.324   5.507   5.126  0.4165 -0.3773 -0.2713
   12CHL1  H16B  837   2.444   5.630   5.117 -0.3945  1.0372  0.3499
   12CHL1   C17  838   2.523   5.420   5.114  0.3406 -0.2834 -0.4103
   12CHL1   H17  839   2.625   5.465   5.111  0.4424 -0.5505 -1.0365
   12CHL1   C13  840   2.509   5.310   5.227  0.6560  0.2057 -0.5182
   12CHL1   C18  841   2.372   5.236   5.224 -0.0873 -0.8900  0.2667
   12CHL1  H18A  842   2.366   5.168   5.136 -4.2270 -2.1876  1.3290
   12CHL1  H18B  843   2.356   5.175   5.315 -1.1282 -2.1738 -0.7231
   12CHL1  H18C  844   2.288   5.308   5.210  1.1313  0.4324 -0.6031
   12CHL1   C12  845   2.624   5.213   5.256  0.5338 -1.0747  0.0334
   12CHL1  H12A  846   2.640   5.139   5.175  3.8041 -1.4047  0.8404
   12CHL1  H12B  847   2.712   5.281   5.257 -0.5538  0.4816 -1.8018
   12CHL1   C11  848   2.627   5.147   5.395 -0.1333 -0.1569 -0.5366
   12CHL1  H11A  849   2.553   5.065   5.382 -0.5965  0.2792 -0.7149
   12CHL1  H11B  850   2.723   5.097   5.419 -0.6813 -1.1714 -0.3968
   12CHL1    C9  851   2.595   5.238   5.520 -0.0169  0.4497  0.2225
   12CHL1    H9  852   2.696   5.283   5.531  0.7695 -1.1736 -0.1519
   12CHL1   C10  853   2.562   5.158   5.646 -0.0357 -0.1058 -0.4149
   12CHL1   C19  854   2.455   5.053   5.624 -0.3965 -0.5886 -0.1929
   12CHL1  H19A  855   2.358   5.092   5.587 -0.8594 -0.7385  0.8300
   12CHL1  H19B  856   2.494   4.968   5.563 -0.8989 -2.0115  1.3981
   12CHL1  H19C  857   2.418   5.007   5.718 -1.5553  0.2346 -0.2350
   12CHL1    C1  858   2.681   5.079   5.704  0.2678 -0.1123 -0.5494
   12CHL1   H1A  859   2.687   4.996   5.631 -0.4254  0.6392 -1.4871
   12CHL1   H1B  860   2.772   5.140   5.688 -0.1194  0.5406 -0.3120
   12CHL1    C2  861   2.671   5.035   5.856  0.2385 -0.4553  0.1412
   12CHL1   H2A  862   2.770   4.990   5.875  0.7593 -0.3220 -2.0685
   12CHL1   H2B  863   2.587   4.962   5.857 -1.6154  1.5355  2.2824
   12CHL1   C20  864   2.497   5.366   4.971  0.3938 -0.3317 -0.0117
   12CHL1   H20  865   2.411   5.296   4.978 -0.0669  0.2493  0.1808
   12CHL1   C21  866   2.625   5.293   4.929 -0.3966 -0.5775  0.6525
   12CHL1  H21A  867   2.654   5.212   5.000 -0.5850 -2.3595 -1.2215
   12CHL1  H21B  868   2.709   5.365   4.930 -0.5751 -0.3685  1.5113
   12CHL1  H21C  869   2.617   5.253   4.826 -0.2244 -1.4184  0.9586
   12CHL1   C22  870   2.468   5.472   4.865 -0.8284  0.8598 -0.9976
   12CHL1  H22A  871   2.392   5.541   4.906 -0.4425 -1.3554  4.2414
   12CHL1  H22B  872   2.558   5.536   4.855  0.3965  0.0592  3.0160
   12CHL1   C23  873   2.424   5.417   4.724  0.0929 -0.5360  0.0705
   12CHL1  H23A  874   2.500   5.347   4.684  0.3128  0.3572 -1.1435
   12CHL1  H23B  875   2.323   5.372   4.732 -0.0856 -0.1550  0.0016
   12CHL1   C24  876   2.413   5.529   4.617 -0.3367 -0.2640 -0.1144
   12CHL1  H24A  877   2.332   5.599   4.645  1.9331  1.5607  2.4618
   12CHL1  H24B  878   2.499   5.599   4.619 -0.6120  0.1102  2.7517
   12CHL1   C25  879   2.393   5.466   4.479  0.5596 -0.1181  0.0850
   12CHL1   H25  880   2.447   5.369   4.476  0.1624 -0.4701  2.3211
   12CHL1   C26  881   2.249   5.413   4.452 -0.7097 -0.0952  0.1058
   12CHL1  H26A  882   2.215   5.343   4.531 -0.7536 -2.2837 -1.7483
   12CHL1  H26B  883   2.179   5.498   4.444  0.0014  0.4023 -1.2510
   12CHL1  H26C  884   2.246   5.351   4.360  0.2623  0.0091 -0.0121
   12CHL1   C27  885   2.441   5.554   4.356 -0.3617  0.3406  0.5556
   12CHL1  H27A  886   2.391   5.653   4.360 -0.2918  0.5696 -2.1126
   12CHL1  H27B  887   2.552   5.564   4.354 -0.3404  0.0861  0.0764
   12CHL1  H27C  888   2.404   5.501   4.265  0.0134 -1.1076  1.2158
   13CHL1    C3  889   3.048   5.312   5.852  0.1288  0.6264 -0.0374
   13CHL1    H3  890   3.060   5.214   5.802  5.4624  0.3382  1.1477
   13CHL1    O3  891   3.059   5.281   5.993  0.3559 -0.3092 -0.5952
   13CHL1   H3'  892   3.100   5.352   6.044 -0.2621 -1.4416  1.6060
   13CHL1    C4  893   3.185   5.369   5.798 -0.4489 -0.1511  0.6769
   13CHL1   H4A  894   3.204   5.470   5.841 -0.1342  1.0238 -2.0084
   13CHL1   H4B  895   3.266   5.300   5.829 -1.6655 -1.2770  1.4356
   13CHL1    C5  896   3.179   5.381   5.646  0.8963 -0.2203  0.4339
   13CHL1    C6  897   3.267   5.316   5.568 -0.2117  0.5229  0.2093
   13CHL1    H6  898   3.352   5.263   5.614  0.5804  1.0902 -0.5821
   13CHL1    C7  899   3.259   5.333   5.416 -0.0425 -0.0439  0.0395
   13CHL1   H7A  900   3.359   5.345   5.370 -0.4464  1.5784 -0.4722
   13CHL1   H7B  901   3.212   5.244   5.368 -1.2110  0.9054 -0.6540
   13CHL1    C8  902   3.178   5.456   5.360 -0.2817  0.2355 -0.5146
   13CHL1    H8  903   3.241   5.546   5.374 -1.4794  1.3609 -2.1004
   13CHL1   C14  904   3.142   5.441   5.215 -0.0007 -0.0772  1.0220
   13CHL1   H14  905   3.091   5.342   5.206 -0.8695  0.2939  1.7113
   13CHL1   C15  906   3.258   5.437   5.115  0.3778 -0.1132 -0.8472
   13CHL1  H15A  907   3.327   5.522   5.136 -0.9051  0.2840  2.5373
   13CHL1  H15B  908   3.313   5.342   5.104 -0.7559 -0.7874 -0.8003
   13CHL1   C16  909   3.193   5.461   4.984 -0.3480 -0.2987  0.0230
   13CHL1  H16A  910   3.257   5.539   4.936  0.0195  2.1433  3.9665
   13CHL1  H16B  911   3.189   5.376   4.914 -1.2742 -1.4315  1.3944
   13CHL1   C17  912   3.048   5.520   5.014 -0.6592  0.2827 -0.0574
   13CHL1   H17  913   2.979   5.433   5.005  1.8156 -1.6059 -3.5896
   13CHL1   C13  914   3.049   5.553   5.159 -0.3492  0.8433  0.2253
   13CHL1   C18  915   3.108   5.696   5.174  0.1874  0.3638 -0.2003
   13CHL1  H18A  916   3.200   5.705   5.113  0.7337  3.5568  0.8960
   13CHL1  H18B  917   3.041   5.779   5.144 -0.4512 -0.4594 -1.1320
   13CHL1  H18C  918   3.142   5.711   5.278  3.2391  2.0654 -1.3215
   13CHL1   C12  919   2.920   5.546   5.235  0.5018  0.2238 -0.1808
   13CHL1  H12A  920   2.842   5.611   5.189 -0.3061 -1.5965 -1.5260
   13CHL1  H12B  921   2.877   5.443   5.231  1.9472 -0.4121 -0.0553
   13CHL1   C11  922   2.943   5.561   5.387  0.0881  0.2260 -0.4917
   13CHL1  H11A  923   2.974   5.665   5.410 -0.4489  0.0602  1.1218
   13CHL1  H11B  924   2.849   5.555   5.447  0.6414 -2.2820  0.2261
   13CHL1    C9  925   3.046   5.456   5.439  1.0363  0.1069 -0.2328
   13CHL1    H9  926   2.996   5.358   5.423 -3.0352  0.7051  5.5666
   13CHL1   C10  927   3.059   5.463   5.590  0.5237 -0.2643  0.2203
   13CHL1   C19  928   3.081   5.607   5.642  0.0025 -0.1521  0.0774
   13CHL1  H19A  929   2.988   5.666   5.626 -0.0640  0.3931  2.2217
   13CHL1  H19B  930   3.087   5.618   5.752 -0.9947 -1.4002  0.2795
   13CHL1  H19C  931   3.159   5.657   5.580 -1.4037  1.1072 -0.7446
   13CHL1    C1  932   2.930   5.410   5.657  0.1811  0.2449 -0.0437
   13CHL1   H1A  933   2.840   5.472   5.636 -0.5266 -0.6549  0.2898
   13CHL1   H1B  934   2.918   5.302   5.635 -0.2915  0.0706  1.0321
   13CHL1    C2  935   2.937   5.403   5.810  1.0710 -0.2403 -0.4332
   13CHL1   H2A  936   2.842   5.361   5.850  1.4855 -3.3098 -2.3692
   13CHL1   H2B  937   2.941   5.499   5.866 -0.2695 -0.3519 -0.1046
   13CHL1   C20  938   3.010   5.630   4.911 -0.0472 -0.7366 -0.2823
   13CHL1   H20  939   3.064   5.724   4.934  0.2064 -1.9126  5.5059
   13CHL1   C21  940   2.861   5.670   4.931 -0.1080 -1.3927 -0.3741
   13CHL1  H21A  941   2.834   5.729   4.841  1.1193  0.0374  0.1478
   13CHL1  H21B  942   2.844   5.734   5.021  0.8551 -1.5951 -0.0392
   13CHL1  H21C  943   2.799   5.578   4.937 -1.5162 -0.4026  1.2938
   13CHL1   C22  944   3.025   5.574   4.765 -0.5436 -0.1827 -0.7290
   13CHL1  H22A  945   3.002   5.656   4.693 -2.2651  0.1822  0.1816
   13CHL1  H22B  946   3.135   5.573   4.754 -0.4522  2.4650 -0.7044
   13CHL1   C23  947   2.942   5.451   4.735  0.0399  0.2408  0.5735
   13CHL1  H23A  948   2.991   5.367   4.789  0.7261  0.2170 -0.0794
   13CHL1  H23B  949   2.836   5.462   4.768 -0.5677 -2.7069 -0.0660
   13CHL1   C24  950   2.934   5.411   4.584 -0.8371 -0.2116  0.5674
   13CHL1  H24A  951   2.930   5.503   4.521  1.9543 -1.1800 -1.2382
   13CHL1  H24B  952   3.032   5.364   4.558 -1.0239 -1.4603  2.0325
   13CHL1   C25  953   2.834   5.302   4.551  0.3559 -0.1143 -0.3127
   13CHL1   H25  954   2.737   5.340   4.589  0.1582 -0.4280 -0.4947
   13CHL1   C26  955   2.821   5.294   4.390 -0.2263  0.0687  0.6083
   13CHL1  H26A  956   2.737   5.226   4.365 -0.1054  0.8796 -2.3794
   13CHL1  H26B  957   2.785   5.396   4.363 -0.6852 -0.5439 -1.2172
   13CHL1  H26C  958   2.908   5.267   4.327  0.0998 -2.1737  1.9335
   13CHL1   C27  959   2.875   5.161   4.603  0.1258 -0.1489 -0.1568
   13CHL1  H27A  960   2.898   5.160   4.712 -1.0255 -0.5145  0.1059
   13CHL1  H27B  961   2.798   5.084   4.583 -0.9958  1.2750 -1.5930
   13CHL1  H27C  962   2.963   5.128   4.545 -1.3400 -2.1134 -1.3724
   14CHL1    C3  963   1.585   2.705   5.967  0.1263 -0.9583  0.0396
   14CHL1    H3  964   1.537   2.805   5.964  0.6905 -0.6899 -0.1801
   14CHL1    O3  965   1.666   2.689   6.084  0.1062  0.1383  0.0363
   14CHL1   H3'  966   1.648   2.597   6.106  0.9877 -0.5544 -1.9288
   14CHL1    C4  967   1.477   2.597   5.963 -0.4443 -0.0789  0.1017
   14CHL1   H4A  968   1.523   2.496   5.971 -0.8222 -0.6182 -3.2102
   14CHL1   H4B  969   1.419   2.607   6.058 -0.9441 -0.4941 -0.1511
   14CHL1    C5  970   1.395   2.600   5.835  0.3706 -0.2177  0.5449
   14CHL1    C6  971   1.266   2.637   5.820  0.5138 -0.5362  0.1255
   14CHL1    H6  972   1.197   2.660   5.902 -0.5557 -1.2447 -0.5545
   14CHL1    C7  973   1.183   2.640   5.698 -0.6381  0.2619  0.2870
   14CHL1   H7A  974   1.086   2.589   5.717  0.0553 -2.4701 -2.5176
   14CHL1   H7B  975   1.161   2.746   5.671  1.3660  0.6906  0.1425
   14CHL1    C8  976   1.251   2.564   5.582 -0.5981 -0.4898 -0.5502
   14CHL1    H8  977   1.241   2.456   5.602  2.0764 -0.6695  0.1248
   14CHL1   C14  978   1.179   2.606   5.455 -0.4052  0.0330 -0.2779
   14CHL1   H14  979   1.198   2.715   5.439 -2.7414  0.4423 -0.6208
   14CHL1   C15  980   1.027   2.591   5.445 -0.4078 -0.3666  0.2807
   14CHL1  H15A  981   0.997   2.495   5.492 -2.2857  0.6641  1.3080
   14CHL1  H15B  982   0.973   2.673   5.496 -0.9648 -0.3479 -0.3256
   14CHL1   C16  983   0.998   2.577   5.291 -0.6932  0.7571  0.3177
   14CHL1  H16A  984   0.955   2.477   5.268  1.3419  0.2112 -1.4179
   14CHL1  H16B  985   0.940   2.662   5.250  1.6198  2.0248 -0.5183
   14CHL1   C17  986   1.137   2.587   5.221  0.3629  0.0264  0.2506
   14CHL1   H17  987   1.168   2.689   5.190  1.7493 -0.9732 -1.9312
   14CHL1   C13  988   1.243   2.552   5.326  0.1466  0.0577 -0.0367
   14CHL1   C18  989   1.245   2.397   5.343 -0.0027  0.3310  0.4142
   14CHL1  H18A  990   1.142   2.357   5.344  0.1769 -0.2894 -1.7266
   14CHL1  H18B  991   1.309   2.354   5.263 -0.7853 -1.2265  0.5839
   14CHL1  H18C  992   1.297   2.358   5.433  0.0432 -1.1714 -0.2244
   14CHL1   C12  993   1.386   2.597   5.313  0.0194  0.2702  0.3253
   14CHL1  H12A  994   1.438   2.536   5.236 -2.1979 -0.8340 -0.3955
   14CHL1  H12B  995   1.389   2.706   5.289 -2.5793  0.0926 -1.2151
   14CHL1   C11  996   1.470   2.572   5.441 -0.2755 -0.0337  0.4167
   14CHL1  H11A  997   1.511   2.468   5.438  1.6947  0.7196 -1.9096
   14CHL1  H11B  998   1.555   2.643   5.438  0.6067 -1.0799 -2.1090
   14CHL1    C9  999   1.397   2.607   5.574 -0.3742 -0.3478 -0.3499
   14CHL1    H9 1000   1.392   2.718   5.563  1.7731 -0.1966 -0.2313
   14CHL1   C10 1001   1.474   2.575   5.704  0.1525 -0.2604  0.0779
   14CHL1   C19 1002   1.527   2.435   5.702 -0.3788  0.5102 -0.0828
   14CHL1  H19A 1003   1.445   2.360   5.707 -1.1261  1.3831  3.2885
   14CHL1  H19B 1004   1.596   2.421   5.616  0.1806 -1.3760  0.6359
   14CHL1  H19C 1005   1.585   2.411   5.793 -1.7690  0.7904  0.9137
   14CHL1    C1 1006   1.591   2.681   5.713 -0.1057 -0.1571  1.0322
   14CHL1   H1A 1007   1.665   2.667   5.631  0.0912 -0.0972  1.1989
   14CHL1   H1B 1008   1.547   2.782   5.704 -0.4131 -0.0606  3.1477
   14CHL1    C2 1009   1.673   2.686   5.847  0.0521  0.7022  0.6345
   14CHL1   H2A 1010   1.742   2.772   5.835 -1.0054  1.6617  1.1491
   14CHL1   H2B 1011   1.731   2.591   5.850  2.0531  1.7251 -1.8255
   14CHL1   C20 1012   1.142   2.506   5.090  0.2461  0.5282  0.8961
   14CHL1   H20 1013   1.124   2.397   5.102  2.7384 -0.0647  0.0448
   14CHL1   C21 1014   1.270   2.527   5.008  0.1562  0.2530  0.0587
   14CHL1  H21A 1015   1.283   2.473   4.912 -0.2572  0.8279 -0.3292
   14CHL1  H21B 1016   1.346   2.474   5.069 -1.0694  0.3265  1.7275
   14CHL1  H21C 1017   1.297   2.635   5.002 -2.1190  0.8462 -0.5369
   14CHL1   C22 1018   1.019   2.535   4.994 -0.3796 -0.5194 -0.3274
   14CHL1  H22A 1019   0.923   2.515   5.046 -0.3745 -1.9522 -0.8213
   14CHL1  H22B 1020   1.018   2.645   4.987  0.7357 -0.3679  1.3522
   14CHL1   C23 1021   1.018   2.489   4.849 -0.6194 -0.0314 -0.3610
   14CHL1  H23A 1022   1.106   2.522   4.789 -0.2258  0.4899  0.4812
   14CHL1  H23B 1023   1.028   2.379   4.847 -3.4036 -0.3623  0.3956
   14CHL1   C24 1024   0.884   2.515   4.779 -0.8382 -0.9177  0.1230
   14CHL1  H24A 1025   0.795   2.473   4.832 -0.9108 -2.4377 -1.1299
   14CHL1  H24B 1026   0.873   2.625   4.785 -0.6474 -0.8934  0.0280
   14CHL1   C25 1027   0.873   2.471   4.637 -0.1828  0.1267  0.7508
   14CHL1   H25 1028   0.966   2.505   4.587 -0.4086 -0.2662  0.0591
   14CHL1   C26 1029   0.857   2.317   4.625 -0.0336 -0.4988  0.3658
   14CHL1  H26A 1030   0.922   2.271   4.702 -0.4891  1.1341  1.7862
   14CHL1  H26B 1031   0.754   2.279   4.637 -0.6985  1.4046  1.1357
   14CHL1  H26C 1032   0.882   2.277   4.524 -0.2748  0.1943  0.0241
   14CHL1   C27 1033   0.758   2.542   4.567  0.0813  0.7984 -0.3131
   14CHL1  H27A 1034   0.744   2.527   4.458 -3.2343 -0.3619  0.1387
   14CHL1  H27B 1035   0.660   2.511   4.609 -0.2617  1.1611 -0.8384
   14CHL1  H27C 1036   0.770   2.651   4.585  0.1626  0.4692  1.8458
   15CHL1    C3 1037   1.634   1.938   5.671  0.0421 -0.2343 -0.6036
   15CHL1    H3 1038   1.737   1.954   5.634  0.2548 -0.4609 -0.1164
   15CHL1    O3 1039   1.643   1.932   5.814 -0.3454 -0.1305 -0.1068
   15CHL1   H3' 1040   1.557   1.901   5.844 -0.0476  0.5019  1.4639
   15CHL1    C4 1041   1.557   2.057   5.620  0.1489 -0.0745  0.7384
   15CHL1   H4A 1042   1.451   2.058   5.656 -2.2039 -1.5285 -5.0289
   15CHL1   H4B 1043   1.604   2.150   5.657  1.2608 -0.0111 -0.7820
   15CHL1    C5 1044   1.535   2.061   5.471  0.3805  0.7997 -0.3068
   15CHL1    C6 1045   1.571   2.169   5.398  0.0169 -0.5531  0.7234
   15CHL1    H6 1046   1.620   2.253   5.449 -0.2172  0.0468 -0.0132
   15CHL1    C7 1047   1.553   2.194   5.249  0.3936  0.3038 -0.3126
   15CHL1   H7A 1048   1.514   2.297   5.236 -1.3858 -0.3430 -0.4447
   15CHL1   H7B 1049   1.652   2.173   5.203  0.0322  0.1390 -1.0368
   15CHL1    C8 1050   1.451   2.088   5.196 -0.3602 -0.5874  0.0408
   15CHL1    H8 1051   1.348   2.120   5.222 -0.0591  2.5348 -2.0792
   15CHL1   C14 1052   1.452   2.081   5.038 -0.0564 -0.1425  0.1319
   15CHL1   H14 1053   1.556   2.055   5.010 -0.1338 -0.7611  0.4046
   15CHL1   C15 1054   1.422   2.217   4.964 -0.2240 -0.5063 -0.0491
   15CHL1  H15A 1055   1.343   2.269   5.023  0.3285  0.7136 -0.3469
   15CHL1  H15B 1056   1.509   2.284   4.954 -0.4080 -0.5409 -2.3765
   15CHL1   C16 1057   1.376   2.182   4.825 -0.0891  0.2543  0.0046
   15CHL1  H16A 1058   1.266   2.200   4.825 -0.1688 -0.2100  0.5066
   15CHL1  H16B 1059   1.417   2.232   4.735  0.2677 -2.1126 -1.2195
   15CHL1   C17 1060   1.382   2.019   4.821 -0.4035 -0.0739  0.9044
   15CHL1   H17 1061   1.486   1.994   4.792 -0.5961 -1.0740  1.0185
   15CHL1   C13 1062   1.365   1.976   4.972  0.0054 -0.9176 -0.3942
   15CHL1   C18 1063   1.217   1.990   4.995  0.0711 -0.5846 -0.0258
   15CHL1  H18A 1064   1.165   2.084   4.966 -1.0108  0.7394  5.2921
   15CHL1  H18B 1065   1.167   1.909   4.938 -1.2603 -0.3934  0.8424
   15CHL1  H18C 1066   1.191   1.975   5.101  1.2265 -2.5529  0.0227
   15CHL1   C12 1067   1.415   1.836   5.011 -0.4208 -0.9934 -0.0264
   15CHL1  H12A 1068   1.352   1.755   4.968 -0.4164 -1.4446  0.7977
   15CHL1  H12B 1069   1.519   1.822   4.976 -0.8353 -1.0889 -1.2852
   15CHL1   C11 1070   1.415   1.830   5.166 -0.0336 -0.2801  0.1983
   15CHL1  H11A 1071   1.309   1.843   5.197  0.3036 -1.9793  2.2877
   15CHL1  H11B 1072   1.451   1.727   5.187  1.9369  0.2891 -0.1844
   15CHL1    C9 1073   1.484   1.950   5.246 -0.0243 -0.6194 -0.7310
   15CHL1    H9 1074   1.593   1.937   5.227 -0.2900  0.2479 -3.1971
   15CHL1   C10 1075   1.475   1.933   5.400  0.2951  0.4235 -0.2003
   15CHL1   C19 1076   1.325   1.925   5.439  0.5383  0.2093  0.2456
   15CHL1  H19A 1077   1.256   2.001   5.396  0.3086 -0.2186 -0.1608
   15CHL1  H19B 1078   1.282   1.829   5.402 -1.2572  1.6047 -1.5179
   15CHL1  H19C 1079   1.322   1.939   5.549 -2.6653  2.6102  0.0075
   15CHL1    C1 1080   1.548   1.802   5.461 -0.4688 -0.6091  0.8540
   15CHL1   H1A 1081   1.496   1.708   5.432  0.7760 -0.1652 -3.6441
   15CHL1   H1B 1082   1.648   1.807   5.412 -1.1182  0.7013 -0.4286
   15CHL1    C2 1083   1.570   1.804   5.612 -0.3468 -0.4511 -0.4799
   15CHL1   H2A 1084   1.637   1.720   5.640 -0.6504 -0.3961  0.4446
   15CHL1   H2B 1085   1.478   1.783   5.671 -1.3317  0.2693 -1.7151
   15CHL1   C20 1086   1.283   1.963   4.713  0.3169  0.2815  0.8407
   15CHL1   H20 1087   1.177   1.967   4.745 -0.2962  1.0260 -1.1335
   15CHL1   C21 1088   1.309   1.815   4.700 -0.5758 -0.5131  0.4967
   15CHL1  H21A 1089   1.262   1.751   4.777 -1.0157 -2.6252 -1.4172
   15CHL1  H21B 1090   1.420   1.811   4.698 -0.4148  1.9747  0.4520
   15CHL1  H21C 1091   1.270   1.783   4.601  1.2744  2.2991 -1.2983
   15CHL1   C22 1092   1.272   2.033   4.573 -0.0063 -0.3527  0.7153
   15CHL1  H22A 1093   1.273   2.144   4.583 -0.8611 -0.3780  1.1054
   15CHL1  H22B 1094   1.364   2.011   4.514 -0.6460 -0.7234 -0.1655
   15CHL1   C23 1095   1.157   1.989   4.492 -0.5392 -0.1331  0.0487
   15CHL1  H23A 1096   1.169   1.898   4.430  0.0140  0.5918 -0.9284
   15CHL1  H23B 1097   1.072   1.984   4.564  0.2803  0.4659  1.0861
   15CHL1   C24 1098   1.122   2.100   4.384  0.2542  0.5536  0.7983
   15CHL1  H24A 1099   1.078   2.186   4.438  3.3121  3.4406 -0.9713
   15CHL1  H24B 1100   1.211   2.136   4.329 -0.7898  1.5199 -0.3338
   15CHL1   C25 1101   1.018   2.047   4.285 -0.2698 -0.5562  0.8788
   15CHL1   H25 1102   1.063   1.969   4.220 -1.7486 -1.2056  0.6129
   15CHL1   C26 1103   0.900   1.981   4.357 -0.4552  0.7905  0.5489
   15CHL1  H26A 1104   0.859   2.048   4.435 -0.3244  1.6553 -0.1125
   15CHL1  H26B 1105   0.816   1.966   4.286  1.8894 -2.1248 -1.9247
   15CHL1  H26C 1106   0.921   1.880   4.399 -3.9611 -0.1949  0.2509
   15CHL1   C27 1107   0.978   2.173   4.196  0.4055  0.3528 -0.4381
   15CHL1  H27A 1108   1.063   2.221   4.144 -0.4354  1.5732 -0.7279
   15CHL1  H27B 1109   0.921   2.130   4.111 -0.7014 -0.4626  0.6847
   15CHL1  H27C 1110   0.920   2.253   4.248 -2.1860 -0.2890 -2.1904
   16CHL1    C3 1111   1.178   5.307   6.325  0.2729  0.4698 -0.6437
   16CHL1    H3 1112   1.258   5.383   6.316  1.9009 -1.3667 -2.8268
   16CHL1    O3 1113   1.141   5.260   6.456 -0.0875  0.0764 -0.5701
   16CHL1   H3' 1114   1.073   5.194   6.443  0.6868 -1.2935  1.6893
   16CHL1    C4 1115   1.049   5.353   6.262 -0.4257 -0.5504  0.3963
   16CHL1   H4A 1116   0.969   5.278   6.280 -1.2911 -0.2515 -1.8475
   16CHL1   H4B 1117   1.023   5.448   6.314 -0.7193  0.1436 -0.9797
   16CHL1    C5 1118   1.071   5.378   6.116  0.5699 -0.3528 -0.0337
   16CHL1    C6 1119   1.029   5.492   6.067  0.7410  0.2482 -0.3156
   16CHL1    H6 1120   0.989   5.569   6.135  1.9327 -1.0890  2.0628
   16CHL1    C7 1121   1.001   5.516   5.920 -0.5109  0.6519  0.8679
   16CHL1   H7A 1122   0.901   5.562   5.907 -0.6616  0.0425 -0.3023
   16CHL1   H7B 1123   1.074   5.587   5.876  0.7783 -1.3924 -0.4409
   16CHL1    C8 1124   1.013   5.378   5.834  0.8260 -0.4012 -0.3947
   16CHL1    H8 1125   0.918   5.323   5.853 -0.4159  2.0728  0.9551
   16CHL1   C14 1126   1.025   5.424   5.689  0.1055  0.2847 -0.3442
   16CHL1   H14 1127   1.118   5.485   5.676 -0.8229  1.3386 -2.6797
   16CHL1   C15 1128   0.919   5.509   5.616 -0.5655  0.3445 -0.4487
   16CHL1  H15A 1129   0.815   5.487   5.648 -0.7021 -0.1384 -1.2159
   16CHL1  H15B 1130   0.934   5.614   5.650  1.8268 -0.1940  0.2830
   16CHL1   C16 1131   0.945   5.499   5.468  0.5312  0.3205  0.3253
   16CHL1  H16A 1132   0.857   5.454   5.417 -0.4592 -0.9081  2.9654
   16CHL1  H16B 1133   0.975   5.586   5.406  0.9857 -1.1418 -1.6251
   16CHL1   C17 1134   1.054   5.386   5.454  0.1754 -0.0327  0.2059
   16CHL1   H17 1135   1.153   5.437   5.449  0.8371 -1.3213 -0.3975
   16CHL1   C13 1136   1.045   5.310   5.594  0.0648  0.8591 -0.2403
   16CHL1   C18 1137   0.929   5.212   5.589  0.1935  0.0073 -0.4650
   16CHL1  H18A 1138   0.944   5.126   5.521 -1.1309 -0.3991 -0.2688
   16CHL1  H18B 1139   0.911   5.167   5.690  0.6485 -1.8024 -1.1479
   16CHL1  H18C 1140   0.838   5.268   5.560  0.3560  1.2935  1.3208
   16CHL1   C12 1141   1.175   5.233   5.641 -0.0154  0.0782  0.8582
   16CHL1  H12A 1142   1.192   5.144   5.577  1.1191  1.1185 -0.3549
   16CHL1  H12B 1143   1.265   5.298   5.636  0.1497 -0.0739  1.6627
   16CHL1   C11 1144   1.167   5.183   5.789  0.2308 -0.7419 -0.2887
   16CHL1  H11A 1145   1.081   5.112   5.791 -0.1277 -0.3311 -0.6798
   16CHL1  H11B 1146   1.265   5.146   5.824  0.5090 -1.1551 -1.4510
   16CHL1    C9 1147   1.136   5.299   5.889  0.6542  1.1401  0.2609
   16CHL1    H9 1148   1.221   5.371   5.884  0.8435  0.8352 -1.7495
   16CHL1   C10 1149   1.116   5.252   6.035 -0.3815 -0.2820 -0.8306
   16CHL1   C19 1150   1.014   5.136   6.040 -0.4177 -0.0529  0.1052
   16CHL1  H19A 1151   0.917   5.144   5.987 -0.6148  2.5212  0.7070
   16CHL1  H19B 1152   1.069   5.049   5.999 -1.0782 -0.6395  0.4494
   16CHL1  H19C 1153   0.984   5.118   6.146 -0.6194 -2.3180 -0.2911
   16CHL1    C1 1154   1.256   5.212   6.099 -0.4086 -0.6938 -0.7702
   16CHL1   H1A 1155   1.310   5.134   6.042 -1.0945 -0.5256 -1.6667
   16CHL1   H1B 1156   1.322   5.301   6.092 -1.3056  0.1552  0.7217
   16CHL1    C2 1157   1.235   5.177   6.248  0.0249 -0.4882 -0.2752
   16CHL1   H2A 1158   1.329   5.140   6.293 -0.8839 -1.3313  1.0095
   16CHL1   H2B 1159   1.153   5.101   6.249 -2.7289  2.2776 -0.4969
   16CHL1   C20 1160   1.038   5.312   5.319 -0.7110  0.5022  0.0341
   16CHL1   H20 1161   0.946   5.250   5.316 -0.0079 -0.5670 -0.0716
   16CHL1   C21 1162   1.162   5.215   5.294  0.3043 -0.5216  0.1416
   16CHL1  H21A 1163   1.186   5.137   5.369  2.6572  0.5916  0.6278
   16CHL1  H21B 1164   1.247   5.284   5.274 -0.3975  0.5945  0.8381
   16CHL1  H21C 1165   1.135   5.156   5.204  2.2183 -0.7491 -0.3230
   16CHL1   C22 1166   1.023   5.408   5.190 -0.8804 -0.1439  0.4607
   16CHL1  H22A 1167   0.931   5.468   5.203 -0.7764  0.0623  0.2220
   16CHL1  H22B 1168   1.113   5.472   5.201 -1.9909  1.7089 -0.7327
   16CHL1   C23 1169   1.020   5.352   5.048  0.3374  0.6862 -0.0488
   16CHL1  H23A 1170   1.008   5.435   4.975 -0.5356  2.4497  1.9699
   16CHL1  H23B 1171   1.120   5.308   5.027 -0.2570 -0.2827 -0.9657
   16CHL1   C24 1172   0.894   5.268   5.028  0.6320 -0.4910 -0.1876
   16CHL1  H24A 1173   0.867   5.223   5.126  1.7753  2.8565  1.8194
   16CHL1  H24B 1174   0.808   5.336   5.010  1.1493  0.1393 -0.3167
   16CHL1   C25 1175   0.898   5.158   4.911  0.4246 -0.8689 -0.1326
   16CHL1   H25 1176   0.981   5.090   4.940 -0.4613 -1.7076  0.5013
   16CHL1   C26 1177   0.764   5.089   4.899  0.5435 -0.0834  0.0388
   16CHL1  H26A 1178   0.681   5.161   4.886 -0.1183 -1.0452 -1.3244
   16CHL1  H26B 1179   0.756   5.025   4.809 -0.8132  0.3414 -0.1644
   16CHL1  H26C 1180   0.734   5.031   4.989 -1.4991  0.8342  0.0117
   16CHL1   C27 1181   0.938   5.221   4.772  0.3011  0.8195  0.2163
   16CHL1  H27A 1182   0.846   5.264   4.726  0.2473 -0.4922 -0.9922
   16CHL1  H27B 1183   1.008   5.307   4.778  0.2116  1.2141 -2.8561
   16CHL1  H27C 1184   0.977   5.144   4.702  0.6806 -0.7022  2.0074
   17CHL1    C3 1185   1.818   3.755   5.728  0.8064 -0.2659 -0.8390
   17CHL1    H3 1186   1.728   3.691   5.723  0.2848  0.1914  1.7492
   17CHL1    O3 1187   1.860   3.756   5.866  0.3987  0.0145 -0.0192
   17CHL1   H3' 1188   1.928   3.823   5.868 -2.2518  2.9562  0.1263
   17CHL1    C4 1189   1.926   3.703   5.637  0.0479 -0.9695 -0.2865
   17CHL1   H4A 1190   2.021   3.758   5.653 -0.4664 -0.6469  2.0313
   17CHL1   H4B 1191   1.951   3.600   5.667  0.3796 -0.5401  0.9580
   17CHL1    C5 1192   1.893   3.706   5.494 -0.1401 -0.4135 -0.4358
   17CHL1    C6 1193   1.917   3.600   5.418  0.3570  0.4465 -0.3611
   17CHL1    H6 1194   1.949   3.507   5.466 -3.2598 -0.8086 -0.0592
   17CHL1    C7 1195   1.893   3.589   5.267  0.2561  0.1220 -0.0301
   17CHL1   H7A 1196   1.973   3.537   5.209  0.4300 -0.2559  0.5381
   17CHL1   H7B 1197   1.798   3.534   5.252  0.2607 -0.6947  2.4807
   17CHL1    C8 1198   1.870   3.731   5.207  0.3881 -0.8608 -0.1812
   17CHL1    H8 1199   1.965   3.788   5.202 -1.9347  3.3125 -1.4415
   17CHL1   C14 1200   1.814   3.713   5.068  0.0367  0.2003  0.2623
   17CHL1   H14 1201   1.722   3.653   5.083 -0.3889  1.5773  4.3313
   17CHL1   C15 1202   1.895   3.629   4.964  0.3216 -0.7163 -0.6993
   17CHL1  H15A 1203   1.995   3.678   4.955  1.0525 -2.3609 -2.2070
   17CHL1  H15B 1204   1.913   3.522   4.990  0.0922 -0.7320 -0.6035
   17CHL1   C16 1205   1.823   3.658   4.831 -0.5090  0.4796 -0.3704
   17CHL1  H16A 1206   1.905   3.674   4.759 -0.1690  1.8194  0.2980
   17CHL1  H16B 1207   1.762   3.570   4.801  0.0308 -0.5725  1.4900
   17CHL1   C17 1208   1.730   3.788   4.853  1.1200  0.3755  0.1847
   17CHL1   H17 1209   1.625   3.756   4.872  0.9983 -0.1811 -1.3468
   17CHL1   C13 1210   1.777   3.845   4.996  0.5452 -0.2978 -0.0614
   17CHL1   C18 1211   1.906   3.935   4.968 -0.3115  0.1323 -0.4969
   17CHL1  H18A 1212   1.958   3.901   4.876 -0.0764  0.0099 -0.3211
   17CHL1  H18B 1213   1.872   4.039   4.955  0.1709  0.3046 -0.3941
   17CHL1  H18C 1214   1.989   3.937   5.042 -0.6605 -0.6973 -0.0723
   17CHL1   C12 1215   1.678   3.915   5.075  0.6178 -0.0151 -0.1285
   17CHL1  H12A 1216   1.656   4.010   5.021  1.1359 -0.2091 -0.6911
   17CHL1  H12B 1217   1.581   3.863   5.090  0.2323  0.1741 -1.8168
   17CHL1   C11 1218   1.732   3.940   5.220 -0.4171  0.4864  0.0503
   17CHL1  H11A 1219   1.818   4.009   5.212  0.7245 -0.7044  1.3893
   17CHL1  H11B 1220   1.643   3.975   5.276  0.0209 -0.0143  1.0764
   17CHL1    C9 1221   1.782   3.811   5.299  0.7166 -0.6374  0.0907
   17CHL1    H9 1222   1.689   3.752   5.314  0.8247 -0.8996 -0.2653
   17CHL1   C10 1223   1.836   3.837   5.437 -0.5141  1.1165  0.1748
   17CHL1   C19 1224   1.945   3.939   5.427 -0.4468  0.4630  0.5643
   17CHL1  H19A 1225   2.005   3.951   5.520  0.0757  3.3447 -0.0570
   17CHL1  H19B 1226   2.024   3.905   5.356 -1.6721 -0.1455 -0.5329
   17CHL1  H19C 1227   1.907   4.040   5.402 -2.2926  0.2853  2.3848
   17CHL1    C1 1228   1.733   3.896   5.540 -0.1965 -0.1247 -0.0021
   17CHL1   H1A 1229   1.710   4.000   5.508 -2.4872 -1.3461 -2.7835
   17CHL1   H1B 1230   1.639   3.836   5.536  0.1441 -0.8971  2.3862
   17CHL1    C2 1231   1.782   3.897   5.685 -0.5723 -0.0863  0.0098
   17CHL1   H2A 1232   1.695   3.934   5.742 -0.6908  0.1738 -0.3380
   17CHL1   H2B 1233   1.870   3.964   5.699 -0.3245 -0.4832  0.3881
   17CHL1   C20 1234   1.721   3.878   4.729  0.0390 -0.3710 -0.3957
   17CHL1   H20 1235   1.811   3.941   4.715 -1.1925  1.2438 -1.4071
   17CHL1   C21 1236   1.598   3.968   4.747 -0.4676  0.0138  0.0538
   17CHL1  H21A 1237   1.508   3.905   4.738 -0.0909 -0.8224  1.6779
   17CHL1  H21B 1238   1.589   4.040   4.663 -2.3889  0.6757  0.7750
   17CHL1  H21C 1239   1.595   4.022   4.844 -1.8465 -0.0383  0.0471
   17CHL1   C22 1240   1.697   3.806   4.594 -0.5340 -0.0576  0.5300
   17CHL1  H22A 1241   1.760   3.714   4.598  1.1776  0.9684 -0.9565
   17CHL1  H22B 1242   1.591   3.773   4.583 -0.7929 -0.1575  2.9013
   17CHL1   C23 1243   1.722   3.891   4.469  0.7967 -0.5914  0.3712
   17CHL1  H23A 1244   1.672   3.990   4.467  2.7846  0.4640 -1.7808
   17CHL1  H23B 1245   1.829   3.919   4.465  0.3464  1.0850 -1.2574
   17CHL1   C24 1246   1.688   3.826   4.342  0.1572  0.1511 -0.1609
   17CHL1  H24A 1247   1.711   3.719   4.364  1.7755  0.4576 -0.1941
   17CHL1  H24B 1248   1.582   3.833   4.311  0.4551  3.5116 -0.8013
   17CHL1   C25 1249   1.768   3.866   4.219 -0.6317  0.1969  0.5055
   17CHL1   H25 1250   1.873   3.878   4.254 -0.7146  0.3931  0.6874
   17CHL1   C26 1251   1.763   3.761   4.104 -0.4978 -0.0164  0.0416
   17CHL1  H26A 1252   1.753   3.660   4.149 -2.9415  0.8002  1.5369
   17CHL1  H26B 1253   1.678   3.790   4.040 -1.4863  0.3527  1.4676
   17CHL1  H26C 1254   1.854   3.757   4.041 -1.0940  0.0357 -0.8431
   17CHL1   C27 1255   1.730   4.010   4.162  1.3265  0.2375 -0.1378
   17CHL1  H27A 1256   1.752   4.086   4.241  2.9367 -1.8157  1.5144
   17CHL1  H27B 1257   1.778   4.030   4.064 -1.0981 -0.3605 -1.5236
   17CHL1  H27C 1258   1.621   4.009   4.140  1.4248  2.0678 -0.9120
   18CHL1    C3 1259   2.209   4.785   5.870  0.0115  0.2710  0.3730
   18CHL1    H3 1260   2.298   4.852   5.874  0.0163  0.2369  0.8847
   18CHL1    O3 1261   2.180   4.763   6.002  0.1661  0.5008  0.2051
   18CHL1   H3' 1262   2.089   4.732   6.005 -0.6504  2.6990  0.1626
   18CHL1    C4 1263   2.089   4.847   5.806 -0.2154 -0.2743 -0.3379
   18CHL1   H4A 1264   1.995   4.794   5.831 -0.9250  1.4169  0.8041
   18CHL1   H4B 1265   2.074   4.948   5.850  1.4671 -0.7489  1.3937
   18CHL1    C5 1266   2.120   4.863   5.656  0.3913 -0.0620  0.2111
   18CHL1    C6 1267   2.115   4.980   5.588 -0.5330  0.1057 -0.5902
   18CHL1    H6 1268   2.101   5.079   5.634  2.0794  0.2660 -0.0180
   18CHL1    C7 1269   2.124   4.978   5.441 -0.4343 -0.7269  0.0901
   18CHL1   H7A 1270   2.036   5.040   5.413  1.4610  1.8002 -0.6296
   18CHL1   H7B 1271   2.216   5.021   5.395 -0.7767  0.5836  0.5890
   18CHL1    C8 1272   2.107   4.840   5.362  0.1013  0.2556 -1.0181
   18CHL1    H8 1273   1.999   4.815   5.368  0.2592 -0.4699 -1.1082
   18CHL1   C14 1274   2.139   4.851   5.215  0.1416  0.8355 -0.2116
   18CHL1   H14 1275   2.244   4.886   5.226 -0.0050  0.7047  2.3245
   18CHL1   C15 1276   2.067   4.960   5.134 -0.0121 -0.6435  0.5423
   18CHL1  H15A 1277   1.958   4.965   5.157  0.0931  0.4937  0.8851
   18CHL1  H15B 1278   2.112   5.058   5.163 -0.2084 -0.5045  0.3810
   18CHL1   C16 1279   2.096   4.926   4.988 -0.5852 -0.9096 -0.0675
   18CHL1  H16A 1280   2.000   4.928   4.932 -0.1950 -0.1403 -0.7375
   18CHL1  H16B 1281   2.167   5.000   4.944  0.0402 -0.0727  2.2241
   18CHL1   C17 1282   2.163   4.779   4.989 -0.1172 -0.0078  0.5529
   18CHL1   H17 1283   2.273   4.792   4.989 -0.1969  0.7161 -0.4536
   18CHL1   C13 1284   2.138   4.722   5.132 -0.3241  0.0877 -0.0775
   18CHL1   C18 1285   1.994   4.671   5.137  0.1404 -0.4382  0.6091
   18CHL1  H18A 1286   1.985   4.576   5.079  1.4462 -1.2449  1.6620
   18CHL1  H18B 1287   1.965   4.650   5.242  0.6938 -0.1493  0.8213
   18CHL1  H18C 1288   1.921   4.733   5.082  1.0273 -0.9458 -1.2240
   18CHL1   C12 1289   2.239   4.626   5.196 -0.1388 -0.3883 -0.2717
   18CHL1  H12A 1290   2.238   4.524   5.151 -1.1832  0.6908 -2.8904
   18CHL1  H12B 1291   2.343   4.664   5.183 -0.4251 -0.0377 -1.6778
   18CHL1   C11 1292   2.213   4.608   5.350 -0.9076  0.1608 -0.2163
   18CHL1  H11A 1293   2.122   4.547   5.366 -0.6924 -0.0458  0.2393
   18CHL1  H11B 1294   2.297   4.546   5.387 -0.7904  1.1338  1.2151
   18CHL1    C9 1295   2.194   4.738   5.429 -0.5844  0.2077 -0.6326
   18CHL1    H9 1296   2.294   4.786   5.423 -1.2140  1.9690  1.5392
   18CHL1   C10 1297   2.160   4.719   5.581  0.2591  0.0036 -0.4036
   18CHL1   C19 1298   2.027   4.630   5.592  0.1109  0.2933  0.2838
   18CHL1  H19A 1299   2.048   4.523   5.570 -0.2990  0.1566  0.5586
   18CHL1  H19B 1300   1.986   4.632   5.695 -1.9524  2.8305 -0.5079
   18CHL1  H19C 1301   1.945   4.666   5.526 -0.7146 -3.0816 -0.7604
   18CHL1    C1 1302   2.269   4.647   5.658 -0.5625 -0.6448 -0.0799
   18CHL1   H1A 1303   2.271   4.542   5.623 -0.1020  0.2092 -2.8934
   18CHL1   H1B 1304   2.363   4.702   5.636 -0.7172 -0.2798  0.1558
   18CHL1    C2 1305   2.250   4.645   5.815  0.1283 -0.2536  1.0032
   18CHL1   H2A 1306   2.336   4.608   5.874 -1.0565  0.7068  3.4972
   18CHL1   H2B 1307   2.166   4.575   5.836  0.0980 -0.7488 -0.6128
   18CHL1   C20 1308   2.130   4.695   4.865 -0.1058  0.4546 -0.2917
   18CHL1   H20 1309   2.020   4.684   4.871 -0.0078 -0.5453 -0.2634
   18CHL1   C21 1310   2.205   4.557   4.879  0.5942 -0.1827  1.0659
   18CHL1  H21A 1311   2.311   4.557   4.912  0.9433 -0.3752 -0.0303
   18CHL1  H21B 1312   2.209   4.500   4.784 -0.6395  2.0691 -0.4106
   18CHL1  H21C 1313   2.151   4.487   4.946 -0.2048 -1.1227 -0.5222
   18CHL1   C22 1314   2.169   4.769   4.736  0.2731 -0.0244  0.0092
   18CHL1  H22A 1315   2.143   4.877   4.742 -3.8038 -0.8789  0.7549
   18CHL1  H22B 1316   2.279   4.758   4.726  0.1172 -2.8914  0.6614
   18CHL1   C23 1317   2.122   4.706   4.603  0.7704  0.2251 -0.5513
   18CHL1  H23A 1318   2.166   4.751   4.511  1.2609 -2.3851 -1.6805
   18CHL1  H23B 1319   2.147   4.598   4.603  3.8952  0.8628 -1.1390
   18CHL1   C24 1320   1.964   4.725   4.577 -0.6897  0.3969  0.2565
   18CHL1  H24A 1321   1.910   4.665   4.653 -1.2699 -0.3110 -0.6965
   18CHL1  H24B 1322   1.935   4.832   4.586  2.2507  1.2390  0.8306
   18CHL1   C25 1323   1.919   4.691   4.442 -0.3656 -0.2169 -0.5768
   18CHL1   H25 1324   1.967   4.596   4.411  0.9222  0.3915 -0.5297
   18CHL1   C26 1325   1.766   4.686   4.439  0.2915 -0.1962  0.1553
   18CHL1  H26A 1326   1.738   4.791   4.464  0.2892 -0.5493  1.7893
   18CHL1  H26B 1327   1.729   4.662   4.338 -2.9794 -0.4934  1.3148
   18CHL1  H26C 1328   1.725   4.618   4.517  1.7411 -1.1663  0.1018
   18CHL1   C27 1329   1.961   4.798   4.332  0.0537 -0.3634 -0.4956
   18CHL1  H27A 1330   1.968   4.756   4.230  4.8995  1.9601 -1.3951
   18CHL1  H27B 1331   1.892   4.885   4.326 -0.9571 -0.9918  1.2611
   18CHL1  H27C 1332   2.064   4.838   4.348  0.4670 -0.5688 -2.3930
   19CHL1    C3 1333   6.695   2.715   5.847 -0.6925 -0.5716  0.2636
   19CHL1    H3 1334   6.801   2.683   5.838 -0.7989 -0.5111 -1.6248
   19CHL1    O3 1335   6.638   2.694   5.974 -0.3200 -0.0921 -0.0792
   19CHL1   H3' 1336   6.603   2.605   5.979 -0.5238 -0.0461 -0.6470
   19CHL1    C4 1337   6.689   2.868   5.821 -0.2129 -0.2107  0.3614
   19CHL1   H4A 1338   6.591   2.910   5.853  0.3815  0.9675  0.6581
   19CHL1   H4B 1339   6.765   2.906   5.892 -0.1070 -2.1515  1.3414
   19CHL1    C5 1340   6.706   2.913   5.674 -0.1230 -0.0714 -0.0483
   19CHL1    C6 1341   6.785   3.008   5.633  0.2668 -0.1919 -0.4445
   19CHL1    H6 1342   6.836   3.070   5.708 -0.8666  1.9373 -1.3490
   19CHL1    C7 1343   6.801   3.060   5.489 -0.6261  0.7604 -0.4596
   19CHL1   H7A 1344   6.799   3.171   5.494  1.6748  1.0340 -3.3056
   19CHL1   H7B 1345   6.902   3.027   5.458 -1.3557 -2.3830  0.1392
   19CHL1    C8 1346   6.684   3.010   5.401 -0.2926  0.4110 -0.5115
   19CHL1    H8 1347   6.589   3.055   5.437 -0.7667 -1.3257  0.5675
   19CHL1   C14 1348   6.700   3.045   5.254  0.6864 -0.2125 -0.1174
   19CHL1   H14 1349   6.786   2.977   5.236  0.9725  0.2684 -0.5820
   19CHL1   C15 1350   6.734   3.187   5.206  0.7787 -0.5885  0.4370
   19CHL1  H15A 1351   6.664   3.261   5.249  0.5580  0.6074 -1.8347
   19CHL1  H15B 1352   6.837   3.223   5.228  0.6494 -0.0647  0.1920
   19CHL1   C16 1353   6.709   3.185   5.053  0.7259 -0.3647 -0.4080
   19CHL1  H16A 1354   6.638   3.266   5.025  0.3839 -0.5040  0.0409
   19CHL1  H16B 1355   6.805   3.206   5.002 -0.3818  0.0391 -2.4184
   19CHL1   C17 1356   6.650   3.049   5.023  0.4159  0.7466  0.0978
   19CHL1   H17 1357   6.737   2.983   5.002  0.3372  1.2799 -2.1676
   19CHL1   C13 1358   6.600   2.988   5.160  1.0674 -0.0740 -0.7954
   19CHL1   C18 1359   6.462   3.053   5.195 -0.9279 -0.0518  0.3945
   19CHL1  H18A 1360   6.388   3.002   5.130  0.1837  0.1098 -1.0689
   19CHL1  H18B 1361   6.432   3.036   5.301  0.9333  0.5172  1.0555
   19CHL1  H18C 1362   6.468   3.163   5.181  2.8823 -0.3785 -2.0672
   19CHL1   C12 1363   6.600   2.838   5.170  0.1561  0.1759  0.0559
   19CHL1  H12A 1364   6.523   2.793   5.105  1.5261 -0.9142 -0.8697
   19CHL1  H12B 1365   6.695   2.794   5.132 -0.0293  0.4789 -0.7768
   19CHL1   C11 1366   6.565   2.800   5.319  0.5052  0.0408  0.4100
   19CHL1  H11A 1367   6.457   2.825   5.334  0.1141 -0.4197 -1.4256
   19CHL1  H11B 1368   6.554   2.690   5.323 -0.6650  0.1092 -0.2740
   19CHL1    C9 1369   6.656   2.860   5.427 -0.3320  0.0976  0.9948
   19CHL1    H9 1370   6.750   2.804   5.408 -0.7924 -0.1078 -0.8411
   19CHL1   C10 1371   6.628   2.825   5.570  0.8510 -0.3170  0.2756
   19CHL1   C19 1372   6.474   2.860   5.597  0.8327  0.7730  0.5300
   19CHL1  H19A 1373   6.459   2.964   5.563  0.2342  0.5033 -0.0687
   19CHL1  H19B 1374   6.406   2.796   5.536  2.0366 -0.5013  0.4803
   19CHL1  H19C 1375   6.451   2.860   5.706  2.1828 -1.9266  0.9104
   19CHL1    C1 1376   6.659   2.675   5.599 -0.0281 -0.6912 -0.7801
   19CHL1   H1A 1377   6.604   2.602   5.536 -1.4201 -1.5606  1.3337
   19CHL1   H1B 1378   6.769   2.674   5.584  0.5389  2.2377  2.0557
   19CHL1    C2 1379   6.618   2.633   5.737  0.5328  0.9136 -0.1727
   19CHL1   H2A 1380   6.636   2.526   5.762  0.5486  0.9577  0.0029
   19CHL1   H2B 1381   6.509   2.647   5.751  0.5533  0.9692 -0.0647
   19CHL1   C20 1382   6.555   3.052   4.904  0.2039  0.4184  0.4581
   19CHL1   H20 1383   6.475   3.124   4.932 -0.1388  0.0325  0.4782
   19CHL1   C21 1384   6.473   2.917   4.875  0.1337 -0.4722  0.0570
   19CHL1  H21A 1385   6.375   2.919   4.927 -0.7635  2.3269 -1.5395
   19CHL1  H21B 1386   6.533   2.831   4.911 -1.6921 -0.8658  2.4024
   19CHL1  H21C 1387   6.445   2.911   4.768  1.7346  1.7060 -0.5675
   19CHL1   C22 1388   6.626   3.097   4.764  0.7347  0.9790  0.5359
   19CHL1  H22A 1389   6.712   3.164   4.784  0.5873  1.7629 -1.2617
   19CHL1  H22B 1390   6.663   3.005   4.712 -1.6101 -1.4721  2.9189
   19CHL1   C23 1391   6.528   3.177   4.681  0.4829  0.0900 -0.0256
   19CHL1  H23A 1392   6.442   3.117   4.644 -1.1527  1.7955  0.8369
   19CHL1  H23B 1393   6.496   3.273   4.726  0.5252 -1.4862  3.7021
   19CHL1   C24 1394   6.607   3.212   4.556 -0.3247 -0.3846 -0.8785
   19CHL1  H24A 1395   6.703   3.263   4.577  0.5835 -1.5953 -1.9515
   19CHL1  H24B 1396   6.639   3.125   4.495 -2.6246 -0.8424 -1.5125
   19CHL1   C25 1397   6.531   3.300   4.457  0.3230 -0.4892 -0.2395
   19CHL1   H25 1398   6.598   3.326   4.372  0.0363 -0.5379 -0.4811
   19CHL1   C26 1399   6.419   3.225   4.395 -0.2640  0.6193 -0.1583
   19CHL1  H26A 1400   6.362   3.291   4.326 -1.7308  2.0558  2.2356
   19CHL1  H26B 1401   6.449   3.139   4.332 -1.0939 -0.7710  1.2729
   19CHL1  H26C 1402   6.344   3.212   4.476 -0.7671 -1.0586 -0.8697
   19CHL1   C27 1403   6.468   3.429   4.512  0.5415 -0.2307 -0.3038
   19CHL1  H27A 1404   6.431   3.493   4.429 -0.0305  0.7135  0.6492
   19CHL1  H27B 1405   6.385   3.406   4.583  2.9176 -0.9314  2.4347
   19CHL1  H27C 1406   6.549   3.485   4.563  0.5713  0.2445 -0.8634
   20CHL1    C3 1407   4.952   0.941   5.293  0.5006 -0.1355  0.2698
   20CHL1    H3 1408   4.982   1.037   5.247  0.6081  1.4208  3.3348
   20CHL1    O3 1409   4.939   0.961   5.432  0.2713  0.3713 -1.0139
   20CHL1   H3' 1410   4.869   1.026   5.441  0.6607  0.6295  0.4935
   20CHL1    C4 1411   4.813   0.895   5.228 -0.2536 -0.1059 -0.6552
   20CHL1   H4A 1412   4.777   0.810   5.290  0.3940  0.2509  0.2362
   20CHL1   H4B 1413   4.738   0.975   5.246 -0.2012 -0.0728 -0.5843
   20CHL1    C5 1414   4.821   0.858   5.079 -0.1386 -0.2112 -0.2169
   20CHL1    C6 1415   4.739   0.920   4.992 -0.2178 -0.2136  0.3999
   20CHL1    H6 1416   4.667   0.995   5.028 -2.2753 -0.9530 -1.8891
   20CHL1    C7 1417   4.739   0.880   4.837  0.5498  0.4530 -0.0682
   20CHL1   H7A 1418   4.635   0.863   4.801  0.5986  2.0117 -1.0374
   20CHL1   H7B 1419   4.767   0.966   4.773 -3.2470  1.2157 -0.9044
   20CHL1    C8 1420   4.828   0.759   4.799  0.2435  0.2433  1.0880
   20CHL1    H8 1421   4.779   0.664   4.829 -2.1367  1.1195  0.2600
   20CHL1   C14 1422   4.871   0.765   4.651  0.4390  0.4900  0.1539
   20CHL1   H14 1423   4.934   0.856   4.638  1.5363 -0.2285  0.3193
   20CHL1   C15 1424   4.760   0.791   4.542  0.5773 -0.0746 -0.0626
   20CHL1  H15A 1425   4.667   0.740   4.576 -1.2167  0.1317 -4.0641
   20CHL1  H15B 1426   4.737   0.898   4.524 -0.0443  0.0535  1.3492
   20CHL1   C16 1427   4.812   0.724   4.411  0.3933 -0.3709 -0.1770
   20CHL1  H16A 1428   4.742   0.640   4.389  0.1540 -0.7701  1.9257
   20CHL1  H16B 1429   4.804   0.798   4.328 -0.5380 -1.1090 -0.7663
   20CHL1   C17 1430   4.952   0.675   4.442  0.0240 -0.2425  0.6001
   20CHL1   H17 1431   5.015   0.767   4.439 -0.0586 -0.2092 -0.4695
   20CHL1   C13 1432   4.958   0.654   4.592  0.6696  0.1364 -0.1328
   20CHL1   C18 1433   4.908   0.511   4.626  0.5555  0.7799 -0.0979
   20CHL1  H18A 1434   4.885   0.492   4.733 -1.4438  0.0701 -0.6130
   20CHL1  H18B 1435   4.810   0.497   4.575 -1.1815  0.4431  3.0710
   20CHL1  H18C 1436   4.968   0.429   4.582 -3.5680 -1.8815 -1.3422
   20CHL1   C12 1437   5.096   0.668   4.668  0.1476 -0.5129 -0.1961
   20CHL1  H12A 1438   5.155   0.578   4.639 -2.3103 -2.0627 -0.6748
   20CHL1  H12B 1439   5.137   0.768   4.646 -0.1647 -0.3202  0.0965
   20CHL1   C11 1440   5.078   0.673   4.825  0.0903  0.2666 -0.9420
   20CHL1  H11A 1441   5.071   0.567   4.857  1.7362 -0.0353 -1.4904
   20CHL1  H11B 1442   5.170   0.717   4.869  0.4663 -1.9485  0.7067
   20CHL1    C9 1443   4.956   0.765   4.881  1.0926 -0.3166  0.1311
   20CHL1    H9 1444   4.985   0.869   4.854  0.6351 -0.3478 -0.4911
   20CHL1   C10 1445   4.936   0.762   5.033  0.1405  0.1097 -0.2395
   20CHL1   C19 1446   4.912   0.623   5.085  0.0507  0.5810  0.6365
   20CHL1  H19A 1447   4.921   0.618   5.196 -0.2164  2.8134  0.8004
   20CHL1  H19B 1448   4.815   0.589   5.042  1.6428 -0.5138 -2.3748
   20CHL1  H19C 1449   4.992   0.551   5.058 -1.1796 -1.6667  2.5900
   20CHL1    C1 1450   5.067   0.813   5.105 -0.1072 -0.6229 -0.4938
   20CHL1   H1A 1451   5.136   0.727   5.094 -1.7206 -1.7705 -2.1719
   20CHL1   H1B 1452   5.099   0.906   5.053 -0.9837  0.1015  0.2335
   20CHL1    C2 1453   5.057   0.838   5.262 -1.1929 -0.8965  0.8736
   20CHL1   H2A 1454   5.149   0.879   5.309 -0.9126  2.2429 -2.0572
   20CHL1   H2B 1455   5.034   0.737   5.304 -1.4671 -1.2020  0.0183
   20CHL1   C20 1456   5.011   0.566   4.359 -0.5419 -0.5890 -0.5827
   20CHL1   H20 1457   4.968   0.468   4.388 -1.0328  0.1870  1.5039
   20CHL1   C21 1458   5.164   0.561   4.375  0.2993 -0.5177 -0.9091
   20CHL1  H21A 1459   5.211   0.520   4.283 -0.2055 -3.9503  0.2259
   20CHL1  H21B 1460   5.173   0.481   4.452 -3.2904 -1.0766 -0.8885
   20CHL1  H21C 1461   5.205   0.662   4.394 -0.7879 -0.1897 -0.2044
   20CHL1   C22 1462   4.974   0.587   4.207 -0.1854 -1.1542 -0.2442
   20CHL1  H22A 1463   4.863   0.597   4.206 -0.1425 -0.1198  1.2346
   20CHL1  H22B 1464   5.012   0.685   4.170 -1.7311  0.2629  1.6648
   20CHL1   C23 1465   5.014   0.473   4.110 -0.0588  0.0401 -0.2863
   20CHL1  H23A 1466   5.124   0.477   4.098  0.2778  0.8605  2.4521
   20CHL1  H23B 1467   4.991   0.373   4.152  1.8532 -0.1081  0.5266
   20CHL1   C24 1468   4.929   0.498   3.980 -0.9239  0.9697  0.2877
   20CHL1  H24A 1469   4.821   0.513   4.002 -1.1211 -0.8028  0.6296
   20CHL1  H24B 1470   4.977   0.587   3.934  1.5298 -0.7294 -0.6607
   20CHL1   C25 1471   4.927   0.371   3.889 -0.1788 -0.1608 -0.3975
   20CHL1   H25 1472   4.885   0.286   3.946  2.3330 -1.2825 -0.0809
   20CHL1   C26 1473   4.844   0.403   3.755  0.3307  0.6740 -0.3937
   20CHL1  H26A 1474   4.822   0.307   3.702 -0.2407  0.6172 -0.0739
   20CHL1  H26B 1475   4.745   0.446   3.781  1.0713  1.0540  2.0842
   20CHL1  H26C 1476   4.888   0.485   3.696 -1.5248  1.4790 -0.7354
   20CHL1   C27 1477   5.068   0.335   3.843  0.4305  0.5629  0.2742
   20CHL1  H27A 1478   5.064   0.234   3.797 -1.7197  0.0284  1.4803
   20CHL1  H27B 1479   5.114   0.408   3.774  0.1640  1.2084  0.7692
   20CHL1  H27C 1480   5.124   0.311   3.936 -3.6154 -0.1816  2.8068
   21CHL1    C3 1481   5.732   6.728   5.541  0.2367  0.5871  0.2984
   21CHL1    H3 1482   5.746   6.629   5.494 -0.6585  0.7068 -0.2491
   21CHL1    O3 1483   5.768   6.726   5.677  0.0295 -0.4181 -0.6403
   21CHL1   H3' 1484   5.837   6.791   5.695  0.3918 -1.0715  0.4472
   21CHL1    C4 1485   5.822   6.824   5.465  0.1539  0.1002  0.5177
   21CHL1   H4A 1486   5.807   6.928   5.502 -3.1770 -0.0428 -0.1338
   21CHL1   H4B 1487   5.929   6.796   5.475  0.1051 -0.4498 -0.3798
   21CHL1    C5 1488   5.786   6.819   5.320 -0.1887  0.4183 -0.6063
   21CHL1    C6 1489   5.883   6.787   5.242 -0.3894  0.9132 -0.0944
   21CHL1    H6 1490   5.982   6.757   5.281 -0.9110  0.1561  0.6932
   21CHL1    C7 1491   5.877   6.783   5.096  0.6173 -0.2756  0.2921
   21CHL1   H7A 1492   5.958   6.842   5.050 -0.7251  2.2660  0.9630
   21CHL1   H7B 1493   5.882   6.677   5.062 -3.0163  0.3103 -2.7037
   21CHL1    C8 1494   5.738   6.839   5.036 -0.4565  0.4012  0.8727
   21CHL1    H8 1495   5.748   6.949   5.029  0.3097  0.2193 -2.0141
   21CHL1   C14 1496   5.709   6.784   4.898 -0.2723  0.5980  0.1943
   21CHL1   H14 1497   5.698   6.674   4.909  1.0153  0.3927 -0.3563
   21CHL1   C15 1498   5.825   6.802   4.798  0.4506 -0.1071  0.0018
   21CHL1  H15A 1499   5.868   6.903   4.810 -0.3159  0.1843  0.4018
   21CHL1  H15B 1500   5.897   6.719   4.816  0.8223 -0.5242 -3.0041
   21CHL1   C16 1501   5.754   6.789   4.663  0.5285 -0.3715  0.3072
   21CHL1  H16A 1502   5.758   6.884   4.605 -0.1294 -0.1427  0.6241
   21CHL1  H16B 1503   5.799   6.711   4.598  0.0695 -0.1817 -0.2565
   21CHL1   C17 1504   5.609   6.772   4.691  0.5197 -0.4865 -0.1336
   21CHL1   H17 1505   5.589   6.664   4.709 -3.7110  0.0552 -0.4791
   21CHL1   C13 1506   5.581   6.835   4.825  0.4070  0.7123 -0.3989
   21CHL1   C18 1507   5.576   6.990   4.819 -0.3825  0.5260 -0.6642
   21CHL1  H18A 1508   5.562   7.025   4.924 -0.2592 -1.7442  0.1546
   21CHL1  H18B 1509   5.675   7.031   4.788  0.2334 -0.7134 -0.3923
   21CHL1  H18C 1510   5.495   7.028   4.753 -2.3290 -3.5187 -0.8802
   21CHL1   C12 1511   5.469   6.773   4.917 -0.2330  0.1547  0.1294
   21CHL1  H12A 1512   5.371   6.805   4.877 -0.3507  0.1564  0.4198
   21CHL1  H12B 1513   5.480   6.662   4.921 -1.3265  0.0058 -0.5747
   21CHL1   C11 1514   5.479   6.822   5.058 -0.4496 -0.7016  0.1867
   21CHL1  H11A 1515   5.446   6.928   5.065  1.0685 -0.2002  0.0157
   21CHL1  H11B 1516   5.402   6.767   5.116 -1.1065 -0.7364 -0.6957
   21CHL1    C9 1517   5.619   6.793   5.130 -0.2494 -0.4943  0.1468
   21CHL1    H9 1518   5.636   6.683   5.137 -0.3014 -0.7068 -2.4056
   21CHL1   C10 1519   5.644   6.836   5.283 -0.5205  0.7910  0.6589
   21CHL1   C19 1520   5.620   6.990   5.280 -0.2264  0.2775  0.8347
   21CHL1  H19A 1521   5.603   7.017   5.387  0.3932 -0.1688  1.0532
   21CHL1  H19B 1522   5.701   7.052   5.237  3.6483 -3.9847  1.3009
   21CHL1  H19C 1523   5.527   7.020   5.227 -1.0602 -1.3358  1.3118
   21CHL1    C1 1524   5.549   6.764   5.375 -0.3078  0.2257  0.0998
   21CHL1   H1A 1525   5.442   6.786   5.355 -1.0647 -2.2093  1.0871
   21CHL1   H1B 1526   5.555   6.656   5.350  1.6521  0.5616 -1.0879
   21CHL1    C2 1527   5.587   6.770   5.521 -0.1913  0.7310 -0.6425
   21CHL1   H2A 1528   5.525   6.695   5.574 -0.8794  0.1206 -2.2471
   21CHL1   H2B 1529   5.567   6.869   5.566 -0.9213  0.1004  0.4710
   21CHL1   C20 1530   5.523   6.796   4.563 -0.1451  0.9291 -0.4600
   21CHL1   H20 1531   5.525   6.907   4.554  0.2977  1.0439  0.8487
   21CHL1   C21 1532   5.375   6.755   4.591 -0.0767 -0.5139 -0.7278
   21CHL1  H21A 1533   5.327   6.821   4.667  0.0785  0.1416 -1.1882
   21CHL1  H21B 1534   5.361   6.649   4.621  0.9435 -0.1156  1.3901
   21CHL1  H21C 1535   5.326   6.783   4.496 -0.6003  1.1258 -0.0293
   21CHL1   C22 1536   5.587   6.725   4.440  0.2377  0.3492  0.5630
   21CHL1  H22A 1537   5.685   6.758   4.400  0.2263  0.0510  0.2813
   21CHL1  H22B 1538   5.601   6.618   4.467  1.8037  0.7148  1.2818
   21CHL1   C23 1539   5.503   6.712   4.316  0.4710  0.7894  0.1783
   21CHL1  H23A 1540   5.438   6.623   4.326 -0.9113  1.5645 -1.4126
   21CHL1  H23B 1541   5.446   6.807   4.305  1.5761  1.2989 -1.6029
   21CHL1   C24 1542   5.588   6.686   4.187 -0.4453 -0.1328 -0.0877
   21CHL1  H24A 1543   5.636   6.777   4.146  3.1091 -1.7432  0.0493
   21CHL1  H24B 1544   5.677   6.622   4.208 -0.3219  0.9635  3.4385
   21CHL1   C25 1545   5.506   6.623   4.073 -0.8142 -0.1303  0.3570
   21CHL1   H25 1546   5.463   6.524   4.102 -1.3621 -0.7240 -2.1785
   21CHL1   C26 1547   5.393   6.716   4.016 -0.5923  0.0184 -0.3997
   21CHL1  H26A 1548   5.327   6.739   4.103 -0.0206  1.2751 -0.2784
   21CHL1  H26B 1549   5.431   6.816   3.984 -0.8770  0.1896 -0.2126
   21CHL1  H26C 1550   5.346   6.675   3.924 -1.1258 -0.1311 -0.0649
   21CHL1   C27 1551   5.596   6.591   3.953 -0.2701 -0.9460 -0.0511
   21CHL1  H27A 1552   5.661   6.508   3.987  0.4962 -0.6247 -0.6922
   21CHL1  H27B 1553   5.532   6.549   3.872 -0.3858 -0.7235 -0.0756
   21CHL1  H27C 1554   5.648   6.678   3.907 -0.5108 -0.3950  0.7033
   22CHL1    C3 1555   6.238   2.221   5.902  0.0375 -0.4663  0.1475
   22CHL1    H3 1556   6.127   2.230   5.897  0.1630  1.1238 -0.4536
   22CHL1    O3 1557   6.286   2.196   6.033 -0.3147  0.4098  0.3777
   22CHL1   H3' 1558   6.380   2.209   6.046 -0.3256 -0.7647  1.9452
   22CHL1    C4 1559   6.300   2.113   5.812 -0.3104  0.0920 -0.2906
   22CHL1   H4A 1560   6.405   2.104   5.846 -1.3591 -0.1131  3.2328
   22CHL1   H4B 1561   6.251   2.016   5.832 -1.1971  0.4938 -0.4540
   22CHL1    C5 1562   6.283   2.150   5.664 -0.1653 -0.1894  0.4007
   22CHL1    C6 1563   6.206   2.077   5.585  1.1074  0.3284  0.5041
   22CHL1    H6 1564   6.174   1.981   5.628 -0.2140 -0.9265 -2.8693
   22CHL1    C7 1565   6.176   2.098   5.441  0.5277 -0.2442 -0.0759
   22CHL1   H7A 1566   6.205   2.009   5.381 -0.7635  0.4827 -1.8908
   22CHL1   H7B 1567   6.066   2.109   5.427  0.3608 -2.0602 -0.4230
   22CHL1    C8 1568   6.259   2.214   5.384  0.0164 -0.3096  0.3624
   22CHL1    H8 1569   6.358   2.168   5.364 -0.4847 -2.4824  2.4017
   22CHL1   C14 1570   6.191   2.267   5.255  0.4400  0.7778 -0.0987
   22CHL1   H14 1571   6.089   2.306   5.277  0.4615  1.0438 -0.4712
   22CHL1   C15 1572   6.143   2.163   5.151 -0.6219 -0.2915 -0.5181
   22CHL1  H15A 1573   6.210   2.076   5.132 -1.6056 -1.0206 -0.6738
   22CHL1  H15B 1574   6.039   2.125   5.161 -1.5136  1.9479 -0.7521
   22CHL1   C16 1575   6.128   2.252   5.027  0.2023  0.3976 -0.1213
   22CHL1  H16A 1576   6.188   2.196   4.952  0.6626 -0.7315  1.0628
   22CHL1  H16B 1577   6.021   2.266   4.999 -0.4426 -1.0718  1.4639
   22CHL1   C17 1578   6.190   2.392   5.053  0.3467  0.7582 -0.7434
   22CHL1   H17 1579   6.100   2.456   5.070  0.8563  0.9957  1.2561
   22CHL1   C13 1580   6.275   2.375   5.183 -0.2922 -0.2748  0.2286
   22CHL1   C18 1581   6.408   2.312   5.140 -0.5670 -0.0914  0.0083
   22CHL1  H18A 1582   6.391   2.232   5.065  2.9738  1.2753 -2.5098
   22CHL1  H18B 1583   6.472   2.383   5.084  1.6843 -3.2354 -1.7203
   22CHL1  H18C 1584   6.465   2.275   5.228 -1.4346  4.0018  2.5495
   22CHL1   C12 1585   6.296   2.495   5.280 -0.0209 -0.2023 -0.2244
   22CHL1  H12A 1586   6.369   2.558   5.226  0.8295 -1.4251 -0.5320
   22CHL1  H12B 1587   6.199   2.547   5.296 -0.8993 -0.9530 -2.6222
   22CHL1   C11 1588   6.363   2.450   5.416  0.1234 -0.0702 -0.3026
   22CHL1  H11A 1589   6.467   2.421   5.394  0.5445  0.5284  0.8311
   22CHL1  H11B 1590   6.374   2.532   5.490  2.6318 -0.9615  0.3977
   22CHL1    C9 1591   6.281   2.329   5.478  0.2799 -0.0329 -0.1106
   22CHL1    H9 1592   6.174   2.358   5.481 -0.0740 -1.2822 -0.3301
   22CHL1   C10 1593   6.331   2.289   5.623 -0.5760 -0.0764 -0.8627
   22CHL1   C19 1594   6.487   2.288   5.621 -0.0668  0.2217 -0.7071
   22CHL1  H19A 1595   6.521   2.215   5.544  1.4705 -0.7847  0.8586
   22CHL1  H19B 1596   6.535   2.387   5.603  1.9635 -0.6117 -0.1281
   22CHL1  H19C 1597   6.527   2.245   5.715  0.8606 -3.2048 -2.5355
   22CHL1    C1 1598   6.277   2.386   5.719  0.4137  0.2293 -0.1470
   22CHL1   H1A 1599   6.293   2.495   5.703 -0.6675  0.2835 -0.9292
   22CHL1   H1B 1600   6.166   2.391   5.716  0.4986  2.3713 -1.6437
   22CHL1    C2 1601   6.297   2.359   5.871 -0.2329 -0.4064 -0.4318
   22CHL1   H2A 1602   6.263   2.441   5.938  0.0718  0.0941 -0.8814
   22CHL1   H2B 1603   6.407   2.353   5.891 -0.5369  0.0265  1.5360
   22CHL1   C20 1604   6.255   2.454   4.926 -0.1225  0.4688 -0.2025
   22CHL1   H20 1605   6.328   2.381   4.885  0.5282 -0.2728  2.1392
   22CHL1   C21 1606   6.322   2.582   4.959  0.7516  0.2859 -0.1558
   22CHL1  H21A 1607   6.338   2.642   4.866 -0.2810 -0.8560 -1.1085
   22CHL1  H21B 1608   6.417   2.562   5.014 -1.5530  0.8637  4.4937
   22CHL1  H21C 1609   6.265   2.642   5.032  0.7125  0.1954 -0.1119
   22CHL1   C22 1610   6.148   2.470   4.815  0.0585  0.8205 -0.3446
   22CHL1  H22A 1611   6.102   2.374   4.786  1.4595 -0.1170  0.4306
   22CHL1  H22B 1612   6.068   2.539   4.851 -0.0263 -0.2017  1.5167
   22CHL1   C23 1613   6.194   2.525   4.679 -0.6590 -0.0614 -0.4142
   22CHL1  H23A 1614   6.251   2.620   4.691 -3.6786  1.7840  0.3734
   22CHL1  H23B 1615   6.264   2.450   4.636 -0.4666  0.4432 -1.0015
   22CHL1   C24 1616   6.071   2.564   4.588 -0.1599 -0.8054  0.0669
   22CHL1  H24A 1617   6.011   2.471   4.575 -0.7929 -0.1824 -1.7616
   22CHL1  H24B 1618   6.015   2.647   4.636 -1.2840 -2.4849  1.8296
   22CHL1   C25 1619   6.116   2.628   4.452 -0.1552 -1.1301 -0.9022
   22CHL1   H25 1620   6.173   2.719   4.482  1.1051 -2.0468 -0.4277
   22CHL1   C26 1621   6.223   2.542   4.380  0.1614 -0.1847 -0.5311
   22CHL1  H26A 1622   6.184   2.440   4.400  0.3912  0.1077  1.6132
   22CHL1  H26B 1623   6.231   2.572   4.273  1.9791  0.9385 -0.1148
   22CHL1  H26C 1624   6.314   2.563   4.440 -0.3147 -0.7987  0.4218
   22CHL1   C27 1625   6.002   2.657   4.364  0.6582 -0.8294  0.8288
   22CHL1  H27A 1626   5.927   2.709   4.427  0.8082  2.2654 -1.2997
   22CHL1  H27B 1627   6.032   2.719   4.277 -1.0639  0.2632  0.9792
   22CHL1  H27C 1628   5.949   2.566   4.329 -1.7608  0.4082  1.0302
   23CHL1    C3 1629   5.997   0.385   5.588 -0.0489  0.2549 -0.2655
   23CHL1    H3 1630   6.041   0.479   5.626 -2.5316  0.9949  0.9783
   23CHL1    O3 1631   5.994   0.287   5.690  0.2561 -0.5238  0.0537
   23CHL1   H3' 1632   6.072   0.236   5.671 -0.2415 -0.4918 -2.3003
   23CHL1    C4 1633   5.851   0.418   5.540 -0.3651  0.0110 -0.4099
   23CHL1   H4A 1634   5.811   0.320   5.505  2.7942 -1.3944 -0.4083
   23CHL1   H4B 1635   5.793   0.462   5.623  0.8394 -0.1477  0.5482
   23CHL1    C5 1636   5.841   0.504   5.415 -0.1688  0.2513  1.1488
   23CHL1    C6 1637   5.757   0.602   5.403  0.0346  0.3840 -1.1987
   23CHL1    H6 1638   5.689   0.636   5.483  0.2091  2.0842 -1.7314
   23CHL1    C7 1639   5.748   0.689   5.284 -0.5775 -0.2065 -0.3176
   23CHL1   H7A 1640   5.642   0.699   5.251 -0.5505 -1.4336 -0.8217
   23CHL1   H7B 1641   5.778   0.793   5.313 -1.0944  0.0742 -0.7811
   23CHL1    C8 1642   5.827   0.645   5.158  0.4820 -0.5394 -0.0263
   23CHL1    H8 1643   5.767   0.568   5.105 -1.5221  0.0732  1.2267
   23CHL1   C14 1644   5.852   0.757   5.058  0.4366  0.6744  0.3352
   23CHL1   H14 1645   5.920   0.825   5.114  1.0013  1.5430 -1.3090
   23CHL1   C15 1646   5.734   0.848   5.015 -0.9322 -0.1207  0.6836
   23CHL1  H15A 1647   5.661   0.770   4.986  0.2789 -1.6392  1.5349
   23CHL1  H15B 1648   5.708   0.914   5.101  4.2171  0.9152  1.7994
   23CHL1   C16 1649   5.792   0.922   4.889  0.3704  0.4504 -0.7183
   23CHL1  H16A 1650   5.707   0.921   4.817  0.1919 -1.5232 -0.5390
   23CHL1  H16B 1651   5.814   1.029   4.906 -0.7036  0.5433  0.1518
   23CHL1   C17 1652   5.923   0.845   4.851 -0.7733 -0.1588 -0.2273
   23CHL1   H17 1653   6.010   0.898   4.896 -0.3031 -0.2299 -1.0267
   23CHL1   C13 1654   5.929   0.715   4.932  0.4241  0.6408 -0.4421
   23CHL1   C18 1655   5.859   0.593   4.858  0.2986 -0.2474  0.4437
   23CHL1  H18A 1656   5.831   0.511   4.927  0.0761 -0.3803  0.1999
   23CHL1  H18B 1657   5.767   0.632   4.810  0.4593  0.6953  0.8845
   23CHL1  H18C 1658   5.920   0.553   4.774 -0.0904  0.9806 -0.4569
   23CHL1   C12 1659   6.071   0.665   4.982 -0.3496  0.6691 -0.7843
   23CHL1  H12A 1660   6.132   0.621   4.900  1.6598  2.4284 -0.3044
   23CHL1  H12B 1661   6.117   0.750   5.036  1.2039 -0.0709 -0.8863
   23CHL1   C11 1662   6.055   0.547   5.079  0.3573  0.1953 -1.0178
   23CHL1  H11A 1663   6.025   0.454   5.026  3.7425 -0.9845 -1.0762
   23CHL1  H11B 1664   6.157   0.526   5.117  0.0298 -1.2158 -0.8531
   23CHL1    C9 1665   5.961   0.578   5.201  0.6903  0.1191 -0.2746
   23CHL1    H9 1666   6.002   0.670   5.248  0.1893  0.4184 -0.4185
   23CHL1   C10 1667   5.947   0.466   5.306 -0.2178 -0.5665 -0.6856
   23CHL1   C19 1668   5.899   0.334   5.244  0.1627  0.6952 -0.3661
   23CHL1  H19A 1669   5.961   0.307   5.156  3.2728  0.9981  1.5876
   23CHL1  H19B 1670   5.895   0.249   5.315  1.6194  1.6349  0.9121
   23CHL1  H19C 1671   5.796   0.344   5.204 -0.2432  1.6452  0.8517
   23CHL1    C1 1672   6.089   0.440   5.363 -0.1371 -0.4572 -0.2466
   23CHL1   H1A 1673   6.164   0.408   5.287  0.1387  1.0607 -0.6347
   23CHL1   H1B 1674   6.132   0.526   5.418  0.7600 -1.5860  0.9021
   23CHL1    C2 1675   6.089   0.336   5.472  0.4331 -0.0227 -0.1264
   23CHL1   H2A 1676   6.186   0.313   5.522  0.5375 -1.9321 -1.1063
   23CHL1   H2B 1677   6.061   0.235   5.435  1.2899  0.2409 -1.5854
   23CHL1   C20 1678   5.966   0.850   4.701 -0.0400  0.7257 -1.5550
   23CHL1   H20 1679   5.889   0.801   4.638 -0.2965  0.2575 -0.8825
   23CHL1   C21 1680   6.104   0.791   4.675 -0.0562  0.4239  0.3052
   23CHL1  H21A 1681   6.110   0.684   4.704  2.7417  0.9439  1.9876
   23CHL1  H21B 1682   6.188   0.838   4.730 -0.2216 -1.4478  2.2957
   23CHL1  H21C 1683   6.129   0.792   4.567  0.5370 -0.4256  0.4282
   23CHL1   C22 1684   5.966   1.000   4.653 -0.3251  0.2542  0.5836
   23CHL1  H22A 1685   5.883   1.061   4.695  0.6385  2.0533 -0.0398
   23CHL1  H22B 1686   6.062   1.034   4.697 -0.4842  2.1724 -0.4335
   23CHL1   C23 1687   5.971   1.005   4.501  0.3648 -0.1784 -0.2787
   23CHL1  H23A 1688   6.000   0.904   4.465  1.0212 -0.1037  0.0303
   23CHL1  H23B 1689   5.869   1.036   4.469  0.7028  0.5221 -0.6859
   23CHL1   C24 1690   6.045   1.128   4.447  0.3643 -0.0552 -0.7031
   23CHL1  H24A 1691   5.995   1.226   4.465  1.2277  0.4168 -0.8324
   23CHL1  H24B 1692   6.146   1.135   4.492 -0.0703 -0.8679  0.4400
   23CHL1   C25 1693   6.061   1.125   4.293  0.7803 -0.6780  0.3589
   23CHL1   H25 1694   5.963   1.108   4.242  1.0355  1.0647 -0.7993
   23CHL1   C26 1695   6.110   1.254   4.227  0.0501 -0.8786  0.5929
   23CHL1  H26A 1696   6.210   1.277   4.271 -0.0110 -2.3505  1.5739
   23CHL1  H26B 1697   6.112   1.243   4.116  2.8591 -0.3491  0.4949
   23CHL1  H26C 1698   6.043   1.337   4.258  0.2793  0.4686 -2.1982
   23CHL1   C27 1699   6.156   1.011   4.241 -0.7502  0.3154 -0.2317
   23CHL1  H27A 1700   6.175   1.042   4.136 -0.9013  1.6595  0.1213
   23CHL1  H27B 1701   6.247   1.010   4.305 -0.0054  0.2371 -1.2655
   23CHL1  H27C 1702   6.103   0.914   4.231  0.5910 -0.5421  0.6561
   24CHL1    C3 1703   6.641   1.871   5.502  0.1508 -0.4691 -0.3169
   24CHL1    H3 1704   6.554   1.933   5.532  0.7274  1.0618 -1.6985
   24CHL1    O3 1705   6.708   1.835   5.621  0.5686 -0.0335  0.0568
   24CHL1   H3' 1706   6.716   1.741   5.641  0.3402 -0.4655 -1.7102
   24CHL1    C4 1707   6.608   1.752   5.424  0.4991  0.5866 -0.0824
   24CHL1   H4A 1708   6.703   1.698   5.404  0.7995  0.2563  2.0848
   24CHL1   H4B 1709   6.546   1.682   5.484 -2.0151  2.0118 -0.8519
   24CHL1    C5 1710   6.540   1.786   5.293  0.9097 -0.5675 -0.1342
   24CHL1    C6 1711   6.415   1.759   5.259  0.3533 -0.2896 -0.1605
   24CHL1    H6 1712   6.346   1.707   5.326  2.1062 -0.7111  1.3763
   24CHL1    C7 1713   6.343   1.790   5.134  0.9655 -0.3317  0.3977
   24CHL1   H7A 1714   6.290   1.699   5.099 -0.2782  0.3998  0.3028
   24CHL1   H7B 1715   6.266   1.869   5.151  1.0563  0.6095 -2.8718
   24CHL1    C8 1716   6.441   1.840   5.023 -0.0098  0.2349 -0.1313
   24CHL1    H8 1717   6.491   1.750   4.982  1.2469  1.7160 -1.9822
   24CHL1   C14 1718   6.373   1.902   4.901 -0.0945  0.1800  0.1479
   24CHL1   H14 1719   6.314   1.986   4.943 -0.2095 -0.2060  0.7720
   24CHL1   C15 1720   6.267   1.820   4.830 -0.2562  0.4720 -0.3834
   24CHL1  H15A 1721   6.302   1.716   4.819 -1.1203  0.2919 -1.5910
   24CHL1  H15B 1722   6.164   1.823   4.871 -0.0890 -0.4891  0.1304
   24CHL1   C16 1723   6.260   1.886   4.693 -0.2757 -0.2377  0.1421
   24CHL1  H16A 1724   6.291   1.807   4.621 -0.1849  1.4971 -1.8107
   24CHL1  H16B 1725   6.158   1.912   4.658  0.1079 -1.5650 -2.1153
   24CHL1   C17 1726   6.365   2.005   4.691 -0.2077  0.6382 -0.0391
   24CHL1   H17 1727   6.306   2.089   4.736 -1.7936  0.6812 -2.0512
   24CHL1   C13 1728   6.464   1.959   4.795 -0.5364  0.3356 -0.0845
   24CHL1   C18 1729   6.557   1.846   4.739 -1.3519 -0.0060  1.0699
   24CHL1  H18A 1730   6.489   1.782   4.679  0.3007 -0.7220 -0.1172
   24CHL1  H18B 1731   6.632   1.888   4.669 -1.2398 -2.0336 -0.1019
   24CHL1  H18C 1732   6.609   1.791   4.821  2.0576  1.7155  0.2297
   24CHL1   C12 1733   6.543   2.069   4.864 -0.0849 -0.5918 -0.5073
   24CHL1  H12A 1734   6.620   2.109   4.794 -0.3996  2.9606  0.9604
   24CHL1  H12B 1735   6.478   2.152   4.899 -0.2177 -1.5599  1.6923
   24CHL1   C11 1736   6.626   2.018   4.979  0.4904 -0.4375 -0.6598
   24CHL1  H11A 1737   6.696   1.947   4.930 -1.8138 -2.7824 -0.7637
   24CHL1  H11B 1738   6.682   2.098   5.033 -0.0518  0.0019 -0.7368
   24CHL1    C9 1739   6.538   1.940   5.087 -0.0992  0.8063  0.3118
   24CHL1    H9 1740   6.475   2.026   5.118 -0.1872  0.8230  0.0898
   24CHL1   C10 1741   6.623   1.881   5.206 -0.4011 -0.5474  0.3160
   24CHL1   C19 1742   6.742   1.798   5.146 -0.9452 -0.5284 -0.7675
   24CHL1  H19A 1743   6.695   1.722   5.080 -1.8028 -0.7255  0.0512
   24CHL1  H19B 1744   6.802   1.864   5.079 -1.3797  1.4401  0.6917
   24CHL1  H19C 1745   6.810   1.746   5.217  3.2481  2.6751 -2.0451
   24CHL1    C1 1746   6.680   1.996   5.290  0.0123  0.2162  0.4843
   24CHL1   H1A 1747   6.767   2.043   5.239  0.2990  0.6146  1.3118
   24CHL1   H1B 1748   6.606   2.076   5.312 -0.3524 -0.3005  1.1661
   24CHL1    C2 1749   6.744   1.950   5.425  0.3077 -0.6078 -0.5771
   24CHL1   H2A 1750   6.772   2.044   5.478 -2.3417  0.9974 -1.8258
   24CHL1   H2B 1751   6.831   1.886   5.402  0.8287  0.3214 -1.2500
   24CHL1   C20 1752   6.414   2.039   4.552  1.0085  0.0678 -0.0974
   24CHL1   H20 1753   6.493   1.973   4.510 -0.7737  0.5582 -4.7616
   24CHL1   C21 1754   6.477   2.177   4.548  0.2390 -0.6537 -0.1780
   24CHL1  H21A 1755   6.418   2.241   4.616 -0.2875 -0.3767 -0.8894
   24CHL1  H21B 1756   6.465   2.217   4.445  0.9713  2.5311  0.8824
   24CHL1  H21C 1757   6.584   2.177   4.580 -0.2041  0.7677  1.4024
   24CHL1   C22 1758   6.300   2.025   4.442 -1.0165  0.2753 -1.0235
   24CHL1  H22A 1759   6.353   2.056   4.349 -0.2813  0.3956 -0.5729
   24CHL1  H22B 1760   6.256   1.924   4.427 -0.6768  0.1118 -0.9526
   24CHL1   C23 1761   6.187   2.125   4.451 -0.5411  0.4538  0.2649
   24CHL1  H23A 1762   6.161   2.140   4.558 -0.1470 -1.0010  0.5863
   24CHL1  H23B 1763   6.233   2.222   4.421 -1.1620  0.0723 -2.0840
   24CHL1   C24 1764   6.069   2.101   4.353 -0.1278  0.2372 -0.5504
   24CHL1  H24A 1765   6.029   2.000   4.379  3.6548 -0.6245  2.7806
   24CHL1  H24B 1766   5.992   2.177   4.378 -2.9123 -1.8334 -2.1960
   24CHL1   C25 1767   6.104   2.106   4.204  0.3967 -0.3125 -0.4107
   24CHL1   H25 1768   6.181   2.027   4.187  1.0245 -0.3620  2.2529
   24CHL1   C26 1769   5.975   2.062   4.124  0.3936 -0.2141 -0.4615
   24CHL1  H26A 1770   5.943   1.961   4.158 -0.9000  0.3911  0.2158
   24CHL1  H26B 1771   5.886   2.126   4.146 -1.1616 -2.3935 -0.0244
   24CHL1  H26C 1772   6.002   2.054   4.017  1.6024  1.2692 -0.2957
   24CHL1   C27 1773   6.152   2.237   4.153 -0.2017 -0.3188  0.0107
   24CHL1  H27A 1774   6.084   2.314   4.196 -1.9295 -1.4261 -0.6668
   24CHL1  H27B 1775   6.259   2.259   4.177 -0.0951  0.2993 -0.9843
   24CHL1  H27C 1776   6.142   2.248   4.043  0.4841  2.2169  0.1388
   25CHL1    C3 1777   4.696   5.526   5.716  0.1184  0.5775  0.5365
   25CHL1    H3 1778   4.790   5.584   5.719  1.1265 -0.9810  0.1786
   25CHL1    O3 1779   4.650   5.517   5.850  0.1105 -0.6451 -0.2987
   25CHL1   H3' 1780   4.589   5.443   5.856 -0.1143 -0.7417 -2.8159
   25CHL1    C4 1781   4.587   5.581   5.630 -0.5958  0.0982 -0.1124
   25CHL1   H4A 1782   4.488   5.534   5.648  0.3419 -2.3438 -0.9722
   25CHL1   H4B 1783   4.582   5.686   5.668 -1.2845 -0.4554  1.3955
   25CHL1    C5 1784   4.624   5.582   5.479  0.1611 -0.2888 -0.6950
   25CHL1    C6 1785   4.615   5.692   5.411  0.2557 -0.3220  0.2788
   25CHL1    H6 1786   4.571   5.787   5.446  2.3786  0.3153  1.3562
   25CHL1    C7 1787   4.646   5.699   5.263 -0.3603  0.4601 -0.6351
   25CHL1   H7A 1788   4.572   5.754   5.203  1.0434  2.5675 -0.5303
   25CHL1   H7B 1789   4.747   5.744   5.249  0.7969 -1.3682  1.0563
   25CHL1    C8 1790   4.654   5.552   5.199  0.7951  0.3996 -0.0961
   25CHL1    H8 1791   4.550   5.514   5.194  0.8009 -0.0566  2.1379
   25CHL1   C14 1792   4.712   5.551   5.064  0.6190  0.1145  0.3113
   25CHL1   H14 1793   4.818   5.581   5.072  0.2732  1.1284  1.3981
   25CHL1   C15 1794   4.652   5.652   4.963  0.0162  0.2841  0.3007
   25CHL1  H15A 1795   4.541   5.652   4.956  0.0521  2.5700 -1.3483
   25CHL1  H15B 1796   4.688   5.752   4.994  0.7333  0.0677  0.1981
   25CHL1   C16 1797   4.716   5.601   4.831  0.1839  0.1380  0.1774
   25CHL1  H16A 1798   4.649   5.624   4.746 -1.6580  0.7884  1.7334
   25CHL1  H16B 1799   4.812   5.655   4.813 -1.9949  3.0961 -4.4105
   25CHL1   C17 1800   4.769   5.454   4.860  0.0419  1.2248 -0.9641
   25CHL1   H17 1801   4.871   5.467   4.901 -0.8643 -1.2676  2.6194
   25CHL1   C13 1802   4.707   5.418   4.995  0.8164  0.2558  0.2608
   25CHL1   C18 1803   4.562   5.366   4.976 -0.2502  0.0265 -0.3278
   25CHL1  H18A 1804   4.553   5.284   4.902  1.6138  0.6392 -1.3136
   25CHL1  H18B 1805   4.524   5.331   5.074 -0.2910  2.3903  0.5846
   25CHL1  H18C 1806   4.497   5.446   4.932 -0.0126 -0.0012 -0.7345
   25CHL1   C12 1807   4.790   5.311   5.072 -0.6340 -0.2117  0.9177
   25CHL1  H12A 1808   4.790   5.214   5.019 -2.4507 -0.1500  0.7178
   25CHL1  H12B 1809   4.897   5.342   5.071 -0.8681  0.7974 -1.5176
   25CHL1   C11 1810   4.755   5.311   5.220  0.2062 -0.0655 -0.4286
   25CHL1  H11A 1811   4.663   5.249   5.229 -0.1222  0.6908  2.4884
   25CHL1  H11B 1812   4.831   5.257   5.282 -0.2233 -0.1832  0.0054
   25CHL1    C9 1813   4.734   5.449   5.290 -0.8451 -0.6110 -0.1585
   25CHL1    H9 1814   4.838   5.488   5.288 -0.4406 -1.6759 -0.6880
   25CHL1   C10 1815   4.671   5.448   5.425  0.1056 -0.2733 -0.4925
   25CHL1   C19 1816   4.541   5.362   5.413  0.0768 -0.7981 -0.1457
   25CHL1  H19A 1817   4.582   5.260   5.398 -1.1469 -1.1660 -1.0839
   25CHL1  H19B 1818   4.484   5.362   5.508 -2.5953  1.1776 -1.6134
   25CHL1  H19C 1819   4.473   5.390   5.330  0.5537 -0.1814 -0.3347
   25CHL1    C1 1820   4.769   5.377   5.525 -0.4718  0.2455  0.3356
   25CHL1   H1A 1821   4.777   5.270   5.493 -0.2607  0.1070  0.8443
   25CHL1   H1B 1822   4.870   5.423   5.525 -1.3513  2.3333  2.5445
   25CHL1    C2 1823   4.730   5.387   5.674 -0.1703 -0.1321  0.6154
   25CHL1   H2A 1824   4.816   5.359   5.738  1.6644 -0.5221 -1.8690
   25CHL1   H2B 1825   4.650   5.311   5.692 -0.4580 -0.5753 -2.0914
   25CHL1   C20 1826   4.788   5.350   4.752  0.3229 -0.3088  0.9773
   25CHL1   H20 1827   4.797   5.251   4.802  1.6159 -0.6202  0.1932
   25CHL1   C21 1828   4.917   5.387   4.681 -0.0303 -0.8419 -0.0586
   25CHL1  H21A 1829   4.994   5.400   4.759  0.9112 -1.7528 -0.8145
   25CHL1  H21B 1830   4.901   5.487   4.634 -0.2261 -0.0057  1.6998
   25CHL1  H21C 1831   4.950   5.318   4.601  2.3198 -0.3575  0.4087
   25CHL1   C22 1832   4.668   5.357   4.650 -0.7779  0.5979  0.6635
   25CHL1  H22A 1833   4.569   5.373   4.697 -0.5014 -0.4746  1.6668
   25CHL1  H22B 1834   4.683   5.437   4.575  0.9640  0.2417  0.5872
   25CHL1   C23 1835   4.653   5.221   4.583  0.5471  0.0173  0.4054
   25CHL1  H23A 1836   4.752   5.194   4.541  1.3544  2.5700  0.5485
   25CHL1  H23B 1837   4.623   5.139   4.652 -0.0623 -1.4457 -1.5184
   25CHL1   C24 1838   4.554   5.228   4.466  0.3443  0.4517  0.0454
   25CHL1  H24A 1839   4.448   5.218   4.497  0.5015 -1.1502  0.1160
   25CHL1  H24B 1840   4.555   5.327   4.416 -2.4505  1.8834  2.5127
   25CHL1   C25 1841   4.568   5.111   4.361  0.4259  0.0530 -0.9872
   25CHL1   H25 1842   4.674   5.121   4.328  0.6635  0.3049 -0.1649
   25CHL1   C26 1843   4.543   4.975   4.438  0.2408  0.4588 -0.1549
   25CHL1  H26A 1844   4.436   4.965   4.463 -0.3561  2.3092 -1.7099
   25CHL1  H26B 1845   4.582   4.896   4.370  1.5905  2.3454 -1.6978
   25CHL1  H26C 1846   4.604   4.971   4.531 -2.4018 -0.2141  1.6400
   25CHL1   C27 1847   4.471   5.130   4.240  0.4461  0.4902 -0.5497
   25CHL1  H27A 1848   4.368   5.102   4.270  1.3821 -2.3739  0.3989
   25CHL1  H27B 1849   4.475   5.235   4.204  3.7740  1.1342  1.3012
   25CHL1  H27C 1850   4.505   5.057   4.163  2.3195 -0.4341  1.0487
   26CHL1    C3 1851   2.563   3.922   5.921 -1.1505 -0.0682 -0.5010
   26CHL1    H3 1852   2.530   4.007   5.858  1.9990  0.5914 -1.4568
   26CHL1    O3 1853   2.578   3.956   6.060 -0.0930  0.2351 -0.3315
   26CHL1   H3' 1854   2.492   3.935   6.095  0.7293 -1.3127  0.8729
   26CHL1    C4 1855   2.468   3.810   5.897  0.4556  0.0262  0.7130
   26CHL1   H4A 1856   2.496   3.719   5.954  1.7072  0.3074  0.5658
   26CHL1   H4B 1857   2.375   3.842   5.949  0.7556  2.2816 -0.0236
   26CHL1    C5 1858   2.440   3.775   5.749 -0.2714  0.3007  0.0710
   26CHL1    C6 1859   2.322   3.792   5.689 -0.2226 -0.2510  0.2383
   26CHL1    H6 1860   2.232   3.825   5.745  1.0684  1.9206  1.1980
   26CHL1    C7 1861   2.298   3.752   5.543  0.1280 -1.1568  0.6787
   26CHL1   H7A 1862   2.208   3.687   5.533 -0.9033  0.3642 -0.3520
   26CHL1   H7B 1863   2.270   3.842   5.486  2.7701 -0.4623  0.3524
   26CHL1    C8 1864   2.419   3.678   5.482 -0.4833 -0.7466 -0.5017
   26CHL1    H8 1865   2.407   3.576   5.524 -0.3711 -0.7591 -0.4993
   26CHL1   C14 1866   2.399   3.672   5.327 -0.4843  0.1333  0.0652
   26CHL1   H14 1867   2.409   3.777   5.289  0.6658  0.5992  1.5622
   26CHL1   C15 1868   2.262   3.626   5.272 -0.0193  0.6257 -0.0382
   26CHL1  H15A 1869   2.225   3.545   5.338  0.6010  1.4016  1.3030
   26CHL1  H15B 1870   2.179   3.700   5.278 -1.4555 -0.8509 -0.8414
   26CHL1   C16 1871   2.290   3.564   5.133  0.1650 -0.2699 -0.5598
   26CHL1  H16A 1872   2.269   3.459   5.160  4.0342 -0.5630  2.1777
   26CHL1  H16B 1873   2.222   3.621   5.066 -0.1484 -0.0900 -0.0917
   26CHL1   C17 1874   2.446   3.581   5.111 -0.8355  0.2116  0.0825
   26CHL1   H17 1875   2.470   3.684   5.075 -0.2811 -0.2774 -1.0008
   26CHL1   C13 1876   2.503   3.581   5.260  0.2889 -0.5563  0.5353
   26CHL1   C18 1877   2.508   3.432   5.295  0.1277  0.2856 -0.1500
   26CHL1  H18A 1878   2.533   3.412   5.401  2.4426  0.3248 -0.6319
   26CHL1  H18B 1879   2.405   3.392   5.306  1.2254 -2.0543  2.9559
   26CHL1  H18C 1880   2.589   3.376   5.245 -0.4499 -0.4555 -0.2728
   26CHL1   C12 1881   2.642   3.640   5.282  0.0232 -0.1033 -0.7232
   26CHL1  H12A 1882   2.729   3.583   5.242  1.3491  1.2756  0.0707
   26CHL1  H12B 1883   2.648   3.739   5.233 -0.4747  0.3993  0.2070
   26CHL1   C11 1884   2.673   3.665   5.437  0.9375  0.6271  0.1992
   26CHL1  H11A 1885   2.704   3.565   5.475  1.2198  0.5608 -0.2040
   26CHL1  H11B 1886   2.761   3.728   5.459  1.4361  0.2093 -0.5397
   26CHL1    C9 1887   2.556   3.735   5.518  1.0284  0.5098  0.2212
   26CHL1    H9 1888   2.558   3.842   5.487 -2.5190  0.8819  0.9386
   26CHL1   C10 1889   2.571   3.739   5.670 -0.8796  0.4456 -0.1517
   26CHL1   C19 1890   2.614   3.605   5.720  0.2440 -0.1870  0.5516
   26CHL1  H19A 1891   2.545   3.526   5.684  0.5057 -0.7579  1.2877
   26CHL1  H19B 1892   2.714   3.567   5.691  0.0977  0.5830 -1.0628
   26CHL1  H19C 1893   2.613   3.598   5.831 -3.1651 -0.2472  0.6297
   26CHL1    C1 1894   2.680   3.844   5.711  0.1659 -0.3858  0.2751
   26CHL1   H1A 1895   2.774   3.816   5.659  0.6099  2.1188 -0.3526
   26CHL1   H1B 1896   2.644   3.935   5.659 -1.2577 -1.6612 -1.0763
   26CHL1    C2 1897   2.696   3.879   5.865 -0.5165 -0.0989  0.2004
   26CHL1   H2A 1898   2.767   3.963   5.878 -0.5838  0.2126 -1.2505
   26CHL1   H2B 1899   2.736   3.790   5.917 -2.6557 -1.4683 -0.3492
   26CHL1   C20 1900   2.505   3.497   4.998  0.1653 -0.1192  0.8653
   26CHL1   H20 1901   2.484   3.390   5.022 -1.5606 -0.2467 -0.9094
   26CHL1   C21 1902   2.660   3.508   4.992 -0.4333  0.0904 -0.3393
   26CHL1  H21A 1903   2.699   3.472   4.894 -3.0668 -0.4208 -1.2956
   26CHL1  H21B 1904   2.702   3.451   5.077 -0.5019  2.7869  1.6518
   26CHL1  H21C 1905   2.693   3.614   4.999  1.2778 -0.3644 -1.0544
   26CHL1   C22 1906   2.436   3.525   4.856 -0.5655 -0.5977 -0.6924
   26CHL1  H22A 1907   2.329   3.541   4.881 -0.5712 -1.2676 -0.2538
   26CHL1  H22B 1908   2.485   3.619   4.822  0.4259 -0.0461  2.0169
   26CHL1   C23 1909   2.451   3.410   4.758  0.2607 -0.1690  0.5021
   26CHL1  H23A 1910   2.552   3.404   4.712  0.7877 -1.1797  1.7245
   26CHL1  H23B 1911   2.451   3.309   4.804  0.9115 -0.6715 -0.5741
   26CHL1   C24 1912   2.351   3.409   4.644  0.7209  0.2978  0.7379
   26CHL1  H24A 1913   2.245   3.406   4.675  0.1601 -2.3562 -1.0824
   26CHL1  H24B 1914   2.350   3.497   4.576  1.9555  0.9886  1.5607
   26CHL1   C25 1915   2.364   3.292   4.538 -0.0982 -0.5102 -0.0167
   26CHL1   H25 1916   2.422   3.218   4.597  0.3305 -1.7070 -1.8663
   26CHL1   C26 1917   2.231   3.238   4.479 -0.2644 -0.3215 -0.3645
   26CHL1  H26A 1918   2.164   3.218   4.566 -0.0725  1.0314  0.1157
   26CHL1  H26B 1919   2.189   3.298   4.396 -1.0299 -0.2224  0.0780
   26CHL1  H26C 1920   2.237   3.138   4.433  1.0668 -0.7915  0.7655
   26CHL1   C27 1921   2.463   3.325   4.421 -0.2462 -0.8658 -0.4269
   26CHL1  H27A 1922   2.469   3.249   4.340 -1.1584  0.4339 -1.7557
   26CHL1  H27B 1923   2.435   3.421   4.372 -0.6235  0.3571  2.0225
   26CHL1  H27C 1924   2.563   3.340   4.469  0.0702  0.9085 -1.5483
   27CHL1    C3 1925   5.844   2.378   5.729  0.7740 -0.8569 -0.6754
   27CHL1    H3 1926   5.916   2.463   5.739  0.7495 -0.9562  0.3823
   27CHL1    O3 1927   5.856   2.305   5.851 -0.6531 -0.1723  0.6879
   27CHL1   H3' 1928   5.801   2.227   5.841  0.4024 -0.8708  0.3061
   27CHL1    C4 1929   5.701   2.433   5.716  0.4533 -0.6520  0.2193
   27CHL1   H4A 1930   5.633   2.345   5.716  0.9710 -1.0582  0.0807
   27CHL1   H4B 1931   5.667   2.480   5.811  0.3444  0.4269 -0.3383
   27CHL1    C5 1932   5.688   2.508   5.586 -0.0040  0.2606  0.7802
   27CHL1    C6 1933   5.636   2.628   5.595  0.2731 -0.0206 -0.2801
   27CHL1    H6 1934   5.595   2.666   5.689 -0.3436  2.4278 -1.4691
   27CHL1    C7 1935   5.631   2.716   5.474 -0.6507  0.2925  0.2624
   27CHL1   H7A 1936   5.532   2.765   5.469 -0.5312  0.9086  2.4735
   27CHL1   H7B 1937   5.705   2.800   5.479 -0.4221  0.1333 -0.3223
   27CHL1    C8 1938   5.637   2.633   5.340  0.1504  0.2653 -0.2969
   27CHL1    H8 1939   5.534   2.593   5.324  0.1504 -0.9872  2.3727
   27CHL1   C14 1940   5.652   2.717   5.215 -0.0602  0.2870 -0.0324
   27CHL1   H14 1941   5.752   2.764   5.223  1.0203 -1.9428  0.1108
   27CHL1   C15 1942   5.560   2.847   5.204 -0.6093  0.2548  0.2686
   27CHL1  H15A 1943   5.457   2.823   5.236 -0.3629 -1.1029  0.1131
   27CHL1  H15B 1944   5.596   2.934   5.262 -0.3146  0.2193  0.1460
   27CHL1   C16 1945   5.574   2.885   5.053 -0.0657 -0.2155 -0.4144
   27CHL1  H16A 1946   5.473   2.878   5.008 -0.2743 -1.6816  0.2109
   27CHL1  H16B 1947   5.607   2.991   5.054 -0.2010 -0.1227 -2.3419
   27CHL1   C17 1948   5.670   2.779   4.988  1.0931 -0.6303  0.0868
   27CHL1   H17 1949   5.775   2.811   5.011  1.0300  0.4298 -1.0437
   27CHL1   C13 1950   5.654   2.653   5.077  0.5328 -0.4129  0.2770
   27CHL1   C18 1951   5.515   2.582   5.047 -0.3652 -0.4473  0.5663
   27CHL1  H18A 1952   5.514   2.547   4.942  2.5834  1.8726 -0.3697
   27CHL1  H18B 1953   5.507   2.496   5.117  1.6243 -0.9074  0.3089
   27CHL1  H18C 1954   5.437   2.658   5.065 -0.7267  0.0785 -2.6958
   27CHL1   C12 1955   5.770   2.558   5.083  0.0796  0.1668  0.2351
   27CHL1  H12A 1956   5.774   2.487   4.997  2.9531  1.4792 -0.8394
   27CHL1  H12B 1957   5.869   2.606   5.069 -0.5508  1.0426 -1.4273
   27CHL1   C11 1958   5.770   2.463   5.207  0.4351 -0.3632 -0.0065
   27CHL1  H11A 1959   5.681   2.400   5.185  2.0148 -2.0187 -2.0464
   27CHL1  H11B 1960   5.853   2.391   5.222 -1.9859 -2.6134  4.7691
   27CHL1    C9 1961   5.751   2.534   5.345  0.4637 -0.5071  0.3693
   27CHL1    H9 1962   5.842   2.597   5.356 -0.0446 -0.1114  2.8077
   27CHL1   C10 1963   5.735   2.438   5.461 -0.7086 -0.0374  0.4755
   27CHL1   C19 1964   5.628   2.327   5.437 -0.1172 -0.3317  0.2775
   27CHL1  H19A 1965   5.642   2.252   5.517  3.4227  1.8176  1.9412
   27CHL1  H19B 1966   5.527   2.373   5.428  0.1454 -0.0759 -2.1808
   27CHL1  H19C 1967   5.644   2.271   5.342 -2.3535 -1.5842  0.5764
   27CHL1    C1 1968   5.868   2.359   5.478 -0.3400 -0.5682 -0.0701
   27CHL1   H1A 1969   5.871   2.280   5.400  0.0725 -0.3999 -0.2284
   27CHL1   H1B 1970   5.956   2.427   5.474  0.5579 -1.6410  0.8395
   27CHL1    C2 1971   5.887   2.292   5.618 -0.0694  0.1101  0.0123
   27CHL1   H2A 1972   5.990   2.253   5.633 -0.9349 -2.0647  0.5494
   27CHL1   H2B 1973   5.819   2.205   5.621 -2.3065  1.7662  0.5167
   27CHL1   C20 1974   5.645   2.752   4.839 -0.0241  0.0816  0.0549
   27CHL1   H20 1975   5.545   2.704   4.835  1.3391 -3.0192 -0.0521
   27CHL1   C21 1976   5.744   2.647   4.789 -0.8402  0.6837  0.6131
   27CHL1  H21A 1977   5.743   2.625   4.680  2.4769 -0.3862  0.6911
   27CHL1  H21B 1978   5.719   2.546   4.828 -3.6145  1.3400  0.7563
   27CHL1  H21C 1979   5.849   2.674   4.813  0.5856 -0.4840 -3.5117
   27CHL1   C22 1980   5.640   2.880   4.747 -0.2581 -0.1628 -0.1941
   27CHL1  H22A 1981   5.580   2.956   4.801  0.6052  1.0147 -0.8517
   27CHL1  H22B 1982   5.737   2.929   4.724 -0.2102 -1.1529 -2.3004
   27CHL1   C23 1983   5.569   2.845   4.613 -0.6408 -0.0966 -0.0991
   27CHL1  H23A 1984   5.611   2.759   4.556 -1.1249 -1.5746  1.6699
   27CHL1  H23B 1985   5.467   2.814   4.645 -0.5710  0.0873  0.3028
   27CHL1   C24 1986   5.546   2.970   4.522 -0.0193 -0.4461  0.4450
   27CHL1  H24A 1987   5.477   3.036   4.579 -0.5813  0.4402 -1.2026
   27CHL1  H24B 1988   5.643   3.022   4.511 -0.2261 -0.0509  0.5036
   27CHL1   C25 1989   5.495   2.938   4.386  0.7241  0.2053  0.0176
   27CHL1   H25 1990   5.416   2.859   4.388  2.0293 -1.1614 -0.4761
   27CHL1   C26 1991   5.442   3.065   4.309 -0.1577  0.1160 -0.2262
   27CHL1  H26A 1992   5.502   3.150   4.347  1.6919 -0.1802 -2.2395
   27CHL1  H26B 1993   5.444   3.068   4.198  0.6054  0.7600 -0.2046
   27CHL1  H26C 1994   5.341   3.099   4.339  0.5889  1.9028  0.4091
   27CHL1   C27 1995   5.606   2.869   4.297 -0.3950 -0.1753  0.3362
   27CHL1  H27A 1996   5.704   2.922   4.304 -0.0519 -0.4317 -1.6995
   27CHL1  H27B 1997   5.614   2.762   4.328 -1.0228 -0.7641 -1.3968
   27CHL1  H27C 1998   5.587   2.866   4.187  2.4788 -1.2025 -0.2405
   28CHL1    C3 1999   0.128   5.480   5.710 -0.6914 -0.3920 -0.1076
   28CHL1    H3 2000   0.233   5.457   5.680 -1.0810 -0.0573 -1.8259
   28CHL1    O3 2001   0.111   5.486   5.856 -0.3514 -0.1281  0.1498
   28CHL1   H3' 2002   0.144   5.401   5.887 -1.6155 -0.7392 -0.1109
   28CHL1    C4 2003   0.084   5.612   5.640  0.4117  0.0442 -0.8688
   28CHL1   H4A 2004  -0.013   5.648   5.681  1.8410  4.4690 -0.8459
   28CHL1   H4B 2005   0.169   5.673   5.677  1.5411 -0.0797 -3.1098
   28CHL1    C5 2006   0.064   5.607   5.491 -0.3324  0.3318  0.9949
   28CHL1    C6 2007   0.125   5.700   5.414  0.3047  0.7293  1.1448
   28CHL1    H6 2008   0.180   5.784   5.458  0.4273  1.1988  0.1293
   28CHL1    C7 2009   0.110   5.700   5.259  0.1714  0.3802 -0.3624
   28CHL1   H7A 2010   0.101   5.798   5.207  0.6008 -0.2710 -1.7256
   28CHL1   H7B 2011   0.197   5.642   5.221 -1.6185 -2.2292 -0.7104
   28CHL1    C8 2012  -0.008   5.613   5.207  0.1073 -0.7767 -0.5311
   28CHL1    H8 2013  -0.101   5.662   5.243  1.3925  1.7282 -0.4021
   28CHL1   C14 2014  -0.005   5.590   5.056 -0.2296  0.3787 -0.1803
   28CHL1   H14 2015   0.081   5.522   5.036 -0.2754 -0.3625  1.8526
   28CHL1   C15 2016   0.018   5.709   4.960 -0.0289  0.1916 -0.3036
   28CHL1  H15A 2017  -0.031   5.804   4.990 -0.1933  0.1641 -0.4837
   28CHL1  H15B 2018   0.127   5.728   4.955 -0.2656  2.7379  2.0056
   28CHL1   C16 2019  -0.031   5.656   4.827 -0.5626  0.6618 -0.2927
   28CHL1  H16A 2020  -0.125   5.712   4.805  0.1460  1.2900 -1.8948
   28CHL1  H16B 2021   0.036   5.678   4.741 -0.7321 -0.1656 -0.6428
   28CHL1   C17 2022  -0.075   5.503   4.845 -0.5450  0.4960  0.3796
   28CHL1   H17 2023   0.015   5.442   4.822 -0.0646  0.4937  2.1333
   28CHL1   C13 2024  -0.110   5.495   4.994 -0.0873 -0.5591 -0.4239
   28CHL1   C18 2025  -0.248   5.550   5.020 -0.7512  0.2999 -0.9066
   28CHL1  H18A 2026  -0.326   5.481   4.981 -0.0356  0.8735 -3.5406
   28CHL1  H18B 2027  -0.266   5.580   5.126  0.9916 -0.6797 -0.2919
   28CHL1  H18C 2028  -0.268   5.643   4.963  0.4722  0.5006 -1.0310
   28CHL1   C12 2029  -0.092   5.354   5.062  0.4639 -0.6599 -0.3724
   28CHL1  H12A 2030  -0.175   5.293   5.020 -0.6743  0.2434  0.5368
   28CHL1  H12B 2031   0.008   5.307   5.049  1.5028  1.0087  1.1848
   28CHL1   C11 2032  -0.108   5.367   5.215  0.4710  0.0130 -0.6715
   28CHL1  H11A 2033  -0.214   5.392   5.238  1.4525  1.6161  2.7608
   28CHL1  H11B 2034  -0.098   5.270   5.267  0.9373  0.5752  0.3195
   28CHL1    C9 2035  -0.004   5.474   5.274 -0.2265  0.0700 -0.2076
   28CHL1    H9 2036   0.092   5.426   5.249 -0.1413 -0.1437  0.5235
   28CHL1   C10 2037  -0.008   5.483   5.431 -0.6825 -0.6322 -0.5294
   28CHL1   C19 2038  -0.155   5.511   5.476  0.4478 -0.0584  0.7665
   28CHL1  H19A 2039  -0.202   5.411   5.459  0.3775 -0.2719  2.1104
   28CHL1  H19B 2040  -0.174   5.542   5.581  0.4958  3.8314 -0.2492
   28CHL1  H19C 2041  -0.215   5.580   5.413  2.4341 -0.5074 -1.7786
   28CHL1    C1 2042   0.048   5.358   5.498 -0.2130  0.0528  0.2915
   28CHL1   H1A 2043  -0.012   5.267   5.477  2.1796 -1.6065  0.3152
   28CHL1   H1B 2044   0.153   5.337   5.469 -0.4314 -3.2190  1.4488
   28CHL1    C2 2045   0.051   5.366   5.650  0.4651  0.3204 -0.2970
   28CHL1   H2A 2046   0.088   5.278   5.706 -2.0054 -0.3453  0.4039
   28CHL1   H2B 2047  -0.051   5.381   5.692 -0.1397  3.2592 -2.4706
   28CHL1   C20 2048  -0.179   5.460   4.739 -0.3305  0.0875  0.3008
   28CHL1   H20 2049  -0.273   5.517   4.756 -1.4329 -1.0911 -1.5223
   28CHL1   C21 2050  -0.219   5.313   4.759 -0.1851  0.2467 -0.7283
   28CHL1  H21A 2051  -0.136   5.240   4.774  1.1684  2.0078  0.9403
   28CHL1  H21B 2052  -0.285   5.283   4.674 -0.0014  0.5539 -0.9836
   28CHL1  H21C 2053  -0.278   5.292   4.850 -0.9042  1.9253 -0.7863
   28CHL1   C22 2054  -0.136   5.470   4.588 -0.0918 -0.3096 -0.4900
   28CHL1  H22A 2055  -0.218   5.440   4.519  0.3341 -1.1660 -0.6385
   28CHL1  H22B 2056  -0.115   5.577   4.569 -0.1393 -0.3829 -0.9936
   28CHL1   C23 2057   0.004   5.408   4.571 -0.4893  0.0764 -0.1505
   28CHL1  H23A 2058   0.078   5.462   4.634 -0.4081 -2.0367  1.6835
   28CHL1  H23B 2059   0.005   5.306   4.615  0.4185  0.6688  1.2727
   28CHL1   C24 2060   0.049   5.414   4.426 -1.2720  0.5460  0.5185
   28CHL1  H24A 2061  -0.021   5.359   4.359  0.4733  0.3541 -1.2421
   28CHL1  H24B 2062   0.043   5.523   4.401 -2.0264  0.0445 -1.7628
   28CHL1   C25 2063   0.185   5.342   4.404  0.6087  0.5726 -0.4318
   28CHL1   H25 2064   0.197   5.255   4.472  1.2925 -0.5999 -1.9807
   28CHL1   C26 2065   0.195   5.278   4.260  0.1725 -0.0994  0.0761
   28CHL1  H26A 2066   0.135   5.185   4.249 -0.2494  0.2474 -0.6366
   28CHL1  H26B 2067   0.145   5.345   4.187 -4.9593 -1.1534  2.1955
   28CHL1  H26C 2068   0.304   5.266   4.244  0.2908  0.6828  0.2434
   28CHL1   C27 2069   0.301   5.440   4.418 -0.1683  0.6660  0.2382
   28CHL1  H27A 2070   0.393   5.378   4.404 -2.4322 -2.6270 -1.3522
   28CHL1  H27B 2071   0.299   5.521   4.341  0.5494  0.3540 -0.1247
   28CHL1  H27C 2072   0.300   5.482   4.521 -1.5691 -1.7326  1.2635
   29CHL1    C3 2073   4.562   0.211   2.473  0.1808  0.1191 -0.3847
   29CHL1    H3 2074   4.482   0.283   2.445  0.0447  0.2200  0.2391
   29CHL1    O3 2075   4.594   0.141   2.353  0.0127 -0.5209  0.2717
   29CHL1   H3' 2076   4.576   0.050   2.377 -3.1975  0.4430  2.0308
   29CHL1    C4 2077   4.685   0.282   2.512 -0.3299 -0.1584 -0.9427
   29CHL1   H4A 2078   4.762   0.204   2.531  0.3111  0.9088  1.2658
   29CHL1   H4B 2079   4.736   0.349   2.439  0.7001  0.8164  0.5961
   29CHL1    C5 2080   4.657   0.368   2.636  0.7207 -0.2983  0.7208
   29CHL1    C6 2081   4.672   0.502   2.635 -0.1462  0.5925 -0.4991
   29CHL1    H6 2082   4.719   0.544   2.545  0.7164  0.9024  0.0788
   29CHL1    C7 2083   4.674   0.584   2.759 -0.4794  0.2944  0.7542
   29CHL1   H7A 2084   4.770   0.640   2.767 -0.1506 -0.2401  0.6511
   29CHL1   H7B 2085   4.600   0.665   2.742  0.4095  0.9608 -0.0467
   29CHL1    C8 2086   4.668   0.504   2.890  0.4041 -0.4323 -0.1585
   29CHL1    H8 2087   4.768   0.460   2.912  1.1127 -0.7986 -3.5889
   29CHL1   C14 2088   4.631   0.596   3.010  0.0984  0.9172  0.1315
   29CHL1   H14 2089   4.531   0.641   2.994 -1.9839 -2.9333  1.1261
   29CHL1   C15 2090   4.722   0.713   3.035  0.2273  0.0212 -0.2785
   29CHL1  H15A 2091   4.825   0.677   3.018  0.7879  1.1153  0.7016
   29CHL1  H15B 2092   4.698   0.793   2.962  0.2869  0.1628 -0.1431
   29CHL1   C16 2093   4.693   0.738   3.185  0.2271 -0.2252  0.0006
   29CHL1  H16A 2094   4.795   0.746   3.229  0.8713  1.7378 -1.6917
   29CHL1  H16B 2095   4.637   0.833   3.199 -3.8355 -2.0600 -2.0015
   29CHL1   C17 2096   4.600   0.626   3.241 -0.1954  0.7679  1.0852
   29CHL1   H17 2097   4.495   0.662   3.227 -0.0952  0.0033 -2.8763
   29CHL1   C13 2098   4.617   0.513   3.141 -0.0858  0.4402  0.4835
   29CHL1   C18 2099   4.752   0.435   3.179  0.0734 -0.0108  0.3023
   29CHL1  H18A 2100   4.835   0.508   3.194  1.3540 -1.7128  1.9497
   29CHL1  H18B 2101   4.724   0.394   3.278 -0.4560  2.4761  1.2615
   29CHL1  H18C 2102   4.779   0.357   3.106 -1.9760  0.1755 -0.7257
   29CHL1   C12 2103   4.498   0.407   3.121  0.1043  0.4799  0.2536
   29CHL1  H12A 2104   4.482   0.351   3.215 -0.9269 -2.4587 -1.5488
   29CHL1  H12B 2105   4.414   0.475   3.095  0.4410  0.8596  0.1302
   29CHL1   C11 2106   4.519   0.310   3.009 -0.0522  1.2127  0.2724
   29CHL1  H11A 2107   4.597   0.249   3.057  0.1658  2.3544  1.4314
   29CHL1  H11B 2108   4.426   0.253   2.986  0.7701 -0.3588  0.7394
   29CHL1    C9 2109   4.562   0.384   2.876 -0.6443  0.1707  0.1515
   29CHL1    H9 2110   4.470   0.435   2.839  0.0313  1.0675 -0.3392
   29CHL1   C10 2111   4.608   0.295   2.760 -0.2053  0.1672  0.9132
   29CHL1   C19 2112   4.732   0.208   2.808 -0.0853  0.2827  0.2021
   29CHL1  H19A 2113   4.759   0.125   2.738  0.3979 -0.4324  1.2045
   29CHL1  H19B 2114   4.825   0.270   2.811  0.0075  0.5034 -3.1744
   29CHL1  H19C 2115   4.714   0.168   2.910  0.7074 -0.1064  0.1990
   29CHL1    C1 2116   4.490   0.205   2.714  0.1460 -0.5565 -0.3115
   29CHL1   H1A 2117   4.474   0.130   2.795  2.4213 -1.7593 -0.8685
   29CHL1   H1B 2118   4.396   0.262   2.701  0.1123 -0.4710  0.3138
   29CHL1    C2 2119   4.507   0.121   2.584  0.5317  0.5943  0.3958
   29CHL1   H2A 2120   4.416   0.070   2.546  1.2074  0.0812 -0.5894
   29CHL1   H2B 2121   4.582   0.043   2.608  2.6683  2.7939  1.3050
   29CHL1   C20 2122   4.620   0.622   3.393 -0.3703 -0.3424  0.2572
   29CHL1   H20 2123   4.713   0.568   3.422 -0.9915 -1.4378  0.2114
   29CHL1   C21 2124   4.506   0.535   3.446  0.0536 -0.1719  0.5318
   29CHL1  H21A 2125   4.515   0.428   3.416  0.5981  0.3644 -1.3412
   29CHL1  H21B 2126   4.409   0.581   3.418 -0.8233 -0.6597  2.5485
   29CHL1  H21C 2127   4.505   0.537   3.557 -1.9802  0.9070  0.5420
   29CHL1   C22 2128   4.628   0.763   3.467  0.7325 -1.4038 -0.1471
   29CHL1  H22A 2129   4.715   0.825   3.437  0.9266 -1.5477  0.1148
   29CHL1  H22B 2130   4.538   0.820   3.434  1.1149 -0.6126  0.1284
   29CHL1   C23 2131   4.631   0.750   3.628  0.1620  0.7740 -0.3003
   29CHL1  H23A 2132   4.535   0.701   3.656 -0.4708  1.0822 -1.7858
   29CHL1  H23B 2133   4.715   0.682   3.652  0.4446  0.9633 -0.7380
   29CHL1   C24 2134   4.612   0.885   3.698  0.0947  0.4769 -0.0369
   29CHL1  H24A 2135   4.681   0.967   3.668 -0.3501  0.9031  0.1010
   29CHL1  H24B 2136   4.517   0.929   3.663 -1.5754 -1.6459  1.5853
   29CHL1   C25 2137   4.608   0.869   3.850 -0.0951 -0.0968  0.4779
   29CHL1   H25 2138   4.513   0.815   3.871 -0.2004  0.4653  1.5127
   29CHL1   C26 2139   4.722   0.798   3.923  0.5944 -0.6995 -0.0716
   29CHL1  H26A 2140   4.821   0.836   3.892  1.3636  0.0682  2.9669
   29CHL1  H26B 2141   4.725   0.814   4.033 -1.0489  0.8181 -0.1876
   29CHL1  H26C 2142   4.721   0.690   3.901 -2.4107 -0.9503  0.7784
   29CHL1   C27 2143   4.602   1.002   3.901 -0.8402 -0.2777 -0.1300
   29CHL1  H27A 2144   4.704   1.045   3.892 -1.1395  0.5855  0.4906
   29CHL1  H27B 2145   4.533   1.071   3.849  0.8800  1.7186  0.1142
   29CHL1  H27C 2146   4.575   1.003   4.009  0.9112  1.2160  0.3481
   30CHL1    C3 2147   5.756   2.181   2.182  0.3457  0.2066  0.3567
   30CHL1    H3 2148   5.860   2.142   2.175  0.3389  0.2010  0.2889
   30CHL1    O3 2149   5.709   2.168   2.047 -0.2908 -0.8443 -0.6628
   30CHL1   H3' 2150   5.650   2.242   2.033 -0.7021 -0.8595  0.7895
   30CHL1    C4 2151   5.655   2.080   2.256  0.2875 -0.4169  0.0957
   30CHL1   H4A 2152   5.550   2.114   2.245 -0.1511 -1.3857  1.0743
   30CHL1   H4B 2153   5.660   1.978   2.213 -0.0203 -0.5543  0.3791
   30CHL1    C5 2154   5.672   2.086   2.408  0.1820 -0.3712  0.3925
   30CHL1    C6 2155   5.676   1.976   2.483  0.4040  0.3849  0.2950
   30CHL1    H6 2156   5.679   1.877   2.435  0.9269  0.4069  0.2801
   30CHL1    C7 2157   5.686   1.974   2.630 -0.0604 -0.3239  0.5202
   30CHL1   H7A 2158   5.617   1.902   2.679 -0.4339  1.1328  2.2377
   30CHL1   H7B 2159   5.787   1.937   2.654  0.3389  1.1927  1.2925
   30CHL1    C8 2160   5.658   2.111   2.690  0.1246  1.0638  0.0349
   30CHL1    H8 2161   5.548   2.109   2.700  0.1191  0.4064 -0.0877
   30CHL1   C14 2162   5.716   2.106   2.830  0.0578  1.0622  0.4343
   30CHL1   H14 2163   5.825   2.096   2.809 -0.1840  1.1002 -0.9154
   30CHL1   C15 2164   5.682   1.995   2.925 -0.2460  0.1382  0.3246
   30CHL1  H15A 2165   5.572   1.982   2.926 -0.5178  1.5089 -2.4223
   30CHL1  H15B 2166   5.725   1.904   2.878 -0.4337  0.5529 -0.6735
   30CHL1   C16 2167   5.751   2.052   3.053  0.2940 -0.3133 -0.7308
   30CHL1  H16A 2168   5.678   2.031   3.134  0.6909 -3.6837 -1.1267
   30CHL1  H16B 2169   5.839   1.991   3.081  0.7721  0.4607 -0.5052
   30CHL1   C17 2170   5.775   2.201   3.038  0.1730  0.8729 -0.7420
   30CHL1   H17 2171   5.881   2.207   3.005  0.4998 -1.4521 -0.3017
   30CHL1   C13 2172   5.700   2.238   2.908 -0.3466  0.4437 -0.1746
   30CHL1   C18 2173   5.554   2.277   2.936 -0.6964  0.6117 -0.5919
   30CHL1  H18A 2174   5.516   2.206   3.013  1.8874 -2.5784 -2.0218
   30CHL1  H18B 2175   5.556   2.382   2.972  0.9574 -0.0532  1.5055
   30CHL1  H18C 2176   5.485   2.266   2.849 -1.9733  0.5469  0.4024
   30CHL1   C12 2177   5.771   2.344   2.817  0.6234  0.2294 -0.1456
   30CHL1  H12A 2178   5.769   2.446   2.862 -2.2695  0.9899 -1.7696
   30CHL1  H12B 2179   5.881   2.326   2.816  0.3493 -1.5827 -0.2135
   30CHL1   C11 2180   5.698   2.360   2.682  0.5249  0.4191 -0.3100
   30CHL1  H11A 2181   5.597   2.405   2.685  0.3775  0.1592 -1.0578
   30CHL1  H11B 2182   5.760   2.434   2.627  0.7195  0.3551 -0.1788
   30CHL1    C9 2183   5.716   2.225   2.612  0.1276  0.1103  0.0685
   30CHL1    H9 2184   5.825   2.201   2.606 -0.4781 -2.8312 -0.8868
   30CHL1   C10 2185   5.674   2.227   2.465  0.4333  0.4292  0.2820
   30CHL1   C19 2186   5.534   2.289   2.452  0.0362 -0.1792  0.1020
   30CHL1  H19A 2187   5.523   2.392   2.491  0.7652  0.2837 -0.8785
   30CHL1  H19B 2188   5.489   2.289   2.350 -0.8885 -0.9664  0.4899
   30CHL1  H19C 2189   5.464   2.234   2.519 -0.6707  2.1583  1.3871
   30CHL1    C1 2190   5.787   2.307   2.392 -0.4070  0.0796  0.2503
   30CHL1   H1A 2191   5.807   2.408   2.435  2.9436 -1.0460  1.7792
   30CHL1   H1B 2192   5.887   2.260   2.408 -0.5214 -0.2026  0.1522
   30CHL1    C2 2193   5.756   2.320   2.243 -0.2915  0.2965 -0.5503
   30CHL1   H2A 2194   5.837   2.374   2.189  1.0548 -1.2101 -0.1250
   30CHL1   H2B 2195   5.659   2.372   2.229  0.4039  1.3675 -1.5577
   30CHL1   C20 2196   5.760   2.287   3.165  0.3343  0.1426  0.6336
   30CHL1   H20 2197   5.659   2.276   3.208  0.1222 -0.4569  0.0032
   30CHL1   C21 2198   5.791   2.438   3.143 -0.4422 -0.4586  0.0093
   30CHL1  H21A 2199   5.727   2.479   3.062 -1.2299 -1.3396  0.1761
   30CHL1  H21B 2200   5.902   2.440   3.128 -0.1212 -1.8466  1.8580
   30CHL1  H21C 2201   5.770   2.492   3.237 -1.3624 -1.4575  0.3921
   30CHL1   C22 2202   5.852   2.226   3.278  0.0089  0.0216  1.1105
   30CHL1  H22A 2203   5.845   2.115   3.280 -3.4775  0.0074 -2.0302
   30CHL1  H22B 2204   5.957   2.248   3.248  0.6116 -1.2282  2.1673
   30CHL1   C23 2205   5.813   2.284   3.412 -0.4148  0.3661  0.1008
   30CHL1  H23A 2206   5.833   2.393   3.408 -0.7058  0.3947 -0.6198
   30CHL1  H23B 2207   5.705   2.263   3.427 -0.7934  1.1123 -1.3921
   30CHL1   C24 2208   5.892   2.216   3.525  0.1518  0.6118  0.4032
   30CHL1  H24A 2209   5.911   2.110   3.501  2.7031  1.2761 -0.9228
   30CHL1  H24B 2210   5.996   2.255   3.531  1.0144 -1.3986 -0.6003
   30CHL1   C25 2211   5.833   2.231   3.664 -0.6025  0.2420 -0.1173
   30CHL1   H25 2212   5.836   2.341   3.681  2.2040  0.2087  0.0493
   30CHL1   C26 2213   5.684   2.188   3.683 -0.7384 -0.0119 -0.0153
   30CHL1  H26A 2214   5.652   2.208   3.788  0.8849 -2.1073  0.9541
   30CHL1  H26B 2215   5.623   2.246   3.611  0.2765  2.7010  1.1736
   30CHL1  H26C 2216   5.685   2.078   3.669 -1.0152  0.0631 -0.6679
   30CHL1   C27 2217   5.922   2.184   3.781 -0.1798 -0.0046  0.1771
   30CHL1  H27A 2218   6.026   2.223   3.777  0.7696 -2.0772  2.2523
   30CHL1  H27B 2219   5.888   2.200   3.885 -0.3332 -3.1703  0.7040
   30CHL1  H27C 2220   5.931   2.073   3.781 -0.7098 -0.0639 -1.0130
   31CHL1    C3 2221   5.881   1.184   2.592  0.2142 -0.2591 -0.0684
   31CHL1    H3 2222   5.872   1.295   2.584 -0.0431 -0.3959 -2.2795
   31CHL1    O3 2223   5.933   1.131   2.471 -0.1458 -0.2212  0.9405
   31CHL1   H3' 2224   5.905   1.039   2.476 -2.4566  0.3695  0.0362
   31CHL1    C4 2225   5.973   1.149   2.718  0.1291 -0.3312  0.2075
   31CHL1   H4A 2226   5.998   1.042   2.708  1.2735  0.0878 -1.9843
   31CHL1   H4B 2227   6.066   1.208   2.705 -0.4845  1.2017  2.2981
   31CHL1    C5 2228   5.927   1.174   2.851  0.0270 -0.1882 -0.4209
   31CHL1    C6 2229   5.996   1.249   2.939 -0.2378 -0.0671 -0.4152
   31CHL1    H6 2230   6.093   1.291   2.909  1.2510 -2.6164  0.5125
   31CHL1    C7 2231   5.957   1.277   3.082  0.3385  0.6370 -0.3290
   31CHL1   H7A 2232   6.030   1.260   3.164 -1.7021 -2.1584  1.0799
   31CHL1   H7B 2233   5.915   1.380   3.091 -2.4495 -0.4641  0.5651
   31CHL1    C8 2234   5.834   1.189   3.130  0.0490  0.0721 -0.4816
   31CHL1    H8 2235   5.877   1.092   3.162  1.2702  1.0053  0.8353
   31CHL1   C14 2236   5.768   1.250   3.254 -0.7203 -0.0538 -0.0509
   31CHL1   H14 2237   5.721   1.344   3.220  0.1235  0.8846  1.2748
   31CHL1   C15 2238   5.856   1.281   3.366 -0.2708  0.2771 -0.0106
   31CHL1  H15A 2239   5.922   1.201   3.403  1.6256  1.9879  0.4915
   31CHL1  H15B 2240   5.922   1.367   3.342 -0.6401  0.6210  0.1924
   31CHL1   C16 2241   5.757   1.318   3.478  0.4101  0.7569 -0.4064
   31CHL1  H16A 2242   5.786   1.265   3.572 -0.5809 -0.7709 -0.9262
   31CHL1  H16B 2243   5.756   1.429   3.489  1.5567  1.2177 -3.9078
   31CHL1   C17 2244   5.616   1.271   3.438  0.3000 -0.3291 -0.3631
   31CHL1   H17 2245   5.567   1.360   3.394 -1.4794 -0.9757  0.2067
   31CHL1   C13 2246   5.645   1.175   3.312 -0.4660  0.2362  0.1394
   31CHL1   C18 2247   5.696   1.039   3.360  0.0029 -0.1177 -0.4169
   31CHL1  H18A 2248   5.608   0.979   3.389 -0.6332  0.5298 -0.9430
   31CHL1  H18B 2249   5.754   0.991   3.278 -0.2157 -1.4895  0.2120
   31CHL1  H18C 2250   5.758   1.048   3.452  2.9376  0.6380 -2.3427
   31CHL1   C12 2251   5.543   1.161   3.201 -0.3020 -0.0368  0.3752
   31CHL1  H12A 2252   5.454   1.102   3.232  0.1380  0.1862  2.1735
   31CHL1  H12B 2253   5.501   1.258   3.166 -1.1138  0.3000  2.1570
   31CHL1   C11 2254   5.608   1.105   3.073  0.0392  0.0397 -0.3421
   31CHL1  H11A 2255   5.624   0.997   3.088  2.0214  0.0596 -1.9403
   31CHL1  H11B 2256   5.532   1.110   2.992 -0.0510 -0.3554 -0.2849
   31CHL1    C9 2257   5.730   1.175   3.020 -0.5670 -0.1997 -0.2046
   31CHL1    H9 2258   5.699   1.279   2.996 -0.5441 -0.7113 -2.6597
   31CHL1   C10 2259   5.784   1.128   2.882 -0.8180  0.0048  0.8186
   31CHL1   C19 2260   5.804   0.974   2.898  0.1021  0.6613  0.5286
   31CHL1  H19A 2261   5.703   0.931   2.915  1.2363 -1.3300  2.8336
   31CHL1  H19B 2262   5.857   0.934   2.808  5.4933  1.8572  2.8090
   31CHL1  H19C 2263   5.863   0.961   2.991  1.5295  2.5001 -0.0791
   31CHL1    C1 2264   5.694   1.169   2.761 -0.4277  0.1498 -0.2160
   31CHL1   H1A 2265   5.599   1.112   2.772 -0.2419 -0.2549 -0.6673
   31CHL1   H1B 2266   5.679   1.279   2.764  2.5005  0.6167  3.0527
   31CHL1    C2 2267   5.746   1.122   2.617  0.1654 -0.7691 -0.4402
   31CHL1   H2A 2268   5.672   1.159   2.543 -1.0931 -1.8707  0.2271
   31CHL1   H2B 2269   5.748   1.011   2.618  2.6651 -0.7857 -0.1317
   31CHL1   C20 2270   5.519   1.236   3.548  0.0370 -0.4374  0.1483
   31CHL1   H20 2271   5.585   1.165   3.602  1.6224  2.5638  2.4534
   31CHL1   C21 2272   5.391   1.166   3.480  0.2090 -0.3408 -0.2837
   31CHL1  H21A 2273   5.306   1.156   3.551  0.2984  0.6484 -0.0191
   31CHL1  H21B 2274   5.431   1.068   3.449  0.6711  0.0607 -0.9879
   31CHL1  H21C 2275   5.354   1.233   3.399 -2.5248 -2.7347 -1.1799
   31CHL1   C22 2276   5.479   1.354   3.647 -0.4456  0.3881  0.9498
   31CHL1  H22A 2277   5.570   1.416   3.661  0.1943 -0.2933  0.0138
   31CHL1  H22B 2278   5.409   1.420   3.591  0.3594 -0.5518 -1.3240
   31CHL1   C23 2279   5.437   1.317   3.793 -0.0314  0.4095  0.5164
   31CHL1  H23A 2280   5.355   1.242   3.787  0.3315  0.0718 -0.4075
   31CHL1  H23B 2281   5.524   1.271   3.844  1.9376  3.5297  0.2044
   31CHL1   C24 2282   5.373   1.435   3.863 -0.3575  0.0616 -0.8023
   31CHL1  H24A 2283   5.447   1.518   3.867 -0.4147  0.2589 -2.8967
   31CHL1  H24B 2284   5.283   1.470   3.808 -0.2471  1.0742 -0.3600
   31CHL1   C25 2285   5.336   1.389   4.009 -0.3512  0.5247 -1.3462
   31CHL1   H25 2286   5.270   1.301   4.002  0.9604 -0.4867 -1.3965
   31CHL1   C26 2287   5.462   1.342   4.084  0.5998  0.0382  0.2190
   31CHL1  H26A 2288   5.438   1.332   4.192 -2.8372  4.2153  0.1097
   31CHL1  H26B 2289   5.504   1.245   4.049 -1.1866 -1.5202  2.1592
   31CHL1  H26C 2290   5.543   1.419   4.079  0.5491  0.3966  3.1281
   31CHL1   C27 2291   5.271   1.504   4.091  0.7222 -0.9828 -0.2641
   31CHL1  H27A 2292   5.267   1.473   4.198 -0.4601 -1.7572 -0.5055
   31CHL1  H27B 2293   5.321   1.600   4.068  0.7977 -1.2864 -1.4325
   31CHL1  H27C 2294   5.166   1.523   4.061  0.5792 -0.9407  0.2559
   32CHL1    C3 2295   4.030   3.493   2.343  0.0902 -0.7034 -0.0138
   32CHL1    H3 2296   4.078   3.584   2.384 -0.0728 -0.6697  0.1044
   32CHL1    O3 2297   4.036   3.507   2.202  0.2030 -0.0696 -0.8413
   32CHL1   H3' 2298   3.962   3.454   2.173  0.2799 -0.9874  0.5577
   32CHL1    C4 2299   4.108   3.368   2.379 -0.0096 -0.1091 -0.5705
   32CHL1   H4A 2300   4.049   3.286   2.333  0.3501 -1.3714  1.1429
   32CHL1   H4B 2301   4.212   3.355   2.343 -0.5923  1.5821 -3.1567
   32CHL1    C5 2302   4.107   3.362   2.526  1.0441  0.1275  0.2354
   32CHL1    C6 2303   4.217   3.359   2.599 -0.2791 -0.0134  0.2917
   32CHL1    H6 2304   4.315   3.350   2.550 -0.7811  0.1117 -0.7696
   32CHL1    C7 2305   4.216   3.351   2.752  0.5098  0.1646  0.9749
   32CHL1   H7A 2306   4.298   3.281   2.776  0.6381  0.3074  0.9519
   32CHL1   H7B 2307   4.250   3.446   2.798  1.0494 -0.0424  1.0095
   32CHL1    C8 2308   4.076   3.306   2.815 -1.3158  0.3965  0.9555
   32CHL1    H8 2309   4.064   3.199   2.791 -1.5905  1.0916 -2.4513
   32CHL1   C14 2310   4.071   3.327   2.959  0.5445  0.1118 -0.4723
   32CHL1   H14 2311   4.076   3.437   2.974  1.3318 -0.0934  0.9095
   32CHL1   C15 2312   4.187   3.267   3.038 -0.2295  0.8090 -0.3942
   32CHL1  H15A 2313   4.208   3.165   2.999 -0.3085 -0.2317  2.0567
   32CHL1  H15B 2314   4.280   3.328   3.028  2.6902 -3.3543 -1.3712
   32CHL1   C16 2315   4.134   3.276   3.182  0.1572  0.6186  0.5459
   32CHL1  H16A 2316   4.168   3.175   3.214 -0.1550  0.0952 -0.6956
   32CHL1  H16B 2317   4.194   3.353   3.235  1.2807 -1.6191  2.7074
   32CHL1   C17 2318   3.984   3.313   3.180 -0.0831  0.2123  0.8805
   32CHL1   H17 2319   3.968   3.423   3.190 -1.1493  0.4370 -2.3028
   32CHL1   C13 2320   3.944   3.287   3.030  1.0528  0.1639  0.5507
   32CHL1   C18 2321   3.911   3.137   3.029 -0.3095  0.3120  0.0235
   32CHL1  H18A 2322   3.808   3.117   3.065  0.1034 -1.6369  0.2430
   32CHL1  H18B 2323   3.897   3.102   2.924 -3.1783  1.3307 -0.0238
   32CHL1  H18C 2324   3.986   3.083   3.091 -1.0191 -0.7775 -0.0229
   32CHL1   C12 2325   3.833   3.374   2.968  0.0647  0.4323 -0.3669
   32CHL1  H12A 2326   3.736   3.346   3.015  0.2302 -0.9413 -0.7854
   32CHL1  H12B 2327   3.866   3.474   3.003  0.3720  1.9213 -4.4024
   32CHL1   C11 2328   3.831   3.352   2.811  0.6928  0.2334 -0.0066
   32CHL1  H11A 2329   3.801   3.245   2.801 -0.6388  0.5972 -0.1130
   32CHL1  H11B 2330   3.749   3.408   2.761 -0.5568 -1.9080 -0.4679
   32CHL1    C9 2331   3.967   3.386   2.748  0.0358  0.1811  0.0688
   32CHL1    H9 2332   3.982   3.494   2.769 -1.2196  0.1454  1.3087
   32CHL1   C10 2333   3.957   3.363   2.596 -0.3470  0.2411 -0.4522
   32CHL1   C19 2334   3.892   3.228   2.564  0.0560 -0.1787 -0.6902
   32CHL1  H19A 2335   3.939   3.154   2.633  0.4713  0.5153 -0.2167
   32CHL1  H19B 2336   3.783   3.225   2.586 -0.0868 -1.5430 -1.4559
   32CHL1  H19C 2337   3.916   3.192   2.462 -0.7386 -2.9850  0.0235
   32CHL1    C1 2338   3.870   3.474   2.534 -0.2552 -0.2893  0.0020
   32CHL1   H1A 2339   3.764   3.452   2.560 -0.4758  1.3525  0.5846
   32CHL1   H1B 2340   3.875   3.572   2.585  0.4231 -0.6881  0.7223
   32CHL1    C2 2341   3.887   3.490   2.384  0.5706 -0.7581  0.0205
   32CHL1   H2A 2342   3.841   3.581   2.340  0.1750 -1.1966 -0.4790
   32CHL1   H2B 2343   3.846   3.398   2.338  2.3535 -0.7372 -1.7248
   32CHL1   C20 2344   3.905   3.239   3.288  0.3986  0.1821  0.0636
   32CHL1   H20 2345   3.915   3.128   3.286 -1.4805 -0.0089 -0.5997
   32CHL1   C21 2346   3.751   3.267   3.278  0.7316  0.1847  0.1254
   32CHL1  H21A 2347   3.726   3.375   3.282  3.4871  0.9866 -1.4868
   32CHL1  H21B 2348   3.688   3.208   3.349 -0.9685 -1.9669 -2.9211
   32CHL1  H21C 2349   3.696   3.233   3.188  1.5240  1.8072 -1.0232
   32CHL1   C22 2350   3.942   3.295   3.425  0.3955  0.4617 -0.3275
   32CHL1  H22A 2351   4.051   3.278   3.437  0.3340 -0.5526 -1.0695
   32CHL1  H22B 2352   3.910   3.401   3.438 -1.6950 -0.2015  0.2747
   32CHL1   C23 2353   3.892   3.216   3.547  0.2248 -0.5769  0.1483
   32CHL1  H23A 2354   3.782   3.234   3.552  0.5944  1.6154  2.3901
   32CHL1  H23B 2355   3.908   3.106   3.539 -0.1295 -0.5715 -0.6700
   32CHL1   C24 2356   3.962   3.259   3.681 -0.1062  0.2476  0.0589
   32CHL1  H24A 2357   4.073   3.258   3.681 -0.1067  0.1077  0.3376
   32CHL1  H24B 2358   3.927   3.362   3.704 -1.1641  0.1459 -1.0165
   32CHL1   C25 2359   3.919   3.174   3.805  0.0158 -0.5148 -0.1966
   32CHL1   H25 2360   3.812   3.155   3.783  0.2473 -0.3275 -1.6366
   32CHL1   C26 2361   3.977   3.027   3.804 -0.5016  0.0840 -0.3920
   32CHL1  H26A 2362   4.083   3.040   3.834 -0.3834 -2.1054  0.3502
   32CHL1  H26B 2363   3.928   2.979   3.891 -0.9446 -0.2836 -0.8376
   32CHL1  H26C 2364   3.963   2.974   3.707 -1.6144 -1.3280  0.5064
   32CHL1   C27 2365   3.946   3.240   3.942  0.2081 -0.3282 -0.0458
   32CHL1  H27A 2366   3.894   3.172   4.013  0.5746  2.4661  3.1326
   32CHL1  H27B 2367   4.054   3.246   3.966  1.2443 -1.8300 -3.6405
   32CHL1  H27C 2368   3.901   3.340   3.957  1.9754  0.3926  0.7148
   33CHL1    C3 2369   1.936   4.437   2.804  0.3725  0.1519  0.3619
   33CHL1    H3 2370   2.009   4.519   2.819 -0.1228  0.1257  3.5109
   33CHL1    O3 2371   1.853   4.464   2.687  0.1019 -0.2023  0.2868
   33CHL1   H3' 2372   1.813   4.378   2.668 -1.4825  0.2600  1.3048
   33CHL1    C4 2373   2.023   4.311   2.778  0.7937  0.3094 -0.4805
   33CHL1   H4A 2374   1.951   4.235   2.742  0.3608  0.2760  0.4220
   33CHL1   H4B 2375   2.091   4.340   2.695 -0.8179  0.9820 -1.6199
   33CHL1    C5 2376   2.090   4.271   2.911 -0.0347 -0.6063  0.3620
   33CHL1    C6 2377   2.226   4.237   2.913 -0.2736 -0.7199  0.1808
   33CHL1    H6 2378   2.281   4.244   2.818 -0.0304 -0.0274  0.3684
   33CHL1    C7 2379   2.293   4.183   3.036 -0.2711  0.1090  0.2856
   33CHL1   H7A 2380   2.360   4.102   2.999  0.5573  0.1465  1.6294
   33CHL1   H7B 2381   2.358   4.259   3.084 -0.8412  1.3295 -0.8314
   33CHL1    C8 2382   2.193   4.130   3.141 -0.0075  0.7402  0.2254
   33CHL1    H8 2383   2.152   4.032   3.109 -2.0844  1.0137  1.8601
   33CHL1   C14 2384   2.268   4.109   3.275  0.2168  0.1549 -0.0270
   33CHL1   H14 2385   2.303   4.211   3.300  1.9230 -0.3751 -0.1480
   33CHL1   C15 2386   2.385   4.011   3.273  0.2174 -0.6824  0.1481
   33CHL1  H15A 2387   2.359   3.918   3.218 -0.9646  1.0645 -2.4678
   33CHL1  H15B 2388   2.473   4.063   3.229  0.4409  0.4239  1.8272
   33CHL1   C16 2389   2.407   3.980   3.426 -0.0044  0.5349  0.3327
   33CHL1  H16A 2390   2.407   3.870   3.441 -0.2373  0.0163 -2.7961
   33CHL1  H16B 2391   2.502   4.020   3.468  1.0163 -0.7427 -0.6717
   33CHL1   C17 2392   2.278   4.042   3.503 -0.3643  0.2461 -0.2114
   33CHL1   H17 2393   2.303   4.145   3.537  1.5195 -0.1757 -0.2043
   33CHL1   C13 2394   2.173   4.063   3.389 -0.3009 -0.2533 -0.5112
   33CHL1   C18 2395   2.121   3.923   3.356  0.1385 -0.1804  0.3606
   33CHL1  H18A 2396   2.064   3.885   3.443  1.7470 -1.4392  0.9106
   33CHL1  H18B 2397   2.054   3.923   3.267  0.6999  1.8871 -0.1169
   33CHL1  H18C 2398   2.200   3.846   3.348 -0.7961 -1.3171  1.6074
   33CHL1   C12 2399   2.057   4.165   3.406 -0.1059  1.1300  0.1866
   33CHL1  H12A 2400   1.987   4.131   3.485 -1.0583  0.6514 -0.8436
   33CHL1  H12B 2401   2.101   4.263   3.435 -1.8574  1.8350  0.5642
   33CHL1   C11 2402   1.979   4.181   3.278  0.1521  0.2450  0.0703
   33CHL1  H11A 2403   1.928   4.084   3.260 -0.2436  0.1725  1.4807
   33CHL1  H11B 2404   1.896   4.252   3.290 -0.1810 -0.0965 -0.1684
   33CHL1    C9 2405   2.068   4.225   3.159 -0.5411  0.0694  0.0269
   33CHL1    H9 2406   2.112   4.322   3.189 -2.5554  1.3811 -1.0770
   33CHL1   C10 2407   1.991   4.254   3.028 -0.1307  0.3051 -1.0419
   33CHL1   C19 2408   1.890   4.139   3.003  0.4303 -0.2793 -0.5196
   33CHL1  H19A 2409   1.811   4.132   3.081 -0.5510 -0.0362 -1.4589
   33CHL1  H19B 2410   1.835   4.153   2.907 -1.0014 -0.1182  0.2989
   33CHL1  H19C 2411   1.948   4.044   2.996  0.2460 -0.4305 -0.0250
   33CHL1    C1 2412   1.920   4.394   3.044  0.0910  0.1277  0.2277
   33CHL1   H1A 2413   1.862   4.391   3.139  1.9517 -0.0277  1.3927
   33CHL1   H1B 2414   1.995   4.473   3.063  0.1301  0.4182 -1.0183
   33CHL1    C2 2415   1.837   4.429   2.924  0.0571  0.6394  0.0952
   33CHL1   H2A 2416   1.775   4.520   2.944  0.1056  0.9755 -1.1708
   33CHL1   H2B 2417   1.761   4.354   2.895  1.0894 -0.0874 -0.7751
   33CHL1   C20 2418   2.250   3.952   3.632 -0.2232  0.3786 -0.5891
   33CHL1   H20 2419   2.228   3.849   3.597 -0.6520 -0.3789  1.7333
   33CHL1   C21 2420   2.117   4.001   3.703 -0.5471 -0.4764 -0.1703
   33CHL1  H21A 2421   2.029   3.981   3.638 -1.7255 -3.5713  2.1178
   33CHL1  H21B 2422   2.136   4.105   3.736 -1.0147 -0.5479  0.3437
   33CHL1  H21C 2423   2.101   3.948   3.800 -1.7128  2.3632  1.3028
   33CHL1   C22 2424   2.376   3.946   3.729 -0.5505 -0.1065 -0.3703
   33CHL1  H22A 2425   2.472   3.914   3.683  0.6474 -1.2646  2.6649
   33CHL1  H22B 2426   2.382   4.045   3.778  0.1871 -1.1151  1.6685
   33CHL1   C23 2427   2.365   3.836   3.843 -0.7644 -0.1779 -0.4284
   33CHL1  H23A 2428   2.270   3.860   3.897 -0.7286  0.1693 -0.5161
   33CHL1  H23B 2429   2.334   3.736   3.805  1.6075 -1.2910  0.4016
   33CHL1   C24 2430   2.480   3.839   3.941 -0.0892  0.2991  0.6030
   33CHL1  H24A 2431   2.576   3.863   3.891  0.0150  0.3274  0.8168
   33CHL1  H24B 2432   2.456   3.926   4.006  3.0469  1.7449  0.0246
   33CHL1   C25 2433   2.500   3.713   4.028 -0.3036 -0.5268 -0.1144
   33CHL1   H25 2434   2.568   3.644   3.973  0.0490 -1.6909  1.6796
   33CHL1   C26 2435   2.585   3.740   4.156 -0.8020 -0.8663 -0.3276
   33CHL1  H26A 2436   2.537   3.824   4.211 -0.2968 -1.3797  0.9407
   33CHL1  H26B 2437   2.571   3.658   4.230 -2.0783  0.0861  0.5415
   33CHL1  H26C 2438   2.691   3.768   4.136 -0.8377 -0.1906  0.3538
   33CHL1   C27 2439   2.366   3.635   4.067 -0.3585  0.8417 -0.3741
   33CHL1  H27A 2440   2.383   3.543   4.126  1.7967  3.1469  2.9803
   33CHL1  H27B 2441   2.312   3.710   4.130  3.2732  3.0466  0.3747
   33CHL1  H27C 2442   2.297   3.612   3.983 -1.5627  2.3563  0.1417
   34CHL1    C3 2443   3.046   4.609   2.971 -0.0801 -0.3830  0.0941
   34CHL1    H3 2444   2.939   4.590   2.993  0.4034 -1.5711  1.5668
   34CHL1    O3 2445   3.068   4.633   2.833  0.1370  0.0915 -0.4013
   34CHL1   H3' 2446   3.051   4.547   2.793  1.8372 -0.3616 -0.2566
   34CHL1    C4 2447   3.096   4.740   3.042  0.4507  1.1283  0.4388
   34CHL1   H4A 2448   3.183   4.788   2.993  0.0272  2.3916  0.8978
   34CHL1   H4B 2449   3.013   4.808   3.015  0.9047  1.1317 -1.0424
   34CHL1    C5 2450   3.101   4.716   3.193 -0.6892  0.5351 -0.3885
   34CHL1    C6 2451   3.029   4.778   3.281 -0.1718 -0.1824 -0.2946
   34CHL1    H6 2452   2.958   4.855   3.245  0.3966  0.0024 -1.0518
   34CHL1    C7 2453   3.034   4.765   3.432 -0.2489 -0.0228  1.1203
   34CHL1   H7A 2454   3.054   4.865   3.476 -0.9405  0.4271  0.4496
   34CHL1   H7B 2455   2.940   4.731   3.479 -0.3171 -0.5847  0.5813
   34CHL1    C8 2456   3.152   4.676   3.478 -0.6069  0.5421  0.3806
   34CHL1    H8 2457   3.242   4.742   3.476  0.7355 -1.1917  1.4764
   34CHL1   C14 2458   3.127   4.630   3.625  0.3111 -0.2360  0.0630
   34CHL1   H14 2459   3.031   4.576   3.622 -1.2382  2.3416 -0.1404
   34CHL1   C15 2460   3.099   4.737   3.730 -0.0264 -0.6229  0.2602
   34CHL1  H15A 2461   3.178   4.815   3.726 -0.3226 -0.2615  1.0942
   34CHL1  H15B 2462   3.004   4.784   3.698  0.5776  0.6211  0.2433
   34CHL1   C16 2463   3.104   4.662   3.865  0.6519  0.1497  0.7963
   34CHL1  H16A 2464   3.154   4.724   3.943 -1.8512  1.8682  1.1647
   34CHL1  H16B 2465   3.006   4.627   3.904  2.0446 -2.3940  2.3058
   34CHL1   C17 2466   3.172   4.518   3.830  0.4099 -0.1941 -0.4630
   34CHL1   H17 2467   3.086   4.448   3.826 -1.0081  1.3139  1.4295
   34CHL1   C13 2468   3.231   4.542   3.686 -0.0368  0.1087 -0.1187
   34CHL1   C18 2469   3.365   4.619   3.697 -0.7121 -0.2272 -0.5221
   34CHL1  H18A 2470   3.384   4.655   3.594 -2.4181  2.1176 -0.1088
   34CHL1  H18B 2471   3.361   4.702   3.772 -0.3221  0.9706 -1.7925
   34CHL1  H18C 2472   3.445   4.546   3.724 -1.1724 -0.9279 -1.0453
   34CHL1   C12 2473   3.238   4.420   3.597 -0.5983 -1.0212  0.2103
   34CHL1  H12A 2474   3.318   4.351   3.633  1.7899  3.2486  4.2201
   34CHL1  H12B 2475   3.136   4.378   3.589 -0.6691 -0.6209 -1.3177
   34CHL1   C11 2476   3.269   4.458   3.452  0.2134 -0.4220 -0.0509
   34CHL1  H11A 2477   3.371   4.502   3.450 -0.0349  0.2535  1.3984
   34CHL1  H11B 2478   3.266   4.363   3.393  0.6180 -0.0860 -0.6260
   34CHL1    C9 2479   3.173   4.557   3.382 -0.2475 -0.2089 -1.0236
   34CHL1    H9 2480   3.072   4.511   3.392 -0.5973  0.5469 -0.9979
   34CHL1   C10 2481   3.191   4.588   3.237  0.5781 -0.5335  0.2771
   34CHL1   C19 2482   3.347   4.618   3.210  0.1270  0.3759 -0.2727
   34CHL1  H19A 2483   3.382   4.700   3.277  0.0904 -0.0797  0.3114
   34CHL1  H19B 2484   3.400   4.523   3.234 -0.4933  0.0566 -0.1367
   34CHL1  H19C 2485   3.365   4.631   3.101  0.6574  0.4053 -0.1849
   34CHL1    C1 2486   3.138   4.469   3.152 -0.4316 -0.7765  0.1518
   34CHL1   H1A 2487   3.211   4.388   3.174 -0.3236 -0.5508  0.6532
   34CHL1   H1B 2488   3.035   4.439   3.179 -1.1539  0.2388 -1.3402
   34CHL1    C2 2489   3.139   4.497   3.004 -0.5427 -0.0959 -0.2133
   34CHL1   H2A 2490   3.110   4.407   2.946  0.0306 -1.0126  0.8800
   34CHL1   H2B 2491   3.245   4.507   2.973 -0.1339 -0.3002  1.0556
   34CHL1   C20 2492   3.255   4.467   3.948 -0.6735 -0.5841 -0.0091
   34CHL1   H20 2493   3.335   4.542   3.964  0.1672 -1.7776  1.7425
   34CHL1   C21 2494   3.320   4.332   3.923 -0.4236  0.8475 -0.0344
   34CHL1  H21A 2495   3.236   4.259   3.922 -0.1076  0.4825 -1.5300
   34CHL1  H21B 2496   3.389   4.299   4.004 -0.4019  1.6235  0.2675
   34CHL1  H21C 2497   3.378   4.327   3.828  0.5588  4.2810  0.2300
   34CHL1   C22 2498   3.166   4.462   4.078 -0.5471  0.7195 -0.1569
   34CHL1  H22A 2499   3.141   4.567   4.107  0.1236  1.2689 -1.4460
   34CHL1  H22B 2500   3.070   4.408   4.066 -0.3697  0.8162 -2.4887
   34CHL1   C23 2501   3.241   4.418   4.206  0.0938  0.2327  0.0239
   34CHL1  H23A 2502   3.347   4.392   4.190  0.1838 -0.1555  1.2028
   34CHL1  H23B 2503   3.246   4.508   4.271  1.2704  0.7260 -0.7217
   34CHL1   C24 2504   3.164   4.309   4.283 -0.0626  0.2809  0.1625
   34CHL1  H24A 2505   3.063   4.356   4.295  0.5390  2.1964 -1.6116
   34CHL1  H24B 2506   3.142   4.217   4.225 -0.1407  1.0171 -1.0228
   34CHL1   C25 2507   3.219   4.281   4.423  0.5783  0.2320  0.6057
   34CHL1   H25 2508   3.226   4.378   4.477 -0.3691  0.3481  0.5294
   34CHL1   C26 2509   3.120   4.185   4.497  0.4393 -0.4499  0.3979
   34CHL1  H26A 2510   3.129   4.079   4.465 -0.3018 -1.2327  2.6316
   34CHL1  H26B 2511   3.135   4.175   4.606 -0.3223  0.0678  0.5528
   34CHL1  H26C 2512   3.015   4.218   4.482  0.9566  0.4029 -1.6967
   34CHL1   C27 2513   3.354   4.210   4.415 -0.3129 -0.7852  0.4801
   34CHL1  H27A 2514   3.433   4.287   4.397 -1.3204 -0.0340 -0.8935
   34CHL1  H27B 2515   3.377   4.160   4.512 -1.4489 -1.1912  0.5498
   34CHL1  H27C 2516   3.363   4.131   4.338  1.3846  1.9735 -2.3984
   35CHL1    C3 2517   2.548   5.501   2.674 -0.9278 -0.3428 -0.0295
   35CHL1    H3 2518   2.580   5.407   2.725  0.9213  0.4124  0.3006
   35CHL1    O3 2519   2.592   5.519   2.542 -0.6797  0.3123  0.0488
   35CHL1   H3' 2520   2.524   5.478   2.487 -0.7455 -1.0424  1.0946
   35CHL1    C4 2521   2.390   5.527   2.702 -0.3203 -0.5666  0.0093
   35CHL1   H4A 2522   2.381   5.629   2.659  0.5852 -1.2491 -1.9233
   35CHL1   H4B 2523   2.332   5.458   2.638 -0.6009 -1.6390  1.3881
   35CHL1    C5 2524   2.363   5.510   2.850 -0.4102 -0.5874 -0.4805
   35CHL1    C6 2525   2.287   5.416   2.898  0.3453  0.0870  1.0486
   35CHL1    H6 2526   2.222   5.354   2.834 -0.7968 -1.8982  3.8828
   35CHL1    C7 2527   2.259   5.387   3.044 -0.4851  0.2001  0.3330
   35CHL1   H7A 2528   2.156   5.359   3.074 -1.3886  2.7845 -0.0972
   35CHL1   H7B 2529   2.328   5.305   3.074 -3.5984 -2.5750  0.5308
   35CHL1    C8 2530   2.292   5.514   3.134 -0.0506 -0.0299 -0.1566
   35CHL1    H8 2531   2.208   5.585   3.118 -3.0343 -3.3835 -0.6482
   35CHL1   C14 2532   2.290   5.488   3.284 -0.4261  0.6617 -0.3440
   35CHL1   H14 2533   2.385   5.436   3.306 -0.9519 -0.0470  0.2826
   35CHL1   C15 2534   2.180   5.398   3.344 -0.1548 -0.5064  0.0387
   35CHL1  H15A 2535   2.084   5.421   3.293 -0.7697  1.0057  1.7692
   35CHL1  H15B 2536   2.200   5.291   3.320 -0.8568 -0.6787  0.1809
   35CHL1   C16 2537   2.173   5.430   3.497  0.4807  0.2783  0.1373
   35CHL1  H16A 2538   2.074   5.471   3.527  0.4346  0.2783 -0.0129
   35CHL1  H16B 2539   2.204   5.350   3.568  1.2999  1.3065  0.9721
   35CHL1   C17 2540   2.285   5.543   3.508 -0.1592 -0.1313  0.7189
   35CHL1   H17 2541   2.377   5.482   3.520 -1.1398 -1.6359  0.8104
   35CHL1   C13 2542   2.302   5.616   3.368  0.1756 -0.0770  0.2119
   35CHL1   C18 2543   2.180   5.711   3.349 -0.1166 -0.3519 -0.0559
   35CHL1  H18A 2544   2.183   5.749   3.244 -1.2331 -1.5870 -0.5650
   35CHL1  H18B 2545   2.091   5.649   3.370 -1.4358  0.9426 -1.5541
   35CHL1  H18C 2546   2.186   5.793   3.423  0.5279  0.3703 -0.8790
   35CHL1   C12 2547   2.447   5.668   3.334  1.0343  0.6682 -0.7991
   35CHL1  H12A 2548   2.454   5.772   3.374 -0.4903  0.3911  0.2516
   35CHL1  H12B 2549   2.523   5.602   3.381  1.0925  1.6728  0.5893
   35CHL1   C11 2550   2.468   5.692   3.186 -0.0802 -0.5657  0.1590
   35CHL1  H11A 2551   2.419   5.790   3.165  0.1417 -0.3168  0.7713
   35CHL1  H11B 2552   2.576   5.717   3.173  0.0265 -0.6832  0.7882
   35CHL1    C9 2553   2.433   5.569   3.091  0.6556  0.0483  0.3489
   35CHL1    H9 2554   2.510   5.499   3.129  0.4018 -0.2303  0.3568
   35CHL1   C10 2555   2.446   5.599   2.944 -0.2594 -0.3902  0.6716
   35CHL1   C19 2556   2.398   5.743   2.908  0.4869 -0.5446  0.3863
   35CHL1  H19A 2557   2.289   5.755   2.927  0.5047  1.8280 -0.6253
   35CHL1  H19B 2558   2.446   5.822   2.970 -1.2710  1.4155 -0.5866
   35CHL1  H19C 2559   2.403   5.778   2.802  0.2291 -3.4719 -0.6758
   35CHL1    C1 2560   2.597   5.582   2.908  0.2556 -0.6127 -0.5570
   35CHL1   H1A 2561   2.654   5.655   2.969 -0.6359  0.9706 -1.5486
   35CHL1   H1B 2562   2.637   5.487   2.949 -0.0965  0.0083  1.3542
   35CHL1    C2 2563   2.636   5.596   2.763 -0.0712 -0.7993  0.3306
   35CHL1   H2A 2564   2.742   5.566   2.747  0.0588 -0.1060 -0.1539
   35CHL1   H2B 2565   2.619   5.698   2.723 -2.2106 -1.3237 -0.2531
   35CHL1   C20 2566   2.256   5.630   3.630  0.4244 -0.5846 -0.3094
   35CHL1   H20 2567   2.158   5.679   3.609  0.6882 -0.6128 -1.6894
   35CHL1   C21 2568   2.351   5.750   3.637 -0.0741  0.5774  0.5823
   35CHL1  H21A 2569   2.449   5.711   3.674 -1.2321 -1.3293  1.8535
   35CHL1  H21B 2570   2.310   5.812   3.720 -0.3805 -1.0253  1.6872
   35CHL1  H21C 2571   2.366   5.811   3.546  1.2088 -2.1234 -1.1332
   35CHL1   C22 2572   2.262   5.555   3.765  0.2156  0.2903 -0.5104
   35CHL1  H22A 2573   2.264   5.628   3.849 -0.7761  0.0249 -0.2426
   35CHL1  H22B 2574   2.168   5.496   3.773  0.4867 -0.1099 -0.2158
   35CHL1   C23 2575   2.374   5.448   3.782  0.9267 -0.1790 -0.9168
   35CHL1  H23A 2576   2.353   5.366   3.709  2.5341 -2.2991  0.8472
   35CHL1  H23B 2577   2.469   5.496   3.750  0.6461  0.5575 -0.6653
   35CHL1   C24 2578   2.406   5.397   3.925  0.0925 -0.5027 -0.3466
   35CHL1  H24A 2579   2.410   5.479   4.000  0.0153 -0.9290  0.1370
   35CHL1  H24B 2580   2.314   5.345   3.960 -0.1511  0.0932 -0.0845
   35CHL1   C25 2581   2.537   5.314   3.954 -0.0380 -0.3170 -0.5649
   35CHL1   H25 2582   2.549   5.246   3.867  0.2236  0.8246 -1.4278
   35CHL1   C26 2583   2.658   5.402   3.960  0.4693  0.3008  0.2457
   35CHL1  H26A 2584   2.672   5.478   3.880 -0.2030 -0.3041 -0.4621
   35CHL1  H26B 2585   2.658   5.465   4.052 -0.0010 -0.6801  0.9326
   35CHL1  H26C 2586   2.747   5.336   3.973  0.4110 -0.2764 -1.8722
   35CHL1   C27 2587   2.535   5.226   4.084  0.7350 -0.0439  0.6362
   35CHL1  H27A 2588   2.631   5.170   4.092  2.7742  3.0805 -0.0872
   35CHL1  H27B 2589   2.523   5.281   4.180 -0.8016  0.7633  0.0140
   35CHL1  H27C 2590   2.449   5.156   4.076 -0.0157  1.0808 -2.1186
   36CHL1    C3 2591   0.216   0.309   2.571  0.4457  0.1800 -0.6254
   36CHL1    H3 2592   0.188   0.212   2.617  0.3856  0.1554 -0.7138
   36CHL1    O3 2593   0.192   0.319   2.431 -0.3088  0.1139  0.0356
   36CHL1   H3' 2594   0.243   0.245   2.398 -0.5843  0.2406 -0.6903
   36CHL1    C4 2595   0.140   0.427   2.649 -0.1295  0.0006  0.2222
   36CHL1   H4A 2596   0.181   0.521   2.607 -1.9241  1.4064  1.4471
   36CHL1   H4B 2597   0.033   0.422   2.620  0.3704 -1.5578 -1.4841
   36CHL1    C5 2598   0.174   0.415   2.798  1.3956  0.3464  0.2390
   36CHL1    C6 2599   0.079   0.409   2.890  0.4135  0.0771 -0.0474
   36CHL1    H6 2600  -0.023   0.424   2.852  0.7070  0.1468 -0.8323
   36CHL1    C7 2601   0.086   0.416   3.039  0.2140  0.0096  0.3997
   36CHL1   H7A 2602   0.020   0.500   3.070 -0.6076  0.0155 -1.2480
   36CHL1   H7B 2603   0.048   0.319   3.076 -0.8400  0.3652  0.2709
   36CHL1    C8 2604   0.233   0.438   3.084  1.0014  0.7865  0.0726
   36CHL1    H8 2605   0.249   0.547   3.094  0.2398  0.8408  0.8206
   36CHL1   C14 2606   0.254   0.366   3.221  0.7047 -0.6440 -0.3816
   36CHL1   H14 2607   0.243   0.256   3.207  1.8713 -0.7733 -0.3832
   36CHL1   C15 2608   0.146   0.407   3.325  1.0303  0.4882  0.3455
   36CHL1  H15A 2609   0.121   0.515   3.319  1.6558  0.6656  0.8836
   36CHL1  H15B 2610   0.048   0.354   3.317  1.5340 -0.5409  0.8463
   36CHL1   C16 2611   0.217   0.387   3.455  1.0982  0.0358  0.1258
   36CHL1  H16A 2612   0.212   0.474   3.525 -4.0588 -0.0380  0.2565
   36CHL1  H16B 2613   0.159   0.314   3.515 -2.4057  1.4871 -1.2229
   36CHL1   C17 2614   0.360   0.336   3.421  0.0812 -0.5367  0.3830
   36CHL1   H17 2615   0.353   0.226   3.409  0.6455 -0.5387  0.0339
   36CHL1   C13 2616   0.387   0.402   3.286  0.3351 -0.7046 -0.5441
   36CHL1   C18 2617   0.397   0.560   3.303 -0.0141  0.0861  0.0257
   36CHL1  H18A 2618   0.489   0.571   3.365 -0.4296 -0.3062  0.7296
   36CHL1  H18B 2619   0.415   0.610   3.206  2.5617  1.6498  1.2057
   36CHL1  H18C 2620   0.310   0.596   3.362 -0.7464 -2.7897  0.8950
   36CHL1   C12 2621   0.495   0.357   3.198  0.4824  0.0496 -0.2533
   36CHL1  H12A 2622   0.587   0.404   3.238  0.5332  0.4691 -0.8580
   36CHL1  H12B 2623   0.503   0.246   3.203 -3.6703 -0.3471  2.2047
   36CHL1   C11 2624   0.478   0.398   3.053 -0.2058 -0.2456 -0.8833
   36CHL1  H11A 2625   0.499   0.507   3.044 -1.4669 -0.0185 -1.3338
   36CHL1  H11B 2626   0.554   0.343   2.994  1.8327  0.1652  1.1830
   36CHL1    C9 2627   0.337   0.369   2.996 -0.6802 -0.6333 -0.8977
   36CHL1    H9 2628   0.322   0.259   2.999  1.6648 -0.9981  1.7727
   36CHL1   C10 2629   0.323   0.415   2.843 -0.1061 -0.6200  0.0620
   36CHL1   C19 2630   0.382   0.562   2.820  0.8521  0.1879 -0.1707
   36CHL1  H19A 2631   0.344   0.645   2.884 -0.4497  0.5606 -1.3751
   36CHL1  H19B 2632   0.492   0.557   2.824  0.9048  0.5464 -0.9641
   36CHL1  H19C 2633   0.364   0.608   2.720  0.7789 -0.4230 -0.4430
   36CHL1    C1 2634   0.399   0.314   2.747 -0.5857 -0.3800  0.5407
   36CHL1   H1A 2635   0.508   0.332   2.760 -1.0224  1.9676  1.3698
   36CHL1   H1B 2636   0.388   0.208   2.779  0.8445 -1.9135 -3.4142
   36CHL1    C2 2637   0.363   0.319   2.595  0.1708 -0.0247  0.3813
   36CHL1   H2A 2638   0.416   0.242   2.536 -0.0710  0.1968 -0.1331
   36CHL1   H2B 2639   0.396   0.419   2.558  0.1531 -0.3686 -0.5922
   36CHL1   C20 2640   0.454   0.364   3.548 -0.5452 -0.4647  0.3459
   36CHL1   H20 2641   0.435   0.469   3.578 -0.3427 -0.4894  0.5606
   36CHL1   C21 2642   0.606   0.341   3.524  0.4669  0.2802  0.6064
   36CHL1  H21A 2643   0.649   0.381   3.430 -0.1394 -1.9096 -0.6889
   36CHL1  H21B 2644   0.623   0.232   3.508  0.3054  0.3361  0.0425
   36CHL1  H21C 2645   0.658   0.386   3.611  1.1281  1.7081 -0.4930
   36CHL1   C22 2646   0.409   0.267   3.666  0.0702 -0.0382  0.0074
   36CHL1  H22A 2647   0.298   0.255   3.664  0.1311 -0.5229 -0.7964
   36CHL1  H22B 2648   0.456   0.171   3.639  0.5293  0.1265  0.2132
   36CHL1   C23 2649   0.443   0.321   3.797  0.2018  0.3238  0.0897
   36CHL1  H23A 2650   0.552   0.328   3.818  0.4265  0.1865 -0.9740
   36CHL1  H23B 2651   0.412   0.428   3.795  2.4008  1.0265 -1.5417
   36CHL1   C24 2652   0.377   0.233   3.903 -0.1172 -0.8984  0.3463
   36CHL1  H24A 2653   0.273   0.226   3.865 -1.0034  4.9261  0.8679
   36CHL1  H24B 2654   0.398   0.124   3.894 -0.3439 -1.2344  2.9620
   36CHL1   C25 2655   0.385   0.294   4.038  0.2058  0.3766  0.2206
   36CHL1   H25 2656   0.491   0.316   4.066 -0.1733 -0.5301  2.5673
   36CHL1   C26 2657   0.301   0.423   4.042  0.3059 -0.1595 -0.1351
   36CHL1  H26A 2658   0.363   0.510   4.012 -1.2971  0.4512 -1.9188
   36CHL1  H26B 2659   0.218   0.406   3.970  0.3574 -3.7641  0.4571
   36CHL1  H26C 2660   0.265   0.445   4.145  0.2614 -2.1862  0.3415
   36CHL1   C27 2661   0.340   0.194   4.144 -0.2725  0.0954  0.6716
   36CHL1  H27A 2662   0.413   0.111   4.159 -0.0628  0.0591 -0.4529
   36CHL1  H27B 2663   0.320   0.252   4.237  0.3616  2.3481 -0.5312
   36CHL1  H27C 2664   0.245   0.142   4.120  0.3109 -0.5158 -0.3873
   37CHL1    C3 2665   1.491   5.659   2.930  0.3709  0.2973  1.6395
   37CHL1    H3 2666   1.556   5.749   2.937  0.4244  0.4202 -0.1736
   37CHL1    O3 2667   1.452   5.638   2.798  0.0287  0.2153  0.6252
   37CHL1   H3' 2668   1.387   5.567   2.802 -0.3356  0.5295  0.4563
   37CHL1    C4 2669   1.574   5.549   2.990 -0.2469 -0.2106 -0.5022
   37CHL1   H4A 2670   1.521   5.452   2.984 -2.4486  0.8243  0.7535
   37CHL1   H4B 2671   1.665   5.540   2.928  0.5526 -2.1736  0.8543
   37CHL1    C5 2672   1.602   5.573   3.130 -0.7718 -0.4977  0.3228
   37CHL1    C6 2673   1.732   5.573   3.175  0.1137 -0.5290 -0.5965
   37CHL1    H6 2674   1.811   5.537   3.106 -0.5516 -2.4272 -0.4330
   37CHL1    C7 2675   1.771   5.595   3.318 -0.7452 -0.2925  0.2966
   37CHL1   H7A 2676   1.844   5.516   3.347  0.9725  0.6157 -1.3524
   37CHL1   H7B 2677   1.820   5.695   3.324  1.1001 -1.2500  3.8904
   37CHL1    C8 2678   1.652   5.592   3.413  0.0475 -0.9849  0.5168
   37CHL1    H8 2679   1.626   5.485   3.426  0.2627 -1.2872 -1.2825
   37CHL1   C14 2680   1.692   5.655   3.552 -0.0111 -0.1212  0.5806
   37CHL1   H14 2681   1.719   5.758   3.523 -0.5837 -0.5454 -1.6417
   37CHL1   C15 2682   1.819   5.602   3.620  0.6335 -1.2325  0.0583
   37CHL1  H15A 2683   1.827   5.491   3.614  2.0639 -1.0873 -1.2316
   37CHL1  H15B 2684   1.908   5.654   3.578  1.2159 -1.5937  0.8107
   37CHL1   C16 2685   1.802   5.640   3.770  0.5025  0.5734  0.5495
   37CHL1  H16A 2686   1.792   5.547   3.829  0.7949  0.1538 -0.0485
   37CHL1  H16B 2687   1.890   5.696   3.809  1.4606  0.1177 -0.8751
   37CHL1   C17 2688   1.666   5.726   3.770 -0.4374 -0.1450 -0.3145
   37CHL1   H17 2689   1.703   5.829   3.750 -0.2440  0.0417  0.9309
   37CHL1   C13 2690   1.586   5.667   3.653 -0.4180 -0.4210  0.0653
   37CHL1   C18 2691   1.527   5.532   3.697  0.1433  0.1012  0.4343
   37CHL1  H18A 2692   1.488   5.477   3.609 -0.3391  0.3961  0.4609
   37CHL1  H18B 2693   1.608   5.472   3.745  0.8502 -0.7749 -1.7475
   37CHL1  H18C 2694   1.448   5.551   3.772  1.2672  0.1808  1.6440
   37CHL1   C12 2695   1.477   5.753   3.597 -0.5617 -0.0906  0.6523
   37CHL1  H12A 2696   1.396   5.747   3.673 -0.9086  2.2132  0.5376
   37CHL1  H12B 2697   1.516   5.857   3.600 -0.2965 -0.1543 -0.2462
   37CHL1   C11 2698   1.425   5.710   3.461  0.6190  0.4632  0.2436
   37CHL1  H11A 2699   1.365   5.620   3.490  1.3112  0.0702  0.4904
   37CHL1  H11B 2700   1.355   5.789   3.428  1.4026  0.9956 -0.1733
   37CHL1    C9 2701   1.535   5.676   3.359  0.7122  0.9245  0.1743
   37CHL1    H9 2702   1.578   5.775   3.333 -3.2058  3.0938  1.1416
   37CHL1   C10 2703   1.484   5.611   3.226 -0.3933 -0.5920 -0.0286
   37CHL1   C19 2704   1.406   5.487   3.258 -0.1307 -0.3217 -0.3814
   37CHL1  H19A 2705   1.317   5.509   3.319  0.3247 -0.7429  0.4442
   37CHL1  H19B 2706   1.366   5.444   3.163 -0.8877  0.5349 -0.4570
   37CHL1  H19C 2707   1.453   5.407   3.320 -0.0193  1.3236  1.7197
   37CHL1    C1 2708   1.398   5.722   3.148 -0.1337  0.6411  0.3118
   37CHL1   H1A 2709   1.312   5.757   3.210 -0.5598  1.4339 -0.6981
   37CHL1   H1B 2710   1.459   5.815   3.140  0.7170 -0.0670 -3.7110
   37CHL1    C2 2711   1.367   5.686   3.002  0.3684 -0.1862  0.5903
   37CHL1   H2A 2712   1.313   5.772   2.955  0.9686 -1.1294 -2.0230
   37CHL1   H2B 2713   1.302   5.596   2.996  1.6998 -1.2031  1.2025
   37CHL1   C20 2714   1.602   5.737   3.912  0.0862 -0.1140 -0.4584
   37CHL1   H20 2715   1.572   5.638   3.953  1.1349 -0.3791 -0.3065
   37CHL1   C21 2716   1.471   5.820   3.900  0.9744 -0.2118  0.3165
   37CHL1  H21A 2717   1.433   5.859   3.997 -3.6284 -2.8280 -0.1434
   37CHL1  H21B 2718   1.384   5.756   3.874 -0.1269  1.0616  0.8018
   37CHL1  H21C 2719   1.488   5.902   3.828  0.6014 -1.8556 -1.7412
   37CHL1   C22 2720   1.697   5.801   4.018 -0.0605  0.6961  0.2537
   37CHL1  H22A 2721   1.795   5.754   3.999 -0.1755  0.7223 -0.4178
   37CHL1  H22B 2722   1.704   5.911   4.007 -1.9267  0.6592 -2.3572
   37CHL1   C23 2723   1.640   5.775   4.158 -1.1970 -1.0173 -0.4562
   37CHL1  H23A 2724   1.713   5.810   4.234 -0.0151  1.6392 -2.6587
   37CHL1  H23B 2725   1.557   5.848   4.162  0.6633  1.2714 -0.9025
   37CHL1   C24 2726   1.609   5.627   4.192  0.0347 -0.9920 -0.2270
   37CHL1  H24A 2727   1.508   5.594   4.159 -0.5469 -0.4337  0.9385
   37CHL1  H24B 2728   1.694   5.561   4.164  0.9999 -0.8027  2.0924
   37CHL1   C25 2729   1.592   5.604   4.343 -0.9886 -0.0676  0.0292
   37CHL1   H25 2730   1.686   5.634   4.394 -2.2510  0.6255  2.1090
   37CHL1   C26 2731   1.481   5.693   4.405  0.1911 -0.0574  0.3905
   37CHL1  H26A 2732   1.513   5.798   4.390  1.8722 -0.3502  1.6802
   37CHL1  H26B 2733   1.381   5.673   4.360  0.2187  1.3399 -0.3497
   37CHL1  H26C 2734   1.473   5.668   4.513  3.5187 -0.1129  0.7272
   37CHL1   C27 2735   1.553   5.458   4.379  0.4066 -0.3012  0.1953
   37CHL1  H27A 2736   1.547   5.436   4.488 -0.2354 -0.1013  0.2050
   37CHL1  H27B 2737   1.459   5.433   4.326  0.8156 -2.2101  0.3017
   37CHL1  H27C 2738   1.622   5.387   4.328  1.8581  0.1026  1.5054
   38CHL1    C3 2739   3.105   5.911   2.483 -0.0672 -0.3324 -0.7297
   38CHL1    H3 2740   3.194   5.853   2.451  2.4543  2.6504  0.4240
   38CHL1    O3 2741   3.055   5.985   2.374 -0.2221 -0.2195  0.0116
   38CHL1   H3' 2742   3.016   5.919   2.317 -1.8856  0.7199 -0.0001
   38CHL1    C4 2743   2.995   5.817   2.540  0.2730 -0.4001 -0.1937
   38CHL1   H4A 2744   2.909   5.887   2.545  2.3696  2.3433 -0.0763
   38CHL1   H4B 2745   2.982   5.734   2.468  0.5592 -0.6508  0.0386
   38CHL1    C5 2746   3.021   5.762   2.680 -0.0368 -0.4663  0.3466
   38CHL1    C6 2747   3.014   5.629   2.709 -0.3443 -0.0401 -0.5616
   38CHL1    H6 2748   2.991   5.565   2.622  0.9960  0.7305 -1.5344
   38CHL1    C7 2749   3.037   5.574   2.849 -0.1804  0.0689 -0.6443
   38CHL1   H7A 2750   2.953   5.506   2.874 -1.0065  1.7518  1.5343
   38CHL1   H7B 2751   3.132   5.518   2.836 -0.9452 -1.1812 -1.0195
   38CHL1    C8 2752   3.029   5.684   2.951 -0.5243  0.7960  0.1416
   38CHL1    H8 2753   2.931   5.734   2.964 -0.3327  1.7160 -1.6155
   38CHL1   C14 2754   3.084   5.623   3.084 -0.2322  0.5640  0.0069
   38CHL1   H14 2755   3.191   5.600   3.071 -0.1390  0.5176  0.8146
   38CHL1   C15 2756   3.015   5.500   3.149 -0.4305  0.5877 -0.0087
   38CHL1  H15A 2757   2.905   5.518   3.142 -0.6737 -1.1842 -1.9569
   38CHL1  H15B 2758   3.044   5.407   3.096  2.8028  1.6301 -0.2697
   38CHL1   C16 2759   3.064   5.504   3.290  0.2432  0.2476  0.0429
   38CHL1  H16A 2760   2.983   5.477   3.362  1.8562  0.4030  2.0274
   38CHL1  H16B 2761   3.139   5.424   3.309 -0.8852 -1.3082 -1.6523
   38CHL1   C17 2762   3.134   5.639   3.315  0.2205  0.7373 -0.0365
   38CHL1   H17 2763   3.244   5.622   3.319  0.0515 -0.4717 -0.2059
   38CHL1   C13 2764   3.107   5.724   3.198 -0.2087 -0.0523 -0.0250
   38CHL1   C18 2765   2.976   5.792   3.230  0.3255 -0.0237 -0.1524
   38CHL1  H18A 2766   2.889   5.725   3.244  0.5962 -0.4110 -0.2817
   38CHL1  H18B 2767   2.986   5.866   3.313 -1.3513  0.7299 -0.5818
   38CHL1  H18C 2768   2.946   5.852   3.142  3.5474  0.7852 -0.8376
   38CHL1   C12 2769   3.217   5.822   3.147  0.6549 -0.0033 -0.4248
   38CHL1  H12A 2770   3.234   5.908   3.215 -1.6945 -0.8209  1.3250
   38CHL1  H12B 2771   3.312   5.767   3.130  0.5686 -0.4942  0.5892
   38CHL1   C11 2772   3.185   5.892   3.016 -0.3138 -0.1193 -0.2772
   38CHL1  H11A 2773   3.117   5.977   3.037  1.5362  1.3652 -0.0834
   38CHL1  H11B 2774   3.276   5.933   2.966 -0.5540  0.5913 -0.1339
   38CHL1    C9 2775   3.126   5.797   2.907 -0.4052  0.1815 -0.2276
   38CHL1    H9 2776   3.216   5.742   2.872 -1.1447 -0.6411 -0.8840
   38CHL1   C10 2777   3.073   5.870   2.784 -0.2225  0.9383  0.2177
   38CHL1   C19 2778   2.955   5.959   2.818 -0.5224 -0.1476 -0.0424
   38CHL1  H19A 2779   2.876   5.907   2.876 -1.8521  0.9191 -0.8548
   38CHL1  H19B 2780   2.980   6.054   2.869 -1.1943 -0.0339  0.0885
   38CHL1  H19C 2781   2.892   5.980   2.729 -1.0114 -1.2304  0.0343
   38CHL1    C1 2782   3.188   5.950   2.716 -0.7533  0.1167 -0.0138
   38CHL1   H1A 2783   3.235   6.018   2.790 -1.5865 -1.7049  2.3133
   38CHL1   H1B 2784   3.260   5.868   2.695 -0.2497 -0.0581  2.1506
   38CHL1    C2 2785   3.149   6.017   2.583 -0.5088  0.3487  0.3652
   38CHL1   H2A 2786   3.234   6.071   2.537  1.1080 -0.1002  2.6800
   38CHL1   H2B 2787   3.066   6.089   2.604 -0.9316 -0.3665  1.2543
   38CHL1   C20 2788   3.116   5.694   3.460 -0.4615 -0.3862 -0.3300
   38CHL1   H20 2789   3.009   5.722   3.471  0.1585  2.0965 -0.0070
   38CHL1   C21 2790   3.202   5.819   3.477 -0.3111  0.4395 -0.2082
   38CHL1  H21A 2791   3.312   5.807   3.461  0.2404  3.6362  0.5231
   38CHL1  H21B 2792   3.191   5.873   3.573  1.2039 -0.2469  0.3911
   38CHL1  H21C 2793   3.166   5.896   3.406  0.7986  1.5818  0.4129
   38CHL1   C22 2794   3.156   5.587   3.564  0.1246 -0.0051 -0.6108
   38CHL1  H22A 2795   3.096   5.499   3.535 -0.3846  0.9179 -2.5619
   38CHL1  H22B 2796   3.263   5.557   3.558  0.0796  0.0585 -1.9979
   38CHL1   C23 2797   3.119   5.621   3.712  0.1559 -0.4363 -0.7271
   38CHL1  H23A 2798   3.183   5.704   3.750 -1.3346  0.6758 -0.5881
   38CHL1  H23B 2799   3.021   5.670   3.700  1.1334  1.2933 -2.1395
   38CHL1   C24 2800   3.132   5.501   3.803  0.0213  0.3614 -0.5185
   38CHL1  H24A 2801   3.079   5.420   3.749 -0.2663  0.1720  0.0457
   38CHL1  H24B 2802   3.236   5.462   3.813 -0.9850 -2.1301  1.3558
   38CHL1   C25 2803   3.068   5.522   3.938  0.1768  0.1927  0.2590
   38CHL1   H25 2804   2.958   5.527   3.922  0.0881 -0.1532  0.7492
   38CHL1   C26 2805   3.106   5.399   4.028 -0.3643 -0.3341 -0.1309
   38CHL1  H26A 2806   3.215   5.381   4.032 -0.3837 -0.3592  0.2980
   38CHL1  H26B 2807   3.058   5.411   4.127  1.6457 -0.1826  0.8770
   38CHL1  H26C 2808   3.079   5.309   3.969  2.7720 -1.0777 -0.6247
   38CHL1   C27 2809   3.112   5.660   3.997 -0.2546  0.2279 -0.8917
   38CHL1  H27A 2810   3.222   5.673   3.990  0.1317  0.7272  3.2268
   38CHL1  H27B 2811   3.056   5.741   3.947  3.4737  2.3110 -2.0474
   38CHL1  H27C 2812   3.081   5.656   4.104  3.0347 -1.8259  0.1407
   39CHL1    C3 2813   3.736   4.800   2.627 -0.1071  0.2492 -0.8570
   39CHL1    H3 2814   3.760   4.695   2.656  2.0143  0.7592 -0.5615
   39CHL1    O3 2815   3.685   4.799   2.494 -0.2586  0.4658 -0.0578
   39CHL1   H3' 2816   3.623   4.726   2.488  1.2420 -0.8288 -0.8643
   39CHL1    C4 2817   3.622   4.863   2.716 -0.5304  0.3644 -0.4031
   39CHL1   H4A 2818   3.602   4.966   2.678 -1.4715  0.9446  1.5320
   39CHL1   H4B 2819   3.528   4.805   2.706 -0.8779  0.7647  0.4299
   39CHL1    C5 2820   3.669   4.869   2.861  0.6324 -0.1447 -0.0779
   39CHL1    C6 2821   3.595   4.803   2.953 -0.1093 -0.0634  0.1380
   39CHL1    H6 2822   3.500   4.750   2.932  0.6701 -1.5404  0.1660
   39CHL1    C7 2823   3.632   4.801   3.099 -0.2370 -0.7226 -0.0731
   39CHL1   H7A 2824   3.537   4.795   3.157  0.2990  0.2206  0.9452
   39CHL1   H7B 2825   3.694   4.711   3.119 -0.2502 -1.0979 -1.6101
   39CHL1    C8 2826   3.715   4.919   3.138 -0.1849 -0.6972  0.2403
   39CHL1    H8 2827   3.646   5.007   3.139 -0.0050 -0.4894 -1.6884
   39CHL1   C14 2828   3.763   4.895   3.284  0.6559 -0.0770  0.0866
   39CHL1   H14 2829   3.839   4.813   3.285  0.8876  0.1054 -0.8995
   39CHL1   C15 2830   3.659   4.855   3.391 -0.4648 -0.3962  0.7533
   39CHL1  H15A 2831   3.572   4.920   3.369 -0.8557 -1.0311  0.3986
   39CHL1  H15B 2832   3.651   4.744   3.382  1.0218 -0.5073  0.6271
   39CHL1   C16 2833   3.746   4.882   3.518  0.3021 -0.2604 -0.5235
   39CHL1  H16A 2834   3.688   4.929   3.600  0.4942 -1.9380  0.6393
   39CHL1  H16B 2835   3.780   4.784   3.558  0.3626 -0.4128 -0.9454
   39CHL1   C17 2836   3.876   4.957   3.483  0.2026 -0.0377  0.1409
   39CHL1   H17 2837   3.964   4.890   3.468  1.4011  1.7148 -1.0388
   39CHL1   C13 2838   3.846   5.013   3.337  0.4205  0.2981  0.3171
   39CHL1   C18 2839   3.748   5.142   3.353 -0.7395  0.0890 -0.1257
   39CHL1  H18A 2840   3.723   5.170   3.249 -0.2670  0.1107 -0.2344
   39CHL1  H18B 2841   3.664   5.113   3.420  0.0606 -2.9897 -0.3202
   39CHL1  H18C 2842   3.822   5.216   3.391 -1.3046 -0.1455  1.5157
   39CHL1   C12 2843   3.959   5.045   3.238 -0.2867  0.7584 -0.4410
   39CHL1  H12A 2844   4.005   5.141   3.271 -0.3929 -0.0696  2.3363
   39CHL1  H12B 2845   4.042   4.973   3.252 -0.6626  0.8421  3.2762
   39CHL1   C11 2846   3.918   5.059   3.096 -0.3903  0.4270 -0.2530
   39CHL1  H11A 2847   3.859   5.153   3.090  0.2752  0.9155  0.4468
   39CHL1  H11B 2848   4.009   5.068   3.032 -1.5830 -1.4625 -2.3355
   39CHL1    C9 2849   3.834   4.939   3.047  0.0802  0.2163  0.1342
   39CHL1    H9 2850   3.905   4.853   3.050  1.5668  1.4141  0.5311
   39CHL1   C10 2851   3.796   4.952   2.899  0.9501  0.8096  0.3908
   39CHL1   C19 2852   3.748   5.097   2.870 -0.1697 -0.8320 -0.2779
   39CHL1  H19A 2853   3.681   5.134   2.951  0.1748 -0.3118 -0.2280
   39CHL1  H19B 2854   3.839   5.157   2.849  0.9723 -2.3041  0.3064
   39CHL1  H19C 2855   3.687   5.109   2.778  0.7108  0.0873 -0.7545
   39CHL1    C1 2856   3.905   4.901   2.791 -0.7449  0.1944  0.0240
   39CHL1   H1A 2857   3.986   4.975   2.807 -0.2505 -0.2818 -0.2308
   39CHL1   H1B 2858   3.949   4.803   2.820 -0.8818 -0.0539 -0.5976
   39CHL1    C2 2859   3.865   4.888   2.642 -0.4656 -0.5622  0.8361
   39CHL1   H2A 2860   3.939   4.847   2.571 -0.7560 -1.8802  1.2727
   39CHL1   H2B 2861   3.848   4.990   2.599 -1.7689 -0.5706  1.2683
   39CHL1   C20 2862   3.931   5.060   3.586 -0.2347  0.1573 -0.0619
   39CHL1   H20 2863   3.858   5.140   3.608  0.8013  1.4273 -1.0993
   39CHL1   C21 2864   4.060   5.123   3.532 -0.0785  0.0671 -1.1865
   39CHL1  H21A 2865   4.131   5.045   3.498 -0.4032 -0.5040 -0.5886
   39CHL1  H21B 2866   4.113   5.169   3.618  0.5315 -0.5972 -1.1957
   39CHL1  H21C 2867   4.039   5.201   3.456  1.3358  1.0726 -0.5746
   39CHL1   C22 2868   3.959   4.991   3.722  0.0641  0.2613  0.3744
   39CHL1  H22A 2869   3.981   5.070   3.798 -0.4429 -1.8745  2.8999
   39CHL1  H22B 2870   3.870   4.935   3.757  2.3296 -3.9986 -0.0317
   39CHL1   C23 2871   4.079   4.889   3.724  0.2759 -0.3996  0.0017
   39CHL1  H23A 2872   4.070   4.823   3.635 -0.1865 -0.4097  0.0486
   39CHL1  H23B 2873   4.166   4.957   3.715 -0.0667 -0.0588 -0.7400
   39CHL1   C24 2874   4.077   4.801   3.854  0.4610 -0.3588  0.7960
   39CHL1  H24A 2875   3.970   4.775   3.867 -1.1226  3.4154 -2.5432
   39CHL1  H24B 2876   4.124   4.702   3.832 -3.2416 -2.4560  1.3589
   39CHL1   C25 2877   4.125   4.866   3.981 -0.3644 -0.0336 -0.2891
   39CHL1   H25 2878   4.045   4.933   4.020  0.0877  0.4208 -0.1283
   39CHL1   C26 2879   4.151   4.769   4.100 -0.5055 -0.8046 -0.3282
   39CHL1  H26A 2880   4.211   4.684   4.062 -1.7055 -1.0503 -1.7624
   39CHL1  H26B 2881   4.196   4.827   4.184 -1.5482 -1.8973  1.0228
   39CHL1  H26C 2882   4.056   4.727   4.139 -1.9307  0.6137 -2.1014
   39CHL1   C27 2883   4.248   4.963   3.957 -0.3079 -0.0244 -0.2734
   39CHL1  H27A 2884   4.344   4.926   3.917  1.7002  1.1304  3.0440
   39CHL1  H27B 2885   4.211   5.043   3.890  1.7589  0.5924 -0.7534
   39CHL1  H27C 2886   4.276   5.017   4.050  1.5402 -0.2435 -0.6704
   40CHL1    C3 2887   1.695   0.742   2.507  0.1268  0.3978 -0.0501
   40CHL1    H3 2888   1.627   0.828   2.490 -1.1926 -0.4123  0.9029
   40CHL1    O3 2889   1.718   0.680   2.381  1.3692 -0.0503  0.0270
   40CHL1   H3' 2890   1.761   0.595   2.393  1.1483  0.1826  3.5490
   40CHL1    C4 2891   1.828   0.796   2.561 -0.2458 -0.2343  0.5892
   40CHL1   H4A 2892   1.904   0.720   2.533 -1.0596 -0.5900 -0.7828
   40CHL1   H4B 2893   1.867   0.873   2.491 -0.4075 -2.0502 -1.6245
   40CHL1    C5 2894   1.823   0.835   2.706  0.6394  0.5070 -0.8277
   40CHL1    C6 2895   1.862   0.956   2.755  0.3658 -0.8385  0.1190
   40CHL1    H6 2896   1.903   1.026   2.681 -1.3379 -0.2523 -0.3178
   40CHL1    C7 2897   1.877   0.982   2.900  0.6117  0.0841 -0.3429
   40CHL1   H7A 2898   1.972   1.037   2.913 -0.1590  0.8994  2.6678
   40CHL1   H7B 2899   1.792   1.036   2.947  0.2247 -0.8969  0.1237
   40CHL1    C8 2900   1.886   0.850   2.985 -0.6021 -0.1305  0.2703
   40CHL1    H8 2901   1.986   0.807   2.964 -0.4116 -1.3185  3.1495
   40CHL1   C14 2902   1.883   0.892   3.132 -1.0366  0.4582  0.0395
   40CHL1   H14 2903   1.782   0.938   3.140 -1.1144  0.4519 -0.8513
   40CHL1   C15 2904   1.981   0.992   3.191  0.3193 -0.0431 -0.3961
   40CHL1  H15A 2905   2.082   0.975   3.148  1.4876 -0.8721  2.4351
   40CHL1  H15B 2906   1.950   1.097   3.174  2.4908  0.7853  0.4167
   40CHL1   C16 2907   1.987   0.951   3.343  0.1925  0.4917 -0.8898
   40CHL1  H16A 2908   2.093   0.924   3.362  0.2889  1.2114 -0.3376
   40CHL1  H16B 2909   1.965   1.034   3.414  0.6362  1.1743 -1.5345
   40CHL1   C17 2910   1.887   0.839   3.369 -0.3926  0.0529  0.5155
   40CHL1   H17 2911   1.790   0.889   3.388  0.5799  1.8115  1.1324
   40CHL1   C13 2912   1.872   0.769   3.228 -0.1662 -0.3774 -0.0832
   40CHL1   C18 2913   1.990   0.669   3.196  0.2391  0.3509  0.4476
   40CHL1  H18A 2914   1.989   0.620   3.096  1.0396 -0.5906  0.8846
   40CHL1  H18B 2915   2.086   0.720   3.219  0.1662  1.0838 -0.7695
   40CHL1  H18C 2916   1.983   0.582   3.265  2.5747  1.4112  2.1335
   40CHL1   C12 2917   1.737   0.696   3.205  0.7985  0.3901  0.5894
   40CHL1  H12A 2918   1.754   0.596   3.252  1.1631  0.0374 -0.2691
   40CHL1  H12B 2919   1.653   0.757   3.243  0.4033 -0.1494  0.5946
   40CHL1   C11 2920   1.726   0.651   3.058  0.2526 -0.3900  0.2988
   40CHL1  H11A 2921   1.791   0.562   3.057 -0.2884 -0.8214 -1.9681
   40CHL1  H11B 2922   1.621   0.622   3.036  1.0510 -2.4752 -0.9966
   40CHL1    C9 2923   1.765   0.761   2.955 -0.3673 -0.7845  0.7388
   40CHL1    H9 2924   1.675   0.827   2.951 -0.2289 -0.6244  0.0565
   40CHL1   C10 2925   1.777   0.718   2.801  0.0664 -0.5391 -0.9294
   40CHL1   C19 2926   1.866   0.601   2.782  0.7800  0.6770  0.1176
   40CHL1  H19A 2927   1.948   0.616   2.856  0.0203 -3.9370  2.2543
   40CHL1  H19B 2928   1.823   0.503   2.811 -0.1668  0.9982 -0.1934
   40CHL1  H19C 2929   1.919   0.593   2.685  0.5015  0.8147 -0.0441
   40CHL1    C1 2930   1.634   0.693   2.748 -1.3449 -0.1286  0.4280
   40CHL1   H1A 2931   1.582   0.617   2.809 -0.3562 -0.6167  0.6934
   40CHL1   H1B 2932   1.569   0.783   2.757 -2.2983 -0.7468 -0.1475
   40CHL1    C2 2933   1.628   0.643   2.599  0.1228  1.2592 -0.1944
   40CHL1   H2A 2934   1.527   0.626   2.557 -0.6955  0.7207  1.8662
   40CHL1   H2B 2935   1.674   0.542   2.596 -1.2411  0.4698  2.4948
   40CHL1   C20 2936   1.911   0.759   3.493  0.1353 -0.0192 -0.3955
   40CHL1   H20 2937   1.967   0.667   3.465 -2.4063 -1.4855 -0.9739
   40CHL1   C21 2938   1.774   0.706   3.542 -0.3720  0.4534 -0.0558
   40CHL1  H21A 2939   1.778   0.628   3.622 -1.9393  2.7673  2.4763
   40CHL1  H21B 2940   1.732   0.660   3.450 -0.8166 -0.4647  0.5890
   40CHL1  H21C 2941   1.714   0.791   3.581  1.0309  1.6509 -0.4271
   40CHL1   C22 2942   1.985   0.844   3.600 -0.4409 -0.1646  0.1994
   40CHL1  H22A 2943   2.091   0.865   3.572 -0.3025 -0.6914  0.3252
   40CHL1  H22B 2944   1.931   0.939   3.620  0.3901  0.3508  0.0673
   40CHL1   C23 2945   1.987   0.768   3.731  0.1261  0.6647 -0.5324
   40CHL1  H23A 2946   1.884   0.767   3.773 -0.5689  0.3438 -2.1916
   40CHL1  H23B 2947   2.019   0.663   3.716  1.9451  1.2994 -1.3733
   40CHL1   C24 2948   2.077   0.843   3.840  0.0036 -0.3658  0.5891
   40CHL1  H24A 2949   2.178   0.872   3.804  0.9947 -2.3623  1.5755
   40CHL1  H24B 2950   2.019   0.933   3.869  0.5640 -0.0819  0.8284
   40CHL1   C25 2951   2.097   0.767   3.976  0.0460 -0.3231  0.3862
   40CHL1   H25 2952   1.995   0.730   4.000 -0.1967  0.7011  1.0208
   40CHL1   C26 2953   2.191   0.655   3.954  0.5076  0.1732  0.3907
   40CHL1  H26A 2954   2.297   0.680   3.931  0.8634  0.2248  1.9346
   40CHL1  H26B 2955   2.212   0.609   4.053  1.8653 -0.3081 -0.0981
   40CHL1  H26C 2956   2.144   0.580   3.888  0.0666 -1.0646  2.0428
   40CHL1   C27 2957   2.152   0.871   4.078 -0.3592  0.4697  0.6975
   40CHL1  H27A 2958   2.079   0.956   4.074 -0.3244  0.4652 -0.6764
   40CHL1  H27B 2959   2.155   0.837   4.183 -2.6790 -0.3227  0.5660
   40CHL1  H27C 2960   2.251   0.906   4.042  0.1465 -0.9543  0.6540
   41CHL1    C3 2961   0.645   2.476   2.621 -0.5658  0.1887 -0.1909
   41CHL1    H3 2962   0.716   2.543   2.675 -1.3419  0.7521  0.1499
   41CHL1    O3 2963   0.692   2.453   2.488 -0.0524  0.2744  0.5858
   41CHL1   H3' 2964   0.747   2.375   2.492 -0.0138  0.1028 -1.9221
   41CHL1    C4 2965   0.641   2.345   2.696  0.6133 -0.5969 -0.5911
   41CHL1   H4A 2966   0.560   2.280   2.655 -1.3298 -0.0869  2.1675
   41CHL1   H4B 2967   0.731   2.284   2.672  0.4854 -0.1703 -2.2544
   41CHL1    C5 2968   0.600   2.367   2.843  0.5821  0.4472  0.2715
   41CHL1    C6 2969   0.678   2.328   2.942 -0.2375  1.0745  0.4392
   41CHL1    H6 2970   0.769   2.274   2.914  0.0519  1.4568  0.6396
   41CHL1    C7 2971   0.649   2.330   3.092 -0.2558  0.3508 -0.1739
   41CHL1   H7A 2972   0.671   2.228   3.129 -0.2898  0.4045 -0.0026
   41CHL1   H7B 2973   0.721   2.402   3.138  0.5763  1.6392 -3.2459
   41CHL1    C8 2974   0.503   2.366   3.114 -0.1315  0.2247  0.7007
   41CHL1    H8 2975   0.435   2.284   3.084 -0.1780  0.4619  0.1370
   41CHL1   C14 2976   0.486   2.404   3.262  0.5710 -0.7132 -0.1651
   41CHL1   H14 2977   0.558   2.488   3.271 -0.5430  0.0702  2.0169
   41CHL1   C15 2978   0.530   2.300   3.364 -0.5896  0.5841 -0.3502
   41CHL1  H15A 2979   0.485   2.202   3.336  0.3393  0.0183  0.1035
   41CHL1  H15B 2980   0.640   2.291   3.370 -0.6251 -1.5301 -1.6212
   41CHL1   C16 2981   0.458   2.350   3.494  0.3353 -0.2354 -0.2446
   41CHL1  H16A 2982   0.387   2.282   3.545 -0.1530 -0.1991 -0.8649
   41CHL1  H16B 2983   0.526   2.373   3.579 -2.7056 -1.2128  2.6849
   41CHL1   C17 2984   0.368   2.475   3.457  0.8860  0.1782 -0.7802
   41CHL1   H17 2985   0.446   2.552   3.472  1.3014 -0.7045  2.2388
   41CHL1   C13 2986   0.348   2.465   3.308  0.5732 -0.4169  0.3573
   41CHL1   C18 2987   0.228   2.364   3.278 -0.0165  0.0250  0.4452
   41CHL1  H18A 2988   0.232   2.286   3.356 -0.8842  0.3349  0.8103
   41CHL1  H18B 2989   0.134   2.420   3.296  0.6298  0.6459  2.1164
   41CHL1  H18C 2990   0.223   2.327   3.173 -1.0154  0.9621  0.1442
   41CHL1   C12 2991   0.340   2.593   3.219  1.0034 -0.1947 -0.3846
   41CHL1  H12A 2992   0.243   2.644   3.237  1.0216  0.4823 -2.0471
   41CHL1  H12B 2993   0.425   2.665   3.224 -0.5633  1.8972 -1.9358
   41CHL1   C11 2994   0.336   2.559   3.067 -0.6536 -0.3175  0.3362
   41CHL1  H11A 2995   0.245   2.495   3.056  0.6096 -2.0507 -0.5625
   41CHL1  H11B 2996   0.313   2.644   3.000  0.9106 -1.1397 -1.3460
   41CHL1    C9 2997   0.466   2.486   3.018  0.7002  0.2297 -0.2167
   41CHL1    H9 2998   0.546   2.563   3.026  0.2008  0.6329  1.0775
   41CHL1   C10 2999   0.472   2.444   2.871 -0.3504 -0.4405  0.3266
   41CHL1   C19 3000   0.349   2.367   2.837  0.4084 -0.3957  0.3376
   41CHL1  H19A 3001   0.330   2.273   2.894  2.3115 -1.1970 -0.2731
   41CHL1  H19B 3002   0.262   2.434   2.850  1.5860  1.8758 -2.4016
   41CHL1  H19C 3003   0.349   2.335   2.731 -3.4392 -0.7610  0.3189
   41CHL1    C1 3004   0.468   2.571   2.774 -0.0169 -0.2010  0.1349
   41CHL1   H1A 3005   0.372   2.624   2.794 -0.4342 -0.4802 -1.0726
   41CHL1   H1B 3006   0.542   2.647   2.808 -1.3682  2.0346 -1.6079
   41CHL1    C2 3007   0.504   2.542   2.624  0.0645 -1.0995  0.1189
   41CHL1   H2A 3008   0.509   2.636   2.566 -3.8716  0.5136  2.0028
   41CHL1   H2B 3009   0.435   2.475   2.570  0.2093 -0.3680 -1.0046
   41CHL1   C20 3010   0.249   2.505   3.549  0.2198  0.3169 -0.1226
   41CHL1   H20 3011   0.180   2.419   3.540  0.7541 -0.2323  0.8260
   41CHL1   C21 3012   0.172   2.640   3.515 -0.2514  0.5218  0.1037
   41CHL1  H21A 3013   0.239   2.728   3.507  0.5118 -0.0527  0.0456
   41CHL1  H21B 3014   0.104   2.658   3.600 -1.0726 -3.1514  0.4163
   41CHL1  H21C 3015   0.114   2.627   3.421 -0.0061 -0.1703  0.0405
   41CHL1   C22 3016   0.287   2.515   3.704  0.2124 -0.1132 -0.1942
   41CHL1  H22A 3017   0.199   2.524   3.771  0.7427 -2.6030  0.9657
   41CHL1  H22B 3018   0.338   2.422   3.737  1.2196  0.0908 -1.1079
   41CHL1   C23 3019   0.369   2.646   3.739  0.1788  0.3506 -0.2972
   41CHL1  H23A 3020   0.457   2.635   3.672 -0.4396 -1.1228 -0.9134
   41CHL1  H23B 3021   0.322   2.741   3.708  1.9242  1.1549 -0.6098
   41CHL1   C24 3022   0.419   2.650   3.878  0.3336  0.6528  0.7794
   41CHL1  H24A 3023   0.498   2.573   3.895 -0.3312 -0.4184 -0.8463
   41CHL1  H24B 3024   0.475   2.743   3.903  0.1742  0.9564  0.0191
   41CHL1   C25 3025   0.301   2.637   3.985  0.2260  0.3587 -0.6231
   41CHL1   H25 3026   0.255   2.537   3.971  1.4628 -0.4322  0.6858
   41CHL1   C26 3027   0.363   2.636   4.123 -0.6280  0.3592 -0.9526
   41CHL1  H26A 3028   0.451   2.569   4.117  0.1916  1.4392 -1.1628
   41CHL1  H26B 3029   0.392   2.738   4.156  1.4555 -1.3530  3.3392
   41CHL1  H26C 3030   0.287   2.592   4.191  1.1483 -0.4331  0.6103
   41CHL1   C27 3031   0.190   2.743   3.993 -0.7121  0.1990 -1.4328
   41CHL1  H27A 3032   0.124   2.714   3.908  1.0188 -2.2414 -2.0460
   41CHL1  H27B 3033   0.128   2.739   4.085  3.0512 -0.4130  1.3565
   41CHL1  H27C 3034   0.226   2.847   3.972  0.0245  0.2547 -0.0177
   42CHL1    C3 3035   0.548   3.059   2.696  0.2078  0.2150  0.4545
   42CHL1    H3 3036   0.438   3.049   2.684  0.2295  0.4138  0.0735
   42CHL1    O3 3037   0.607   3.052   2.566 -0.1026 -0.3438  0.1553
   42CHL1   H3' 3038   0.698   3.026   2.582  0.6495  2.5731  1.2736
   42CHL1    C4 3039   0.567   3.192   2.765  0.5272 -0.3151 -0.1362
   42CHL1   H4A 3040   0.674   3.208   2.792  0.5270 -1.3069  0.5298
   42CHL1   H4B 3041   0.525   3.266   2.694  0.9177  1.4538  1.3791
   42CHL1    C5 3042   0.497   3.190   2.894  0.0093  0.7842 -0.4580
   42CHL1    C6 3043   0.398   3.281   2.917  0.6086 -0.0031 -0.1360
   42CHL1    H6 3044   0.380   3.360   2.843 -0.2509  0.0145  0.0873
   42CHL1    C7 3045   0.314   3.279   3.042 -0.2598 -0.2662 -0.5397
   42CHL1   H7A 3046   0.296   3.387   3.059 -1.6144 -0.1311 -2.4927
   42CHL1   H7B 3047   0.219   3.221   3.037 -1.9721  2.3594 -0.3024
   42CHL1    C8 3048   0.391   3.207   3.159 -0.0147  0.2497 -1.8504
   42CHL1    H8 3049   0.480   3.266   3.187  0.0232 -0.1495 -1.1208
   42CHL1   C14 3050   0.301   3.200   3.285  0.2904  0.2929 -0.4173
   42CHL1   H14 3051   0.216   3.131   3.266  0.3059  0.5049 -1.3444
   42CHL1   C15 3052   0.238   3.326   3.338  0.4559  0.4089 -0.3556
   42CHL1  H15A 3053   0.316   3.405   3.339 -1.6839  2.6402  1.0540
   42CHL1  H15B 3054   0.157   3.365   3.272 -0.5224 -0.8764  0.0508
   42CHL1   C16 3055   0.196   3.300   3.486  0.2933 -0.0966 -0.2030
   42CHL1  H16A 3056   0.230   3.382   3.553 -1.2658  0.8559 -0.5251
   42CHL1  H16B 3057   0.088   3.275   3.497  0.2409 -0.0106 -0.5123
   42CHL1   C17 3058   0.270   3.169   3.526 -0.2026 -0.3326 -0.7677
   42CHL1   H17 3059   0.203   3.084   3.502  1.2775 -1.1317 -2.2278
   42CHL1   C13 3060   0.379   3.145   3.412  0.0912  0.1139 -1.0072
   42CHL1   C18 3061   0.504   3.220   3.450 -0.2222  0.4599  0.0058
   42CHL1  H18A 3062   0.479   3.328   3.447  1.3786  1.0451  3.3389
   42CHL1  H18B 3063   0.542   3.195   3.551 -1.6487 -0.8082  0.2590
   42CHL1  H18C 3064   0.582   3.208   3.372  0.1852  0.3903  0.4191
   42CHL1   C12 3065   0.401   2.996   3.375  0.2295 -0.3524  0.1215
   42CHL1  H12A 3066   0.458   2.951   3.459  1.9071 -1.1381 -1.3701
   42CHL1  H12B 3067   0.302   2.946   3.365 -0.8576  1.3273  1.8692
   42CHL1   C11 3068   0.485   2.990   3.244 -0.8063 -0.0187 -0.5835
   42CHL1  H11A 3069   0.587   3.012   3.281 -0.2791 -2.2470 -0.5883
   42CHL1  H11B 3070   0.480   2.882   3.219 -0.5663 -0.5407  1.4297
   42CHL1    C9 3071   0.436   3.069   3.115 -0.2316 -0.2988 -0.0532
   42CHL1    H9 3072   0.343   3.020   3.080 -0.3775  1.0400 -1.6555
   42CHL1   C10 3073   0.532   3.080   2.992  0.8385 -0.4736 -0.6090
   42CHL1   C19 3074   0.676   3.099   3.048 -0.2245 -0.4692  0.5954
   42CHL1  H19A 3075   0.737   3.116   2.956  0.2136  2.4272  1.3165
   42CHL1  H19B 3076   0.700   3.182   3.117  2.2362  1.7357 -2.5785
   42CHL1  H19C 3077   0.729   3.006   3.079 -1.8124 -2.1757 -1.5162
   42CHL1    C1 3078   0.520   2.944   2.915 -0.7551  0.4514 -0.3002
   42CHL1   H1A 3079   0.563   2.870   2.986 -0.1125 -1.3566 -2.4773
   42CHL1   H1B 3080   0.415   2.913   2.896 -0.1139 -0.1170 -3.5870
   42CHL1    C2 3081   0.592   2.935   2.774 -0.0539  0.1250 -0.6621
   42CHL1   H2A 3082   0.572   2.842   2.715  0.2469 -1.5892  1.7821
   42CHL1   H2B 3083   0.701   2.938   2.793 -0.2601 -1.4428  1.0172
   42CHL1   C20 3084   0.301   3.151   3.673 -0.2929 -0.5287 -0.5368
   42CHL1   H20 3085   0.375   3.230   3.700 -0.9161 -0.4188  0.9458
   42CHL1   C21 3086   0.358   3.006   3.697 -0.1078  0.1272 -0.0732
   42CHL1  H21A 3087   0.378   2.974   3.801 -1.4793  0.2441  0.2415
   42CHL1  H21B 3088   0.456   2.983   3.649  0.7405  0.0812  1.6301
   42CHL1  H21C 3089   0.276   2.944   3.655 -1.8900  1.7257  0.8970
   42CHL1   C22 3090   0.180   3.163   3.768  0.2048  0.6685 -0.5571
   42CHL1  H22A 3091   0.136   3.264   3.753 -0.7088  0.0828 -1.9671
   42CHL1  H22B 3092   0.107   3.080   3.759  0.5163  0.3626 -0.2964
   42CHL1   C23 3093   0.206   3.167   3.926  0.0319 -0.2542  0.3595
   42CHL1  H23A 3094   0.245   3.068   3.959  0.5071 -0.0017  0.5774
   42CHL1  H23B 3095   0.285   3.243   3.942  0.5515 -0.6188 -0.4451
   42CHL1   C24 3096   0.079   3.191   4.005 -0.7877  0.2122 -0.2166
   42CHL1  H24A 3097   0.025   3.282   3.969  0.1845  2.0260  2.5608
   42CHL1  H24B 3098   0.015   3.100   3.998  1.4908 -1.4626 -0.3549
   42CHL1   C25 3099   0.108   3.223   4.150 -0.3462 -0.4409  0.3068
   42CHL1   H25 3100   0.183   3.304   4.160  1.1197 -1.7894  0.7701
   42CHL1   C26 3101  -0.017   3.267   4.225 -1.2235 -0.7937 -0.6212
   42CHL1  H26A 3102  -0.079   3.182   4.258 -0.6865 -0.5474  1.1730
   42CHL1  H26B 3103   0.019   3.318   4.318 -0.1837 -1.6183 -0.5512
   42CHL1  H26C 3104  -0.075   3.342   4.168  2.5056  0.2309 -3.4833
   42CHL1   C27 3105   0.178   3.110   4.228  0.1939  0.1001  0.0036
   42CHL1  H27A 3106   0.114   3.019   4.220 -2.6833  2.0801 -1.0140
   42CHL1  H27B 3107   0.276   3.088   4.180 -0.5475  0.1501 -1.5900
   42CHL1  H27C 3108   0.188   3.137   4.335  0.8462  1.0194 -0.2766
   43CHL1    C3 3109   6.114   0.291   2.238 -0.4687  0.3250 -0.0731
   43CHL1    H3 3110   6.012   0.326   2.265 -0.5159 -1.2829  2.1102
   43CHL1    O3 3111   6.144   0.285   2.096 -0.1399 -0.0849 -0.6435
   43CHL1   H3' 3112   6.229   0.242   2.081 -0.5969 -1.8206  1.3079
   43CHL1    C4 3113   6.221   0.373   2.316 -0.3474  0.8211  0.1720
   43CHL1   H4A 3114   6.323   0.335   2.295  0.4473  2.4525  0.9088
   43CHL1   H4B 3115   6.218   0.478   2.281 -1.0849  0.8242  0.2408
   43CHL1    C5 3116   6.209   0.367   2.467 -0.1584  0.1794  0.2416
   43CHL1    C6 3117   6.196   0.482   2.537  0.1830 -0.5650  0.0398
   43CHL1    H6 3118   6.192   0.580   2.486  0.7473 -0.2844  0.5259
   43CHL1    C7 3119   6.176   0.490   2.687  0.0318  0.3342 -0.2697
   43CHL1   H7A 3120   6.234   0.571   2.738 -2.6862  1.3432  1.4379
   43CHL1   H7B 3121   6.069   0.516   2.700  0.0784  0.4829 -0.1863
   43CHL1    C8 3122   6.203   0.357   2.763 -0.7076  0.0041  0.3949
   43CHL1    H8 3123   6.314   0.355   2.769 -0.3810 -2.8217 -3.1593
   43CHL1   C14 3124   6.141   0.366   2.898  0.0714  0.3345  0.3473
   43CHL1   H14 3125   6.032   0.386   2.895 -0.2405 -0.9831  1.6607
   43CHL1   C15 3126   6.195   0.482   2.987 -0.0065 -0.4284 -0.0339
   43CHL1  H15A 3127   6.305   0.488   2.971  0.3513 -0.1972  2.2401
   43CHL1  H15B 3128   6.136   0.573   2.960  1.5538  0.3682 -0.9492
   43CHL1   C16 3129   6.163   0.430   3.128  1.0188 -0.3599 -0.2690
   43CHL1  H16A 3130   6.263   0.420   3.177  0.0235 -0.4709  1.8379
   43CHL1  H16B 3131   6.111   0.511   3.182  0.0586  0.0011 -1.6766
   43CHL1   C17 3132   6.102   0.288   3.122  0.0253 -0.7176  0.4376
   43CHL1   H17 3133   5.992   0.306   3.115  0.3856  1.5993 -0.2113
   43CHL1   C13 3134   6.155   0.236   2.981 -0.4288  0.3748 -0.7157
   43CHL1   C18 3135   6.309   0.195   2.998  0.1078 -0.5994 -0.2530
   43CHL1  H18A 3136   6.351   0.284   3.049  0.4996 -1.0186  0.1621
   43CHL1  H18B 3137   6.323   0.100   3.054  1.6245 -1.1995 -1.5897
   43CHL1  H18C 3138   6.365   0.181   2.903 -0.7881 -1.5176 -0.6649
   43CHL1   C12 3139   6.083   0.122   2.914 -0.2224  0.6207  0.0046
   43CHL1  H12A 3140   6.097   0.028   2.971 -1.4538  0.7531  0.5667
   43CHL1  H12B 3141   5.975   0.144   2.896  0.4554  1.1277 -4.5033
   43CHL1   C11 3142   6.136   0.102   2.769  0.1109  0.0014 -0.2602
   43CHL1  H11A 3143   6.233   0.047   2.765 -1.1141 -2.3206 -0.0146
   43CHL1  H11B 3144   6.065   0.040   2.711 -0.7099  1.3292 -0.6992
   43CHL1    C9 3145   6.144   0.239   2.683  0.4337 -0.4937  0.1304
   43CHL1    H9 3146   6.034   0.254   2.678  0.6627  1.4795  0.1136
   43CHL1   C10 3147   6.192   0.231   2.529  0.3824  0.3319  0.1124
   43CHL1   C19 3148   6.339   0.175   2.534 -0.1657 -0.2439  0.2826
   43CHL1  H19A 3149   6.416   0.237   2.584 -0.1487  0.5262 -0.6606
   43CHL1  H19B 3150   6.344   0.078   2.587  3.3477 -0.9499 -1.0486
   43CHL1  H19C 3151   6.373   0.165   2.429  1.5422  3.7768  0.2431
   43CHL1    C1 3152   6.099   0.138   2.445  0.8457  0.3855 -0.3524
   43CHL1   H1A 3153   6.113   0.030   2.467 -2.1928 -0.0482 -0.1686
   43CHL1   H1B 3154   5.994   0.165   2.467  1.5177  0.1880  3.8784
   43CHL1    C2 3155   6.122   0.148   2.294 -0.0220  0.4940  0.0285
   43CHL1   H2A 3156   6.036   0.102   2.239 -0.4322  1.0999  0.1523
   43CHL1   H2B 3157   6.214   0.099   2.256 -0.3238 -0.8688  0.9561
   43CHL1   C20 3158   6.128   0.199   3.239 -0.4679  0.5766 -0.1093
   43CHL1   H20 3159   6.229   0.154   3.250 -0.7032  0.2650  0.8995
   43CHL1   C21 3160   6.032   0.084   3.223  0.2474  0.1519 -0.1619
   43CHL1  H21A 3161   6.040   0.030   3.319 -1.5475  0.4252  0.1875
   43CHL1  H21B 3162   6.075   0.002   3.161  0.7308 -0.5362  1.0495
   43CHL1  H21C 3163   5.924   0.109   3.212  0.5954  1.9472  0.3683
   43CHL1   C22 3164   6.101   0.274   3.373  0.0727 -0.5314  0.2765
   43CHL1  H22A 3165   6.157   0.370   3.377 -2.0563  0.8611 -0.9764
   43CHL1  H22B 3166   5.992   0.292   3.389  0.3999  0.8999  1.1185
   43CHL1   C23 3167   6.149   0.196   3.503 -0.7421  0.0090 -0.5629
   43CHL1  H23A 3168   6.101   0.095   3.500  0.2480 -0.4577 -1.4873
   43CHL1  H23B 3169   6.260   0.188   3.502 -0.6222  1.1975  0.8535
   43CHL1   C24 3170   6.099   0.260   3.637  0.7270  0.2374 -0.7517
   43CHL1  H24A 3171   5.989   0.272   3.627  1.0092  2.1705 -2.0496
   43CHL1  H24B 3172   6.125   0.185   3.714  2.0183  1.6883  0.2829
   43CHL1   C25 3173   6.152   0.398   3.663  1.1334  0.6509 -0.1213
   43CHL1   H25 3174   6.105   0.463   3.586  0.2245  1.3821  1.0207
   43CHL1   C26 3175   6.108   0.447   3.799  0.0019 -0.8918 -0.4185
   43CHL1  H26A 3176   6.001   0.476   3.794 -0.1571 -1.5072 -0.7389
   43CHL1  H26B 3177   6.134   0.373   3.878  2.0996 -1.6286 -1.7237
   43CHL1  H26C 3178   6.172   0.537   3.810  0.3227 -1.0174 -1.2193
   43CHL1   C27 3179   6.310   0.404   3.659  0.0522 -0.5963 -0.5140
   43CHL1  H27A 3180   6.353   0.327   3.727 -0.4395 -0.0801  0.4097
   43CHL1  H27B 3181   6.351   0.380   3.558  0.6462 -1.4749 -0.0781
   43CHL1  H27C 3182   6.344   0.508   3.679  0.4208 -0.8098  0.0204
   44CHL1    C3 3183   6.826   6.272   2.601  0.3977 -0.2009 -0.4853
   44CHL1    H3 3184   6.926   6.275   2.648  0.5855  1.1938 -0.9179
   44CHL1    O3 3185   6.847   6.320   2.471 -0.2305 -0.3221  0.7247
   44CHL1   H3' 3186   6.786   6.393   2.463  1.2356  1.3244  3.1544
   44CHL1    C4 3187   6.763   6.134   2.601  0.3485 -0.2567  0.2100
   44CHL1   H4A 3188   6.678   6.138   2.529 -0.9039  0.9497  1.6855
   44CHL1   H4B 3189   6.835   6.061   2.559  0.2856 -0.4737  0.4784
   44CHL1    C5 3190   6.714   6.091   2.739 -0.1966 -0.0491  0.1159
   44CHL1    C6 3191   6.747   5.975   2.798  0.2770  0.6966 -0.5129
   44CHL1    H6 3192   6.806   5.896   2.750 -1.7631 -0.6550 -0.9515
   44CHL1    C7 3193   6.713   5.942   2.940  0.2211 -0.5853  0.0729
   44CHL1   H7A 3194   6.693   5.835   2.958  1.3633 -0.7361  0.5088
   44CHL1   H7B 3195   6.803   5.966   3.002  0.1948  0.3404 -0.2249
   44CHL1    C8 3196   6.602   6.028   3.008 -0.0060  0.0213  0.4971
   44CHL1    H8 3197   6.505   5.988   2.971  1.5658 -2.4359 -1.2970
   44CHL1   C14 3198   6.599   6.020   3.154 -0.1959 -0.3873 -0.1410
   44CHL1   H14 3199   6.691   6.076   3.182 -0.0984 -0.8161  0.4187
   44CHL1   C15 3200   6.609   5.880   3.218  0.3057  0.5640  0.0562
   44CHL1  H15A 3201   6.531   5.818   3.168  0.5253  1.8671 -1.9740
   44CHL1  H15B 3202   6.709   5.833   3.224  0.5795  1.2959  2.6115
   44CHL1   C16 3203   6.562   5.903   3.362  0.5345 -0.6812  1.2452
   44CHL1  H16A 3204   6.473   5.841   3.385  0.0927 -0.8411 -0.6857
   44CHL1  H16B 3205   6.633   5.872   3.441 -0.2377 -0.9307  1.8503
   44CHL1   C17 3206   6.520   6.057   3.374 -0.1374 -0.2865  0.6616
   44CHL1   H17 3207   6.607   6.121   3.398  1.1860 -1.6033 -0.4506
   44CHL1   C13 3208   6.486   6.096   3.225  0.1359  0.6013 -0.0727
   44CHL1   C18 3209   6.352   6.022   3.190  0.0899 -0.2643 -0.1644
   44CHL1  H18A 3210   6.342   5.919   3.230 -2.5966 -0.1906 -0.5118
   44CHL1  H18B 3211   6.272   6.076   3.243 -1.6297 -0.4420 -2.4482
   44CHL1  H18C 3212   6.330   6.028   3.081  2.8629  0.4846 -0.7714
   44CHL1   C12 3213   6.498   6.246   3.192 -0.3970  0.2097 -0.0767
   44CHL1  H12A 3214   6.408   6.298   3.231 -1.7688 -0.0836 -2.6583
   44CHL1  H12B 3215   6.593   6.284   3.235 -0.8400  0.0658  1.0748
   44CHL1   C11 3216   6.501   6.258   3.034  0.0282  0.3028 -0.3858
   44CHL1  H11A 3217   6.400   6.236   2.995 -0.3947 -0.8127  1.2462
   44CHL1  H11B 3218   6.522   6.366   3.016 -0.2022  0.2741 -0.8142
   44CHL1    C9 3219   6.610   6.176   2.968 -0.0969 -0.0390  0.2695
   44CHL1    H9 3220   6.709   6.208   3.007  0.4202 -1.2608  0.0042
   44CHL1   C10 3221   6.627   6.202   2.813 -0.8536 -0.6150  0.1853
   44CHL1   C19 3222   6.486   6.212   2.748 -0.1585 -0.2678  0.0320
   44CHL1  H19A 3223   6.427   6.123   2.780 -1.2533  0.2462 -0.4887
   44CHL1  H19B 3224   6.436   6.302   2.789 -0.0798  0.2106 -0.9053
   44CHL1  H19C 3225   6.483   6.210   2.637 -1.5086 -1.2836  0.0565
   44CHL1    C1 3226   6.702   6.338   2.807  0.6782  0.4335 -0.0006
   44CHL1   H1A 3227   6.638   6.414   2.857  1.2313 -0.3409  2.0041
   44CHL1   H1B 3228   6.799   6.336   2.862  0.4427  0.2086  0.4132
   44CHL1    C2 3229   6.738   6.379   2.665  0.2707  0.3458  0.0871
   44CHL1   H2A 3230   6.782   6.480   2.661  1.5667 -0.1940  0.1924
   44CHL1   H2B 3231   6.643   6.387   2.608  0.1028  0.9083  0.4392
   44CHL1   C20 3232   6.417   6.063   3.483  0.1339 -0.2285 -0.0407
   44CHL1   H20 3233   6.341   5.987   3.456  0.1208  0.1226 -1.0155
   44CHL1   C21 3234   6.356   6.202   3.487  0.1234  0.0042 -0.6082
   44CHL1  H21A 3235   6.425   6.289   3.492 -1.5479  1.4642 -1.9562
   44CHL1  H21B 3236   6.290   6.209   3.576  1.6731 -1.7066  0.7690
   44CHL1  H21C 3237   6.293   6.229   3.400 -0.1714  0.7555 -0.1679
   44CHL1   C22 3238   6.469   6.023   3.623  0.4757 -0.2327  0.2140
   44CHL1  H22A 3239   6.541   5.938   3.617  0.8482  0.1178 -0.3095
   44CHL1  H22B 3240   6.516   6.111   3.672  0.6134  0.3454 -0.9361
   44CHL1   C23 3241   6.352   5.980   3.719 -0.1430  0.6542 -0.5132
   44CHL1  H23A 3242   6.281   6.062   3.745 -0.5379 -0.1453  1.0065
   44CHL1  H23B 3243   6.309   5.890   3.671  1.6482 -1.1509  1.0735
   44CHL1   C24 3244   6.424   5.926   3.844 -0.0723  0.2534 -0.1014
   44CHL1  H24A 3245   6.519   5.872   3.825  0.0257  0.8554 -1.5302
   44CHL1  H24B 3246   6.450   6.016   3.903  2.4272  1.1665 -2.3471
   44CHL1   C25 3247   6.330   5.830   3.923  0.1508 -0.1768 -0.0818
   44CHL1   H25 3248   6.226   5.859   3.899 -0.3995 -1.4751  0.6291
   44CHL1   C26 3249   6.362   5.691   3.887 -0.4699  0.3644  0.5659
   44CHL1  H26A 3250   6.339   5.670   3.780  1.6900  1.2749 -0.1207
   44CHL1  H26B 3251   6.470   5.672   3.902 -0.5029 -0.1608  0.1832
   44CHL1  H26C 3252   6.298   5.622   3.947 -2.5703  1.7605  0.0530
   44CHL1   C27 3253   6.351   5.854   4.076 -0.4893  0.0036  0.0257
   44CHL1  H27A 3254   6.453   5.828   4.113  0.7158 -1.5426 -3.8308
   44CHL1  H27B 3255   6.344   5.964   4.092  0.4131  0.0823 -0.0256
   44CHL1  H27C 3256   6.274   5.799   4.134 -0.3051  0.2128  0.4745
   45CHL1    C3 3257   2.513   4.560   2.859  0.3125 -0.4288 -0.5352
   45CHL1    H3 3258   2.460   4.462   2.856 -0.0662 -0.2057 -1.2324
   45CHL1    O3 3259   2.504   4.607   2.724 -0.2599 -0.3483  0.1100
   45CHL1   H3' 3260   2.579   4.570   2.678 -0.4332 -1.0685  0.3933
   45CHL1    C4 3261   2.437   4.646   2.958 -0.0067 -0.8345 -0.2370
   45CHL1   H4A 3262   2.468   4.752   2.949 -3.0153  0.2575  0.8325
   45CHL1   H4B 3263   2.329   4.645   2.932  0.1100 -1.0956 -0.7130
   45CHL1    C5 3264   2.443   4.601   3.099  0.3333  0.2955  0.2783
   45CHL1    C6 3265   2.327   4.567   3.163 -0.0502  1.5053  0.4379
   45CHL1    H6 3266   2.229   4.583   3.115  0.0317  0.0696 -0.2620
   45CHL1    C7 3267   2.324   4.528   3.305  0.4062  0.3361 -0.2110
   45CHL1   H7A 3268   2.254   4.593   3.361  2.3942  0.6943  2.0036
   45CHL1   H7B 3269   2.289   4.423   3.313  2.4575 -0.2331  2.5667
   45CHL1    C8 3270   2.461   4.546   3.386 -0.0546  0.2455  0.3559
   45CHL1    H8 3271   2.477   4.654   3.406  0.8672 -0.2469  2.5965
   45CHL1   C14 3272   2.463   4.457   3.510 -0.5276 -0.2058  0.1057
   45CHL1   H14 3273   2.469   4.353   3.472 -0.6500 -0.7922  1.6287
   45CHL1   C15 3274   2.352   4.458   3.616 -0.0710  0.2958  0.6059
   45CHL1  H15A 3275   2.319   4.562   3.637 -1.5057  0.1111 -0.6459
   45CHL1  H15B 3276   2.268   4.404   3.568 -1.3457  0.3158  2.7075
   45CHL1   C16 3277   2.410   4.387   3.735 -0.2317 -0.7257  0.1646
   45CHL1  H16A 3278   2.378   4.435   3.830  0.9481 -1.8890  1.1810
   45CHL1  H16B 3279   2.374   4.283   3.751  0.8906 -0.9077  1.6779
   45CHL1   C17 3280   2.565   4.383   3.721  0.0846 -0.0888  1.0305
   45CHL1   H17 3281   2.587   4.284   3.676  0.1886  0.5216 -0.2959
   45CHL1   C13 3282   2.592   4.477   3.594  0.7950  1.5684  0.2435
   45CHL1   C18 3283   2.611   4.621   3.656 -0.5818 -0.1719  0.4288
   45CHL1  H18A 3284   2.540   4.644   3.738  0.6198  0.2145  1.3947
   45CHL1  H18B 3285   2.709   4.629   3.709 -0.6151  1.3895  0.2816
   45CHL1  H18C 3286   2.603   4.687   3.568 -0.0919 -2.1984 -1.2112
   45CHL1   C12 3287   2.704   4.433   3.507 -0.1009 -0.1274  0.5864
   45CHL1  H12A 3288   2.801   4.435   3.560  0.1329  0.2366  0.1462
   45CHL1  H12B 3289   2.696   4.324   3.483 -2.5452  0.1472 -0.0886
   45CHL1   C11 3290   2.712   4.515   3.382 -0.8518  0.2484  0.3147
   45CHL1  H11A 3291   2.737   4.620   3.410  0.3424 -0.1910  0.9781
   45CHL1  H11B 3292   2.785   4.474   3.309 -1.1878  0.6429 -0.2549
   45CHL1    C9 3293   2.582   4.500   3.302  0.0343 -0.7559 -0.6791
   45CHL1    H9 3294   2.562   4.393   3.281 -0.9890 -1.0184  1.4007
   45CHL1   C10 3295   2.582   4.575   3.157 -0.2624  0.1134 -0.1571
   45CHL1   C19 3296   2.644   4.716   3.177  0.2556 -0.6854 -0.1416
   45CHL1  H19A 3297   2.589   4.772   3.255 -2.3673 -1.2317 -1.4944
   45CHL1  H19B 3298   2.747   4.715   3.220  0.9100  2.1888 -1.4055
   45CHL1  H19C 3299   2.650   4.761   3.076  0.3010  2.3101  1.0965
   45CHL1    C1 3300   2.667   4.492   3.050 -0.5397 -0.9535 -0.2429
   45CHL1   H1A 3301   2.773   4.495   3.080 -1.0269  0.0068  1.5186
   45CHL1   H1B 3302   2.629   4.388   3.062 -1.8439 -0.3494  1.2981
   45CHL1    C2 3303   2.657   4.542   2.903  0.5683  0.4721  0.2316
   45CHL1   H2A 3304   2.717   4.467   2.847  1.3687 -0.4077  2.1660
   45CHL1   H2B 3305   2.690   4.648   2.894 -1.8349  1.1563 -1.8119
   45CHL1   C20 3306   2.642   4.400   3.848 -0.0229 -0.3620 -0.1901
   45CHL1   H20 3307   2.627   4.503   3.887 -0.4497 -0.6265  0.3534
   45CHL1   C21 3308   2.793   4.375   3.823 -0.0168 -0.0904  0.1011
   45CHL1  H21A 3309   2.800   4.295   3.746  0.7480  1.5234 -1.5921
   45CHL1  H21B 3310   2.858   4.349   3.909  0.6491 -0.8515 -0.6137
   45CHL1  H21C 3311   2.845   4.467   3.788  1.4704  0.0955  2.5769
   45CHL1   C22 3312   2.590   4.294   3.954 -0.0718  0.4051  0.5926
   45CHL1  H22A 3313   2.480   4.304   3.966  0.0867  0.6447  1.9596
   45CHL1  H22B 3314   2.600   4.192   3.911 -0.4269  1.4049 -2.1136
   45CHL1   C23 3315   2.660   4.296   4.091  0.0518  0.0552  0.3718
   45CHL1  H23A 3316   2.770   4.283   4.089  0.0642 -0.9647  3.4333
   45CHL1  H23B 3317   2.640   4.396   4.137 -0.9924 -0.7333  1.6979
   45CHL1   C24 3318   2.598   4.188   4.173 -0.3305  0.3862 -0.2242
   45CHL1  H24A 3319   2.494   4.224   4.182 -0.0101  1.0667  0.9353
   45CHL1  H24B 3320   2.598   4.088   4.124 -2.3207  0.8637 -1.3167
   45CHL1   C25 3321   2.661   4.176   4.315  0.1321 -0.2803  0.3494
   45CHL1   H25 3322   2.675   4.281   4.351  1.4735 -0.1070 -0.6053
   45CHL1   C26 3323   2.580   4.113   4.419  0.3562  0.4088  0.0859
   45CHL1  H26A 3324   2.541   4.012   4.394  1.5100  0.7026 -3.3976
   45CHL1  H26B 3325   2.618   4.121   4.523 -2.6317 -0.5523  1.3436
   45CHL1  H26C 3326   2.491   4.179   4.425  1.3361  1.8444 -0.4475
   45CHL1   C27 3327   2.796   4.102   4.307 -0.9493 -0.5485  0.1890
   45CHL1  H27A 3328   2.776   3.999   4.271 -1.2042 -1.1829  2.0249
   45CHL1  H27B 3329   2.866   4.169   4.251  0.1765  0.1834  2.3464
   45CHL1  H27C 3330   2.828   4.095   4.413 -1.6777  1.8221  0.6401
   46CHL1    C3 3331   6.337   2.320   2.131  0.5070 -0.1622  0.4113
   46CHL1    H3 3332   6.343   2.234   2.200  1.3539 -2.8023 -2.6938
   46CHL1    O3 3333   6.340   2.273   1.999 -0.6379  0.5215 -0.5108
   46CHL1   H3' 3334   6.430   2.285   1.967 -1.2435  1.9433 -1.8708
   46CHL1    C4 3335   6.212   2.403   2.161  0.9527 -0.1377  0.0022
   46CHL1   H4A 3336   6.206   2.487   2.089 -0.4527  2.1688  2.6016
   46CHL1   H4B 3337   6.122   2.339   2.149 -0.0070  0.8398  1.6213
   46CHL1    C5 3338   6.218   2.466   2.294  0.6147 -0.9104 -0.8392
   46CHL1    C6 3339   6.115   2.455   2.379 -0.9308  0.1542 -0.3707
   46CHL1    H6 3340   6.027   2.402   2.341 -1.9330  1.4041  0.1562
   46CHL1    C7 3341   6.096   2.531   2.505  0.3352 -0.2259 -0.6431
   46CHL1   H7A 3342   6.013   2.600   2.481  2.2370  2.2708 -0.3566
   46CHL1   H7B 3343   6.063   2.475   2.595 -0.7167  1.7688  0.2658
   46CHL1    C8 3344   6.216   2.627   2.535  0.0813  0.4487 -0.3513
   46CHL1    H8 3345   6.191   2.724   2.487  0.3764  1.1375  0.8431
   46CHL1   C14 3346   6.229   2.648   2.680  0.2095  1.3177 -0.4227
   46CHL1   H14 3347   6.260   2.550   2.723 -2.3862  0.9032  0.6931
   46CHL1   C15 3348   6.109   2.680   2.763  0.4258  0.0086  0.5215
   46CHL1  H15A 3349   6.044   2.743   2.698  2.3008 -1.7842 -3.4128
   46CHL1  H15B 3350   6.051   2.587   2.775  0.2827 -0.1690 -1.2688
   46CHL1   C16 3351   6.170   2.738   2.892 -0.6875  0.5929  0.0961
   46CHL1  H16A 3352   6.144   2.845   2.906 -0.2707  0.5673  1.1467
   46CHL1  H16B 3353   6.132   2.685   2.982  2.7202 -0.2612  1.1987
   46CHL1   C17 3354   6.321   2.750   2.868  0.0354  0.7082 -0.8349
   46CHL1   H17 3355   6.368   2.662   2.916 -1.4927 -0.6472 -1.6883
   46CHL1   C13 3356   6.340   2.746   2.718 -0.0806  0.0219 -0.4712
   46CHL1   C18 3357   6.309   2.889   2.664  0.2244  0.1219  0.0785
   46CHL1  H18A 3358   6.212   2.923   2.706  0.4545 -1.7765  2.3099
   46CHL1  H18B 3359   6.387   2.962   2.695  0.5518 -0.4527  0.6223
   46CHL1  H18C 3360   6.300   2.883   2.554 -1.5726 -1.1669  0.2503
   46CHL1   C12 3361   6.475   2.682   2.673  0.2887 -0.0953  0.5695
   46CHL1  H12A 3362   6.567   2.735   2.705  0.4707  0.2435 -0.4992
   46CHL1  H12B 3363   6.483   2.584   2.726  1.0875 -0.6094 -0.4711
   46CHL1   C11 3364   6.476   2.663   2.516  0.1528  0.3628  0.0027
   46CHL1  H11A 3365   6.478   2.766   2.476  1.2541  0.8449  1.2117
   46CHL1  H11B 3366   6.568   2.606   2.491  1.3206  1.4468  1.6117
   46CHL1    C9 3367   6.349   2.579   2.474  0.0886 -0.1869 -0.1928
   46CHL1    H9 3368   6.369   2.480   2.520 -0.1048 -0.1595 -0.0475
   46CHL1   C10 3369   6.339   2.554   2.329  0.0544  0.7065  0.3157
   46CHL1   C19 3370   6.324   2.680   2.246  0.5804 -0.2798 -0.4836
   46CHL1  H19A 3371   6.220   2.719   2.254  1.1575  1.8172 -2.3063
   46CHL1  H19B 3372   6.396   2.762   2.265  1.4297 -0.9143 -0.8893
   46CHL1  H19C 3373   6.326   2.664   2.136  2.2661  0.0012 -0.5086
   46CHL1    C1 3374   6.479   2.492   2.281 -0.1305  0.3530 -0.0601
   46CHL1   H1A 3375   6.558   2.568   2.266  1.7583 -1.6052 -0.5922
   46CHL1   H1B 3376   6.512   2.426   2.364  0.6929  1.3023  0.3791
   46CHL1    C2 3377   6.464   2.405   2.144 -0.2939  0.2542 -0.1894
   46CHL1   H2A 3378   6.552   2.341   2.123 -0.0744  0.7026 -0.6685
   46CHL1   H2B 3379   6.462   2.474   2.057 -0.2450 -2.0707 -2.1553
   46CHL1   C20 3380   6.386   2.865   2.947 -0.1332 -0.1607 -0.1125
   46CHL1   H20 3381   6.356   2.964   2.907  0.8447 -0.0693 -0.6618
   46CHL1   C21 3382   6.537   2.857   2.934 -0.4729 -0.0354 -0.7030
   46CHL1  H21A 3383   6.585   2.939   2.991  1.7500 -1.6535 -0.0997
   46CHL1  H21B 3384   6.576   2.866   2.830  0.9887 -0.3018 -0.2007
   46CHL1  H21C 3385   6.575   2.761   2.976 -0.6263 -0.7462 -2.1354
   46CHL1   C22 3386   6.343   2.867   3.097 -0.1364  0.1392 -0.2085
   46CHL1  H22A 3387   6.236   2.844   3.112  0.3438 -1.6083  0.8758
   46CHL1  H22B 3388   6.400   2.787   3.148  1.2557  0.7566 -0.7369
   46CHL1   C23 3389   6.367   3.000   3.150  0.2778 -0.1362 -0.4978
   46CHL1  H23A 3390   6.467   3.030   3.113 -0.2145  0.1717 -1.6429
   46CHL1  H23B 3391   6.304   3.083   3.109  0.0735 -0.8647 -1.7216
   46CHL1   C24 3392   6.347   3.006   3.306  0.0245 -0.2092 -0.3919
   46CHL1  H24A 3393   6.239   2.990   3.327 -0.1547 -1.1514 -1.8566
   46CHL1  H24B 3394   6.391   2.911   3.343 -0.9072 -0.3399  0.4185
   46CHL1   C25 3395   6.404   3.136   3.371 -0.8400  0.8156  0.5795
   46CHL1   H25 3396   6.338   3.218   3.335 -0.1110 -0.1713 -3.4840
   46CHL1   C26 3397   6.380   3.135   3.523 -0.2384  0.3650 -0.4991
   46CHL1  H26A 3398   6.393   3.238   3.563 -0.1336  1.1584 -2.4571
   46CHL1  H26B 3399   6.277   3.100   3.543  0.2875  0.0375  1.9920
   46CHL1  H26C 3400   6.449   3.068   3.578 -0.6376 -0.3643 -0.8594
   46CHL1   C27 3401   6.553   3.156   3.341 -0.6905  0.2062  0.3822
   46CHL1  H27A 3402   6.612   3.074   3.388  1.3542  0.4876 -1.5418
   46CHL1  H27B 3403   6.564   3.153   3.230 -3.0805  3.0056 -0.0495
   46CHL1  H27C 3404   6.588   3.252   3.384  1.0473 -1.0158  1.8499
   47CHL1    C3 3405   3.603   0.516   2.500  0.4427 -0.7346 -0.5774
   47CHL1    H3 3406   3.495   0.497   2.481  0.4429 -0.5765 -0.7410
   47CHL1    O3 3407   3.677   0.532   2.376  0.6703 -0.3026  0.1326
   47CHL1   H3' 3408   3.765   0.557   2.403  0.8173 -2.5406  2.1052
   47CHL1    C4 3409   3.614   0.656   2.577  0.1556 -0.1801  0.0517
   47CHL1   H4A 3410   3.718   0.696   2.569 -1.0714  2.8797 -2.5531
   47CHL1   H4B 3411   3.553   0.726   2.517  1.2354 -1.3802 -2.6070
   47CHL1    C5 3412   3.569   0.656   2.728 -0.2389  0.4781 -0.1162
   47CHL1    C6 3413   3.482   0.743   2.771  0.0236 -0.1571  0.1067
   47CHL1    H6 3414   3.451   0.827   2.708 -2.1691 -0.8694  0.1548
   47CHL1    C7 3415   3.434   0.740   2.915 -1.3167 -0.6880 -0.9127
   47CHL1   H7A 3416   3.441   0.841   2.961 -0.1559 -1.5037  0.7577
   47CHL1   H7B 3417   3.325   0.718   2.926 -1.0678 -1.0740  1.2061
   47CHL1    C8 3418   3.525   0.669   3.007 -0.2760  0.7438 -0.7821
   47CHL1    H8 3419   3.625   0.718   3.018  0.4056 -1.0016  1.7150
   47CHL1   C14 3420   3.471   0.655   3.146  0.0193  0.4416 -0.2185
   47CHL1   H14 3421   3.372   0.606   3.134  0.3786 -0.1314 -0.9775
   47CHL1   C15 3422   3.438   0.785   3.219  0.1922  0.2392  0.3383
   47CHL1  H15A 3423   3.530   0.847   3.226 -0.7955  1.8205 -0.2168
   47CHL1  H15B 3424   3.368   0.854   3.168 -1.6764 -0.7792  1.4235
   47CHL1   C16 3425   3.409   0.735   3.360  0.9889  0.2787  0.6763
   47CHL1  H16A 3426   3.464   0.801   3.430 -1.2930  1.2154  1.6925
   47CHL1  H16B 3427   3.300   0.753   3.367  0.9397  0.0026  0.6318
   47CHL1   C17 3428   3.457   0.581   3.374 -0.3483 -0.2698 -0.4308
   47CHL1   H17 3429   3.363   0.523   3.361  0.6352 -2.3679  1.2670
   47CHL1   C13 3430   3.544   0.561   3.252  0.3035  0.3102  0.2415
   47CHL1   C18 3431   3.687   0.619   3.271  0.5361 -0.0467 -0.2548
   47CHL1  H18A 3432   3.736   0.633   3.172  1.1180 -0.5496 -0.0487
   47CHL1  H18B 3433   3.679   0.713   3.330 -3.3658  0.6206 -1.5951
   47CHL1  H18C 3434   3.754   0.550   3.327  0.5945  2.0240  2.4562
   47CHL1   C12 3435   3.547   0.417   3.184  0.5851 -0.1604 -0.1688
   47CHL1  H12A 3436   3.607   0.342   3.240  0.3849 -0.0227  0.2330
   47CHL1  H12B 3437   3.444   0.382   3.166  0.6518 -0.7298  0.5089
   47CHL1   C11 3438   3.608   0.414   3.043  0.0866 -0.0685 -0.8618
   47CHL1  H11A 3439   3.717   0.420   3.060 -0.5882  0.3039  6.1304
   47CHL1  H11B 3440   3.588   0.313   3.003  2.1340 -0.1567 -1.7894
   47CHL1    C9 3441   3.543   0.525   2.948 -0.0181 -0.5559  0.6784
   47CHL1    H9 3442   3.440   0.489   2.932 -0.3225  0.5583  0.0069
   47CHL1   C10 3443   3.615   0.535   2.814  0.0044  0.0419  0.4200
   47CHL1   C19 3444   3.763   0.557   2.845 -0.5251 -0.7576 -0.5955
   47CHL1  H19A 3445   3.815   0.585   2.751 -1.5050 -0.3161 -1.0140
   47CHL1  H19B 3446   3.773   0.638   2.920 -1.5378 -1.0376 -0.1438
   47CHL1  H19C 3447   3.820   0.466   2.876 -0.1871 -1.2674 -2.5555
   47CHL1    C1 3448   3.602   0.403   2.733 -0.6618 -0.0468 -0.6902
   47CHL1   H1A 3449   3.647   0.316   2.785 -1.0397  0.1388 -0.0466
   47CHL1   H1B 3450   3.491   0.391   2.737 -0.9441  1.9978 -1.2062
   47CHL1    C2 3451   3.666   0.404   2.588 -0.3521 -0.6233 -0.5194
   47CHL1   H2A 3452   3.651   0.308   2.534 -0.9949 -1.2533  0.7368
   47CHL1   H2B 3453   3.774   0.429   2.591 -0.3073 -0.7532  3.1156
   47CHL1   C20 3454   3.525   0.547   3.513 -0.1746  0.1128  0.2661
   47CHL1   H20 3455   3.622   0.600   3.521  0.5402 -1.3936  2.5795
   47CHL1   C21 3456   3.568   0.401   3.507  0.2513  0.2050  0.0196
   47CHL1  H21A 3457   3.650   0.391   3.433  0.5289 -0.6876  0.4428
   47CHL1  H21B 3458   3.492   0.320   3.499  0.8908 -0.6369  1.9341
   47CHL1  H21C 3459   3.619   0.365   3.599  0.3500 -2.2934 -0.9494
   47CHL1   C22 3460   3.443   0.573   3.646 -0.7359  0.3200 -0.3699
   47CHL1  H22A 3461   3.413   0.680   3.650 -0.6599  0.3067  1.0735
   47CHL1  H22B 3462   3.355   0.507   3.633 -0.5778  0.3075 -1.4173
   47CHL1   C23 3463   3.508   0.551   3.788  0.5017  0.8006 -0.3525
   47CHL1  H23A 3464   3.539   0.444   3.795 -1.3026  0.2874  0.1621
   47CHL1  H23B 3465   3.605   0.605   3.799  0.2995  1.6953 -2.4713
   47CHL1   C24 3466   3.402   0.579   3.904  0.3021  0.0355  0.1244
   47CHL1  H24A 3467   3.377   0.687   3.896  1.9685  0.3430 -1.6022
   47CHL1  H24B 3468   3.316   0.513   3.880  0.8945 -0.4186 -0.8028
   47CHL1   C25 3469   3.458   0.538   4.042  0.3400 -0.6255  0.6766
   47CHL1   H25 3470   3.563   0.575   4.039  0.0889  0.0942  0.4992
   47CHL1   C26 3471   3.390   0.614   4.149 -0.2315  0.5559  0.0867
   47CHL1  H26A 3472   3.431   0.584   4.248  0.8241  2.1624  0.1729
   47CHL1  H26B 3473   3.413   0.722   4.141  1.5334  0.0921 -2.4939
   47CHL1  H26C 3474   3.283   0.587   4.153 -0.4048  1.2710  0.3505
   47CHL1   C27 3475   3.452   0.385   4.064  0.2124 -0.3125  0.0471
   47CHL1  H27A 3476   3.491   0.321   3.982 -0.8762  0.0853 -0.8150
   47CHL1  H27B 3477   3.493   0.355   4.162  0.0792 -2.6405 -0.5669
   47CHL1  H27C 3478   3.345   0.359   4.077  0.4712 -1.1307  0.6396
   48CHL1    C3 3479   4.427   6.501   2.618 -0.1895  0.8624  0.1001
   48CHL1    H3 3480   4.402   6.404   2.570 -4.2794  2.2967 -1.0726
   48CHL1    O3 3481   4.516   6.572   2.534  0.4343 -0.9503  0.0997
   48CHL1   H3' 3482   4.596   6.522   2.516  1.2302  0.8352 -1.7104
   48CHL1    C4 3483   4.301   6.582   2.639 -0.1036 -0.0023 -0.7210
   48CHL1   H4A 3484   4.322   6.689   2.659 -3.3301  0.8826 -1.5621
   48CHL1   H4B 3485   4.247   6.562   2.544  1.1000 -1.4357 -1.1380
   48CHL1    C5 3486   4.226   6.552   2.771  0.4860  0.2499 -0.3708
   48CHL1    C6 3487   4.093   6.544   2.767 -0.5879  0.2717  0.1626
   48CHL1    H6 3488   4.050   6.568   2.669  0.5485  0.1160 -0.3897
   48CHL1    C7 3489   4.002   6.509   2.881  0.1033  0.6758  0.1139
   48CHL1   H7A 3490   3.913   6.576   2.873  0.7980  1.9819  2.5798
   48CHL1   H7B 3491   3.957   6.408   2.867  2.3271 -0.4267  0.4411
   48CHL1    C8 3492   4.076   6.526   3.016 -0.4408 -0.0874  0.3071
   48CHL1    H8 3493   4.085   6.635   3.035 -1.1161  0.2779 -1.3252
   48CHL1   C14 3494   3.999   6.465   3.133 -0.0079 -0.4823  0.0942
   48CHL1   H14 3495   3.988   6.358   3.106 -0.2120 -0.0347 -1.6807
   48CHL1   C15 3496   3.861   6.520   3.164  0.3250 -0.0693  0.5390
   48CHL1  H15A 3497   3.859   6.630   3.151  2.4116 -0.0169  0.3248
   48CHL1  H15B 3498   3.783   6.479   3.096  1.3657  0.1089 -0.8129
   48CHL1   C16 3499   3.829   6.488   3.316  0.5068  0.1245  0.0075
   48CHL1  H16A 3500   3.822   6.585   3.371 -2.0998  0.3372 -0.5698
   48CHL1  H16B 3501   3.738   6.428   3.335  1.3597 -1.0337  0.5777
   48CHL1   C17 3502   3.960   6.417   3.361 -0.3194  0.2448 -0.0646
   48CHL1   H17 3503   3.947   6.309   3.342 -0.2829  0.2694 -0.2332
   48CHL1   C13 3504   4.074   6.471   3.273  0.2945 -0.0392  0.8718
   48CHL1   C18 3505   4.110   6.620   3.302  0.3323 -0.2318  0.6077
   48CHL1  H18A 3506   4.173   6.668   3.225 -0.9721 -0.0432 -0.3744
   48CHL1  H18B 3507   4.021   6.686   3.308 -1.4493 -2.2857 -1.3439
   48CHL1  H18C 3508   4.163   6.632   3.399 -3.2039  0.1549  2.6714
   48CHL1   C12 3509   4.197   6.386   3.250 -1.1809  0.1820  0.2405
   48CHL1  H12A 3510   4.263   6.371   3.339  1.5275  0.1990 -1.6321
   48CHL1  H12B 3511   4.159   6.285   3.225 -0.8670 -0.6224  2.7099
   48CHL1   C11 3512   4.294   6.441   3.144 -0.1099 -0.1067  0.3533
   48CHL1  H11A 3513   4.336   6.532   3.191 -0.2963 -1.4820  3.4575
   48CHL1  H11B 3514   4.381   6.374   3.128 -0.2549  0.3755 -3.2431
   48CHL1    C9 3515   4.220   6.464   3.012 -0.5071  0.4205  0.4804
   48CHL1    H9 3516   4.196   6.360   2.982  0.7579  0.5719 -1.1994
   48CHL1   C10 3517   4.311   6.523   2.898  0.1602  0.2593 -0.5236
   48CHL1   C19 3518   4.364   6.662   2.941  0.1951 -0.7600 -0.6016
   48CHL1  H19A 3519   4.271   6.720   2.958  1.2108  1.5065 -2.2488
   48CHL1  H19B 3520   4.409   6.667   3.042 -1.0371  1.3820 -0.0929
   48CHL1  H19C 3521   4.427   6.718   2.869 -0.4999  0.4200 -0.3193
   48CHL1    C1 3522   4.429   6.429   2.859  0.5579 -0.1157 -0.0021
   48CHL1   H1A 3523   4.495   6.410   2.946  0.0661 -0.4041  0.3165
   48CHL1   H1B 3524   4.390   6.329   2.827 -2.9724  0.8297  0.8792
   48CHL1    C2 3525   4.512   6.482   2.745 -0.5782  0.0850 -0.3894
   48CHL1   H2A 3526   4.601   6.423   2.715 -1.7105 -1.5145 -0.7840
   48CHL1   H2B 3527   4.559   6.575   2.782 -0.7365  0.0228 -0.0272
   48CHL1   C20 3528   3.971   6.422   3.510 -0.0214  0.5327 -0.3339
   48CHL1   H20 3529   3.981   6.528   3.542  0.7162  0.4074 -0.1429
   48CHL1   C21 3530   4.108   6.362   3.551 -0.0067  0.1123  0.4938
   48CHL1  H21A 3531   4.124   6.261   3.507 -0.4673 -0.0232  0.6297
   48CHL1  H21B 3532   4.100   6.351   3.662 -0.6723  0.9532  0.5390
   48CHL1  H21C 3533   4.188   6.438   3.540 -0.6309  0.7068 -0.0046
   48CHL1   C22 3534   3.857   6.348   3.587  0.3227  0.3052  0.3939
   48CHL1  H22A 3535   3.757   6.372   3.545 -0.7150 -0.9854  1.9997
   48CHL1  H22B 3536   3.870   6.238   3.582  0.9946  0.3713  0.5806
   48CHL1   C23 3537   3.842   6.377   3.735 -0.0538 -0.8484 -0.6256
   48CHL1  H23A 3538   3.938   6.344   3.782  0.3524 -0.0020 -0.8419
   48CHL1  H23B 3539   3.817   6.484   3.747 -0.5604 -1.2051  2.1373
   48CHL1   C24 3540   3.747   6.285   3.816  0.3606 -0.6294 -0.1240
   48CHL1  H24A 3541   3.647   6.291   3.768 -0.5346 -0.6188  1.6322
   48CHL1  H24B 3542   3.781   6.180   3.814  1.5766 -0.3402  1.9895
   48CHL1   C25 3543   3.724   6.321   3.968  0.2214  0.4712  0.1384
   48CHL1   H25 3544   3.702   6.430   3.967  0.8665  0.6298  1.2820
   48CHL1   C26 3545   3.606   6.249   4.033  0.6626 -1.2716 -0.3620
   48CHL1  H26A 3546   3.522   6.250   3.960  1.3580 -0.1543 -1.1570
   48CHL1  H26B 3547   3.623   6.143   4.063 -0.7290 -1.6071 -0.6498
   48CHL1  H26C 3548   3.580   6.312   4.121 -0.7383 -0.3326 -1.4134
   48CHL1   C27 3549   3.853   6.307   4.055  0.1143  0.1411 -0.2335
   48CHL1  H27A 3550   3.907   6.211   4.037  2.3993  1.2141  0.5673
   48CHL1  H27B 3551   3.925   6.383   4.019 -1.3803  2.2687  1.0305
   48CHL1  H27C 3552   3.834   6.299   4.164  1.6432  0.1138  0.0388
   49CHL1    C3 3553   1.175   0.989   2.638  0.8419  0.6309 -0.1349
   49CHL1    H3 3554   1.132   1.089   2.661 -1.6291 -0.3510 -0.1243
   49CHL1    O3 3555   1.173   0.978   2.498 -0.6756 -0.3118  0.3398
   49CHL1   H3' 3556   1.087   1.016   2.481 -1.0543 -1.1741  0.2712
   49CHL1    C4 3557   1.323   0.971   2.675  0.6568 -0.1655  0.1535
   49CHL1   H4A 3558   1.352   0.869   2.641  0.0297 -1.2200  2.5901
   49CHL1   H4B 3559   1.390   1.050   2.633  1.0242 -0.5333  0.0405
   49CHL1    C5 3560   1.342   0.967   2.825 -0.6219  0.3143 -0.1890
   49CHL1    C6 3561   1.444   1.040   2.877  0.6555  0.1398  0.5812
   49CHL1    H6 3562   1.508   1.095   2.807  2.1292 -1.5601  0.5214
   49CHL1    C7 3563   1.483   1.030   3.024  0.1438 -0.7445  0.0261
   49CHL1   H7A 3564   1.590   1.002   3.029  0.2121 -0.4158  0.4060
   49CHL1   H7B 3565   1.472   1.133   3.064  0.9893 -0.3228 -0.8051
   49CHL1    C8 3566   1.407   0.926   3.112  0.3556 -0.1178  0.0010
   49CHL1    H8 3567   1.454   0.827   3.095  1.2556  0.7364 -3.1626
   49CHL1   C14 3568   1.389   0.973   3.256 -0.3266 -0.0985 -0.3033
   49CHL1   H14 3569   1.316   1.056   3.240 -1.8283 -1.3784 -0.3775
   49CHL1   C15 3570   1.514   1.024   3.324  0.5766  0.4744  0.3198
   49CHL1  H15A 3571   1.595   0.955   3.292 -0.0106  0.5613 -1.4598
   49CHL1  H15B 3572   1.535   1.129   3.294  2.4633 -0.0399 -0.2605
   49CHL1   C16 3573   1.491   1.009   3.475 -0.1921 -0.1666 -0.5993
   49CHL1  H16A 3574   1.562   0.938   3.522 -0.6682 -0.9179 -0.9908
   49CHL1  H16B 3575   1.503   1.099   3.539  2.1333 -1.2278  0.5689
   49CHL1   C17 3576   1.344   0.954   3.482  0.4370 -0.1102  1.4216
   49CHL1   H17 3577   1.285   1.048   3.485 -0.8847 -0.6781 -1.9972
   49CHL1   C13 3578   1.310   0.881   3.347  0.5525  0.2402 -0.0516
   49CHL1   C18 3579   1.373   0.746   3.340  0.4678  0.3569  0.4980
   49CHL1  H18A 3580   1.480   0.752   3.372  0.5676 -0.8151  0.4376
   49CHL1  H18B 3581   1.313   0.682   3.408  2.9699 -0.3206  2.2292
   49CHL1  H18C 3582   1.368   0.703   3.238 -0.6215  0.2568  0.5787
   49CHL1   C12 3583   1.165   0.877   3.297 -0.4528  0.2134  0.1729
   49CHL1  H12A 3584   1.114   0.795   3.353  2.6165 -0.8933  1.5415
   49CHL1  H12B 3585   1.108   0.971   3.309  2.8191  2.1707  1.4309
   49CHL1   C11 3586   1.164   0.831   3.148  0.5731  0.0203 -0.3071
   49CHL1  H11A 3587   1.186   0.722   3.139 -1.1750 -0.1516 -4.2157
   49CHL1  H11B 3588   1.062   0.849   3.108  0.0669  1.2818  1.4023
   49CHL1    C9 3589   1.257   0.919   3.060  0.3051  0.2215  0.3260
   49CHL1    H9 3590   1.205   1.016   3.075 -2.6789 -1.3508  0.7387
   49CHL1   C10 3591   1.255   0.869   2.910  0.7812 -0.1015  0.8834
   49CHL1   C19 3592   1.289   0.717   2.894 -0.4349  0.3021  0.5779
   49CHL1  H19A 3593   1.341   0.688   2.800  2.2677 -1.3725  2.4586
   49CHL1  H19B 3594   1.352   0.676   2.975  1.3526 -1.3516 -1.5076
   49CHL1  H19C 3595   1.193   0.662   2.907 -0.6589  0.9784  1.9149
   49CHL1    C1 3596   1.115   0.905   2.854  0.9112 -0.6932 -0.1623
   49CHL1   H1A 3597   1.053   0.827   2.905  1.8860 -1.1957  0.2806
   49CHL1   H1B 3598   1.071   1.006   2.870 -1.6024 -1.7122 -0.0708
   49CHL1    C2 3599   1.099   0.885   2.699 -0.4984  0.3067 -0.8951
   49CHL1   H2A 3600   0.993   0.890   2.668 -1.0208  1.9833  0.9569
   49CHL1   H2B 3601   1.144   0.786   2.675  0.1314  0.7185 -1.4226
   49CHL1   C20 3602   1.329   0.872   3.616  0.1831  0.3847  0.5732
   49CHL1   H20 3603   1.399   0.787   3.608 -1.3887 -0.8273 -1.2448
   49CHL1   C21 3604   1.189   0.826   3.628 -0.5246 -0.0985  0.5432
   49CHL1  H21A 3605   1.110   0.904   3.628 -1.5523 -1.0823 -1.0056
   49CHL1  H21B 3606   1.175   0.770   3.723  1.4868 -0.3798  0.7148
   49CHL1  H21C 3607   1.169   0.751   3.548 -1.0020  2.7066 -2.1614
   49CHL1   C22 3608   1.381   0.950   3.740  0.0851 -0.0221 -0.7087
   49CHL1  H22A 3609   1.480   0.996   3.720  0.5301 -0.5756  0.1633
   49CHL1  H22B 3610   1.305   1.029   3.758 -1.3527 -1.4752 -0.1689
   49CHL1   C23 3611   1.405   0.879   3.870 -0.5923  0.6683 -0.2301
   49CHL1  H23A 3612   1.443   0.958   3.938 -1.4404 -0.1158  1.2185
   49CHL1  H23B 3613   1.316   0.860   3.934  0.9618  0.2563  1.9559
   49CHL1   C24 3614   1.489   0.749   3.859  0.5742  0.1242 -0.4291
   49CHL1  H24A 3615   1.426   0.658   3.851  1.0696 -0.2938  0.2889
   49CHL1  H24B 3616   1.549   0.756   3.766  0.3616 -1.4087 -0.7073
   49CHL1   C25 3617   1.598   0.737   3.965 -0.2037  0.1225  0.1896
   49CHL1   H25 3618   1.658   0.830   3.960  0.0318 -0.0596 -0.4516
   49CHL1   C26 3619   1.546   0.729   4.112  0.1076  0.1518  0.1133
   49CHL1  H26A 3620   1.631   0.684   4.167  0.3550 -1.6626 -1.6258
   49CHL1  H26B 3621   1.507   0.825   4.153  0.0590  0.4004 -0.4972
   49CHL1  H26C 3622   1.465   0.654   4.112  0.5118 -0.3110  1.6647
   49CHL1   C27 3623   1.687   0.620   3.928 -0.0989 -0.8035 -0.1388
   49CHL1  H27A 3624   1.656   0.522   3.967  1.8736 -0.4859  2.5125
   49CHL1  H27B 3625   1.704   0.615   3.818 -0.9435 -0.4430 -0.2874
   49CHL1  H27C 3626   1.790   0.644   3.962  0.0799 -0.1322 -1.0809
   50CHL1    C3 3627   6.876   0.928   2.525  0.4211 -0.0691  0.9014
   50CHL1    H3 3628   6.777   0.878   2.528 -0.2666  1.0779 -0.9959
   50CHL1    O3 3629   6.908   0.956   2.386  0.2431 -0.2554  0.0681
   50CHL1   H3' 3630   6.992   1.003   2.391  0.6701 -0.7851 -1.6258
   50CHL1    C4 3631   6.862   1.056   2.596 -0.0416  0.1311  0.7784
   50CHL1   H4A 3632   6.956   1.111   2.571 -0.7581  0.2475 -1.9720
   50CHL1   H4B 3633   6.782   1.120   2.554  1.1007  0.5177 -0.9015
   50CHL1    C5 3634   6.845   1.043   2.747 -0.9744  0.0279  0.0459
   50CHL1    C6 3635   6.747   1.101   2.812 -0.1320  0.5708  0.5859
   50CHL1    H6 3636   6.686   1.169   2.751 -0.2677  0.3469  0.4691
   50CHL1    C7 3637   6.741   1.098   2.961  0.4080 -0.2119 -0.1733
   50CHL1   H7A 3638   6.748   1.202   2.999 -2.1060  0.3217 -0.9745
   50CHL1   H7B 3639   6.646   1.052   2.996 -0.0429  0.7056 -0.1555
   50CHL1    C8 3640   6.861   1.028   3.036  0.3462  0.1788  0.2486
   50CHL1    H8 3641   6.944   1.101   3.038  0.7098 -0.1253 -1.7780
   50CHL1   C14 3642   6.824   0.985   3.180 -0.4573  0.5584  0.0163
   50CHL1   H14 3643   6.742   0.909   3.175  1.9550 -2.1715 -0.9018
   50CHL1   C15 3644   6.760   1.077   3.272 -1.0026 -0.7283  0.2067
   50CHL1  H15A 3645   6.814   1.173   3.282 -1.2158 -0.5415 -0.3733
   50CHL1  H15B 3646   6.654   1.098   3.246 -0.5954  0.1319 -0.8288
   50CHL1   C16 3647   6.766   1.001   3.406  0.3089 -0.4558 -0.6356
   50CHL1  H16A 3648   6.788   1.066   3.493  0.1489 -0.3875 -0.6469
   50CHL1  H16B 3649   6.665   0.954   3.404 -0.8669  1.8252  0.9237
   50CHL1   C17 3650   6.868   0.888   3.394 -0.3091 -0.1320 -0.3349
   50CHL1   H17 3651   6.829   0.785   3.384 -2.0000  0.5683 -1.3070
   50CHL1   C13 3652   6.935   0.918   3.258 -0.7552 -0.0687 -0.5767
   50CHL1   C18 3653   7.052   1.023   3.276  0.2096  0.1172 -0.2061
   50CHL1  H18A 3654   7.026   1.107   3.343 -1.0301  0.8062 -1.4814
   50CHL1  H18B 3655   7.138   0.983   3.333 -1.0677 -3.8352 -0.6700
   50CHL1  H18C 3656   7.090   1.051   3.175  1.2150 -1.8752 -0.4433
   50CHL1   C12 3657   6.968   0.789   3.185  0.4588  0.6138  1.2988
   50CHL1  H12A 3658   7.050   0.724   3.223  0.0524  0.1454  1.3934
   50CHL1  H12B 3659   6.878   0.723   3.191  1.8886 -1.5410  0.2771
   50CHL1   C11 3660   7.009   0.817   3.035 -0.3124 -0.5347  0.6723
   50CHL1  H11A 3661   7.105   0.873   3.043  0.0010 -1.2932  2.8122
   50CHL1  H11B 3662   7.030   0.717   2.991  2.7752 -0.3302  1.4342
   50CHL1    C9 3663   6.907   0.907   2.956 -0.0092  0.1283  0.2105
   50CHL1    H9 3664   6.807   0.858   2.950  0.0762  0.0062 -0.2135
   50CHL1   C10 3665   6.950   0.944   2.810 -0.3983  0.0311 -0.3434
   50CHL1   C19 3666   7.086   1.012   2.813 -0.5682 -0.1689 -0.0047
   50CHL1  H19A 3667   7.102   1.064   2.716 -0.2264 -1.4125 -0.6334
   50CHL1  H19B 3668   7.096   1.069   2.908  1.8498 -2.0541  0.9787
   50CHL1  H19C 3669   7.161   0.932   2.833 -1.8251 -0.9978  1.6809
   50CHL1    C1 3670   6.954   0.816   2.730  0.0637  0.4435  0.4557
   50CHL1   H1A 3671   7.033   0.749   2.770 -0.7774  0.1150  1.6026
   50CHL1   H1B 3672   6.861   0.763   2.757  1.7511 -1.2282  3.4522
   50CHL1    C2 3673   6.978   0.833   2.579  0.0405  0.0716  0.3309
   50CHL1   H2A 3674   6.978   0.738   2.522 -0.9327  0.6581 -0.6787
   50CHL1   H2B 3675   7.078   0.882   2.569 -0.6680  1.7974  1.2355
   50CHL1   C20 3676   6.955   0.880   3.517 -1.1758  0.2550  0.8794
   50CHL1   H20 3677   7.002   0.979   3.530  2.1973 -0.8463 -1.5669
   50CHL1   C21 3678   7.063   0.772   3.502 -0.1162  0.6755 -0.2804
   50CHL1  H21A 3679   7.110   0.771   3.603 -0.5535  2.5671 -0.0305
   50CHL1  H21B 3680   7.145   0.799   3.431  1.2870 -2.2074  0.0909
   50CHL1  H21C 3681   7.012   0.674   3.499 -0.2376  0.7171  0.3132
   50CHL1   C22 3682   6.871   0.853   3.644 -0.2766  0.2152  0.3665
   50CHL1  H22A 3683   6.784   0.921   3.653 -2.1754 -2.2491  1.8297
   50CHL1  H22B 3684   6.825   0.752   3.645 -0.4107  0.2498  2.0983
   50CHL1   C23 3685   6.950   0.873   3.775 -0.7069  0.2773 -0.2303
   50CHL1  H23A 3686   7.011   0.782   3.794 -1.5320  0.1917  2.5000
   50CHL1  H23B 3687   7.021   0.958   3.778 -0.5382  0.1165  1.0692
   50CHL1   C24 3688   6.861   0.882   3.899  0.6989  0.6748  0.4361
   50CHL1  H24A 3689   6.792   0.967   3.881 -0.1802  0.1928  1.4129
   50CHL1  H24B 3690   6.806   0.787   3.920  1.3688  0.9117  3.7722
   50CHL1   C25 3691   6.928   0.901   4.031  0.0690  0.1082  0.4936
   50CHL1   H25 3692   6.932   1.010   4.053 -0.7663  0.0011  1.2439
   50CHL1   C26 3693   6.846   0.853   4.152  0.2397 -0.7361 -0.2422
   50CHL1  H26A 3694   6.750   0.909   4.151  0.6810  0.0622  0.5865
   50CHL1  H26B 3695   6.838   0.742   4.149  1.0798 -0.7754 -1.7275
   50CHL1  H26C 3696   6.899   0.882   4.245  1.4764 -1.4819 -0.6964
   50CHL1   C27 3697   7.070   0.845   4.045 -0.3834  0.1714 -0.4537
   50CHL1  H27A 3698   7.133   0.905   3.976  0.4204  1.4337  1.3019
   50CHL1  H27B 3699   7.112   0.855   4.147 -0.8710 -0.5219 -0.1791
   50CHL1  H27C 3700   7.071   0.741   4.006  1.2347  0.1305 -0.3526
   51CHL1    C3 3701   2.245   1.089   2.574  0.5863  0.3459  0.3685
   51CHL1    H3 3702   2.140   1.062   2.597  0.8417 -3.0079 -1.6717
   51CHL1    O3 3703   2.253   1.068   2.435 -0.0363 -0.0185  0.3295
   51CHL1   H3' 3704   2.346   1.090   2.421 -0.4729  1.2021 -0.9683
   51CHL1    C4 3705   2.261   1.238   2.617  0.9057  0.1593  0.6816
   51CHL1   H4A 3706   2.361   1.281   2.594  0.8247  0.0376  0.0630
   51CHL1   H4B 3707   2.187   1.301   2.563 -0.0947 -1.2279  0.3778
   51CHL1    C5 3708   2.236   1.244   2.761  0.5327  0.1921 -0.4166
   51CHL1    C6 3709   2.146   1.329   2.817 -0.4745 -0.2027 -0.3889
   51CHL1    H6 3710   2.098   1.401   2.750  1.4061  1.6858  0.1774
   51CHL1    C7 3711   2.134   1.350   2.962 -0.0870 -0.3491 -1.2762
   51CHL1   H7A 3712   2.112   1.454   2.996 -0.9151 -0.8038 -0.3580
   51CHL1   H7B 3713   2.047   1.288   2.992  1.2743 -1.6982  0.1267
   51CHL1    C8 3714   2.255   1.298   3.049  0.1085 -0.6180 -0.4339
   51CHL1    H8 3715   2.338   1.368   3.025  0.0016 -1.4907 -3.9092
   51CHL1   C14 3716   2.227   1.311   3.192  0.5116 -0.4274 -0.5632
   51CHL1   H14 3717   2.139   1.245   3.209  0.5989 -0.6966 -1.1494
   51CHL1   C15 3718   2.181   1.435   3.262  0.2641  0.1929  0.2914
   51CHL1  H15A 3719   2.242   1.525   3.237  0.9496  0.2262  1.9710
   51CHL1  H15B 3720   2.080   1.467   3.227 -1.4013 -1.2048  3.4320
   51CHL1   C16 3721   2.187   1.408   3.408  0.6631  0.5104 -0.9512
   51CHL1  H16A 3722   2.253   1.480   3.461  1.0426  0.1640 -0.9480
   51CHL1  H16B 3723   2.090   1.412   3.462  0.9307  1.7270 -0.5429
   51CHL1   C17 3724   2.257   1.261   3.409 -0.3189 -0.3632 -0.2021
   51CHL1   H17 3725   2.167   1.196   3.411 -1.1498  0.7350  2.3268
   51CHL1   C13 3726   2.336   1.253   3.282 -0.4091  0.4134  0.0579
   51CHL1   C18 3727   2.460   1.342   3.284  0.3154  0.5997  0.0775
   51CHL1  H18A 3728   2.437   1.440   3.331  1.0626 -0.2899  2.4170
   51CHL1  H18B 3729   2.539   1.292   3.343 -1.5016 -1.8460  0.5510
   51CHL1  H18C 3730   2.506   1.358   3.183  1.7120 -1.1412  0.4004
   51CHL1   C12 3731   2.363   1.107   3.249 -0.2397 -0.6760 -0.1288
   51CHL1  H12A 3732   2.450   1.080   3.312  0.4480  2.0071  0.1977
   51CHL1  H12B 3733   2.280   1.043   3.282 -0.3854  0.1818  1.2344
   51CHL1   C11 3734   2.391   1.092   3.101 -0.5404  0.6623  0.2806
   51CHL1  H11A 3735   2.489   1.146   3.098 -0.8185  1.3385  1.8640
   51CHL1  H11B 3736   2.402   0.982   3.090  4.1702  0.6351  2.5513
   51CHL1    C9 3737   2.296   1.163   3.004 -0.1564 -0.2438  0.7164
   51CHL1    H9 3738   2.207   1.097   3.005  0.5611 -1.4083 -1.9240
   51CHL1   C10 3739   2.326   1.153   2.850  0.0818  0.2449 -0.0683
   51CHL1   C19 3740   2.468   1.222   2.835  0.2733  0.2707  0.3160
   51CHL1  H19A 3741   2.480   1.313   2.897  1.3489  0.8330 -0.6766
   51CHL1  H19B 3742   2.545   1.144   2.856  1.0879  0.8005 -0.6075
   51CHL1  H19C 3743   2.490   1.244   2.728 -2.4123  0.6010 -0.2272
   51CHL1    C1 3744   2.332   1.004   2.794  0.1568 -0.3300  0.0889
   51CHL1   H1A 3745   2.419   0.954   2.841 -0.7124 -0.9018  1.1386
   51CHL1   H1B 3746   2.243   0.948   2.832 -1.1227 -0.3196 -2.6169
   51CHL1    C2 3747   2.343   0.999   2.644 -1.0374 -0.1100 -0.7738
   51CHL1   H2A 3748   2.334   0.893   2.613  0.5990  0.0091 -1.7694
   51CHL1   H2B 3749   2.446   1.031   2.617 -0.4310  0.3035  1.7476
   51CHL1   C20 3750   2.346   1.222   3.530  0.8307  0.3014  0.4189
   51CHL1   H20 3751   2.426   1.153   3.497  0.8878  1.2794 -1.6308
   51CHL1   C21 3752   2.250   1.152   3.626 -0.1824 -0.7325 -0.8917
   51CHL1  H21A 3753   2.305   1.103   3.709 -0.7846  1.1502  0.6906
   51CHL1  H21B 3754   2.196   1.064   3.586 -0.5466 -1.2666  0.7081
   51CHL1  H21C 3755   2.172   1.220   3.666  0.2877 -0.6974 -0.0200
   51CHL1   C22 3756   2.410   1.345   3.604 -0.1467  0.5190  0.2008
   51CHL1  H22A 3757   2.465   1.408   3.531 -0.7124  0.3766 -0.3618
   51CHL1  H22B 3758   2.331   1.410   3.648  1.6062  1.4497  2.1471
   51CHL1   C23 3759   2.505   1.299   3.715  0.5244  0.2162 -0.1521
   51CHL1  H23A 3760   2.440   1.239   3.783 -1.8446  0.3423 -2.1564
   51CHL1  H23B 3761   2.575   1.225   3.671 -0.1624 -0.5788  0.0601
   51CHL1   C24 3762   2.585   1.413   3.777  0.4687  0.2063  0.3270
   51CHL1  H24A 3763   2.612   1.485   3.697 -0.1020 -1.0592 -1.0393
   51CHL1  H24B 3764   2.516   1.475   3.839 -1.7185  0.1940 -1.9318
   51CHL1   C25 3765   2.700   1.364   3.867  0.4939 -0.6344 -0.2793
   51CHL1   H25 3766   2.656   1.308   3.952  2.6744 -1.2050  0.5198
   51CHL1   C26 3767   2.801   1.276   3.790  0.5781  0.3053 -0.2968
   51CHL1  H26A 3768   2.755   1.178   3.763  1.0466 -0.6366  2.0485
   51CHL1  H26B 3769   2.854   1.323   3.705 -0.4498  1.1593 -0.4830
   51CHL1  H26C 3770   2.886   1.255   3.858 -0.4168  0.9452  1.2047
   51CHL1   C27 3771   2.771   1.487   3.927  0.1570 -0.4394  0.4650
   51CHL1  H27A 3772   2.859   1.459   3.989 -0.7702 -0.5415  1.7843
   51CHL1  H27B 3773   2.794   1.557   3.844  0.7803 -1.3591 -0.1507
   51CHL1  H27C 3774   2.704   1.547   3.993  0.7832 -0.5041  1.1748
   52CHL1    C3 3775   0.640   1.880   2.444  0.1702  1.0239 -0.3211
   52CHL1    H3 3776   0.538   1.836   2.443  0.6870 -0.2249 -0.1658
   52CHL1    O3 3777   0.672   1.935   2.316 -0.3246 -0.1666 -0.0879
   52CHL1   H3' 3778   0.710   1.859   2.272 -1.4064 -1.2825  0.8441
   52CHL1    C4 3779   0.644   1.997   2.546  0.1268  0.2810  1.0837
   52CHL1   H4A 3780   0.738   2.050   2.521  1.6854 -3.3563 -1.5941
   52CHL1   H4B 3781   0.558   2.057   2.508  0.5005 -0.6647 -1.5166
   52CHL1    C5 3782   0.653   1.946   2.687  0.5239 -0.0023  0.1121
   52CHL1    C6 3783   0.557   1.988   2.777  0.1417 -0.5953 -0.0878
   52CHL1    H6 3784   0.478   2.048   2.731  1.8565  1.0601 -1.0307
   52CHL1    C7 3785   0.568   1.969   2.928 -1.0068  0.0270 -0.3032
   52CHL1   H7A 3786   0.540   2.057   2.989  2.0818  0.4359  0.6901
   52CHL1   H7B 3787   0.501   1.883   2.951 -3.5241  2.6515  3.0823
   52CHL1    C8 3788   0.710   1.920   2.971  0.1867 -0.0769  0.2966
   52CHL1    H8 3789   0.784   2.003   2.972  2.1387 -1.6066 -2.6112
   52CHL1   C14 3790   0.696   1.861   3.106  0.1205 -0.3997 -0.5377
   52CHL1   H14 3791   0.625   1.776   3.089 -1.0782  0.7468 -1.5025
   52CHL1   C15 3792   0.627   1.958   3.209  0.0387  0.7887 -0.0545
   52CHL1  H15A 3793   0.680   2.056   3.205 -1.7108  1.9516  2.6827
   52CHL1  H15B 3794   0.518   1.963   3.190  0.4577  0.9102 -2.8122
   52CHL1   C16 3795   0.662   1.893   3.342 -0.2780 -0.2439 -0.6437
   52CHL1  H16A 3796   0.695   1.975   3.410  0.9129 -0.0789 -1.4027
   52CHL1  H16B 3797   0.582   1.831   3.387 -0.2583 -1.6386 -2.4416
   52CHL1   C17 3798   0.768   1.780   3.316 -0.0394  0.4981 -0.4365
   52CHL1   H17 3799   0.724   1.678   3.318  0.4009  0.2869 -1.0476
   52CHL1   C13 3800   0.824   1.809   3.168  0.1874  0.2089 -0.4679
   52CHL1   C18 3801   0.934   1.913   3.196 -0.4735 -0.3505 -0.2183
   52CHL1  H18A 3802   0.909   1.988   3.274  0.1048 -0.2145 -0.1534
   52CHL1  H18B 3803   1.031   1.864   3.222 -0.5023  1.1003  3.0180
   52CHL1  H18C 3804   0.953   1.986   3.114  1.8733  0.7839  1.2389
   52CHL1   C12 3805   0.875   1.696   3.071  0.0885  0.8225  0.7420
   52CHL1  H12A 3806   0.977   1.672   3.108 -0.3428  2.2158  3.0033
   52CHL1  H12B 3807   0.808   1.607   3.068  0.0931  0.8326  0.0761
   52CHL1   C11 3808   0.894   1.748   2.930 -0.1471  0.0256 -0.3550
   52CHL1  H11A 3809   0.967   1.830   2.946 -1.5859  0.8776  2.4952
   52CHL1  H11B 3810   0.940   1.669   2.867  1.1694  1.0949 -0.7782
   52CHL1    C9 3811   0.762   1.808   2.878  0.1731 -0.3638  0.3456
   52CHL1    H9 3812   0.688   1.725   2.877  1.9841 -2.0565 -0.8704
   52CHL1   C10 3813   0.771   1.857   2.730 -0.6988  0.7079  0.9519
   52CHL1   C19 3814   0.905   1.932   2.707 -0.8076 -0.5013 -0.0191
   52CHL1  H19A 3815   0.905   2.019   2.777 -1.1540 -1.3079  1.0018
   52CHL1  H19B 3816   0.997   1.871   2.715 -0.3903 -0.3327 -2.5838
   52CHL1  H19C 3817   0.912   1.973   2.604 -3.5801 -0.2149 -0.1684
   52CHL1    C1 3818   0.758   1.739   2.621  0.2346 -0.4554 -0.6718
   52CHL1   H1A 3819   0.846   1.671   2.627  0.5786 -0.0917 -1.5124
   52CHL1   H1B 3820   0.673   1.674   2.650 -0.5146  1.2458  1.1725
   52CHL1    C2 3821   0.746   1.775   2.474  0.8942  0.4462  0.8111
   52CHL1   H2A 3822   0.720   1.683   2.418  0.5450  1.3469 -0.5527
   52CHL1   H2B 3823   0.846   1.819   2.450  0.5486  0.4135 -0.7917
   52CHL1   C20 3824   0.862   1.758   3.438 -0.0000 -0.3159 -0.0314
   52CHL1   H20 3825   0.915   1.855   3.453  2.2313 -1.2070 -1.6391
   52CHL1   C21 3826   0.962   1.642   3.417  1.0471 -0.7324  0.0708
   52CHL1  H21A 3827   1.000   1.649   3.313  2.4931 -2.9103  0.3882
   52CHL1  H21B 3828   0.911   1.545   3.436  2.5639 -2.0216 -2.0026
   52CHL1  H21C 3829   1.048   1.649   3.487 -0.4094  0.6072  1.8340
   52CHL1   C22 3830   0.773   1.729   3.558 -0.0275  0.0198  0.3508
   52CHL1  H22A 3831   0.696   1.808   3.571 -0.3099  0.0464 -1.3430
   52CHL1  H22B 3832   0.723   1.630   3.556  1.8866 -0.9969 -2.3514
   52CHL1   C23 3833   0.860   1.737   3.691 -0.0019  0.0622 -0.6039
   52CHL1  H23A 3834   0.909   1.637   3.698 -0.4079 -0.2084 -1.5086
   52CHL1  H23B 3835   0.940   1.813   3.697  0.7673 -0.6113 -1.8115
   52CHL1   C24 3836   0.772   1.743   3.818 -0.4098  0.5999 -0.4248
   52CHL1  H24A 3837   0.733   1.845   3.840 -1.5335  0.1169 -0.0736
   52CHL1  H24B 3838   0.686   1.677   3.793  1.7375 -1.4482 -2.9744
   52CHL1   C25 3839   0.850   1.709   3.953  0.1533 -0.2812 -0.3496
   52CHL1   H25 3840   0.896   1.608   3.945 -0.2328 -0.5648  0.8846
   52CHL1   C26 3841   0.950   1.807   4.005  0.1367 -0.7403  0.2788
   52CHL1  H26A 3842   1.040   1.813   3.939  0.7957  1.0538  1.2630
   52CHL1  H26B 3843   0.916   1.912   3.997  1.5888 -0.1228  1.6138
   52CHL1  H26C 3844   0.988   1.788   4.107  0.4499 -1.6409  0.0028
   52CHL1   C27 3845   0.742   1.707   4.068 -0.3683  0.5714 -0.0815
   52CHL1  H27A 3846   0.655   1.652   4.026 -0.3881  1.6709 -1.5472
   52CHL1  H27B 3847   0.788   1.654   4.155  0.1652  0.3166 -0.5111
   52CHL1  H27C 3848   0.705   1.804   4.107 -1.6510  0.0897 -0.0439
   53CHL1    C3 3849   5.694   0.363   2.386  0.5116  0.5172  0.0415
   53CHL1    H3 3850   5.787   0.302   2.401  0.5266  0.6749  0.5896
   53CHL1    O3 3851   5.641   0.344   2.251 -1.0373  0.3421  0.4641
   53CHL1   H3' 3852   5.712   0.330   2.188 -1.8595  0.0533 -0.4366
   53CHL1    C4 3853   5.588   0.297   2.478 -0.0692 -0.1194 -0.9706
   53CHL1   H4A 3854   5.488   0.343   2.464 -0.2149 -0.2141 -0.2797
   53CHL1   H4B 3855   5.587   0.188   2.455  0.7942 -0.4854  0.5843
   53CHL1    C5 3856   5.629   0.318   2.626  0.1504  0.1222  0.4724
   53CHL1    C6 3857   5.643   0.210   2.706  0.5306  0.2462  0.2011
   53CHL1    H6 3858   5.627   0.104   2.680 -1.2382 -0.5761  4.0099
   53CHL1    C7 3859   5.668   0.224   2.849 -0.1835 -0.2405 -0.0776
   53CHL1   H7A 3860   5.605   0.151   2.904  1.6595 -0.2756  2.1765
   53CHL1   H7B 3861   5.773   0.190   2.862 -0.5137 -0.5319  2.3179
   53CHL1    C8 3862   5.655   0.370   2.902  1.3764 -0.8373 -0.2765
   53CHL1    H8 3863   5.548   0.400   2.905  1.4048 -0.7488  2.8485
   53CHL1   C14 3864   5.705   0.380   3.050  0.0945  0.4926 -0.5185
   53CHL1   H14 3865   5.811   0.349   3.041 -0.4850 -1.4186 -1.2976
   53CHL1   C15 3866   5.640   0.287   3.147  0.4194 -0.2703  0.6476
   53CHL1  H15A 3867   5.535   0.258   3.124  1.0509 -2.3648  0.1645
   53CHL1  H15B 3868   5.687   0.186   3.139 -0.3477 -0.5170 -1.0318
   53CHL1   C16 3869   5.668   0.354   3.286 -0.4357  0.3329  0.4202
   53CHL1  H16A 3870   5.569   0.378   3.330  0.9923  2.6692  2.6733
   53CHL1  H16B 3871   5.720   0.282   3.352  0.3984 -0.3478 -0.9285
   53CHL1   C17 3872   5.751   0.481   3.255  0.3488 -0.3645  0.5114
   53CHL1   H17 3873   5.858   0.453   3.247  1.0223  1.8319  1.1775
   53CHL1   C13 3874   5.707   0.523   3.117 -0.0378  0.6706 -0.0318
   53CHL1   C18 3875   5.565   0.574   3.125 -0.8059  0.1649 -0.1296
   53CHL1  H18A 3876   5.494   0.508   3.178  1.5740 -0.8291  2.0438
   53CHL1  H18B 3877   5.568   0.676   3.167  1.5369  1.0004 -2.0734
   53CHL1  H18C 3878   5.533   0.586   3.019  0.5140 -0.8271 -0.6731
   53CHL1   C12 3879   5.804   0.605   3.028 -0.2699  0.2526 -0.0665
   53CHL1  H12A 3880   5.812   0.712   3.059 -0.5609  0.5740 -1.0761
   53CHL1  H12B 3881   5.903   0.554   3.029  0.1026  0.8491  2.6722
   53CHL1   C11 3882   5.751   0.613   2.882  0.2592  1.0600 -0.2459
   53CHL1  H11A 3883   5.650   0.660   2.887 -1.4453 -2.2431 -1.0789
   53CHL1  H11B 3884   5.817   0.679   2.822  0.6527  1.0739  0.1959
   53CHL1    C9 3885   5.731   0.470   2.813  0.7545 -0.6929  0.4753
   53CHL1    H9 3886   5.834   0.436   2.789  1.0361  0.5531 -0.1487
   53CHL1   C10 3887   5.662   0.468   2.667 -0.7687 -0.4849 -0.6089
   53CHL1   C19 3888   5.532   0.547   2.672 -0.5197  0.5429  0.1196
   53CHL1  H19A 3889   5.465   0.530   2.759 -2.4149 -0.2874 -1.4282
   53CHL1  H19B 3890   5.538   0.658   2.674  1.0436  0.4804 -0.0590
   53CHL1  H19C 3891   5.474   0.520   2.581  0.6118  1.4768 -0.9032
   53CHL1    C1 3892   5.764   0.529   2.560  0.4386  0.1607  0.6017
   53CHL1   H1A 3893   5.800   0.631   2.585 -1.3246  1.4934 -1.8377
   53CHL1   H1B 3894   5.854   0.464   2.570  0.3075 -0.3855 -1.3329
   53CHL1    C2 3895   5.721   0.513   2.409 -1.3188 -0.4547 -0.9001
   53CHL1   H2A 3896   5.793   0.550   2.333 -0.4855 -0.9490 -0.3713
   53CHL1   H2B 3897   5.627   0.568   2.387 -1.4532  0.1435  0.9762
   53CHL1   C20 3898   5.743   0.581   3.376  0.2799  0.3622  0.3409
   53CHL1   H20 3899   5.652   0.643   3.365  0.5942  0.8256  0.3406
   53CHL1   C21 3900   5.864   0.677   3.356 -0.6047  0.9364  0.0061
   53CHL1  H21A 3901   5.866   0.762   3.427  0.8119  0.7191  0.2539
   53CHL1  H21B 3902   5.857   0.735   3.261 -2.8248 -0.3077 -0.6643
   53CHL1  H21C 3903   5.964   0.631   3.361 -1.4129 -0.8319  0.8284
   53CHL1   C22 3904   5.737   0.520   3.516  0.2394  0.1402  0.4296
   53CHL1  H22A 3905   5.662   0.439   3.533 -3.0995  2.8360 -0.4516
   53CHL1  H22B 3906   5.836   0.473   3.534 -0.3135 -0.1492  3.1782
   53CHL1   C23 3907   5.718   0.625   3.620  0.6153 -0.8927 -0.0026
   53CHL1  H23A 3908   5.805   0.695   3.622 -0.6228  0.7708 -1.5070
   53CHL1  H23B 3909   5.632   0.692   3.600  2.2671  0.6627 -2.6077
   53CHL1   C24 3910   5.725   0.577   3.768  0.2773  0.0664 -0.0603
   53CHL1  H24A 3911   5.638   0.512   3.792  1.3041 -0.9410  1.1176
   53CHL1  H24B 3912   5.813   0.509   3.773  0.6774  0.5647 -0.1962
   53CHL1   C25 3913   5.754   0.689   3.866  1.4520 -0.1397  0.6845
   53CHL1   H25 3914   5.843   0.745   3.828 -0.1428  1.6306 -0.6558
   53CHL1   C26 3915   5.642   0.802   3.867 -0.0600 -0.2080  0.0698
   53CHL1  H26A 3916   5.625   0.848   3.767  2.1465 -1.8635 -1.1586
   53CHL1  H26B 3917   5.545   0.755   3.897 -1.1392  1.9217  0.0888
   53CHL1  H26C 3918   5.663   0.880   3.942  2.6439  0.4736 -1.2663
   53CHL1   C27 3919   5.764   0.635   4.011  0.7189  0.1769  0.7263
   53CHL1  H27A 3920   5.774   0.713   4.090 -0.8046  0.4407  0.6888
   53CHL1  H27B 3921   5.671   0.578   4.033 -0.0751  0.1471 -2.2626
   53CHL1  H27C 3922   5.840   0.554   4.016 -0.6822 -1.4147 -1.8091
   54CHL1    C3 3923   1.936   0.111   2.699  0.3663  0.2911 -0.8101
   54CHL1    H3 3924   2.026   0.172   2.679 -0.2357  0.9853 -1.5226
   54CHL1    O3 3925   1.883   0.056   2.582 -0.3897 -0.2091  0.7066
   54CHL1   H3' 3926   1.824  -0.012   2.617  0.8764 -0.4940  2.3765
   54CHL1    C4 3927   1.975  -0.013   2.790  0.5947  0.9511 -0.8591
   54CHL1   H4A 3928   1.885  -0.075   2.805  0.0729  1.4436 -1.8439
   54CHL1   H4B 3929   2.050  -0.078   2.740 -0.3015 -1.3873  0.6740
   54CHL1    C5 3930   2.022   0.040   2.930 -0.0678 -0.3607  0.7843
   54CHL1    C6 3931   2.147   0.010   2.977  0.1387 -0.1535 -0.3240
   54CHL1    H6 3932   2.222  -0.050   2.924  0.7668  0.8137 -0.5556
   54CHL1    C7 3933   2.198   0.063   3.106  0.2154 -0.1344  0.5016
   54CHL1   H7A 3934   2.268  -0.012   3.149  1.1574 -0.3335 -1.2868
   54CHL1   H7B 3935   2.237   0.165   3.090 -1.1533  0.6405  1.7844
   54CHL1    C8 3936   2.078   0.094   3.201  0.0658  0.0075  0.2399
   54CHL1    H8 3937   2.031  -0.001   3.231 -2.0594  1.4318  1.6642
   54CHL1   C14 3938   2.135   0.167   3.320 -0.2732 -0.3568  0.3829
   54CHL1   H14 3939   2.180   0.264   3.290  4.3443 -2.1306  0.7469
   54CHL1   C15 3940   2.258   0.100   3.393  0.5993 -0.2678  0.4494
   54CHL1  H15A 3941   2.228  -0.007   3.396 -2.7261  0.5775  1.4104
   54CHL1  H15B 3942   2.353   0.108   3.336 -0.7233 -1.1751 -2.0494
   54CHL1   C16 3943   2.253   0.169   3.531  0.2490  0.1795  0.5496
   54CHL1  H16A 3944   2.254   0.075   3.591 -0.3759  0.5702  1.1841
   54CHL1  H16B 3945   2.344   0.228   3.558  0.1840  0.8446 -0.6052
   54CHL1   C17 3946   2.118   0.250   3.544 -0.3012  0.0179 -0.7029
   54CHL1   H17 3947   2.145   0.352   3.510  1.8939  0.3302  1.6663
   54CHL1   C13 3948   2.030   0.198   3.428  0.3741  0.3657 -0.5233
   54CHL1   C18 3949   1.958   0.070   3.481  0.9297  0.1552  0.8362
   54CHL1  H18A 3950   1.878   0.104   3.550  0.4139  1.0382 -0.1635
   54CHL1  H18B 3951   1.911   0.005   3.404  1.8694 -0.0856  0.4374
   54CHL1  H18C 3952   2.025  -0.005   3.529  0.8880 -0.0257  0.6166
   54CHL1   C12 3953   1.932   0.295   3.364  0.3664  0.3715  0.0978
   54CHL1  H12A 3954   1.852   0.315   3.439 -0.4099  0.1978 -0.6637
   54CHL1  H12B 3955   1.987   0.388   3.339 -0.5728  1.1308  0.7875
   54CHL1   C11 3956   1.859   0.244   3.235  0.2472 -0.8183 -0.3079
   54CHL1  H11A 3957   1.785   0.169   3.270  1.8133 -2.0728  0.4773
   54CHL1  H11B 3958   1.806   0.333   3.195 -1.7011 -1.1625  1.3436
   54CHL1    C9 3959   1.973   0.190   3.142  1.1865  0.1504  0.2163
   54CHL1    H9 3960   2.037   0.278   3.121  2.3602 -1.1291 -1.9326
   54CHL1   C10 3961   1.918   0.121   3.013  0.4204  0.3939  0.7723
   54CHL1   C19 3962   1.795   0.023   3.047  0.0272  0.3730  1.0498
   54CHL1  H19A 3963   1.711   0.085   3.085  0.2638  0.8774  0.7569
   54CHL1  H19B 3964   1.760  -0.039   2.962  2.5932 -0.9004  0.8040
   54CHL1  H19C 3965   1.819  -0.049   3.129 -1.5950 -0.7777  0.5702
   54CHL1    C1 3966   1.863   0.241   2.913 -0.4918  0.2678 -0.8415
   54CHL1   H1A 3967   1.772   0.272   2.969  0.3291 -0.3161  0.9096
   54CHL1   H1B 3968   1.943   0.317   2.913  1.0417 -1.2796 -1.4555
   54CHL1    C2 3969   1.833   0.194   2.768 -0.4675  0.4788 -0.1414
   54CHL1   H2A 3970   1.800   0.283   2.712 -0.6003  1.1584  0.9777
   54CHL1   H2B 3971   1.750   0.120   2.781  0.8999 -1.1107 -0.2187
   54CHL1   C20 3972   2.069   0.259   3.697  0.5486 -0.3104 -0.2441
   54CHL1   H20 3973   2.005   0.170   3.717  0.1057 -0.9292 -3.7516
   54CHL1   C21 3974   1.994   0.392   3.710  0.4268  0.5662 -0.7171
   54CHL1  H21A 3975   1.920   0.416   3.631 -0.2375  2.0678  0.3060
   54CHL1  H21B 3976   2.074   0.469   3.710  0.8185  0.1666 -1.3758
   54CHL1  H21C 3977   1.933   0.384   3.803  2.4729 -0.9320  0.5877
   54CHL1   C22 3978   2.183   0.268   3.802  1.0566  0.3500  0.1288
   54CHL1  H22A 3979   2.248   0.177   3.797  1.1910  0.3318  1.7122
   54CHL1  H22B 3980   2.252   0.354   3.794 -0.9341  2.3701  2.8971
   54CHL1   C23 3981   2.123   0.265   3.942 -0.0005 -0.0311 -0.2724
   54CHL1  H23A 3982   2.076   0.362   3.969 -0.0170 -0.4294  1.1720
   54CHL1  H23B 3983   2.042   0.189   3.949  1.1215 -1.2609 -0.3080
   54CHL1   C24 3984   2.214   0.234   4.061 -0.0189 -0.1872  0.4106
   54CHL1  H24A 3985   2.285   0.160   4.019  1.3975  0.1653  2.0975
   54CHL1  H24B 3986   2.255   0.334   4.086 -0.1299  0.4396 -1.7401
   54CHL1   C25 3987   2.155   0.174   4.192  1.2778  0.5273 -0.3928
   54CHL1   H25 3988   2.060   0.231   4.206  1.0699  0.0215  0.3182
   54CHL1   C26 3989   2.128   0.023   4.180  0.0982  0.6253 -1.1510
   54CHL1  H26A 3990   2.054   0.009   4.098 -0.0849 -0.5577 -0.8061
   54CHL1  H26B 3991   2.217  -0.038   4.153  0.2077  0.7408 -1.0518
   54CHL1  H26C 3992   2.094  -0.024   4.274 -0.9757 -0.2074 -1.9294
   54CHL1   C27 3993   2.243   0.212   4.315 -0.1597 -0.4586  1.0397
   54CHL1  H27A 3994   2.335   0.151   4.314 -0.3179 -0.7045  0.0442
   54CHL1  H27B 3995   2.268   0.319   4.332 -0.7520 -0.4118  1.6704
   54CHL1  H27C 3996   2.195   0.175   4.408  0.0321 -1.5482  0.7136
   55CHL1    C3 3997   0.394   1.387   2.495  0.3337 -0.8960  1.0337
   55CHL1    H3 3998   0.286   1.383   2.521 -0.4826 -1.2674 -1.9750
   55CHL1    O3 3999   0.404   1.400   2.355 -0.3848 -0.5104  0.3755
   55CHL1   H3' 4000   0.467   1.472   2.346 -1.2389  0.1482 -0.6036
   55CHL1    C4 4001   0.459   1.511   2.571  1.1540 -0.1334  0.5969
   55CHL1   H4A 4002   0.563   1.522   2.535  0.5191  1.8457 -0.7730
   55CHL1   H4B 4003   0.399   1.597   2.535  0.3044 -1.1716 -0.5645
   55CHL1    C5 4004   0.460   1.492   2.720  0.5364  0.4762 -0.7923
   55CHL1    C6 4005   0.405   1.582   2.803 -0.3191  0.5459 -0.1364
   55CHL1    H6 4006   0.357   1.668   2.752  0.1573  1.8943  1.5898
   55CHL1    C7 4007   0.399   1.578   2.949 -0.2772  1.1450  1.0660
   55CHL1   H7A 4008   0.421   1.672   3.005 -2.5729  3.5943 -1.7550
   55CHL1   H7B 4009   0.294   1.549   2.969 -0.8329 -0.3719 -3.0576
   55CHL1    C8 4010   0.492   1.467   2.999 -0.3054 -0.4467 -0.2621
   55CHL1    H8 4011   0.598   1.495   2.982 -0.6418  0.4302 -0.9697
   55CHL1   C14 4012   0.454   1.437   3.138  0.5088 -0.6839  0.0035
   55CHL1   H14 4013   0.352   1.394   3.140  0.3544 -0.3109  0.5483
   55CHL1   C15 4014   0.444   1.548   3.245  0.6859  0.2693  0.2489
   55CHL1  H15A 4015   0.534   1.612   3.229  1.1255 -0.9196 -2.6267
   55CHL1  H15B 4016   0.355   1.607   3.213 -1.9497 -4.9498 -3.6390
   55CHL1   C16 4017   0.442   1.483   3.382  0.6444 -0.4414  0.6947
   55CHL1  H16A 4018   0.513   1.528   3.455 -2.3776  3.5530  1.5615
   55CHL1  H16B 4019   0.339   1.482   3.425 -0.1372 -0.9696 -1.1211
   55CHL1   C17 4020   0.465   1.330   3.360 -0.3870  0.9292 -0.1750
   55CHL1   H17 4021   0.364   1.286   3.347  0.2505 -1.5128  2.2024
   55CHL1   C13 4022   0.529   1.324   3.211 -0.4961  0.4299 -0.7418
   55CHL1   C18 4023   0.681   1.365   3.230  0.0802 -0.5816 -0.2589
   55CHL1  H18A 4024   0.737   1.374   3.134 -0.0515 -0.1040 -0.2911
   55CHL1  H18B 4025   0.689   1.468   3.271  0.7983 -0.6363 -0.2493
   55CHL1  H18C 4026   0.735   1.294   3.297 -0.0876  1.1540  1.8149
   55CHL1   C12 4027   0.514   1.189   3.130  0.2115  0.3655 -0.4329
   55CHL1  H12A 4028   0.571   1.109   3.182 -1.2882 -1.0429 -0.8899
   55CHL1  H12B 4029   0.407   1.162   3.125  0.1658  0.6684 -1.4981
   55CHL1   C11 4030   0.559   1.223   2.988  0.0572 -0.3187  0.3110
   55CHL1  H11A 4031   0.668   1.242   2.992  0.7122 -3.6164  2.5072
   55CHL1  H11B 4032   0.541   1.138   2.919  0.9017  0.7445 -1.2675
   55CHL1    C9 4033   0.477   1.337   2.924 -0.3287 -0.2489 -0.5876
   55CHL1    H9 4034   0.371   1.303   2.921 -0.6669  0.8427 -1.2565
   55CHL1   C10 4035   0.512   1.359   2.776  0.6290  0.2725  0.5588
   55CHL1   C19 4036   0.664   1.348   2.753 -0.8590 -0.0372  0.4591
   55CHL1  H19A 4037   0.707   1.246   2.760  0.9715  0.4880 -1.7278
   55CHL1  H19B 4038   0.698   1.398   2.660  1.8120 -1.1933  0.7253
   55CHL1  H19C 4039   0.718   1.398   2.837 -1.5685  3.0713 -0.7839
   55CHL1    C1 4040   0.448   1.239   2.684  0.3204 -0.0520 -0.0707
   55CHL1   H1A 4041   0.504   1.151   2.721  0.8660  0.6581  0.8314
   55CHL1   H1B 4042   0.342   1.222   2.712  0.3875 -3.7825 -1.5064
   55CHL1    C2 4043   0.464   1.257   2.531  0.1145 -0.1224  0.1022
   55CHL1   H2A 4044   0.443   1.167   2.470  4.2039 -0.5261 -1.0180
   55CHL1   H2B 4045   0.571   1.282   2.513 -0.3074  1.4199 -0.4002
   55CHL1   C20 4046   0.525   1.244   3.477  0.2180  0.3663  0.3141
   55CHL1   H20 4047   0.578   1.157   3.433  1.7475  0.4820  1.8107
   55CHL1   C21 4048   0.400   1.203   3.558 -0.2475  0.0632 -0.2430
   55CHL1  H21A 4049   0.330   1.288   3.576  1.5295  1.8984 -1.5735
   55CHL1  H21B 4050   0.419   1.144   3.650 -1.2758  0.4666  0.2446
   55CHL1  H21C 4051   0.345   1.135   3.489 -0.0104  2.6198 -3.1935
   55CHL1   C22 4052   0.627   1.321   3.559  0.1590  0.1568 -0.1833
   55CHL1  H22A 4053   0.701   1.358   3.486  0.9268 -0.9243  0.0169
   55CHL1  H22B 4054   0.585   1.409   3.614  1.6948 -0.0760  1.4591
   55CHL1   C23 4055   0.687   1.236   3.673 -0.2866  0.1109  0.0397
   55CHL1  H23A 4056   0.619   1.179   3.739 -0.3089 -1.4634 -1.2935
   55CHL1  H23B 4057   0.747   1.156   3.625 -0.8566 -0.2477 -0.0770
   55CHL1   C24 4058   0.781   1.319   3.772  0.0127  0.0421  0.4886
   55CHL1  H24A 4059   0.854   1.378   3.711  0.1639 -1.0448 -0.4156
   55CHL1  H24B 4060   0.726   1.404   3.818 -1.0921 -0.0017 -0.6892
   55CHL1   C25 4061   0.876   1.246   3.867 -0.1761 -0.1720 -0.0654
   55CHL1   H25 4062   0.808   1.193   3.937 -1.7790  0.2912 -1.2006
   55CHL1   C26 4063   0.974   1.143   3.802 -0.2519 -0.1527  0.1828
   55CHL1  H26A 4064   0.926   1.051   3.763 -2.9852  1.1230  0.3038
   55CHL1  H26B 4065   1.022   1.182   3.710 -1.8264  1.5650  0.0451
   55CHL1  H26C 4066   1.048   1.121   3.883 -1.5442 -0.6758  1.2581
   55CHL1   C27 4067   0.968   1.345   3.953 -0.7136  0.0149  0.4824
   55CHL1  H27A 4068   0.907   1.414   4.015  0.6698 -0.3120  2.2719
   55CHL1  H27B 4069   1.025   1.280   4.023  0.2289  0.1949 -0.0990
   55CHL1  H27C 4070   1.039   1.395   3.884  0.1615 -0.1710  1.2245
   56CHL1    C3 4071   1.514   6.044   2.848 -0.6213 -0.2155 -0.1899
   56CHL1    H3 4072   1.540   5.957   2.912 -1.2853 -1.1645 -1.1699
   56CHL1    O3 4073   1.586   6.020   2.735  0.4167  0.2288 -0.5147
   56CHL1   H3' 4074   1.579   6.100   2.683  3.4764 -0.4182 -2.1879
   56CHL1    C4 4075   1.365   6.032   2.807  0.3200 -0.7190 -0.3604
   56CHL1   H4A 4076   1.360   6.079   2.706 -1.2795 -1.4268 -0.6290
   56CHL1   H4B 4077   1.345   5.925   2.785 -0.9446 -0.3392 -1.1572
   56CHL1    C5 4078   1.265   6.106   2.899 -0.0053  0.2060 -0.5922
   56CHL1    C6 4079   1.145   6.050   2.922  0.6381  0.5408  0.1685
   56CHL1    H6 4080   1.114   5.962   2.863 -0.4109  1.6548 -0.9878
   56CHL1    C7 4081   1.050   6.104   3.023 -0.2628 -0.0382 -0.3156
   56CHL1   H7A 4082   0.943   6.108   2.994 -0.4601  0.5587  0.4515
   56CHL1   H7B 4083   1.050   6.031   3.108 -0.0401  1.4739  1.0271
   56CHL1    C8 4084   1.089   6.240   3.085  0.3989  0.6109  0.4331
   56CHL1    H8 4085   1.051   6.318   3.015 -0.5296 -0.3061 -0.1209
   56CHL1   C14 4086   1.018   6.266   3.216  0.4684  0.1597 -0.6271
   56CHL1   H14 4087   1.067   6.200   3.290  1.3338 -0.7637 -1.9888
   56CHL1   C15 4088   0.866   6.227   3.230 -0.0425 -0.6406 -0.9871
   56CHL1  H15A 4089   0.818   6.267   3.138 -0.5271 -1.7884 -1.2557
   56CHL1  H15B 4090   0.851   6.117   3.231  2.8058 -1.1029 -1.2306
   56CHL1   C16 4091   0.821   6.301   3.359 -0.1389  0.7924  0.4890
   56CHL1  H16A 4092   0.738   6.371   3.335 -1.7641 -1.3494 -0.5685
   56CHL1  H16B 4093   0.796   6.220   3.431  0.3310 -0.5705 -0.8098
   56CHL1   C17 4094   0.953   6.379   3.408  0.1726  0.5566  0.2274
   56CHL1   H17 4095   1.014   6.306   3.465  1.4964  0.4296 -1.2776
   56CHL1   C13 4096   1.042   6.398   3.283  0.8953  0.2259  0.2027
   56CHL1   C18 4097   0.992   6.516   3.205 -0.5534  0.1662  0.0452
   56CHL1  H18A 4098   0.882   6.522   3.191 -0.6934 -0.3203  0.8633
   56CHL1  H18B 4099   1.014   6.612   3.257  0.8000 -0.3959  0.5483
   56CHL1  H18C 4100   1.048   6.521   3.109 -0.9452  3.3388 -0.1367
   56CHL1   C12 4101   1.196   6.419   3.308 -0.1878  0.2815  0.2621
   56CHL1  H12A 4102   1.231   6.516   3.350  1.1028 -0.5541  1.1883
   56CHL1  H12B 4103   1.217   6.338   3.381 -1.4612  0.7025  1.1323
   56CHL1   C11 4104   1.278   6.387   3.181  0.7926 -1.0838 -0.7312
   56CHL1  H11A 4105   1.257   6.471   3.111 -0.6325 -0.6573  0.1468
   56CHL1  H11B 4106   1.384   6.392   3.213  1.4023  1.0628 -2.7948
   56CHL1    C9 4107   1.234   6.258   3.109  0.3362 -0.0223  0.0286
   56CHL1    H9 4108   1.261   6.181   3.183 -0.3463  0.3824  0.7183
   56CHL1   C10 4109   1.324   6.227   2.980  0.3869  0.1733  0.0972
   56CHL1   C19 4110   1.309   6.346   2.869  0.1968 -0.4743 -0.7255
   56CHL1  H19A 4111   1.348   6.440   2.914 -1.2739 -0.0269 -0.3281
   56CHL1  H19B 4112   1.356   6.314   2.774  0.8208  1.3390 -1.0763
   56CHL1  H19C 4113   1.203   6.375   2.851  0.1829  0.6463  0.9235
   56CHL1    C1 4114   1.471   6.210   3.020  0.6124 -0.3704  0.0599
   56CHL1   H1A 4115   1.508   6.305   3.065  0.7878 -0.3026 -0.2194
   56CHL1   H1B 4116   1.482   6.129   3.095  1.7918 -0.9311 -0.6777
   56CHL1    C2 4117   1.562   6.168   2.903  0.0897 -0.4038 -0.3729
   56CHL1   H2A 4118   1.667   6.151   2.937  1.1640  0.7994 -2.8669
   56CHL1   H2B 4119   1.547   6.251   2.831  1.0275  0.9328  0.9161
   56CHL1   C20 4120   0.915   6.500   3.503  0.2478 -0.5256  1.1834
   56CHL1   H20 4121   0.863   6.579   3.444 -1.8794 -1.8745  1.1573
   56CHL1   C21 4122   1.037   6.564   3.577  0.5453  0.1109 -0.4504
   56CHL1  H21A 4123   1.005   6.657   3.629  0.2689 -0.9712  1.4242
   56CHL1  H21B 4124   1.121   6.585   3.507 -0.3222 -0.3929 -1.6598
   56CHL1  H21C 4125   1.077   6.496   3.656  1.0136  1.5453  0.6055
   56CHL1   C22 4126   0.805   6.465   3.605 -0.6803  0.0609 -0.3753
   56CHL1  H22A 4127   0.779   6.556   3.663 -0.8207 -2.5024  4.0202
   56CHL1  H22B 4128   0.712   6.430   3.555 -1.3401 -0.8286  1.3874
   56CHL1   C23 4129   0.855   6.353   3.698  0.3237  0.0946  0.0894
   56CHL1  H23A 4130   0.867   6.260   3.639 -0.3823 -0.1405  0.3090
   56CHL1  H23B 4131   0.953   6.369   3.748  0.0250 -0.8685  1.0261
   56CHL1   C24 4132   0.740   6.327   3.793  0.1107  0.1650  0.6880
   56CHL1  H24A 4133   0.739   6.417   3.858  1.8243  1.2720 -0.7414
   56CHL1  H24B 4134   0.645   6.309   3.738  1.2745 -2.4845 -0.6667
   56CHL1   C25 4135   0.772   6.203   3.877 -0.7925 -0.3015  1.0740
   56CHL1   H25 4136   0.858   6.146   3.836  1.1037  2.3467  1.1248
   56CHL1   C26 4137   0.812   6.229   4.024  0.2023  0.5505 -0.4162
   56CHL1  H26A 4138   0.917   6.267   4.025  1.0269 -1.3320 -3.0464
   56CHL1  H26B 4139   0.741   6.307   4.061  1.1232  0.8676  0.7469
   56CHL1  H26C 4140   0.794   6.141   4.089  3.0812 -1.0237 -1.5529
   56CHL1   C27 4141   0.645   6.113   3.879 -0.8976 -0.1018  0.5676
   56CHL1  H27A 4142   0.628   6.085   3.773  0.3468  0.5139  0.1839
   56CHL1  H27B 4143   0.657   6.024   3.944 -0.1465  1.0537  2.0909
   56CHL1  H27C 4144   0.559   6.175   3.914  0.2547  1.3063  1.0490
   57SAPC     N 4145   3.236   0.895   6.385 -0.2727  0.1408  0.7427
   57SAPC   C12 4146   3.331   1.009   6.338  0.0467  0.5542  0.0310
   57SAPC  H12A 4147   3.338   1.092   6.407 -1.3473  0.2289  0.5988
   57SAPC  H12B 4148   3.286   1.044   6.246  1.6282 -2.1417 -1.9331
   57SAPC   C13 4149   3.222   0.787   6.285  0.0643  0.2457 -0.6568
   57SAPC  H13A 4150   3.158   0.822   6.206 -2.7473 -0.1173  1.3251
   57SAPC  H13B 4151   3.311   0.760   6.229  0.2662  0.4062 -0.4181
   57SAPC  H13C 4152   3.167   0.707   6.332 -0.6596  1.2093  0.1961
   57SAPC   C14 4153   3.283   0.840   6.514  0.0630  0.5566  0.4122
   57SAPC  H14A 4154   3.230   0.751   6.545  0.5070  0.1846  0.1078
   57SAPC  H14B 4155   3.387   0.813   6.506  1.4434  4.3260  2.8986
   57SAPC  H14C 4156   3.265   0.902   6.601 -2.8538 -0.9658  1.0436
   57SAPC   C15 4157   3.101   0.945   6.414 -0.0436 -0.3423  0.3392
   57SAPC  H15A 4158   3.033   0.946   6.329 -0.2166 -1.2735  0.4562
   57SAPC  H15B 4159   3.063   0.877   6.488  3.6779 -0.8517  1.9653
   57SAPC  H15C 4160   3.101   1.046   6.451  1.0213 -0.0081 -0.5194
   57SAPC   C11 4161   3.474   0.973   6.294  0.0996  0.3482  0.2934
   57SAPC  H11A 4162   3.527   1.062   6.254  1.2673 -0.8474 -0.9254
   57SAPC  H11B 4163   3.473   0.897   6.213 -0.9748 -0.0959  0.7027
   57SAPC     P 4164   3.697   0.855   6.367 -0.1309  0.2746 -0.4351
   57SAPC   O13 4165   3.792   0.900   6.473 -0.0249  0.8553  0.2836
   57SAPC   O14 4166   3.673   0.714   6.348 -0.2552  0.5561 -0.5268
   57SAPC   O12 4167   3.557   0.924   6.405  0.2646 -0.2037  0.3704
   57SAPC   O11 4168   3.727   0.921   6.219 -0.1309 -0.0344 -0.2713
   57SAPC    C1 4169   3.836   0.849   6.152 -0.1148  0.0678  0.8059
   57SAPC    HA 4170   3.927   0.911   6.139  0.4215 -0.8175  0.2288
   57SAPC    HB 4171   3.874   0.756   6.201 -0.1170 -0.2135  0.2857
   57SAPC    C2 4172   3.797   0.810   6.005 -0.6526 -0.3087 -0.4131
   57SAPC    HS 4173   3.724   0.727   6.000  0.3207 -1.4417  2.4292
   57SAPC   O21 4174   3.922   0.778   5.937 -0.2543  0.3083 -0.2085
   57SAPC   C21 4175   3.982   0.665   5.970  0.2257 -0.0177 -0.9688
   57SAPC   O22 4176   3.937   0.581   6.048 -0.5573  0.5260  0.1979
   57SAPC   C22 4177   4.107   0.661   5.889 -0.0823 -0.3308 -0.3685
   57SAPC   H2R 4178   4.183   0.706   5.956  1.1164 -0.2703 -1.7186
   57SAPC   H2S 4179   4.142   0.557   5.871 -0.9356 -0.7587  0.3994
   57SAPC    C3 4180   3.736   0.924   5.929 -0.2927  0.5406  0.5507
   57SAPC    HX 4181   3.801   1.012   5.947  0.9431 -0.4711  1.2062
   57SAPC    HY 4182   3.633   0.947   5.962 -0.0071  1.3086  0.9239
   57SAPC   O31 4183   3.743   0.909   5.782  0.9195 -0.0923  0.1742
   57SAPC   C31 4184   3.647   0.834   5.732  0.1732  0.2838 -0.7176
   57SAPC   O32 4185   3.559   0.783   5.803  0.3496 -0.0433 -0.2221
   57SAPC   C32 4186   3.658   0.820   5.583  0.5582 -0.3425 -0.0235
   57SAPC   H2X 4187   3.601   0.907   5.544  0.7790  1.6434  3.5731
   57SAPC   H2Y 4188   3.605   0.725   5.558  0.3755  0.2201 -1.9230
   57SAPC   C23 4189   4.098   0.726   5.747  0.0946 -0.3926  0.5839
   57SAPC   H3R 4190   4.116   0.836   5.745  2.2947 -0.6969  1.2793
   57SAPC   H3S 4191   3.995   0.706   5.711 -0.5684  1.4663  1.3154
   57SAPC   C24 4192   4.169   0.655   5.635  0.0671  0.1819  0.1818
   57SAPC   H4R 4193   4.125   0.677   5.535  1.0679 -0.5659 -0.4470
   57SAPC   H4S 4194   4.158   0.544   5.644 -3.2090  0.3823  0.0946
   57SAPC   C25 4195   4.312   0.693   5.642 -0.4120  0.1992  0.2290
   57SAPC   H5R 4196   4.342   0.707   5.747 -0.6431 -0.6062  0.4120
   57SAPC   C26 4197   4.404   0.728   5.548 -0.5033 -0.3798  0.1756
   57SAPC   H6R 4198   4.504   0.766   5.573  0.2398 -1.6383 -0.8051
   57SAPC   C27 4199   4.366   0.716   5.400 -0.4301 -0.4951  0.2760
   57SAPC   H7R 4200   4.309   0.807   5.373  2.7638  1.6691  0.3327
   57SAPC   H7S 4201   4.294   0.633   5.379 -1.2751  0.2727  0.0842
   57SAPC   C28 4202   4.488   0.726   5.313 -1.0779 -0.3389 -0.2065
   57SAPC   H8R 4203   4.518   0.831   5.303 -0.6129 -0.2302  1.8683
   57SAPC   C29 4204   4.537   0.641   5.227  0.1884 -0.8946 -0.4922
   57SAPC   H9R 4205   4.631   0.672   5.181  0.2027 -1.9190 -1.1854
   57SAPC  C210 4206   4.495   0.500   5.201 -0.4007  0.4227 -0.3060
   57SAPC  H10R 4207   4.445   0.444   5.283 -2.0151  0.6397 -1.1039
   57SAPC  H10S 4208   4.589   0.441   5.200 -1.1192 -0.7511 -0.0967
   57SAPC  C211 4209   4.402   0.477   5.076 -0.5756  0.4133 -0.5727
   57SAPC  H11R 4210   4.294   0.482   5.096 -0.2926  2.9238  0.7683
   57SAPC  C212 4211   4.448   0.465   4.949  0.2601 -0.1982  0.1277
   57SAPC  H12R 4212   4.377   0.446   4.867 -2.2284 -1.0799  2.3468
   57SAPC  C213 4213   4.593   0.454   4.900 -0.4942  0.1828 -0.6806
   57SAPC  H13R 4214   4.657   0.450   4.990 -0.1693 -0.7927 -0.9363
   57SAPC  H13S 4215   4.618   0.548   4.847  2.9186 -1.2946 -2.0539
   57SAPC  C214 4216   4.638   0.335   4.816  0.1518 -0.0754  0.1313
   57SAPC  H14R 4217   4.719   0.274   4.859 -0.5597 -0.3592  1.1131
   57SAPC  C215 4218   4.590   0.296   4.695  0.4451  0.3380 -0.0418
   57SAPC  H15R 4219   4.633   0.209   4.643 -0.5483  0.7632 -1.6375
   57SAPC  C216 4220   4.482   0.361   4.614 -0.0977 -0.6998  0.0630
   57SAPC  H16R 4221   4.539   0.398   4.526  0.5932 -1.6556  0.0846
   57SAPC  H16S 4222   4.444   0.456   4.657 -1.3686  0.1540 -2.7456
   57SAPC  C217 4223   4.379   0.265   4.573  0.5238 -0.1116  0.1365
   57SAPC  H17R 4224   4.322   0.212   4.652  0.1184  0.5396  0.2887
   57SAPC  H17S 4225   4.421   0.177   4.520  0.6039 -0.3148  0.5372
   57SAPC  C218 4226   4.283   0.329   4.477 -0.8340 -0.1774  0.0352
   57SAPC  H18R 4227   4.209   0.260   4.433 -1.6442  0.9378 -0.4010
   57SAPC  H18S 4228   4.348   0.355   4.390  0.5193 -0.4555  0.9309
   57SAPC  C219 4229   4.199   0.446   4.530  0.7012 -0.0078  0.7833
   57SAPC  H19R 4230   4.139   0.490   4.449 -0.7053  1.0572  2.3360
   57SAPC  H19S 4231   4.260   0.536   4.553  0.8486  0.2557 -0.5728
   57SAPC  C220 4232   4.105   0.402   4.631  0.1821 -0.2181  0.6078
   57SAPC  H20R 4233   4.152   0.380   4.729 -1.0455 -0.9593  1.0656
   57SAPC  H20S 4234   4.056   0.309   4.592 -0.3945  1.4443 -3.0019
   57SAPC  H20T 4235   4.027   0.476   4.661 -1.0434 -1.4666  0.6345
   57SAPC   C33 4236   3.804   0.823   5.537 -0.0004  0.3046 -0.0493
   57SAPC   H3X 4237   3.864   0.734   5.567 -0.7336 -0.7920 -1.6991
   57SAPC   H3Y 4238   3.858   0.914   5.570 -1.0874  0.6465  0.8509
   57SAPC   C34 4239   3.800   0.812   5.375 -0.4138 -0.4501 -0.6508
   57SAPC   H4X 4240   3.736   0.886   5.322  0.6644  1.9690  1.2304
   57SAPC   H4Y 4241   3.771   0.709   5.345  0.1911 -0.1568 -2.3839
   57SAPC   C35 4242   3.934   0.850   5.306  0.0459 -0.0815 -0.6336
   57SAPC   H5X 4243   4.025   0.819   5.362 -0.0269  0.1509 -0.3877
   57SAPC   H5Y 4244   3.946   0.960   5.299 -1.6331  0.1222 -0.6017
   57SAPC   C36 4245   3.939   0.789   5.163 -0.4095  0.2053  0.8170
   57SAPC   H6X 4246   3.864   0.820   5.088  0.5203 -0.1909 -0.3164
   57SAPC   H6Y 4247   3.953   0.679   5.165 -0.6135  0.1895  1.4524
   57SAPC   C37 4248   4.062   0.849   5.086  0.3727 -0.4664  0.0665
   57SAPC   H7X 4249   4.161   0.849   5.137 -0.3891 -0.5432  1.5964
   57SAPC   H7Y 4250   4.033   0.955   5.099 -0.2405 -0.6716  0.4200
   57SAPC   C38 4251   4.084   0.800   4.935  0.8489  0.0759  0.3765
   57SAPC   H8X 4252   3.983   0.800   4.888  1.4800  2.1672 -1.0858
   57SAPC   H8Y 4253   4.106   0.691   4.943  1.0747  0.0178 -0.9441
   57SAPC   C39 4254   4.191   0.881   4.860 -0.5390  0.0218  0.0594
   57SAPC   H9X 4255   4.282   0.864   4.921 -0.8511 -0.8871  0.2904
   57SAPC   H9Y 4256   4.165   0.988   4.871 -1.1869 -0.2665  1.7560
   57SAPC  C310 4257   4.219   0.845   4.722  0.0257 -0.0952  0.7993
   57SAPC  H10X 4258   4.128   0.874   4.665 -0.1369  0.1924  1.2039
   57SAPC  H10Y 4259   4.234   0.735   4.713  0.0485 -0.1232  1.1574
   57SAPC  C311 4260   4.343   0.907   4.668 -0.4435  0.3452 -0.3802
   57SAPC  H11X 4261   4.424   0.887   4.742 -1.5358 -0.3014  0.6905
   57SAPC  H11Y 4262   4.326   1.017   4.679 -1.3052  0.0845  1.2863
   57SAPC  C312 4263   4.375   0.864   4.523 -0.3204 -0.6141 -0.2467
   57SAPC  H12X 4264   4.272   0.845   4.487 -0.6504  0.8098 -0.1304
   57SAPC  H12Y 4265   4.427   0.766   4.515 -0.3654 -0.5598 -1.4937
   57SAPC  C313 4266   4.453   0.970   4.447  0.2951 -0.4790 -0.0796
   57SAPC  H13X 4267   4.514   0.910   4.377 -2.4078 -3.2292 -0.2708
   57SAPC  H13Y 4268   4.520   1.023   4.518 -0.6203 -0.0548  0.4897
   57SAPC  C314 4269   4.366   1.076   4.370 -0.2996 -0.1103  0.1816
   57SAPC  H14X 4270   4.317   1.136   4.450 -3.5571 -1.5789 -0.5474
   57SAPC  H14Y 4271   4.276   1.030   4.323  1.0749 -2.9356  0.1239
   57SAPC  C315 4272   4.458   1.159   4.281 -0.1610  0.6182  0.7003
   57SAPC  H15X 4273   4.491   1.091   4.200 -1.1757  0.8497  0.0790
   57SAPC  H15Y 4274   4.547   1.187   4.341  0.6082 -0.0379 -0.1031
   57SAPC  C316 4275   4.398   1.281   4.228 -0.0799 -0.1489  0.6115
   57SAPC  H16X 4276   4.334   1.333   4.302 -1.3080 -0.7908  0.0378
   57SAPC  H16Y 4277   4.315   1.253   4.160  1.6466  0.2287 -1.8090
   57SAPC  C317 4278   4.501   1.378   4.170  0.1615 -0.3650 -0.1432
   57SAPC  H17X 4279   4.580   1.334   4.106  0.1579  1.0782 -1.1967
   57SAPC  H17Y 4280   4.546   1.428   4.259 -1.5261 -1.6741  1.5191
   57SAPC  C318 4281   4.442   1.483   4.069  0.7559 -0.1304 -0.4592
   57SAPC  H18X 4282   4.520   1.559   4.050 -0.2652  0.0755 -4.8181
   57SAPC  H18Y 4283   4.364   1.540   4.124  0.1310 -2.0189  0.7216
   57SAPC  H18Z 4284   4.409   1.440   3.972 -2.8026 -0.6411  0.8022
   58SAPC     N 4285   1.583   4.216   6.531  0.0261  0.0823 -0.1898
   58SAPC   C12 4286   1.548   4.278   6.397  0.5650 -0.0587 -0.1573
   58SAPC  H12A 4287   1.484   4.364   6.416 -0.0430 -0.5017 -0.1629
   58SAPC  H12B 4288   1.495   4.214   6.328  0.3723  0.7268 -0.7659
   58SAPC   C13 4289   1.676   4.306   6.608 -0.4465  0.3071  0.2011
   58SAPC  H13A 4290   1.617   4.396   6.622 -2.0623 -0.4111 -1.6075
   58SAPC  H13B 4291   1.712   4.264   6.701  2.3663 -1.4502 -1.5442
   58SAPC  H13C 4292   1.763   4.324   6.546  0.3794  1.2960  1.5879
   58SAPC   C14 4293   1.460   4.189   6.609 -0.5027 -0.1431 -0.0277
   58SAPC  H14A 4294   1.377   4.143   6.557 -2.3855 -0.1506  2.7070
   58SAPC  H14B 4295   1.479   4.122   6.692 -1.7380  0.4026  0.7207
   58SAPC  H14C 4296   1.413   4.276   6.653  0.7694 -0.0943  1.2905
   58SAPC   C15 4297   1.656   4.087   6.496  0.3379  0.3907  0.1438
   58SAPC  H15A 4298   1.673   4.023   6.582  0.9639 -2.2078 -1.7784
   58SAPC  H15B 4299   1.598   4.026   6.428 -1.9877  1.2662  1.2159
   58SAPC  H15C 4300   1.756   4.107   6.462  0.1956  0.2271 -0.3764
   58SAPC   C11 4301   1.663   4.337   6.307 -0.8519  0.2755 -0.5433
   58SAPC  H11A 4302   1.620   4.366   6.209  0.5745 -0.5811 -1.4657
   58SAPC  H11B 4303   1.734   4.254   6.286 -0.1216  1.4309 -2.9812
   58SAPC     P 4304   1.679   4.587   6.358  0.3439 -0.4713  0.0606
   58SAPC   O13 4305   1.693   4.653   6.223 -0.7001  0.0639  0.5284
   58SAPC   O14 4306   1.544   4.579   6.419  0.2289  0.6869  0.1311
   58SAPC   O12 4307   1.739   4.444   6.360  0.4629  0.3434  0.3809
   58SAPC   O11 4308   1.778   4.659   6.456  0.5273 -0.1194 -0.7527
   58SAPC    C1 4309   1.913   4.613   6.455  0.5183 -0.0526  0.5324
   58SAPC    HA 4310   1.941   4.555   6.545  0.9416  1.4078  1.3785
   58SAPC    HB 4311   1.938   4.559   6.361 -2.4263  0.7675 -0.8579
   58SAPC    C2 4312   2.003   4.742   6.459  0.4978  0.1985 -0.5370
   58SAPC    HS 4313   1.972   4.786   6.556  2.7684 -1.2612  0.9171
   58SAPC   O21 4314   1.977   4.832   6.352 -0.3574  0.7718 -0.1218
   58SAPC   C21 4315   1.991   4.960   6.368  0.8459  0.0818 -0.7354
   58SAPC   O22 4316   2.030   5.013   6.473  0.2482 -0.5829 -0.1389
   58SAPC   C22 4317   1.965   5.024   6.232 -0.2867 -0.0389  0.0648
   58SAPC   H2R 4318   2.030   4.982   6.151  0.3850  4.4967 -2.0260
   58SAPC   H2S 4319   1.857   5.013   6.210  0.2636 -1.1326 -2.6011
   58SAPC    C3 4320   2.160   4.720   6.469 -0.3840  0.2692 -0.2728
   58SAPC    HX 4321   2.180   4.667   6.565  0.2742  0.4738 -0.2899
   58SAPC    HY 4322   2.186   4.826   6.489 -2.1970  0.5490  0.8506
   58SAPC   O31 4323   2.217   4.660   6.347  0.2539  0.2083 -0.2126
   58SAPC   C31 4324   2.343   4.696   6.340 -0.2723 -0.0421 -0.2972
   58SAPC   O32 4325   2.402   4.760   6.429 -0.4343 -0.3233  0.1447
   58SAPC   C32 4326   2.418   4.631   6.222 -0.8349 -0.2735 -0.0105
   58SAPC   H2X 4327   2.386   4.684   6.129 -1.9570  1.9402  1.5314
   58SAPC   H2Y 4328   2.398   4.523   6.212 -2.3176  0.0418 -0.6871
   58SAPC   C23 4329   1.986   5.175   6.229  0.5092  0.0311 -0.2328
   58SAPC   H3R 4330   2.080   5.204   6.281 -0.2914  0.6036  0.9308
   58SAPC   H3S 4331   1.898   5.229   6.270 -1.4085 -0.6201 -3.1604
   58SAPC   C24 4332   1.999   5.231   6.087 -0.6553  0.2066  0.4448
   58SAPC   H4R 4333   2.006   5.342   6.095  1.3550  0.2704 -1.3603
   58SAPC   H4S 4334   1.898   5.210   6.044 -0.1410 -2.0846  0.2262
   58SAPC   C25 4335   2.113   5.182   5.992  0.0872 -0.8372 -0.6729
   58SAPC   H5R 4336   2.180   5.107   6.037  1.0802  0.7720  0.6665
   58SAPC   C26 4337   2.141   5.240   5.868 -0.2915  0.1117 -0.4558
   58SAPC   H6R 4338   2.219   5.205   5.799  0.8248  3.2744 -0.9898
   58SAPC   C27 4339   2.048   5.344   5.803  0.4995 -0.2107 -0.0894
   58SAPC   H7R 4340   1.987   5.400   5.877 -2.3023  1.4201 -3.3910
   58SAPC   H7S 4341   1.959   5.297   5.755 -0.5880  2.2665 -0.6373
   58SAPC   C28 4342   2.115   5.448   5.716  0.8844  0.4205 -0.5278
   58SAPC   H8R 4343   2.203   5.490   5.767 -0.1829  1.4689  0.5243
   58SAPC   C29 4344   2.084   5.479   5.590 -0.3045  0.0867  0.0525
   58SAPC   H9R 4345   2.139   5.563   5.544 -2.6785  1.2842 -0.7877
   58SAPC  C210 4346   1.963   5.432   5.508  0.1630  0.2101  0.0731
   58SAPC  H10R 4347   1.912   5.519   5.461 -1.5781 -1.3518 -1.1214
   58SAPC  H10S 4348   1.880   5.389   5.568 -0.8457  1.8358 -0.0887
   58SAPC  C211 4349   1.998   5.319   5.410  0.2096 -0.7685  0.5625
   58SAPC  H11R 4350   2.059   5.241   5.458  2.0457  0.3283  0.1022
   58SAPC  C212 4351   1.961   5.310   5.280 -0.0076 -0.5535 -0.0507
   58SAPC  H12R 4352   1.992   5.219   5.226  0.3721  0.2368 -1.1924
   58SAPC  C213 4353   1.865   5.398   5.206  0.5610  0.5043  0.1864
   58SAPC  H13R 4354   1.810   5.461   5.279 -4.9168 -0.9877 -2.1088
   58SAPC  H13S 4355   1.795   5.327   5.158  1.6403  0.7475 -1.8792
   58SAPC  C214 4356   1.936   5.481   5.100 -0.4598  0.6296  0.5621
   58SAPC  H14R 4357   1.942   5.588   5.125 -0.8179  0.3425  1.9831
   58SAPC  C215 4358   1.990   5.433   4.989  0.0630 -0.3629  0.6241
   58SAPC  H15R 4359   2.042   5.498   4.917 -1.0668 -2.5898 -2.3876
   58SAPC  C216 4360   1.998   5.292   4.935  0.6623  0.3813  0.9224
   58SAPC  H16R 4361   1.977   5.215   5.013  1.6677  1.7327  2.6034
   58SAPC  H16S 4362   2.102   5.267   4.907  0.6069 -0.2186  1.2375
   58SAPC  C217 4363   1.905   5.257   4.823 -0.4554 -0.2580  0.2635
   58SAPC  H17R 4364   1.808   5.304   4.850 -0.4387  0.8322 -1.3939
   58SAPC  H17S 4365   1.886   5.148   4.816  2.2578 -0.7874 -0.1149
   58SAPC  C218 4366   1.958   5.289   4.684  0.3108  0.5600  0.3269
   58SAPC  H18R 4367   1.888   5.241   4.612  1.3026  0.4124 -0.5501
   58SAPC  H18S 4368   2.057   5.248   4.656 -0.0439  0.9297 -1.5833
   58SAPC  C219 4369   1.973   5.439   4.653 -0.3385  0.7024  0.8339
   58SAPC  H19R 4370   2.012   5.453   4.550  0.2661  1.2168  1.1260
   58SAPC  H19S 4371   2.047   5.488   4.720 -0.5316  0.2293  1.3993
   58SAPC  C220 4372   1.839   5.512   4.657  0.2641  0.1153  0.2565
   58SAPC  H20R 4373   1.760   5.440   4.628 -0.1764 -0.9343  3.6049
   58SAPC  H20S 4374   1.833   5.605   4.598 -0.9705  0.6883  1.2436
   58SAPC  H20T 4375   1.806   5.550   4.757  0.3633 -1.2277  0.8225
   58SAPC   C33 4376   2.574   4.642   6.234  0.2296 -0.3217  0.0731
   58SAPC   H3X 4377   2.604   4.589   6.327  1.8051 -2.7257 -1.6972
   58SAPC   H3Y 4378   2.615   4.746   6.230 -1.0711  0.3144  1.7773
   58SAPC   C34 4379   2.631   4.581   6.105 -0.3086 -0.2126 -0.8116
   58SAPC   H4X 4380   2.574   4.487   6.092  1.0992 -1.1647 -0.3414
   58SAPC   H4Y 4381   2.740   4.568   6.126  0.0596  2.9250 -0.2309
   58SAPC   C35 4382   2.625   4.673   5.985 -0.1276 -0.6699 -0.7990
   58SAPC   H5X 4383   2.693   4.754   6.019 -2.2058  0.6326  0.5637
   58SAPC   H5Y 4384   2.524   4.720   5.972  0.9511  1.5974 -1.6715
   58SAPC   C36 4385   2.669   4.608   5.858  0.1331 -0.1627  1.0099
   58SAPC   H6X 4386   2.607   4.521   5.825 -0.0186  0.6959 -1.1354
   58SAPC   H6Y 4387   2.773   4.573   5.874 -0.1822 -1.1948  0.9173
   58SAPC   C37 4388   2.666   4.706   5.737 -0.4211  0.0813  0.0841
   58SAPC   H7X 4389   2.740   4.783   5.767 -2.3741  2.2036 -0.2557
   58SAPC   H7Y 4390   2.571   4.764   5.739 -0.9925 -0.8611  1.0855
   58SAPC   C38 4391   2.688   4.638   5.599 -1.0993  0.1777  0.2974
   58SAPC   H8X 4392   2.641   4.538   5.586  0.1241 -0.4052  0.2527
   58SAPC   H8Y 4393   2.798   4.627   5.592 -0.8507  1.6117  1.4274
   58SAPC   C39 4394   2.646   4.737   5.487  0.6136 -0.2003  0.3179
   58SAPC   H9X 4395   2.681   4.843   5.486  1.0105 -0.3152  1.0828
   58SAPC   H9Y 4396   2.536   4.742   5.506  0.5482  1.1084 -0.2746
   58SAPC  C310 4397   2.657   4.674   5.346  0.0104 -0.3746 -0.2297
   58SAPC  H10X 4398   2.579   4.596   5.333 -2.2060  1.9110 -1.5029
   58SAPC  H10Y 4399   2.764   4.648   5.329  0.3241  1.1324 -0.6570
   58SAPC  C311 4400   2.621   4.777   5.245  0.0945 -0.3382  0.4280
   58SAPC  H11X 4401   2.690   4.865   5.247 -2.6696  2.3357 -4.2176
   58SAPC  H11Y 4402   2.525   4.826   5.274 -0.2873 -1.4831  1.1729
   58SAPC  C312 4403   2.616   4.726   5.098 -0.3231 -0.0890 -0.4321
   58SAPC  H12X 4404   2.547   4.640   5.082  0.5399 -0.6938 -0.9774
   58SAPC  H12Y 4405   2.719   4.699   5.067 -0.5388 -1.3100 -0.1178
   58SAPC  C313 4406   2.562   4.837   5.012  0.3604 -0.2514  0.4808
   58SAPC  H13X 4407   2.627   4.921   5.045  0.7162 -1.0109  1.8199
   58SAPC  H13Y 4408   2.460   4.871   5.041  0.7012  0.1885  1.2221
   58SAPC  C314 4409   2.563   4.819   4.863  0.3600  0.2242 -0.0010
   58SAPC  H14X 4410   2.494   4.740   4.828 -0.8130  1.4665 -0.5950
   58SAPC  H14Y 4411   2.664   4.785   4.831 -1.1815 -2.3207 -2.6643
   58SAPC  C315 4412   2.522   4.954   4.787  0.2928  0.0249  0.0516
   58SAPC  H15X 4413   2.591   5.037   4.814 -0.1756 -0.1419  1.8886
   58SAPC  H15Y 4414   2.423   4.980   4.828  0.6331 -0.5933  1.3172
   58SAPC  C316 4415   2.496   4.936   4.638  0.0107  0.4167 -0.7258
   58SAPC  H16X 4416   2.451   4.837   4.614 -3.2696  2.0529 -1.8404
   58SAPC  H16Y 4417   2.583   4.943   4.569 -1.7847  2.3849 -2.9729
   58SAPC  C317 4418   2.394   5.048   4.598  0.4560  0.7587 -0.1343
   58SAPC  H17X 4419   2.443   5.146   4.615  1.2590  0.7805 -2.3126
   58SAPC  H17Y 4420   2.305   5.037   4.664 -0.0839 -0.3705 -1.0175
   58SAPC  C318 4421   2.360   5.046   4.450 -0.0631 -0.0006 -0.3342
   58SAPC  H18X 4422   2.328   4.944   4.418 -0.3545  0.6374 -2.1792
   58SAPC  H18Y 4423   2.437   5.059   4.371 -0.0261 -1.8885 -0.6508
   58SAPC  H18Z 4424   2.278   5.117   4.426  0.0397 -0.3434 -1.8025
   59SAPC     N 4425   5.432   0.252   6.170  0.8452 -0.0969 -0.9039
   59SAPC   C12 4426   5.377   0.334   6.056  0.1236  0.0136 -0.1717
   59SAPC  H12A 4427   5.409   0.292   5.962  0.9521  0.5023 -0.1229
   59SAPC  H12B 4428   5.416   0.434   6.068  1.2149 -0.1336 -2.1987
   59SAPC   C13 4429   5.369   0.276   6.304  0.0376 -0.0280 -0.3912
   59SAPC  H13A 4430   5.276   0.221   6.306  0.8073 -1.4053  2.1283
   59SAPC  H13B 4431   5.430   0.250   6.389 -1.2155 -0.9201  0.2697
   59SAPC  H13C 4432   5.341   0.378   6.327  0.1955 -0.3035  1.1210
   59SAPC   C14 4433   5.420   0.105   6.139  0.4526  0.2830 -0.0230
   59SAPC  H14A 4434   5.314   0.084   6.149  0.7929 -1.4045  0.4462
   59SAPC  H14B 4435   5.452   0.082   6.039  0.5673  1.5927 -0.2989
   59SAPC  H14C 4436   5.472   0.039   6.207 -1.4220  0.1124  1.3303
   59SAPC   C15 4437   5.579   0.282   6.183 -0.0895  0.5283  0.4457
   59SAPC  H15A 4438   5.626   0.289   6.086 -0.9281 -0.3758 -0.0476
   59SAPC  H15B 4439   5.587   0.379   6.230  1.0272  0.7037 -0.0876
   59SAPC  H15C 4440   5.634   0.211   6.243 -0.1323  0.0360 -0.0927
   59SAPC   C11 4441   5.222   0.347   6.057 -0.2844 -0.6406 -0.0715
   59SAPC  H11A 4442   5.171   0.257   6.097 -2.9656 -0.0687 -1.9109
   59SAPC  H11B 4443   5.206   0.356   5.948  0.9361 -1.1184 -0.3023
   59SAPC     P 4444   5.172   0.598   6.083  0.0267  0.2889 -0.0579
   59SAPC   O13 4445   5.069   0.657   6.173 -0.2817  0.3959  0.4765
   59SAPC   O14 4446   5.305   0.672   6.080 -0.1407  0.1029 -0.0393
   59SAPC   O12 4447   5.194   0.458   6.137  0.4834  0.2489  0.1911
   59SAPC   O11 4448   5.122   0.575   5.933 -0.0743  0.0651 -0.1235
   59SAPC    C1 4449   4.982   0.588   5.903 -0.0257  0.0867 -0.0757
   59SAPC    HA 4450   4.931   0.661   5.969  0.2677  0.2083  0.0201
   59SAPC    HB 4451   4.973   0.618   5.797 -1.1128  1.5918  0.4125
   59SAPC    C2 4452   4.904   0.455   5.921  0.1437 -0.4666 -0.5081
   59SAPC    HS 4453   4.899   0.442   6.032 -3.7389 -0.9365 -0.6152
   59SAPC   O21 4454   4.975   0.342   5.863 -0.0328 -0.5084  0.4942
   59SAPC   C21 4455   4.949   0.224   5.903 -0.4478  0.9397  0.0003
   59SAPC   O22 4456   4.865   0.187   5.983 -0.3087 -0.1639  0.1830
   59SAPC   C22 4457   5.023   0.120   5.809  0.4842 -0.7534  0.0953
   59SAPC   H2R 4458   5.122   0.169   5.801  0.3591 -0.3235  0.9819
   59SAPC   H2S 4459   5.039   0.031   5.874  2.8783  1.2602  2.4851
   59SAPC    C3 4460   4.759   0.466   5.865 -0.1966 -0.0987  0.5724
   59SAPC    HX 4461   4.703   0.555   5.902 -0.4089 -0.2015  0.4987
   59SAPC    HY 4462   4.705   0.378   5.906 -1.6847  0.1086 -0.8100
   59SAPC   O31 4463   4.762   0.466   5.723 -0.4643 -0.8557  0.1811
   59SAPC   C31 4464   4.746   0.583   5.662  0.0220  0.0088  0.3484
   59SAPC   O32 4465   4.739   0.688   5.721  0.4609 -0.1133 -0.1670
   59SAPC   C32 4466   4.764   0.574   5.515 -0.3126  0.1515 -0.7775
   59SAPC   H2X 4467   4.801   0.674   5.482  2.3612 -0.7477 -0.7221
   59SAPC   H2Y 4468   4.671   0.538   5.466 -1.2250  1.1585  0.1491
   59SAPC   C23 4469   4.969   0.089   5.665 -0.6038 -0.4716  0.0772
   59SAPC   H3R 4470   4.952   0.180   5.603  0.9416 -0.7220 -0.7715
   59SAPC   H3S 4471   4.871   0.048   5.698 -0.8688  1.3331  1.7120
   59SAPC   C24 4472   5.046  -0.005   5.579 -0.5852 -0.3623  0.1276
   59SAPC   H4R 4473   4.984  -0.034   5.491 -1.3042 -2.3909  1.2212
   59SAPC   H4S 4474   5.047  -0.099   5.638 -0.5662 -0.7811 -0.5273
   59SAPC   C25 4475   5.181   0.038   5.533 -0.5009 -0.3015 -0.1464
   59SAPC   H5R 4476   5.257   0.051   5.611  0.1604 -0.5969 -0.7317
   59SAPC   C26 4477   5.224   0.049   5.403  0.6578 -0.4587  0.2629
   59SAPC   H6R 4478   5.326   0.083   5.380 -0.0470  1.6375  0.0519
   59SAPC   C27 4479   5.151   0.041   5.275 -0.4919 -0.6081 -0.7195
   59SAPC   H7R 4480   5.071  -0.036   5.273 -4.3704  2.9552  1.1414
   59SAPC   H7S 4481   5.227   0.022   5.197  2.8494 -1.3473  2.4470
   59SAPC   C28 4482   5.073   0.167   5.235 -0.3464  0.0808 -0.8982
   59SAPC   H8R 4483   5.009   0.197   5.320  1.1953 -0.7569  0.6378
   59SAPC   C29 4484   5.086   0.244   5.125  0.4729  0.4981 -0.0601
   59SAPC   H9R 4485   5.041   0.344   5.124  0.5183  0.5552  1.3708
   59SAPC  C210 4486   5.171   0.211   5.000 -0.1456  0.0644 -0.3697
   59SAPC  H10R 4487   5.262   0.154   5.029  0.1495 -0.0366 -1.4338
   59SAPC  H10S 4488   5.206   0.305   4.953  1.3061 -0.6799 -0.8173
   59SAPC  C211 4489   5.102   0.110   4.911  0.7192 -0.0333  0.1191
   59SAPC  H11R 4490   5.052   0.036   4.975 -1.7989  1.0677 -0.4769
   59SAPC  C212 4491   5.085   0.107   4.783  0.2696  0.3372  0.6211
   59SAPC  H12R 4492   5.038   0.017   4.741 -0.1096  0.0440  1.6270
   59SAPC  C213 4493   5.141   0.213   4.691 -0.1515 -0.4191  0.6502
   59SAPC  H13R 4494   5.225   0.272   4.733 -0.1316  1.1573 -1.4295
   59SAPC  H13S 4495   5.056   0.284   4.680 -0.6411 -1.2203 -1.0711
   59SAPC  C214 4496   5.172   0.160   4.549 -0.2412  0.1003 -0.3384
   59SAPC  H14R 4497   5.278   0.167   4.520  0.0216 -0.2197  0.5270
   59SAPC  C215 4498   5.078   0.110   4.458 -0.3431 -0.4737  0.0999
   59SAPC  H15R 4499   5.111   0.076   4.359 -1.7068  1.0692 -0.9495
   59SAPC  C216 4500   4.928   0.104   4.485  0.1756  0.3202  0.5598
   59SAPC  H16R 4501   4.877   0.195   4.446  0.1236  0.3899  0.7899
   59SAPC  H16S 4502   4.913   0.102   4.595 -1.6812 -0.8534  0.3376
   59SAPC  C217 4503   4.869  -0.028   4.428 -0.8803 -0.1270  0.3411
   59SAPC  H17R 4504   4.911  -0.126   4.461  0.6728  0.1841 -0.6093
   59SAPC  H17S 4505   4.897  -0.034   4.321  0.2497 -0.6855  0.6510
   59SAPC  C218 4506   4.719  -0.023   4.442 -0.8870  0.1874  0.3424
   59SAPC  H18R 4507   4.676   0.068   4.394 -1.1589 -0.2648 -0.2801
   59SAPC  H18S 4508   4.685  -0.005   4.546  0.8809 -0.7340  1.1150
   59SAPC  C219 4509   4.652  -0.155   4.396  0.2342  0.0590 -0.0864
   59SAPC  H19R 4510   4.676  -0.240   4.463 -0.1335  0.8548  1.0900
   59SAPC  H19S 4511   4.692  -0.182   4.296  1.2523  0.8678  0.0902
   59SAPC  C220 4512   4.500  -0.137   4.393 -0.0952  0.7815 -1.0324
   59SAPC  H20R 4513   4.479  -0.077   4.302 -0.4516  2.1668 -0.0630
   59SAPC  H20S 4514   4.456  -0.081   4.478  0.0071  0.9744 -1.1070
   59SAPC  H20T 4515   4.444  -0.231   4.371 -0.8374  0.5440  1.5867
   59SAPC   C33 4516   4.877   0.471   5.477 -0.1240 -0.6501  0.7066
   59SAPC   H3X 4517   4.873   0.467   5.366 -3.5654  2.8869  0.4982
   59SAPC   H3Y 4518   4.854   0.370   5.519 -1.3152 -0.4442  0.5888
   59SAPC   C34 4519   5.023   0.520   5.515 -0.5565  1.1776 -0.1614
   59SAPC   H4X 4520   5.047   0.464   5.608 -1.7328 -0.4712 -0.7997
   59SAPC   H4Y 4521   5.014   0.629   5.532  0.2061  0.9470  1.9827
   59SAPC   C35 4522   5.130   0.490   5.413  0.5271 -0.0612  0.1082
   59SAPC   H5X 4523   5.102   0.520   5.310  1.2126  0.7111  0.1353
   59SAPC   H5Y 4524   5.146   0.380   5.401 -0.0120  0.0330 -1.8185
   59SAPC   C36 4525   5.270   0.558   5.438  0.1264  0.0861  0.0151
   59SAPC   H6X 4526   5.317   0.502   5.522 -0.6659 -0.7305 -0.0741
   59SAPC   H6Y 4527   5.257   0.661   5.478  2.5124  0.5737 -0.3059
   59SAPC   C37 4528   5.376   0.557   5.330 -0.0557 -0.0957 -0.1584
   59SAPC   H7X 4529   5.474   0.592   5.370 -1.0815  3.1260 -0.2241
   59SAPC   H7Y 4530   5.338   0.623   5.249 -0.4287 -1.0774 -0.7953
   59SAPC   C38 4531   5.403   0.417   5.274 -0.7273  0.3234  0.1736
   59SAPC   H8X 4532   5.306   0.366   5.256  0.0299 -1.0946 -0.0498
   59SAPC   H8Y 4533   5.451   0.356   5.354  2.0511  1.3602 -0.5832
   59SAPC   C39 4534   5.486   0.416   5.142  0.0457 -0.7320  0.8345
   59SAPC   H9X 4535   5.475   0.316   5.095 -1.6537  0.6045 -1.8836
   59SAPC   H9Y 4536   5.592   0.436   5.166  0.1299  0.2384 -0.2774
   59SAPC  C310 4537   5.446   0.518   5.031 -0.0724  0.2342  0.0346
   59SAPC  H10X 4538   5.461   0.622   5.068 -0.7076  0.7261 -1.0349
   59SAPC  H10Y 4539   5.338   0.504   5.011  0.2622 -2.1471 -0.3284
   59SAPC  C311 4540   5.521   0.491   4.901 -0.0102 -0.5944 -0.0410
   59SAPC  H11X 4541   5.485   0.391   4.872 -2.5128  0.1386  0.2809
   59SAPC  H11Y 4542   5.631   0.497   4.918  0.1656 -2.7826 -0.1887
   59SAPC  C312 4543   5.481   0.607   4.799 -0.1529  0.4427  0.0646
   59SAPC  H12X 4544   5.544   0.696   4.819  1.8277 -1.1819  1.5138
   59SAPC  H12Y 4545   5.371   0.623   4.805 -0.5143 -1.4935 -0.7592
   59SAPC  C313 4546   5.513   0.562   4.657 -0.3879  0.3657  0.6605
   59SAPC  H13X 4547   5.471   0.459   4.650  0.2282  0.0207  1.7622
   59SAPC  H13Y 4548   5.621   0.536   4.649 -0.3147  0.8017  0.1138
   59SAPC  C314 4549   5.460   0.645   4.542  0.2690  0.7967 -0.2753
   59SAPC  H14X 4550   5.356   0.673   4.569  0.6180  1.1604  0.7451
   59SAPC  H14Y 4551   5.467   0.593   4.444  1.4152  0.2291  0.0910
   59SAPC  C315 4552   5.541   0.768   4.524 -0.6548 -0.3279 -0.6190
   59SAPC  H15X 4553   5.648   0.743   4.510  0.5162  2.6837  1.7155
   59SAPC  H15Y 4554   5.540   0.829   4.617  0.1593 -1.5805  0.2397
   59SAPC  C316 4555   5.488   0.837   4.395  1.1769  0.0460  0.2218
   59SAPC  H16X 4556   5.398   0.899   4.419  0.3823  0.0435 -2.4430
   59SAPC  H16Y 4557   5.466   0.773   4.307  0.9503  1.2221 -0.5986
   59SAPC  C317 4558   5.592   0.930   4.336 -0.2383  0.0936  0.6389
   59SAPC  H17X 4559   5.670   0.863   4.295  0.3907  1.3354 -0.2678
   59SAPC  H17Y 4560   5.652   0.986   4.412  2.2650 -1.8901  0.2732
   59SAPC  C318 4561   5.545   1.020   4.217  0.2180 -0.0633 -0.6512
   59SAPC  H18X 4562   5.483   1.101   4.261  1.0714  0.5947 -0.6393
   59SAPC  H18Y 4563   5.484   0.962   4.144  0.2337  1.1427 -1.6570
   59SAPC  H18Z 4564   5.630   1.071   4.167 -0.5084  1.2398 -0.6040
   60SAPC     N 4565   0.422   2.170   6.818 -1.4307 -0.4116 -0.2108
   60SAPC   C12 4566   0.412   2.276   6.714  0.2132  0.3164 -0.7641
   60SAPC  H12A 4567   0.505   2.331   6.722 -0.5318  1.4861  0.0699
   60SAPC  H12B 4568   0.334   2.345   6.739  0.9398  1.2844 -1.1043
   60SAPC   C13 4569   0.530   2.070   6.788 -0.0196  0.6262 -0.1148
   60SAPC  H13A 4570   0.628   2.116   6.792  0.6188 -0.6703 -0.5677
   60SAPC  H13B 4571   0.532   1.987   6.856  1.7738  1.7436  1.3159
   60SAPC  H13C 4572   0.527   2.043   6.684  0.2928 -0.6886  0.2067
   60SAPC   C14 4573   0.465   2.235   6.955 -0.0102 -0.3918  0.2044
   60SAPC  H14A 4574   0.538   2.309   6.927  0.5236 -1.3287 -0.9670
   60SAPC  H14B 4575   0.374   2.284   6.988  0.4129  1.1921 -0.8460
   60SAPC  H14C 4576   0.501   2.172   7.035  2.0143  0.0387 -0.3075
   60SAPC   C15 4577   0.297   2.099   6.828  0.5809 -0.0609 -0.2115
   60SAPC  H15A 4578   0.271   2.050   6.736  1.6311 -0.9288 -0.0679
   60SAPC  H15B 4579   0.305   2.017   6.898 -0.4935 -0.6862 -0.8078
   60SAPC  H15C 4580   0.219   2.167   6.859  0.7074  0.5694 -1.2335
   60SAPC   C11 4581   0.388   2.237   6.570 -0.1098 -0.0940  0.2076
   60SAPC  H11A 4582   0.336   2.321   6.520 -2.6365 -1.4163  0.4430
   60SAPC  H11B 4583   0.306   2.162   6.564 -0.5943  0.5420 -1.7548
   60SAPC     P 4584   0.622   2.264   6.457 -0.5495 -0.2602 -0.0949
   60SAPC   O13 4585   0.698   2.323   6.570  0.3101  0.4468  0.0879
   60SAPC   O14 4586   0.707   2.185   6.363 -0.3541 -0.5466  0.3196
   60SAPC   O12 4587   0.499   2.177   6.509 -0.2496  0.1178 -0.0918
   60SAPC   O11 4588   0.557   2.374   6.372  0.0094  0.0321  0.2306
   60SAPC    C1 4589   0.447   2.358   6.277 -0.0232 -0.0951  0.2015
   60SAPC    HA 4590   0.365   2.297   6.319 -0.7104  0.5270 -0.2164
   60SAPC    HB 4591   0.401   2.458   6.262 -0.1121 -0.1596  0.0436
   60SAPC    C2 4592   0.487   2.302   6.136  0.0346 -0.3857 -0.0618
   60SAPC    HS 4593   0.540   2.206   6.155  0.3293 -0.4755 -1.2387
   60SAPC   O21 4594   0.571   2.395   6.063 -0.3910 -0.5896 -0.3098
   60SAPC   C21 4595   0.654   2.341   5.981  1.0508  0.5959  0.0444
   60SAPC   O22 4596   0.672   2.221   5.962 -0.1532  0.1824 -0.3557
   60SAPC   C22 4597   0.723   2.447   5.897 -0.0425 -0.1534  0.2008
   60SAPC   H2R 4598   0.781   2.512   5.965  0.6344  0.5339 -0.9951
   60SAPC   H2S 4599   0.793   2.374   5.851 -0.7634 -1.2286  0.7622
   60SAPC    C3 4600   0.362   2.263   6.053 -0.3336  0.3939  0.0644
   60SAPC    HX 4601   0.304   2.349   6.012  0.3528  0.6918 -0.3017
   60SAPC    HY 4602   0.297   2.204   6.121  0.2706  0.5301  0.7678
   60SAPC   O31 4603   0.401   2.183   5.941 -0.3586 -0.5929 -0.0305
   60SAPC   C31 4604   0.425   2.056   5.951  0.1963 -0.2742  0.2580
   60SAPC   O32 4605   0.405   1.991   6.049  0.0563 -0.1809 -0.3703
   60SAPC   C32 4606   0.483   2.005   5.813  0.1976  0.1163 -0.1518
   60SAPC   H2X 4607   0.469   1.895   5.820 -1.7665  0.2759 -0.9428
   60SAPC   H2Y 4608   0.589   2.038   5.809  0.2721 -0.1073 -0.0519
   60SAPC   C23 4609   0.627   2.516   5.792 -0.5488 -0.1903  0.1075
   60SAPC   H3R 4610   0.679   2.593   5.732  0.6815 -0.5522  0.6693
   60SAPC   H3S 4611   0.557   2.577   5.852 -1.3735  1.5001 -2.4094
   60SAPC   C24 4612   0.536   2.419   5.713  0.1672 -0.1881  0.5390
   60SAPC   H4R 4613   0.472   2.476   5.642  0.0580  1.4243  1.8736
   60SAPC   H4S 4614   0.461   2.367   5.777 -0.7214 -0.7935 -0.9459
   60SAPC   C25 4615   0.615   2.316   5.635 -0.8051 -0.5414 -0.5464
   60SAPC   H5R 4616   0.656   2.240   5.704 -2.3650  1.3534  2.6375
   60SAPC   C26 4617   0.653   2.322   5.505 -0.2409  0.1720  0.1567
   60SAPC   H6R 4618   0.709   2.240   5.458  2.9807  1.5176  1.3981
   60SAPC   C27 4619   0.610   2.425   5.405  0.0737 -0.0727  0.1579
   60SAPC   H7R 4620   0.693   2.449   5.335  0.4015 -1.2172  0.1336
   60SAPC   H7S 4621   0.586   2.525   5.447  0.6990  0.3197 -0.4086
   60SAPC   C28 4622   0.484   2.390   5.329 -0.2596 -0.0806 -0.5989
   60SAPC   H8R 4623   0.428   2.317   5.388  0.2653  1.2211  1.6318
   60SAPC   C29 4624   0.445   2.425   5.208  0.6115 -0.2411 -0.4746
   60SAPC   H9R 4625   0.356   2.377   5.164  0.7963 -0.9992 -0.0450
   60SAPC  C210 4626   0.520   2.515   5.120  1.1857  0.3249  0.0912
   60SAPC  H10R 4627   0.602   2.464   5.065  0.5781 -1.3459  0.6549
   60SAPC  H10S 4628   0.572   2.586   5.187  0.8166  0.1564  0.5604
   60SAPC  C211 4629   0.437   2.602   5.026  0.6701  0.8155  0.0087
   60SAPC  H11R 4630   0.414   2.705   5.057  0.6472  0.7438  0.2324
   60SAPC  C212 4631   0.383   2.549   4.914 -0.2733 -1.0999  1.2429
   60SAPC  H12R 4632   0.315   2.613   4.856 -0.2837 -1.1653  1.1840
   60SAPC  C213 4633   0.396   2.412   4.864  0.3000  0.5090  0.1183
   60SAPC  H13R 4634   0.435   2.345   4.944  1.5997 -0.2950 -1.1413
   60SAPC  H13S 4635   0.476   2.417   4.787 -0.9665  1.4007 -1.1729
   60SAPC  C214 4636   0.270   2.358   4.799 -0.1153 -0.3417  0.2212
   60SAPC  H14R 4637   0.208   2.310   4.876 -1.1704  1.3493  0.4749
   60SAPC  C215 4638   0.243   2.355   4.669  0.1566  0.0208  0.1618
   60SAPC  H15R 4639   0.145   2.315   4.637 -0.1606  0.9887 -0.0937
   60SAPC  C216 4640   0.328   2.413   4.558  0.5268  0.3190 -0.6561
   60SAPC  H16R 4641   0.423   2.464   4.587 -0.1660  0.9971  0.4747
   60SAPC  H16S 4642   0.267   2.497   4.519  1.2152  0.3398 -1.7424
   60SAPC  C217 4643   0.370   2.310   4.454 -0.8432  0.3673  0.4882
   60SAPC  H17R 4644   0.275   2.275   4.407 -0.7503 -0.7905  1.1171
   60SAPC  H17S 4645   0.411   2.213   4.490 -0.8264  0.1991  0.0305
   60SAPC  C218 4646   0.451   2.362   4.339  0.8945 -0.0431 -1.1703
   60SAPC  H18R 4647   0.473   2.468   4.367  1.9476 -0.4981 -0.2058
   60SAPC  H18S 4648   0.393   2.371   4.244 -1.5695  0.5369  0.2792
   60SAPC  C219 4649   0.593   2.304   4.310 -0.0545 -0.4311 -0.0578
   60SAPC  H19R 4650   0.587   2.195   4.294  0.8124 -0.5674  0.4677
   60SAPC  H19S 4651   0.664   2.319   4.395  0.8281  3.2056 -1.2530
   60SAPC  C220 4652   0.660   2.375   4.190 -0.0312 -0.3170  0.4790
   60SAPC  H20R 4653   0.689   2.475   4.228  0.3525 -0.2180 -0.0712
   60SAPC  H20S 4654   0.591   2.387   4.104  0.1238  0.2121  0.4259
   60SAPC  H20T 4655   0.746   2.311   4.163 -0.1877  0.1821 -1.2918
   60SAPC   C33 4656   0.397   2.041   5.699 -0.6740  0.3400 -0.0827
   60SAPC   H3X 4657   0.387   2.151   5.686 -1.0661  0.3587  0.3629
   60SAPC   H3Y 4658   0.297   1.995   5.719 -0.0587 -2.0250 -1.9414
   60SAPC   C34 4659   0.449   1.978   5.570  1.2171 -0.1741  0.1206
   60SAPC   H4X 4660   0.444   1.868   5.583  0.8037 -0.2670 -0.7067
   60SAPC   H4Y 4661   0.553   2.009   5.547  2.0344 -2.4801  0.4179
   60SAPC   C35 4662   0.367   1.998   5.441  0.5164  0.0043 -0.0409
   60SAPC   H5X 4663   0.375   2.105   5.415 -1.2564  0.1280 -0.1720
   60SAPC   H5Y 4664   0.258   1.992   5.462  0.3737  0.2640 -0.6993
   60SAPC   C36 4665   0.420   1.912   5.325 -0.0411  0.3817 -0.0828
   60SAPC   H6X 4666   0.401   1.803   5.331  2.4846 -0.1175  0.2901
   60SAPC   H6Y 4667   0.527   1.941   5.336  0.3714 -0.8614 -0.6811
   60SAPC   C37 4668   0.377   1.952   5.183 -0.3559  1.1624 -0.4233
   60SAPC   H7X 4669   0.400   1.870   5.112  0.2159 -1.7674  2.8572
   60SAPC   H7Y 4670   0.435   2.041   5.148  1.6901  0.6151  1.3807
   60SAPC   C38 4671   0.232   2.000   5.172  0.3619 -0.2198  0.0885
   60SAPC   H8X 4672   0.207   2.063   5.260 -1.0062 -1.5721  0.7121
   60SAPC   H8Y 4673   0.169   1.909   5.172  0.8820 -0.6491 -2.5616
   60SAPC   C39 4674   0.208   2.072   5.036  0.6301 -0.2799  0.0302
   60SAPC   H9X 4675   0.293   2.132   4.997  1.1587 -2.0126 -1.6611
   60SAPC   H9Y 4676   0.133   2.152   5.053  2.0368  1.2469 -0.6332
   60SAPC  C310 4677   0.166   1.975   4.918 -0.4862  0.5427 -0.3201
   60SAPC  H10X 4678   0.091   1.904   4.957  2.4001 -3.0895 -0.7820
   60SAPC  H10Y 4679   0.251   1.910   4.887 -0.3667  1.1083 -1.2071
   60SAPC  C311 4680   0.117   2.048   4.801  0.4753 -0.4129  0.3311
   60SAPC  H11X 4681   0.204   2.090   4.745 -1.1254  2.9344  0.0887
   60SAPC  H11Y 4682   0.057   2.132   4.842 -0.9367 -2.0643  1.8286
   60SAPC  C312 4683   0.032   1.967   4.703 -0.2164 -0.7160  0.6450
   60SAPC  H12X 4684  -0.059   1.920   4.747 -0.0736 -2.5783 -0.8979
   60SAPC  H12Y 4685   0.093   1.876   4.686 -0.8828 -1.0390 -0.1012
   60SAPC  C313 4686   0.015   2.029   4.569  0.0345 -0.8153 -0.0355
   60SAPC  H13X 4687   0.114   2.065   4.532 -0.0839  0.8251  1.1335
   60SAPC  H13Y 4688  -0.050   2.119   4.569  1.7983  0.5408 -2.0562
   60SAPC  C314 4689  -0.045   1.933   4.469 -0.3272 -0.4320 -0.0099
   60SAPC  H14X 4690  -0.119   1.874   4.527 -3.0686  1.1826 -1.6331
   60SAPC  H14Y 4691   0.034   1.864   4.431  0.7810  0.1976  1.0603
   60SAPC  C315 4692  -0.092   2.024   4.352  0.3865 -0.5809 -0.1330
   60SAPC  H15X 4693  -0.021   2.105   4.326 -0.8157  0.5882  0.1310
   60SAPC  H15Y 4694  -0.178   2.078   4.396 -0.8797 -1.3628 -1.5378
   60SAPC  C316 4695  -0.139   1.942   4.226 -0.4274 -0.1049 -0.7472
   60SAPC  H16X 4696  -0.209   1.866   4.268 -0.2700  0.2522  0.1831
   60SAPC  H16Y 4697  -0.051   1.888   4.183  0.3685  1.1662 -0.7528
   60SAPC  C317 4698  -0.205   2.019   4.115  0.1507  0.2493 -0.5106
   60SAPC  H17X 4699  -0.228   1.941   4.039 -2.4177  0.1171  0.3074
   60SAPC  H17Y 4700  -0.128   2.081   4.063 -0.5980  1.5584 -0.1168
   60SAPC  C318 4701  -0.327   2.093   4.153  0.1257 -0.4559 -0.4080
   60SAPC  H18X 4702  -0.403   2.016   4.179  0.2801 -0.8813 -1.1830
   60SAPC  H18Y 4703  -0.368   2.153   4.069  0.9385  0.4144 -0.1979
   60SAPC  H18Z 4704  -0.315   2.153   4.246  0.6586 -1.5862  0.2734
   61SAPC     N 4705   3.953   4.000   6.832 -0.1132  0.1194 -0.4609
   61SAPC   C12 4706   3.948   4.127   6.748  0.8616 -0.4453 -0.0167
   61SAPC  H12A 4707   3.980   4.209   6.811 -0.8388 -0.4066  0.8590
   61SAPC  H12B 4708   3.849   4.156   6.718  0.6064 -0.2706  0.9431
   61SAPC   C13 4709   4.092   3.974   6.883  0.2909 -0.3020  0.2786
   61SAPC  H13A 4710   4.132   4.063   6.930  0.2503 -0.3009  0.3106
   61SAPC  H13B 4711   4.096   3.888   6.949 -2.1065 -1.7697 -1.3538
   61SAPC  H13C 4712   4.156   3.959   6.798  0.4138 -2.3493  0.6866
   61SAPC   C14 4713   3.872   4.009   6.958  0.3323 -0.4191  0.5078
   61SAPC  H14A 4714   3.771   4.041   6.934 -0.0067 -1.6521  0.2169
   61SAPC  H14B 4715   3.874   3.917   7.013 -0.5878 -1.6134 -1.3490
   61SAPC  H14C 4716   3.917   4.089   7.015 -1.0826  1.0460 -0.3139
   61SAPC   C15 4717   3.901   3.879   6.763  0.3852 -0.9082 -0.0273
   61SAPC  H15A 4718   3.956   3.877   6.670  0.8684  0.5160  0.2039
   61SAPC  H15B 4719   3.919   3.798   6.831 -0.5798 -2.7762 -1.8626
   61SAPC  H15C 4720   3.797   3.879   6.733  1.1691 -2.1489 -3.1757
   61SAPC   C11 4721   4.016   4.112   6.616  0.1494 -0.4681  0.0929
   61SAPC  H11A 4722   4.032   4.217   6.583  0.9502  0.0709  2.0314
   61SAPC  H11B 4723   3.948   4.065   6.542  0.6798  1.4876 -1.7410
   61SAPC     P 4724   4.256   4.090   6.498  0.0207  0.1341 -0.1070
   61SAPC   O13 4725   4.320   4.213   6.530  0.4410 -0.0949 -0.1549
   61SAPC   O14 4726   4.346   3.976   6.469  0.3792  0.2443  0.5753
   61SAPC   O12 4727   4.152   4.055   6.619  0.4677  0.6294  0.0226
   61SAPC   O11 4728   4.159   4.114   6.380  0.0433  0.4859  0.0701
   61SAPC    C1 4729   4.090   4.016   6.304  0.4198 -0.2957  0.3512
   61SAPC    HA 4730   4.139   3.916   6.303 -2.3102 -1.7459  1.4822
   61SAPC    HB 4731   3.986   4.001   6.339  1.7139 -2.1668  3.9426
   61SAPC    C2 4732   4.080   4.060   6.159 -0.3275 -1.1650  0.2044
   61SAPC    HS 4733   4.020   3.990   6.096 -0.6962  0.6533 -1.5681
   61SAPC   O21 4734   4.206   4.089   6.094 -0.0691  0.3670 -0.8654
   61SAPC   C21 4735   4.245   3.987   6.015 -0.7509 -0.1549  0.2319
   61SAPC   O22 4736   4.197   3.871   6.014 -0.2344 -1.0020 -0.0077
   61SAPC   C22 4737   4.353   4.032   5.916 -0.8087 -0.3743  0.6268
   61SAPC   H2R 4738   4.404   4.122   5.955  1.4623 -1.0714 -0.5239
   61SAPC   H2S 4739   4.426   3.948   5.906 -2.3874 -2.1320  2.8992
   61SAPC    C3 4740   4.008   4.192   6.169 -0.1895  0.4268  0.0298
   61SAPC    HX 4741   4.065   4.265   6.231 -1.0235  0.1437  1.1755
   61SAPC    HY 4742   3.913   4.193   6.228 -0.1311  0.6003  0.1231
   61SAPC   O31 4743   3.985   4.250   6.035  0.4520  0.5933  0.2248
   61SAPC   C31 4744   3.882   4.193   5.974  1.2880 -0.9599 -0.5466
   61SAPC   O32 4745   3.800   4.118   6.024  0.4372  0.1529 -0.0696
   61SAPC   C32 4746   3.893   4.236   5.830  0.2502  0.3456  0.2530
   61SAPC   H2X 4747   3.995   4.277   5.816  0.5597  0.0633  1.5215
   61SAPC   H2Y 4748   3.819   4.319   5.820 -0.2230 -0.0878  0.1042
   61SAPC   C23 4749   4.292   4.059   5.771  0.3078 -0.2174 -0.2094
   61SAPC   H3R 4750   4.360   4.116   5.704 -0.0149  0.6380  0.1796
   61SAPC   H3S 4751   4.206   4.129   5.785 -0.7557 -1.0046 -2.3069
   61SAPC   C24 4752   4.241   3.934   5.702  0.2769  0.1378 -0.4557
   61SAPC   H4R 4753   4.186   3.962   5.610  1.1356 -0.3016 -1.1244
   61SAPC   H4S 4754   4.168   3.893   5.775 -0.4771  0.5675 -0.9605
   61SAPC   C25 4755   4.337   3.825   5.661 -0.2215 -0.1625  0.5830
   61SAPC   H5R 4756   4.369   3.751   5.736 -3.0497 -1.7571  0.3767
   61SAPC   C26 4757   4.376   3.803   5.532 -0.1920  0.4059 -0.3353
   61SAPC   H6R 4758   4.445   3.719   5.513 -1.9463 -1.5482  1.4659
   61SAPC   C27 4759   4.345   3.872   5.401  0.5213  0.2090  0.3296
   61SAPC   H7R 4760   4.348   3.981   5.420 -1.6819  0.1586  1.3565
   61SAPC   H7S 4761   4.238   3.852   5.377  0.1732  0.0537  1.8616
   61SAPC   C28 4762   4.400   3.823   5.264  0.1876 -0.7035 -0.3724
   61SAPC   H8R 4763   4.358   3.725   5.238  0.1489 -0.5606 -0.8517
   61SAPC   C29 4764   4.464   3.892   5.175  0.0202 -0.1466  0.4597
   61SAPC   H9R 4765   4.476   3.846   5.075  1.0871 -0.4843  0.7271
   61SAPC  C210 4766   4.526   4.029   5.189 -0.3169 -0.2764  0.3751
   61SAPC  H10R 4767   4.493   4.084   5.280 -0.0802 -0.9248  0.8635
   61SAPC  H10S 4768   4.491   4.085   5.100 -1.1569 -1.1367  0.1510
   61SAPC  C211 4769   4.682   4.034   5.199  0.3999 -0.3889  0.1433
   61SAPC  H11R 4770   4.723   4.045   5.300 -1.6832 -1.1229  1.1251
   61SAPC  C212 4771   4.762   4.010   5.094 -0.5760  0.0513  0.0735
   61SAPC  H12R 4772   4.868   4.032   5.114 -0.4529 -0.4845  0.0052
   61SAPC  C213 4773   4.710   3.990   4.952 -0.2536 -1.1555  0.0597
   61SAPC  H13R 4774   4.644   4.070   4.914 -1.1035 -0.7720  2.1955
   61SAPC  H13S 4775   4.634   3.910   4.963 -0.8147 -0.7608 -0.9005
   61SAPC  C214 4776   4.814   3.944   4.852 -0.8479  0.6908 -0.7325
   61SAPC  H14R 4777   4.802   3.837   4.827  0.4238  0.1505  0.7943
   61SAPC  C215 4778   4.906   4.014   4.786 -0.4874  0.0593 -0.6957
   61SAPC  H15R 4779   4.982   3.968   4.721  0.4668  0.7435 -0.0939
   61SAPC  C216 4780   4.938   4.159   4.814  0.5284  0.3547 -0.3484
   61SAPC  H16R 4781   5.026   4.176   4.880  1.3675  0.7842 -1.5390
   61SAPC  H16S 4782   4.855   4.198   4.876  1.0145  1.7404 -0.5344
   61SAPC  C217 4783   4.950   4.251   4.688  0.1352 -0.1489  0.2606
   61SAPC  H17R 4784   4.857   4.238   4.628 -0.4962  0.5533  1.0506
   61SAPC  H17S 4785   5.033   4.228   4.619 -1.3829 -0.4567 -1.5674
   61SAPC  C218 4786   4.957   4.402   4.727  0.6479 -0.1120 -0.7471
   61SAPC  H18R 4787   5.013   4.442   4.640 -0.1082 -0.4366 -1.4042
   61SAPC  H18S 4788   5.017   4.419   4.819  0.6802  0.7289 -0.9163
   61SAPC  C219 4789   4.816   4.479   4.725 -0.1092 -0.5647  0.1207
   61SAPC  H19R 4790   4.810   4.571   4.787  1.2580  0.0974 -0.6786
   61SAPC  H19S 4791   4.742   4.406   4.761 -0.4841  0.0448  0.6061
   61SAPC  C220 4792   4.778   4.516   4.575  0.4918  0.3326 -1.0270
   61SAPC  H20R 4793   4.669   4.518   4.554  0.4572 -0.5875 -0.9746
   61SAPC  H20S 4794   4.826   4.441   4.508  1.0018 -0.6565  0.3945
   61SAPC  H20T 4795   4.818   4.618   4.554  0.2784  0.3799 -1.2094
   61SAPC   C33 4796   3.876   4.120   5.734  0.0022 -0.9936  0.7304
   61SAPC   H3X 4797   3.779   4.066   5.738 -1.5972  1.4753 -1.6231
   61SAPC   H3Y 4798   3.952   4.040   5.747 -0.7599 -1.6465  1.3299
   61SAPC   C34 4799   3.891   4.179   5.588 -0.6501 -0.2274 -1.1073
   61SAPC   H4X 4800   3.977   4.249   5.588 -1.0212  0.2343 -1.5243
   61SAPC   H4Y 4801   3.797   4.238   5.583 -0.8008 -0.4161 -0.5662
   61SAPC   C35 4802   3.901   4.081   5.470  0.2041 -0.0884  0.0172
   61SAPC   H5X 4803   3.829   4.001   5.499  0.7861 -0.1971  1.2376
   61SAPC   H5Y 4804   4.000   4.031   5.477  0.3125  0.1450  0.1685
   61SAPC   C36 4805   3.876   4.147   5.337  0.1423 -0.5051 -0.2967
   61SAPC   H6X 4806   3.946   4.231   5.320 -0.2840 -0.1532 -0.3275
   61SAPC   H6Y 4807   3.778   4.199   5.338  1.2767  1.7353  1.0224
   61SAPC   C37 4808   3.889   4.047   5.222  0.6870 -0.5488 -0.3309
   61SAPC   H7X 4809   3.829   4.079   5.133 -0.0362  2.0622  0.9862
   61SAPC   H7Y 4810   3.841   3.951   5.247 -0.1775 -0.3802 -1.2632
   61SAPC   C38 4811   4.026   4.017   5.158  0.2587 -0.3521 -0.0081
   61SAPC   H8X 4812   4.095   3.961   5.225  0.7779 -0.7708 -0.8666
   61SAPC   H8Y 4813   4.074   4.115   5.137 -2.4166  1.3195  1.2519
   61SAPC   C39 4814   4.019   3.930   5.031 -0.1984 -0.4468 -0.3392
   61SAPC   H9X 4815   3.953   3.977   4.955  0.1645  0.1503 -0.2933
   61SAPC   H9Y 4816   3.968   3.835   5.058 -3.3597  1.0390 -0.7234
   61SAPC  C310 4817   4.154   3.920   4.959 -0.8428  0.2727 -0.0256
   61SAPC  H10X 4818   4.212   3.848   5.021  1.2152  1.7007 -0.1957
   61SAPC  H10Y 4819   4.199   4.021   4.959  0.8862 -0.4529  1.3242
   61SAPC  C311 4820   4.143   3.857   4.819 -0.4339 -0.0200  0.3356
   61SAPC  H11X 4821   4.065   3.778   4.810  2.1023 -2.6166 -0.3880
   61SAPC  H11Y 4822   4.241   3.812   4.793 -0.7482 -0.1342 -0.7259
   61SAPC  C312 4823   4.124   3.961   4.711  0.1567  0.0413 -0.5480
   61SAPC  H12X 4824   4.209   4.030   4.730  0.1573 -0.3815  1.1336
   61SAPC  H12Y 4825   4.033   4.021   4.737 -0.2618 -0.8768  0.1737
   61SAPC  C313 4826   4.105   3.907   4.572 -0.3254 -0.1424 -0.3104
   61SAPC  H13X 4827   4.118   3.797   4.577 -1.1855 -0.2347  0.1840
   61SAPC  H13Y 4828   4.187   3.943   4.506 -0.9099  0.3811 -0.7608
   61SAPC  C314 4829   3.969   3.945   4.504 -0.6438  0.2310  0.1370
   61SAPC  H14X 4830   3.974   4.038   4.443  0.5504  1.2907  1.7655
   61SAPC  H14Y 4831   3.894   3.949   4.586  1.4392  0.4778  2.1388
   61SAPC  C315 4832   3.923   3.832   4.406 -0.8544  0.5835  1.0354
   61SAPC  H15X 4833   3.927   3.742   4.472 -0.8255 -1.1191 -1.1896
   61SAPC  H15Y 4834   3.998   3.825   4.324  0.9092 -1.1511  2.6804
   61SAPC  C316 4835   3.777   3.858   4.346 -1.0019  0.0933  0.3921
   61SAPC  H16X 4836   3.792   3.943   4.276  0.7655 -1.9226 -1.8474
   61SAPC  H16Y 4837   3.711   3.893   4.428  0.7693  2.7470  0.8380
   61SAPC  C317 4838   3.714   3.736   4.265 -0.4580  0.2003  0.5439
   61SAPC  H17X 4839   3.705   3.652   4.337 -3.7041  1.7807  2.2051
   61SAPC  H17Y 4840   3.770   3.712   4.172 -1.2662  2.3443 -0.5732
   61SAPC  C318 4841   3.579   3.790   4.211 -0.7776  0.4164  0.6264
   61SAPC  H18X 4842   3.520   3.835   4.294 -1.6323 -0.3056  0.4292
   61SAPC  H18Y 4843   3.536   3.711   4.146  1.6567  0.9986 -1.9035
   61SAPC  H18Z 4844   3.599   3.874   4.141 -0.6945 -0.7053 -0.7280
   62SAPC     N 4845   4.668   5.469   6.281 -0.1969 -0.5058 -0.7579
   62SAPC   C12 4846   4.784   5.551   6.328 -0.2821 -0.0539 -0.0769
   62SAPC  H12A 4847   4.762   5.613   6.414 -0.1250 -0.0478 -0.0403
   62SAPC  H12B 4848   4.806   5.626   6.253  1.4885  0.4682  0.9064
   62SAPC   C13 4849   4.702   5.402   6.154 -0.2964  0.1082 -0.0146
   62SAPC  H13A 4850   4.641   5.313   6.143  0.7468 -0.7720  1.1206
   62SAPC  H13B 4851   4.690   5.468   6.069  0.1048 -0.5123 -0.5606
   62SAPC  H13C 4852   4.807   5.379   6.162  0.5054  3.6180  1.7064
   62SAPC   C14 4853   4.632   5.358   6.376 -0.2073 -0.0521  0.5729
   62SAPC  H14A 4854   4.721   5.302   6.400  0.1764  0.0565 -0.5056
   62SAPC  H14B 4855   4.574   5.398   6.458  0.0614 -0.4386  0.9549
   62SAPC  H14C 4856   4.555   5.300   6.327 -0.4612 -0.9499  1.9782
   62SAPC   C15 4857   4.543   5.549   6.261  0.0425  0.0687 -0.1607
   62SAPC  H15A 4858   4.553   5.625   6.185  2.3300 -0.1812 -0.1921
   62SAPC  H15B 4859   4.457   5.490   6.235  0.4212 -1.2968  1.4896
   62SAPC  H15C 4860   4.514   5.596   6.354  0.7843 -0.6367  0.4472
   62SAPC   C11 4861   4.906   5.478   6.381 -0.0436 -0.2531  0.7973
   62SAPC  H11A 4862   4.860   5.430   6.470  0.3033 -2.4658 -0.1509
   62SAPC  H11B 4863   4.979   5.548   6.428 -1.9658  1.5311  1.2888
   62SAPC     P 4864   4.994   5.244   6.325 -0.1755 -0.0614 -0.4851
   62SAPC   O13 4865   5.129   5.238   6.384  0.5498  0.0016  0.2158
   62SAPC   O14 4866   4.883   5.197   6.411 -0.4508 -0.0436  0.8869
   62SAPC   O12 4867   4.964   5.391   6.283  0.1686  0.0252  0.1582
   62SAPC   O11 4868   4.991   5.162   6.193 -0.2111 -0.2517  0.0850
   62SAPC    C1 4869   5.068   5.200   6.071  0.3169  0.4867 -0.6164
   62SAPC    HA 4870   5.070   5.310   6.060  0.6386  0.4770 -0.6785
   62SAPC    HB 4871   5.176   5.173   6.075 -0.0966 -1.5228 -1.6022
   62SAPC    C2 4872   5.029   5.126   5.937 -0.2134 -0.4163  0.5145
   62SAPC    HS 4873   4.920   5.150   5.939 -0.0055  0.6816 -0.5048
   62SAPC   O21 4874   5.051   4.990   5.954  0.1737  0.0169 -0.0707
   62SAPC   C21 4875   4.952   4.907   5.917 -0.2153  0.0281  0.0318
   62SAPC   O22 4876   4.846   4.948   5.867 -0.4227  0.2388  0.0001
   62SAPC   C22 4877   4.991   4.757   5.961  1.0891 -1.2421 -0.3375
   62SAPC   H2R 4878   5.080   4.754   6.028  0.1451 -1.0939  0.9717
   62SAPC   H2S 4879   4.909   4.723   6.029  1.5433 -3.9294 -1.0126
   62SAPC    C3 4880   5.098   5.184   5.813  0.1028 -0.2466  0.6948
   62SAPC    HX 4881   5.062   5.129   5.724  0.5256  2.0108 -0.9475
   62SAPC    HY 4882   5.209   5.175   5.822  0.2023  0.8666  0.7311
   62SAPC   O31 4883   5.072   5.326   5.808 -0.2648 -0.2517  0.9046
   62SAPC   C31 4884   5.135   5.369   5.698 -0.7502  0.3453  0.4672
   62SAPC   O32 4885   5.198   5.297   5.623 -0.1099 -0.1243 -0.4092
   62SAPC   C32 4886   5.111   5.519   5.688  0.5308  0.7227 -0.0832
   62SAPC   H2X 4887   5.101   5.568   5.787 -0.0833  0.0530  0.1981
   62SAPC   H2Y 4888   5.005   5.527   5.655 -0.3477 -1.0318  2.0895
   62SAPC   C23 4889   4.990   4.655   5.846 -0.3633  0.0922 -0.5731
   62SAPC   H3R 4890   4.916   4.673   5.764  0.4457  1.9939 -0.9425
   62SAPC   H3S 4891   4.975   4.552   5.885  0.5876  0.4687  0.8331
   62SAPC   C24 4892   5.130   4.647   5.769 -0.5738 -0.9349 -0.7502
   62SAPC   H4R 4893   5.128   4.556   5.706  1.5708  0.3374 -2.8132
   62SAPC   H4S 4894   5.209   4.644   5.847 -0.8777  2.4191 -0.1591
   62SAPC   C25 4895   5.137   4.763   5.677  0.1323  0.5113 -0.2071
   62SAPC   H5R 4896   5.063   4.760   5.595 -0.9419  0.1484  0.7466
   62SAPC   C26 4897   5.235   4.853   5.693 -0.8144  0.3877 -0.3653
   62SAPC   H6R 4898   5.239   4.936   5.621 -0.3606 -0.4030 -1.2728
   62SAPC   C27 4899   5.354   4.863   5.794  0.2243 -0.4211 -0.8029
   62SAPC   H7R 4900   5.362   4.786   5.874 -0.9660  0.2801  0.0227
   62SAPC   H7S 4901   5.320   4.949   5.855  2.0790  0.9272 -1.5829
   62SAPC   C28 4902   5.485   4.879   5.719  0.4218 -0.0046 -0.1893
   62SAPC   H8R 4903   5.530   4.979   5.717  0.5559 -0.0739 -0.7913
   62SAPC   C29 4904   5.560   4.790   5.651 -0.0093  0.5791 -0.1329
   62SAPC   H9R 4905   5.662   4.816   5.620 -0.0276 -1.1136 -1.7703
   62SAPC  C210 4906   5.540   4.640   5.656  0.3575  0.2774  0.0129
   62SAPC  H10R 4907   5.472   4.613   5.740  0.1214 -0.8071 -0.5131
   62SAPC  H10S 4908   5.634   4.585   5.677 -1.2245 -2.0292  1.6197
   62SAPC  C211 4909   5.481   4.586   5.529 -0.1811 -0.4741 -0.2574
   62SAPC  H11R 4910   5.377   4.550   5.531  0.3102 -1.9358  0.2633
   62SAPC  C212 4911   5.550   4.582   5.412  0.2906  0.9280  0.3847
   62SAPC  H12R 4912   5.484   4.538   5.335 -3.7105  0.6970  3.6199
   62SAPC  C213 4913   5.695   4.625   5.380  0.2030  0.3343  0.3179
   62SAPC  H13R 4914   5.759   4.538   5.354  2.1863  1.6871  0.4337
   62SAPC  H13S 4915   5.755   4.655   5.468  0.1176 -1.3000  0.9737
   62SAPC  C214 4916   5.702   4.734   5.281  0.3100 -1.1951  0.5877
   62SAPC  H14R 4917   5.720   4.831   5.328 -0.6875 -2.0371  2.8433
   62SAPC  C215 4918   5.681   4.720   5.147  1.1821 -0.2403  0.0383
   62SAPC  H15R 4919   5.694   4.812   5.088 -0.1928  0.2829  0.5140
   62SAPC  C216 4920   5.654   4.601   5.054 -0.5415  0.1538  0.1744
   62SAPC  H16R 4921   5.600   4.641   4.965 -2.5529 -0.9315  0.8459
   62SAPC  H16S 4922   5.601   4.516   5.102 -0.5187 -0.9259 -1.6120
   62SAPC  C217 4923   5.789   4.547   4.997  0.0248  0.3466 -0.1613
   62SAPC  H17R 4924   5.768   4.482   4.909 -2.4703  0.6920  0.1002
   62SAPC  H17S 4925   5.850   4.488   5.069 -1.4893  0.9082  1.6864
   62SAPC  C218 4926   5.896   4.648   4.948 -0.2618 -0.0596  0.4638
   62SAPC  H18R 4927   5.905   4.720   5.032  0.5884  1.3541 -0.7740
   62SAPC  H18S 4928   5.872   4.720   4.866  0.3632  0.3299  0.6144
   62SAPC  C219 4929   6.038   4.588   4.923 -0.0966  0.0011 -0.7766
   62SAPC  H19R 4930   6.038   4.510   4.845 -0.2482 -1.4201  0.5997
   62SAPC  H19S 4931   6.062   4.539   5.020 -1.7258  0.9062  0.1329
   62SAPC  C220 4932   6.141   4.693   4.890 -0.0294 -0.3010 -0.2132
   62SAPC  H20R 4933   6.111   4.741   4.795 -1.5490 -2.4745 -0.9067
   62SAPC  H20S 4934   6.235   4.635   4.880  1.1417  1.5984 -0.6249
   62SAPC  H20T 4935   6.155   4.763   4.975  1.8977  0.6769 -1.2710
   62SAPC   C33 4936   5.194   5.597   5.585  0.8143  0.2802 -0.0951
   62SAPC   H3X 4937   5.303   5.585   5.601  0.7693  1.3611  1.1890
   62SAPC   H3Y 4938   5.169   5.705   5.595  0.6246  0.2194  0.1091
   62SAPC   C34 4939   5.147   5.558   5.441 -0.1098 -0.5745  0.1180
   62SAPC   H4X 4940   5.053   5.615   5.424 -0.8131 -1.5000  0.8363
   62SAPC   H4Y 4941   5.133   5.449   5.427  2.4676 -1.1908  1.7960
   62SAPC   C35 4942   5.248   5.615   5.335 -0.7989 -0.0415 -0.0255
   62SAPC   H5X 4943   5.351   5.575   5.349 -0.4129  0.3035 -1.6869
   62SAPC   H5Y 4944   5.246   5.726   5.345  0.3244  0.0979 -1.1108
   62SAPC   C36 4945   5.207   5.586   5.192 -1.1132 -0.1346  0.4605
   62SAPC   H6X 4946   5.299   5.603   5.132 -0.2741  3.3799  2.4982
   62SAPC   H6Y 4947   5.120   5.641   5.151 -1.0401 -0.5125 -0.2233
   62SAPC   C37 4948   5.172   5.436   5.166 -0.6280  0.7439 -0.0370
   62SAPC   H7X 4949   5.065   5.430   5.193 -0.9024  0.1688 -1.1885
   62SAPC   H7Y 4950   5.225   5.363   5.232 -0.8371  0.2581 -0.4006
   62SAPC   C38 4951   5.183   5.402   5.018 -0.3464  0.5587 -0.3002
   62SAPC   H8X 4952   5.142   5.486   4.958  0.9137  2.8398  1.8268
   62SAPC   H8Y 4953   5.118   5.313   5.007 -0.4103  0.1902  2.3116
   62SAPC   C39 4954   5.316   5.343   4.980  0.0528  0.0157  0.4415
   62SAPC   H9X 4955   5.313   5.246   5.034 -0.1788 -0.1655  0.1086
   62SAPC   H9Y 4956   5.405   5.397   5.018  1.5567 -2.5209  0.7093
   62SAPC  C310 4957   5.336   5.300   4.831 -0.3021 -1.0209  0.2775
   62SAPC  H10X 4958   5.257   5.226   4.805 -1.2042 -0.3196  0.9370
   62SAPC  H10Y 4959   5.429   5.244   4.811 -0.2770 -1.3258  1.2016
   62SAPC  C311 4960   5.317   5.423   4.743 -1.1895 -0.1222  1.0890
   62SAPC  H11X 4961   5.370   5.514   4.778 -0.1995 -0.5002  0.5771
   62SAPC  H11Y 4962   5.211   5.452   4.760 -0.4141  1.8548  3.0167
   62SAPC  C312 4963   5.346   5.394   4.590  0.4930  0.1558 -0.7435
   62SAPC  H12X 4964   5.296   5.301   4.555  2.9645 -0.2544 -3.6042
   62SAPC  H12Y 4965   5.451   5.363   4.569  0.4516  0.1427 -0.9390
   62SAPC  C313 4966   5.307   5.513   4.495 -0.4296  0.1563 -0.4735
   62SAPC  H13X 4967   5.365   5.607   4.510 -2.7725  1.6231 -0.1327
   62SAPC  H13Y 4968   5.199   5.534   4.507 -0.1594  1.8235 -0.8168
   62SAPC  C314 4969   5.316   5.464   4.353 -0.1764  0.1668  0.6074
   62SAPC  H14X 4970   5.254   5.372   4.355 -0.0353  0.0764  0.8744
   62SAPC  H14Y 4971   5.422   5.429   4.342 -0.1138 -0.2202  2.1682
   62SAPC  C315 4972   5.267   5.570   4.253  0.4268  0.0107 -0.2457
   62SAPC  H15X 4973   5.332   5.659   4.265  1.2019 -0.2891 -1.9339
   62SAPC  H15Y 4974   5.166   5.602   4.286  0.9950  1.8542 -0.1894
   62SAPC  C316 4975   5.259   5.516   4.109 -0.9124 -0.1863 -0.3471
   62SAPC  H16X 4976   5.230   5.599   4.042  0.4262 -0.1177 -0.8767
   62SAPC  H16Y 4977   5.191   5.429   4.099  0.3125 -1.3853  1.1292
   62SAPC  C317 4978   5.394   5.463   4.066  0.0370  0.8899  0.0891
   62SAPC  H17X 4979   5.423   5.365   4.109 -1.6761  1.0158  1.6429
   62SAPC  H17Y 4980   5.473   5.536   4.094 -0.0442  0.2735  2.0361
   62SAPC  C318 4981   5.403   5.448   3.913  0.7572  0.6160 -0.1557
   62SAPC  H18X 4982   5.329   5.380   3.866  2.9282 -2.0606  0.0689
   62SAPC  H18Y 4983   5.498   5.401   3.884 -0.3236 -1.3910 -0.6058
   62SAPC  H18Z 4984   5.397   5.549   3.867  2.4497  1.3604  1.1849
   63SAPC     N 4985   0.910   1.244   6.222 -0.3745 -0.2356 -0.1682
   63SAPC   C12 4986   0.767   1.203   6.191 -0.0073  0.0003  0.2820
   63SAPC  H12A 4987   0.705   1.234   6.274 -0.3365 -3.2270  1.3969
   63SAPC  H12B 4988   0.765   1.095   6.187  0.4276  0.0111 -1.8496
   63SAPC   C13 4989   0.910   1.384   6.280  0.7044 -1.0911 -0.6369
   63SAPC  H13A 4990   0.899   1.465   6.209 -1.4073  0.1830  1.0375
   63SAPC  H13B 4991   0.842   1.391   6.363  1.7097 -0.5365  0.1566
   63SAPC  H13C 4992   1.009   1.398   6.321  0.1817  0.7389  0.0887
   63SAPC   C14 4993   0.960   1.140   6.318 -0.4781 -0.0721 -0.4315
   63SAPC  H14A 4994   1.067   1.154   6.327 -0.7630  0.6701  3.9337
   63SAPC  H14B 4995   0.916   1.142   6.416  1.7440  0.8094  0.6188
   63SAPC  H14C 4996   0.951   1.037   6.287 -2.3678  0.3946 -1.6405
   63SAPC   C15 4997   0.992   1.238   6.097 -0.1574 -0.2592  0.1131
   63SAPC  H15A 4998   1.000   1.135   6.065  0.5691 -0.2830  0.3598
   63SAPC  H15B 4999   0.934   1.278   6.015 -1.3939 -2.0888  0.0458
   63SAPC  H15C 5000   1.089   1.286   6.095 -0.4122  0.2699 -1.7435
   63SAPC   C11 5001   0.696   1.268   6.065 -0.8271 -0.1582 -0.0167
   63SAPC  H11A 5002   0.597   1.227   6.037 -1.4518  1.9396 -1.0820
   63SAPC  H11B 5003   0.757   1.237   5.978 -0.6885 -3.7570  1.2240
   63SAPC     P 5004   0.567   1.483   6.137  0.3160  0.2890  0.1279
   63SAPC   O13 5005   0.505   1.404   6.245 -0.0269 -0.0371  0.2510
   63SAPC   O14 5006   0.614   1.616   6.182  0.2470 -0.1613  0.5581
   63SAPC   O12 5007   0.691   1.413   6.070 -0.1347  0.4559 -0.3655
   63SAPC   O11 5008   0.466   1.494   6.017  0.3897  0.0211 -0.0986
   63SAPC    C1 5009   0.512   1.547   5.894 -0.2087  0.1512  0.7278
   63SAPC    HA 5010   0.435   1.622   5.865  1.1302  1.1185 -0.4908
   63SAPC    HB 5011   0.606   1.608   5.894 -0.5850  0.7406  0.3002
   63SAPC    C2 5012   0.516   1.439   5.782  0.0920  0.0521  0.8701
   63SAPC    HS 5013   0.615   1.391   5.799  0.2897  0.3435  0.5458
   63SAPC   O21 5014   0.495   1.503   5.659  0.8387  0.3957  0.0480
   63SAPC   C21 5015   0.569   1.462   5.560  0.3056 -0.2131 -0.3163
   63SAPC   O22 5016   0.637   1.362   5.566 -0.1384 -0.1346 -0.3091
   63SAPC   C22 5017   0.547   1.552   5.443 -0.1208  0.1939  1.0467
   63SAPC   H2R 5018   0.443   1.533   5.411  0.3515  0.8279 -1.0391
   63SAPC   H2S 5019   0.552   1.660   5.467  0.3680  0.2796  0.5988
   63SAPC    C3 5020   0.402   1.338   5.794  0.0279  0.2674  0.5663
   63SAPC    HX 5021   0.305   1.392   5.793 -2.5044 -3.8375  0.2171
   63SAPC    HY 5022   0.424   1.286   5.890  2.2407 -1.5961 -0.8362
   63SAPC   O31 5023   0.393   1.247   5.670  0.3666 -0.3667  0.4349
   63SAPC   C31 5024   0.374   1.115   5.706  0.1044 -0.6042  0.2611
   63SAPC   O32 5025   0.355   1.077   5.818 -0.6694 -0.0823  0.2700
   63SAPC   C32 5026   0.361   1.039   5.575 -0.8137  0.5741  0.6707
   63SAPC   H2X 5027   0.406   1.099   5.493  0.6062 -1.2440  0.0492
   63SAPC   H2Y 5028   0.251   1.025   5.562 -0.7058  0.4283 -0.1238
   63SAPC   C23 5029   0.653   1.531   5.331 -0.3247  0.0708 -0.1700
   63SAPC   H3R 5030   0.659   1.427   5.290 -2.4053  0.0802 -0.5890
   63SAPC   H3S 5031   0.752   1.555   5.374 -1.3578  1.3587  1.5966
   63SAPC   C24 5032   0.645   1.622   5.207  0.5235  0.4648  0.1709
   63SAPC   H4R 5033   0.739   1.608   5.150  1.8474  1.1103  2.0763
   63SAPC   H4S 5034   0.649   1.728   5.239  1.4501  1.1571 -2.0558
   63SAPC   C25 5035   0.525   1.603   5.125 -0.6084 -0.6756  0.3807
   63SAPC   H5R 5036   0.426   1.633   5.163  0.0578  1.4083  0.5524
   63SAPC   C26 5037   0.515   1.543   5.008 -0.5002 -1.2473  0.0064
   63SAPC   H6R 5038   0.415   1.542   4.963 -0.3110  0.8968 -0.5911
   63SAPC   C27 5039   0.616   1.475   4.922  0.4997 -0.2152  0.0438
   63SAPC   H7R 5040   0.716   1.467   4.970  0.5219 -2.7990 -0.2865
   63SAPC   H7S 5041   0.645   1.543   4.839  0.2361 -0.5231 -0.3029
   63SAPC   C28 5042   0.564   1.341   4.888  0.6159  0.7493  0.1132
   63SAPC   H8R 5043   0.505   1.284   4.961  0.4646 -0.8483 -1.2248
   63SAPC   C29 5044   0.611   1.268   4.783  1.0538 -0.2908 -0.2811
   63SAPC   H9R 5045   0.554   1.177   4.757  1.4613 -0.4853 -0.5110
   63SAPC  C210 5046   0.714   1.303   4.683 -0.0728  0.2084  0.7631
   63SAPC  H10R 5047   0.780   1.376   4.734 -1.7387  2.3480 -0.0017
   63SAPC  H10S 5048   0.676   1.359   4.595  0.6833 -0.5822 -0.0921
   63SAPC  C211 5049   0.806   1.189   4.637 -1.1866 -0.4756  0.5886
   63SAPC  H11R 5050   0.761   1.144   4.548 -1.6674 -0.2528  0.7129
   63SAPC  C212 5051   0.907   1.120   4.704 -0.4235 -1.1938 -0.0831
   63SAPC  H12R 5052   0.955   1.027   4.669  0.8192 -0.1766 -1.1614
   63SAPC  C213 5053   0.944   1.160   4.848 -0.5694  1.0659 -0.1003
   63SAPC  H13R 5054   0.899   1.258   4.875 -0.6960  0.8777  0.3832
   63SAPC  H13S 5055   1.053   1.177   4.863 -0.1932 -0.5985 -0.6744
   63SAPC  C214 5056   0.894   1.041   4.932  0.0428 -0.1751 -0.3047
   63SAPC  H14R 5057   0.805   1.065   4.992 -0.6645  0.5129 -1.5874
   63SAPC  C215 5058   0.957   0.921   4.948 -0.2219  0.7301 -0.3235
   63SAPC  H15R 5059   0.921   0.843   5.016  0.9524 -1.1790 -1.8181
   63SAPC  C216 5060   1.095   0.885   4.891 -0.7408 -0.5159  0.5217
   63SAPC  H16R 5061   1.162   0.859   4.977  0.0109 -0.8064 -0.1355
   63SAPC  H16S 5062   1.147   0.969   4.841 -1.0970 -0.6334 -0.0441
   63SAPC  C217 5063   1.097   0.773   4.787  0.6523  0.5041  0.5862
   63SAPC  H17R 5064   1.026   0.805   4.708 -1.3411  0.9842  2.4721
   63SAPC  H17S 5065   1.051   0.683   4.833 -1.4165  1.3309  0.2309
   63SAPC  C218 5066   1.233   0.745   4.731 -0.0761 -0.6264  0.2169
   63SAPC  H18R 5067   1.307   0.725   4.812  0.8222 -1.2597 -0.7377
   63SAPC  H18S 5068   1.258   0.838   4.677 -2.1429  0.8964  1.7231
   63SAPC  C219 5069   1.249   0.624   4.634  0.6021 -0.1253 -0.0584
   63SAPC  H19R 5070   1.165   0.636   4.562 -0.5549 -1.2724  1.0437
   63SAPC  H19S 5071   1.231   0.531   4.692 -0.0773  0.5999  0.9252
   63SAPC  C220 5072   1.383   0.615   4.558  0.1280 -0.3124 -0.2872
   63SAPC  H20R 5073   1.409   0.715   4.517 -1.5070 -0.4499 -1.7497
   63SAPC  H20S 5074   1.371   0.556   4.465  2.7076 -0.3251 -0.7003
   63SAPC  H20T 5075   1.466   0.581   4.624 -0.2998 -1.2106 -0.1887
   63SAPC   C33 5076   0.429   0.897   5.568  0.5484 -0.3208  0.2710
   63SAPC   H3X 5077   0.357   0.813   5.582 -1.6931  1.4203 -0.2735
   63SAPC   H3Y 5078   0.502   0.884   5.651  2.8666 -0.3485 -1.6592
   63SAPC   C34 5079   0.524   0.877   5.448  0.2460 -0.3770 -0.2833
   63SAPC   H4X 5080   0.601   0.956   5.453 -2.1399  2.0382  0.6766
   63SAPC   H4Y 5081   0.463   0.894   5.357  0.3108  3.3950  0.2272
   63SAPC   C35 5082   0.587   0.740   5.440  0.2545 -0.6049  0.3268
   63SAPC   H5X 5083   0.639   0.715   5.535  0.2019  1.4878  0.9721
   63SAPC   H5Y 5084   0.662   0.743   5.359  1.7170  1.0261  1.6672
   63SAPC   C36 5085   0.493   0.628   5.402 -0.1595  1.2346  0.1718
   63SAPC   H6X 5086   0.399   0.624   5.461 -0.4422 -2.0496 -0.2903
   63SAPC   H6Y 5087   0.547   0.535   5.431  1.4146  2.5177  1.5631
   63SAPC   C37 5088   0.465   0.620   5.253 -0.0280 -0.1006 -0.5858
   63SAPC   H7X 5089   0.558   0.592   5.200  0.4914 -2.2586  1.2842
   63SAPC   H7Y 5090   0.442   0.726   5.231 -0.9502 -0.2272 -0.3001
   63SAPC   C38 5091   0.342   0.534   5.219 -0.1108 -0.3915  0.3906
   63SAPC   H8X 5092   0.274   0.555   5.304 -0.7448 -0.6178 -0.0545
   63SAPC   H8Y 5093   0.365   0.425   5.215  0.6449 -0.2509  0.6074
   63SAPC   C39 5094   0.270   0.569   5.089  0.3097  0.0514 -0.9661
   63SAPC   H9X 5095   0.337   0.563   5.000  1.0795  1.6000 -0.5371
   63SAPC   H9Y 5096   0.245   0.677   5.086  2.3996  0.5799 -1.2405
   63SAPC  C310 5097   0.133   0.495   5.071 -0.2379 -0.1458  0.1576
   63SAPC  H10X 5098   0.057   0.521   5.147 -1.0091  0.8520 -0.9186
   63SAPC  H10Y 5099   0.141   0.384   5.073  0.3818 -0.2477 -2.9660
   63SAPC  C311 5100   0.078   0.542   4.940 -0.4824  0.7217  0.5096
   63SAPC  H11X 5101   0.112   0.648   4.941  0.7693  0.3746  2.8065
   63SAPC  H11Y 5102  -0.032   0.531   4.929 -0.2092 -0.7303 -1.2563
   63SAPC  C312 5103   0.141   0.472   4.815 -0.3487  0.1928 -0.0598
   63SAPC  H12X 5104   0.250   0.455   4.829 -0.5307 -1.3184 -0.3182
   63SAPC  H12Y 5105   0.128   0.535   4.724 -2.3575 -0.1435 -0.0692
   63SAPC  C313 5106   0.068   0.341   4.775  0.2600  0.5695  0.2496
   63SAPC  H13X 5107   0.029   0.293   4.868 -2.1370 -3.5863 -2.5451
   63SAPC  H13Y 5108   0.141   0.268   4.735  0.5481  0.1262  1.5381
   63SAPC  C314 5109  -0.054   0.350   4.680 -0.1006  0.7174 -0.1393
   63SAPC  H14X 5110  -0.135   0.407   4.729 -0.6371  1.9299 -2.3330
   63SAPC  H14Y 5111  -0.090   0.245   4.676  1.1687  0.2933 -2.2733
   63SAPC  C315 5112  -0.044   0.412   4.542  0.0358  0.0030 -0.3561
   63SAPC  H15X 5113  -0.017   0.519   4.556  1.4207 -0.5035  1.1014
   63SAPC  H15Y 5114  -0.144   0.394   4.497  0.1268 -1.6619  0.0269
   63SAPC  C316 5115   0.052   0.339   4.450  0.5681  0.2653  0.4034
   63SAPC  H16X 5116   0.048   0.230   4.473  2.6749  0.4492  1.9061
   63SAPC  H16Y 5117   0.146   0.387   4.484  0.3723  1.1504 -0.2510
   63SAPC  C317 5118   0.012   0.357   4.299 -0.5613 -0.1516 -0.0163
   63SAPC  H17X 5119  -0.075   0.290   4.285 -2.3819  1.9788  0.4248
   63SAPC  H17Y 5120   0.091   0.309   4.237 -0.6143 -0.3903  0.1028
   63SAPC  C318 5121  -0.017   0.498   4.247 -0.1054 -0.5258 -0.6823
   63SAPC  H18X 5122  -0.046   0.513   4.141  0.0237 -0.1354 -0.6650
   63SAPC  H18Y 5123   0.073   0.561   4.263 -1.1976  0.2922  3.2455
   63SAPC  H18Z 5124  -0.084   0.553   4.316  0.2799 -1.0802  0.1472
   64SAPC     N 5125   1.010   4.311   7.146 -0.1545 -0.4429  0.4934
   64SAPC   C12 5126   1.063   4.307   7.000 -0.7656  0.5718  0.0162
   64SAPC  H12A 5127   1.167   4.277   6.998 -1.1304 -0.8244  0.4959
   64SAPC  H12B 5128   1.055   4.409   6.967  0.0906  1.3490  2.0434
   64SAPC   C13 5129   1.105   4.382   7.237  0.0925  0.4933  0.0749
   64SAPC  H13A 5130   1.085   4.361   7.341 -0.2079 -2.3988 -0.4966
   64SAPC  H13B 5131   1.200   4.333   7.222  0.0308  0.6040 -0.7337
   64SAPC  H13C 5132   1.126   4.487   7.225  1.9614  0.5530  2.9007
   64SAPC   C14 5133   0.879   4.384   7.147 -0.3856  0.3187 -0.4612
   64SAPC  H14A 5134   0.823   4.387   7.239  0.6311 -0.6287  0.2093
   64SAPC  H14B 5135   0.903   4.486   7.120  1.0450  0.2786  0.5474
   64SAPC  H14C 5136   0.807   4.341   7.079 -0.4132 -0.0913 -0.1783
   64SAPC   C15 5137   0.993   4.174   7.196 -0.4401 -0.4149 -0.1793
   64SAPC  H15A 5138   0.916   4.125   7.138 -0.7790 -0.3465  0.2132
   64SAPC  H15B 5139   1.077   4.107   7.192  1.2252  1.3163  2.3715
   64SAPC  H15C 5140   0.972   4.181   7.302 -0.1091 -0.0989 -0.1318
   64SAPC   C11 5141   0.985   4.217   6.899 -0.2669 -0.1226  0.6582
   64SAPC  H11A 5142   0.969   4.112   6.933 -0.8131 -0.6445 -1.1205
   64SAPC  H11B 5143   1.049   4.206   6.808 -0.3558  1.5080  0.3729
   64SAPC     P 5144   0.855   4.382   6.762  0.0904 -0.2238  0.0123
   64SAPC   O13 5145   0.768   4.489   6.823  0.4971 -0.3645  0.3749
   64SAPC   O14 5146   0.992   4.421   6.722 -0.0080  0.6076 -0.4509
   64SAPC   O12 5147   0.857   4.265   6.867 -0.1324  0.1952 -0.2231
   64SAPC   O11 5148   0.784   4.321   6.634 -0.0442  0.6976  0.1429
   64SAPC    C1 5149   0.769   4.182   6.616  0.4350  0.0337  0.8514
   64SAPC    HA 5150   0.844   4.119   6.668  1.3142  1.3132  1.1902
   64SAPC    HB 5151   0.666   4.154   6.648 -0.2028 -0.7969 -1.6700
   64SAPC    C2 5152   0.784   4.145   6.467  0.5215 -0.8256 -0.2858
   64SAPC    HS 5153   0.887   4.171   6.436  0.6229  0.6327  1.1682
   64SAPC   O21 5154   0.685   4.216   6.393  0.6904 -0.4878  0.0372
   64SAPC   C21 5155   0.716   4.345   6.357  0.3056  0.8928 -0.7134
   64SAPC   O22 5156   0.825   4.394   6.362  0.2731 -0.1109 -0.1949
   64SAPC   C22 5157   0.594   4.424   6.306  0.1099  0.4014  0.1543
   64SAPC   H2R 5158   0.509   4.407   6.375 -0.0598  1.7919  0.3328
   64SAPC   H2S 5159   0.617   4.533   6.316  0.0414  0.5126 -0.7898
   64SAPC    C3 5160   0.758   3.994   6.441 -0.5100 -0.5106  0.1796
   64SAPC    HX 5161   0.656   3.979   6.482 -1.3063 -2.6451 -2.2717
   64SAPC    HY 5162   0.832   3.935   6.500 -1.6669  0.1755  2.4006
   64SAPC   O31 5163   0.739   3.937   6.308  0.0292  0.2645  0.0516
   64SAPC   C31 5164   0.853   3.914   6.239 -0.1373 -0.1820  0.1824
   64SAPC   O32 5165   0.966   3.922   6.284  0.2533 -0.0902  0.2307
   64SAPC   C32 5166   0.819   3.900   6.084 -0.6764  0.3690 -0.1472
   64SAPC   H2X 5167   0.758   3.985   6.045  1.1345  1.0783 -1.5612
   64SAPC   H2Y 5168   0.761   3.806   6.070 -0.6765  0.3456  0.0119
   64SAPC   C23 5169   0.571   4.382   6.161 -0.0093  0.0934 -0.0223
   64SAPC   H3R 5170   0.469   4.425   6.148  0.9749  2.5772 -0.1063
   64SAPC   H3S 5171   0.551   4.273   6.163 -0.5545  0.1934  0.9654
   64SAPC   C24 5172   0.669   4.431   6.051 -0.1533 -0.2887 -0.6762
   64SAPC   H4R 5173   0.712   4.528   6.082  2.9244 -1.2070 -1.7786
   64SAPC   H4S 5174   0.612   4.464   5.961  1.1114  1.5962 -0.8315
   64SAPC   C25 5175   0.774   4.323   6.025 -0.2566 -0.2203  0.0174
   64SAPC   H5R 5176   0.842   4.305   6.110 -1.3083  2.3880  1.5077
   64SAPC   C26 5177   0.775   4.242   5.917  0.2964 -0.2175  0.5593
   64SAPC   H6R 5178   0.864   4.179   5.903 -0.0008 -1.0743  2.2868
   64SAPC   C27 5179   0.674   4.254   5.798 -0.7503  0.5332 -0.5405
   64SAPC   H7R 5180   0.688   4.356   5.757  0.8239 -0.1328 -1.7585
   64SAPC   H7S 5181   0.567   4.256   5.830 -0.6952  0.6335 -0.3632
   64SAPC   C28 5182   0.690   4.146   5.695  0.6286 -0.0582  0.0566
   64SAPC   H8R 5183   0.683   4.042   5.731  0.3401  0.4301  1.4592
   64SAPC   C29 5184   0.693   4.165   5.564 -0.4077  0.1202 -0.0371
   64SAPC   H9R 5185   0.662   4.084   5.496 -0.8260  1.4084 -1.4516
   64SAPC  C210 5186   0.692   4.295   5.491  0.4258  0.2756  0.0933
   64SAPC  H10R 5187   0.743   4.276   5.394  0.4513  0.3415  0.0933
   64SAPC  H10S 5188   0.754   4.372   5.542  1.5426 -0.1988 -0.5224
   64SAPC  C211 5189   0.560   4.364   5.476 -0.1539  0.7726 -0.3456
   64SAPC  H11R 5190   0.516   4.404   5.569 -0.1734  1.7719 -0.7647
   64SAPC  C212 5191   0.505   4.414   5.362 -0.4700  0.0576 -0.4680
   64SAPC  H12R 5192   0.409   4.468   5.370 -1.3414 -1.5809  0.9756
   64SAPC  C213 5193   0.574   4.420   5.228 -0.4316 -0.1835 -0.0887
   64SAPC  H13R 5194   0.684   4.413   5.241 -0.4756 -0.0923  0.3588
   64SAPC  H13S 5195   0.567   4.525   5.190  0.9863  1.1296  2.9282
   64SAPC  C214 5196   0.525   4.312   5.133 -0.2858  0.1369  0.3382
   64SAPC  H14R 5197   0.484   4.224   5.185  2.0043 -0.0313  2.0009
   64SAPC  C215 5198   0.535   4.309   4.999 -0.4387 -0.7908  0.8211
   64SAPC  H15R 5199   0.487   4.224   4.947  0.1908 -2.7843  3.3015
   64SAPC  C216 5200   0.607   4.422   4.919 -0.3094  0.8931  0.3220
   64SAPC  H16R 5201   0.624   4.516   4.975 -1.5873  1.8211 -0.7652
   64SAPC  H16S 5202   0.541   4.456   4.835  0.0407  1.8487  0.4242
   64SAPC  C217 5203   0.740   4.371   4.869 -1.0345  0.7279  0.0499
   64SAPC  H17R 5204   0.803   4.327   4.949 -2.6212 -4.2005 -1.0594
   64SAPC  H17S 5205   0.801   4.456   4.830 -1.5835  0.6471 -1.0184
   64SAPC  C218 5206   0.744   4.272   4.750  0.2154 -0.2993 -0.6891
   64SAPC  H18R 5207   0.675   4.186   4.765 -0.9928  0.6041 -0.8845
   64SAPC  H18S 5208   0.847   4.232   4.738  0.0202 -0.2639 -3.0080
   64SAPC  C219 5209   0.703   4.329   4.613  0.9027  0.7204 -0.1379
   64SAPC  H19R 5210   0.770   4.417   4.607  1.4545  0.4343  1.4163
   64SAPC  H19S 5211   0.595   4.354   4.626  0.8849  0.1279  1.0404
   64SAPC  C220 5212   0.730   4.223   4.506 -0.1612 -1.4158  0.1311
   64SAPC  H20R 5213   0.820   4.162   4.528  1.5598  1.0997  0.3796
   64SAPC  H20S 5214   0.733   4.267   4.404 -0.4587  0.1967  0.7971
   64SAPC  H20T 5215   0.650   4.146   4.503 -0.9389 -0.6398  0.5174
   64SAPC   C33 5216   0.952   3.874   6.008 -0.2135  0.0818 -0.0334
   64SAPC   H3X 5217   0.993   3.776   6.043 -2.5261 -0.9766 -0.0769
   64SAPC   H3Y 5218   1.024   3.955   6.032 -1.3641  1.4131 -0.9108
   64SAPC   C34 5219   0.940   3.880   5.859  0.5528 -0.4008 -0.0384
   64SAPC   H4X 5220   0.886   3.973   5.830  1.3724 -0.0410 -0.4521
   64SAPC   H4Y 5221   0.872   3.797   5.830  0.7172 -0.9896  1.2190
   64SAPC   C35 5222   1.073   3.859   5.781 -0.5916  0.3046 -0.3939
   64SAPC   H5X 5223   1.102   3.754   5.806  0.0402  0.0171 -2.1670
   64SAPC   H5Y 5224   1.154   3.932   5.805 -1.4307  0.5646  1.8535
   64SAPC   C36 5225   1.042   3.852   5.629 -0.4954 -0.5628 -0.4492
   64SAPC   H6X 5226   0.997   3.944   5.587 -3.0037 -2.3195 -1.8705
   64SAPC   H6Y 5227   0.979   3.763   5.608 -1.9575  0.8733 -2.5294
   64SAPC   C37 5228   1.159   3.830   5.531  0.5349 -0.6072 -0.1081
   64SAPC   H7X 5229   1.197   3.727   5.547  0.8147 -0.9390 -2.4918
   64SAPC   H7Y 5230   1.244   3.900   5.543 -0.6872  0.8093  0.6238
   64SAPC   C38 5231   1.111   3.852   5.388  0.2516 -0.6948 -0.1981
   64SAPC   H8X 5232   1.064   3.952   5.381  2.1504  0.5438  2.7788
   64SAPC   H8Y 5233   1.029   3.780   5.364 -1.2867  0.4917  1.2337
   64SAPC   C39 5234   1.221   3.829   5.288  0.3411  0.9320  0.2925
   64SAPC   H9X 5235   1.263   3.730   5.318 -0.4340 -0.0623 -1.7310
   64SAPC   H9Y 5236   1.293   3.913   5.286 -0.4693  1.6412 -1.9972
   64SAPC  C310 5237   1.163   3.809   5.147 -0.2523 -0.2182  0.1397
   64SAPC  H10X 5238   1.088   3.886   5.116  0.0876 -0.3040 -0.9232
   64SAPC  H10Y 5239   1.100   3.717   5.151 -0.0133 -0.3736  0.3881
   64SAPC  C311 5240   1.268   3.791   5.048 -0.4090 -0.5368  0.6843
   64SAPC  H11X 5241   1.334   3.705   5.071  0.9858  0.0458 -0.9645
   64SAPC  H11Y 5242   1.334   3.880   5.054 -1.9317  0.8003 -1.2021
   64SAPC  C312 5243   1.214   3.775   4.903 -0.0085 -0.5934 -0.2542
   64SAPC  H12X 5244   1.117   3.723   4.906 -0.5958  0.4834  2.5938
   64SAPC  H12Y 5245   1.287   3.710   4.851 -1.8153 -2.6486 -0.3408
   64SAPC  C313 5246   1.197   3.909   4.838 -0.6982 -0.1827  0.1764
   64SAPC  H13X 5247   1.284   3.972   4.864 -0.0676 -1.0179  0.1062
   64SAPC  H13Y 5248   1.105   3.958   4.879 -0.1231 -1.6257  3.5149
   64SAPC  C314 5249   1.195   3.891   4.685 -0.6544 -0.3478 -0.6145
   64SAPC  H14X 5250   1.131   3.801   4.670 -2.0330  0.3059  1.0398
   64SAPC  H14Y 5251   1.293   3.855   4.647  0.8694  0.7179  2.0002
   64SAPC  C315 5252   1.130   4.013   4.614  0.4306  0.9668  0.1042
   64SAPC  H15X 5253   1.201   4.089   4.575 -1.1029  0.4933 -4.2170
   64SAPC  H15Y 5254   1.065   4.066   4.686 -1.1742  0.4039 -0.8795
   64SAPC  C316 5255   1.060   3.972   4.476  0.3609 -0.3991  0.7602
   64SAPC  H16X 5256   1.017   4.065   4.433  0.1197 -0.9542 -0.2279
   64SAPC  H16Y 5257   0.976   3.906   4.506 -0.0214 -0.6099 -0.7156
   64SAPC  C317 5258   1.160   3.905   4.381 -0.7030 -0.3427  0.0500
   64SAPC  H17X 5259   1.166   3.800   4.418  3.5556 -0.3164 -0.0595
   64SAPC  H17Y 5260   1.261   3.951   4.383 -0.6949 -0.2030 -1.7000
   64SAPC  C318 5261   1.112   3.895   4.238 -0.0785  0.3024 -1.0718
   64SAPC  H18X 5262   1.101   3.996   4.193  1.5301  1.7164  1.4765
   64SAPC  H18Y 5263   1.013   3.845   4.228 -0.3107  0.0019  1.8577
   64SAPC  H18Z 5264   1.189   3.842   4.178  3.0134  2.0636  1.0500
   65SAPC     N 5265   4.608   1.110   1.620 -0.1501 -0.2531  0.1655
   65SAPC   C12 5266   4.662   1.199   1.728  0.5060  0.1991 -0.3940
   65SAPC  H12A 5267   4.592   1.276   1.755 -0.7842 -0.8581 -0.6360
   65SAPC  H12B 5268   4.745   1.253   1.684  1.4170 -0.3331  0.5999
   65SAPC   C13 5269   4.558   1.191   1.508 -0.8769 -0.3724 -0.6231
   65SAPC  H13A 5270   4.641   1.249   1.471 -1.6392  0.1699 -1.5290
   65SAPC  H13B 5271   4.526   1.135   1.421  0.7330 -0.2019 -1.3578
   65SAPC  H13C 5272   4.486   1.260   1.550  0.7812  0.2741  1.2950
   65SAPC   C14 5273   4.721   1.030   1.564 -0.4372 -0.0412  0.2958
   65SAPC  H14A 5274   4.761   0.971   1.646  0.2797  1.2741  0.9373
   65SAPC  H14B 5275   4.674   0.974   1.485  1.3914 -0.7682 -0.3350
   65SAPC  H14C 5276   4.795   1.099   1.525 -0.6368 -0.2797 -0.5206
   65SAPC   C15 5277   4.499   1.017   1.664  0.0849 -0.0806  0.5101
   65SAPC  H15A 5278   4.411   1.074   1.691 -0.4855  0.0165 -1.4080
   65SAPC  H15B 5279   4.462   0.951   1.587  1.0221  0.1660 -0.1766
   65SAPC  H15C 5280   4.536   0.959   1.747 -0.2949 -0.4327  0.4368
   65SAPC   C11 5281   4.724   1.134   1.857  0.1898 -0.2210 -0.0827
   65SAPC  H11A 5282   4.646   1.076   1.910 -2.2361  1.2470 -1.8229
   65SAPC  H11B 5283   4.759   1.213   1.928  0.1836 -0.0815 -0.2351
   65SAPC     P 5284   4.978   1.080   1.787  0.0863 -0.2704  0.0574
   65SAPC   O13 5285   5.053   0.953   1.761  0.5977 -0.2340  1.0195
   65SAPC   O14 5286   4.987   1.185   1.686  0.7904  0.2884  0.5263
   65SAPC   O12 5287   4.830   1.040   1.829 -0.2178 -0.3201 -0.0005
   65SAPC   O11 5288   5.020   1.148   1.913  1.2185  0.2022  0.6037
   65SAPC    C1 5289   5.123   1.098   2.002 -0.0244  0.7382 -0.5076
   65SAPC    HA 5290   5.129   0.987   2.001  0.5689  0.7506  0.3177
   65SAPC    HB 5291   5.216   1.149   1.971 -1.0422  2.2026 -1.2698
   65SAPC    C2 5292   5.103   1.138   2.151  0.3644 -0.0230 -0.5034
   65SAPC    HS 5293   5.180   1.214   2.175  0.8866 -0.6657 -0.1129
   65SAPC   O21 5294   5.107   1.033   2.245  0.2666  0.4105  0.0093
   65SAPC   C21 5295   5.228   0.988   2.281 -0.7838  0.2333 -0.8382
   65SAPC   O22 5296   5.332   1.039   2.246  0.1242 -0.4129 -0.8182
   65SAPC   C22 5297   5.213   0.874   2.387  0.2861 -0.1366 -0.4773
   65SAPC   H2R 5298   5.172   0.783   2.340  0.0987 -0.3610  0.1092
   65SAPC   H2S 5299   5.318   0.850   2.415  0.4690  1.3006  0.1512
   65SAPC    C3 5300   4.971   1.219   2.176 -0.3673  0.6702  0.0323
   65SAPC    HX 5301   4.895   1.139   2.185 -0.5581  0.9151  0.6603
   65SAPC    HY 5302   4.933   1.289   2.099 -2.5078  0.1259  0.5244
   65SAPC   O31 5303   4.966   1.284   2.305 -0.0476  0.1037  0.4522
   65SAPC   C31 5304   5.015   1.409   2.308 -0.4592  1.1865  0.3406
   65SAPC   O32 5305   5.073   1.464   2.219 -0.2263  0.2417  0.8819
   65SAPC   C32 5306   5.009   1.458   2.454  0.4538 -0.0605 -0.5629
   65SAPC   H2X 5307   5.112   1.441   2.490  0.0780 -2.2054 -0.3789
   65SAPC   H2Y 5308   4.943   1.385   2.506  1.7991 -2.0841 -1.5480
   65SAPC   C23 5309   5.144   0.918   2.524 -0.3096  0.7125  0.9395
   65SAPC   H3R 5310   5.107   0.827   2.575 -3.0658 -0.0559 -2.0858
   65SAPC   H3S 5311   5.046   0.960   2.491  0.1285  1.2173  0.2552
   65SAPC   C24 5312   5.226   1.009   2.618 -0.0645  0.0411 -0.5382
   65SAPC   H4R 5313   5.166   1.051   2.701  0.1375 -1.3395  0.3479
   65SAPC   H4S 5314   5.253   1.097   2.555  0.5016  1.1404  1.1828
   65SAPC   C25 5315   5.356   0.953   2.672  0.5954 -0.2080 -0.0951
   65SAPC   H5R 5316   5.434   0.946   2.595  1.1564  3.6120 -0.0532
   65SAPC   C26 5317   5.382   0.929   2.801 -0.1603 -0.1602 -0.2117
   65SAPC   H6R 5318   5.486   0.915   2.833 -0.7326  0.1019  1.9952
   65SAPC   C27 5319   5.291   0.944   2.919 -0.1527 -0.0257  0.7660
   65SAPC   H7R 5320   5.183   0.940   2.891  0.5819 -0.9260 -2.2958
   65SAPC   H7S 5321   5.303   1.049   2.955  0.5314 -0.0447  0.6004
   65SAPC   C28 5322   5.314   0.844   3.024 -0.9135 -0.8595 -0.3212
   65SAPC   H8R 5323   5.352   0.742   3.009  0.2374 -0.4176 -0.5244
   65SAPC   C29 5324   5.276   0.852   3.149 -0.5557 -1.0970  0.8370
   65SAPC   H9R 5325   5.288   0.767   3.217  0.1960 -1.7443 -0.0914
   65SAPC  C210 5326   5.202   0.968   3.216  0.0913 -0.9716  0.2338
   65SAPC  H10R 5327   5.232   1.069   3.179 -1.3323  0.6135  3.0424
   65SAPC  H10S 5328   5.232   0.982   3.322 -1.0293  2.0908  0.2478
   65SAPC  C211 5329   5.048   0.961   3.196  0.4053 -0.5555 -0.9892
   65SAPC  H11R 5330   5.012   0.892   3.118  0.1775 -0.5918 -0.8527
   65SAPC  C212 5331   4.955   1.031   3.271 -0.6163  0.7099  0.6023
   65SAPC  H12R 5332   4.851   1.013   3.241 -0.5960  1.4453  0.0471
   65SAPC  C213 5333   4.995   1.127   3.384 -0.0275 -0.0592 -0.3034
   65SAPC  H13R 5334   4.942   1.224   3.383 -0.1728 -0.0968  1.4100
   65SAPC  H13S 5335   5.102   1.155   3.369  0.0349 -0.2139 -0.1628
   65SAPC  C214 5336   4.976   1.051   3.510  0.1207  1.0177 -0.2271
   65SAPC  H14R 5337   4.940   0.948   3.500  0.2559  0.6700  2.1673
   65SAPC  C215 5338   4.990   1.093   3.634  0.7069  0.0349 -0.4799
   65SAPC  H15R 5339   4.971   1.022   3.715  0.7309  0.5073 -0.0530
   65SAPC  C216 5340   5.014   1.233   3.673 -0.6166  0.5904  0.0248
   65SAPC  H16R 5341   5.045   1.288   3.582  0.1693 -1.4266 -1.0038
   65SAPC  H16S 5342   5.109   1.232   3.730 -0.7665 -0.6058  0.2823
   65SAPC  C217 5343   4.916   1.305   3.763  0.0042 -0.0030 -0.8686
   65SAPC  H17R 5344   4.906   1.245   3.856 -2.4233 -2.3085 -2.4337
   65SAPC  H17S 5345   4.816   1.313   3.715  0.9455  0.4142 -2.8717
   65SAPC  C218 5346   4.955   1.453   3.784 -0.2929 -0.2814 -0.0586
   65SAPC  H18R 5347   4.986   1.511   3.695  3.0499 -2.4434 -0.5000
   65SAPC  H18S 5348   5.048   1.461   3.843 -0.6180  1.3167  0.2853
   65SAPC  C219 5349   4.845   1.528   3.860  0.0533 -1.1544 -0.6145
   65SAPC  H19R 5350   4.749   1.480   3.828 -0.2936 -0.2898 -0.8999
   65SAPC  H19S 5351   4.833   1.631   3.822 -2.9005 -1.8476 -1.8992
   65SAPC  C220 5352   4.868   1.528   4.006 -0.7139 -0.0611  0.0652
   65SAPC  H20R 5353   4.786   1.591   4.047 -1.3635 -2.3507  2.4976
   65SAPC  H20S 5354   4.962   1.578   4.038 -0.5355 -0.1947 -0.2484
   65SAPC  H20T 5355   4.868   1.432   4.061 -0.3604  0.3362  0.7780
   65SAPC   C33 5356   4.978   1.611   2.473  0.6417 -0.4008  0.4913
   65SAPC   H3X 5357   5.058   1.668   2.423 -1.5973  2.5340 -0.0193
   65SAPC   H3Y 5358   4.985   1.639   2.581  0.5535 -0.2002  0.4449
   65SAPC   C34 5359   4.842   1.653   2.408  0.7408  0.3367  0.9828
   65SAPC   H4X 5360   4.758   1.613   2.469  1.2996 -0.6872  1.1100
   65SAPC   H4Y 5361   4.841   1.610   2.306 -2.7849 -0.4899  1.2033
   65SAPC   C35 5362   4.818   1.804   2.382  0.2383 -0.1177 -0.0060
   65SAPC   H5X 5363   4.726   1.814   2.321 -0.0919 -2.9253 -0.1286
   65SAPC   H5Y 5364   4.900   1.842   2.317 -1.8027 -0.4183 -2.9244
   65SAPC   C36 5365   4.808   1.885   2.510 -0.1901  0.2636  0.3119
   65SAPC   H6X 5366   4.903   1.882   2.567  0.8343  1.0524 -1.2947
   65SAPC   H6Y 5367   4.736   1.841   2.583 -1.0107  0.4405 -0.3626
   65SAPC   C37 5368   4.768   2.032   2.482  0.5660  0.3955 -0.3624
   65SAPC   H7X 5369   4.660   2.058   2.470  0.0254 -0.1981  2.5793
   65SAPC   H7Y 5370   4.805   2.058   2.380 -1.2585 -3.0630 -2.0942
   65SAPC   C38 5371   4.821   2.128   2.586 -0.4288  0.1063 -0.1598
   65SAPC   H8X 5372   4.809   2.232   2.548 -2.3297  0.1846  0.5602
   65SAPC   H8Y 5373   4.930   2.110   2.595 -0.8827 -2.0846  2.1015
   65SAPC   C39 5374   4.746   2.120   2.720 -0.1739 -0.6511 -0.5355
   65SAPC   H9X 5375   4.769   2.020   2.762 -2.8790 -0.9506  0.4143
   65SAPC   H9Y 5376   4.637   2.139   2.713  0.1304  1.3457 -0.4570
   65SAPC  C310 5377   4.797   2.220   2.827 -0.0318 -0.0379 -0.3439
   65SAPC  H10X 5378   4.792   2.319   2.775 -0.9878  0.1685  0.1260
   65SAPC  H10Y 5379   4.905   2.199   2.840  0.7354  2.5228 -1.9099
   65SAPC  C311 5380   4.716   2.217   2.960 -0.2614 -0.0315  0.4911
   65SAPC  H11X 5381   4.745   2.123   3.012 -1.0928 -0.8188 -0.4502
   65SAPC  H11Y 5382   4.606   2.209   2.946 -0.2918 -0.0597  0.7389
   65SAPC  C312 5383   4.744   2.334   3.050 -0.4002 -0.1743 -0.1583
   65SAPC  H12X 5384   4.743   2.424   2.985 -0.9288  0.7270  1.0665
   65SAPC  H12Y 5385   4.850   2.326   3.082 -0.5407 -0.9226  0.1436
   65SAPC  C313 5386   4.666   2.366   3.173  0.2801  0.0205  0.4501
   65SAPC  H13X 5387   4.713   2.446   3.235  1.4732 -0.1170 -0.2482
   65SAPC  H13Y 5388   4.650   2.275   3.234 -1.4232  0.3043  0.4868
   65SAPC  C314 5389   4.524   2.406   3.139  0.5768  0.0667 -0.2026
   65SAPC  H14X 5390   4.503   2.364   3.039  1.4006 -4.1389  1.2074
   65SAPC  H14Y 5391   4.510   2.514   3.116  1.5281 -0.0670 -1.5882
   65SAPC  C315 5392   4.429   2.336   3.241  0.0805  0.0207  1.0199
   65SAPC  H15X 5393   4.443   2.226   3.248 -0.0743 -0.0260  0.5960
   65SAPC  H15Y 5394   4.327   2.351   3.200  0.6031 -0.0044 -0.3599
   65SAPC  C316 5395   4.439   2.396   3.390  0.4387  0.0726 -0.3161
   65SAPC  H16X 5396   4.423   2.506   3.379  0.0282  0.1161  0.6636
   65SAPC  H16Y 5397   4.541   2.381   3.433  0.0311 -0.0406  0.6382
   65SAPC  C317 5398   4.332   2.348   3.488  0.0037 -0.2680  0.3117
   65SAPC  H17X 5399   4.313   2.240   3.471 -2.8558  0.4449 -1.8148
   65SAPC  H17Y 5400   4.241   2.409   3.469  2.4962  3.3958 -0.8043
   65SAPC  C318 5401   4.366   2.369   3.637 -0.2778  0.3327  0.1548
   65SAPC  H18X 5402   4.298   2.329   3.715 -1.1691  1.1985 -0.1579
   65SAPC  H18Y 5403   4.368   2.479   3.651 -0.7306  0.5363 -1.2585
   65SAPC  H18Z 5404   4.469   2.328   3.648 -0.4286 -0.0684  0.0605
   66SAPC     N 5405   4.497   3.260   1.965  0.1928  0.2215  0.7993
   66SAPC   C12 5406   4.582   3.140   1.920  0.3557  0.1997  0.0360
   66SAPC  H12A 5407   4.566   3.121   1.815  1.2755  0.6229 -0.1900
   66SAPC  H12B 5408   4.534   3.059   1.974 -0.9411 -1.2548 -2.9851
   66SAPC   C13 5409   4.351   3.247   1.935 -0.3534 -0.2610  0.1918
   66SAPC  H13A 5410   4.310   3.155   1.973 -0.1107 -0.6229 -0.4052
   66SAPC  H13B 5411   4.298   3.331   1.978  2.4136  2.1212 -0.7104
   66SAPC  H13C 5412   4.345   3.236   1.827  1.0167  1.6926 -0.1315
   66SAPC   C14 5413   4.517   3.281   2.111  0.5927  0.3613 -0.8647
   66SAPC  H14A 5414   4.471   3.191   2.149 -0.5246  0.9246 -0.8479
   66SAPC  H14B 5415   4.612   3.296   2.159  0.0479  0.3914  0.2412
   66SAPC  H14C 5416   4.461   3.369   2.138  0.4385  0.2672 -0.8742
   66SAPC   C15 5417   4.542   3.373   1.889 -0.3361  0.2450  0.2179
   66SAPC  H15A 5418   4.552   3.356   1.782  1.7236 -1.4419  0.6025
   66SAPC  H15B 5419   4.490   3.462   1.919 -0.1821  0.4516 -0.1279
   66SAPC  H15C 5420   4.648   3.387   1.908 -0.3436  0.9121 -0.2096
   66SAPC   C11 5421   4.731   3.144   1.924 -0.6169  0.5778  0.3069
   66SAPC  H11A 5422   4.770   3.040   1.928 -2.3777 -0.0887  2.3859
   66SAPC  H11B 5423   4.757   3.193   2.020  0.4891 -1.5982  1.1975
   66SAPC     P 5424   4.935   3.251   1.791 -0.1737  0.2747  0.5618
   66SAPC   O13 5425   5.011   3.127   1.757 -0.2908  0.4963 -0.0322
   66SAPC   O14 5426   4.960   3.367   1.701 -0.5165  0.2720 -0.0915
   66SAPC   O12 5427   4.778   3.212   1.801  0.1619 -0.4101 -0.2915
   66SAPC   O11 5428   4.954   3.299   1.945 -0.8921  0.2111  0.6261
   66SAPC    C1 5429   5.088   3.290   2.004 -0.2383 -0.0209  0.1785
   66SAPC    HA 5430   5.168   3.228   1.958 -0.7184 -0.1994 -0.4182
   66SAPC    HB 5431   5.132   3.392   2.005 -0.8141  0.3117  3.6390
   66SAPC    C2 5432   5.070   3.244   2.155 -1.0560  0.2186 -0.0482
   66SAPC    HS 5433   5.170   3.236   2.201  0.8352 -0.0456 -3.7855
   66SAPC   O21 5434   5.007   3.117   2.163  0.1104 -0.0058 -0.0724
   66SAPC   C21 5435   5.094   3.021   2.117  0.1275 -0.3164  0.6686
   66SAPC   O22 5436   5.213   3.043   2.098  0.4920  0.2528 -0.1124
   66SAPC   C22 5437   5.017   2.899   2.090  0.1883  0.3130 -0.4415
   66SAPC   H2R 5438   4.948   2.884   2.176  1.2708  1.1229  0.5986
   66SAPC   H2S 5439   4.962   2.921   1.996  0.8537  2.8745 -0.2857
   66SAPC    C3 5440   4.986   3.340   2.240 -0.1568 -0.1196  0.2643
   66SAPC    HX 5441   4.896   3.345   2.175  1.4647 -0.3230 -2.0900
   66SAPC    HY 5442   5.041   3.436   2.234  0.3608 -0.4974 -1.5366
   66SAPC   O31 5443   4.961   3.287   2.376  0.4397 -1.1374 -0.2013
   66SAPC   C31 5444   4.843   3.317   2.427  0.0082 -0.1846  0.1362
   66SAPC   O32 5445   4.754   3.370   2.364  0.0134  0.4966 -0.0113
   66SAPC   C32 5446   4.849   3.290   2.577 -0.7873 -0.1399  0.7183
   66SAPC   H2X 5447   4.924   3.357   2.624 -0.2543 -0.2791  0.0825
   66SAPC   H2Y 5448   4.906   3.195   2.581  1.2337  0.8494 -1.5823
   66SAPC   C23 5449   5.110   2.776   2.084 -0.0092 -0.6636 -0.1481
   66SAPC   H3R 5450   5.200   2.799   2.022  2.4676 -1.4417  2.8964
   66SAPC   H3S 5451   5.046   2.708   2.024  0.5631 -2.8180  1.5928
   66SAPC   C24 5452   5.137   2.713   2.216 -0.6114  0.1543 -0.5537
   66SAPC   H4R 5453   5.040   2.698   2.266 -0.8196 -1.9198 -1.4918
   66SAPC   H4S 5454   5.202   2.778   2.279 -0.7707  0.4341 -0.6760
   66SAPC   C25 5455   5.208   2.591   2.186  0.0086  0.9204 -0.1249
   66SAPC   H5R 5456   5.267   2.581   2.093 -0.5363  0.0248 -0.3877
   66SAPC   C26 5457   5.181   2.485   2.268  0.0586  0.2634  0.9689
   66SAPC   H6R 5458   5.217   2.385   2.239  1.8514  1.5842 -1.6480
   66SAPC   C27 5459   5.085   2.481   2.383  0.5433 -0.1791 -0.1336
   66SAPC   H7R 5460   4.979   2.481   2.351 -0.0286  2.8304  1.3742
   66SAPC   H7S 5461   5.088   2.578   2.437 -0.3324 -0.2114 -0.0136
   66SAPC   C28 5462   5.118   2.365   2.473 -0.6103 -0.1317  0.4349
   66SAPC   H8R 5463   5.138   2.275   2.412  0.5256  0.5609 -0.2490
   66SAPC   C29 5464   5.120   2.357   2.606 -0.1940  0.1154 -0.5052
   66SAPC   H9R 5465   5.139   2.255   2.643  1.3394  1.4055  2.6353
   66SAPC  C210 5466   5.091   2.461   2.712  0.1670 -0.0644 -0.7046
   66SAPC  H10R 5467   5.083   2.414   2.812 -2.4149  1.6936  0.0111
   66SAPC  H10S 5468   4.988   2.504   2.706 -0.9645 -2.6122 -1.0600
   66SAPC  C211 5469   5.188   2.580   2.732  0.6531 -0.6482  0.2577
   66SAPC  H11R 5470   5.227   2.618   2.636  1.6172 -2.2307 -0.0092
   66SAPC  C212 5471   5.243   2.632   2.847  0.1573  0.2472 -0.3629
   66SAPC  H12R 5472   5.303   2.724   2.841  1.0878 -0.3058  0.2422
   66SAPC  C213 5473   5.217   2.580   2.982  0.5539  0.1973  0.0041
   66SAPC  H13R 5474   5.258   2.477   2.993 -2.7875 -1.0953  1.9596
   66SAPC  H13S 5475   5.109   2.573   3.007  0.4097 -0.5853 -0.7894
   66SAPC  C214 5476   5.276   2.674   3.081  0.3375  0.6210 -0.7090
   66SAPC  H14R 5477   5.224   2.770   3.090 -1.3456 -0.1698 -1.5099
   66SAPC  C215 5478   5.372   2.645   3.177  0.2541  0.2424  0.2146
   66SAPC  H15R 5479   5.409   2.729   3.237  0.7188  1.0778 -1.2041
   66SAPC  C216 5480   5.438   2.519   3.208  0.2189  0.2533  0.4334
   66SAPC  H16R 5481   5.545   2.549   3.213 -0.1874  1.4948  3.1513
   66SAPC  H16S 5482   5.427   2.445   3.125 -1.2616  2.1246 -1.1152
   66SAPC  C217 5483   5.391   2.453   3.335  0.2131 -0.1190 -0.0829
   66SAPC  H17R 5484   5.449   2.362   3.362 -0.8205 -1.4956 -2.2660
   66SAPC  H17S 5485   5.284   2.426   3.328 -0.5786  2.1361  1.8545
   66SAPC  C218 5486   5.394   2.537   3.457 -0.4098  0.1460 -0.2797
   66SAPC  H18R 5487   5.334   2.489   3.537 -2.7250 -1.9760 -3.0566
   66SAPC  H18S 5488   5.350   2.635   3.429  4.0602  1.5938 -3.4172
   66SAPC  C219 5489   5.542   2.560   3.506 -0.2142 -0.3309  0.8294
   66SAPC  H19R 5490   5.590   2.603   3.415  0.2171  0.7589  1.5489
   66SAPC  H19S 5491   5.599   2.466   3.523  1.8129  0.3504 -1.5752
   66SAPC  C220 5492   5.552   2.668   3.610 -0.0631  0.2704 -0.3060
   66SAPC  H20R 5493   5.658   2.672   3.645 -0.0960 -0.9379 -0.0233
   66SAPC  H20S 5494   5.483   2.634   3.690  3.1997 -1.5236  2.0005
   66SAPC  H20T 5495   5.523   2.763   3.560  1.6389 -0.9747 -4.0352
   66SAPC   C33 5496   4.719   3.299   2.655 -0.0139 -1.2093  0.3515
   66SAPC   H3X 5497   4.637   3.233   2.621  1.4138 -1.6609 -2.4831
   66SAPC   H3Y 5498   4.682   3.403   2.639 -1.6729 -2.0794 -2.0469
   66SAPC   C34 5499   4.735   3.276   2.809  0.0352 -0.1998  0.1964
   66SAPC   H4X 5500   4.820   3.337   2.847 -1.0820  1.6599 -0.1474
   66SAPC   H4Y 5501   4.771   3.172   2.821  0.2943 -0.3648 -1.6230
   66SAPC   C35 5502   4.619   3.317   2.902  0.2864  0.6339 -0.1491
   66SAPC   H5X 5503   4.525   3.262   2.880 -0.8320  2.6468 -0.6907
   66SAPC   H5Y 5504   4.592   3.423   2.879  1.5126  1.2796  1.2109
   66SAPC   C36 5505   4.652   3.292   3.050 -0.0421  0.0698 -0.5296
   66SAPC   H6X 5506   4.729   3.369   3.070  1.0414 -1.3620  1.1266
   66SAPC   H6Y 5507   4.704   3.196   3.074  2.6766  1.6164  0.1436
   66SAPC   C37 5508   4.539   3.321   3.150  0.8510 -0.0091  0.0955
   66SAPC   H7X 5509   4.463   3.240   3.144  0.7661  0.0070  0.8987
   66SAPC   H7Y 5510   4.478   3.409   3.121  1.9775  1.2401  1.3704
   66SAPC   C38 5511   4.594   3.336   3.292  0.0281  0.0155 -0.5454
   66SAPC   H8X 5512   4.634   3.438   3.313  0.8443 -0.6405  1.2972
   66SAPC   H8Y 5513   4.687   3.279   3.316 -0.0997  0.1299  0.2291
   66SAPC   C39 5514   4.482   3.299   3.402  0.1404  0.8012 -0.2828
   66SAPC   H9X 5515   4.442   3.197   3.381 -0.0228  0.9419 -0.6450
   66SAPC   H9Y 5516   4.395   3.363   3.377  0.2698  1.2629  0.4001
   66SAPC  C310 5517   4.516   3.323   3.549  0.3991 -0.5069  0.1207
   66SAPC  H10X 5518   4.556   3.427   3.557 -0.5175 -0.1706  0.4373
   66SAPC  H10Y 5519   4.593   3.251   3.584 -0.5422 -1.2467  0.7360
   66SAPC  C311 5520   4.390   3.324   3.627  0.1259 -0.6639  0.0595
   66SAPC  H11X 5521   4.338   3.226   3.616 -0.5906 -0.3406  0.4865
   66SAPC  H11Y 5522   4.317   3.384   3.569 -0.2171 -2.7491 -1.8292
   66SAPC  C312 5523   4.408   3.367   3.771  0.7750  0.4909 -0.1356
   66SAPC  H12X 5524   4.324   3.430   3.808 -0.1185 -1.7307  1.8331
   66SAPC  H12Y 5525   4.498   3.432   3.766 -0.2549  1.9721 -0.0882
   66SAPC  C313 5526   4.438   3.247   3.860 -0.0479 -0.3246 -0.0048
   66SAPC  H13X 5527   4.501   3.279   3.946  1.3616  1.6025 -1.6614
   66SAPC  H13Y 5528   4.475   3.156   3.810  0.4782  0.2344 -0.6432
   66SAPC  C314 5529   4.307   3.196   3.920 -0.1258 -0.4930 -0.5874
   66SAPC  H14X 5530   4.241   3.180   3.832  0.2645 -2.0107 -0.6464
   66SAPC  H14Y 5531   4.275   3.284   3.980 -0.1812 -1.8617  1.5002
   66SAPC  C315 5532   4.300   3.063   3.990 -0.3980 -0.4068  0.4283
   66SAPC  H15X 5533   4.305   2.988   3.908 -2.4179 -0.4936  0.3204
   66SAPC  H15Y 5534   4.200   3.048   4.037 -0.1023  1.2451  1.6797
   66SAPC  C316 5535   4.398   3.043   4.102 -0.0943  0.1712  0.0589
   66SAPC  H16X 5536   4.370   3.111   4.185  1.7843  1.1792 -0.0665
   66SAPC  H16Y 5537   4.502   3.068   4.072  0.1892 -1.3412 -0.3139
   66SAPC  C317 5538   4.393   2.893   4.160 -0.2836 -0.2081  0.0092
   66SAPC  H17X 5539   4.406   2.820   4.077 -1.2019 -0.9158  0.4613
   66SAPC  H17Y 5540   4.291   2.892   4.204  0.5353  0.2593  2.0065
   66SAPC  C318 5541   4.497   2.876   4.272 -0.2840  0.2611  0.1688
   66SAPC  H18X 5542   4.499   2.765   4.284  0.0941  0.5014  2.8516
   66SAPC  H18Y 5543   4.461   2.923   4.366 -3.1321 -1.6205  0.1541
   66SAPC  H18Z 5544   4.603   2.902   4.248 -0.3124  0.9331  0.7612
   67SAPC     N 5545   3.337   2.379   1.738  0.0532  0.1621 -0.1766
   67SAPC   C12 5546   3.341   2.257   1.834 -0.4146 -1.0874 -0.4488
   67SAPC  H12A 5547   3.446   2.244   1.858  0.2476  1.7036 -1.4638
   67SAPC  H12B 5548   3.297   2.179   1.775 -3.0595 -2.2663  2.7855
   67SAPC   C13 5549   3.394   2.346   1.605  0.2426 -0.4324  0.6281
   67SAPC  H13A 5550   3.340   2.263   1.563 -0.1714 -0.0853  0.4570
   67SAPC  H13B 5551   3.386   2.432   1.539 -1.7005 -0.9772  0.0953
   67SAPC  H13C 5552   3.497   2.316   1.606  0.0360 -1.1479  0.7496
   67SAPC   C14 5553   3.195   2.420   1.711 -0.0695 -0.4693 -0.6228
   67SAPC  H14A 5554   3.186   2.517   1.663  0.7276  0.1259  0.3758
   67SAPC  H14B 5555   3.146   2.342   1.655 -1.7176 -0.1740  0.3394
   67SAPC  H14C 5556   3.149   2.425   1.809  2.8943  1.3694  0.8190
   67SAPC   C15 5557   3.409   2.504   1.791 -0.4942  0.1639 -0.0040
   67SAPC  H15A 5558   3.515   2.509   1.773 -0.2354  3.3353  1.7573
   67SAPC  H15B 5559   3.368   2.594   1.748  1.1631  1.5576  1.2170
   67SAPC  H15C 5560   3.398   2.504   1.898 -2.9326  0.3911 -0.1861
   67SAPC   C11 5561   3.262   2.280   1.968  0.2693  0.2545 -0.8971
   67SAPC  H11A 5562   3.256   2.181   2.017  0.3979 -0.5190 -2.3796
   67SAPC  H11B 5563   3.158   2.305   1.939  0.1446 -0.9152 -1.5171
   67SAPC     P 5564   3.445   2.369   2.137 -0.1820 -0.0235 -0.5623
   67SAPC   O13 5565   3.502   2.240   2.106 -0.2716  0.8195 -0.0817
   67SAPC   O14 5566   3.533   2.483   2.105 -0.0727 -0.2912  0.4100
   67SAPC   O12 5567   3.310   2.380   2.053  0.7425 -0.0323 -0.4383
   67SAPC   O11 5568   3.403   2.379   2.293 -0.1133  0.3539 -0.2120
   67SAPC    C1 5569   3.312   2.276   2.336 -0.1907 -0.2308  0.0267
   67SAPC    HA 5570   3.226   2.253   2.269  0.7443 -0.0272 -1.2847
   67SAPC    HB 5571   3.377   2.188   2.356  3.2076  1.7872 -1.3885
   67SAPC    C2 5572   3.240   2.325   2.469 -0.6284  0.5272  0.5719
   67SAPC    HS 5573   3.174   2.402   2.424 -0.9448  0.2191  0.5102
   67SAPC   O21 5574   3.331   2.388   2.561 -0.5288 -0.3609 -0.3324
   67SAPC   C21 5575   3.280   2.497   2.625 -0.2602 -0.4510 -0.3448
   67SAPC   O22 5576   3.170   2.539   2.591 -0.5427 -0.1516 -0.4343
   67SAPC   C22 5577   3.383   2.548   2.727  0.3405 -0.0759  0.4721
   67SAPC   H2R 5578   3.428   2.638   2.680 -0.9291  0.4423  0.2012
   67SAPC   H2S 5579   3.322   2.584   2.813 -1.5893 -0.0351 -0.8577
   67SAPC    C3 5580   3.171   2.210   2.547  0.5698  0.1081  0.6949
   67SAPC    HX 5581   3.111   2.156   2.471  1.3839 -1.5482  1.1942
   67SAPC    HY 5582   3.100   2.258   2.617  0.3351 -0.6025  0.9521
   67SAPC   O31 5583   3.263   2.111   2.589 -0.2192  0.3655 -0.5499
   67SAPC   C31 5584   3.279   2.107   2.725  0.0419  0.2190  0.4426
   67SAPC   O32 5585   3.261   2.196   2.803 -0.3257 -0.4419 -0.1248
   67SAPC   C32 5586   3.322   1.961   2.765 -0.2325 -0.2602 -0.0447
   67SAPC   H2X 5587   3.426   1.938   2.733  0.7523  1.1502  1.9582
   67SAPC   H2Y 5588   3.263   1.882   2.712  0.1770 -1.3011  0.9992
   67SAPC   C23 5589   3.496   2.454   2.773  0.2514  0.6529 -0.3125
   67SAPC   H3R 5590   3.576   2.436   2.698  0.7379 -1.1174  0.5915
   67SAPC   H3S 5591   3.448   2.355   2.787  1.3053 -0.0625 -1.5491
   67SAPC   C24 5592   3.559   2.479   2.916 -0.6621  0.3412  0.5182
   67SAPC   H4R 5593   3.614   2.575   2.902 -2.1499  1.0032 -1.2057
   67SAPC   H4S 5594   3.633   2.398   2.933 -0.8542  0.2312  0.8314
   67SAPC   C25 5595   3.461   2.469   3.027 -0.5324  0.5148 -0.9122
   67SAPC   H5R 5596   3.450   2.365   3.061  0.5020 -0.3220 -2.9494
   67SAPC   C26 5597   3.432   2.571   3.108  0.1646 -0.6245 -0.1366
   67SAPC   H6R 5598   3.355   2.561   3.187 -0.0891 -0.3236 -0.3442
   67SAPC   C27 5599   3.478   2.713   3.090  0.1541  0.2017 -0.0665
   67SAPC   H7R 5600   3.414   2.783   3.149  1.4544  1.7014 -0.3473
   67SAPC   H7S 5601   3.447   2.735   2.985 -3.1283 -2.1081  0.2736
   67SAPC   C28 5602   3.623   2.747   3.109  1.1098 -0.9215  0.8823
   67SAPC   H8R 5603   3.685   2.713   3.024  1.4061 -2.0015  1.5200
   67SAPC   C29 5604   3.677   2.820   3.206 -0.6696  0.0745  0.5981
   67SAPC   H9R 5605   3.786   2.828   3.190 -0.2910 -3.2278  0.7898
   67SAPC  C210 5606   3.614   2.877   3.328  1.0515 -0.9293 -0.3240
   67SAPC  H10R 5607   3.509   2.843   3.338  1.5967 -2.4933  0.4630
   67SAPC  H10S 5608   3.610   2.986   3.304  1.3178 -0.3863  1.8943
   67SAPC  C211 5609   3.689   2.841   3.457 -0.1149  0.1661  0.1788
   67SAPC  H11R 5610   3.790   2.800   3.444 -0.5255 -0.2158 -2.2446
   67SAPC  C212 5611   3.643   2.864   3.583 -0.2784  0.2796 -0.0418
   67SAPC  H12R 5612   3.702   2.835   3.671  0.2042  0.0826 -0.4218
   67SAPC  C213 5613   3.509   2.921   3.598  0.1271 -0.8992 -0.0816
   67SAPC  H13R 5614   3.458   2.895   3.694 -0.6152  0.6625 -0.0150
   67SAPC  H13S 5615   3.436   2.865   3.535  0.1499 -1.0900  0.0597
   67SAPC  C214 5616   3.492   3.070   3.578 -0.2756 -0.1829  0.2355
   67SAPC  H14R 5617   3.585   3.112   3.538  0.6863 -2.3934 -0.0142
   67SAPC  C215 5618   3.375   3.133   3.582 -0.8226 -0.0718 -0.2938
   67SAPC  H15R 5619   3.382   3.242   3.567  2.3016 -0.0936  0.3818
   67SAPC  C216 5620   3.243   3.076   3.625  0.1011  0.8479 -0.1967
   67SAPC  H16R 5621   3.237   2.967   3.606 -1.0811  1.0466 -1.0975
   67SAPC  H16S 5622   3.162   3.120   3.562 -1.3329 -0.9006  0.3247
   67SAPC  C217 5623   3.189   3.101   3.763 -0.1175 -0.9454  0.2702
   67SAPC  H17R 5624   3.090   3.052   3.775 -1.2441  1.0896 -0.2349
   67SAPC  H17S 5625   3.179   3.210   3.786 -1.2328 -1.1000  0.5836
   67SAPC  C218 5626   3.269   3.042   3.884  0.6593  0.2482  0.1145
   67SAPC  H18R 5627   3.359   3.107   3.894 -0.2109  2.0262 -2.4805
   67SAPC  H18S 5628   3.299   2.943   3.842 -1.3806  0.8289 -3.1206
   67SAPC  C219 5629   3.194   3.013   4.010 -0.8647  0.0343  0.2792
   67SAPC  H19R 5630   3.255   2.996   4.101 -1.4554 -1.1097  0.4819
   67SAPC  H19S 5631   3.123   2.927   4.006  0.8546 -1.4715  0.5180
   67SAPC  C220 5632   3.104   3.129   4.060  0.5299 -0.3011 -0.4362
   67SAPC  H20R 5633   3.062   3.105   4.160 -0.7111  2.5469 -0.1866
   67SAPC  H20S 5634   3.014   3.136   3.996 -0.9599 -1.4423  1.4517
   67SAPC  H20T 5635   3.155   3.228   4.058  1.3817 -0.6907  0.8449
   67SAPC   C33 5636   3.292   1.935   2.911 -0.8571  0.9375  0.1744
   67SAPC   H3X 5637   3.182   1.930   2.921 -0.8634 -0.5723 -0.4313
   67SAPC   H3Y 5638   3.344   2.016   2.966  3.4304  0.2413 -2.3041
   67SAPC   C34 5639   3.336   1.800   2.982  0.2001 -0.2258  0.4286
   67SAPC   H4X 5640   3.447   1.797   2.979  0.1856 -0.3173 -0.0671
   67SAPC   H4Y 5641   3.293   1.717   2.922  1.1579 -0.4392  0.0253
   67SAPC   C35 5642   3.285   1.796   3.123  0.1659  0.3113 -0.1559
   67SAPC   H5X 5643   3.302   1.702   3.180 -1.1508  0.0312 -0.2003
   67SAPC   H5Y 5644   3.176   1.812   3.114 -0.0178 -0.5472  0.4041
   67SAPC   C36 5645   3.337   1.917   3.205  0.1655  0.3417  0.2499
   67SAPC   H6X 5646   3.279   2.005   3.169  0.0140  0.7337  1.4023
   67SAPC   H6Y 5647   3.447   1.933   3.210  0.8437 -3.2141 -0.5519
   67SAPC   C37 5648   3.291   1.911   3.351 -0.2748  0.4401 -0.3978
   67SAPC   H7X 5649   3.334   1.819   3.396 -0.4946  1.1835  1.4074
   67SAPC   H7Y 5650   3.183   1.898   3.329  0.6625 -1.9845 -4.6164
   67SAPC   C38 5651   3.334   2.032   3.444  0.8644 -0.5747  0.7256
   67SAPC   H8X 5652   3.287   2.126   3.407  4.1985  1.1757  0.5471
   67SAPC   H8Y 5653   3.439   2.057   3.420  0.8563 -1.8057 -0.7044
   67SAPC   C39 5654   3.300   2.022   3.598  0.1892  0.1131  0.0816
   67SAPC   H9X 5655   3.338   1.921   3.627 -1.4617 -1.2774 -2.1849
   67SAPC   H9Y 5656   3.189   2.019   3.606  0.1375  2.0153  0.4693
   67SAPC  C310 5657   3.344   2.144   3.687  0.1100  0.8011 -0.0527
   67SAPC  H10X 5658   3.293   2.233   3.645  1.6966  0.9089 -1.8938
   67SAPC  H10Y 5659   3.452   2.158   3.670 -0.4055  1.5489 -3.4718
   67SAPC  C311 5660   3.318   2.127   3.834 -0.0899 -0.0300  0.1824
   67SAPC  H11X 5661   3.364   2.032   3.868  2.7993  1.1109 -0.3186
   67SAPC  H11Y 5662   3.207   2.132   3.847 -0.4713 -3.3760 -0.7299
   67SAPC  C312 5663   3.381   2.238   3.924 -0.9690 -0.2994 -0.8440
   67SAPC  H12X 5664   3.444   2.295   3.853 -1.3398 -1.3133 -2.0189
   67SAPC  H12Y 5665   3.447   2.188   3.998  0.9181 -0.4134 -2.5295
   67SAPC  C313 5666   3.269   2.319   3.982 -0.4948 -0.4327 -0.6285
   67SAPC  H13X 5667   3.211   2.248   4.044 -2.6915  1.3281 -0.5589
   67SAPC  H13Y 5668   3.203   2.355   3.901 -1.0472  1.2532  0.5051
   67SAPC  C314 5669   3.319   2.435   4.061 -0.2215 -0.0833  0.1545
   67SAPC  H14X 5670   3.395   2.396   4.132 -0.7460 -0.1268  0.6986
   67SAPC  H14Y 5671   3.232   2.473   4.118  0.1600  0.6704  0.2555
   67SAPC  C315 5672   3.378   2.544   3.971  0.4059  0.1787 -0.4223
   67SAPC  H15X 5673   3.300   2.595   3.910  1.9970  2.3990 -0.7211
   67SAPC  H15Y 5674   3.457   2.511   3.900  1.2079  0.1688  0.4661
   67SAPC  C316 5675   3.441   2.663   4.053 -0.3282  0.1061  0.1338
   67SAPC  H16X 5676   3.512   2.624   4.129  0.1953  1.7694  0.5432
   67SAPC  H16Y 5677   3.354   2.704   4.109 -1.7065 -2.0135 -0.3499
   67SAPC  C317 5678   3.511   2.771   3.965 -0.3166 -0.5804 -0.0090
   67SAPC  H17X 5679   3.515   2.868   4.020  5.0164 -0.4548 -0.1127
   67SAPC  H17Y 5680   3.461   2.785   3.867 -0.3456  1.1332  0.2199
   67SAPC  C318 5681   3.654   2.737   3.923 -0.4620  0.0851  0.0337
   67SAPC  H18X 5682   3.711   2.704   4.011  2.0050 -2.6816 -2.3994
   67SAPC  H18Y 5683   3.706   2.826   3.881  0.5066 -0.9328 -0.9808
   67SAPC  H18Z 5684   3.646   2.647   3.859  0.3032  0.5287 -0.7072
   68SAPC     N 5685   3.937   3.722   1.809  0.3079  0.3060 -0.0305
   68SAPC   C12 5686   3.881   3.790   1.684 -0.3304 -0.5407  0.5496
   68SAPC  H12A 5687   3.968   3.808   1.623 -0.6475  0.0053  0.2521
   68SAPC  H12B 5688   3.825   3.881   1.701 -2.9151 -1.5891 -1.6980
   68SAPC   C13 5689   3.986   3.584   1.773  0.3687  0.0842  0.2959
   68SAPC  H13A 5690   4.020   3.533   1.862  0.5203 -0.3426 -0.0008
   68SAPC  H13B 5691   3.909   3.528   1.721 -0.4764  1.4964 -0.0149
   68SAPC  H13C 5692   4.071   3.580   1.705 -0.1966 -1.3544 -0.3796
   68SAPC   C14 5693   4.058   3.793   1.847 -0.1337 -0.2091 -0.3203
   68SAPC  H14A 5694   4.030   3.897   1.857  2.1158  0.3872  0.3617
   68SAPC  H14B 5695   4.089   3.765   1.947  2.3295  1.1011 -0.6662
   68SAPC  H14C 5696   4.147   3.779   1.789 -1.0570  1.2764 -2.1948
   68SAPC   C15 5697   3.847   3.709   1.923 -0.3506 -0.6176 -0.0423
   68SAPC  H15A 5698   3.884   3.658   2.011 -0.2110  0.1284  0.3401
   68SAPC  H15B 5699   3.806   3.802   1.959  0.9757 -0.7882  2.0992
   68SAPC  H15C 5700   3.758   3.658   1.889 -0.9052 -0.2921  0.8727
   68SAPC   C11 5701   3.788   3.691   1.601  0.1812  0.6220  0.2587
   68SAPC  H11A 5702   3.858   3.615   1.561  0.0047  1.3436 -1.5107
   68SAPC  H11B 5703   3.741   3.750   1.520 -1.0989 -0.0074  0.5064
   68SAPC     P 5704   3.627   3.486   1.686 -0.2623 -0.1445 -0.3367
   68SAPC   O13 5705   3.494   3.476   1.615  0.2315  0.0193  0.0054
   68SAPC   O14 5706   3.745   3.403   1.653  0.5145 -0.3514  0.4576
   68SAPC   O12 5707   3.679   3.631   1.683  0.5288 -0.0133 -0.3201
   68SAPC   O11 5708   3.597   3.474   1.836 -0.5585  0.6111 -0.6906
   68SAPC    C1 5709   3.513   3.554   1.914  0.3937  0.0904  0.0931
   68SAPC    HA 5710   3.517   3.662   1.886 -1.8837  0.7559  1.9354
   68SAPC    HB 5711   3.406   3.533   1.891 -0.1091  1.1227  1.3396
   68SAPC    C2 5712   3.546   3.542   2.068  0.4096  0.3211  0.8642
   68SAPC    HS 5713   3.640   3.598   2.091 -0.3573  1.6499  0.8622
   68SAPC   O21 5714   3.558   3.401   2.097  0.3718  0.1513 -0.5233
   68SAPC   C21 5715   3.680   3.350   2.093 -0.6843  0.2614 -0.3240
   68SAPC   O22 5716   3.782   3.415   2.102 -0.0827 -0.0232  0.4705
   68SAPC   C22 5717   3.671   3.199   2.091  0.1071 -0.4011  0.4507
   68SAPC   H2R 5718   3.580   3.177   2.032 -0.6580 -2.9606  2.4142
   68SAPC   H2S 5719   3.752   3.159   2.027 -0.1634 -2.7607  1.5035
   68SAPC    C3 5720   3.436   3.604   2.150 -0.3609 -0.2531 -0.2602
   68SAPC    HX 5721   3.339   3.560   2.119 -0.2537  0.7786 -2.2128
   68SAPC    HY 5722   3.426   3.711   2.121 -1.3973 -0.0922  0.6151
   68SAPC   O31 5723   3.447   3.577   2.295  0.0869 -0.2200  0.6622
   68SAPC   C31 5724   3.522   3.658   2.352  0.2581  0.0643 -0.1136
   68SAPC   O32 5725   3.603   3.735   2.296  0.2405  0.3937 -0.6914
   68SAPC   C32 5726   3.500   3.655   2.504  0.0020  0.4860 -0.1803
   68SAPC   H2X 5727   3.559   3.578   2.557 -0.9042  0.2334  0.4768
   68SAPC   H2Y 5728   3.394   3.625   2.516 -0.1620  0.3337 -1.8562
   68SAPC   C23 5729   3.647   3.134   2.230  0.0376  0.4046  0.3890
   68SAPC   H3R 5730   3.724   3.146   2.309  0.3846 -2.6307  0.6404
   68SAPC   H3S 5731   3.641   3.025   2.208  0.5215  0.5864 -0.7287
   68SAPC   C24 5732   3.509   3.165   2.290  0.5003  0.0567 -0.7141
   68SAPC   H4R 5733   3.429   3.122   2.225 -0.0667  0.6791 -0.4411
   68SAPC   H4S 5734   3.488   3.274   2.293 -0.7413 -0.1872  0.5832
   68SAPC   C25 5735   3.485   3.091   2.420 -0.2757 -0.0592 -0.3376
   68SAPC   H5R 5736   3.462   2.983   2.419  0.0044 -0.1876  1.8855
   68SAPC   C26 5737   3.481   3.150   2.536  0.4100  0.1845  0.6604
   68SAPC   H6R 5738   3.454   3.092   2.625 -2.3844  1.7439  0.9309
   68SAPC   C27 5739   3.491   3.299   2.568  0.2472  0.6281 -0.1062
   68SAPC   H7R 5740   3.483   3.363   2.477 -0.9891 -1.5792 -1.6460
   68SAPC   H7S 5741   3.586   3.316   2.624 -1.3531  1.7590  2.4580
   68SAPC   C28 5742   3.382   3.346   2.665 -0.1929  0.3327 -0.4930
   68SAPC   H8R 5743   3.297   3.391   2.612  0.1385  2.8473  0.9270
   68SAPC   C29 5744   3.377   3.327   2.799  0.5318 -0.7771  0.6726
   68SAPC   H9R 5745   3.296   3.374   2.856  1.7082  0.3022  1.5231
   68SAPC  C210 5746   3.481   3.278   2.885  0.3721  0.1209 -0.7332
   68SAPC  H10R 5747   3.509   3.352   2.963 -1.2043 -0.0341  0.0360
   68SAPC  H10S 5748   3.576   3.276   2.828  0.8040  0.2453 -0.0351
   68SAPC  C211 5749   3.443   3.148   2.957 -0.7823  0.5103  0.5190
   68SAPC  H11R 5750   3.385   3.167   3.049 -0.7009  0.5294  0.5663
   68SAPC  C212 5751   3.497   3.026   2.938  0.4147  0.5484 -0.0332
   68SAPC  H12R 5752   3.456   2.948   3.004  1.3685 -0.1666 -0.2544
   68SAPC  C213 5753   3.615   2.982   2.843  0.9211 -0.0160 -0.1675
   68SAPC  H13R 5754   3.709   2.958   2.897  0.3618 -1.3911  0.2469
   68SAPC  H13S 5755   3.647   3.066   2.777  0.4848  0.7794  0.6064
   68SAPC  C214 5756   3.593   2.860   2.752  0.0401  0.3785  0.0934
   68SAPC  H14R 5757   3.503   2.803   2.779  0.3896 -0.7064 -0.8930
   68SAPC  C215 5758   3.682   2.814   2.655 -0.4180  0.7720  0.0057
   68SAPC  H15R 5759   3.660   2.720   2.603  0.0538  0.6078  0.1045
   68SAPC  C216 5760   3.814   2.889   2.631  0.4541  0.7701 -0.1022
   68SAPC  H16R 5761   3.851   2.941   2.722  0.2669 -0.9821  1.0400
   68SAPC  H16S 5762   3.792   2.955   2.545  0.5573  0.5125 -0.3277
   68SAPC  C217 5763   3.923   2.800   2.581 -0.4438  0.1547 -0.0773
   68SAPC  H17R 5764   3.911   2.770   2.475 -0.2524 -0.7282  0.1442
   68SAPC  H17S 5765   3.936   2.704   2.635  2.0273  0.1693 -0.5017
   68SAPC  C218 5766   4.057   2.869   2.585  0.0687 -0.0363  0.0609
   68SAPC  H18R 5767   4.046   2.979   2.572  1.4587  0.5649  3.1276
   68SAPC  H18S 5768   4.117   2.816   2.508  1.4245  1.4513  0.0487
   68SAPC  C219 5769   4.143   2.840   2.715 -0.2801 -0.2553 -0.0432
   68SAPC  H19R 5770   4.137   2.730   2.727 -0.9447 -0.3049 -0.7973
   68SAPC  H19S 5771   4.097   2.882   2.807  1.5385 -0.8936  1.2222
   68SAPC  C220 5772   4.292   2.888   2.703  0.2247  0.2088 -0.4827
   68SAPC  H20R 5773   4.304   2.999   2.701  0.0086  0.2248 -2.0174
   68SAPC  H20S 5774   4.325   2.836   2.611 -0.7178 -2.5692  0.6627
   68SAPC  H20T 5775   4.346   2.853   2.793  3.5034  1.3984 -1.8467
   68SAPC   C33 5776   3.531   3.788   2.569  0.5515  0.0347 -0.0588
   68SAPC   H3X 5777   3.438   3.843   2.593  0.5802 -0.4275  1.1664
   68SAPC   H3Y 5778   3.592   3.857   2.507  2.4208  0.7270  2.3813
   68SAPC   C34 5779   3.603   3.781   2.707  0.2789 -0.3691 -0.5125
   68SAPC   H4X 5780   3.632   3.885   2.733  1.0779 -1.0308  1.4145
   68SAPC   H4Y 5781   3.700   3.727   2.705 -0.6565 -2.1519 -0.0529
   68SAPC   C35 5782   3.525   3.727   2.827  0.2254  0.2870 -0.1394
   68SAPC   H5X 5783   3.500   3.622   2.801 -1.7359  1.3342 -2.9336
   68SAPC   H5Y 5784   3.429   3.780   2.841  0.0638 -0.2684  0.9167
   68SAPC   C36 5785   3.595   3.739   2.961 -0.1679 -0.6215  0.3827
   68SAPC   H6X 5786   3.610   3.842   3.001  0.4569 -0.5473 -0.0314
   68SAPC   H6Y 5787   3.698   3.700   2.955 -1.2119 -3.5699 -0.0235
   68SAPC   C37 5788   3.536   3.664   3.078  0.5541  0.6154  0.1177
   68SAPC   H7X 5789   3.537   3.558   3.045  1.7020  0.8562 -0.6666
   68SAPC   H7Y 5790   3.431   3.699   3.090  0.2979  0.5448 -1.6411
   68SAPC   C38 5791   3.622   3.677   3.210 -0.2450  0.4412  0.2246
   68SAPC   H8X 5792   3.633   3.782   3.247  0.4365 -0.3442  2.4212
   68SAPC   H8Y 5793   3.721   3.629   3.198 -0.5380  0.2133 -1.3869
   68SAPC   C39 5794   3.546   3.601   3.317  0.2120  0.1518 -0.1237
   68SAPC   H9X 5795   3.533   3.495   3.284 -0.1918  0.4102 -0.8070
   68SAPC   H9Y 5796   3.441   3.636   3.331  0.3422  0.0119  1.3517
   68SAPC  C310 5797   3.618   3.597   3.449  0.0633  0.5334 -0.4458
   68SAPC  H10X 5798   3.619   3.694   3.502  0.6623 -0.5780  1.7072
   68SAPC  H10Y 5799   3.727   3.574   3.439 -0.1547 -2.8411  2.7546
   68SAPC  C311 5800   3.565   3.494   3.547 -0.4684  0.1210 -0.1742
   68SAPC  H11X 5801   3.606   3.396   3.512 -1.4190 -0.0134 -0.9668
   68SAPC  H11Y 5802   3.455   3.488   3.536 -0.5510 -1.4218  1.1118
   68SAPC  C312 5803   3.590   3.533   3.693 -0.0007  0.4355 -0.2324
   68SAPC  H12X 5804   3.548   3.633   3.716  2.3836  1.6563 -0.8276
   68SAPC  H12Y 5805   3.701   3.534   3.706  0.2648 -1.1023 -2.0057
   68SAPC  C313 5806   3.527   3.429   3.789 -0.0711 -0.7478  0.7676
   68SAPC  H13X 5807   3.574   3.329   3.799 -0.7186 -1.4766 -2.3691
   68SAPC  H13Y 5808   3.422   3.412   3.758  0.3167 -0.4424 -0.7827
   68SAPC  C314 5809   3.519   3.476   3.933 -0.1768 -0.3683  0.5080
   68SAPC  H14X 5810   3.436   3.548   3.946 -0.4169 -0.7197  0.9429
   68SAPC  H14Y 5811   3.617   3.518   3.965  0.3187 -1.5301  0.5775
   68SAPC  C315 5812   3.493   3.359   4.030 -0.1863 -0.3814 -0.5340
   68SAPC  H15X 5813   3.425   3.286   3.981 -1.7375 -0.2798  1.3367
   68SAPC  H15Y 5814   3.438   3.394   4.121 -1.6242 -1.5350 -0.9206
   68SAPC  C316 5815   3.613   3.286   4.084  0.7180  0.2700 -0.0570
   68SAPC  H16X 5816   3.663   3.343   4.166 -1.3545  0.4700  1.1603
   68SAPC  H16Y 5817   3.688   3.277   4.004  0.7763  2.0651 -0.2384
   68SAPC  C317 5818   3.566   3.149   4.142 -0.4655 -0.4843 -0.5059
   68SAPC  H17X 5819   3.544   3.085   4.053 -0.3464 -2.7929  1.0339
   68SAPC  H17Y 5820   3.475   3.167   4.202 -0.1622 -0.2309 -0.1169
   68SAPC  C318 5821   3.675   3.072   4.224  0.4980 -0.1850  0.1294
   68SAPC  H18X 5822   3.726   3.144   4.292  0.1370  0.1034  0.1033
   68SAPC  H18Y 5823   3.758   3.052   4.153  2.7868  1.8672  2.0185
   68SAPC  H18Z 5824   3.635   2.981   4.273  0.9687 -0.3190  0.2660
   69SAPC     N 5825   0.749   2.445   1.595  0.4974  0.0692 -0.0251
   69SAPC   C12 5826   0.721   2.310   1.651 -0.1086 -0.0929 -0.1494
   69SAPC  H12A 5827   0.806   2.283   1.712  1.2321  2.3049 -0.8053
   69SAPC  H12B 5828   0.717   2.230   1.579  0.3436 -2.0091  1.8639
   69SAPC   C13 5829   0.644   2.476   1.491  0.3780  0.0285 -0.2391
   69SAPC  H13A 5830   0.653   2.396   1.418  1.5486 -0.4500  0.3981
   69SAPC  H13B 5831   0.546   2.476   1.536  0.2054 -3.1937 -0.3925
   69SAPC  H13C 5832   0.669   2.574   1.453 -1.1265  0.5634  0.1074
   69SAPC   C14 5833   0.748   2.556   1.696  0.2979 -0.2307  0.0096
   69SAPC  H14A 5834   0.645   2.569   1.723  0.5023  0.9284  0.2746
   69SAPC  H14B 5835   0.809   2.524   1.779  0.3536 -3.2138 -1.0655
   69SAPC  H14C 5836   0.793   2.645   1.654  0.0729 -0.6127 -1.0683
   69SAPC   C15 5837   0.877   2.448   1.516 -0.0569  0.8022  0.6338
   69SAPC  H15A 5838   0.882   2.389   1.426  0.2944 -1.6726  2.1662
   69SAPC  H15B 5839   0.901   2.552   1.500  0.6161  0.7193  1.0667
   69SAPC  H15C 5840   0.951   2.405   1.582 -0.2401 -0.8132 -0.1660
   69SAPC   C11 5841   0.592   2.290   1.729  0.1585  0.4685  0.2342
   69SAPC  H11A 5842   0.568   2.372   1.801 -1.8534  1.3484 -1.3263
   69SAPC  H11B 5843   0.603   2.206   1.801  0.1062  1.6605  1.6818
   69SAPC     P 5844   0.337   2.325   1.646  0.3843  0.0275  0.6674
   69SAPC   O13 5845   0.354   2.464   1.606  0.4378 -0.4868  0.1267
   69SAPC   O14 5846   0.246   2.252   1.556 -0.0408 -0.3910 -0.1747
   69SAPC   O12 5847   0.488   2.259   1.636 -0.4349 -0.8913  0.3804
   69SAPC   O11 5848   0.296   2.317   1.797  0.2217  0.3251  0.0515
   69SAPC    C1 5849   0.312   2.193   1.875  0.1544 -0.0398 -0.0390
   69SAPC    HA 5850   0.375   2.115   1.828  0.3043  0.3451 -0.4797
   69SAPC    HB 5851   0.372   2.217   1.965  0.4701  1.1274 -0.5415
   69SAPC    C2 5852   0.168   2.147   1.921  0.2049 -0.4810  0.1217
   69SAPC    HS 5853   0.102   2.160   1.832  0.3725  2.4121  0.3191
   69SAPC   O21 5854   0.131   2.227   2.038  0.3239 -0.3636 -0.2187
   69SAPC   C21 5855   0.002   2.255   2.056  0.2098 -0.1628  0.4158
   69SAPC   O22 5856  -0.088   2.201   1.993  0.2418 -0.3622 -0.1107
   69SAPC   C22 5857  -0.028   2.352   2.168 -0.2992  0.4425 -1.0432
   69SAPC   H2R 5858   0.045   2.434   2.151  2.0989 -1.0379  1.3796
   69SAPC   H2S 5859  -0.134   2.384   2.174 -0.5211 -0.4928  0.5595
   69SAPC    C3 5860   0.166   1.995   1.960 -0.0945 -0.3438  0.0393
   69SAPC    HX 5861   0.204   1.928   1.879  0.7507 -1.8741  1.6329
   69SAPC    HY 5862   0.059   1.974   1.979 -0.6530 -0.5925 -2.8729
   69SAPC   O31 5863   0.247   1.969   2.069 -0.4039 -0.3414 -0.0910
   69SAPC   C31 5864   0.195   1.955   2.191  0.7867 -0.2756  0.7749
   69SAPC   O32 5865   0.080   1.934   2.213 -0.2725 -0.0356 -0.1489
   69SAPC   C32 5866   0.303   1.980   2.292 -0.0905 -0.5597 -0.2216
   69SAPC   H2X 5867   0.353   2.075   2.262 -2.6329  0.3227 -2.0497
   69SAPC   H2Y 5868   0.369   1.893   2.271 -0.0857 -0.1062 -2.3232
   69SAPC   C23 5869   0.010   2.291   2.303 -0.1055 -0.2832  0.1827
   69SAPC   H3R 5870   0.117   2.264   2.297  0.0381  0.1915  0.6007
   69SAPC   H3S 5871  -0.035   2.193   2.331  1.8179 -1.0110  0.8606
   69SAPC   C24 5872   0.003   2.397   2.415 -0.1446  0.0677 -0.3424
   69SAPC   H4R 5873  -0.106   2.413   2.427 -0.6821 -2.8766 -0.5976
   69SAPC   H4S 5874   0.047   2.492   2.379  1.6973 -0.6509 -0.0824
   69SAPC   C25 5875   0.076   2.342   2.541 -0.5125  0.5191  0.7265
   69SAPC   H5R 5876   0.175   2.295   2.532 -1.5033 -1.4332 -0.6262
   69SAPC   C26 5877   0.035   2.346   2.671 -0.3132 -0.7870 -0.2098
   69SAPC   H6R 5878   0.105   2.316   2.750  1.3736  1.0474 -0.8989
   69SAPC   C27 5879  -0.090   2.404   2.721 -0.3736  0.2549  0.2604
   69SAPC   H7R 5880  -0.151   2.448   2.640 -2.3548 -0.2951  1.3990
   69SAPC   H7S 5881  -0.061   2.493   2.781  1.1059 -0.1334  0.1707
   69SAPC   C28 5882  -0.170   2.310   2.804  0.3076 -0.4640 -0.8436
   69SAPC   H8R 5883  -0.240   2.250   2.744  1.0525 -0.0026 -2.2100
   69SAPC   C29 5884  -0.184   2.308   2.940 -0.3160  0.9656 -0.2954
   69SAPC   H9R 5885  -0.245   2.226   2.980  1.2498  0.2650  0.7367
   69SAPC  C210 5886  -0.109   2.390   3.036  0.4619  0.1106 -0.3534
   69SAPC  H10R 5887  -0.004   2.415   3.010  0.5301  0.2506  0.0558
   69SAPC  H10S 5888  -0.099   2.328   3.128 -3.1885 -0.7923 -0.4114
   69SAPC  C211 5889  -0.188   2.516   3.079 -0.5622 -0.4598  0.5843
   69SAPC  H11R 5890  -0.181   2.593   3.000  0.6425  0.4774  1.5621
   69SAPC  C212 5891  -0.254   2.537   3.194  0.2765 -0.2914  0.7212
   69SAPC  H12R 5892  -0.291   2.637   3.220  0.5818  0.4030 -1.3589
   69SAPC  C213 5893  -0.263   2.435   3.311  0.0659  0.3863 -0.2351
   69SAPC  H13R 5894  -0.161   2.413   3.349 -0.6225 -1.0430  0.9202
   69SAPC  H13S 5895  -0.290   2.333   3.276 -3.0502  0.7078  0.9044
   69SAPC  C214 5896  -0.367   2.470   3.410  0.0220 -0.1546  0.2578
   69SAPC  H14R 5897  -0.443   2.544   3.382  0.0702  0.7003  2.2263
   69SAPC  C215 5898  -0.352   2.440   3.537 -0.2358 -0.7997 -0.0208
   69SAPC  H15R 5899  -0.422   2.473   3.615  0.9915 -0.0323  0.7822
   69SAPC  C216 5900  -0.249   2.357   3.603 -0.5539 -0.0633 -0.3506
   69SAPC  H16R 5901  -0.150   2.362   3.552 -1.6130  0.2066 -2.5196
   69SAPC  H16S 5902  -0.285   2.254   3.620 -1.5911  0.1602 -1.0871
   69SAPC  C217 5903  -0.215   2.410   3.743 -0.3435  0.7636  0.0675
   69SAPC  H17R 5904  -0.316   2.425   3.787 -0.1753 -1.2071  1.2229
   69SAPC  H17S 5905  -0.154   2.503   3.744 -0.7678  1.0483  1.0120
   69SAPC  C218 5906  -0.137   2.308   3.836  0.7764 -0.2570  0.7565
   69SAPC  H18R 5907  -0.181   2.208   3.814  0.2156  0.2114 -0.3189
   69SAPC  H18S 5908  -0.160   2.330   3.942 -1.3805 -1.3110  0.5598
   69SAPC  C219 5909   0.004   2.321   3.804 -0.3376 -0.4676  0.6218
   69SAPC  H19R 5910   0.025   2.430   3.810 -0.2541 -0.3685 -0.9970
   69SAPC  H19S 5911   0.037   2.293   3.701 -0.1006  2.4532 -0.1878
   69SAPC  C220 5912   0.082   2.247   3.904  0.6374  0.0111  0.1886
   69SAPC  H20R 5913   0.046   2.276   4.005  1.0095 -0.3583  0.4295
   69SAPC  H20S 5914   0.191   2.269   3.898  0.9012 -0.9844  1.1268
   69SAPC  H20T 5915   0.086   2.137   3.888  0.0472 -0.1521  1.0818
   69SAPC   C33 5916   0.261   2.004   2.438  0.1464  0.0124  0.3360
   69SAPC   H3X 5917   0.172   2.071   2.426 -1.8899 -2.5826  0.0980
   69SAPC   H3Y 5918   0.336   2.051   2.505 -0.0445 -2.4127  2.3649
   69SAPC   C34 5919   0.221   1.870   2.507 -0.1045 -0.4344 -0.4806
   69SAPC   H4X 5920   0.304   1.831   2.569 -1.5976  1.2048  2.7768
   69SAPC   H4Y 5921   0.185   1.795   2.433  1.5392 -2.2650  0.4761
   69SAPC   C35 5922   0.102   1.891   2.604 -0.1952  0.1400  0.4412
   69SAPC   H5X 5923   0.041   1.800   2.620  1.4212 -0.4863  4.1733
   69SAPC   H5Y 5924   0.031   1.971   2.576 -0.5438 -0.2502  0.2026
   69SAPC   C36 5925   0.169   1.952   2.728  0.3274  0.3065 -0.0729
   69SAPC   H6X 5926   0.238   2.037   2.707 -0.6160  1.4348  1.1944
   69SAPC   H6Y 5927   0.236   1.876   2.773 -0.8929 -0.4615  0.4865
   69SAPC   C37 5928   0.061   2.012   2.820 -0.4233 -0.1858  0.6420
   69SAPC   H7X 5929  -0.014   1.931   2.835 -0.7306 -0.3398 -1.4435
   69SAPC   H7Y 5930   0.011   2.092   2.762 -1.1213  0.5011  2.1175
   69SAPC   C38 5931   0.108   2.077   2.946  0.6834 -0.2569  0.2772
   69SAPC   H8X 5932   0.023   2.139   2.981  1.7951  0.9755  0.8926
   69SAPC   H8Y 5933   0.187   2.151   2.923  1.4409 -0.5675  1.7575
   69SAPC   C39 5934   0.160   1.975   3.047  0.0940  0.2219 -0.7719
   69SAPC   H9X 5935   0.236   1.911   2.998  0.4432 -1.1623  1.4656
   69SAPC   H9Y 5936   0.070   1.914   3.070  0.5889  0.0547  0.7842
   69SAPC  C310 5937   0.212   2.031   3.180 -0.4802  0.3791 -0.2519
   69SAPC  H10X 5938   0.140   2.098   3.232 -1.7749 -0.8787 -0.3794
   69SAPC  H10Y 5939   0.305   2.091   3.164 -0.6423  1.0758  1.2581
   69SAPC  C311 5940   0.236   1.908   3.273 -0.0021 -0.4386  0.0834
   69SAPC  H11X 5941   0.323   1.851   3.234  0.6299  1.1406 -0.9284
   69SAPC  H11Y 5942   0.145   1.847   3.293  0.1965 -1.3210 -1.5982
   69SAPC  C312 5943   0.278   1.946   3.416 -0.2539  0.3872 -0.3990
   69SAPC  H12X 5944   0.213   2.028   3.452 -0.1475  0.1516  0.3393
   69SAPC  H12Y 5945   0.383   1.981   3.424  0.1991 -1.1212  0.6468
   69SAPC  C313 5946   0.275   1.823   3.511  0.3469 -0.8614 -0.9306
   69SAPC  H13X 5947   0.321   1.730   3.472  0.0752 -1.1474 -0.5829
   69SAPC  H13Y 5948   0.171   1.812   3.549  0.1381  0.2361 -1.1594
   69SAPC  C314 5949   0.355   1.863   3.643  0.1843  0.4050  0.1369
   69SAPC  H14X 5950   0.322   1.969   3.652 -0.2193  0.2514  0.5122
   69SAPC  H14Y 5951   0.463   1.859   3.620  0.1896  0.9921  0.0319
   69SAPC  C315 5952   0.321   1.765   3.757  0.4500 -0.2681 -0.2459
   69SAPC  H15X 5953   0.210   1.763   3.758  0.4541 -0.3706  0.0301
   69SAPC  H15Y 5954   0.341   1.821   3.850 -1.5618  0.2150 -0.0514
   69SAPC  C316 5955   0.388   1.632   3.754 -0.3243  0.1487 -0.3557
   69SAPC  H16X 5956   0.499   1.640   3.748 -0.3756  2.9757  0.5722
   69SAPC  H16Y 5957   0.353   1.582   3.662  0.2728  1.9316 -1.6145
   69SAPC  C317 5958   0.351   1.555   3.883  0.1865  0.7047 -0.5801
   69SAPC  H17X 5959   0.242   1.562   3.904  0.1677 -1.2902  0.1782
   69SAPC  H17Y 5960   0.418   1.609   3.953  1.0877  1.3182 -1.8587
   69SAPC  C318 5961   0.381   1.408   3.872 -0.2613  0.8461 -0.4280
   69SAPC  H18X 5962   0.364   1.341   3.959  1.3924  2.2728  1.0823
   69SAPC  H18Y 5963   0.490   1.393   3.851 -0.2572 -0.9575  0.6756
   69SAPC  H18Z 5964   0.316   1.364   3.793  1.0976  0.2340 -1.2496
   70SAPC     N 5965   5.571   3.180   1.993  0.6340 -0.5763 -0.0118
   70SAPC   C12 5966   5.719   3.212   1.994 -0.2646  0.6644  0.6414
   70SAPC  H12A 5967   5.732   3.256   1.896  2.1318  0.7411  0.9210
   70SAPC  H12B 5968   5.771   3.117   2.001  0.4540  0.8019 -1.9378
   70SAPC   C13 5969   5.493   3.301   1.941  0.1143  0.6118  0.1867
   70SAPC  H13A 5970   5.517   3.326   1.839  0.1580  0.2978  0.1207
   70SAPC  H13B 5971   5.390   3.271   1.945  0.3411 -0.1404  0.4920
   70SAPC  H13C 5972   5.503   3.393   1.998 -2.1164  0.8299  0.3045
   70SAPC   C14 5973   5.541   3.064   1.907  0.5984  0.3057 -0.0534
   70SAPC  H14A 5974   5.438   3.036   1.896  0.9421 -0.5603 -1.3334
   70SAPC  H14B 5975   5.575   3.079   1.806  0.7446 -4.5810 -0.9612
   70SAPC  H14C 5976   5.588   2.970   1.934 -0.1148  0.2466  1.0670
   70SAPC   C15 5977   5.530   3.149   2.132 -0.4640 -0.3590 -0.5734
   70SAPC  H15A 5978   5.438   3.094   2.149  0.4938 -1.4824  1.3120
   70SAPC  H15B 5979   5.599   3.078   2.175 -0.8190 -0.7681 -0.6679
   70SAPC  H15C 5980   5.526   3.238   2.193 -0.8925 -0.9127  0.2235
   70SAPC   C11 5981   5.771   3.315   2.089  0.1305 -0.1378 -0.0401
   70SAPC  H11A 5982   5.882   3.307   2.095  0.3816  2.0055 -1.0692
   70SAPC  H11B 5983   5.736   3.293   2.192  1.2877 -3.4904 -0.2343
   70SAPC     P 5984   5.818   3.525   1.949 -0.2654 -0.0788  0.5080
   70SAPC   O13 5985   5.890   3.435   1.855  0.4539  0.8285  0.0189
   70SAPC   O14 5986   5.739   3.632   1.881 -0.6023 -0.2546 -0.5957
   70SAPC   O12 5987   5.727   3.448   2.053  0.2210 -0.1329 -1.1738
   70SAPC   O11 5988   5.930   3.595   2.041  0.3444  0.3039  0.4075
   70SAPC    C1 5989   5.911   3.655   2.173 -0.6229  0.6230  0.0115
   70SAPC    HA 5990   5.950   3.759   2.165 -0.7094  0.5869 -1.1926
   70SAPC    HB 5991   5.807   3.656   2.212 -0.4990 -0.4314  0.3858
   70SAPC    C2 5992   5.989   3.567   2.273 -0.4999  0.0505  0.3355
   70SAPC    HS 5993   5.927   3.476   2.289 -0.3676 -0.0297  0.3908
   70SAPC   O21 5994   6.016   3.644   2.391  0.2420  0.2057  0.0391
   70SAPC   C21 5995   5.904   3.678   2.466  0.1177 -0.1672  0.2844
   70SAPC   O22 5996   5.797   3.629   2.449 -0.1535  0.2330 -0.5271
   70SAPC   C22 5997   5.931   3.797   2.553 -0.0241 -0.1405 -0.2494
   70SAPC   H2R 5998   6.037   3.799   2.585 -0.2373  2.5035  0.6313
   70SAPC   H2S 5999   5.916   3.897   2.506 -3.0380 -0.2791  0.1800
   70SAPC    C3 6000   6.129   3.521   2.214 -0.6578  0.7296 -0.2830
   70SAPC    HX 6001   6.183   3.600   2.157 -2.4882  0.8040 -2.0016
   70SAPC    HY 6002   6.096   3.454   2.132 -0.2441  0.7347 -0.4574
   70SAPC   O31 6003   6.220   3.448   2.307 -0.3040 -0.2985 -0.2309
   70SAPC   C31 6004   6.314   3.534   2.361 -0.2078 -1.5414 -0.2172
   70SAPC   O32 6005   6.326   3.650   2.334  0.5161 -0.2453  0.1615
   70SAPC   C32 6006   6.403   3.457   2.453  0.2401 -0.0470 -0.5463
   70SAPC   H2X 6007   6.509   3.487   2.447  0.1360  0.6292  0.6076
   70SAPC   H2Y 6008   6.406   3.354   2.414 -1.0348 -1.0099  1.6705
   70SAPC   C23 6009   5.859   3.783   2.696 -0.4462 -0.1954 -0.1346
   70SAPC   H3R 6010   5.749   3.788   2.680 -0.7988 -0.5422  1.9284
   70SAPC   H3S 6011   5.902   3.863   2.760 -0.8566 -0.0155 -0.0764
   70SAPC   C24 6012   5.873   3.652   2.774 -0.3422 -0.3917 -0.1972
   70SAPC   H4R 6013   5.982   3.638   2.789 -0.7861 -2.9468  1.0704
   70SAPC   H4S 6014   5.836   3.568   2.711  1.8580 -1.4616 -0.1659
   70SAPC   C25 6015   5.821   3.655   2.915 -0.2651  0.9583  0.3288
   70SAPC   H5R 6016   5.895   3.696   2.985  3.6045 -2.7942 -1.0830
   70SAPC   C26 6017   5.709   3.606   2.964  0.6160 -0.3941 -0.1151
   70SAPC   H6R 6018   5.679   3.619   3.069 -1.1178 -2.2484 -0.3252
   70SAPC   C27 6019   5.595   3.554   2.876  0.2215  0.2553  0.6443
   70SAPC   H7R 6020   5.587   3.614   2.783 -0.6097 -0.3826  0.2948
   70SAPC   H7S 6021   5.499   3.568   2.929  0.7837 -1.6922  2.3483
   70SAPC   C28 6022   5.612   3.408   2.839 -0.1890 -0.2136 -0.4281
   70SAPC   H8R 6023   5.673   3.386   2.750 -0.9271 -0.5280 -0.8640
   70SAPC   C29 6024   5.559   3.307   2.916 -1.0511  0.7663 -0.3178
   70SAPC   H9R 6025   5.576   3.202   2.885 -0.6285  0.0576  2.0884
   70SAPC  C210 6026   5.486   3.312   3.049 -0.1867 -0.4842  0.5955
   70SAPC  H10R 6027   5.391   3.256   3.046 -1.7880  2.0975 -0.3183
   70SAPC  H10S 6028   5.462   3.419   3.064 -0.6121 -0.1383 -2.0024
   70SAPC  C211 6029   5.572   3.273   3.158 -0.0531  0.2566 -0.2930
   70SAPC  H11R 6030   5.666   3.330   3.165  0.1724 -0.3531  2.4229
   70SAPC  C212 6031   5.536   3.218   3.268 -0.7937 -0.3950 -0.1294
   70SAPC  H12R 6032   5.618   3.189   3.334 -1.3371  2.2245  1.8654
   70SAPC  C213 6033   5.405   3.149   3.298  0.1257 -0.0090 -0.4025
   70SAPC  H13R 6034   5.402   3.071   3.218  1.1750  1.8715 -2.3878
   70SAPC  H13S 6035   5.315   3.215   3.296  0.2700  0.1786 -1.8492
   70SAPC  C214 6036   5.413   3.078   3.425 -0.2504  0.3894 -0.3907
   70SAPC  H14R 6037   5.494   3.106   3.494 -2.1398  1.0383  1.6636
   70SAPC  C215 6038   5.315   3.006   3.487  0.0629 -1.0155 -0.2662
   70SAPC  H15R 6039   5.339   2.974   3.589  1.3373  1.1181  0.1585
   70SAPC  C216 6040   5.181   2.981   3.431 -0.1337  0.5564 -0.0504
   70SAPC  H16R 6041   5.195   2.934   3.331  1.7332 -1.1695  0.9509
   70SAPC  H16S 6042   5.128   3.078   3.420  1.0651  1.3334  0.7842
   70SAPC  C217 6043   5.102   2.882   3.522  0.1295 -0.1890 -0.0669
   70SAPC  H17R 6044   5.072   2.934   3.616 -4.5725 -0.5252 -1.0993
   70SAPC  H17S 6045   5.164   2.794   3.546 -0.5781 -0.6627  0.0651
   70SAPC  C218 6046   4.976   2.839   3.448 -0.2345 -0.4188 -1.1498
   70SAPC  H18R 6047   4.993   2.821   3.340 -1.9510 -0.4704 -1.4491
   70SAPC  H18S 6048   4.907   2.927   3.445 -0.4194 -0.5134 -0.1708
   70SAPC  C219 6049   4.902   2.717   3.507  0.1393 -0.4568  0.7790
   70SAPC  H19R 6050   4.800   2.723   3.463  0.8655 -0.3021 -0.9753
   70SAPC  H19S 6051   4.875   2.734   3.613 -0.4254  1.3628  0.3773
   70SAPC  C220 6052   4.949   2.578   3.476  0.6298 -0.3193 -0.6203
   70SAPC  H20R 6053   4.976   2.564   3.369 -0.8262  0.2249 -1.0829
   70SAPC  H20S 6054   4.864   2.510   3.500  0.1433  0.1442 -1.0125
   70SAPC  H20T 6055   5.040   2.550   3.534 -0.3679 -2.2989  0.0837
   70SAPC   C33 6056   6.351   3.458   2.597 -0.7102 -0.7434  0.2346
   70SAPC   H3X 6057   6.382   3.362   2.643  2.5846  0.1769  0.1939
   70SAPC   H3Y 6058   6.240   3.445   2.598 -0.6452 -2.2789 -2.6618
   70SAPC   C34 6059   6.383   3.577   2.695  0.1897 -0.0561 -0.4519
   70SAPC   H4X 6060   6.373   3.674   2.642  0.5684  2.0641  3.0594
   70SAPC   H4Y 6061   6.489   3.567   2.726  0.8895  2.5673 -1.6870
   70SAPC   C35 6062   6.300   3.581   2.823  0.2964 -0.0987 -0.1807
   70SAPC   H5X 6063   6.305   3.487   2.881 -1.9680  0.0447  0.3656
   70SAPC   H5Y 6064   6.193   3.598   2.798  0.0531  1.1700  1.5592
   70SAPC   C36 6065   6.346   3.687   2.926  0.4219 -0.3184  0.0364
   70SAPC   H6X 6066   6.337   3.790   2.885  0.6195 -0.1582  0.3900
   70SAPC   H6Y 6067   6.454   3.676   2.949  0.0520 -2.2806  0.9473
   70SAPC   C37 6068   6.256   3.685   3.052  0.2250 -0.0466  0.0834
   70SAPC   H7X 6069   6.256   3.784   3.103  0.8599 -1.1109  2.3086
   70SAPC   H7Y 6070   6.152   3.666   3.018  0.9014 -0.6989 -1.7328
   70SAPC   C38 6071   6.286   3.586   3.163 -0.6759 -0.0459  0.2544
   70SAPC   H8X 6072   6.394   3.563   3.175 -1.3041 -2.4264  2.0046
   70SAPC   H8Y 6073   6.238   3.488   3.144  1.8420 -1.0983 -1.0730
   70SAPC   C39 6074   6.246   3.645   3.305 -0.7013  0.6718  0.3314
   70SAPC   H9X 6075   6.137   3.662   3.317 -0.9999 -0.8450 -0.0686
   70SAPC   H9Y 6076   6.305   3.734   3.336  0.2807  0.6113 -1.2834
   70SAPC  C310 6077   6.263   3.530   3.407 -0.4917  0.0886  0.0646
   70SAPC  H10X 6078   6.362   3.482   3.398  0.1341  0.7184  2.7356
   70SAPC  H10Y 6079   6.185   3.454   3.384  0.6362 -0.3857 -2.4772
   70SAPC  C311 6080   6.241   3.573   3.556 -0.3277  0.6406 -0.4851
   70SAPC  H11X 6081   6.236   3.482   3.620 -0.7630  1.6889  1.0192
   70SAPC  H11Y 6082   6.141   3.621   3.557 -1.3664 -1.3766 -1.4455
   70SAPC  C312 6083   6.350   3.659   3.615 -0.3260  0.1751 -0.5631
   70SAPC  H12X 6084   6.367   3.744   3.545 -0.8746  1.7231  1.1087
   70SAPC  H12Y 6085   6.451   3.612   3.611 -0.9877 -1.4813  0.8539
   70SAPC  C313 6086   6.324   3.699   3.765 -0.2965  0.1024  0.4039
   70SAPC  H13X 6087   6.408   3.757   3.808 -0.9696  1.2427  0.2555
   70SAPC  H13Y 6088   6.315   3.608   3.827  3.3494 -0.0195  0.9305
   70SAPC  C314 6089   6.194   3.786   3.791 -0.1492  0.4472  0.2733
   70SAPC  H14X 6090   6.104   3.737   3.748  0.3509  0.1122 -0.4139
   70SAPC  H14Y 6091   6.210   3.883   3.740  2.3107  0.3550  0.7480
   70SAPC  C315 6092   6.179   3.839   3.935  0.1664  0.2811  0.0115
   70SAPC  H15X 6093   6.250   3.790   4.005 -1.7766 -1.7950  0.6504
   70SAPC  H15Y 6094   6.075   3.817   3.965 -0.5155  2.4922 -0.5394
   70SAPC  C316 6095   6.184   3.983   3.949  0.4093  0.1769  0.4444
   70SAPC  H16X 6096   6.093   4.033   3.910 -1.9920 -3.1307  1.3439
   70SAPC  H16Y 6097   6.265   4.024   3.884  0.1688 -0.9951 -0.6301
   70SAPC  C317 6098   6.218   4.035   4.087 -0.9525  0.0849 -0.2610
   70SAPC  H17X 6099   6.153   3.981   4.159  0.8917 -3.2156 -0.8469
   70SAPC  H17Y 6100   6.197   4.144   4.091 -0.9497  0.1000 -0.6130
   70SAPC  C318 6101   6.365   4.010   4.128  0.0770 -0.1478 -0.3121
   70SAPC  H18X 6102   6.358   3.982   4.235 -0.9416  0.7683 -0.1200
   70SAPC  H18Y 6103   6.428   4.100   4.112 -1.1722  0.6279 -1.1551
   70SAPC  H18Z 6104   6.413   3.935   4.062  0.3708  1.1735 -1.6596
   71SAPC     N 6105   0.280   4.250   2.026  0.7920 -1.1286  0.4316
   71SAPC   C12 6106   0.307   4.104   2.031 -0.0698 -0.1329  0.2011
   71SAPC  H12A 6107   0.348   4.078   2.128  0.9032  0.8648  0.0756
   71SAPC  H12B 6108   0.387   4.074   1.965 -1.1152 -0.4300 -0.9642
   71SAPC   C13 6109   0.197   4.288   1.900  0.6973 -0.2175  0.1932
   71SAPC  H13A 6110   0.261   4.276   1.813  1.0324  0.7128  0.2954
   71SAPC  H13B 6111   0.117   4.216   1.901  0.1108  0.4082  1.9080
   71SAPC  H13C 6112   0.166   4.391   1.904  0.9342 -0.1863  2.6373
   71SAPC   C14 6113   0.193   4.290   2.143 -0.1686 -0.1402 -0.0733
   71SAPC  H14A 6114   0.100   4.235   2.137 -0.5556  0.2091  1.9322
   71SAPC  H14B 6115   0.240   4.277   2.239 -1.4309  1.0053  0.7445
   71SAPC  H14C 6116   0.174   4.396   2.134 -0.0235 -0.0478  0.6457
   71SAPC   C15 6117   0.400   4.331   2.024 -0.7001 -0.7897 -0.0092
   71SAPC  H15A 6118   0.449   4.322   2.119  1.7476 -0.7586 -1.1986
   71SAPC  H15B 6119   0.463   4.307   1.940 -1.7818  2.5667 -1.9847
   71SAPC  H15C 6120   0.389   4.438   2.010  0.3673 -0.5725  0.7398
   71SAPC   C11 6121   0.184   4.007   2.013 -0.1208  0.2163 -0.0444
   71SAPC  H11A 6122   0.229   3.913   2.051 -0.6523  1.4506  4.1584
   71SAPC  H11B 6123   0.162   4.019   1.905  0.4998  3.7938  0.0856
   71SAPC     P 6124  -0.055   3.964   2.110  0.0680 -0.0654 -0.0448
   71SAPC   O13 6125  -0.144   4.001   1.998  0.2522  0.0726  0.0889
   71SAPC   O14 6126  -0.026   3.819   2.128 -0.1138 -0.2010 -0.8288
   71SAPC   O12 6127   0.075   4.043   2.093  0.2341  0.3190  0.1313
   71SAPC   O11 6128  -0.107   4.025   2.243  0.1383  0.1173  0.4343
   71SAPC    C1 6129  -0.174   4.153   2.261 -0.7775  0.6578  0.5972
   71SAPC    HA 6130  -0.104   4.232   2.293 -1.4582  1.7131 -0.4254
   71SAPC    HB 6131  -0.211   4.197   2.166  1.3246  1.5356  0.1298
   71SAPC    C2 6132  -0.290   4.140   2.369 -0.4731  0.1684 -0.0608
   71SAPC    HS 6133  -0.335   4.236   2.402 -1.1222 -0.3913  0.7122
   71SAPC   O21 6134  -0.222   4.078   2.478  0.9131 -0.1910  0.0567
   71SAPC   C21 6135  -0.143   4.161   2.555  0.6476  0.0589  0.3028
   71SAPC   O22 6136  -0.160   4.282   2.559 -0.1933 -0.0141 -0.0691
   71SAPC   C22 6137  -0.042   4.090   2.643  0.5177 -0.2816  0.6195
   71SAPC   H2R 6138  -0.050   3.979   2.633  2.2152 -0.5386  1.7323
   71SAPC   H2S 6139   0.053   4.116   2.593  0.2333 -1.2295 -0.4723
   71SAPC    C3 6140  -0.417   4.052   2.333 -0.4347 -0.3904 -0.1170
   71SAPC    HX 6141  -0.371   3.963   2.286  0.9086 -0.0910  0.5713
   71SAPC    HY 6142  -0.483   4.105   2.262 -1.2529 -1.0415  0.1429
   71SAPC   O31 6143  -0.497   4.023   2.453 -0.3152 -0.3934  0.0784
   71SAPC   C31 6144  -0.563   4.127   2.497 -0.0869 -0.4743 -0.4850
   71SAPC   O32 6145  -0.582   4.232   2.436 -0.0265 -0.3257 -0.1037
   71SAPC   C32 6146  -0.621   4.100   2.633  0.0246  0.2401  0.0990
   71SAPC   H2X 6147  -0.539   4.113   2.706 -0.3829 -2.8165  1.2186
   71SAPC   H2Y 6148  -0.647   3.993   2.649  1.0961  0.5150  5.2109
   71SAPC   C23 6149  -0.049   4.142   2.794  0.7737  0.3820  0.2588
   71SAPC   H3R 6150  -0.041   4.252   2.791 -1.5178  0.6053  0.1641
   71SAPC   H3S 6151   0.044   4.107   2.843  0.5811 -1.3061 -0.5031
   71SAPC   C24 6152  -0.166   4.086   2.879 -0.0130 -0.0638 -0.0160
   71SAPC   H4R 6153  -0.136   4.092   2.986  0.1191  0.3953 -0.0787
   71SAPC   H4S 6154  -0.166   3.975   2.877 -1.3007 -0.1038 -3.1423
   71SAPC   C25 6155  -0.311   4.135   2.855 -0.3095  0.9284  0.5168
   71SAPC   H5R 6156  -0.337   4.141   2.748  1.1248 -0.6827  0.0308
   71SAPC   C26 6157  -0.403   4.189   2.942  0.5197  0.2645 -0.1454
   71SAPC   H6R 6158  -0.497   4.231   2.904  0.1074  1.0100  1.6237
   71SAPC   C27 6159  -0.379   4.181   3.094 -0.1316  0.9471 -0.4398
   71SAPC   H7R 6160  -0.450   4.254   3.140  0.0170  0.6016  0.3446
   71SAPC   H7S 6161  -0.275   4.211   3.115  1.3264 -3.2570 -0.6755
   71SAPC   C28 6162  -0.413   4.048   3.158 -0.6453  0.0702 -0.3777
   71SAPC   H8R 6163  -0.429   3.965   3.089  0.8512 -0.4867 -0.0909
   71SAPC   C29 6164  -0.405   4.013   3.289  0.3754 -0.3886 -0.3751
   71SAPC   H9R 6165  -0.433   3.912   3.320 -0.9657  0.5973  1.8966
   71SAPC  C210 6166  -0.361   4.104   3.396  0.2142  0.0768  0.2172
   71SAPC  H10R 6167  -0.419   4.091   3.489 -0.2086 -1.5962 -0.2478
   71SAPC  H10S 6168  -0.372   4.212   3.373  2.6573  0.8134  2.0134
   71SAPC  C211 6169  -0.209   4.087   3.417 -0.0282  0.4553  0.6305
   71SAPC  H11R 6170  -0.139   4.122   3.340 -1.1504 -1.1600 -1.2029
   71SAPC  C212 6171  -0.142   4.021   3.516  0.6850 -0.0096 -0.1075
   71SAPC  H12R 6172  -0.034   4.006   3.497  0.6719  0.2083 -0.3711
   71SAPC  C213 6173  -0.205   3.934   3.621  0.5084  0.3530  1.3513
   71SAPC  H13R 6174  -0.162   3.833   3.610 -0.0564  0.1717  0.7581
   71SAPC  H13S 6175  -0.313   3.920   3.603  1.0831 -0.9203 -1.7041
   71SAPC  C214 6176  -0.183   3.989   3.757 -0.3224  0.2995 -0.6488
   71SAPC  H14R 6177  -0.217   4.092   3.775 -1.3020 -0.2716  0.9585
   71SAPC  C215 6178  -0.136   3.924   3.867  0.4398  0.1961 -0.4799
   71SAPC  H15R 6179  -0.114   3.986   3.955 -1.2976 -0.8657  0.7598
   71SAPC  C216 6180  -0.094   3.778   3.877  0.2372 -0.0569 -1.0936
   71SAPC  H16R 6181   0.016   3.760   3.873  0.1564 -1.0721  0.5004
   71SAPC  H16S 6182  -0.145   3.715   3.801  0.0053 -0.6540 -0.4539
   71SAPC  C217 6183  -0.131   3.723   4.022 -0.3136 -0.6397  0.4215
   71SAPC  H17R 6184  -0.099   3.617   4.012 -0.0139 -0.7080  1.9652
   71SAPC  H17S 6185  -0.240   3.740   4.033 -0.3228 -0.7933  0.5635
   71SAPC  C218 6186  -0.049   3.784   4.135 -0.4755 -0.1605 -0.1840
   71SAPC  H18R 6187  -0.068   3.892   4.120  2.2620  0.4600  0.2823
   71SAPC  H18S 6188   0.060   3.773   4.121  0.2624  1.1927  3.4086
   71SAPC  C219 6189  -0.097   3.744   4.275 -0.8286 -0.2988 -0.5223
   71SAPC  H19R 6190  -0.049   3.810   4.350 -2.5351 -0.1120  0.4742
   71SAPC  H19S 6191  -0.058   3.641   4.287  0.8248  0.3455 -0.1448
   71SAPC  C220 6192  -0.251   3.738   4.301 -0.0815  0.1791  0.0831
   71SAPC  H20R 6193  -0.283   3.704   4.402 -0.0378 -2.2406 -0.6732
   71SAPC  H20S 6194  -0.296   3.666   4.230 -1.1922  2.1549 -1.3223
   71SAPC  H20T 6195  -0.290   3.839   4.278 -0.7500 -0.6349 -2.6896
   71SAPC   C33 6196  -0.742   4.189   2.658 -0.5636  0.3668 -0.4390
   71SAPC   H3X 6197  -0.811   4.204   2.571 -2.9268  0.3840  1.3254
   71SAPC   H3Y 6198  -0.714   4.295   2.678 -2.5120  0.7584  0.5385
   71SAPC   C34 6199  -0.844   4.149   2.764 -1.1039  0.6661  0.7249
   71SAPC   H4X 6200  -0.871   4.044   2.738  0.2097  0.7415 -1.1395
   71SAPC   H4Y 6201  -0.932   4.213   2.783 -0.9921  0.3748  2.4341
   71SAPC   C35 6202  -0.779   4.133   2.906 -0.2236 -1.2314  0.4466
   71SAPC   H5X 6203  -0.738   4.230   2.941  0.2123 -1.1620 -0.2297
   71SAPC   H5Y 6204  -0.690   4.067   2.896  1.9520  1.5565  0.1360
   71SAPC   C36 6205  -0.891   4.089   3.003  0.2484  0.5055  0.2733
   71SAPC   H6X 6206  -0.941   4.007   2.949  1.6241  0.3912 -0.8933
   71SAPC   H6Y 6207  -0.960   4.175   3.015  0.5481  0.6369  1.1778
   71SAPC   C37 6208  -0.842   4.054   3.142  0.2417 -0.4281  0.1592
   71SAPC   H7X 6209  -0.790   4.139   3.191 -1.0254  0.3643  0.1498
   71SAPC   H7Y 6210  -0.770   3.968   3.138  0.8078  0.0792 -0.9333
   71SAPC   C38 6211  -0.951   4.008   3.239  0.6199  0.7176 -0.3492
   71SAPC   H8X 6212  -0.982   3.916   3.184  0.5266  1.3423 -1.3629
   71SAPC   H8Y 6213  -1.029   4.081   3.268 -0.2032 -0.3773  0.2294
   71SAPC   C39 6214  -0.890   3.966   3.374 -0.1242  0.0146  0.5206
   71SAPC   H9X 6215  -0.821   4.048   3.405 -0.6625  0.0899  1.5562
   71SAPC   H9Y 6216  -0.828   3.877   3.350  0.0735  0.8933 -2.6797
   71SAPC  C310 6217  -0.997   3.952   3.485 -0.8306 -0.1707  0.0553
   71SAPC  H10X 6218  -1.061   4.042   3.488 -0.7071  0.1573 -3.1708
   71SAPC  H10Y 6219  -0.949   3.927   3.582 -2.3250 -1.5284  0.4876
   71SAPC  C311 6220  -1.091   3.828   3.460  0.3280  0.0669  0.0081
   71SAPC  H11X 6221  -1.032   3.734   3.463 -0.1205 -0.2158  0.0638
   71SAPC  H11Y 6222  -1.141   3.832   3.361 -0.5141 -2.6265  0.2553
   71SAPC  C312 6223  -1.203   3.814   3.567  0.4258 -0.4724  0.0229
   71SAPC  H12X 6224  -1.265   3.722   3.558  0.5561 -0.5613  0.0384
   71SAPC  H12Y 6225  -1.273   3.900   3.567  0.6030 -0.3199 -0.7198
   71SAPC  C313 6226  -1.147   3.792   3.716  0.2906 -0.4234  0.0323
   71SAPC  H13X 6227  -1.239   3.775   3.777  0.7816 -1.7920  0.4241
   71SAPC  H13Y 6228  -1.086   3.875   3.756 -0.0049 -0.4669  0.5828
   71SAPC  C314 6229  -1.069   3.663   3.740  0.3910  0.2816  0.9251
   71SAPC  H14X 6230  -0.966   3.676   3.701  1.0779 -2.5316  1.5895
   71SAPC  H14Y 6231  -1.118   3.589   3.673 -0.0334  0.4613  1.0300
   71SAPC  C315 6232  -1.073   3.614   3.886  0.4915  0.1007  0.1574
   71SAPC  H15X 6233  -1.179   3.598   3.914 -0.0207  1.9502 -0.5896
   71SAPC  H15Y 6234  -1.041   3.699   3.949 -1.7369 -0.1768  1.7863
   71SAPC  C316 6235  -0.974   3.502   3.890  0.0593  0.3211 -0.0098
   71SAPC  H16X 6236  -0.877   3.535   3.848  1.0389 -1.1885  1.0055
   71SAPC  H16Y 6237  -1.015   3.417   3.831  0.2789  0.7446 -0.7907
   71SAPC  C317 6238  -0.954   3.449   4.033  0.0049  0.1307  0.0270
   71SAPC  H17X 6239  -1.051   3.405   4.064 -0.3312  1.2298  0.5765
   71SAPC  H17Y 6240  -0.926   3.533   4.100  1.5120  0.6640 -1.2023
   71SAPC  C318 6241  -0.857   3.331   4.050 -0.3702  0.2491  0.3265
   71SAPC  H18X 6242  -0.778   3.347   4.127  0.2812  1.0312 -0.4929
   71SAPC  H18Y 6243  -0.797   3.312   3.959 -1.5849  1.3282 -0.7551
   71SAPC  H18Z 6244  -0.910   3.236   4.072  1.5257 -0.9323 -0.0608
   72SAPC     N 6245   1.606   1.742   2.194  0.2574 -0.3566 -0.4918
   72SAPC   C12 6246   1.709   1.660   2.131  0.3234  1.1341  0.9380
   72SAPC  H12A 6247   1.684   1.555   2.124  2.3216  0.5296  2.0753
   72SAPC  H12B 6248   1.800   1.664   2.188  0.9397  3.0133 -0.0895
   72SAPC   C13 6249   1.548   1.673   2.312  0.3300  0.3183  0.2102
   72SAPC  H13A 6250   1.456   1.727   2.332 -0.2109  0.2234 -1.7968
   72SAPC  H13B 6251   1.512   1.577   2.278  1.9681 -0.7498  1.3590
   72SAPC  H13C 6252   1.617   1.663   2.394 -1.9699  0.3137  2.2799
   72SAPC   C14 6253   1.664   1.879   2.237  0.7014  0.1194  0.4347
   72SAPC  H14A 6254   1.588   1.946   2.274 -0.1997 -0.9957  0.6441
   72SAPC  H14B 6255   1.748   1.872   2.305  0.6878  0.1541  0.4551
   72SAPC  H14C 6256   1.703   1.928   2.149 -0.4944  0.0801 -0.1416
   72SAPC   C15 6257   1.492   1.762   2.103 -0.5969 -0.0526 -0.4173
   72SAPC  H15A 6258   1.412   1.815   2.153  0.7843  2.6357 -0.9019
   72SAPC  H15B 6259   1.516   1.822   2.017 -0.1251  0.3941  0.0226
   72SAPC  H15C 6260   1.463   1.663   2.070  3.4696 -0.9280 -1.9681
   72SAPC   C11 6261   1.747   1.684   1.979 -1.2446 -0.6207  0.5495
   72SAPC  H11A 6262   1.779   1.790   1.973 -0.2113 -0.9817 -2.7325
   72SAPC  H11B 6263   1.661   1.676   1.909  0.9558  0.6637 -2.5188
   72SAPC     P 6264   2.000   1.617   1.967  0.4833 -0.3934  0.3606
   72SAPC   O13 6265   2.067   1.515   1.890  0.0407  0.2197  0.3917
   72SAPC   O14 6266   2.035   1.759   1.936 -0.1368  0.0886 -0.5826
   72SAPC   O12 6267   1.848   1.594   1.933  0.1584  0.2443 -0.2155
   72SAPC   O11 6268   2.002   1.584   2.121  0.4233  0.5409 -0.2662
   72SAPC    C1 6269   1.972   1.447   2.154 -0.1723  0.7845  0.1944
   72SAPC    HA 6270   1.906   1.398   2.079  1.9330 -0.6694 -0.8048
   72SAPC    HB 6271   2.068   1.391   2.154  0.4896  1.9000  0.3539
   72SAPC    C2 6272   1.936   1.424   2.299  0.0268  0.8375 -0.2188
   72SAPC    HS 6273   1.830   1.452   2.319 -0.0426 -0.5123  1.4963
   72SAPC   O21 6274   2.024   1.498   2.390  0.1305  0.2160  0.8637
   72SAPC   C21 6275   1.972   1.617   2.420 -0.0394  0.1014 -0.7902
   72SAPC   O22 6276   1.858   1.652   2.408 -0.0216 -0.0991  0.7660
   72SAPC   C22 6277   2.080   1.706   2.487  0.4265 -0.4830  0.7767
   72SAPC   H2R 6278   2.135   1.637   2.555  4.4411  0.8903 -0.7556
   72SAPC   H2S 6279   2.144   1.718   2.397 -3.0519 -0.2019 -1.8606
   72SAPC    C3 6280   1.933   1.272   2.333 -0.6762  0.4478 -0.0425
   72SAPC    HX 6281   2.038   1.237   2.329 -0.1606  1.8293  0.8255
   72SAPC    HY 6282   1.878   1.220   2.251  1.9505 -3.3191  0.3699
   72SAPC   O31 6283   1.876   1.247   2.461 -0.0426  0.6960  0.0272
   72SAPC   C31 6284   1.749   1.217   2.468 -0.0513  0.2575  0.6203
   72SAPC   O32 6285   1.677   1.191   2.374 -0.5709  0.2201 -0.2781
   72SAPC   C32 6286   1.705   1.230   2.615  0.1631 -1.0631  0.7594
   72SAPC   H2X 6287   1.784   1.186   2.679  0.1784  0.1126  1.5795
   72SAPC   H2Y 6288   1.602   1.188   2.629 -1.7980  2.9785 -0.1306
   72SAPC   C23 6289   2.028   1.833   2.556 -0.2053  1.0037  0.0953
   72SAPC   H3R 6290   1.939   1.880   2.509 -2.3187 -0.4601  2.4186
   72SAPC   H3S 6291   2.115   1.902   2.567 -0.6386  1.1861  3.6728
   72SAPC   C24 6292   1.995   1.794   2.701  0.0404  0.7320 -0.0631
   72SAPC   H4R 6293   2.091   1.761   2.746  0.2189  0.5723 -0.5583
   72SAPC   H4S 6294   1.935   1.702   2.712  0.0968  0.9589  2.8348
   72SAPC   C25 6295   1.919   1.898   2.778 -0.0274 -0.0482  0.5429
   72SAPC   H5R 6296   1.888   1.987   2.720 -1.2081 -0.1291  1.0324
   72SAPC   C26 6297   1.882   1.890   2.910  0.1188 -0.6798 -0.4703
   72SAPC   H6R 6298   1.835   1.972   2.967  0.0126 -0.1136 -1.3531
   72SAPC   C27 6299   1.916   1.765   2.997  0.6960 -0.7877 -0.4432
   72SAPC   H7R 6300   1.944   1.674   2.938 -2.0729 -0.4786 -2.4514
   72SAPC   H7S 6301   1.830   1.732   3.059  2.0700 -0.6873  1.5924
   72SAPC   C28 6302   2.024   1.812   3.091 -0.1843  0.4558  0.8771
   72SAPC   H8R 6303   2.108   1.869   3.048 -0.9156  1.2935  0.5420
   72SAPC   C29 6304   2.025   1.800   3.225 -0.7027 -0.2311 -0.6644
   72SAPC   H9R 6305   2.107   1.851   3.277 -2.5539  1.2894  0.9460
   72SAPC  C210 6306   1.929   1.736   3.317 -0.1291  0.7582 -0.0057
   72SAPC  H10R 6307   1.970   1.690   3.409 -1.4739  0.6832  0.5767
   72SAPC  H10S 6308   1.883   1.649   3.266 -0.8091  0.1865  1.5416
   72SAPC  C211 6309   1.829   1.833   3.374  0.4010  0.2503 -0.4770
   72SAPC  H11R 6310   1.821   1.923   3.311  4.7676  1.3953  0.2143
   72SAPC  C212 6311   1.764   1.825   3.491  0.1868  0.4287  0.5629
   72SAPC  H12R 6312   1.706   1.911   3.527 -0.3661 -0.3824  1.6790
   72SAPC  C213 6313   1.775   1.714   3.604  1.1121 -0.0874  0.4551
   72SAPC  H13R 6314   1.878   1.715   3.645  0.4307 -2.3646  2.4817
   72SAPC  H13S 6315   1.755   1.619   3.550 -0.8110 -1.2324  2.9581
   72SAPC  C214 6316   1.685   1.743   3.719 -0.8888  0.0445 -0.4212
   72SAPC  H14R 6317   1.593   1.684   3.723 -0.4041 -0.6669  2.0636
   72SAPC  C215 6318   1.724   1.818   3.825  0.3091  0.7425  0.5149
   72SAPC  H15R 6319   1.649   1.821   3.906 -0.3492 -0.1269 -0.0522
   72SAPC  C216 6320   1.841   1.902   3.842 -0.3432 -0.2841 -0.2992
   72SAPC  H16R 6321   1.861   1.968   3.755 -1.1956 -0.5290 -0.6980
   72SAPC  H16S 6322   1.923   1.829   3.859 -0.1349  0.3723  1.7580
   72SAPC  C217 6323   1.822   2.009   3.961 -0.5127 -0.3036  0.4900
   72SAPC  H17R 6324   1.831   1.954   4.057 -1.2683 -4.1531 -1.4815
   72SAPC  H17S 6325   1.722   2.056   3.955 -1.2337 -1.9166 -0.9802
   72SAPC  C218 6326   1.931   2.124   3.968 -0.0691  0.6136  0.0255
   72SAPC  H18R 6327   1.920   2.193   4.054  2.0867 -0.2362  1.0532
   72SAPC  H18S 6328   1.933   2.184   3.874  0.2447  1.5353  0.6079
   72SAPC  C219 6329   2.072   2.072   3.983  0.1718  0.6708 -0.7730
   72SAPC  H19R 6330   2.133   2.164   3.971  0.8216  0.3163 -0.2604
   72SAPC  H19S 6331   2.090   1.990   3.911 -1.2863 -1.9326  1.6251
   72SAPC  C220 6332   2.092   2.015   4.127 -0.3655  0.5573  0.9195
   72SAPC  H20R 6333   2.197   1.988   4.153 -0.0650 -0.2768 -1.0314
   72SAPC  H20S 6334   2.016   1.935   4.142 -1.6493  1.5066 -0.3163
   72SAPC  H20T 6335   2.067   2.099   4.195 -0.3512  0.0066  1.6304
   72SAPC   C33 6336   1.692   1.381   2.636  0.8777 -0.0841  0.3360
   72SAPC   H3X 6337   1.620   1.423   2.563  0.6067  2.5785  1.9869
   72SAPC   H3Y 6338   1.787   1.436   2.619  0.2115  0.8404 -0.5936
   72SAPC   C34 6339   1.648   1.423   2.777  0.4817  0.7037  0.4741
   72SAPC   H4X 6340   1.552   1.375   2.808 -0.5283  0.8974 -2.1250
   72SAPC   H4Y 6341   1.631   1.532   2.767 -0.2516  0.5088 -0.5541
   72SAPC   C35 6342   1.753   1.403   2.881  0.6266  0.0548 -0.3624
   72SAPC   H5X 6343   1.837   1.477   2.880  1.0176 -0.3539  1.0371
   72SAPC   H5Y 6344   1.793   1.300   2.874 -2.0634 -1.3177  2.3085
   72SAPC   C36 6345   1.690   1.429   3.015 -0.1728 -0.3951  0.0745
   72SAPC   H6X 6346   1.599   1.365   3.017 -0.4297 -0.0246  0.8936
   72SAPC   H6Y 6347   1.652   1.531   3.038 -0.7319 -0.6280  0.2055
   72SAPC   C37 6348   1.779   1.378   3.138 -0.4265  0.0222 -0.3410
   72SAPC   H7X 6349   1.871   1.440   3.148 -0.2461 -0.4846  1.5344
   72SAPC   H7Y 6350   1.819   1.276   3.118  0.3817  0.4907 -1.1867
   72SAPC   C38 6351   1.697   1.397   3.262  0.2403  0.2825 -0.0107
   72SAPC   H8X 6352   1.606   1.336   3.250  0.1612  0.6831 -1.6197
   72SAPC   H8Y 6353   1.660   1.501   3.277  1.3850  0.7671 -0.3852
   72SAPC   C39 6354   1.773   1.333   3.384  0.9819 -0.0793 -0.2081
   72SAPC   H9X 6355   1.860   1.397   3.408 -1.0383  1.8884  2.4687
   72SAPC   H9Y 6356   1.802   1.227   3.364 -1.1719 -0.3841 -2.2012
   72SAPC  C310 6357   1.680   1.330   3.511 -0.2182 -0.0679 -0.4575
   72SAPC  H10X 6358   1.592   1.273   3.474  1.4187 -0.9009 -3.4098
   72SAPC  H10Y 6359   1.647   1.428   3.552  1.6153 -1.0337  3.9137
   72SAPC  C311 6360   1.745   1.245   3.626  0.0482  0.4045  0.4938
   72SAPC  H11X 6361   1.820   1.175   3.583  0.3170 -0.7436  2.6735
   72SAPC  H11Y 6362   1.669   1.168   3.652  0.2673 -0.1063 -0.3463
   72SAPC  C312 6363   1.801   1.330   3.744  0.8147 -1.1973 -0.7959
   72SAPC  H12X 6364   1.719   1.398   3.778 -0.0085 -2.0004 -1.1247
   72SAPC  H12Y 6365   1.886   1.396   3.718  0.2195 -0.5049 -1.0171
   72SAPC  C313 6366   1.835   1.241   3.859  0.0423  0.3351 -0.9594
   72SAPC  H13X 6367   1.920   1.172   3.840 -0.1410  0.2723 -1.5886
   72SAPC  H13Y 6368   1.748   1.188   3.905 -0.2052 -0.4929 -2.3292
   72SAPC  C314 6369   1.873   1.341   3.979 -0.1266 -0.7311  0.0207
   72SAPC  H14X 6370   1.796   1.421   3.987 -0.3438 -0.9938  0.6311
   72SAPC  H14Y 6371   1.968   1.398   3.965 -0.1825 -0.6899 -0.1978
   72SAPC  C315 6372   1.867   1.285   4.126  0.2349  0.4744  0.2319
   72SAPC  H15X 6373   1.918   1.187   4.125  1.8126  1.2672  0.3199
   72SAPC  H15Y 6374   1.759   1.288   4.151  0.3170  2.0790  0.5376
   72SAPC  C316 6375   1.948   1.362   4.227  0.4736  0.0217 -0.5178
   72SAPC  H16X 6376   2.054   1.341   4.201 -0.0349  0.8464 -3.6921
   72SAPC  H16Y 6377   1.943   1.331   4.333 -0.5382 -0.4190 -0.6838
   72SAPC  C317 6378   1.921   1.510   4.231  0.2499 -0.5081 -0.2006
   72SAPC  H17X 6379   1.928   1.562   4.133 -0.6073 -1.5649 -0.8430
   72SAPC  H17Y 6380   1.996   1.551   4.303  1.3195 -0.6577 -1.2067
   72SAPC  C318 6381   1.785   1.542   4.293 -0.3335  0.0199 -0.4764
   72SAPC  H18X 6382   1.706   1.519   4.218 -2.3675  2.4898  0.7284
   72SAPC  H18Y 6383   1.763   1.649   4.314 -3.9502 -0.6013 -0.5215
   72SAPC  H18Z 6384   1.756   1.488   4.386 -1.8045  2.1652  0.4233
   73SLPC     N 6385   1.500   0.632   6.174 -0.6084 -0.6989 -0.0222
   73SLPC   C13 6386   1.360   0.587   6.183  0.0017 -0.8557  0.0542
   73SLPC  H13A 6387   1.304   0.661   6.239 -0.4537 -1.3851  0.3111
   73SLPC  H13B 6388   1.324   0.578   6.082  0.2565  0.6567 -0.2017
   73SLPC  H13C 6389   1.350   0.488   6.225 -1.9058 -0.8287 -0.2136
   73SLPC   C14 6390   1.577   0.532   6.095  0.3615 -0.4462 -0.0070
   73SLPC  H14A 6391   1.681   0.555   6.082  0.6098 -1.0627  0.8621
   73SLPC  H14B 6392   1.586   0.442   6.153 -1.4720  0.6043  2.0470
   73SLPC  H14C 6393   1.526   0.506   6.003  0.3977 -1.1627  0.1697
   73SLPC   C15 6394   1.549   0.633   6.314  0.3291  0.9207 -0.7140
   73SLPC  H15A 6395   1.539   0.535   6.357  1.6491  0.5771 -1.1469
   73SLPC  H15B 6396   1.646   0.671   6.343 -0.4303  1.6768  0.9502
   73SLPC  H15C 6397   1.487   0.698   6.373  1.0361  0.8346  0.1395
   73SLPC   C12 6398   1.509   0.772   6.100  0.4633 -0.4804  0.9864
   73SLPC  H12A 6399   1.462   0.770   6.002  0.9003  1.3963  0.7004
   73SLPC  H12B 6400   1.614   0.798   6.100  0.5072 -0.6354  0.2499
   73SLPC   C11 6401   1.445   0.896   6.167  1.0194  0.3489  0.8026
   73SLPC  H11A 6402   1.493   0.990   6.132 -0.6187  0.8474 -0.2388
   73SLPC  H11B 6403   1.470   0.884   6.274  3.4340  2.5604  0.5842
   73SLPC     P 6404   1.252   0.939   6.002  0.0373 -0.1029  0.2499
   73SLPC   O13 6405   1.106   0.940   6.005 -0.0487  0.9526 -0.1287
   73SLPC   O14 6406   1.309   1.063   5.953 -0.0136 -0.1065 -0.7222
   73SLPC   O12 6407   1.300   0.902   6.149  0.0292  0.1707 -0.2838
   73SLPC   O11 6408   1.312   0.818   5.908  0.4776  0.0643 -0.0074
   73SLPC    C1 6409   1.227   0.704   5.891 -0.7259 -0.4283 -0.1063
   73SLPC    HA 6410   1.292   0.618   5.866 -0.5717 -1.5151  3.4215
   73SLPC    HB 6411   1.181   0.673   5.987 -2.8887  0.3018 -0.8418
   73SLPC    C2 6412   1.128   0.722   5.783  0.9675 -0.8060  0.0866
   73SLPC    HS 6413   1.053   0.799   5.812  1.1269 -0.2808 -0.8574
   73SLPC   O21 6414   1.067   0.591   5.763 -0.0169 -0.1103 -0.9406
   73SLPC   C21 6415   0.941   0.588   5.731  0.0202  0.6502  1.1464
   73SLPC   O22 6416   0.875   0.686   5.718  0.1765 -0.3266  0.3841
   73SLPC   C22 6417   0.896   0.443   5.693 -0.4849  0.2368 -0.4822
   73SLPC   H2R 6418   0.983   0.390   5.651 -0.2313 -0.2272  0.5939
   73SLPC   H2S 6419   0.878   0.395   5.792  1.9572 -0.3247 -0.2559
   73SLPC    C3 6420   1.202   0.757   5.649 -0.4072 -0.3995 -0.1222
   73SLPC    HX 6421   1.278   0.679   5.627 -0.2096 -1.1913  2.9344
   73SLPC    HY 6422   1.261   0.849   5.669 -0.5372 -0.7574  2.2019
   73SLPC   O31 6423   1.108   0.774   5.540  0.5069 -0.2282  0.6413
   73SLPC   C31 6424   1.056   0.900   5.543  0.5080  0.4191  0.2749
   73SLPC   O32 6425   1.093   0.986   5.621  0.1831 -0.6809 -0.3066
   73SLPC   C32 6426   0.943   0.907   5.436 -0.5756  0.7745  0.0909
   73SLPC   H2X 6427   0.871   0.985   5.468 -0.6481  0.4383  0.7583
   73SLPC   H2Y 6428   0.879   0.817   5.447 -1.7810  1.6701  0.7418
   73SLPC   C23 6429   0.781   0.417   5.595  0.6298  0.0890 -0.0200
   73SLPC   H3R 6430   0.703   0.489   5.629  1.7976  1.4752 -0.1676
   73SLPC   H3S 6431   0.743   0.315   5.616  1.4628 -0.1639  0.2633
   73SLPC   C24 6432   0.805   0.439   5.451 -0.5005 -0.4278 -0.2430
   73SLPC   H4R 6433   0.819   0.549   5.437  0.6965 -0.4661  0.5039
   73SLPC   H4S 6434   0.708   0.413   5.403  0.9082 -1.3595 -2.7762
   73SLPC   C25 6435   0.908   0.354   5.381  0.2124  0.2618 -0.3635
   73SLPC   H5R 6436   0.894   0.254   5.428 -1.3173  0.3050 -0.6845
   73SLPC   H5S 6437   1.010   0.388   5.408  1.0898  0.0498 -3.1192
   73SLPC   C26 6438   0.917   0.362   5.227  0.7784 -1.0903 -0.4516
   73SLPC   H6R 6439   0.821   0.323   5.187 -0.0354  0.4464 -0.0899
   73SLPC   H6S 6440   1.006   0.304   5.195  0.3627 -0.7770 -2.3188
   73SLPC   C27 6441   0.917   0.512   5.186  0.7244  0.3277 -0.1980
   73SLPC   H7R 6442   1.009   0.549   5.236  0.2323 -0.8100  1.6195
   73SLPC   H7S 6443   0.836   0.575   5.228  0.3251 -0.1299 -0.2759
   73SLPC   C28 6444   0.928   0.527   5.036 -0.4584 -0.4566 -0.5456
   73SLPC   H8R 6445   1.026   0.483   5.010  0.7700  0.4273  2.2312
   73SLPC   H8S 6446   0.933   0.635   5.012  1.6792 -0.2860  0.4411
   73SLPC   C29 6447   0.809   0.473   4.974  1.5178  1.0974  1.4580
   73SLPC   H9R 6448   0.716   0.528   4.994  0.3778 -0.9259  1.8690
   73SLPC  C210 6449   0.811   0.382   4.875 -0.6516  0.4066 -0.0657
   73SLPC  H10R 6450   0.715   0.357   4.826 -0.2530 -2.0993  0.2713
   73SLPC  C211 6451   0.932   0.313   4.826 -0.6194  0.2392 -0.3767
   73SLPC  H11R 6452   0.975   0.248   4.905  1.2925  3.1459  1.1706
   73SLPC  H11S 6453   1.027   0.370   4.813  0.2065 -1.1979 -0.9601
   73SLPC  C212 6454   0.904   0.230   4.697 -0.2062 -0.3662 -0.2149
   73SLPC  H12R 6455   0.877   0.129   4.730  0.9669  0.0345  2.1425
   73SLPC  C213 6456   0.903   0.272   4.567 -0.3964  0.1627 -0.3414
   73SLPC  H13R 6457   0.875   0.197   4.491  1.6933 -1.9591  0.8552
   73SLPC  C214 6458   0.936   0.407   4.521 -0.3454 -0.2897  0.0940
   73SLPC  H14R 6459   1.011   0.460   4.583 -1.0176  0.8016  0.0002
   73SLPC  H14S 6460   0.846   0.472   4.516 -1.5759 -1.7608  1.7534
   73SLPC  C215 6461   0.997   0.389   4.387  0.2280 -0.3015  0.1235
   73SLPC  H15R 6462   1.024   0.488   4.345  0.4075  0.0563  1.0414
   73SLPC  H15S 6463   0.919   0.355   4.315  1.5822 -0.8168 -1.1501
   73SLPC  C216 6464   1.130   0.309   4.386  0.0761 -0.3305  1.0672
   73SLPC  H16R 6465   1.124   0.206   4.427  1.7646 -1.6938 -1.7818
   73SLPC  H16S 6466   1.209   0.367   4.438  0.7788 -0.7819  0.5122
   73SLPC  C217 6467   1.191   0.288   4.242 -0.0131  0.7278 -0.0641
   73SLPC  H17R 6468   1.127   0.210   4.195  0.7827  1.0575 -1.7597
   73SLPC  H17S 6469   1.295   0.247   4.247 -0.5322 -0.7387 -0.8409
   73SLPC  C218 6470   1.203   0.408   4.155 -0.0927 -0.8815  0.4435
   73SLPC  H18R 6471   1.266   0.484   4.206  1.4218 -2.1023  0.4349
   73SLPC  H18S 6472   1.106   0.453   4.122  2.0182  1.9232 -2.6300
   73SLPC  H18T 6473   1.249   0.374   4.060 -1.8190 -0.9965 -0.3943
   73SLPC   C33 6474   0.997   0.926   5.292 -0.0249  1.1216 -0.2248
   73SLPC   H3X 6475   0.906   0.949   5.231 -2.0317  0.4649  2.3552
   73SLPC   H3Y 6476   1.040   0.827   5.268 -0.5643  0.2795  2.0406
   73SLPC   C34 6477   1.110   1.031   5.262 -0.3633  0.1364  0.0801
   73SLPC   H4X 6478   1.121   1.049   5.153 -1.3797  1.9481  0.2455
   73SLPC   H4Y 6479   1.205   0.987   5.299  0.1021  1.0717  0.0180
   73SLPC   C35 6480   1.093   1.173   5.333 -0.7954  0.4539  0.0051
   73SLPC   H5X 6481   1.158   1.175   5.423 -0.8009  1.9495  0.0056
   73SLPC   H5Y 6482   0.988   1.192   5.365 -1.1790 -2.6083  0.8747
   73SLPC   C36 6483   1.143   1.288   5.241  0.3543 -0.3602  0.2615
   73SLPC   H6X 6484   1.067   1.297   5.161  0.6080 -0.4155  0.0107
   73SLPC   H6Y 6485   1.240   1.259   5.194  2.0420 -1.0262  3.7893
   73SLPC   C37 6486   1.165   1.415   5.320 -0.1317 -0.6891  0.3540
   73SLPC   H7X 6487   1.237   1.402   5.403  0.8481  1.4281 -0.0824
   73SLPC   H7Y 6488   1.067   1.442   5.366 -0.0440  0.3524 -0.0489
   73SLPC   C38 6489   1.211   1.538   5.238  0.1579  0.2471 -0.8695
   73SLPC   H8X 6490   1.300   1.516   5.175  2.0644  0.8671  1.4467
   73SLPC   H8Y 6491   1.242   1.600   5.325  2.4334 -0.9479 -0.7283
   73SLPC   C39 6492   1.103   1.602   5.157 -0.2854 -0.0400 -0.1522
   73SLPC   H9X 6493   1.117   1.712   5.169  3.7574 -0.2224 -1.5390
   73SLPC   H9Y 6494   1.012   1.582   5.216  1.3002 -0.1567  2.3957
   73SLPC  C310 6495   1.100   1.567   5.008 -0.9474 -0.1450  0.0442
   73SLPC  H10X 6496   1.076   1.459   5.002 -0.4938 -0.2414 -0.0750
   73SLPC  H10Y 6497   1.204   1.569   4.969 -0.9211 -3.0052 -0.2430
   73SLPC  C311 6498   1.016   1.648   4.909  0.0448  0.1797 -0.8339
   73SLPC  H11X 6499   1.044   1.754   4.924  0.4301  0.2838 -2.1773
   73SLPC  H11Y 6500   0.907   1.638   4.931  0.3288 -0.8493  0.2185
   73SLPC  C312 6501   1.024   1.599   4.764 -0.9113 -0.0818 -0.0477
   73SLPC  H12X 6502   0.995   1.492   4.753 -0.7666 -0.4321  2.4884
   73SLPC  H12Y 6503   1.126   1.610   4.723 -2.0617  0.5990 -3.0345
   73SLPC  C313 6504   0.915   1.663   4.669  0.3807  0.1023 -0.4247
   73SLPC  H13X 6505   0.936   1.772   4.672  1.6578 -0.1474  1.4186
   73SLPC  H13Y 6506   0.816   1.656   4.718  0.6701 -0.1846  0.1283
   73SLPC  C314 6507   0.913   1.604   4.524  0.2272 -0.1627  0.2829
   73SLPC  H14X 6508   0.829   1.651   4.468  0.9552  0.9233  0.0532
   73SLPC  H14Y 6509   0.888   1.496   4.518 -2.5906  0.3505  1.3753
   73SLPC  C315 6510   1.053   1.620   4.452  0.1886 -0.4563 -0.7195
   73SLPC  H15X 6511   1.137   1.583   4.513  0.4675 -1.1236 -1.4820
   73SLPC  H15Y 6512   1.061   1.731   4.448 -0.8051 -0.3810 -0.9080
   73SLPC  C316 6513   1.053   1.569   4.310 -0.4380 -0.3581 -0.0474
   73SLPC  H16X 6514   1.117   1.628   4.242 -2.2139  1.7399 -0.0300
   73SLPC  H16Y 6515   0.953   1.575   4.261 -0.0044 -0.3628 -0.9362
   73SLPC  C317 6516   1.105   1.421   4.305  0.1706 -0.4210 -0.3579
   73SLPC  H17X 6517   1.215   1.416   4.318 -0.0024  1.7095  3.5678
   73SLPC  H17Y 6518   1.088   1.408   4.196  1.7579  1.6823 -0.9241
   73SLPC  C318 6519   1.034   1.315   4.387  0.5397 -0.4573 -0.6793
   73SLPC  H18X 6520   1.073   1.213   4.363  2.2236 -0.3642  1.4042
   73SLPC  H18Y 6521   0.924   1.309   4.377  0.2859 -0.8578  1.8198
   73SLPC  H18Z 6522   1.044   1.339   4.495 -0.0957 -0.0501 -0.7073
   74SLPC     N 6523   0.984   0.217   6.452 -0.0305 -0.0431 -0.4317
   74SLPC   C13 6524   0.880   0.262   6.354 -0.2139  0.7193  0.3221
   74SLPC  H13A 6525   0.880   0.185   6.278 -1.5732 -0.1265  1.1244
   74SLPC  H13B 6526   0.784   0.260   6.405 -0.5506  0.4715 -0.3023
   74SLPC  H13C 6527   0.904   0.352   6.299  1.9342  0.3770  0.6336
   74SLPC   C14 6528   0.963   0.288   6.582  0.0916  0.4783  0.0034
   74SLPC  H14A 6529   1.036   0.263   6.658 -0.1008 -1.6640 -0.4553
   74SLPC  H14B 6530   0.956   0.395   6.568  0.7087  0.5344  0.0734
   74SLPC  H14C 6531   0.864   0.270   6.619  0.7946  2.0242  2.9342
   74SLPC   C15 6532   1.116   0.239   6.388  0.4380 -0.7853 -0.5942
   74SLPC  H15A 6533   1.130   0.345   6.376 -0.9361 -0.6728 -1.4320
   74SLPC  H15B 6534   1.189   0.189   6.450  1.2020  1.1812  0.1482
   74SLPC  H15C 6535   1.122   0.196   6.290  0.5592  0.6635 -1.2475
   74SLPC   C12 6536   0.974   0.066   6.473  0.2146 -0.0576 -0.1474
   74SLPC  H12A 6537   1.002   0.029   6.376  2.6416 -4.3218  1.8667
   74SLPC  H12B 6538   0.874   0.025   6.477  0.7717 -1.6675 -1.4339
   74SLPC   C11 6539   1.076  -0.009   6.567 -0.2351  0.0883 -0.1267
   74SLPC  H11A 6540   1.065  -0.114   6.535 -0.4210 -0.5376  1.8507
   74SLPC  H11B 6541   1.040  -0.003   6.672  2.3336 -0.9507  0.9039
   74SLPC     P 6542   1.337  -0.040   6.530  0.2192 -0.3771 -0.0806
   74SLPC   O13 6543   1.440   0.060   6.504 -0.1998  0.6074  0.3184
   74SLPC   O14 6544   1.362  -0.137   6.639 -0.2500  0.0665 -0.1423
   74SLPC   O12 6545   1.209   0.038   6.556 -0.2287  0.7527 -0.6930
   74SLPC   O11 6546   1.309  -0.121   6.399  0.2121 -0.1821  0.1708
   74SLPC    C1 6547   1.399  -0.219   6.350  0.2606  0.1031 -0.1245
   74SLPC    HA 6548   1.459  -0.180   6.265 -0.6327 -2.1448 -1.9086
   74SLPC    HB 6549   1.468  -0.258   6.428 -0.2114  0.6188  0.5674
   74SLPC    C2 6550   1.321  -0.342   6.284  0.1536 -0.5431  0.1697
   74SLPC    HS 6551   1.382  -0.433   6.262  0.3956  0.0395 -1.7989
   74SLPC   O21 6552   1.259  -0.300   6.158  0.2242 -0.0351  0.1835
   74SLPC   C21 6553   1.349  -0.299   6.054 -0.0278 -0.1097  0.6366
   74SLPC   O22 6554   1.467  -0.314   6.066  0.0390 -0.6212 -0.1204
   74SLPC   C22 6555   1.287  -0.258   5.926  0.2400 -0.5410 -0.9803
   74SLPC   H2R 6556   1.217  -0.340   5.900  0.2490 -0.7257 -0.4221
   74SLPC   H2S 6557   1.238  -0.160   5.943 -0.7977 -1.1007 -0.6070
   74SLPC    C3 6558   1.208  -0.388   6.385 -0.0587  0.5423  0.0266
   74SLPC    HX 6559   1.134  -0.305   6.380  0.4090  1.1180  2.0155
   74SLPC    HY 6560   1.260  -0.391   6.483  0.7722  0.8591 -0.3884
   74SLPC   O31 6561   1.155  -0.514   6.341 -0.2542 -0.3089 -0.3078
   74SLPC   C31 6562   1.054  -0.509   6.252 -0.1334 -0.6655  0.1758
   74SLPC   O32 6563   1.007  -0.405   6.210  0.0708  0.1586 -0.2793
   74SLPC   C32 6564   1.012  -0.656   6.223 -0.1805 -0.7460  0.1361
   74SLPC   H2X 6565   0.914  -0.649   6.171  0.2299 -2.0285 -0.8722
   74SLPC   H2Y 6566   1.011  -0.700   6.325  0.3094  1.3196  1.0894
   74SLPC   C23 6567   1.392  -0.235   5.810 -0.2012  0.0906  0.6860
   74SLPC   H3R 6568   1.480  -0.303   5.819 -0.0487  0.1814 -0.0104
   74SLPC   H3S 6569   1.444  -0.137   5.810 -0.0146  0.0142 -0.6948
   74SLPC   C24 6570   1.324  -0.238   5.670  0.2927 -0.8948 -0.3626
   74SLPC   H4R 6571   1.259  -0.326   5.654  0.0317 -1.0341  1.3182
   74SLPC   H4S 6572   1.403  -0.231   5.592  0.7343 -0.5462  0.1087
   74SLPC   C25 6573   1.234  -0.107   5.649 -0.1865  0.3968  0.1634
   74SLPC   H5R 6574   1.281  -0.016   5.692 -0.7809  0.7445  0.0833
   74SLPC   H5S 6575   1.136  -0.126   5.697 -0.1053  2.9478  1.4975
   74SLPC   C26 6576   1.222  -0.086   5.495 -0.4363  0.5441 -0.7698
   74SLPC   H6R 6577   1.176  -0.178   5.453  0.9867 -0.5887  0.0167
   74SLPC   H6S 6578   1.327  -0.091   5.459  0.3196 -3.2357  1.3427
   74SLPC   C27 6579   1.153   0.039   5.450  0.2571 -0.0749 -0.3384
   74SLPC   H7R 6580   1.214   0.131   5.460  1.4914 -0.7361 -1.4416
   74SLPC   H7S 6581   1.066   0.056   5.517 -0.4376 -0.8814 -1.0068
   74SLPC   C28 6582   1.103   0.013   5.302 -0.4133  0.3054 -0.2463
   74SLPC   H8R 6583   1.021   0.086   5.283 -0.5499 -0.2641 -2.0248
   74SLPC   H8S 6584   1.066  -0.091   5.310  2.0831 -0.5058  2.7221
   74SLPC   C29 6585   1.223   0.032   5.216  0.4835  0.0269 -0.2141
   74SLPC   H9R 6586   1.306   0.085   5.264  0.9585 -0.5501 -0.3813
   74SLPC  C210 6587   1.241  -0.030   5.096 -0.4741  0.0406 -0.7259
   74SLPC  H10R 6588   1.324   0.003   5.032 -0.6581  0.1698 -0.8992
   74SLPC  C211 6589   1.136  -0.122   5.031 -0.2831 -0.5776  0.0611
   74SLPC  H11R 6590   1.056  -0.151   5.103 -0.3153 -1.1730 -0.2109
   74SLPC  H11S 6591   1.177  -0.221   5.004  1.5051  0.5076 -1.4005
   74SLPC  C212 6592   1.067  -0.067   4.909 -0.1901 -0.5375 -1.0556
   74SLPC  H12R 6593   0.966  -0.028   4.928 -0.3723  0.1472 -3.1939
   74SLPC  C213 6594   1.121  -0.069   4.788  0.6678  0.7405 -0.6747
   74SLPC  H13R 6595   1.067  -0.019   4.707 -0.7529  0.2942 -0.0451
   74SLPC  C214 6596   1.266  -0.102   4.762 -0.2012 -0.0260 -0.3345
   74SLPC  H14R 6597   1.261  -0.204   4.719  5.6273 -0.6020 -0.3231
   74SLPC  H14S 6598   1.336  -0.103   4.848  2.2158 -1.8416 -2.1922
   74SLPC  C215 6599   1.338  -0.019   4.655 -0.1397  0.4623 -0.0054
   74SLPC  H15R 6600   1.301  -0.032   4.551  0.5399 -2.2941  0.0268
   74SLPC  H15S 6601   1.444  -0.049   4.642 -0.5656 -0.0794 -3.2614
   74SLPC  C216 6602   1.344   0.128   4.689 -0.4374 -0.2011  0.6105
   74SLPC  H16R 6603   1.360   0.147   4.797  1.4747 -0.1709  0.3589
   74SLPC  H16S 6604   1.249   0.174   4.654  0.8585  1.6763 -0.6176
   74SLPC  C217 6605   1.435   0.224   4.618  0.2051 -0.1652 -0.0519
   74SLPC  H17R 6606   1.422   0.325   4.662 -0.4814  0.7493 -2.2069
   74SLPC  H17S 6607   1.412   0.247   4.511 -1.2918  0.8125  0.4424
   74SLPC  C218 6608   1.579   0.167   4.604  0.3883 -0.2829  0.1290
   74SLPC  H18R 6609   1.622   0.149   4.704 -1.6992 -1.6526  0.8473
   74SLPC  H18S 6610   1.641   0.245   4.554 -0.3944 -0.8134 -1.7402
   74SLPC  H18T 6611   1.586   0.077   4.539  0.0317 -1.5824  1.8300
   74SLPC   C33 6612   1.122  -0.739   6.153 -0.2156  0.1359  0.9190
   74SLPC   H3X 6613   1.073  -0.831   6.113 -1.0182  1.3462 -0.9999
   74SLPC   H3Y 6614   1.202  -0.765   6.226  1.4760 -1.5654 -1.3948
   74SLPC   C34 6615   1.184  -0.670   6.026  0.0078  0.3203 -0.8055
   74SLPC   H4X 6616   1.269  -0.738   6.003  0.2088  0.2475  0.1209
   74SLPC   H4Y 6617   1.233  -0.571   6.042  1.7138 -0.6117  0.0121
   74SLPC   C35 6618   1.088  -0.679   5.910  0.9517  0.3812  0.1034
   74SLPC   H5X 6619   1.023  -0.597   5.947 -0.1557 -1.8986  3.7528
   74SLPC   H5Y 6620   1.024  -0.769   5.906  0.7250  0.5472 -0.0355
   74SLPC   C36 6621   1.154  -0.651   5.778  0.4501  0.1823  0.2343
   74SLPC   H6X 6622   1.239  -0.721   5.764 -1.4841 -2.4773  0.9525
   74SLPC   H6Y 6623   1.206  -0.552   5.773 -0.2652  0.5252 -1.3288
   74SLPC   C37 6624   1.051  -0.680   5.669 -0.4918  0.1001 -0.1017
   74SLPC   H7X 6625   0.963  -0.612   5.671 -0.4259  0.2415  3.0278
   74SLPC   H7Y 6626   1.022  -0.787   5.674  2.3763 -0.7301  2.6624
   74SLPC   C38 6627   1.119  -0.670   5.526 -0.2406  0.2262 -0.3817
   74SLPC   H8X 6628   1.200  -0.746   5.530  1.3097  1.8142 -0.5717
   74SLPC   H8Y 6629   1.172  -0.572   5.525 -1.6938  1.0765  1.0829
   74SLPC   C39 6630   1.031  -0.690   5.403 -1.2587 -0.1579  0.2401
   74SLPC   H9X 6631   0.961  -0.604   5.394 -0.0018  0.8936  0.2191
   74SLPC   H9Y 6632   0.966  -0.780   5.416 -1.4429  0.0287  0.6567
   74SLPC  C310 6633   1.117  -0.690   5.276  0.6978 -0.4915 -0.1173
   74SLPC  H10X 6634   1.186  -0.776   5.286  1.1661 -0.0802  0.2332
   74SLPC  H10Y 6635   1.176  -0.596   5.275  2.5631 -1.5882  0.9185
   74SLPC  C311 6636   1.023  -0.703   5.155 -0.5368 -0.0330  0.0204
   74SLPC  H11X 6637   0.958  -0.613   5.152 -1.3032 -0.5941 -0.5817
   74SLPC  H11Y 6638   0.946  -0.783   5.159  0.1256 -0.8030 -1.6995
   74SLPC  C312 6639   1.110  -0.706   5.031  0.5664 -0.5572 -0.0398
   74SLPC  H12X 6640   1.163  -0.804   5.025 -1.2001 -1.4893 -1.4642
   74SLPC  H12Y 6641   1.181  -0.622   5.047  0.5882 -0.8571  1.6830
   74SLPC  C313 6642   1.026  -0.685   4.904  0.1065 -0.7223 -0.0644
   74SLPC  H13X 6643   0.974  -0.587   4.906  0.5283 -0.2968 -3.8644
   74SLPC  H13Y 6644   0.952  -0.763   4.876  1.0763 -0.5101 -3.7365
   74SLPC  C314 6645   1.126  -0.678   4.791 -0.1971  0.0203 -0.1742
   74SLPC  H14X 6646   1.182  -0.774   4.789  1.5124  0.9278  1.4818
   74SLPC  H14Y 6647   1.202  -0.599   4.810  0.5131 -0.4352 -1.0053
   74SLPC  C315 6648   1.068  -0.648   4.651  0.0370 -0.1219  0.0204
   74SLPC  H15X 6649   1.012  -0.552   4.655  0.3988  0.0831  0.2104
   74SLPC  H15Y 6650   0.997  -0.731   4.631 -0.4278  0.3042 -0.1419
   74SLPC  C316 6651   1.179  -0.651   4.543 -0.0070 -0.4198  0.1940
   74SLPC  H16X 6652   1.221  -0.752   4.523 -0.0168 -0.3742 -0.0652
   74SLPC  H16Y 6653   1.266  -0.584   4.562 -0.5625  0.6378 -0.8478
   74SLPC  C317 6654   1.122  -0.604   4.412 -0.1512  0.0921 -0.0487
   74SLPC  H17X 6655   1.021  -0.647   4.393 -0.1001 -0.9436  1.8325
   74SLPC  H17Y 6656   1.187  -0.645   4.331 -0.1217 -2.0361  0.9891
   74SLPC  C318 6657   1.133  -0.451   4.380  0.0631  0.5262  0.0241
   74SLPC  H18X 6658   1.238  -0.415   4.390  0.0856 -0.3105  4.8168
   74SLPC  H18Y 6659   1.068  -0.400   4.454 -0.0930  1.4558 -0.7243
   74SLPC  H18Z 6660   1.091  -0.424   4.280 -1.0841 -1.8783 -0.2058
   75SLPC     N 6661   4.526   1.464   6.418  0.2192 -0.3904 -0.4937
   75SLPC   C13 6662   4.389   1.413   6.379 -0.1086  0.1042  0.3311
   75SLPC  H13A 6663   4.361   1.485   6.305 -0.3016 -0.5692 -0.2617
   75SLPC  H13B 6664   4.393   1.312   6.341 -0.3998  0.0584  0.4243
   75SLPC  H13C 6665   4.340   1.429   6.474  0.7914  0.7476  0.7044
   75SLPC   C14 6666   4.583   1.373   6.516 -0.1638  0.1931 -0.6766
   75SLPC  H14A 6667   4.596   1.279   6.464  1.3481  0.4496 -0.8303
   75SLPC  H14B 6668   4.681   1.403   6.550 -0.4716 -1.4449  1.9104
   75SLPC  H14C 6669   4.512   1.363   6.596  1.0612 -0.7273  0.3321
   75SLPC   C15 6670   4.509   1.595   6.477 -0.3773  0.0834 -0.3878
   75SLPC  H15A 6671   4.475   1.669   6.405  1.2869  0.6461 -0.6635
   75SLPC  H15B 6672   4.453   1.587   6.568  1.9031  0.0767  1.0975
   75SLPC  H15C 6673   4.610   1.626   6.501  0.0191 -0.3415 -1.4061
   75SLPC   C12 6674   4.618   1.469   6.298  0.5125  0.3620  0.5211
   75SLPC  H12A 6675   4.634   1.365   6.275 -0.1697  0.3741 -0.0285
   75SLPC  H12B 6676   4.712   1.511   6.331  1.2915 -2.1614  1.7594
   75SLPC   C11 6677   4.567   1.538   6.167 -0.8074 -0.7090  0.0011
   75SLPC  H11A 6678   4.475   1.497   6.120 -0.4610 -0.1578 -1.2199
   75SLPC  H11B 6679   4.644   1.524   6.088  2.9143  1.4625  2.9093
   75SLPC     P 6680   4.681   1.765   6.186 -0.0840 -0.4136 -0.0753
   75SLPC   O13 6681   4.655   1.887   6.260  0.2124 -0.3625  0.0438
   75SLPC   O14 6682   4.801   1.682   6.231 -0.0751  0.0084  0.0724
   75SLPC   O12 6683   4.555   1.677   6.198  0.0075 -0.2339 -0.0794
   75SLPC   O11 6684   4.691   1.793   6.028  0.3839  0.2721 -0.6337
   75SLPC    C1 6685   4.641   1.914   5.973  0.8403 -0.6797 -0.3934
   75SLPC    HA 6686   4.684   1.998   6.031  2.4240 -1.4855 -0.3351
   75SLPC    HB 6687   4.683   1.937   5.873  4.1783  0.9854  1.2239
   75SLPC    C2 6688   4.484   1.928   5.969 -0.3971  0.5185 -0.1539
   75SLPC    HS 6689   4.455   1.928   6.076  1.5243  1.0827  0.3901
   75SLPC   O21 6690   4.413   1.834   5.878  0.3575 -0.1970  0.0019
   75SLPC   C21 6691   4.276   1.829   5.904 -0.4233 -1.3049  0.1683
   75SLPC   O22 6692   4.223   1.891   5.994  0.3316 -0.3817 -0.4094
   75SLPC   C22 6693   4.206   1.735   5.809 -0.3871  0.2634  0.4339
   75SLPC   H2R 6694   4.265   1.716   5.716  0.6367 -1.2566  1.3514
   75SLPC   H2S 6695   4.191   1.634   5.854 -1.5014  0.5414  0.7144
   75SLPC    C3 6696   4.451   2.075   5.928 -0.4545 -0.0719 -0.1867
   75SLPC    HX 6697   4.510   2.131   6.004 -1.7273  0.6602  0.2980
   75SLPC    HY 6698   4.347   2.102   5.955 -0.9274 -0.7205 -1.2934
   75SLPC   O31 6699   4.492   2.106   5.793 -0.3433  0.8111 -0.3973
   75SLPC   C31 6700   4.392   2.092   5.704 -0.4985 -0.1067  0.4015
   75SLPC   O32 6701   4.278   2.060   5.727  0.2729  0.3981  0.0733
   75SLPC   C32 6702   4.451   2.095   5.561  0.0846  0.2872  0.1688
   75SLPC   H2X 6703   4.525   2.013   5.550 -0.5272 -0.1996 -0.3932
   75SLPC   H2Y 6704   4.513   2.185   5.545  0.6279 -0.3640 -1.6044
   75SLPC   C23 6705   4.072   1.792   5.760 -0.8369  0.0939  0.0009
   75SLPC   H3R 6706   4.089   1.849   5.666 -2.8761  0.2190 -0.3398
   75SLPC   H3S 6707   4.023   1.869   5.825 -0.3673  0.2244  0.2072
   75SLPC   C24 6708   3.965   1.689   5.732 -0.2834 -0.5036 -0.2906
   75SLPC   H4R 6709   3.860   1.727   5.730 -0.2707 -0.4549 -0.0406
   75SLPC   H4S 6710   3.966   1.615   5.815  0.6767  1.4154  1.4998
   75SLPC   C25 6711   3.980   1.606   5.604  0.1340  0.3552 -0.9857
   75SLPC   H5R 6712   3.887   1.550   5.580 -0.2417  0.9440 -0.9068
   75SLPC   H5S 6713   4.056   1.525   5.608 -1.7141 -1.4283  0.0038
   75SLPC   C26 6714   4.014   1.697   5.486  0.5287  0.8935  0.0402
   75SLPC   H6R 6715   4.122   1.723   5.491  0.2218  1.9067  3.2710
   75SLPC   H6S 6716   3.945   1.783   5.494  0.5083  0.6681  4.5713
   75SLPC   C27 6717   3.996   1.624   5.348  0.6191  0.0743 -0.5311
   75SLPC   H7R 6718   3.895   1.581   5.364  0.5236 -0.3040 -1.9994
   75SLPC   H7S 6719   4.065   1.538   5.350 -1.9152 -2.0778 -0.2582
   75SLPC   C28 6720   3.993   1.713   5.217  0.0420 -0.1176  0.1500
   75SLPC   H8R 6721   4.087   1.772   5.219  1.3720 -2.1482 -0.0434
   75SLPC   H8S 6722   3.907   1.784   5.222  0.6638  0.7063 -0.6533
   75SLPC   C29 6723   3.984   1.625   5.094 -0.7545 -0.0207 -0.3406
   75SLPC   H9R 6724   4.014   1.521   5.114 -0.7881 -0.1302 -0.8543
   75SLPC  C210 6725   3.946   1.662   4.968  0.3626 -0.1424  0.1450
   75SLPC  H10R 6726   3.954   1.587   4.888  1.4039  0.1933 -0.0871
   75SLPC  C211 6727   3.915   1.806   4.933 -0.4967  0.0949 -0.4234
   75SLPC  H11R 6728   3.919   1.871   5.023 -1.8087  0.7715 -0.8426
   75SLPC  H11S 6729   3.814   1.831   4.895 -0.5237 -0.2202 -0.5635
   75SLPC  C212 6730   4.012   1.830   4.823 -0.5581 -0.7230  0.8863
   75SLPC  H12R 6731   4.116   1.818   4.855 -0.5788 -0.2644  1.1395
   75SLPC  C213 6732   3.986   1.889   4.700 -0.3200 -0.2189 -0.7268
   75SLPC  H13R 6733   4.068   1.910   4.629 -1.3106  0.1597 -1.7900
   75SLPC  C214 6734   3.854   1.936   4.651 -0.4157  0.8131  0.9507
   75SLPC  H14R 6735   3.847   2.039   4.691 -0.5700  1.5379 -0.8261
   75SLPC  H14S 6736   3.774   1.866   4.682 -0.7289  1.1906  1.0006
   75SLPC  C215 6737   3.841   1.944   4.495 -0.3935  0.0037  0.9595
   75SLPC  H15R 6738   3.918   2.013   4.454 -1.0550 -0.5078 -1.2686
   75SLPC  H15S 6739   3.750   2.001   4.469  0.4807 -0.2191 -3.1978
   75SLPC  C216 6740   3.856   1.813   4.422 -0.4632  0.8234 -0.3231
   75SLPC  H16R 6741   3.952   1.761   4.446  0.1007  0.8208 -2.3846
   75SLPC  H16S 6742   3.865   1.841   4.315  0.6822  1.8627  0.0100
   75SLPC  C217 6743   3.747   1.708   4.425  0.0426  0.9433 -0.0319
   75SLPC  H17R 6744   3.648   1.754   4.401 -0.9229 -1.2166 -0.3818
   75SLPC  H17S 6745   3.745   1.676   4.532  2.5935  1.8977  0.3639
   75SLPC  C218 6746   3.778   1.589   4.339  0.4195 -0.1988 -0.5347
   75SLPC  H18R 6747   3.870   1.536   4.371 -0.2318  0.2357  2.2984
   75SLPC  H18S 6748   3.792   1.614   4.231  1.3841  0.0025 -0.3688
   75SLPC  H18T 6749   3.696   1.514   4.333 -0.6835  1.0200 -1.2515
   75SLPC   C33 6750   4.338   2.077   5.459 -0.3570  0.7535 -0.2503
   75SLPC   H3X 6751   4.268   2.164   5.467  1.1734  2.1722 -1.5379
   75SLPC   H3Y 6752   4.281   1.983   5.476  0.6274  0.2416  0.2285
   75SLPC   C34 6753   4.396   2.070   5.316  0.6107  0.2882 -0.1881
   75SLPC   H4X 6754   4.484   2.004   5.302  0.4909 -0.2630  1.4540
   75SLPC   H4Y 6755   4.420   2.170   5.275  0.4754  0.4606  0.1493
   75SLPC   C35 6756   4.287   2.027   5.217  0.8396 -0.5384  0.3016
   75SLPC   H5X 6757   4.189   2.062   5.256  0.0631 -0.8521 -1.2842
   75SLPC   H5Y 6758   4.284   1.916   5.211 -2.1205 -0.5584  0.9294
   75SLPC   C36 6759   4.309   2.093   5.078  0.0648  0.8465  0.0459
   75SLPC   H6X 6760   4.251   2.026   5.012 -1.0321  0.4466  1.3657
   75SLPC   H6Y 6761   4.414   2.101   5.042  0.1017 -0.0331 -0.0572
   75SLPC   C37 6762   4.264   2.243   5.064 -0.5289  0.2998  0.6453
   75SLPC   H7X 6763   4.317   2.300   5.143 -1.4584 -0.8435  2.1629
   75SLPC   H7Y 6764   4.155   2.245   5.086 -0.7479 -1.5928 -0.0517
   75SLPC   C38 6765   4.304   2.300   4.928 -0.4213 -0.0871 -0.2293
   75SLPC   H8X 6766   4.414   2.287   4.922 -0.5458 -1.9029  0.7075
   75SLPC   H8Y 6767   4.270   2.405   4.927  1.1080  0.4452  0.1045
   75SLPC   C39 6768   4.234   2.224   4.811  0.2091 -0.2001 -0.3972
   75SLPC   H9X 6769   4.130   2.201   4.843  0.2960 -1.0419 -0.6982
   75SLPC   H9Y 6770   4.282   2.126   4.791 -1.6178 -0.7316 -2.5114
   75SLPC  C310 6771   4.244   2.303   4.683  0.0554 -0.6909  0.2530
   75SLPC  H10X 6772   4.347   2.338   4.664 -0.1850  0.8175  1.5569
   75SLPC  H10Y 6773   4.193   2.401   4.689  2.2311  0.6847 -2.0465
   75SLPC  C311 6774   4.204   2.216   4.556 -0.0762 -0.4331  0.1909
   75SLPC  H11X 6775   4.102   2.184   4.587 -0.8910 -1.4022 -3.0977
   75SLPC  H11Y 6776   4.271   2.129   4.549 -0.0062 -0.3308 -0.5012
   75SLPC  C312 6777   4.193   2.296   4.426  0.0898 -0.5552 -0.4828
   75SLPC  H12X 6778   4.150   2.225   4.352 -1.8590 -0.1373  0.2086
   75SLPC  H12Y 6779   4.299   2.328   4.416  0.0410  0.8445  2.3214
   75SLPC  C313 6780   4.106   2.429   4.427 -0.0445  0.3982 -0.3217
   75SLPC  H13X 6781   4.163   2.517   4.465 -0.1199  0.7034 -0.8886
   75SLPC  H13Y 6782   4.012   2.427   4.486 -0.8577  2.0852 -1.4536
   75SLPC  C314 6783   4.059   2.470   4.284  0.3841  0.2220  0.4616
   75SLPC  H14X 6784   4.007   2.568   4.295 -1.6534 -0.9204  1.4900
   75SLPC  H14Y 6785   3.988   2.396   4.242  1.2750  0.3734 -1.4182
   75SLPC  C315 6786   4.172   2.493   4.183  0.9265 -0.2955  0.1057
   75SLPC  H15X 6787   4.227   2.397   4.171 -0.5985 -0.9307 -2.6794
   75SLPC  H15Y 6788   4.227   2.572   4.238 -2.8911  1.5120  1.6695
   75SLPC  C316 6789   4.128   2.526   4.035  0.2197 -0.1909  0.3857
   75SLPC  H16X 6790   4.069   2.620   4.044  0.6318 -0.0301  1.6302
   75SLPC  H16Y 6791   4.064   2.451   3.985 -0.0916  0.5956 -0.4287
   75SLPC  C317 6792   4.247   2.559   3.941 -0.4102 -0.4213 -0.2362
   75SLPC  H17X 6793   4.285   2.462   3.904  2.0272  0.2634  0.3173
   75SLPC  H17Y 6794   4.328   2.611   3.996 -0.1466 -0.3383 -0.7045
   75SLPC  C318 6795   4.188   2.638   3.827 -0.0638 -0.6101 -0.1223
   75SLPC  H18X 6796   4.163   2.740   3.862 -0.4096 -0.9322  0.5719
   75SLPC  H18Y 6797   4.096   2.586   3.793  0.9190 -0.6612 -3.0565
   75SLPC  H18Z 6798   4.257   2.649   3.740  0.1694 -2.2776 -0.1904
   76SLPC     N 6799   5.173   1.120   6.039 -0.2549  0.2669 -0.0277
   76SLPC   C13 6800   5.130   1.011   5.954  0.2720  0.1270  0.2758
   76SLPC  H13A 6801   5.201   0.930   5.961  0.6347  0.5077  1.1634
   76SLPC  H13B 6802   5.031   0.983   5.989 -0.5921  1.6343 -0.8412
   76SLPC  H13C 6803   5.117   1.030   5.849 -0.9925  2.4254  0.7633
   76SLPC   C14 6804   5.325   1.125   6.025  0.0713 -0.3219 -0.3715
   76SLPC  H14A 6805   5.355   1.134   5.922 -2.4574  1.7491 -1.0174
   76SLPC  H14B 6806   5.365   1.217   6.063  0.2036 -0.4996 -0.0749
   76SLPC  H14C 6807   5.384   1.044   6.066  0.5815  0.4208  0.3814
   76SLPC   C15 6808   5.158   1.085   6.185  0.3473  0.4055  0.4921
   76SLPC  H15A 6809   5.195   0.990   6.221 -2.2685 -1.0257 -0.3702
   76SLPC  H15B 6810   5.209   1.159   6.245  0.3253 -0.5311  1.7146
   76SLPC  H15C 6811   5.054   1.085   6.215  0.1190 -2.6241  0.0441
   76SLPC   C12 6812   5.105   1.253   6.001  0.4538 -0.3154 -0.7532
   76SLPC  H12A 6813   5.109   1.268   5.894 -0.1468  1.7698 -0.5228
   76SLPC  H12B 6814   5.159   1.336   6.044  0.2119  0.1820 -1.3874
   76SLPC   C11 6815   4.951   1.270   6.030  0.0715  0.0312 -0.4170
   76SLPC  H11A 6816   4.923   1.377   6.020 -0.4561 -0.2073 -1.6063
   76SLPC  H11B 6817   4.930   1.239   6.135 -1.0950  0.0859 -0.6185
   76SLPC     P 6818   4.838   1.208   5.799  0.0885 -0.0997  0.2623
   76SLPC   O13 6819   4.927   1.117   5.724  0.0901 -0.1990  0.1668
   76SLPC   O14 6820   4.693   1.194   5.766 -0.6892 -0.4176  0.6852
   76SLPC   O12 6821   4.869   1.184   5.950 -0.1531 -0.9669  0.6262
   76SLPC   O11 6822   4.883   1.354   5.775  0.4595  0.0971 -0.1520
   76SLPC    C1 6823   4.805   1.469   5.793 -0.1901  0.3597 -0.6889
   76SLPC    HA 6824   4.713   1.450   5.852  0.6572  0.9755  0.8771
   76SLPC    HB 6825   4.872   1.544   5.839  0.1390  0.7263 -1.7332
   76SLPC    C2 6826   4.742   1.519   5.657 -0.0861  0.2734  0.0278
   76SLPC    HS 6827   4.677   1.436   5.621  1.6921 -1.2049  0.0516
   76SLPC   O21 6828   4.853   1.557   5.568 -0.2986  1.3285 -0.1107
   76SLPC   C21 6829   4.838   1.505   5.450  0.3482 -0.0730 -0.1544
   76SLPC   O22 6830   4.743   1.435   5.407 -0.4896 -0.4209  0.8548
   76SLPC   C22 6831   4.957   1.545   5.360  0.0784  0.0986  0.1724
   76SLPC   H2R 6832   4.977   1.655   5.362 -1.3362  0.3637  1.2936
   76SLPC   H2S 6833   5.052   1.499   5.396  0.3331  1.4139  1.2755
   76SLPC    C3 6834   4.659   1.647   5.684 -0.0721 -0.3336  0.5293
   76SLPC    HX 6835   4.732   1.730   5.702 -1.2487  1.1360 -1.0899
   76SLPC    HY 6836   4.599   1.640   5.777 -0.1586  3.5192  0.9475
   76SLPC   O31 6837   4.581   1.686   5.573  0.1005  0.3911 -0.5447
   76SLPC   C31 6838   4.466   1.622   5.548  0.5184 -0.8134 -0.3129
   76SLPC   O32 6839   4.419   1.531   5.618  0.2249 -0.5677 -0.0133
   76SLPC   C32 6840   4.396   1.677   5.428  0.2104 -0.0133  0.2466
   76SLPC   H2X 6841   4.369   1.783   5.449  0.7676  0.2396 -0.2917
   76SLPC   H2Y 6842   4.312   1.607   5.410  0.3688  0.2747 -1.8430
   76SLPC   C23 6843   4.926   1.506   5.210  0.4066  0.1631  0.1667
   76SLPC   H3R 6844   4.833   1.561   5.182 -0.0146  0.1312  1.4469
   76SLPC   H3S 6845   4.909   1.397   5.214  1.9384 -0.1412 -0.9362
   76SLPC   C24 6846   5.041   1.536   5.121  0.4363  0.1216  0.4355
   76SLPC   H4R 6847   5.061   1.644   5.140 -0.0564 -0.0811  2.2476
   76SLPC   H4S 6848   5.008   1.538   5.015  1.4743 -0.5928  0.0878
   76SLPC   C25 6849   5.166   1.441   5.126 -0.5290 -0.3642 -0.0100
   76SLPC   H5R 6850   5.144   1.347   5.071 -2.7375 -0.0503  0.2653
   76SLPC   H5S 6851   5.191   1.407   5.229 -1.4058 -1.7374 -0.2319
   76SLPC   C26 6852   5.285   1.513   5.058  0.8748 -0.2763  0.4632
   76SLPC   H6R 6853   5.375   1.448   5.065  1.1191 -0.1612 -1.2469
   76SLPC   H6S 6854   5.304   1.614   5.100 -2.7949  0.0166  1.8230
   76SLPC   C27 6855   5.252   1.533   4.908  0.0966  0.4212 -0.2772
   76SLPC   H7R 6856   5.163   1.599   4.902 -0.2045 -0.0136 -0.6429
   76SLPC   H7S 6857   5.235   1.436   4.857  1.3064  0.6786 -1.2356
   76SLPC   C28 6858   5.358   1.611   4.824 -0.4777 -0.2075  0.0266
   76SLPC   H8R 6859   5.329   1.617   4.716  1.1964 -1.5718 -0.5413
   76SLPC   H8S 6860   5.447   1.546   4.834 -0.0448  0.2552 -0.6841
   76SLPC   C29 6861   5.363   1.757   4.874 -0.6899  0.0507  1.2098
   76SLPC   H9R 6862   5.420   1.777   4.966  0.5275  2.7095  0.0013
   76SLPC  C210 6863   5.294   1.861   4.822  0.2249 -0.4106  0.3463
   76SLPC  H10R 6864   5.298   1.964   4.860 -4.1663  0.2611 -0.4779
   76SLPC  C211 6865   5.206   1.859   4.699  0.0409  1.1372  0.5079
   76SLPC  H11R 6866   5.168   1.756   4.682  3.2659 -0.3316  1.4168
   76SLPC  H11S 6867   5.262   1.889   4.608  1.9726 -0.0705  1.2146
   76SLPC  C212 6868   5.088   1.944   4.719  1.0312  0.3902  0.3884
   76SLPC  H12R 6869   5.058   1.957   4.824  2.2950  1.8392  0.6092
   76SLPC  C213 6870   5.029   2.021   4.626  0.2744 -0.8604 -0.5364
   76SLPC  H13R 6871   4.936   2.074   4.649  2.4075  3.3671 -0.7449
   76SLPC  C214 6872   5.074   2.037   4.487  0.0028 -0.5019 -0.8006
   76SLPC  H14R 6873   4.991   2.090   4.434  0.3399  1.3168  0.4142
   76SLPC  H14S 6874   5.082   1.936   4.440 -1.3884 -0.6379 -0.7977
   76SLPC  C215 6875   5.202   2.116   4.454  0.8046  0.8771 -0.0853
   76SLPC  H15R 6876   5.296   2.067   4.484  1.4622  2.0765 -0.1274
   76SLPC  H15S 6877   5.195   2.222   4.488 -0.1700  0.5725  0.7137
   76SLPC  C216 6878   5.219   2.125   4.308 -0.5415 -0.5877  0.4453
   76SLPC  H16R 6879   5.261   2.031   4.267 -2.4370 -1.2175 -0.1857
   76SLPC  H16S 6880   5.292   2.206   4.286  0.7857 -0.9936  3.0137
   76SLPC  C217 6881   5.099   2.174   4.236  0.3484  0.5465  0.2578
   76SLPC  H17R 6882   5.057   2.259   4.294  0.6086 -0.3633  1.8217
   76SLPC  H17S 6883   5.026   2.090   4.233 -0.2823  0.8668  3.2379
   76SLPC  C218 6884   5.118   2.203   4.089 -0.8088  0.8806  0.0882
   76SLPC  H18R 6885   5.028   2.173   4.031 -0.8301  0.2176  0.4566
   76SLPC  H18S 6886   5.192   2.129   4.051 -2.1836 -0.3935 -0.1960
   76SLPC  H18T 6887   5.150   2.308   4.073 -0.6256  0.6317 -1.3302
   76SLPC   C33 6888   4.490   1.682   5.296  0.6634 -0.0998  1.1643
   76SLPC   H3X 6889   4.572   1.610   5.316  0.7800  0.6204  3.5960
   76SLPC   H3Y 6890   4.525   1.786   5.283 -1.2418  0.5606  1.0563
   76SLPC   C34 6891   4.415   1.650   5.165 -0.7020 -0.2064 -0.2551
   76SLPC   H4X 6892   4.308   1.680   5.162  0.1235  3.3827  0.8672
   76SLPC   H4Y 6893   4.414   1.541   5.142 -1.3043 -0.4729  0.8997
   76SLPC   C35 6894   4.480   1.726   5.054  0.5599 -0.6265  0.3326
   76SLPC   H5X 6895   4.558   1.658   5.013 -0.6848 -1.9509  0.0722
   76SLPC   H5Y 6896   4.516   1.827   5.081 -0.9325  0.3328 -1.0435
   76SLPC   C36 6897   4.386   1.741   4.922  0.6093  0.7322  0.2507
   76SLPC   H6X 6898   4.308   1.813   4.955  0.4053  0.5130  0.2500
   76SLPC   H6Y 6899   4.344   1.639   4.908  1.0596  0.4929  0.5900
   76SLPC   C37 6900   4.468   1.794   4.803  0.0376  0.7119 -0.1658
   76SLPC   H7X 6901   4.552   1.722   4.801  0.7380  1.5019 -2.0988
   76SLPC   H7Y 6902   4.527   1.882   4.838  0.2637  0.5469 -0.1336
   76SLPC   C38 6903   4.392   1.794   4.666 -0.2328 -0.5206 -0.3430
   76SLPC   H8X 6904   4.300   1.856   4.672  0.9619  1.2423  0.7843
   76SLPC   H8Y 6905   4.363   1.691   4.637 -2.3465  0.0404 -0.3313
   76SLPC   C39 6906   4.475   1.849   4.551  0.3236  0.1405 -0.6168
   76SLPC   H9X 6907   4.419   1.830   4.457  1.3753  1.0323 -1.4459
   76SLPC   H9Y 6908   4.552   1.771   4.536 -1.9028 -1.8720 -2.3274
   76SLPC  C310 6909   4.534   1.985   4.570 -0.4759  0.4151 -0.0465
   76SLPC  H10X 6910   4.633   1.977   4.620 -0.2887  1.3036 -0.2713
   76SLPC  H10Y 6911   4.469   2.048   4.634 -0.9978 -1.5555  1.5015
   76SLPC  C311 6912   4.556   2.050   4.429  0.0567 -0.4613 -0.6895
   76SLPC  H11X 6913   4.594   2.154   4.441 -0.0322 -0.6690  1.9324
   76SLPC  H11Y 6914   4.455   2.060   4.382  0.7394  1.9250 -1.8452
   76SLPC  C312 6915   4.664   1.987   4.342  0.2725  0.1100  0.3422
   76SLPC  H12X 6916   4.633   1.881   4.334 -3.2552  1.1090 -1.0672
   76SLPC  H12Y 6917   4.767   2.006   4.379  0.4501  0.8147 -0.4790
   76SLPC  C313 6918   4.653   2.043   4.200  1.3914  0.1345  0.4717
   76SLPC  H13X 6919   4.543   2.037   4.184  1.2841  0.7178  0.9580
   76SLPC  H13Y 6920   4.694   1.979   4.119 -0.5940 -0.1838 -0.3480
   76SLPC  C314 6921   4.700   2.187   4.179 -0.8925 -0.3677 -0.1735
   76SLPC  H14X 6922   4.806   2.164   4.155 -0.4623 -0.6937  1.8745
   76SLPC  H14Y 6923   4.699   2.252   4.268 -1.2667  3.1127 -2.5156
   76SLPC  C315 6924   4.617   2.257   4.062  0.3080 -0.0902  0.5331
   76SLPC  H15X 6925   4.524   2.298   4.106  0.3636 -0.5507  1.0906
   76SLPC  H15Y 6926   4.600   2.186   3.978 -0.1042 -4.0846  3.6581
   76SLPC  C316 6927   4.690   2.384   4.006 -0.2301 -0.4249  0.1390
   76SLPC  H16X 6928   4.777   2.342   3.950 -0.3390  0.1145 -0.4516
   76SLPC  H16Y 6929   4.721   2.455   4.086 -0.3188 -0.2382  0.0102
   76SLPC  C317 6930   4.604   2.454   3.905 -0.4021  0.0590 -0.4355
   76SLPC  H17X 6931   4.528   2.521   3.951 -0.2034 -0.1350  0.1844
   76SLPC  H17Y 6932   4.544   2.382   3.845  1.0325 -0.8117 -0.8585
   76SLPC  C318 6933   4.690   2.523   3.799  0.7313 -0.0410 -0.4363
   76SLPC  H18X 6934   4.631   2.558   3.711 -2.5248 -1.2647  1.0938
   76SLPC  H18Y 6935   4.766   2.449   3.766  0.7606 -1.9901  3.5279
   76SLPC  H18Z 6936   4.742   2.607   3.850  0.3770  1.0436 -1.7685
   77SLPC     N 6937   5.350   1.693   6.415 -0.5589  0.0663 -0.3935
   77SLPC   C13 6938   5.429   1.620   6.316 -0.5265 -0.1168  0.1088
   77SLPC  H13A 6939   5.534   1.613   6.340 -0.3859  1.1903 -0.0669
   77SLPC  H13B 6940   5.380   1.524   6.303 -0.9792 -0.2652  2.4278
   77SLPC  H13C 6941   5.426   1.666   6.218 -1.5594 -0.3120  0.0420
   77SLPC   C14 6942   5.430   1.814   6.451  0.4433 -0.3832  0.3401
   77SLPC  H14A 6943   5.459   1.862   6.359 -0.6353 -0.1908  0.0895
   77SLPC  H14B 6944   5.369   1.880   6.511  1.9533  0.2819  1.2051
   77SLPC  H14C 6945   5.519   1.783   6.504  1.1335 -0.6346 -0.9271
   77SLPC   C15 6946   5.332   1.626   6.542  0.2017 -0.4727  0.3834
   77SLPC  H15A 6947   5.276   1.536   6.524 -0.1130  0.1642 -2.2533
   77SLPC  H15B 6948   5.422   1.589   6.590 -0.5395 -1.9673  0.6796
   77SLPC  H15C 6949   5.285   1.690   6.615  0.5607 -1.7816  1.8135
   77SLPC   C12 6950   5.212   1.733   6.349  0.9419  0.4811  0.1703
   77SLPC  H12A 6951   5.170   1.645   6.303 -2.7419  0.5143  3.0175
   77SLPC  H12B 6952   5.233   1.800   6.267 -2.8755  1.2161 -0.4018
   77SLPC   C11 6953   5.111   1.790   6.449 -0.1521  0.3296  0.5266
   77SLPC  H11A 6954   5.077   1.728   6.534 -1.4780 -0.9155 -0.8438
   77SLPC  H11B 6955   5.015   1.806   6.394 -1.0637 -0.6935  1.7587
   77SLPC     P 6956   5.124   2.046   6.448  0.3111  0.6960 -0.0063
   77SLPC   O13 6957   4.979   2.052   6.474  0.3339 -0.0585  0.3512
   77SLPC   O14 6958   5.210   2.145   6.504 -0.6295  0.2095  0.3771
   77SLPC   O12 6959   5.161   1.907   6.512 -1.0130  0.4649 -1.0077
   77SLPC   O11 6960   5.149   2.016   6.296 -0.4116  0.3135  0.0482
   77SLPC    C1 6961   5.037   2.028   6.207  0.0809  0.5694 -0.6879
   77SLPC    HA 6962   4.963   1.948   6.228 -1.2553  1.4796 -1.7410
   77SLPC    HB 6963   4.965   2.112   6.218  0.0559  0.2156  3.1158
   77SLPC    C2 6964   5.075   2.001   6.053 -0.0226 -0.2875 -0.3971
   77SLPC    HS 6965   5.132   1.905   6.055 -0.9855 -1.0281 -3.3354
   77SLPC   O21 6966   5.160   2.116   6.009 -0.2481 -0.1107 -0.2774
   77SLPC   C21 6967   5.262   2.081   5.931 -0.8815 -0.1043  0.9275
   77SLPC   O22 6968   5.294   1.970   5.903  0.2916  0.5898 -0.1100
   77SLPC   C22 6969   5.334   2.200   5.870 -0.0853 -0.6065  0.3471
   77SLPC   H2R 6970   5.379   2.272   5.941 -0.8263  0.7275 -0.4898
   77SLPC   H2S 6971   5.411   2.149   5.808 -2.2063 -1.6356 -1.6274
   77SLPC    C3 6972   4.958   1.989   5.957  0.1238  0.3811  0.2452
   77SLPC    HX 6973   4.875   2.059   5.983  0.1338  0.1887  0.8112
   77SLPC    HY 6974   4.916   1.888   5.978  1.2979 -0.2592 -0.4468
   77SLPC   O31 6975   4.990   1.995   5.812  0.2730 -0.4174 -0.0550
   77SLPC   C31 6976   5.018   1.881   5.748  0.6973 -0.6264 -0.3632
   77SLPC   O32 6977   5.016   1.771   5.797  0.0025  0.3526 -0.3438
   77SLPC   C32 6978   5.042   1.904   5.601 -0.3762  0.6883 -0.0568
   77SLPC   H2X 6979   5.076   1.808   5.557  0.4199 -0.0600  2.0211
   77SLPC   H2Y 6980   5.124   1.977   5.587  0.0330  0.5437  1.3596
   77SLPC   C23 6981   5.235   2.283   5.782  0.6850 -0.2322  0.1307
   77SLPC   H3R 6982   5.162   2.344   5.840  0.4986 -2.5261  2.4574
   77SLPC   H3S 6983   5.168   2.219   5.720  0.8746  0.4888 -0.8579
   77SLPC   C24 6984   5.305   2.380   5.686 -0.5409  0.4690 -0.3421
   77SLPC   H4R 6985   5.357   2.311   5.615 -1.6974 -1.1413  0.3068
   77SLPC   H4S 6986   5.369   2.448   5.745  0.8478 -1.4612  0.5076
   77SLPC   C25 6987   5.200   2.472   5.613 -0.2694 -0.1661 -0.2516
   77SLPC   H5R 6988   5.156   2.540   5.688 -1.7194  1.5150 -2.5053
   77SLPC   H5S 6989   5.117   2.411   5.571  0.9530 -1.5951 -0.7057
   77SLPC   C26 6990   5.270   2.540   5.497  0.4042 -0.7959  0.5679
   77SLPC   H6R 6991   5.305   2.465   5.424  1.0052  1.4882 -1.6341
   77SLPC   H6S 6992   5.363   2.585   5.538  0.6883 -2.5451  1.9484
   77SLPC   C27 6993   5.182   2.654   5.434  0.5224 -0.0650 -0.1645
   77SLPC   H7R 6994   5.243   2.711   5.360 -0.5164 -2.2260 -2.8467
   77SLPC   H7S 6995   5.155   2.728   5.512  0.1890  0.5176 -0.8194
   77SLPC   C28 6996   5.048   2.589   5.365 -0.1335 -0.4275 -0.0048
   77SLPC   H8R 6997   4.978   2.671   5.338  1.1321  0.9195  0.6196
   77SLPC   H8S 6998   4.996   2.544   5.452  1.4499  0.1525  1.2944
   77SLPC   C29 6999   5.081   2.511   5.247 -0.1686 -0.3431  0.4804
   77SLPC   H9R 7000   5.146   2.425   5.266  1.9008  1.3896  1.6788
   77SLPC  C210 7001   5.039   2.538   5.121 -0.0839  0.1091  0.1920
   77SLPC  H10R 7002   5.083   2.480   5.038  0.6876  0.6352  0.2218
   77SLPC  C211 7003   4.964   2.657   5.071  0.2469 -0.2309  1.0441
   77SLPC  H11R 7004   5.025   2.747   5.094  2.0999 -0.8483 -1.1511
   77SLPC  H11S 7005   4.868   2.664   5.126 -0.7344  1.0836 -0.7500
   77SLPC  C212 7006   4.939   2.659   4.918 -0.3581  0.2131 -1.0968
   77SLPC  H12R 7007   4.836   2.626   4.901  0.4159 -2.2063 -1.4741
   77SLPC  C213 7008   5.013   2.712   4.819  0.0451 -0.5397 -0.3346
   77SLPC  H13R 7009   4.972   2.720   4.718  0.8195  2.1215 -0.4989
   77SLPC  C214 7010   5.156   2.748   4.831  0.0060 -0.4663 -0.6221
   77SLPC  H14R 7011   5.212   2.737   4.736  1.5065 -0.0164  0.1749
   77SLPC  H14S 7012   5.200   2.671   4.898 -1.2715 -0.9293 -0.2771
   77SLPC  C215 7013   5.181   2.890   4.893 -0.6130 -0.9618  0.1244
   77SLPC  H15R 7014   5.290   2.903   4.911 -0.4903 -0.5985 -0.7997
   77SLPC  H15S 7015   5.128   2.911   4.988  2.9332  0.8757  1.8656
   77SLPC  C216 7016   5.137   3.001   4.796 -0.0310 -0.2523  0.5434
   77SLPC  H16R 7017   5.043   2.959   4.753 -0.0032 -0.5906  0.8104
   77SLPC  H16S 7018   5.210   3.002   4.713  0.0692 -1.6156  0.5923
   77SLPC  C217 7019   5.136   3.136   4.855 -0.0377 -1.1504 -0.3641
   77SLPC  H17R 7020   5.236   3.167   4.894 -0.6865  1.4052 -0.5405
   77SLPC  H17S 7021   5.067   3.135   4.942  0.3914  1.0171  0.0713
   77SLPC  C218 7022   5.083   3.244   4.761 -0.9578  0.1551  0.4500
   77SLPC  H18R 7023   5.136   3.228   4.665  0.2408 -2.1115  1.4111
   77SLPC  H18S 7024   5.110   3.346   4.797  1.2908  0.0546 -0.7786
   77SLPC  H18T 7025   4.976   3.238   4.735 -0.7985  0.4632 -0.2872
   77SLPC   C33 7026   4.912   1.954   5.534  0.3148 -0.2321 -0.8136
   77SLPC   H3X 7027   4.885   2.052   5.577 -0.4704 -0.5534 -0.5449
   77SLPC   H3Y 7028   4.828   1.888   5.564 -0.3795  0.0940 -1.9495
   77SLPC   C34 7029   4.920   1.961   5.382  0.9523 -0.7721 -0.2033
   77SLPC   H4X 7030   4.922   1.858   5.339 -1.8300 -0.7875 -0.4682
   77SLPC   H4Y 7031   5.007   2.018   5.342  1.3098 -1.1978 -0.0389
   77SLPC   C35 7032   4.794   2.018   5.315  0.2155 -0.2059 -0.9885
   77SLPC   H5X 7033   4.771   2.122   5.346 -1.6967 -0.1357 -2.4254
   77SLPC   H5Y 7034   4.706   1.959   5.347  0.9399 -1.2903 -0.9356
   77SLPC   C36 7035   4.798   2.020   5.163  0.2196  1.0020  0.1458
   77SLPC   H6X 7036   4.697   2.053   5.130  0.0096 -1.4329 -1.9968
   77SLPC   H6Y 7037   4.807   1.918   5.121  1.9551  1.9904 -2.1171
   77SLPC   C37 7038   4.897   2.114   5.110 -0.6096 -0.6478  0.2924
   77SLPC   H7X 7039   4.991   2.055   5.113 -0.5156 -0.5157 -0.0410
   77SLPC   H7Y 7040   4.910   2.208   5.168  2.0008 -1.2683  0.8158
   77SLPC   C38 7041   4.865   2.146   4.966 -0.0677  0.6544 -1.0941
   77SLPC   H8X 7042   4.832   2.058   4.906  1.1003 -0.0662 -0.7250
   77SLPC   H8Y 7043   4.962   2.179   4.923  0.2084 -0.0307 -1.0194
   77SLPC   C39 7044   4.769   2.256   4.942  0.3684 -0.4207  0.0611
   77SLPC   H9X 7045   4.804   2.351   4.988  1.3786 -1.0817  0.7002
   77SLPC   H9Y 7046   4.672   2.238   4.994 -0.2897  1.0484 -0.5826
   77SLPC  C310 7047   4.745   2.272   4.798  0.3049 -0.1689 -0.4937
   77SLPC  H10X 7048   4.701   2.183   4.747 -2.9916  0.4584  0.9486
   77SLPC  H10Y 7049   4.849   2.288   4.763  0.3478  1.4853  0.3227
   77SLPC  C311 7050   4.666   2.395   4.747  0.1276  0.7728 -0.2234
   77SLPC  H11X 7051   4.684   2.491   4.800  0.0869  0.6340  0.0413
   77SLPC  H11Y 7052   4.559   2.366   4.759  0.3937 -0.7088 -1.1878
   77SLPC  C312 7053   4.680   2.427   4.595  0.2315  0.1186 -0.4718
   77SLPC  H12X 7054   4.582   2.456   4.551 -2.0685 -1.8639  2.8937
   77SLPC  H12Y 7055   4.717   2.333   4.548  0.7093  1.4179 -2.8461
   77SLPC  C313 7056   4.780   2.539   4.566  0.6693  0.4594 -0.0718
   77SLPC  H13X 7057   4.876   2.517   4.617  1.0428 -0.3591 -1.0933
   77SLPC  H13Y 7058   4.744   2.643   4.586 -0.4699  0.6288 -2.6025
   77SLPC  C314 7059   4.794   2.561   4.416  0.7192  0.3138  1.1068
   77SLPC  H14X 7060   4.700   2.588   4.363  0.5722 -1.9475  0.0994
   77SLPC  H14Y 7061   4.807   2.462   4.367 -1.4626  0.6207 -0.2221
   77SLPC  C315 7062   4.915   2.646   4.368 -0.1710  0.3418  0.0428
   77SLPC  H15X 7063   4.928   2.638   4.258  0.1565  0.0734  0.0994
   77SLPC  H15Y 7064   5.001   2.602   4.423  0.6656 -2.9777 -3.4925
   77SLPC  C316 7065   4.904   2.792   4.405  0.0285  0.1526 -0.4394
   77SLPC  H16X 7066   4.908   2.790   4.516 -1.0160 -1.1907 -0.3991
   77SLPC  H16Y 7067   4.804   2.831   4.375 -0.4559 -0.0412  0.8641
   77SLPC  C317 7068   5.026   2.870   4.351  0.0108 -0.3030 -0.2888
   77SLPC  H17X 7069   5.122   2.815   4.344  0.3548  0.3972 -1.4511
   77SLPC  H17Y 7070   5.036   2.958   4.417 -0.0823  0.4332 -1.2351
   77SLPC  C318 7071   5.002   2.928   4.209 -0.8857 -0.1017  0.3076
   77SLPC  H18X 7072   5.000   2.843   4.138 -0.1114  0.3059 -0.2135
   77SLPC  H18Y 7073   5.083   2.992   4.168 -2.0869  2.4253  1.5732
   77SLPC  H18Z 7074   4.903   2.978   4.216 -0.5189  0.7502 -0.4036
   78SLPC     N 7075   2.862   5.140   6.378  0.4398 -0.6502  0.6796
   78SLPC   C13 7076   2.755   5.237   6.418  0.2322  0.7358 -0.5034
   78SLPC  H13A 7077   2.698   5.270   6.333  0.0775 -0.1326 -0.7435
   78SLPC  H13B 7078   2.680   5.196   6.483  0.3409  1.8295  0.3415
   78SLPC  H13C 7079   2.794   5.328   6.462 -0.8290  1.4829 -1.0611
   78SLPC   C14 7080   2.936   5.116   6.503  0.4020 -0.9779  0.5479
   78SLPC  H14A 7081   2.875   5.072   6.580  1.6713  1.5475  3.1952
   78SLPC  H14B 7082   3.023   5.054   6.487  0.3094 -0.8163 -0.6714
   78SLPC  H14C 7083   2.965   5.215   6.535 -1.1446 -0.4990  0.5365
   78SLPC   C15 7084   2.930   5.217   6.264 -0.5097 -0.4662 -0.1173
   78SLPC  H15A 7085   3.004   5.157   6.213  0.3099  0.2205  0.2447
   78SLPC  H15B 7086   2.859   5.232   6.184  1.0541 -0.1401 -1.4950
   78SLPC  H15C 7087   2.971   5.315   6.283 -0.0422  0.0381 -3.2657
   78SLPC   C12 7088   2.805   5.007   6.323 -0.1018 -0.3743 -0.6633
   78SLPC  H12A 7089   2.708   5.030   6.283 -0.0201  0.9116 -0.1942
   78SLPC  H12B 7090   2.775   4.954   6.412  0.5105  0.5168  0.1012
   78SLPC   C11 7091   2.895   4.923   6.235 -0.0307  0.1124 -0.2162
   78SLPC  H11A 7092   2.940   4.983   6.153 -0.3678  1.7878  0.7712
   78SLPC  H11B 7093   2.827   4.847   6.191  1.7525 -0.9038 -1.3591
   78SLPC     P 7094   2.980   4.739   6.396  0.3371 -0.0673  0.0938
   78SLPC   O13 7095   3.087   4.721   6.495  0.3045  0.6155 -0.3695
   78SLPC   O14 7096   2.841   4.739   6.446  0.0110  0.1265 -0.1168
   78SLPC   O12 7097   2.999   4.875   6.318 -0.8837  0.1338 -0.3288
   78SLPC   O11 7098   2.991   4.634   6.282 -0.1794  0.3964  0.5741
   78SLPC    C1 7099   3.120   4.610   6.227 -0.1884 -0.4341 -0.5602
   78SLPC    HA 7100   3.190   4.693   6.252 -1.3572  1.3144 -2.8097
   78SLPC    HB 7101   3.172   4.527   6.279 -0.2586  0.0367  0.2738
   78SLPC    C2 7102   3.106   4.568   6.075 -0.3025  0.1473  0.2766
   78SLPC    HS 7103   3.207   4.550   6.032 -0.0339  1.8622  0.1040
   78SLPC   O21 7104   3.029   4.659   5.991 -0.2352  0.6964 -0.1715
   78SLPC   C21 7105   3.101   4.765   5.959  0.5798  0.0530  0.1712
   78SLPC   O22 7106   3.214   4.788   5.995  0.6551 -0.5541 -1.1248
   78SLPC   C22 7107   3.019   4.860   5.871  0.4443  0.2480  0.5201
   78SLPC   H2R 7108   2.935   4.797   5.834  1.9885 -0.7143 -1.6150
   78SLPC   H2S 7109   2.975   4.948   5.923  0.3132 -0.4546  1.6272
   78SLPC    C3 7110   3.032   4.430   6.055  0.5076 -0.5433  0.3954
   78SLPC    HX 7111   2.926   4.461   6.073 -0.6080 -3.7748  0.1160
   78SLPC    HY 7112   3.061   4.352   6.128 -1.0436 -1.7715 -0.2286
   78SLPC   O31 7113   3.054   4.367   5.926  0.2775  0.7276  0.4127
   78SLPC   C31 7114   2.958   4.278   5.894 -0.3939  0.5551 -0.3956
   78SLPC   O32 7115   2.866   4.243   5.969  0.5734 -0.1694  0.1404
   78SLPC   C32 7116   2.981   4.217   5.747  0.2590  0.9855 -0.3128
   78SLPC   H2X 7117   3.035   4.120   5.762 -0.5289  0.6557  0.4776
   78SLPC   H2Y 7118   3.044   4.292   5.695  2.2484 -0.7577 -0.5789
   78SLPC   C23 7119   3.101   4.907   5.742 -0.6134  0.1626  0.0199
   78SLPC   H3R 7120   3.158   4.816   5.711  0.2677 -0.1048  2.2286
   78SLPC   H3S 7121   3.171   4.986   5.774 -1.3455  0.6104  0.5526
   78SLPC   C24 7122   3.010   4.960   5.626 -0.2873 -0.2417 -0.0407
   78SLPC   H4R 7123   2.975   5.060   5.659  0.5738  0.2494 -0.5490
   78SLPC   H4S 7124   2.928   4.887   5.610 -2.0591  1.3066  1.4815
   78SLPC   C25 7125   3.079   4.977   5.492  0.5132  0.0580  0.0648
   78SLPC   H5R 7126   3.129   4.880   5.468  0.9941 -0.0026  1.2505
   78SLPC   H5S 7127   3.169   5.041   5.499  1.5245 -0.8217 -3.1344
   78SLPC   C26 7128   2.983   5.021   5.389 -0.3703 -0.4692 -0.6095
   78SLPC   H6R 7129   2.954   5.126   5.412 -0.0950 -0.8074  1.3976
   78SLPC   H6S 7130   2.891   4.960   5.392 -0.2863 -0.6000 -0.7124
   78SLPC   C27 7131   3.022   5.022   5.242  0.4906  0.4659 -0.1583
   78SLPC   H7R 7132   3.044   4.917   5.213 -2.1427  0.6552 -3.3824
   78SLPC   H7S 7133   3.113   5.085   5.230  0.2138  0.6015 -1.9164
   78SLPC   C28 7134   2.912   5.067   5.143 -0.1643 -0.4840 -0.1991
   78SLPC   H8R 7135   2.886   5.173   5.165  2.5969  0.5001 -1.2996
   78SLPC   H8S 7136   2.813   5.017   5.135 -0.2017 -0.4304 -0.0832
   78SLPC   C29 7137   2.962   5.068   5.001  0.6007  0.9810 -0.5890
   78SLPC   H9R 7138   2.995   5.168   4.970 -2.1297  2.2806  0.3506
   78SLPC  C210 7139   2.984   4.969   4.918  0.1929 -0.0254  0.4284
   78SLPC  H10R 7140   3.017   4.993   4.816  0.7957 -0.6778  0.4623
   78SLPC  C211 7141   2.982   4.829   4.951 -0.3553  1.3659 -0.5859
   78SLPC  H11R 7142   2.924   4.780   4.870 -0.2725  1.2688 -0.5860
   78SLPC  H11S 7143   2.918   4.802   5.038  1.3305 -0.6054  0.1301
   78SLPC  C212 7144   3.118   4.767   4.956  0.8590 -0.3207 -0.4030
   78SLPC  H12R 7145   3.199   4.828   4.914  0.4779  1.2130  1.0011
   78SLPC  C213 7146   3.140   4.641   5.001  0.0904  0.2389  0.2023
   78SLPC  H13R 7147   3.243   4.602   4.996  0.6837  1.7793 -0.1841
   78SLPC  C214 7148   3.035   4.552   5.062 -0.1128  1.5342 -0.9554
   78SLPC  H14R 7149   3.023   4.454   5.010 -0.9197 -0.4127  2.6196
   78SLPC  H14S 7150   2.934   4.599   5.069 -0.2236  1.1607  0.1113
   78SLPC  C215 7151   3.059   4.489   5.206 -0.6392 -0.4905  0.1914
   78SLPC  H15R 7152   3.151   4.427   5.211 -0.8213 -0.9696 -1.5568
   78SLPC  H15S 7153   2.985   4.406   5.211 -2.8491  1.4050  0.2507
   78SLPC  C216 7154   3.050   4.605   5.305  0.0153  0.8342 -0.1297
   78SLPC  H16R 7155   2.963   4.673   5.293  0.7399  2.2338  1.9557
   78SLPC  H16S 7156   3.143   4.665   5.307 -0.9068  2.2928  1.6703
   78SLPC  C217 7157   3.038   4.553   5.449 -0.2581  0.4718  0.2018
   78SLPC  H17R 7158   2.962   4.473   5.459 -0.1010  0.3281  0.2674
   78SLPC  H17S 7159   3.007   4.642   5.508  0.5899 -0.6050  2.4069
   78SLPC  C218 7160   3.172   4.502   5.517 -0.3417  0.1346  0.2946
   78SLPC  H18R 7161   3.223   4.415   5.471  2.3854  0.1671  2.9131
   78SLPC  H18S 7162   3.145   4.478   5.622  2.0717  0.0818  0.9676
   78SLPC  H18T 7163   3.253   4.577   5.529  0.5705 -0.8833  0.6137
   78SLPC   C33 7164   2.844   4.188   5.674 -0.2960 -0.0645 -0.3910
   78SLPC   H3X 7165   2.804   4.284   5.635 -0.1018 -0.4944 -1.6916
   78SLPC   H3Y 7166   2.778   4.129   5.742 -0.5595 -1.9213 -2.1517
   78SLPC   C34 7167   2.867   4.102   5.554  0.2342 -0.4543 -0.3553
   78SLPC   H4X 7168   2.863   3.997   5.588 -2.9787 -0.6100 -0.8991
   78SLPC   H4Y 7169   2.962   4.125   5.501 -0.6243 -0.8479 -2.1468
   78SLPC   C35 7170   2.758   4.118   5.443 -0.4748  0.1450 -0.7342
   78SLPC   H5X 7171   2.661   4.142   5.491 -0.8863 -1.3958 -0.7403
   78SLPC   H5Y 7172   2.741   4.020   5.394  3.6850 -0.1807 -1.9485
   78SLPC   C36 7173   2.792   4.223   5.340  0.4214 -0.2451 -0.0733
   78SLPC   H6X 7174   2.890   4.188   5.302 -1.0577 -3.1925 -1.5490
   78SLPC   H6Y 7175   2.791   4.327   5.379 -0.0312  0.1579 -1.1076
   78SLPC   C37 7176   2.692   4.236   5.224 -0.2456  0.0144 -0.5477
   78SLPC   H7X 7177   2.603   4.291   5.263  0.1788 -0.1813  0.7561
   78SLPC   H7Y 7178   2.662   4.133   5.195  3.6994 -1.1638 -0.9515
   78SLPC   C38 7179   2.753   4.293   5.095 -0.0487 -0.0495 -0.4761
   78SLPC   H8X 7180   2.842   4.238   5.058 -0.7296 -1.8686  0.4655
   78SLPC   H8Y 7181   2.778   4.399   5.118 -0.3438 -0.1187  0.2078
   78SLPC   C39 7182   2.651   4.306   4.980  0.5162  0.4272  0.3300
   78SLPC   H9X 7183   2.560   4.357   5.017 -0.4633 -1.4993  0.6941
   78SLPC   H9Y 7184   2.624   4.207   4.936 -5.3734  1.9994 -0.4219
   78SLPC  C310 7185   2.705   4.392   4.859 -0.6725  0.5126 -0.3087
   78SLPC  H10X 7186   2.790   4.339   4.811 -0.8038 -0.9448  1.0006
   78SLPC  H10Y 7187   2.743   4.493   4.888  1.4244 -0.2209 -0.3647
   78SLPC  C311 7188   2.594   4.410   4.750 -0.6306 -0.1063 -0.0799
   78SLPC  H11X 7189   2.499   4.439   4.799 -0.2853 -0.2223  0.6736
   78SLPC  H11Y 7190   2.582   4.309   4.706  0.2201 -0.1916 -0.1373
   78SLPC  C312 7191   2.642   4.502   4.637  0.0218  0.5376 -0.0766
   78SLPC  H12X 7192   2.737   4.467   4.592  0.9485 -0.4342  2.4467
   78SLPC  H12Y 7193   2.668   4.600   4.681  0.0651  0.6233 -0.2952
   78SLPC  C313 7194   2.532   4.515   4.526  0.0943 -0.9350  0.9266
   78SLPC  H13X 7195   2.436   4.543   4.575  0.7973 -0.3170  1.9824
   78SLPC  H13Y 7196   2.517   4.420   4.469  0.3956  0.4298 -1.5336
   78SLPC  C314 7197   2.572   4.618   4.418  0.0493 -0.1503  0.6092
   78SLPC  H14X 7198   2.670   4.594   4.371 -0.8276  0.4209 -1.6452
   78SLPC  H14Y 7199   2.588   4.712   4.474  0.0909 -0.6908  1.5121
   78SLPC  C315 7200   2.457   4.628   4.314  0.1655  0.4429  0.5019
   78SLPC  H15X 7201   2.371   4.673   4.367  1.0759  1.2329  1.3362
   78SLPC  H15Y 7202   2.417   4.528   4.286 -0.2610  0.5736  0.6378
   78SLPC  C316 7203   2.482   4.697   4.176  0.0364  0.5507 -0.1574
   78SLPC  H16X 7204   2.570   4.661   4.118 -0.7047 -0.9418 -0.3971
   78SLPC  H16Y 7205   2.506   4.804   4.198  3.9910 -0.3231  0.5371
   78SLPC  C317 7206   2.353   4.673   4.099 -0.2032  0.0308  0.6736
   78SLPC  H17X 7207   2.270   4.698   4.169 -1.5169  0.4764 -0.9697
   78SLPC  H17Y 7208   2.357   4.569   4.060 -0.1564  0.5751 -0.8417
   78SLPC  C318 7209   2.346   4.764   3.969  0.1274 -0.5461  0.2595
   78SLPC  H18X 7210   2.435   4.756   3.903 -0.4662  0.3925 -0.6936
   78SLPC  H18Y 7211   2.335   4.872   3.991 -0.6695 -0.3540 -0.9532
   78SLPC  H18Z 7212   2.254   4.733   3.915 -0.0236  1.8197 -0.9493
   79SLPC     N 7213   4.417   2.302   6.702 -0.0080 -0.2318 -0.3749
   79SLPC   C13 7214   4.269   2.263   6.691 -1.1291 -0.4746 -0.3836
   79SLPC  H13A 7215   4.261   2.155   6.693 -1.9602 -0.4091  1.0952
   79SLPC  H13B 7216   4.210   2.302   6.772 -0.2946 -0.9870  0.4860
   79SLPC  H13C 7217   4.219   2.286   6.598  0.9424 -0.5033 -1.5585
   79SLPC   C14 7218   4.477   2.240   6.581 -0.5618  0.1032 -0.1679
   79SLPC  H14A 7219   4.431   2.266   6.486 -2.2780  0.1625  0.6319
   79SLPC  H14B 7220   4.580   2.269   6.566 -0.6564  1.3737  1.3299
   79SLPC  H14C 7221   4.471   2.133   6.592 -1.8198  0.1513 -0.2522
   79SLPC   C15 7222   4.492   2.251   6.822  0.2956 -0.4758  0.1788
   79SLPC  H15A 7223   4.591   2.294   6.812 -0.1275  0.3381 -0.6909
   79SLPC  H15B 7224   4.440   2.271   6.914 -2.1658 -1.8859 -0.7899
   79SLPC  H15C 7225   4.490   2.143   6.826 -1.7210 -0.5597 -1.2371
   79SLPC   C12 7226   4.430   2.455   6.690 -0.5993 -0.0490  0.1540
   79SLPC  H12A 7227   4.364   2.500   6.762 -1.2379 -0.2580 -0.2954
   79SLPC  H12B 7228   4.395   2.474   6.589 -0.3921 -1.4290 -0.1970
   79SLPC   C11 7229   4.574   2.504   6.700 -0.3416 -0.1774  0.0800
   79SLPC  H11A 7230   4.615   2.462   6.794 -1.4921 -0.5208  0.4473
   79SLPC  H11B 7231   4.563   2.615   6.709 -1.1184 -0.2792  0.4896
   79SLPC     P 7232   4.802   2.545   6.589  0.5595  0.1107 -0.2147
   79SLPC   O13 7233   4.840   2.562   6.730 -0.0365 -0.6568 -0.0237
   79SLPC   O14 7234   4.890   2.475   6.497 -0.2017  0.0726 -0.1088
   79SLPC   O12 7235   4.652   2.469   6.583 -0.1066 -0.5974 -0.0398
   79SLPC   O11 7236   4.768   2.678   6.518 -0.3945 -0.8830 -0.0286
   79SLPC    C1 7237   4.684   2.707   6.405  0.1201  0.0268 -0.3765
   79SLPC    HA 7238   4.610   2.630   6.375 -1.3606  1.2904 -0.0471
   79SLPC    HB 7239   4.612   2.784   6.439  1.4621  0.5724  1.3704
   79SLPC    C2 7240   4.762   2.754   6.286 -0.0142  0.1787 -0.0062
   79SLPC    HS 7241   4.690   2.779   6.206 -0.1332  0.6848  0.2522
   79SLPC   O21 7242   4.868   2.663   6.243  0.2302  0.5260  0.1151
   79SLPC   C21 7243   4.821   2.555   6.192  1.0985  0.6868 -0.0729
   79SLPC   O22 7244   4.704   2.531   6.172 -0.0994  0.8202 -0.1243
   79SLPC   C22 7245   4.938   2.463   6.163 -0.4404 -0.2861  0.0045
   79SLPC   H2R 7246   5.025   2.527   6.139  0.7194 -1.9844 -0.5273
   79SLPC   H2S 7247   4.962   2.427   6.266 -0.2218 -0.9727 -0.2798
   79SLPC    C3 7248   4.822   2.894   6.328 -0.2504  0.4763 -0.2924
   79SLPC    HX 7249   4.915   2.867   6.382 -1.0528 -1.3878  0.2415
   79SLPC    HY 7250   4.745   2.938   6.395 -0.2885 -1.9390  1.3705
   79SLPC   O31 7251   4.853   2.967   6.208 -0.1661  0.2768  0.0746
   79SLPC   C31 7252   4.823   3.099   6.209  0.0523 -0.0216  0.1680
   79SLPC   O32 7253   4.800   3.163   6.308  0.1735 -0.5152  0.0417
   79SLPC   C32 7254   4.833   3.155   6.072 -0.3658 -0.2853 -0.2181
   79SLPC   H2X 7255   4.727   3.181   6.049 -0.4766 -1.9881 -1.8672
   79SLPC   H2Y 7256   4.850   3.074   5.997  2.3699 -2.4570  2.5088
   79SLPC   C23 7257   4.905   2.359   6.062  0.7464  0.1941  0.2741
   79SLPC   H3R 7258   4.809   2.311   6.092  0.7833  1.2229  2.2002
   79SLPC   H3S 7259   4.991   2.295   6.035  0.0036 -0.8228  0.2591
   79SLPC   C24 7260   4.906   2.425   5.917  0.2821 -0.4701  0.2693
   79SLPC   H4R 7261   4.997   2.485   5.898 -0.2317 -0.1194 -1.1971
   79SLPC   H4S 7262   4.820   2.495   5.918  1.2679  0.7918 -0.8275
   79SLPC   C25 7263   4.879   2.332   5.799  0.6759  1.1657 -1.0165
   79SLPC   H5R 7264   4.783   2.276   5.803  1.1007  0.3769 -1.4238
   79SLPC   H5S 7265   4.956   2.252   5.807 -1.5772 -0.9906  0.6226
   79SLPC   C26 7266   4.860   2.411   5.668 -0.0222  0.2714  0.3212
   79SLPC   H6R 7267   4.889   2.344   5.584  1.7898  0.8580  0.4498
   79SLPC   H6S 7268   4.931   2.495   5.663 -0.1255  0.3222 -3.1570
   79SLPC   C27 7269   4.717   2.454   5.639  0.1283 -0.1866 -0.5290
   79SLPC   H7R 7270   4.677   2.508   5.727  1.8117  0.3464 -0.0539
   79SLPC   H7S 7271   4.655   2.362   5.631 -0.6659  0.3689 -0.8119
   79SLPC   C28 7272   4.696   2.545   5.516  0.0037 -0.3446 -0.6194
   79SLPC   H8R 7273   4.756   2.639   5.519  0.4592 -0.6392  1.5852
   79SLPC   H8S 7274   4.591   2.581   5.524  0.4604  0.7120  1.3826
   79SLPC   C29 7275   4.727   2.478   5.383  0.1809  0.0435 -0.3587
   79SLPC   H9R 7276   4.827   2.433   5.374 -0.1186 -0.9831  1.0792
   79SLPC  C210 7277   4.645   2.475   5.283  0.3436 -0.4392 -0.4980
   79SLPC  H10R 7278   4.675   2.423   5.191 -0.0964 -0.9593 -0.3509
   79SLPC  C211 7279   4.509   2.538   5.282  0.1047 -0.8269 -0.1094
   79SLPC  H11R 7280   4.457   2.522   5.379 -0.8880 -1.3696 -0.7063
   79SLPC  H11S 7281   4.443   2.499   5.202 -0.3704  1.1657 -0.7679
   79SLPC  C212 7282   4.500   2.688   5.263  0.3828 -0.1580  0.2541
   79SLPC  H12R 7283   4.515   2.747   5.355  1.9307 -1.5700  0.9377
   79SLPC  C213 7284   4.504   2.756   5.141 -0.0177 -0.0277 -0.5306
   79SLPC  H13R 7285   4.517   2.865   5.135  0.5719 -0.1593 -2.1467
   79SLPC  C214 7286   4.509   2.690   5.013  1.2870  0.5312  0.4864
   79SLPC  H14R 7287   4.527   2.580   5.009 -0.7215  0.1526  0.7938
   79SLPC  H14S 7288   4.595   2.732   4.958  1.7854  0.2067  1.0113
   79SLPC  C215 7289   4.386   2.726   4.930 -0.5631 -0.3139 -0.5629
   79SLPC  H15R 7290   4.367   2.834   4.944  3.7529  0.7409 -1.4331
   79SLPC  H15S 7291   4.300   2.668   4.969 -0.5645 -0.9775 -1.4918
   79SLPC  C216 7292   4.403   2.707   4.778 -0.5385  0.4426  0.2066
   79SLPC  H16R 7293   4.431   2.600   4.779 -0.9886  0.3221  0.4600
   79SLPC  H16S 7294   4.482   2.772   4.737 -1.9697  2.0040 -0.1919
   79SLPC  C217 7295   4.275   2.739   4.704 -0.0188 -0.2956  0.8648
   79SLPC  H17R 7296   4.231   2.838   4.729 -1.1306 -0.8845  1.3083
   79SLPC  H17S 7297   4.207   2.651   4.713  0.6079 -0.8212  0.5721
   79SLPC  C218 7298   4.304   2.733   4.554  0.7000  0.0038 -0.3994
   79SLPC  H18R 7299   4.354   2.635   4.534  0.1689 -0.4539  0.4279
   79SLPC  H18S 7300   4.385   2.805   4.530  1.9631 -1.4542 -0.6677
   79SLPC  H18T 7301   4.218   2.757   4.489  0.6120 -1.3620 -0.8350
   79SLPC   C33 7302   4.925   3.275   6.058 -0.3027  0.2442  0.2187
   79SLPC   H3X 7303   5.020   3.227   6.026 -0.2976 -0.7074  1.5717
   79SLPC   H3Y 7304   4.947   3.321   6.156 -1.3331  3.3659 -0.9011
   79SLPC   C34 7305   4.877   3.394   5.965 -0.1288  0.1975  0.0660
   79SLPC   H4X 7306   4.936   3.488   5.964 -0.6897  0.6601  2.7693
   79SLPC   H4Y 7307   4.770   3.413   5.985 -0.4794  1.5903 -2.6350
   79SLPC   C35 7308   4.876   3.355   5.820  0.0392  0.3656  0.4163
   79SLPC   H5X 7309   4.833   3.441   5.764 -0.5854 -1.5052 -2.1670
   79SLPC   H5Y 7310   4.805   3.274   5.794 -0.9452  0.3629  2.8522
   79SLPC   C36 7311   5.014   3.319   5.757 -0.9623  0.2296 -0.8149
   79SLPC   H6X 7312   4.991   3.288   5.653 -0.0128  0.2241 -1.0328
   79SLPC   H6Y 7313   5.052   3.233   5.816  0.8034  2.3445  1.3407
   79SLPC   C37 7314   5.103   3.445   5.758  0.0123 -0.3070  0.3467
   79SLPC   H7X 7315   5.153   3.480   5.851 -0.9582  3.1538 -0.2849
   79SLPC   H7Y 7316   5.040   3.530   5.723  0.3270  0.0039  0.5330
   79SLPC   C38 7317   5.217   3.420   5.655 -0.4424 -0.7720  0.1502
   79SLPC   H8X 7318   5.245   3.318   5.690 -0.0226 -0.9358 -0.6325
   79SLPC   H8Y 7319   5.308   3.480   5.678 -1.1013 -0.4399  2.0379
   79SLPC   C39 7320   5.171   3.420   5.508 -0.0533  0.3355 -0.1033
   79SLPC   H9X 7321   5.121   3.517   5.487  1.0533  0.5728 -1.7890
   79SLPC   H9Y 7322   5.105   3.337   5.475 -1.0478  0.1842  2.0519
   79SLPC  C310 7323   5.292   3.433   5.424 -0.0875 -0.1835  0.4103
   79SLPC  H10X 7324   5.346   3.336   5.425  1.1186  0.4640  1.1572
   79SLPC  H10Y 7325   5.346   3.523   5.460  0.0774 -0.1446  0.0656
   79SLPC  C311 7326   5.256   3.475   5.281 -0.1166 -0.1736  0.0783
   79SLPC  H11X 7327   5.192   3.565   5.275  0.6623  0.6190  2.5292
   79SLPC  H11Y 7328   5.202   3.399   5.220  0.8984 -0.9950  0.1773
   79SLPC  C312 7329   5.387   3.500   5.194  0.4631 -0.2132 -0.1878
   79SLPC  H12X 7330   5.451   3.412   5.219 -0.5687 -0.2760  2.6473
   79SLPC  H12Y 7331   5.437   3.592   5.232 -2.3846  1.4044 -0.1201
   79SLPC  C313 7332   5.353   3.506   5.045 -0.5130  1.1337 -0.2732
   79SLPC  H13X 7333   5.314   3.406   5.015  1.3307  0.8852 -2.0693
   79SLPC  H13Y 7334   5.446   3.518   4.984 -0.6583 -0.5633 -0.9042
   79SLPC  C314 7335   5.250   3.609   5.004  0.3684 -0.0871  0.3193
   79SLPC  H14X 7336   5.280   3.696   5.066  0.3914  0.3069 -0.2312
   79SLPC  H14Y 7337   5.153   3.562   5.033  0.5670  0.0508  1.2313
   79SLPC  C315 7338   5.246   3.640   4.848  0.4834 -0.5745  0.1345
   79SLPC  H15X 7339   5.257   3.553   4.779 -2.3330  0.6040 -2.0300
   79SLPC  H15Y 7340   5.333   3.705   4.824 -0.2903  0.6102  0.4440
   79SLPC  C316 7341   5.124   3.720   4.798  0.5781 -0.7638 -0.3326
   79SLPC  H16X 7342   5.127   3.816   4.853 -0.6187 -1.1881  0.5011
   79SLPC  H16Y 7343   5.039   3.664   4.841  1.3703 -0.9383  1.0823
   79SLPC  C317 7344   5.102   3.718   4.645 -0.2351  0.6084  0.3387
   79SLPC  H17X 7345   4.997   3.754   4.633 -0.7810 -1.3485 -1.2340
   79SLPC  H17Y 7346   5.104   3.614   4.607 -2.1005  1.0218 -1.0545
   79SLPC  C318 7347   5.205   3.812   4.573  0.6921  0.0722  0.5346
   79SLPC  H18X 7348   5.183   3.798   4.465  2.9604 -0.7923  0.1266
   79SLPC  H18Y 7349   5.312   3.786   4.586  1.0816  0.5914 -1.3744
   79SLPC  H18Z 7350   5.186   3.913   4.615 -0.2481 -0.2169  0.8275
   80SLPC     N 7351   6.015   5.235   6.647  0.0835  0.1975  0.1691
   80SLPC   C13 7352   6.124   5.183   6.728  0.1476  0.0691 -0.2326
   80SLPC  H13A 7353   6.164   5.086   6.700 -1.9236 -1.0986  0.6082
   80SLPC  H13B 7354   6.199   5.259   6.738  0.1176  0.3301 -1.7447
   80SLPC  H13C 7355   6.085   5.178   6.828  0.7750 -0.5020 -0.0078
   80SLPC   C14 7356   5.974   5.360   6.701  0.7697  0.0069  0.2175
   80SLPC  H14A 7357   6.058   5.426   6.715  1.3045  0.1987 -3.1885
   80SLPC  H14B 7358   5.890   5.407   6.651  1.4242  0.0214 -0.9044
   80SLPC  H14C 7359   5.932   5.349   6.800 -0.5840  1.9501 -0.0762
   80SLPC   C15 7360   5.912   5.127   6.643 -0.7569  0.2117 -0.6457
   80SLPC  H15A 7361   5.878   5.098   6.741  0.0730 -0.8643 -0.6495
   80SLPC  H15B 7362   5.823   5.163   6.593 -0.6190  1.3427 -0.1018
   80SLPC  H15C 7363   5.952   5.039   6.593  0.8562 -1.3194  2.9752
   80SLPC   C12 7364   6.055   5.266   6.500 -0.5592  0.0467  0.6299
   80SLPC  H12A 7365   6.117   5.355   6.497  0.3528 -0.6051 -1.8360
   80SLPC  H12B 7366   5.968   5.295   6.445  0.7692  2.5785 -0.3152
   80SLPC   C11 7367   6.130   5.153   6.421  0.1844 -0.3559  0.5866
   80SLPC  H11A 7368   6.220   5.113   6.472  1.1286 -1.6595 -1.9193
   80SLPC  H11B 7369   6.169   5.194   6.325  0.3515  0.1401  0.8604
   80SLPC     P 7370   5.925   5.041   6.289  0.1272  0.0229  0.3426
   80SLPC   O13 7371   5.834   4.921   6.325 -0.7814 -0.9237  0.4211
   80SLPC   O14 7372   5.861   5.174   6.283 -0.3586 -0.4550 -0.3030
   80SLPC   O12 7373   6.044   5.043   6.401 -0.1651 -0.6314  0.1591
   80SLPC   O11 7374   5.998   5.017   6.153 -0.2870 -0.7434  0.4460
   80SLPC    C1 7375   6.061   4.887   6.142  0.8129 -0.5054  0.2118
   80SLPC    HA 7376   6.132   4.862   6.223  1.3592 -0.2051 -0.1724
   80SLPC    HB 7377   5.985   4.806   6.146  0.1158  0.0576 -0.9957
   80SLPC    C2 7378   6.133   4.870   6.007 -0.3520  0.3443 -0.2988
   80SLPC    HS 7379   6.188   4.962   5.978  1.3605 -0.2327  0.9468
   80SLPC   O21 7380   6.029   4.841   5.911  0.8558 -0.1544 -0.0377
   80SLPC   C21 7381   6.000   4.936   5.824 -0.0558 -0.9906 -0.4218
   80SLPC   O22 7382   6.051   5.051   5.828  0.3551 -0.1832  0.0377
   80SLPC   C22 7383   5.900   4.888   5.720 -0.3040 -0.1044 -1.0328
   80SLPC   H2R 7384   5.898   4.780   5.694  1.9649  0.1045 -2.3316
   80SLPC   H2S 7385   5.804   4.907   5.774  0.4797  1.0882 -0.0140
   80SLPC    C3 7386   6.240   4.753   5.994 -0.5106  0.7034 -0.3532
   80SLPC    HX 7387   6.178   4.663   6.015 -1.9274  1.7948  0.3309
   80SLPC    HY 7388   6.322   4.782   6.063 -0.8512 -1.1743  0.9258
   80SLPC   O31 7389   6.289   4.737   5.861  0.2212  0.0712  0.2177
   80SLPC   C31 7390   6.390   4.802   5.812 -0.3405  0.5627  0.0290
   80SLPC   O32 7391   6.451   4.895   5.867 -0.0256 -0.2507  0.5039
   80SLPC   C32 7392   6.432   4.736   5.684 -0.0601  0.0551  0.7789
   80SLPC   H2X 7393   6.395   4.631   5.679 -1.7287  0.6528 -2.2988
   80SLPC   H2Y 7394   6.543   4.740   5.682 -0.1002  2.0475  0.1061
   80SLPC   C23 7395   5.889   4.981   5.590  0.0843  0.3340 -0.2400
   80SLPC   H3R 7396   5.857   5.082   5.623  1.1201  0.7429 -0.4402
   80SLPC   H3S 7397   5.797   4.947   5.539 -0.6574  4.8993 -2.4584
   80SLPC   C24 7398   6.014   4.970   5.502  0.9901 -0.6651  0.3171
   80SLPC   H4R 7399   6.045   4.869   5.467  1.3880 -0.4941  0.1678
   80SLPC   H4S 7400   6.097   5.007   5.566  0.8312 -1.8762  1.2656
   80SLPC   C25 7401   6.003   5.073   5.389 -0.0297 -0.0485 -0.1404
   80SLPC   H5R 7402   6.103   5.117   5.371  1.0599 -1.5193  1.9044
   80SLPC   H5S 7403   5.946   5.163   5.424  1.8139  0.5818  1.3880
   80SLPC   C26 7404   5.936   5.042   5.257  0.4406  0.2902 -0.4801
   80SLPC   H6R 7405   5.828   5.025   5.277  1.1052 -3.6103  0.5703
   80SLPC   H6S 7406   5.964   4.939   5.225 -0.4775  0.0593 -0.5614
   80SLPC   C27 7407   5.955   5.159   5.159  0.3401  0.4569 -0.3113
   80SLPC   H7R 7408   6.064   5.152   5.141  0.4388 -0.1642  0.4815
   80SLPC   H7S 7409   5.937   5.261   5.201  0.3682  1.3295 -2.2926
   80SLPC   C28 7410   5.886   5.135   5.030  0.4229 -0.3397  1.0486
   80SLPC   H8R 7411   5.898   5.029   4.997 -2.4836 -0.5981  0.5286
   80SLPC   H8S 7412   5.937   5.204   4.960 -3.8016  1.1235 -0.9715
   80SLPC   C29 7413   5.744   5.174   5.034  0.5812 -0.5377  0.3276
   80SLPC   H9R 7414   5.727   5.240   5.120  1.5166 -0.7680  0.6959
   80SLPC  C210 7415   5.642   5.122   4.966  0.0158  0.9424  0.2325
   80SLPC  H10R 7416   5.538   5.153   4.981 -0.3544 -0.4470  0.6417
   80SLPC  C211 7417   5.657   5.022   4.853  0.2865 -0.0398  0.1281
   80SLPC  H11R 7418   5.740   4.949   4.863 -0.3864 -1.2004 -2.1420
   80SLPC  H11S 7419   5.694   5.067   4.759 -0.1668 -0.0452 -0.0572
   80SLPC  C212 7420   5.531   4.947   4.816  0.4747 -0.0029  0.6359
   80SLPC  H12R 7421   5.486   4.885   4.895 -0.7352  2.1871  1.7786
   80SLPC  C213 7422   5.452   4.948   4.703 -0.1563 -0.7952  0.2228
   80SLPC  H13R 7423   5.354   4.898   4.698 -0.1778 -0.7474  0.1582
   80SLPC  C214 7424   5.483   5.031   4.578 -0.4238 -0.0283 -0.0736
   80SLPC  H14R 7425   5.571   5.098   4.578 -0.5122  0.0980  1.0788
   80SLPC  H14S 7426   5.388   5.088   4.566 -1.0458 -1.0654 -0.2728
   80SLPC  C215 7427   5.508   4.921   4.470  0.5400 -0.8949  0.8341
   80SLPC  H15R 7428   5.415   4.866   4.440 -0.5089  1.3168 -0.1851
   80SLPC  H15S 7429   5.577   4.843   4.509  2.0021 -0.2716 -0.4132
   80SLPC  C216 7430   5.566   4.987   4.342 -0.1243  0.3708  0.4418
   80SLPC  H16R 7431   5.580   4.913   4.260  1.6607  0.3529  0.7293
   80SLPC  H16S 7432   5.667   5.011   4.382  0.0212 -0.3085  0.4953
   80SLPC  C217 7433   5.489   5.108   4.288 -0.2056  0.9644  1.0792
   80SLPC  H17R 7434   5.544   5.145   4.200 -0.3393  0.5580  0.8217
   80SLPC  H17S 7435   5.502   5.191   4.362 -1.0718 -0.1769  2.5835
   80SLPC  C218 7436   5.334   5.095   4.255 -0.0745  0.4613 -0.1717
   80SLPC  H18R 7437   5.287   5.182   4.205  0.2530  0.3138 -0.7469
   80SLPC  H18S 7438   5.282   5.077   4.351  1.1129  0.1816  0.4336
   80SLPC  H18T 7439   5.306   5.005   4.196 -4.6144  1.1295  0.5921
   80SLPC   C33 7440   6.378   4.817   5.557 -0.0534  0.2274 -0.1306
   80SLPC   H3X 7441   6.269   4.837   5.570  0.2248  0.8885  1.3876
   80SLPC   H3Y 7442   6.396   4.765   5.460  2.5735  1.7883 -0.5560
   80SLPC   C34 7443   6.459   4.946   5.554  0.0257 -0.4874  0.2430
   80SLPC   H4X 7444   6.568   4.932   5.543  0.5110  1.3173  2.1391
   80SLPC   H4Y 7445   6.442   4.999   5.650 -5.2723 -0.1157 -0.5991
   80SLPC   C35 7446   6.411   5.045   5.449  0.3389  0.7052 -0.0630
   80SLPC   H5X 7447   6.472   5.137   5.453 -0.6593  1.3709  3.1069
   80SLPC   H5Y 7448   6.312   5.085   5.481 -0.1155  0.5700 -1.2466
   80SLPC   C36 7449   6.408   4.990   5.303 -0.4237 -0.9522 -1.1669
   80SLPC   H6X 7450   6.320   4.922   5.297 -1.5053  0.0337  1.6963
   80SLPC   H6Y 7451   6.495   4.922   5.289  0.0728 -1.2917  2.6103
   80SLPC   C37 7452   6.418   5.095   5.184 -0.4025 -0.0070 -0.6552
   80SLPC   H7X 7453   6.523   5.132   5.180  0.4835 -2.1719  1.0461
   80SLPC   H7Y 7454   6.355   5.183   5.210 -0.8975 -0.4025 -0.4914
   80SLPC   C38 7455   6.381   5.038   5.048  0.0979  0.0636 -0.1296
   80SLPC   H8X 7456   6.272   5.018   5.049 -0.1136  0.6784  3.3157
   80SLPC   H8Y 7457   6.433   4.941   5.034  1.5701  1.2001 -3.6504
   80SLPC   C39 7458   6.421   5.122   4.922 -0.1863  1.0815 -0.1335
   80SLPC   H9X 7459   6.531   5.136   4.919  0.2201 -1.0447 -5.1491
   80SLPC   H9Y 7460   6.373   5.222   4.908 -1.1359  0.3791 -2.2845
   80SLPC  C310 7461   6.396   5.039   4.787 -0.5582  0.5039  0.3646
   80SLPC  H10X 7462   6.465   4.951   4.787  1.2688  1.7697  3.7618
   80SLPC  H10Y 7463   6.432   5.112   4.712  0.8888 -1.1208 -0.6184
   80SLPC  C311 7464   6.255   5.001   4.762 -0.0677  0.2929  0.0248
   80SLPC  H11X 7465   6.195   4.968   4.850  1.0865  1.2318  1.2056
   80SLPC  H11Y 7466   6.244   4.922   4.684  0.9527  0.1486  0.0141
   80SLPC  C312 7467   6.183   5.124   4.707  0.3919 -0.2117  0.3651
   80SLPC  H12X 7468   6.236   5.180   4.626 -0.3945 -0.8306 -0.5922
   80SLPC  H12Y 7469   6.179   5.197   4.791  0.4302 -2.0595  2.0401
   80SLPC  C313 7470   6.031   5.106   4.669 -0.0565 -0.8424 -0.3392
   80SLPC  H13X 7471   5.981   5.205   4.675 -0.5629 -1.0810 -0.4926
   80SLPC  H13Y 7472   5.991   5.037   4.747 -2.4208 -0.0906 -0.7894
   80SLPC  C314 7473   6.007   5.042   4.533 -0.0237  0.5389  0.2128
   80SLPC  H14X 7474   6.099   5.070   4.477  0.6114  2.7723  2.1975
   80SLPC  H14Y 7475   5.920   5.088   4.481 -0.9269 -0.6733  0.6210
   80SLPC  C315 7476   5.987   4.891   4.552  0.1094  0.7965  0.4776
   80SLPC  H15X 7477   5.930   4.861   4.642  0.4363 -1.5094 -0.0294
   80SLPC  H15Y 7478   6.087   4.846   4.567 -0.7512 -1.9846 -1.2825
   80SLPC  C316 7479   5.948   4.827   4.418 -0.2330  0.2217  0.0866
   80SLPC  H16X 7480   6.032   4.842   4.346 -0.6269  0.3042 -0.3606
   80SLPC  H16Y 7481   5.855   4.861   4.368 -1.2824 -0.6007  1.4012
   80SLPC  C317 7482   5.927   4.680   4.447 -1.0667 -0.3279  0.1301
   80SLPC  H17X 7483   6.021   4.640   4.491  1.1795  2.4902 -1.7284
   80SLPC  H17Y 7484   5.916   4.628   4.350 -1.9606 -1.6964  0.9317
   80SLPC  C318 7485   5.812   4.640   4.530 -0.1274  0.4657 -0.3437
   80SLPC  H18X 7486   5.716   4.674   4.485  0.0425  0.0243 -1.0581
   80SLPC  H18Y 7487   5.829   4.654   4.639  1.7728 -2.3541 -0.1697
   80SLPC  H18Z 7488   5.813   4.529   4.523 -1.8951  0.2654  1.5234
   81SLPC     N 7489   5.112   4.081   1.853 -0.0323  0.8440  0.5907
   81SLPC   C13 7490   5.221   4.074   1.957  0.7532  0.1052 -0.4068
   81SLPC  H13A 7491   5.282   4.162   1.954  0.7771  0.0889 -0.3950
   81SLPC  H13B 7492   5.176   4.058   2.054  1.4527  0.7247  0.0204
   81SLPC  H13C 7493   5.278   3.987   1.927 -0.4754 -0.5145 -1.0217
   81SLPC   C14 7494   5.166   4.099   1.712  0.5038  0.4012 -0.5815
   81SLPC  H14A 7495   5.209   4.009   1.671  1.4788  1.9892 -3.2662
   81SLPC  H14B 7496   5.083   4.118   1.645 -0.8378 -2.3447  0.1150
   81SLPC  H14C 7497   5.232   4.183   1.707 -0.1111  1.0733  1.3956
   81SLPC   C15 7498   5.028   4.200   1.896  0.4722 -0.2675 -0.4121
   81SLPC  H15A 7499   4.952   4.213   1.820 -0.2962  1.6072  0.6199
   81SLPC  H15B 7500   4.981   4.183   1.992  0.5850  0.3406 -0.2467
   81SLPC  H15C 7501   5.090   4.288   1.909  1.6806 -0.9816 -1.1403
   81SLPC   C12 7502   5.031   3.948   1.852  0.6814 -0.3464 -0.0960
   81SLPC  H12A 7503   5.094   3.864   1.827 -0.1127 -1.2023  0.6817
   81SLPC  H12B 7504   4.963   3.950   1.768  0.1178  2.2580  0.3388
   81SLPC   C11 7505   4.953   3.911   1.985 -0.0594 -0.9795  0.1764
   81SLPC  H11A 7506   4.872   3.837   1.968  1.1194 -1.6091 -3.7209
   81SLPC  H11B 7507   4.901   4.005   2.015 -1.3277 -1.3778 -0.6871
   81SLPC     P 7508   5.094   3.729   2.085  0.1132  0.2642  0.3925
   81SLPC   O13 7509   5.135   3.676   1.953 -0.0908 -0.6035 -0.6421
   81SLPC   O14 7510   5.200   3.729   2.191 -0.4206  0.0745  0.0523
   81SLPC   O12 7511   5.045   3.877   2.081  0.5705 -0.1977 -0.1447
   81SLPC   O11 7512   4.970   3.647   2.150 -0.5816 -0.1824  0.8971
   81SLPC    C1 7513   4.881   3.698   2.250 -0.0883  0.1957  0.4310
   81SLPC    HA 7514   4.836   3.790   2.206  0.8025  1.3299  1.7883
   81SLPC    HB 7515   4.802   3.621   2.262  1.8605 -1.9211  0.1691
   81SLPC    C2 7516   4.938   3.727   2.392 -1.5862 -0.8482 -0.0657
   81SLPC    HS 7517   5.001   3.817   2.384  0.3364 -2.0334  1.0421
   81SLPC   O21 7518   5.018   3.608   2.434 -0.0824  0.4344  0.9621
   81SLPC   C21 7519   5.130   3.646   2.497 -0.2080  0.6006 -0.2535
   81SLPC   O22 7520   5.177   3.758   2.501 -0.5647 -0.0857  0.4957
   81SLPC   C22 7521   5.191   3.519   2.558  0.2532  0.1369 -0.3757
   81SLPC   H2R 7522   5.114   3.441   2.570  0.4901  0.0941  1.1466
   81SLPC   H2S 7523   5.265   3.482   2.484 -0.2666 -1.7528  0.0100
   81SLPC    C3 7524   4.828   3.767   2.493  0.0899  0.1799 -0.5112
   81SLPC    HX 7525   4.756   3.683   2.505  1.1377 -0.8933 -1.4468
   81SLPC    HY 7526   4.763   3.844   2.445  0.8667  0.4105 -1.2181
   81SLPC   O31 7527   4.888   3.797   2.618  0.3661 -0.1732 -0.2548
   81SLPC   C31 7528   4.920   3.932   2.626  0.2769  0.1903 -0.1754
   81SLPC   O32 7529   4.875   4.013   2.548 -0.2846 -0.6109  0.0930
   81SLPC   C32 7530   5.022   3.948   2.728 -0.3968 -0.3999  0.2457
   81SLPC   H2X 7531   5.119   3.962   2.675 -1.8699 -0.1168 -2.5948
   81SLPC   H2Y 7532   5.034   3.858   2.793  0.4844 -1.1580 -0.9120
   81SLPC   C23 7533   5.273   3.531   2.687  0.1723  0.4442 -1.1558
   81SLPC   H3R 7534   5.365   3.592   2.675  0.6933  0.5451  2.1748
   81SLPC   H3S 7535   5.312   3.429   2.707 -0.2590  0.5553  0.4127
   81SLPC   C24 7536   5.203   3.578   2.810 -0.4878 -0.2491 -0.5729
   81SLPC   H4R 7537   5.192   3.688   2.802 -0.1497 -0.1627  0.0769
   81SLPC   H4S 7538   5.264   3.564   2.902  1.3049  0.9049 -1.5171
   81SLPC   C25 7539   5.068   3.514   2.835 -0.7416  0.4016 -0.8111
   81SLPC   H5R 7540   5.096   3.407   2.848  0.0440  0.6821 -0.1095
   81SLPC   H5S 7541   5.002   3.530   2.747 -1.6545  1.1369 -0.0198
   81SLPC   C26 7542   5.000   3.563   2.962  0.1733  0.1351  0.2449
   81SLPC   H6R 7543   4.893   3.532   2.959 -0.5236  2.3585 -1.8341
   81SLPC   H6S 7544   4.995   3.673   2.946 -1.9699  0.2200  1.0824
   81SLPC   C27 7545   5.075   3.551   3.095  0.2465 -0.1351 -0.5703
   81SLPC   H7R 7546   5.023   3.604   3.177  1.1089  1.3741 -0.9543
   81SLPC   H7S 7547   5.172   3.604   3.083  1.5973 -2.3708 -0.0479
   81SLPC   C28 7548   5.118   3.405   3.136  0.1282 -0.2616 -0.0248
   81SLPC   H8R 7549   5.196   3.404   3.215 -0.9018 -3.3584  1.0808
   81SLPC   H8S 7550   5.177   3.368   3.049  1.3212  0.8312  0.2861
   81SLPC   C29 7551   5.008   3.324   3.194 -0.0601  0.2298 -0.2569
   81SLPC   H9R 7552   4.982   3.366   3.292 -1.2143  3.1275 -1.6773
   81SLPC  C210 7553   4.955   3.213   3.139 -0.2606 -0.3149 -0.7049
   81SLPC  H10R 7554   4.881   3.165   3.204 -0.0738  1.5182  0.9327
   81SLPC  C211 7555   4.996   3.140   3.015  0.5525 -0.2036 -0.0607
   81SLPC  H11R 7556   5.000   3.208   2.927 -1.3308  0.4663  0.3296
   81SLPC  H11S 7557   4.910   3.077   2.983 -0.9253  2.0711 -0.7734
   81SLPC  C212 7558   5.125   3.064   3.039 -0.1412 -0.0862 -0.2712
   81SLPC  H12R 7559   5.161   3.054   3.143  2.1717  1.6376 -0.8255
   81SLPC  C213 7560   5.213   3.008   2.948  0.7399  1.1774  0.2079
   81SLPC  H13R 7561   5.311   2.968   2.979  0.0244 -0.2121  0.7276
   81SLPC  C214 7562   5.188   3.006   2.797  0.1596  0.2154 -0.3773
   81SLPC  H14R 7563   5.082   3.022   2.768 -0.1884  0.7716  1.1200
   81SLPC  H14S 7564   5.219   2.906   2.758 -1.3362 -1.4892  2.4353
   81SLPC  C215 7565   5.285   3.103   2.722 -0.1521 -0.6099  0.8365
   81SLPC  H15R 7566   5.389   3.091   2.759 -0.6142 -1.3733  1.9317
   81SLPC  H15S 7567   5.271   3.211   2.744  0.2982 -0.5429  0.8013
   81SLPC  C216 7568   5.290   3.063   2.570 -0.1436 -0.2703 -0.0721
   81SLPC  H16R 7569   5.183   3.064   2.541 -0.1966  0.4065  0.1217
   81SLPC  H16S 7570   5.333   2.964   2.547  1.0409 -0.0425  1.0191
   81SLPC  C217 7571   5.375   3.156   2.481  0.4816 -0.1610  0.3430
   81SLPC  H17R 7572   5.329   3.257   2.477 -0.8394 -0.6563  1.9478
   81SLPC  H17S 7573   5.360   3.126   2.375 -1.6241 -0.2654  0.6112
   81SLPC  C218 7574   5.519   3.183   2.522  0.5442  0.5772 -0.0739
   81SLPC  H18R 7575   5.561   3.263   2.458 -1.5067  2.4934  0.8269
   81SLPC  H18S 7576   5.577   3.089   2.529 -1.9998 -1.2511 -1.7298
   81SLPC  H18T 7577   5.517   3.246   2.613 -0.7484 -3.7126  3.2195
   81SLPC   C33 7578   4.993   4.077   2.801 -0.5216  0.6069  1.2344
   81SLPC   H3X 7579   4.986   4.156   2.724 -0.3126 -1.1011 -0.6056
   81SLPC   H3Y 7580   5.084   4.109   2.857  3.6486 -4.5771 -1.7081
   81SLPC   C34 7581   4.881   4.070   2.904 -0.5659 -0.1112  0.7705
   81SLPC   H4X 7582   4.788   4.019   2.872 -0.0313 -0.5702 -0.0984
   81SLPC   H4Y 7583   4.847   4.175   2.917 -0.9859  0.6657 -4.4518
   81SLPC   C35 7584   4.920   3.995   3.027  0.0509  1.0801 -0.2299
   81SLPC   H5X 7585   5.003   4.046   3.081  0.7254 -0.7917  0.6057
   81SLPC   H5Y 7586   4.964   3.894   3.007 -2.4155 -0.2974  0.8947
   81SLPC   C36 7587   4.810   3.984   3.134 -0.1775 -0.0168 -0.7223
   81SLPC   H6X 7588   4.704   3.971   3.104 -1.5093  1.1265  2.8537
   81SLPC   H6Y 7589   4.803   4.083   3.185  1.2797  0.2209 -0.9454
   81SLPC   C37 7590   4.841   3.881   3.241  0.9337  0.3755 -0.1051
   81SLPC   H7X 7591   4.935   3.906   3.294  0.9286  0.2952 -0.0567
   81SLPC   H7Y 7592   4.860   3.779   3.201  0.3523  0.7246 -1.3367
   81SLPC   C38 7593   4.728   3.860   3.350 -0.6604  0.0244 -0.0063
   81SLPC   H8X 7594   4.632   3.835   3.301  0.1011 -0.5192 -1.2560
   81SLPC   H8Y 7595   4.715   3.948   3.417  2.6972  0.4121  0.3032
   81SLPC   C39 7596   4.777   3.739   3.434 -0.5584 -0.4990  0.2897
   81SLPC   H9X 7597   4.887   3.725   3.425 -0.6479 -0.6961 -0.6276
   81SLPC   H9Y 7598   4.750   3.641   3.390  1.1132 -0.2867 -1.3274
   81SLPC  C310 7599   4.741   3.749   3.585  0.3036  0.0481 -0.3450
   81SLPC  H10X 7600   4.636   3.716   3.598  1.0721 -2.6190 -0.4287
   81SLPC  H10Y 7601   4.746   3.857   3.613 -0.6782  0.4812 -1.7241
   81SLPC  C311 7602   4.820   3.662   3.691 -0.0551  0.2590 -0.3386
   81SLPC  H11X 7603   4.926   3.694   3.690 -0.1231  0.8071  2.3153
   81SLPC  H11Y 7604   4.820   3.562   3.643  1.2200  0.4088 -0.6854
   81SLPC  C312 7605   4.764   3.653   3.831 -0.2240  0.0611 -0.1228
   81SLPC  H12X 7606   4.663   3.607   3.825 -1.2931  2.4105 -2.7983
   81SLPC  H12Y 7607   4.763   3.754   3.876  2.0261  0.0774 -0.0125
   81SLPC  C313 7608   4.834   3.556   3.930 -0.0094 -0.2160 -0.3259
   81SLPC  H13X 7609   4.937   3.600   3.929 -0.4696  0.9374 -1.7810
   81SLPC  H13Y 7610   4.840   3.452   3.892  2.0603  0.1234 -1.0736
   81SLPC  C314 7611   4.776   3.542   4.068  0.5070 -0.2209 -0.8205
   81SLPC  H14X 7612   4.671   3.508   4.056  0.2855 -1.3892  3.0702
   81SLPC  H14Y 7613   4.778   3.639   4.123  3.1012 -0.4360 -0.4176
   81SLPC  C315 7614   4.843   3.430   4.154 -0.2668 -0.3155  0.5577
   81SLPC  H15X 7615   4.954   3.439   4.147 -0.3835  0.3175 -0.6348
   81SLPC  H15Y 7616   4.810   3.334   4.109 -3.0009  0.3819  0.8748
   81SLPC  C316 7617   4.807   3.431   4.301  0.4188 -0.2309 -0.0797
   81SLPC  H16X 7618   4.699   3.454   4.310 -0.1793 -3.0020  1.0241
   81SLPC  H16Y 7619   4.869   3.513   4.343 -0.2275 -0.3363  1.1328
   81SLPC  C317 7620   4.839   3.295   4.373  0.3199  0.0492  0.2226
   81SLPC  H17X 7621   4.801   3.203   4.323  3.3088  0.3271 -2.8950
   81SLPC  H17Y 7622   4.800   3.297   4.477  1.4367  0.9095  0.6496
   81SLPC  C318 7623   4.993   3.275   4.379  0.6730  0.4946 -0.0392
   81SLPC  H18X 7624   5.040   3.261   4.280 -0.6481  1.9960 -0.9182
   81SLPC  H18Y 7625   5.008   3.181   4.438 -0.6947  1.4680  1.9850
   81SLPC  H18Z 7626   5.035   3.358   4.440 -2.1850  0.5748  2.0208
   82SLPC     N 7627   2.075   4.566   2.338 -0.2933 -0.3290  0.7524
   82SLPC   C13 7628   2.180   4.636   2.251  0.8177  0.3438  0.1380
   82SLPC  H13A 7629   2.260   4.564   2.245  0.0824 -0.5358  0.6508
   82SLPC  H13B 7630   2.129   4.646   2.156  2.1713  2.9784 -0.3955
   82SLPC  H13C 7631   2.198   4.737   2.285 -1.9435  1.5151 -1.4796
   82SLPC   C14 7632   1.971   4.665   2.369 -0.0267 -0.4474  0.3227
   82SLPC  H14A 7633   1.885   4.628   2.423  1.0185  0.0442  2.4690
   82SLPC  H14B 7634   2.019   4.738   2.432  1.4581  0.6459 -1.9463
   82SLPC  H14C 7635   1.930   4.721   2.287 -0.5598  0.3506  1.1277
   82SLPC   C15 7636   2.155   4.519   2.450  0.3142  0.1293  0.0126
   82SLPC  H15A 7637   2.098   4.451   2.511  0.5051 -1.6853 -1.7353
   82SLPC  H15B 7638   2.244   4.465   2.422  0.8131  0.4970  0.8243
   82SLPC  H15C 7639   2.183   4.599   2.518  0.6581 -0.7367  0.9102
   82SLPC   C12 7640   2.017   4.451   2.267 -0.4968  0.4685 -0.3776
   82SLPC  H12A 7641   2.104   4.395   2.237  0.3430  1.9914 -0.9302
   82SLPC  H12B 7642   1.974   4.479   2.172 -1.3839  0.2209 -0.0561
   82SLPC   C11 7643   1.920   4.359   2.331 -0.1211  0.8377 -0.0786
   82SLPC  H11A 7644   1.868   4.302   2.251  0.2466 -1.2830  1.1309
   82SLPC  H11B 7645   1.841   4.415   2.385 -1.5414 -1.5648  0.4542
   82SLPC     P 7646   2.091   4.160   2.324  0.0568 -0.9788  0.0502
   82SLPC   O13 7647   2.046   4.155   2.181  0.0787 -0.1245  0.4855
   82SLPC   O14 7648   2.226   4.218   2.343 -0.7312  0.4139 -0.2416
   82SLPC   O12 7649   1.992   4.259   2.410  0.2178 -0.0601  0.0966
   82SLPC   O11 7650   2.078   4.026   2.396  0.2816  0.2201  0.3249
   82SLPC    C1 7651   1.963   3.961   2.448  0.2140 -0.0849 -0.0241
   82SLPC    HA 7652   1.870   4.009   2.411 -0.4588 -3.1567 -2.7989
   82SLPC    HB 7653   1.953   3.862   2.398  1.1099  0.3059 -1.0161
   82SLPC    C2 7654   1.975   3.941   2.597  0.7477 -0.3078 -0.0152
   82SLPC    HS 7655   1.981   4.039   2.650  1.4546  0.1312 -0.8633
   82SLPC   O21 7656   2.077   3.853   2.629 -0.4072 -0.3353 -0.5842
   82SLPC   C21 7657   2.195   3.919   2.652 -0.7306 -0.1043 -0.3326
   82SLPC   O22 7658   2.210   4.036   2.663  0.0176 -0.2980 -0.4587
   82SLPC   C22 7659   2.311   3.813   2.667  0.6974 -0.0486  0.0988
   82SLPC   H2R 7660   2.341   3.782   2.564  1.3446 -2.4167  0.9251
   82SLPC   H2S 7661   2.403   3.850   2.716  0.9790 -2.0621  1.1671
   82SLPC    C3 7662   1.844   3.857   2.638  0.0571 -0.6351 -0.5148
   82SLPC    HX 7663   1.858   3.757   2.590  0.9515 -0.1216 -1.3655
   82SLPC    HY 7664   1.763   3.916   2.591  0.2158  0.0975  0.1186
   82SLPC   O31 7665   1.833   3.851   2.786  0.5347  0.2920  0.4941
   82SLPC   C31 7666   1.787   3.748   2.847 -0.3520  0.0228 -0.4672
   82SLPC   O32 7667   1.766   3.637   2.810  0.5124  0.4216 -0.4375
   82SLPC   C32 7668   1.794   3.779   2.998  0.1811 -0.1863  0.0607
   82SLPC   H2X 7669   1.860   3.865   3.024 -0.4312  0.2609  0.1659
   82SLPC   H2Y 7670   1.844   3.694   3.048  0.3733 -0.5532 -0.7477
   82SLPC   C23 7671   2.252   3.691   2.737  0.8708 -0.7647 -0.6048
   82SLPC   H3R 7672   2.331   3.614   2.745  1.0740 -0.4085  1.5739
   82SLPC   H3S 7673   2.164   3.653   2.681 -2.0545  2.9753  0.9310
   82SLPC   C24 7674   2.200   3.727   2.879  0.4294 -0.8778 -0.4107
   82SLPC   H4R 7675   2.105   3.783   2.862 -0.7905 -2.6707  0.2866
   82SLPC   H4S 7676   2.269   3.804   2.920 -0.0034 -0.3792 -0.6039
   82SLPC   C25 7677   2.186   3.601   2.967  0.2122 -0.6100 -0.3424
   82SLPC   H5R 7678   2.273   3.533   2.954  1.4951  0.4235  2.2306
   82SLPC   H5S 7679   2.090   3.554   2.936 -0.1004 -0.7766  0.8400
   82SLPC   C26 7680   2.175   3.629   3.125 -0.0498 -0.0636  0.6273
   82SLPC   H6R 7681   2.079   3.679   3.151 -0.0422 -0.3002  1.1149
   82SLPC   H6S 7682   2.261   3.696   3.148 -1.3867  2.3728 -0.9714
   82SLPC   C27 7683   2.177   3.496   3.200 -0.1242 -0.1423 -0.4804
   82SLPC   H7R 7684   2.276   3.454   3.172 -1.5863 -4.1240 -0.3324
   82SLPC   H7S 7685   2.092   3.435   3.165 -1.4988  1.0466  0.6339
   82SLPC   C28 7686   2.159   3.531   3.348 -0.7823  0.0828 -0.4045
   82SLPC   H8R 7687   2.073   3.591   3.386  0.6178  1.4651  0.6901
   82SLPC   H8S 7688   2.232   3.615   3.352 -0.6389  0.1682 -2.9512
   82SLPC   C29 7689   2.188   3.405   3.425 -0.0001 -0.2374 -0.4761
   82SLPC   H9R 7690   2.286   3.360   3.401 -0.3969 -2.2862  1.4354
   82SLPC  C210 7691   2.099   3.347   3.500  0.4921  0.4037  0.0073
   82SLPC  H10R 7692   2.130   3.247   3.531  0.4496 -0.3274 -2.1579
   82SLPC  C211 7693   1.961   3.388   3.554 -0.2105 -0.6031 -0.0646
   82SLPC  H11R 7694   1.924   3.476   3.497  1.7852  0.3069 -0.0594
   82SLPC  H11S 7695   1.978   3.424   3.658  1.2771  0.7032 -0.7144
   82SLPC  C212 7696   1.861   3.273   3.545 -0.6109  0.3099 -0.1910
   82SLPC  H12R 7697   1.857   3.234   3.443 -0.4064  1.7199 -0.7644
   82SLPC  C213 7698   1.784   3.229   3.644 -0.0040 -0.0870  0.7991
   82SLPC  H13R 7699   1.720   3.141   3.626 -0.0898 -0.0433  0.8898
   82SLPC  C214 7700   1.769   3.282   3.782  0.2418  0.6193  0.0883
   82SLPC  H14R 7701   1.667   3.326   3.787  0.6855  1.9771 -1.5849
   82SLPC  H14S 7702   1.842   3.365   3.790  1.1031 -0.0543 -0.5653
   82SLPC  C215 7703   1.788   3.184   3.899  0.3314  0.4432  0.1635
   82SLPC  H15R 7704   1.882   3.124   3.895 -0.7182 -1.2223 -0.6376
   82SLPC  H15S 7705   1.708   3.108   3.884  0.2875  0.7404 -1.1471
   82SLPC  C216 7706   1.787   3.251   4.037  0.5890 -0.6070 -0.1471
   82SLPC  H16R 7707   1.877   3.315   4.042  0.9980 -1.1162 -0.7212
   82SLPC  H16S 7708   1.788   3.175   4.118 -3.4609  0.2046  0.9134
   82SLPC  C217 7709   1.664   3.344   4.063  0.3182 -0.0337  0.0234
   82SLPC  H17R 7710   1.576   3.281   4.038  2.0968 -1.4193 -3.3963
   82SLPC  H17S 7711   1.660   3.434   3.999 -1.4167 -0.1985 -0.1388
   82SLPC  C218 7712   1.654   3.379   4.210  0.2998 -1.2002 -0.3428
   82SLPC  H18R 7713   1.554   3.428   4.216  1.4097  1.5133 -2.0762
   82SLPC  H18S 7714   1.730   3.457   4.227 -0.1636 -0.1949 -2.4976
   82SLPC  H18T 7715   1.659   3.292   4.279 -0.5672 -1.8784 -1.0974
   82SLPC   C33 7716   1.643   3.805   3.049 -0.7181 -1.0807  0.0233
   82SLPC   H3X 7717   1.645   3.834   3.156 -1.0977  1.0051 -0.5016
   82SLPC   H3Y 7718   1.591   3.708   3.033  0.2721 -1.6130 -0.1017
   82SLPC   C34 7719   1.566   3.921   2.976  0.1687  0.1849 -0.1813
   82SLPC   H4X 7720   1.559   3.890   2.869  0.9207 -0.2133 -0.1169
   82SLPC   H4Y 7721   1.624   4.014   2.994  1.4909 -0.8753  1.2613
   82SLPC   C35 7722   1.424   3.937   3.040  0.0469 -0.2240  0.8632
   82SLPC   H5X 7723   1.438   3.970   3.145  0.7342  1.6131  0.2316
   82SLPC   H5Y 7724   1.381   3.835   3.034 -2.3924  0.6520  2.4530
   82SLPC   C36 7725   1.334   4.042   2.970  0.1721  0.3016  0.5051
   82SLPC   H6X 7726   1.337   4.023   2.861  0.2764  0.9929  0.3821
   82SLPC   H6Y 7727   1.372   4.144   2.995  2.3115  0.5112 -2.9944
   82SLPC   C37 7728   1.186   4.049   3.011  0.7838  1.0710 -0.1520
   82SLPC   H7X 7729   1.134   3.953   2.990 -1.6275  1.9839  1.1381
   82SLPC   H7Y 7730   1.129   4.123   2.951 -1.0828 -0.9713 -1.0324
   82SLPC   C38 7731   1.171   4.068   3.168 -0.7406  0.7878  0.8489
   82SLPC   H8X 7732   1.250   4.142   3.194  2.0010 -0.5268 -2.9440
   82SLPC   H8Y 7733   1.170   3.970   3.221 -0.4742  0.7631  0.8093
   82SLPC   C39 7734   1.032   4.131   3.197  0.1528 -0.4772  0.2034
   82SLPC   H9X 7735   0.963   4.045   3.193 -0.3509 -0.0482 -0.9712
   82SLPC   H9Y 7736   1.003   4.199   3.113  2.3498  2.3536  1.5655
   82SLPC  C310 7737   1.026   4.208   3.329 -0.5306 -0.6265 -0.0481
   82SLPC  H10X 7738   1.036   4.317   3.315  0.7089 -0.7051  0.0824
   82SLPC  H10Y 7739   1.104   4.170   3.399 -1.6955  0.5198  1.9595
   82SLPC  C311 7740   0.889   4.189   3.401 -0.7595  0.7665  0.0454
   82SLPC  H11X 7741   0.866   4.081   3.412 -0.5353  0.6271 -0.7939
   82SLPC  H11Y 7742   0.806   4.219   3.334 -0.9776 -0.9606 -0.5179
   82SLPC  C312 7743   0.891   4.254   3.537 -0.5239 -0.1254 -0.1947
   82SLPC  H12X 7744   0.923   4.359   3.516 -0.6838 -0.2189 -0.9053
   82SLPC  H12Y 7745   0.971   4.219   3.606 -1.7956  0.4693  1.6743
   82SLPC  C313 7746   0.748   4.259   3.602 -0.4594 -0.6901 -0.6110
   82SLPC  H13X 7747   0.695   4.342   3.551 -1.3539 -0.1116  1.1916
   82SLPC  H13Y 7748   0.759   4.300   3.705 -1.7814 -0.9884 -0.3284
   82SLPC  C314 7749   0.673   4.130   3.614  0.5311 -0.0362 -0.5900
   82SLPC  H14X 7750   0.635   4.088   3.517 -1.2825 -1.3885  0.6286
   82SLPC  H14Y 7751   0.576   4.135   3.669  1.7260  0.8098  1.5268
   82SLPC  C315 7752   0.747   4.028   3.703 -0.4215 -0.6911  0.7447
   82SLPC  H15X 7753   0.854   4.045   3.682 -0.4726 -1.3930 -0.1525
   82SLPC  H15Y 7754   0.718   3.927   3.667 -0.1409  0.4970 -3.3848
   82SLPC  C316 7755   0.715   4.047   3.845  0.0798 -0.3560 -0.6980
   82SLPC  H16X 7756   0.609   4.017   3.853 -0.5023  1.5519 -0.9322
   82SLPC  H16Y 7757   0.730   4.148   3.888  1.4489 -1.4953  1.7507
   82SLPC  C317 7758   0.787   3.941   3.936  0.9560 -0.0980 -0.4424
   82SLPC  H17X 7759   0.896   3.962   3.930  0.5656  1.6360 -3.3211
   82SLPC  H17Y 7760   0.771   3.837   3.899 -0.9103  0.2774 -0.7773
   82SLPC  C318 7761   0.744   3.958   4.087 -0.2795 -0.0260  0.0475
   82SLPC  H18X 7762   0.633   3.944   4.089 -0.5142  1.5738 -0.0009
   82SLPC  H18Y 7763   0.751   4.065   4.118 -2.1179  0.0409  0.3535
   82SLPC  H18Z 7764   0.787   3.879   4.152 -0.3926 -0.4423 -0.3817
   83SLPC     N 7765   5.604   5.316   1.976  0.6110  0.1210  0.2115
   83SLPC   C13 7766   5.646   5.444   2.049 -0.0805  0.3039 -0.6211
   83SLPC  H13A 7767   5.566   5.515   2.062 -3.3299 -3.1727  0.0620
   83SLPC  H13B 7768   5.667   5.411   2.149 -1.5803 -0.1460 -0.4298
   83SLPC  H13C 7769   5.742   5.487   2.022 -0.3173  2.2659  1.3624
   83SLPC   C14 7770   5.714   5.215   1.963 -0.2991 -0.4181  0.3671
   83SLPC  H14A 7771   5.686   5.146   1.885  2.4753  0.5781 -1.6637
   83SLPC  H14B 7772   5.808   5.260   1.934 -0.6558 -0.9675 -1.7590
   83SLPC  H14C 7773   5.731   5.159   2.054  0.8997 -0.6199  0.0303
   83SLPC   C15 7774   5.575   5.371   1.837  0.1422  0.4646  0.0143
   83SLPC  H15A 7775   5.661   5.422   1.798  1.0424  0.6228  2.0534
   83SLPC  H15B 7776   5.547   5.294   1.766  0.3539  1.6479 -1.3891
   83SLPC  H15C 7777   5.490   5.437   1.841 -1.1142 -1.0109 -1.2215
   83SLPC   C12 7778   5.474   5.260   2.035 -0.7085  0.5405  0.3260
   83SLPC  H12A 7779   5.442   5.172   1.981 -1.3198  1.3673 -0.6812
   83SLPC  H12B 7780   5.398   5.333   2.015 -0.6311  1.1473  2.0992
   83SLPC   C11 7781   5.456   5.209   2.177 -0.3692 -0.1793  0.0339
   83SLPC  H11A 7782   5.354   5.170   2.199  0.8069 -2.5128  1.7859
   83SLPC  H11B 7783   5.467   5.299   2.242  1.4935  0.0811 -0.5966
   83SLPC     P 7784   5.518   4.966   2.239 -0.6255  0.3028 -0.2917
   83SLPC   O13 7785   5.383   4.938   2.199  0.2291  0.4547 -0.1542
   83SLPC   O14 7786   5.620   4.883   2.171 -0.0753 -0.7859  0.0488
   83SLPC   O12 7787   5.548   5.119   2.221 -0.3053 -0.1170  0.1893
   83SLPC   O11 7788   5.530   4.956   2.395  0.7330  0.1272 -0.0900
   83SLPC    C1 7789   5.458   5.054   2.468  0.4927 -1.1862 -0.9686
   83SLPC    HA 7790   5.492   5.158   2.454  1.8806 -1.1288  1.9184
   83SLPC    HB 7791   5.352   5.038   2.440  0.4936 -2.0673 -0.5109
   83SLPC    C2 7792   5.475   5.030   2.622 -0.4531 -1.1725 -0.1930
   83SLPC    HS 7793   5.401   5.095   2.673  1.5302  2.0899 -1.1883
   83SLPC   O21 7794   5.614   5.061   2.663 -0.3656 -0.0508  0.1082
   83SLPC   C21 7795   5.641   5.187   2.693  0.5772 -0.6788 -0.1971
   83SLPC   O22 7796   5.559   5.278   2.695  0.6698  0.1849 -0.4362
   83SLPC   C22 7797   5.792   5.199   2.729  0.0227  0.0536 -0.3891
   83SLPC   H2R 7798   5.829   5.094   2.731 -0.0666 -0.0413 -1.9563
   83SLPC   H2S 7799   5.833   5.260   2.645 -1.3048  1.6530  0.0788
   83SLPC    C3 7800   5.451   4.879   2.655  0.2465 -0.7708  0.6332
   83SLPC    HX 7801   5.543   4.823   2.626 -1.3790 -2.4745 -1.5829
   83SLPC    HY 7802   5.380   4.833   2.583 -0.4844  0.5646  0.4660
   83SLPC   O31 7803   5.420   4.866   2.792 -0.5968  0.4463  0.1357
   83SLPC   C31 7804   5.291   4.882   2.816  0.0963 -0.2320 -0.1668
   83SLPC   O32 7805   5.201   4.883   2.733 -0.0156 -0.1355  0.4909
   83SLPC   C32 7806   5.276   4.910   2.966 -0.5363 -0.2653  0.4462
   83SLPC   H2X 7807   5.312   5.011   2.995  1.6210 -1.2786  1.5167
   83SLPC   H2Y 7808   5.343   4.836   3.014  0.7051  0.4143 -0.1798
   83SLPC   C23 7809   5.814   5.281   2.861 -0.8230 -0.3929  0.3257
   83SLPC   H3R 7810   5.789   5.222   2.952 -2.7913 -1.2949 -0.7331
   83SLPC   H3S 7811   5.762   5.378   2.873 -0.8719 -0.7346  3.8955
   83SLPC   C24 7812   5.959   5.325   2.875  0.3756 -0.0629 -0.3544
   83SLPC   H4R 7813   5.977   5.388   2.785 -1.4144 -0.4712 -1.0430
   83SLPC   H4S 7814   6.031   5.241   2.868 -1.8981 -2.0543 -1.2751
   83SLPC   C25 7815   5.988   5.424   2.988 -0.4936 -0.4753 -0.3930
   83SLPC   H5R 7816   5.914   5.507   2.979 -0.5447 -0.5157 -0.3380
   83SLPC   H5S 7817   6.080   5.482   2.964  0.4083 -1.1933  1.2078
   83SLPC   C26 7818   5.989   5.369   3.130  0.1971 -1.1409 -0.4526
   83SLPC   H6R 7819   6.088   5.322   3.147  0.3147 -0.9109 -0.5075
   83SLPC   H6S 7820   5.911   5.289   3.131  0.3350 -1.2734  0.4349
   83SLPC   C27 7821   5.967   5.468   3.244  0.0504  1.3222  0.5426
   83SLPC   H7R 7822   5.882   5.537   3.223  0.7586  1.9441 -0.3771
   83SLPC   H7S 7823   6.053   5.538   3.252  0.9102  0.3809 -0.2187
   83SLPC   C28 7824   5.952   5.398   3.378  0.2923 -0.2166  0.0632
   83SLPC   H8R 7825   5.970   5.465   3.465  0.7863  0.5904 -0.6385
   83SLPC   H8S 7826   6.032   5.321   3.376  2.0701  1.5512  0.1507
   83SLPC   C29 7827   5.813   5.334   3.383 -0.7666 -0.0543 -0.1680
   83SLPC   H9R 7828   5.799   5.230   3.353 -1.8784 -0.1195  0.5010
   83SLPC  C210 7829   5.703   5.392   3.431 -0.1771  0.2036  0.2068
   83SLPC  H10R 7830   5.612   5.333   3.445 -0.1892  0.3130  0.6112
   83SLPC  C211 7831   5.691   5.539   3.483  1.2831 -0.1389 -0.3981
   83SLPC  H11R 7832   5.793   5.579   3.501  1.9201 -2.3754  1.3392
   83SLPC  H11S 7833   5.649   5.522   3.584 -2.4941 -2.4611 -2.1287
   83SLPC  C212 7834   5.605   5.618   3.391 -0.1656 -0.7155  0.1328
   83SLPC  H12R 7835   5.653   5.622   3.292  2.2495  0.7954  1.2776
   83SLPC  C213 7836   5.490   5.682   3.414  0.4024  0.0681  0.8316
   83SLPC  H13R 7837   5.440   5.743   3.337 -0.5193 -1.9814 -0.2650
   83SLPC  C214 7838   5.431   5.699   3.553  0.6645  0.0750  0.0077
   83SLPC  H14R 7839   5.473   5.622   3.622 -0.3462 -0.3495  0.1769
   83SLPC  H14S 7840   5.320   5.691   3.552  0.5244  1.7030  0.7095
   83SLPC  C215 7841   5.472   5.841   3.594 -0.2896  0.7050 -0.0235
   83SLPC  H15R 7842   5.435   5.910   3.516 -0.1007 -0.1887 -0.9202
   83SLPC  H15S 7843   5.581   5.842   3.617  0.1333 -0.3171 -1.7894
   83SLPC  C216 7844   5.409   5.880   3.733 -0.2917  0.3029  0.0192
   83SLPC  H16R 7845   5.430   5.784   3.785 -1.7070 -0.4530 -0.7287
   83SLPC  H16S 7846   5.300   5.900   3.726 -0.8548 -1.2155  2.8671
   83SLPC  C217 7847   5.480   6.003   3.795 -0.0788  0.7764 -0.0558
   83SLPC  H17R 7848   5.491   6.086   3.723  0.0571  1.7493  1.0641
   83SLPC  H17S 7849   5.584   5.971   3.821  0.1827  1.9781  0.4370
   83SLPC  C218 7850   5.431   6.054   3.926  0.0743 -0.6550 -1.1774
   83SLPC  H18R 7851   5.480   6.151   3.950 -1.8503  0.2012 -0.5147
   83SLPC  H18S 7852   5.455   5.985   4.010  0.6329 -0.0876 -0.8631
   83SLPC  H18T 7853   5.323   6.074   3.915  0.0631 -1.4531 -2.8797
   83SLPC   C33 7854   5.130   4.891   3.020 -0.3691 -0.2598  0.3535
   83SLPC   H3X 7855   5.097   4.789   2.989  0.8591  0.1526 -2.6496
   83SLPC   H3Y 7856   5.055   4.956   2.970  1.6816  2.1079  0.1754
   83SLPC   C34 7857   5.145   4.916   3.172 -0.2773  0.2273  0.1076
   83SLPC   H4X 7858   5.200   5.012   3.185  1.0400 -0.1257 -2.3006
   83SLPC   H4Y 7859   5.198   4.830   3.218 -0.2524  0.3033  0.2209
   83SLPC   C35 7860   5.001   4.926   3.243 -0.5606  0.4907  0.1948
   83SLPC   H5X 7861   4.944   4.834   3.216  1.9549 -1.4861  1.1612
   83SLPC   H5Y 7862   4.963   5.024   3.209 -1.2098  0.0227 -0.4516
   83SLPC   C36 7863   4.996   4.912   3.398 -0.0287 -0.1298  0.0681
   83SLPC   H6X 7864   5.069   4.975   3.453 -1.0799 -1.9782  3.9485
   83SLPC   H6Y 7865   5.028   4.807   3.418 -1.9396 -0.9623 -1.0074
   83SLPC   C37 7866   4.862   4.937   3.460 -0.1313  0.4633  0.0498
   83SLPC   H7X 7867   4.788   4.871   3.411  0.3632 -0.8373  0.9909
   83SLPC   H7Y 7868   4.846   5.045   3.440 -0.9664  0.0988 -1.3871
   83SLPC   C38 7869   4.865   4.916   3.611  0.7007 -0.9093  0.3336
   83SLPC   H8X 7870   4.766   4.936   3.657  0.6452  2.6769 -1.0287
   83SLPC   H8Y 7871   4.939   4.978   3.666 -0.7903  1.7789 -0.5032
   83SLPC   C39 7872   4.885   4.766   3.651 -0.3797 -0.0846 -0.2731
   83SLPC   H9X 7873   4.978   4.718   3.616 -0.0657 -0.1823  0.6830
   83SLPC   H9Y 7874   4.794   4.719   3.608 -1.1482  1.6949 -0.6859
   83SLPC  C310 7875   4.864   4.749   3.808  0.0778  0.3145 -0.6391
   83SLPC  H10X 7876   4.758   4.771   3.830  0.1893  2.0889 -1.7164
   83SLPC  H10Y 7877   4.923   4.821   3.869  0.3792 -1.7238  1.6199
   83SLPC  C311 7878   4.901   4.615   3.863 -0.1136 -0.5524  0.3080
   83SLPC  H11X 7879   4.999   4.592   3.816 -0.5040 -1.0701 -0.2705
   83SLPC  H11Y 7880   4.836   4.539   3.814  1.2116  0.2917 -3.0176
   83SLPC  C312 7881   4.898   4.604   4.012 -0.3532 -0.4409  0.7699
   83SLPC  H12X 7882   4.794   4.625   4.046 -0.2166  2.2440 -0.2359
   83SLPC  H12Y 7883   4.975   4.671   4.056 -0.8065  0.8347 -0.3329
   83SLPC  C313 7884   4.927   4.461   4.057 -0.3181 -1.4778  0.2819
   83SLPC  H13X 7885   5.027   4.431   4.020  1.3826  2.1527  1.4500
   83SLPC  H13Y 7886   4.849   4.396   4.011 -0.1339 -0.6838 -1.2239
   83SLPC  C314 7887   4.910   4.453   4.212  0.2159  0.2097  0.6106
   83SLPC  H14X 7888   4.811   4.485   4.251 -0.3739  2.2663 -2.2721
   83SLPC  H14Y 7889   4.982   4.525   4.257  2.2826 -1.1294 -0.3888
   83SLPC  C315 7890   4.957   4.318   4.271  0.1742 -0.6180 -0.1239
   83SLPC  H15X 7891   4.940   4.332   4.380 -0.0032 -1.0939 -0.0910
   83SLPC  H15Y 7892   5.067   4.310   4.264  0.1506 -1.0572 -0.0215
   83SLPC  C316 7893   4.876   4.205   4.223 -1.1009  0.7046  0.0150
   83SLPC  H16X 7894   4.893   4.180   4.117 -0.1148  0.4217  0.2353
   83SLPC  H16Y 7895   4.768   4.229   4.238 -0.4255  3.6520  0.8965
   83SLPC  C317 7896   4.902   4.080   4.317 -0.5703  0.5460  0.3013
   83SLPC  H17X 7897   4.892   4.109   4.424 -3.4747  1.0535 -0.0329
   83SLPC  H17Y 7898   5.005   4.043   4.295 -1.4520 -0.5117 -2.4741
   83SLPC  C318 7899   4.812   3.969   4.278 -0.2284 -0.3011 -0.6045
   83SLPC  H18X 7900   4.845   3.879   4.333  0.3686 -0.5047 -1.2798
   83SLPC  H18Y 7901   4.807   3.943   4.170 -1.0431 -1.7641 -0.2342
   83SLPC  H18Z 7902   4.704   3.987   4.299  0.4561  1.8714  1.4062
   84SLPC     N 7903   5.315   4.610   2.203 -0.4308  0.2789  0.4679
   84SLPC   C13 7904   5.438   4.598   2.118  0.9116 -0.0966 -0.0121
   84SLPC  H13A 7905   5.509   4.532   2.166  1.3297  2.6072  3.5327
   84SLPC  H13B 7906   5.419   4.555   2.021 -0.5962 -0.7847  0.5585
   84SLPC  H13C 7907   5.483   4.695   2.107  0.8639 -0.1262 -0.4920
   84SLPC   C14 7908   5.363   4.673   2.332  0.0499  0.9112  1.0698
   84SLPC  H14A 7909   5.289   4.656   2.408  0.6390  1.2614  1.7356
   84SLPC  H14B 7910   5.446   4.614   2.368 -0.4212  0.8424  2.0584
   84SLPC  H14C 7911   5.375   4.779   2.320  1.0968  0.7031  0.1325
   84SLPC   C15 7912   5.274   4.466   2.226 -0.4218 -0.0269 -0.0664
   84SLPC  H15A 7913   5.349   4.411   2.280  0.0939  0.7788  0.0525
   84SLPC  H15B 7914   5.189   4.461   2.293  0.2542 -0.8021  0.7611
   84SLPC  H15C 7915   5.249   4.413   2.136 -2.2457  0.8014 -0.1055
   84SLPC   C12 7916   5.207   4.685   2.139  0.1106  0.4883  0.4037
   84SLPC  H12A 7917   5.242   4.785   2.118  1.5635 -0.0748 -0.0544
   84SLPC  H12B 7918   5.123   4.691   2.206  0.2032  1.1623  0.4647
   84SLPC   C11 7919   5.142   4.622   2.007 -1.0556  0.0077 -1.0745
   84SLPC  H11A 7920   5.212   4.595   1.926 -0.3194  0.3361 -0.5576
   84SLPC  H11B 7921   5.080   4.701   1.959 -0.7889 -0.5126 -2.3021
   84SLPC     P 7922   4.920   4.511   2.102  0.2770 -0.1888 -0.1237
   84SLPC   O13 7923   4.821   4.561   2.001 -0.2735 -0.2483  0.6113
   84SLPC   O14 7924   4.890   4.382   2.162  0.2573 -0.1440  0.1455
   84SLPC   O12 7925   5.072   4.508   2.037  0.1990  0.7973  0.0063
   84SLPC   O11 7926   4.918   4.615   2.222  0.1235  0.9444  0.7764
   84SLPC    C1 7927   4.818   4.720   2.223 -0.1601  0.0733 -0.6844
   84SLPC    HA 7928   4.863   4.819   2.243  1.6038 -0.6824 -0.7658
   84SLPC    HB 7929   4.775   4.741   2.123  2.9049  0.3664 -2.0417
   84SLPC    C2 7930   4.714   4.703   2.338 -0.4737 -0.7159 -0.2316
   84SLPC    HS 7931   4.638   4.784   2.335  1.3644  1.0911 -1.8836
   84SLPC   O21 7932   4.775   4.684   2.471 -0.2578 -0.2765  0.9005
   84SLPC   C21 7933   4.765   4.790   2.549 -0.6537 -0.1993  0.2586
   84SLPC   O22 7934   4.707   4.897   2.530 -0.4612  0.3713  0.1301
   84SLPC   C22 7935   4.819   4.753   2.691 -0.4093  0.2198  0.5130
   84SLPC   H2R 7936   4.922   4.713   2.688 -1.2824 -2.3201  1.8627
   84SLPC   H2S 7937   4.824   4.844   2.755 -0.9893 -0.1308  1.0645
   84SLPC    C3 7938   4.625   4.577   2.300 -0.6339  0.2709 -0.1716
   84SLPC    HX 7939   4.692   4.489   2.294 -2.0260 -0.9766  1.8236
   84SLPC    HY 7940   4.585   4.587   2.196 -0.1553  3.5327 -0.1673
   84SLPC   O31 7941   4.525   4.539   2.398  0.2004  0.2633  0.5960
   84SLPC   C31 7942   4.411   4.612   2.385  0.4911 -0.2194 -0.5539
   84SLPC   O32 7943   4.396   4.709   2.308  0.6815 -0.6780 -0.8551
   84SLPC   C32 7944   4.295   4.547   2.471  0.2994  0.2343  0.2422
   84SLPC   H2X 7945   4.323   4.470   2.547 -1.1329 -0.7048 -0.1317
   84SLPC   H2Y 7946   4.241   4.480   2.401  0.5764 -0.0923  0.3323
   84SLPC   C23 7947   4.724   4.660   2.776  0.1896 -0.3564  0.0823
   84SLPC   H3R 7948   4.722   4.555   2.739 -0.6119  0.0389 -1.0437
   84SLPC   H3S 7949   4.618   4.694   2.771  0.2661 -0.2384 -1.1013
   84SLPC   C24 7950   4.761   4.647   2.929  0.3062  0.6862  0.2359
   84SLPC   H4R 7951   4.694   4.718   2.981 -0.7739  0.7395 -1.1507
   84SLPC   H4S 7952   4.870   4.661   2.945  0.1051  1.6968  0.8106
   84SLPC   C25 7953   4.731   4.503   2.993 -0.0220  0.9153 -0.0257
   84SLPC   H5R 7954   4.824   4.452   2.958 -0.2118  1.3030 -1.1421
   84SLPC   H5S 7955   4.636   4.464   2.951  0.0472  0.1729  0.5026
   84SLPC   C26 7956   4.720   4.517   3.145  0.0257 -0.1600  0.7692
   84SLPC   H6R 7957   4.641   4.447   3.181 -2.2982  2.1241  0.4502
   84SLPC   H6S 7958   4.683   4.622   3.148  2.5490  0.9059 -1.2457
   84SLPC   C27 7959   4.851   4.498   3.215  0.2817  0.3797 -0.1450
   84SLPC   H7R 7960   4.921   4.571   3.169  0.9398 -0.0027  0.2396
   84SLPC   H7S 7961   4.897   4.399   3.197 -2.3132 -0.6684 -1.5112
   84SLPC   C28 7962   4.836   4.517   3.369 -0.0742  0.3729  0.0968
   84SLPC   H8R 7963   4.776   4.608   3.392  0.1317  0.4801  0.2189
   84SLPC   H8S 7964   4.934   4.542   3.417 -0.9988  2.3239  1.0908
   84SLPC   C29 7965   4.764   4.407   3.437  1.3961  0.6038  0.2954
   84SLPC   H9R 7966   4.656   4.421   3.451  1.3315  1.3129 -0.7516
   84SLPC  C210 7967   4.823   4.300   3.490 -0.1942  0.2435  0.2581
   84SLPC  H10R 7968   4.766   4.221   3.539 -1.3653  0.3822 -0.8216
   84SLPC  C211 7969   4.969   4.273   3.483  0.2079 -0.7353 -0.8755
   84SLPC  H11R 7970   5.018   4.335   3.562 -1.0574 -1.4076  0.4919
   84SLPC  H11S 7971   5.011   4.306   3.386  0.2712  0.3289 -0.5107
   84SLPC  C212 7972   5.000   4.130   3.486  0.5654 -0.4786  0.2324
   84SLPC  H12R 7973   5.035   4.086   3.392 -0.3578 -2.0376  0.5932
   84SLPC  C213 7974   4.987   4.045   3.588  0.2839 -0.0706  0.6352
   84SLPC  H13R 7975   5.020   3.941   3.573  2.5239  0.8122 -1.2166
   84SLPC  C214 7976   4.944   4.095   3.718  0.5537 -1.0408  0.6602
   84SLPC  H14R 7977   4.871   4.028   3.767  0.8453 -1.7192  0.1779
   84SLPC  H14S 7978   4.900   4.197   3.720  0.2544 -1.1844  2.2036
   84SLPC  C215 7979   5.062   4.087   3.817  0.0781 -0.1434  0.0312
   84SLPC  H15R 7980   5.044   4.151   3.906  1.5669 -1.0058  0.9947
   84SLPC  H15S 7981   5.154   4.135   3.778  1.3244 -1.4533  1.2516
   84SLPC  C216 7982   5.102   3.953   3.873  0.1427  0.3217  0.4469
   84SLPC  H16R 7983   5.171   3.898   3.806 -0.3236  0.8585 -0.4874
   84SLPC  H16S 7984   5.007   3.895   3.865  0.9268 -0.9305 -0.0583
   84SLPC  C217 7985   5.164   3.961   4.016  0.2401  0.3316 -0.3737
   84SLPC  H17R 7986   5.108   4.041   4.069  1.3719  0.4843  0.6314
   84SLPC  H17S 7987   5.261   4.015   4.018 -0.1165  1.0170  2.5656
   84SLPC  C218 7988   5.164   3.830   4.090  0.2574  0.2910 -1.1646
   84SLPC  H18R 7989   5.225   3.755   4.035  1.3425 -0.3409  0.8039
   84SLPC  H18S 7990   5.059   3.793   4.092  0.6275 -0.7903  0.8138
   84SLPC  H18T 7991   5.191   3.833   4.198  0.0643  0.2867 -1.1154
   84SLPC   C33 7992   4.194   4.652   2.531  0.0914 -0.5004 -0.1176
   84SLPC   H3X 7993   4.102   4.601   2.566  0.5978 -1.8788 -0.7127
   84SLPC   H3Y 7994   4.150   4.720   2.455 -1.1543 -1.3699 -0.1970
   84SLPC   C34 7995   4.249   4.733   2.652 -0.9431 -0.0586 -0.1382
   84SLPC   H4X 7996   4.180   4.810   2.693  0.8837  1.2944  0.5128
   84SLPC   H4Y 7997   4.343   4.779   2.615  1.0007 -1.5379  2.5430
   84SLPC   C35 7998   4.296   4.652   2.770  0.3621 -0.5354 -0.3608
   84SLPC   H5X 7999   4.370   4.580   2.730 -0.8685 -2.3322  0.4580
   84SLPC   H5Y 8000   4.206   4.591   2.795 -0.7290  1.2852  0.3781
   84SLPC   C36 8001   4.318   4.736   2.895 -0.7029 -0.1570  0.2118
   84SLPC   H6X 8002   4.225   4.796   2.910 -0.1406  0.3852  1.8079
   84SLPC   H6Y 8003   4.390   4.818   2.873 -1.7372  0.5029 -0.8013
   84SLPC   C37 8004   4.367   4.667   3.028  0.2909 -0.7461  0.2815
   84SLPC   H7X 8005   4.470   4.627   3.017  0.5065 -0.6166  1.6620
   84SLPC   H7Y 8006   4.289   4.590   3.046 -0.8110 -0.0210 -1.2142
   84SLPC   C38 8007   4.362   4.760   3.147 -0.0138 -0.4153  0.0926
   84SLPC   H8X 8008   4.263   4.811   3.144  0.8495  1.2885 -1.0628
   84SLPC   H8Y 8009   4.438   4.840   3.135  0.7059 -1.1379 -0.3025
   84SLPC   C39 8010   4.387   4.675   3.277 -0.9061 -0.5350  0.2575
   84SLPC   H9X 8011   4.497   4.666   3.292 -0.8081 -1.7316 -0.9611
   84SLPC   H9Y 8012   4.342   4.576   3.255 -0.9662 -0.6800  1.0011
   84SLPC  C310 8013   4.303   4.721   3.394  0.3188 -0.4710  0.4590
   84SLPC  H10X 8014   4.208   4.750   3.345  1.8978  1.0061 -1.9417
   84SLPC  H10Y 8015   4.335   4.821   3.430 -0.1453  0.0837 -0.6457
   84SLPC  C311 8016   4.301   4.619   3.514  0.4813 -0.7983 -0.2713
   84SLPC  H11X 8017   4.282   4.519   3.470 -1.5869 -0.6515  0.1624
   84SLPC  H11Y 8018   4.203   4.636   3.566 -0.4349 -1.0468 -1.8598
   84SLPC  C312 8019   4.425   4.623   3.607 -0.2703 -0.5235 -0.1334
   84SLPC  H12X 8020   4.424   4.722   3.658  2.3199  0.8130 -2.4100
   84SLPC  H12Y 8021   4.513   4.628   3.540 -0.2559  1.5841 -0.0117
   84SLPC  C313 8022   4.450   4.496   3.694 -0.0972 -0.1825  0.4959
   84SLPC  H13X 8023   4.430   4.413   3.623  1.2901  0.7458 -1.0559
   84SLPC  H13Y 8024   4.370   4.492   3.771 -0.8895 -0.0423 -0.3098
   84SLPC  C314 8025   4.590   4.483   3.749 -0.1933 -0.8904  0.6820
   84SLPC  H14X 8026   4.619   4.566   3.817  0.1223 -0.2597 -0.2032
   84SLPC  H14Y 8027   4.665   4.490   3.667 -0.3064  2.0486  0.7295
   84SLPC  C315 8028   4.601   4.339   3.804  0.1049  0.1229 -0.5583
   84SLPC  H15X 8029   4.706   4.324   3.838 -0.2016 -0.4151  0.1797
   84SLPC  H15Y 8030   4.586   4.263   3.725  1.4089 -1.7670  0.9294
   84SLPC  C316 8031   4.505   4.307   3.919  0.5274 -0.5078  0.5712
   84SLPC  H16X 8032   4.410   4.258   3.888  0.6318 -0.7287  0.5924
   84SLPC  H16Y 8033   4.494   4.405   3.968  3.2268  0.4573 -0.5387
   84SLPC  C317 8034   4.560   4.207   4.021 -0.3933  0.7756  0.8003
   84SLPC  H17X 8035   4.659   4.245   4.052 -0.5414  1.2278  0.7232
   84SLPC  H17Y 8036   4.576   4.112   3.966 -1.3868  1.5502 -0.9112
   84SLPC  C318 8037   4.464   4.167   4.135 -0.3474  0.3192 -0.0067
   84SLPC  H18X 8038   4.476   4.245   4.214  1.1678  1.6565 -1.4948
   84SLPC  H18Y 8039   4.488   4.065   4.173  0.8495  0.4655 -0.3545
   84SLPC  H18Z 8040   4.358   4.166   4.102 -0.5637 -0.3716  0.6670
   85SLPC     N 8041   2.691   4.700   2.056  0.0924  0.3633 -0.3863
   85SLPC   C13 8042   2.708   4.671   1.909  0.2406  0.7691 -0.0534
   85SLPC  H13A 8043   2.679   4.759   1.854 -0.5254  0.4844 -0.1283
   85SLPC  H13B 8044   2.805   4.630   1.885  0.2518  0.7538  0.0180
   85SLPC  H13C 8045   2.636   4.602   1.866 -1.0973  0.5466  2.3846
   85SLPC   C14 8046   2.669   4.583   2.149 -0.2733  0.0718 -0.0416
   85SLPC  H14A 8047   2.660   4.615   2.252  1.3050 -4.4255  1.7846
   85SLPC  H14B 8048   2.592   4.513   2.121 -2.2136  2.3299 -0.6902
   85SLPC  H14C 8049   2.758   4.525   2.170  0.0510  1.0792  1.5672
   85SLPC   C15 8050   2.561   4.769   2.067  0.2210 -0.4226  0.3766
   85SLPC  H15A 8051   2.477   4.705   2.043 -1.7067  2.7947 -2.0728
   85SLPC  H15B 8052   2.545   4.810   2.166 -0.1227  1.4123 -0.3992
   85SLPC  H15C 8053   2.549   4.852   1.999 -1.6808  0.5728  1.8398
   85SLPC   C12 8054   2.803   4.792   2.092 -0.2865  0.0939 -0.4164
   85SLPC  H12A 8055   2.804   4.862   2.011 -0.5654  0.3623 -0.1939
   85SLPC  H12B 8056   2.899   4.743   2.087 -0.1172  0.1581  1.4232
   85SLPC   C11 8057   2.807   4.862   2.229  0.0119 -0.5544 -0.1794
   85SLPC  H11A 8058   2.886   4.939   2.211 -0.1190 -0.9735 -2.8981
   85SLPC  H11B 8059   2.845   4.797   2.311  2.0550 -1.6334 -1.8846
   85SLPC     P 8060   2.664   5.079   2.224  0.3250  0.1171  0.2989
   85SLPC   O13 8061   2.771   5.127   2.130  0.0446  0.3451  0.1688
   85SLPC   O14 8062   2.528   5.088   2.171 -0.0246  0.0220 -0.1208
   85SLPC   O12 8063   2.686   4.925   2.258 -0.1051 -0.0964 -0.0459
   85SLPC   O11 8064   2.665   5.161   2.360 -0.4899  0.5472  0.4572
   85SLPC    C1 8065   2.741   5.120   2.475  0.4395  0.2876 -0.5481
   85SLPC    HA 8066   2.836   5.070   2.448  1.0202  0.7856  0.5195
   85SLPC    HB 8067   2.776   5.207   2.534 -0.0939 -0.8156  1.4863
   85SLPC    C2 8068   2.665   5.028   2.571  0.5984  0.3428 -0.1924
   85SLPC    HS 8069   2.657   4.937   2.508  1.1545  0.3373 -0.2634
   85SLPC   O21 8070   2.537   5.093   2.598 -0.3350  0.2206 -0.8370
   85SLPC   C21 8071   2.435   5.021   2.633 -0.5763  0.4017  0.1375
   85SLPC   O22 8072   2.428   4.896   2.617 -0.1813 -0.4512 -0.5092
   85SLPC   C22 8073   2.327   5.116   2.688 -0.2861 -1.0040 -0.3933
   85SLPC   H2R 8074   2.361   5.219   2.713 -1.9520  0.3214 -3.1247
   85SLPC   H2S 8075   2.264   5.134   2.598 -1.3499 -0.0880  0.4982
   85SLPC    C3 8076   2.745   4.991   2.696  0.2488  0.3116 -0.5034
   85SLPC    HX 8077   2.835   4.931   2.673 -0.4722 -1.4235  0.9382
   85SLPC    HY 8078   2.683   4.926   2.762  2.0610  0.0198  1.0098
   85SLPC   O31 8079   2.782   5.114   2.768 -0.2114 -0.1587 -0.5747
   85SLPC   C31 8080   2.837   5.086   2.892  0.0300 -0.0408  0.6032
   85SLPC   O32 8081   2.841   4.973   2.940  0.4087  0.2805  0.6311
   85SLPC   C32 8082   2.888   5.211   2.955 -0.1421  0.4847 -0.5325
   85SLPC   H2X 8083   2.911   5.286   2.876 -0.9217  0.0584 -1.1708
   85SLPC   H2Y 8084   2.976   5.181   3.017 -1.0646  1.9125  1.6278
   85SLPC   C23 8085   2.247   5.047   2.805  0.8569 -0.0026  0.2864
   85SLPC   H3R 8086   2.192   4.956   2.772  2.9377 -1.2477  0.0624
   85SLPC   H3S 8087   2.177   5.126   2.839  0.8323 -0.1127  0.4916
   85SLPC   C24 8088   2.342   5.013   2.914  0.0339  0.0492  0.2694
   85SLPC   H4R 8089   2.428   5.082   2.925  1.8511 -1.9960 -0.4043
   85SLPC   H4S 8090   2.396   4.920   2.886  1.0925  0.4604  0.9040
   85SLPC   C25 8091   2.273   5.008   3.046  1.2918  0.4787  0.2172
   85SLPC   H5R 8092   2.198   5.090   3.052  1.2707  0.3980  1.3452
   85SLPC   H5S 8093   2.209   4.918   3.056 -0.6205  1.6735 -0.6997
   85SLPC   C26 8094   2.367   5.017   3.174  0.8075  0.5610  0.4639
   85SLPC   H6R 8095   2.389   5.125   3.181 -0.3129  0.9504 -1.2482
   85SLPC   H6S 8096   2.458   4.958   3.151 -0.8247 -1.9236 -0.1073
   85SLPC   C27 8097   2.306   4.961   3.308 -0.5169 -0.1163  0.6118
   85SLPC   H7R 8098   2.297   4.853   3.284  0.4697 -0.0242 -0.1972
   85SLPC   H7S 8099   2.204   5.003   3.321 -0.8825  0.3874 -2.8667
   85SLPC   C28 8100   2.396   5.004   3.423  0.2210  0.5779 -0.4030
   85SLPC   H8R 8101   2.366   5.106   3.454 -1.6019 -0.1406  0.3301
   85SLPC   H8S 8102   2.498   5.002   3.379 -0.1679  0.5893 -1.3126
   85SLPC   C29 8103   2.389   4.903   3.542  0.6262 -0.4948 -0.8557
   85SLPC   H9R 8104   2.450   4.811   3.538 -0.0538 -0.9511 -0.9201
   85SLPC  C210 8105   2.302   4.912   3.644  0.2430  0.7566 -0.2693
   85SLPC  H10R 8106   2.298   4.833   3.720 -0.6505  3.2030  2.4421
   85SLPC  C211 8107   2.201   5.016   3.675 -0.1116 -0.0949 -0.6298
   85SLPC  H11R 8108   2.102   4.965   3.672 -0.6755  0.8753  0.4054
   85SLPC  H11S 8109   2.188   5.090   3.592  0.7913  0.8255  0.0291
   85SLPC  C212 8110   2.206   5.081   3.814  0.1102 -0.2161 -0.1833
   85SLPC  H12R 8111   2.305   5.115   3.849 -0.8023  0.0644  2.3385
   85SLPC  C213 8112   2.111   5.104   3.906 -1.0678 -0.0394 -0.1064
   85SLPC  H13R 8113   2.142   5.149   4.001 -1.0109  2.1109 -1.0630
   85SLPC  C214 8114   1.965   5.086   3.902  0.3262  0.1868  1.0311
   85SLPC  H14R 8115   1.941   5.013   3.981  0.3969 -0.6157  0.3270
   85SLPC  H14S 8116   1.935   5.049   3.801 -0.5316  1.3614  0.8378
   85SLPC  C215 8117   1.887   5.212   3.929  0.0724  0.1835 -0.6729
   85SLPC  H15R 8118   1.778   5.193   3.917  0.4340 -1.2375 -2.0746
   85SLPC  H15S 8119   1.917   5.287   3.853  0.4883  0.2475 -0.4498
   85SLPC  C216 8120   1.912   5.267   4.069 -0.2018 -0.3661  0.2428
   85SLPC  H16R 8121   1.872   5.370   4.079 -0.3734 -0.3388 -0.6114
   85SLPC  H16S 8122   2.019   5.288   4.092 -0.4184  1.7347 -0.4277
   85SLPC  C217 8123   1.861   5.175   4.177 -0.2523 -0.3906 -0.3084
   85SLPC  H17R 8124   1.913   5.076   4.172  0.8860  0.1281  0.5938
   85SLPC  H17S 8125   1.752   5.175   4.160  0.0264  0.6172 -2.2558
   85SLPC  C218 8126   1.906   5.235   4.311  0.1492  0.1294  0.0717
   85SLPC  H18R 8127   2.014   5.247   4.331  0.7478 -0.0981 -2.6580
   85SLPC  H18S 8128   1.856   5.169   4.385 -2.2014  2.5243  0.7815
   85SLPC  H18T 8129   1.868   5.338   4.328  0.1317  0.1721 -0.2228
   85SLPC   C33 8130   2.775   5.271   3.048 -0.0942 -0.2499  0.0416
   85SLPC   H3X 8131   2.676   5.248   3.004  0.4870 -0.9724 -0.9463
   85SLPC   H3Y 8132   2.789   5.380   3.062 -1.2926 -0.1303  0.3843
   85SLPC   C34 8133   2.803   5.220   3.189 -0.0950 -0.1470 -0.2996
   85SLPC   H4X 8134   2.910   5.226   3.219 -0.1242  1.3213 -0.4051
   85SLPC   H4Y 8135   2.783   5.111   3.186  1.5953 -0.4651 -1.1232
   85SLPC   C35 8136   2.722   5.292   3.298  0.6361  0.2467 -0.3752
   85SLPC   H5X 8137   2.619   5.251   3.292  0.2695  0.8710  1.1627
   85SLPC   H5Y 8138   2.722   5.402   3.286  0.5494  0.2145 -0.6685
   85SLPC   C36 8139   2.784   5.256   3.441 -0.0020  0.1347 -0.3798
   85SLPC   H6X 8140   2.747   5.341   3.503  0.0536 -0.0393 -0.1031
   85SLPC   H6Y 8141   2.894   5.267   3.439  0.4445 -2.0520  3.1036
   85SLPC   C37 8142   2.733   5.125   3.506 -0.3076 -0.7038  0.3857
   85SLPC   H7X 8143   2.752   5.040   3.436 -2.9869 -1.9644  1.0765
   85SLPC   H7Y 8144   2.622   5.126   3.516 -0.8618  1.9826 -3.4641
   85SLPC   C38 8145   2.800   5.107   3.645 -1.2139 -0.3254 -0.2969
   85SLPC   H8X 8146   2.782   5.202   3.700 -0.2732 -1.3918  1.9818
   85SLPC   H8Y 8147   2.910   5.101   3.625 -1.2657 -2.6433 -0.2262
   85SLPC   C39 8148   2.751   4.986   3.722 -1.5182 -0.0713  0.4862
   85SLPC   H9X 8149   2.782   4.897   3.663 -0.1057  0.8812 -0.2578
   85SLPC   H9Y 8150   2.640   4.992   3.733 -1.7079  0.7858 -1.4328
   85SLPC  C310 8151   2.816   4.985   3.857 -0.0992 -0.2527  0.3007
   85SLPC  H10X 8152   2.809   5.083   3.907  1.5990 -0.0072  0.1386
   85SLPC  H10Y 8153   2.925   4.963   3.848  0.8490  2.9577  2.4710
   85SLPC  C311 8154   2.757   4.875   3.949 -0.0950 -0.5712  0.0377
   85SLPC  H11X 8155   2.764   4.775   3.901  1.1126 -0.6761  0.3992
   85SLPC  H11Y 8156   2.648   4.883   3.970 -0.0134 -1.8264  1.0376
   85SLPC  C312 8157   2.849   4.850   4.077  0.4990 -0.2173 -0.1157
   85SLPC  H12X 8158   2.956   4.864   4.052  0.2628 -2.2091 -2.5443
   85SLPC  H12Y 8159   2.832   4.744   4.103  1.3205 -1.0442 -2.6774
   85SLPC  C313 8160   2.802   4.934   4.192  0.2966  0.2309  0.0518
   85SLPC  H13X 8161   2.706   4.901   4.237  0.7709  0.7879  1.5286
   85SLPC  H13Y 8162   2.776   5.038   4.163 -0.8672  0.4187  1.6202
   85SLPC  C314 8163   2.887   4.939   4.321 -0.8806  0.4868 -1.3126
   85SLPC  H14X 8164   2.825   4.989   4.398 -1.0787 -1.3407 -0.2302
   85SLPC  H14Y 8165   2.970   5.012   4.311  0.1459 -0.2621  1.0170
   85SLPC  C315 8166   2.936   4.800   4.373  0.2652 -0.1125 -0.3406
   85SLPC  H15X 8167   2.988   4.759   4.284  1.1314  0.7084 -0.2209
   85SLPC  H15Y 8168   2.847   4.740   4.403 -2.1982  2.9983 -0.9458
   85SLPC  C316 8169   3.029   4.807   4.491 -0.1129 -0.4874  0.2023
   85SLPC  H16X 8170   2.974   4.846   4.579 -2.2490 -0.3843 -1.0965
   85SLPC  H16Y 8171   3.108   4.879   4.462  1.9915 -2.2634  1.2744
   85SLPC  C317 8172   3.086   4.667   4.530  0.3365  0.2351 -0.3824
   85SLPC  H17X 8173   3.152   4.684   4.618  1.6252  0.0249 -1.2743
   85SLPC  H17Y 8174   3.148   4.628   4.447  2.6639  2.0121  0.3879
   85SLPC  C318 8175   2.986   4.558   4.572  0.3969  0.1513 -0.3780
   85SLPC  H18X 8176   2.914   4.545   4.488  1.2327  2.3092 -1.5096
   85SLPC  H18Y 8177   2.937   4.586   4.668  1.1247  0.9356 -0.2275
   85SLPC  H18Z 8178   3.059   4.476   4.588 -0.4533 -0.7714 -1.0972
   86SLPC     N 8179   2.709   1.122   1.687 -0.3042  0.2590  0.2730
   86SLPC   C13 8180   2.679   1.255   1.761 -0.7600  0.3289  0.0930
   86SLPC  H13A 8181   2.608   1.313   1.705  1.5488  3.5062  0.2056
   86SLPC  H13B 8182   2.647   1.224   1.859  0.4151 -1.9164 -0.1597
   86SLPC  H13C 8183   2.767   1.317   1.772 -3.4601  4.1784  2.4503
   86SLPC   C14 8184   2.793   1.154   1.570 -0.0624  0.0455 -0.7402
   86SLPC  H14A 8185   2.811   1.065   1.511  0.1548  0.3831 -1.1855
   86SLPC  H14B 8186   2.744   1.224   1.504 -2.2182 -0.3833  0.3242
   86SLPC  H14C 8187   2.885   1.200   1.602 -0.5590  0.2474  0.4489
   86SLPC   C15 8188   2.584   1.056   1.637 -0.3773 -0.2924  0.1340
   86SLPC  H15A 8189   2.599   0.979   1.564 -2.2212  0.1328 -0.7449
   86SLPC  H15B 8190   2.532   1.014   1.722  1.2233 -1.1450  0.7270
   86SLPC  H15C 8191   2.508   1.125   1.603 -1.9883 -1.6947  0.7205
   86SLPC   C12 8192   2.795   1.030   1.781  0.2171  0.4427  1.0336
   86SLPC  H12A 8193   2.897   1.066   1.790 -0.0349  1.3320  0.5234
   86SLPC  H12B 8194   2.819   0.937   1.731 -0.7230 -0.0243  1.4276
   86SLPC   C11 8195   2.740   1.011   1.923 -0.2158  0.2196  0.1679
   86SLPC  H11A 8196   2.743   1.108   1.978  0.0996  0.2144  0.1608
   86SLPC  H11B 8197   2.820   0.944   1.961 -0.7256 -0.1382  0.6131
   86SLPC     P 8198   2.531   0.923   2.051  0.3176  0.0792  0.0830
   86SLPC   O13 8199   2.475   1.050   2.110 -0.5052  0.2750  0.4318
   86SLPC   O14 8200   2.434   0.809   2.034  0.2605  0.2427  0.2200
   86SLPC   O12 8201   2.610   0.948   1.917  0.0610 -0.3868 -0.3124
   86SLPC   O11 8202   2.640   0.872   2.153 -0.3633 -0.4817 -0.5867
   86SLPC    C1 8203   2.700   0.738   2.127 -0.0999  0.1162  1.1671
   86SLPC    HA 8204   2.685   0.705   2.022 -0.4284  1.9028  0.6259
   86SLPC    HB 8205   2.809   0.744   2.147 -0.2215  0.4936  1.7599
   86SLPC    C2 8206   2.640   0.636   2.227  0.0046 -0.2224 -0.7670
   86SLPC    HS 8207   2.529   0.638   2.213  0.0142 -1.3095 -1.1061
   86SLPC   O21 8208   2.687   0.670   2.361 -0.4477  0.4058 -0.3807
   86SLPC   C21 8209   2.599   0.708   2.449 -0.1856  0.0997 -0.5470
   86SLPC   O22 8210   2.477   0.714   2.436 -0.3023  0.3954 -1.1002
   86SLPC   C22 8211   2.675   0.726   2.579  0.0280 -0.0640  0.0673
   86SLPC   H2R 8212   2.776   0.679   2.569  1.3188  1.8230  2.7809
   86SLPC   H2S 8213   2.687   0.836   2.585 -2.0451  0.1405  1.3057
   86SLPC    C3 8214   2.683   0.487   2.203  0.4739  0.2414  0.3815
   86SLPC    HX 8215   2.791   0.479   2.178  0.8068  2.1125  1.0123
   86SLPC    HY 8216   2.621   0.458   2.116 -2.1553  0.4992  2.0396
   86SLPC   O31 8217   2.643   0.408   2.321 -0.0227 -0.1569 -0.2489
   86SLPC   C31 8218   2.741   0.370   2.392  0.2326 -0.5115 -0.6191
   86SLPC   O32 8219   2.856   0.400   2.377 -0.2736 -0.0450 -0.1961
   86SLPC   C32 8220   2.690   0.273   2.503 -1.4299 -0.0397 -0.7807
   86SLPC   H2X 8221   2.746   0.177   2.509  0.5544  1.0276 -1.4812
   86SLPC   H2Y 8222   2.581   0.263   2.482 -1.3259  0.2063 -1.4556
   86SLPC   C23 8223   2.591   0.682   2.705 -0.4180  0.0430  0.5991
   86SLPC   H3R 8224   2.543   0.583   2.689  1.2606 -0.5499 -1.1288
   86SLPC   H3S 8225   2.502   0.747   2.719 -1.4690 -1.3389  0.5046
   86SLPC   C24 8226   2.683   0.684   2.829  0.7233 -0.1763 -0.2031
   86SLPC   H4R 8227   2.791   0.663   2.812  0.3698 -2.4882  0.0312
   86SLPC   H4S 8228   2.642   0.608   2.900  1.3709  1.0254  1.5152
   86SLPC   C25 8229   2.689   0.821   2.905 -0.6987  0.0562 -0.6585
   86SLPC   H5R 8230   2.587   0.842   2.943 -0.4571 -2.7917  1.9634
   86SLPC   H5S 8231   2.728   0.887   2.824  2.1355 -0.5064  0.1317
   86SLPC   C26 8232   2.773   0.832   3.026 -0.2351 -0.0310 -0.0455
   86SLPC   H6R 8233   2.879   0.856   3.002 -0.9405  1.1860 -2.1779
   86SLPC   H6S 8234   2.780   0.731   3.073  2.9957  0.1214  0.0638
   86SLPC   C27 8235   2.721   0.936   3.127 -0.2065 -0.0155 -0.0083
   86SLPC   H7R 8236   2.621   0.901   3.163 -0.1509 -0.3855 -0.2041
   86SLPC   H7S 8237   2.698   1.034   3.080  0.2350 -0.4619 -1.1861
   86SLPC   C28 8238   2.809   0.954   3.255  0.2775  0.2484  0.6835
   86SLPC   H8R 8239   2.908   0.990   3.221  1.1102 -2.4821  0.0071
   86SLPC   H8S 8240   2.814   0.848   3.285 -2.3148 -0.0656  0.2391
   86SLPC   C29 8241   2.764   1.056   3.364  1.0161 -0.3355  0.0234
   86SLPC   H9R 8242   2.720   1.006   3.452 -0.0368  0.6114  0.0520
   86SLPC  C210 8243   2.800   1.184   3.370  0.4233  0.0819 -0.3600
   86SLPC  H10R 8244   2.751   1.248   3.446  0.6035 -1.0878  0.7819
   86SLPC  C211 8245   2.893   1.253   3.266 -1.1594 -0.7035  0.1559
   86SLPC  H11R 8246   2.977   1.189   3.232 -0.0648  0.7649 -0.0122
   86SLPC  H11S 8247   2.936   1.342   3.318 -2.3755  0.8706 -1.3757
   86SLPC  C212 8248   2.807   1.306   3.146 -0.0102  0.4621 -0.0382
   86SLPC  H12R 8249   2.717   1.244   3.132  0.7931 -0.6175 -0.6876
   86SLPC  C213 8250   2.826   1.405   3.056  0.0369  0.7300  0.6827
   86SLPC  H13R 8251   2.743   1.417   2.985  0.0205  1.5707  0.8339
   86SLPC  C214 8252   2.941   1.496   3.046 -0.0682  0.3049 -0.2497
   86SLPC  H14R 8253   3.025   1.474   3.116  0.1242 -0.0660 -0.5904
   86SLPC  H14S 8254   2.902   1.598   3.063  1.1089  0.8028 -0.4064
   86SLPC  C215 8255   3.000   1.490   2.902 -0.2338 -0.6924 -0.5027
   86SLPC  H15R 8256   3.031   1.387   2.878  0.8574 -0.7081  0.8622
   86SLPC  H15S 8257   3.090   1.552   2.923 -0.6468 -0.8621  2.0956
   86SLPC  C216 8258   2.939   1.552   2.777  0.5118  0.1705 -0.6886
   86SLPC  H16R 8259   2.923   1.661   2.791  2.6843  0.2922  1.4608
   86SLPC  H16S 8260   2.843   1.501   2.753 -1.0516  2.5961  0.0913
   86SLPC  C217 8261   3.022   1.542   2.648  0.5081 -0.1269  0.4787
   86SLPC  H17R 8262   2.974   1.606   2.571  1.2877  1.1505  1.0386
   86SLPC  H17S 8263   3.028   1.438   2.609  2.1555  0.1750 -0.1601
   86SLPC  C218 8264   3.161   1.602   2.658 -0.4786 -0.4420 -0.0399
   86SLPC  H18R 8265   3.205   1.620   2.557 -1.8154 -1.2536 -0.7956
   86SLPC  H18S 8266   3.240   1.541   2.707  0.6517  0.8728 -0.1684
   86SLPC  H18T 8267   3.151   1.695   2.717  0.1592 -0.7935  0.6402
   86SLPC   C33 8268   2.719   0.349   2.636 -0.4229  0.6264 -0.4201
   86SLPC   H3X 8269   2.637   0.422   2.652 -1.4452 -0.5613 -0.0435
   86SLPC   H3Y 8270   2.821   0.393   2.643 -0.1775  0.1624 -0.9330
   86SLPC   C34 8271   2.695   0.248   2.749 -0.9166  0.6389 -0.5120
   86SLPC   H4X 8272   2.760   0.164   2.717  0.2429  1.6338 -0.8814
   86SLPC   H4Y 8273   2.590   0.213   2.747 -0.4301 -1.1044  1.1254
   86SLPC   C35 8274   2.735   0.295   2.888  0.1228 -0.3022  0.1684
   86SLPC   H5X 8275   2.698   0.396   2.913  0.9449 -0.5067  2.5346
   86SLPC   H5Y 8276   2.846   0.303   2.896  0.0954 -1.1209  2.2313
   86SLPC   C36 8277   2.697   0.202   3.007  0.3002  0.4106 -0.4249
   86SLPC   H6X 8278   2.736   0.104   2.972  0.7962  0.1592  0.7876
   86SLPC   H6Y 8279   2.586   0.206   3.007  0.1949  0.8135 -4.1985
   86SLPC   C37 8280   2.772   0.251   3.131  0.2391 -0.0488  0.2162
   86SLPC   H7X 8281   2.749   0.356   3.155  0.8437  0.4330 -1.1961
   86SLPC   H7Y 8282   2.883   0.244   3.127  0.3633  0.7386  1.6960
   86SLPC   C38 8283   2.724   0.176   3.262  0.2178  0.2841 -0.1760
   86SLPC   H8X 8284   2.754   0.073   3.236 -0.7572 -0.0617  0.0177
   86SLPC   H8Y 8285   2.614   0.188   3.275  0.2162  0.4111 -0.3013
   86SLPC   C39 8286   2.790   0.224   3.389  0.2273  0.8861 -0.3008
   86SLPC   H9X 8287   2.791   0.335   3.382 -2.4881  0.9701 -0.3788
   86SLPC   H9Y 8288   2.893   0.182   3.385 -1.0397 -2.4402 -1.5910
   86SLPC  C310 8289   2.701   0.180   3.504  0.9742  0.3480  0.2371
   86SLPC  H10X 8290   2.711   0.073   3.534 -3.2663  0.0023  1.1354
   86SLPC  H10Y 8291   2.592   0.189   3.484  0.6786 -2.0275  0.4325
   86SLPC  C311 8292   2.728   0.254   3.638  0.4770 -0.7720 -0.3885
   86SLPC  H11X 8293   2.750   0.362   3.623 -0.2730 -0.0629  2.7811
   86SLPC  H11Y 8294   2.826   0.227   3.683  0.7672  3.5717  2.1847
   86SLPC  C312 8295   2.621   0.233   3.744  0.0142 -0.4573  0.1321
   86SLPC  H12X 8296   2.606   0.126   3.768  0.7030 -0.5262  0.2800
   86SLPC  H12Y 8297   2.522   0.272   3.713  0.4396 -0.1048 -0.8228
   86SLPC  C313 8298   2.650   0.315   3.867  0.1452  0.2556  0.2796
   86SLPC  H13X 8299   2.669   0.420   3.836  2.0993 -0.1434  0.0452
   86SLPC  H13Y 8300   2.743   0.271   3.909 -0.2701  1.9931  3.3073
   86SLPC  C314 8301   2.534   0.323   3.970 -0.2325  0.1366  0.0023
   86SLPC  H14X 8302   2.519   0.219   4.005  2.5044 -0.6868 -0.9761
   86SLPC  H14Y 8303   2.444   0.364   3.920 -0.2910 -1.3058 -1.1253
   86SLPC  C315 8304   2.566   0.398   4.101 -0.6478  0.1948  0.3603
   86SLPC  H15X 8305   2.677   0.386   4.104 -0.8018 -1.5443  0.2051
   86SLPC  H15Y 8306   2.514   0.348   4.186 -1.5514  0.7345  0.1272
   86SLPC  C316 8307   2.514   0.539   4.087  0.7410 -0.2820  0.0750
   86SLPC  H16X 8308   2.404   0.539   4.071  0.4183  1.7947  1.7736
   86SLPC  H16Y 8309   2.563   0.586   3.999  0.3625  1.1250  0.5766
   86SLPC  C317 8310   2.539   0.637   4.203 -0.8036  0.8964 -0.2511
   86SLPC  H17X 8311   2.525   0.735   4.153  2.7780  0.6795 -2.0301
   86SLPC  H17Y 8312   2.648   0.641   4.226 -1.1418  1.5433  1.3091
   86SLPC  C318 8313   2.434   0.616   4.315 -1.0420 -0.2521 -0.3380
   86SLPC  H18X 8314   2.337   0.648   4.271 -0.8147  0.0849 -0.6014
   86SLPC  H18Y 8315   2.459   0.684   4.400  0.6273 -1.8238  0.5101
   86SLPC  H18Z 8316   2.443   0.510   4.347  0.7892 -0.3570 -1.0560
   87SLPC     N 8317   3.289   1.587   2.075  0.1389  0.8864  0.2722
   87SLPC   C13 8318   3.418   1.513   2.098  0.8261 -0.3571 -0.6502
   87SLPC  H13A 8319   3.405   1.464   2.193  3.8980 -1.9263 -0.9092
   87SLPC  H13B 8320   3.431   1.443   2.018 -1.8315  1.0854 -2.4716
   87SLPC  H13C 8321   3.501   1.582   2.105  0.3084  0.2999 -0.8598
   87SLPC   C14 8322   3.189   1.473   2.044 -0.4992  0.0372  0.0772
   87SLPC  H14A 8323   3.228   1.414   1.963 -0.8097  0.7247 -0.5871
   87SLPC  H14B 8324   3.175   1.406   2.128  1.1577 -0.4807 -0.0274
   87SLPC  H14C 8325   3.099   1.524   2.010 -1.6075 -1.4678  0.6586
   87SLPC   C15 8326   3.292   1.675   1.957 -0.4388 -0.5695  0.5385
   87SLPC  H15A 8327   3.387   1.726   1.948 -1.9763  2.5060  0.3645
   87SLPC  H15B 8328   3.288   1.612   1.870  0.6693 -1.4584  1.1071
   87SLPC  H15C 8329   3.209   1.744   1.952  1.4261  1.6885 -1.7702
   87SLPC   C12 8330   3.236   1.652   2.200  0.4396  0.9351 -0.1457
   87SLPC  H12A 8331   3.299   1.738   2.219  0.4510  0.8107  0.4050
   87SLPC  H12B 8332   3.241   1.585   2.285  0.9419 -0.2072 -1.0469
   87SLPC   C11 8333   3.085   1.695   2.204  0.0202  0.0184 -0.1073
   87SLPC  H11A 8334   3.071   1.752   2.298  1.0152  1.9557 -1.0636
   87SLPC  H11B 8335   3.022   1.604   2.209  2.3268 -1.6603 -0.4615
   87SLPC     P 8336   3.093   1.935   2.097 -0.0873 -0.2246  0.0200
   87SLPC   O13 8337   3.228   1.948   2.157  0.1701  0.0147 -0.0680
   87SLPC   O14 8338   3.066   1.991   1.958 -0.0900 -0.1816 -0.2607
   87SLPC   O12 8339   3.054   1.784   2.090  0.8692  0.2966  0.5051
   87SLPC   O11 8340   2.994   2.002   2.202  0.0502 -0.0264 -0.0543
   87SLPC    C1 8341   2.861   1.954   2.202  0.3843  0.2935  0.9651
   87SLPC    HA 8342   2.809   1.992   2.111 -0.3801  1.5688  1.9002
   87SLPC    HB 8343   2.852   1.843   2.210  1.3388  0.1427  0.0913
   87SLPC    C2 8344   2.786   1.997   2.335  0.1539  1.0214 -0.1653
   87SLPC    HS 8345   2.684   1.956   2.320  0.0907  1.1175  0.0037
   87SLPC   O21 8346   2.785   2.141   2.343  0.0740 -0.1208 -0.0710
   87SLPC   C21 8347   2.677   2.182   2.412 -0.9718 -0.4094  0.2730
   87SLPC   O22 8348   2.593   2.108   2.455  0.4820 -0.0497 -0.3300
   87SLPC   C22 8349   2.673   2.329   2.410  0.2258  0.8105 -0.2948
   87SLPC   H2R 8350   2.694   2.359   2.306  0.5132 -0.1215 -0.5103
   87SLPC   H2S 8351   2.571   2.359   2.443 -0.0424  0.1902 -0.5535
   87SLPC    C3 8352   2.852   1.935   2.465 -0.3835 -0.0971  0.8990
   87SLPC    HX 8353   2.959   1.962   2.456 -0.4308  0.0754  0.8501
   87SLPC    HY 8354   2.844   1.825   2.446 -0.7241 -0.1241  1.1927
   87SLPC   O31 8355   2.795   1.971   2.590 -0.0888  0.7765 -0.2013
   87SLPC   C31 8356   2.880   1.982   2.691 -0.2154  0.3934 -0.0627
   87SLPC   O32 8357   3.001   1.986   2.694 -0.9692  0.5037 -0.2540
   87SLPC   C32 8358   2.788   1.992   2.817  0.2292  0.1500 -0.5584
   87SLPC   H2X 8359   2.710   1.914   2.823  1.0391 -0.6994 -0.8361
   87SLPC   H2Y 8360   2.725   2.083   2.814 -1.6049 -1.0582 -0.0004
   87SLPC   C23 8361   2.774   2.389   2.515  0.0917 -0.1709 -0.1436
   87SLPC   H3R 8362   2.770   2.500   2.513 -1.3868 -0.1460  1.4550
   87SLPC   H3S 8363   2.880   2.361   2.496 -0.1425  0.5394 -2.9386
   87SLPC   C24 8364   2.725   2.353   2.661 -0.8036 -0.6278 -0.3238
   87SLPC   H4R 8365   2.762   2.250   2.681 -0.0134 -0.6405 -1.7169
   87SLPC   H4S 8366   2.614   2.349   2.665 -0.8643 -1.7108 -2.0413
   87SLPC   C25 8367   2.786   2.445   2.769  0.6042  0.1269 -0.1653
   87SLPC   H5R 8368   2.716   2.470   2.852  1.3752  0.5192  0.3945
   87SLPC   H5S 8369   2.806   2.543   2.720  0.2646  0.3932  0.2225
   87SLPC   C26 8370   2.915   2.389   2.839 -0.0859 -0.4312 -0.2715
   87SLPC   H6R 8371   2.997   2.385   2.764  1.2380 -0.1027  1.1061
   87SLPC   H6S 8372   2.905   2.285   2.878  0.9112 -0.0240  1.1928
   87SLPC   C27 8373   2.954   2.482   2.956 -0.5706 -0.2839  0.1813
   87SLPC   H7R 8374   2.879   2.456   3.034 -0.4259  0.0078  0.4206
   87SLPC   H7S 8375   2.931   2.587   2.931  0.4699  0.0883  0.7459
   87SLPC   C28 8376   3.098   2.467   3.001  0.1392 -0.1776  0.1713
   87SLPC   H8R 8377   3.136   2.546   3.069  0.9885 -1.7851  1.6312
   87SLPC   H8S 8378   3.173   2.459   2.919  1.5153  1.3859  1.2114
   87SLPC   C29 8379   3.124   2.337   3.072 -0.0656  0.5891 -0.6529
   87SLPC   H9R 8380   3.125   2.251   3.004  1.3179  0.8572 -1.0051
   87SLPC  C210 8381   3.125   2.313   3.206 -0.0269  0.6480 -0.0118
   87SLPC  H10R 8382   3.134   2.207   3.236 -1.3662  1.1835  2.5777
   87SLPC  C211 8383   3.115   2.420   3.317 -0.1550 -0.3995 -0.3620
   87SLPC  H11R 8384   3.027   2.387   3.375 -0.8949  0.2605 -1.0886
   87SLPC  H11S 8385   3.081   2.511   3.263  0.9768 -0.6119 -1.4988
   87SLPC  C212 8386   3.235   2.435   3.409  0.6828  0.0946 -0.2896
   87SLPC  H12R 8387   3.304   2.350   3.393  0.5694  0.3306 -2.2747
   87SLPC  C213 8388   3.258   2.535   3.494  0.2361  0.2386  0.3086
   87SLPC  H13R 8389   3.355   2.539   3.547  0.4327 -0.4948  0.0068
   87SLPC  C214 8390   3.176   2.664   3.511  0.2428 -0.0202  0.6170
   87SLPC  H14R 8391   3.111   2.679   3.422  0.8460 -0.3370  0.1149
   87SLPC  H14S 8392   3.235   2.757   3.527  2.6736 -0.8601 -2.4196
   87SLPC  C215 8393   3.088   2.653   3.629  0.0263  0.1968  0.1255
   87SLPC  H15R 8394   3.156   2.677   3.714 -1.1748  0.2429  1.1013
   87SLPC  H15S 8395   3.052   2.550   3.648 -1.4295  0.1972 -2.2254
   87SLPC  C216 8396   2.972   2.755   3.632  0.3312  0.4485  0.4392
   87SLPC  H16R 8397   2.893   2.740   3.556  0.0429  1.3913  0.5373
   87SLPC  H16S 8398   3.015   2.855   3.609  1.9860 -0.3487 -0.1345
   87SLPC  C217 8399   2.901   2.746   3.770 -0.0353 -0.4194  0.3485
   87SLPC  H17R 8400   2.987   2.767   3.837  0.4586 -2.2994  0.3630
   87SLPC  H17S 8401   2.872   2.640   3.791 -2.5800  0.2936  0.7473
   87SLPC  C218 8402   2.780   2.837   3.782 -0.2742  1.0935 -0.5481
   87SLPC  H18R 8403   2.698   2.822   3.707  2.7365 -1.1102 -3.7383
   87SLPC  H18S 8404   2.816   2.938   3.752 -2.5891  2.5220  1.1905
   87SLPC  H18T 8405   2.734   2.844   3.883  0.7959  0.1986  0.0239
   87SLPC   C33 8406   2.872   1.992   2.943  0.3938  0.4028 -0.0513
   87SLPC   H3X 8407   2.961   2.059   2.935  1.3531 -1.0780 -3.9634
   87SLPC   H3Y 8408   2.905   1.889   2.967 -1.6720 -0.2580  0.2157
   87SLPC   C34 8409   2.789   2.039   3.059  0.1176 -0.5005 -0.2012
   87SLPC   H4X 8410   2.694   1.981   3.056 -1.3720  1.8002 -0.4223
   87SLPC   H4Y 8411   2.754   2.144   3.045  2.1729  0.1720 -0.6274
   87SLPC   C35 8412   2.859   2.039   3.189 -0.5495 -0.1399 -0.5961
   87SLPC   H5X 8413   2.962   2.071   3.164 -0.8530  1.2587 -0.1598
   87SLPC   H5Y 8414   2.857   1.936   3.230 -1.1567 -0.2607 -0.9157
   87SLPC   C36 8415   2.800   2.138   3.288 -0.8041  0.8892 -0.3464
   87SLPC   H6X 8416   2.691   2.114   3.286 -0.6347  0.1137 -1.0332
   87SLPC   H6Y 8417   2.829   2.238   3.250  0.2022  1.3894  1.6289
   87SLPC   C37 8418   2.864   2.141   3.438 -0.1860 -0.3934  0.3687
   87SLPC   H7X 8419   2.972   2.157   3.420 -0.5251 -1.2050 -3.0712
   87SLPC   H7Y 8420   2.841   2.037   3.469  0.7453 -1.0787 -1.0838
   87SLPC   C38 8421   2.809   2.255   3.527  0.3169  0.5524  0.2939
   87SLPC   H8X 8422   2.698   2.253   3.537  0.3787 -2.2332  1.4136
   87SLPC   H8Y 8423   2.840   2.354   3.490 -0.5312  0.4365 -0.7739
   87SLPC   C39 8424   2.859   2.239   3.672 -0.6250  0.5109 -0.3760
   87SLPC   H9X 8425   2.968   2.257   3.671 -0.3641 -0.7698  1.0740
   87SLPC   H9Y 8426   2.839   2.132   3.697  1.5840 -0.1822 -1.3405
   87SLPC  C310 8427   2.791   2.322   3.780  0.6769 -0.5340 -0.0769
   87SLPC  H10X 8428   2.681   2.319   3.766  0.5686 -1.4321  0.8122
   87SLPC  H10Y 8429   2.812   2.428   3.753 -1.9252  0.4733  1.3677
   87SLPC  C311 8430   2.839   2.284   3.921 -0.7090  0.0517  0.0924
   87SLPC  H11X 8431   2.948   2.305   3.933 -0.6282  0.3322 -1.0195
   87SLPC  H11Y 8432   2.841   2.174   3.935  1.3379  0.0143 -0.1267
   87SLPC  C312 8433   2.771   2.356   4.035 -0.7428  0.0572 -0.8807
   87SLPC  H12X 8434   2.801   2.292   4.120  0.6726 -0.0496 -1.4198
   87SLPC  H12Y 8435   2.660   2.359   4.030 -0.9657  3.6707  2.1926
   87SLPC  C313 8436   2.826   2.501   4.054  0.2640 -0.1485 -0.6453
   87SLPC  H13X 8437   2.835   2.546   3.952  0.0199  0.9337 -0.2080
   87SLPC  H13Y 8438   2.931   2.501   4.092  0.2795  0.3512 -0.6842
   87SLPC  C314 8439   2.736   2.597   4.133  0.3376 -0.2814 -0.8133
   87SLPC  H14X 8440   2.640   2.609   4.079  1.8504 -1.4269 -4.0631
   87SLPC  H14Y 8441   2.798   2.689   4.130  1.5125 -1.0713 -1.4084
   87SLPC  C315 8442   2.709   2.551   4.275  0.0945  1.2405 -0.3575
   87SLPC  H15X 8443   2.640   2.463   4.269  2.1346 -0.4140 -0.6362
   87SLPC  H15Y 8444   2.665   2.638   4.327 -1.0734  0.2940  0.3024
   87SLPC  C316 8445   2.831   2.509   4.353 -0.0262 -0.4636 -0.0576
   87SLPC  H16X 8446   2.905   2.592   4.359  0.7548 -1.0380 -1.2341
   87SLPC  H16Y 8447   2.887   2.421   4.314 -1.2995 -1.4679  0.3337
   87SLPC  C317 8448   2.797   2.468   4.501  0.6569 -0.1382  0.3057
   87SLPC  H17X 8449   2.892   2.452   4.556  0.6871 -0.3510  0.1911
   87SLPC  H17Y 8450   2.742   2.372   4.509  0.6463 -0.0595  1.1886
   87SLPC  C318 8451   2.717   2.573   4.575 -0.3950  0.3541  0.2389
   87SLPC  H18X 8452   2.765   2.673   4.576  1.5217 -0.4970 -0.7620
   87SLPC  H18Y 8453   2.712   2.543   4.681  0.9042 -2.8926 -0.5178
   87SLPC  H18Z 8454   2.611   2.580   4.541 -0.0009  0.4147 -1.0493
   88SLPC     N 8455   2.763   6.552   1.688 -0.2480 -0.1993 -0.8223
   88SLPC   C13 8456   2.833   6.617   1.575  0.3366 -0.7974 -0.1903
   88SLPC  H13A 8457   2.802   6.718   1.553  0.3383 -0.8855 -0.6143
   88SLPC  H13B 8458   2.934   6.628   1.611  0.0284  0.2035  0.3990
   88SLPC  H13C 8459   2.841   6.564   1.481  1.1093  0.1336 -0.6780
   88SLPC   C14 8460   2.808   6.405   1.696 -0.3712  0.4450  0.1501
   88SLPC  H14A 8461   2.769   6.364   1.787  0.1941  0.7825  0.5536
   88SLPC  H14B 8462   2.786   6.345   1.609  2.3238 -0.6302  0.1050
   88SLPC  H14C 8463   2.916   6.397   1.700 -0.4587 -0.2918  1.4253
   88SLPC   C15 8464   2.616   6.551   1.652  0.1641 -0.0740 -0.0726
   88SLPC  H15A 8465   2.560   6.483   1.714  0.8149  0.4252  1.1137
   88SLPC  H15B 8466   2.564   6.646   1.653 -1.3425 -0.8700  0.1755
   88SLPC  H15C 8467   2.603   6.511   1.553 -0.5268 -1.0286  0.3897
   88SLPC   C12 8468   2.793   6.620   1.814 -0.0006 -0.0344 -0.0246
   88SLPC  H12A 8469   2.750   6.571   1.900  2.2723  1.8163  2.3407
   88SLPC  H12B 8470   2.749   6.717   1.797  1.4356  0.3041 -2.2335
   88SLPC   C11 8471   2.947   6.645   1.859  0.0172  0.4173 -0.2731
   88SLPC  H11A 8472   2.989   6.542   1.852  0.4034  0.6320 -1.1944
   88SLPC  H11B 8473   2.948   6.668   1.968 -2.0337 -1.9027  0.3287
   88SLPC     P 8474   2.997   6.891   1.776 -0.5275 -0.1233  0.1006
   88SLPC   O13 8475   3.104   6.951   1.698 -0.7113 -0.2815  0.3900
   88SLPC   O14 8476   2.857   6.925   1.747  0.4660  0.5489 -0.3727
   88SLPC   O12 8477   3.012   6.731   1.764 -0.5934  0.8145 -0.7882
   88SLPC   O11 8478   3.037   6.906   1.927 -0.0551  0.1218 -0.6828
   88SLPC    C1 8479   3.172   6.891   1.967 -0.2125  0.0852 -0.4948
   88SLPC    HA 8480   3.227   6.822   1.899  1.0119  1.6532 -1.1478
   88SLPC    HB 8481   3.234   6.983   1.961 -0.7307  0.3524 -3.7812
   88SLPC    C2 8482   3.179   6.846   2.112  0.5763  0.1641 -0.6004
   88SLPC    HS 8483   3.283   6.863   2.147 -0.4053  1.2517  2.0355
   88SLPC   O21 8484   3.131   6.712   2.131  0.1157  0.2176  0.0929
   88SLPC   C21 8485   3.210   6.620   2.099  0.8015  0.6556  0.0929
   88SLPC   O22 8486   3.325   6.630   2.060  0.2185 -0.0944  0.0548
   88SLPC   C22 8487   3.141   6.480   2.122  0.2101 -0.1995  0.6376
   88SLPC   H2R 8488   3.034   6.494   2.145  0.0501  1.7221 -0.9969
   88SLPC   H2S 8489   3.149   6.424   2.026 -0.6641 -1.4650  1.2654
   88SLPC    C3 8490   3.096   6.933   2.209 -0.0129  0.1011 -0.0496
   88SLPC    HX 8491   2.996   6.947   2.163 -1.3019 -0.5146  2.3967
   88SLPC    HY 8492   3.149   7.030   2.196  0.9037 -0.4291 -0.4090
   88SLPC   O31 8493   3.093   6.886   2.345  0.0119 -0.4568  0.0053
   88SLPC   C31 8494   2.980   6.844   2.393  0.2106  0.0201 -0.1624
   88SLPC   O32 8495   2.871   6.846   2.340 -0.1905  0.3890 -0.0997
   88SLPC   C32 8496   3.007   6.801   2.542  0.2603 -0.7210  0.5960
   88SLPC   H2X 8497   2.982   6.893   2.600  1.5755 -0.6470  1.0708
   88SLPC   H2Y 8498   3.113   6.771   2.556  0.4726  0.1240  0.8821
   88SLPC   C23 8499   3.199   6.399   2.241 -0.5409 -1.0750  0.3858
   88SLPC   H3R 8500   3.303   6.379   2.209 -0.6719  0.8211 -1.4417
   88SLPC   H3S 8501   3.139   6.306   2.253 -0.5861 -1.5718 -2.7430
   88SLPC   C24 8502   3.203   6.468   2.371 -0.2056 -0.5190 -0.9018
   88SLPC   H4R 8503   3.114   6.531   2.392 -1.1158 -1.9432 -0.3686
   88SLPC   H4S 8504   3.289   6.538   2.364  0.1734 -0.9415 -0.4962
   88SLPC   C25 8505   3.215   6.374   2.490 -0.6277 -0.2411 -0.1522
   88SLPC   H5R 8506   3.290   6.295   2.468 -0.3172  0.2361 -0.8336
   88SLPC   H5S 8507   3.114   6.332   2.510 -0.8513 -0.1744 -1.0947
   88SLPC   C26 8508   3.277   6.456   2.598  0.2352 -0.9058 -0.1992
   88SLPC   H6R 8509   3.221   6.550   2.614 -1.0125 -1.4915 -0.9809
   88SLPC   H6S 8510   3.383   6.483   2.575 -0.6141 -0.1073 -3.8088
   88SLPC   C27 8511   3.270   6.394   2.737 -1.2338 -0.5017 -0.3178
   88SLPC   H7R 8512   3.335   6.304   2.742  2.4921  1.8098 -2.1735
   88SLPC   H7S 8513   3.160   6.384   2.749 -1.3753 -0.1657 -1.2191
   88SLPC   C28 8514   3.313   6.483   2.859 -0.1035  0.5184 -0.1735
   88SLPC   H8R 8515   3.255   6.577   2.860 -1.7068 -0.4310 -0.1512
   88SLPC   H8S 8516   3.419   6.516   2.862 -0.3913  1.4980 -0.4625
   88SLPC   C29 8517   3.279   6.413   2.989 -0.1052 -0.0216 -0.3553
   88SLPC   H9R 8518   3.199   6.338   2.986 -1.6085  1.4142  1.5775
   88SLPC  C210 8519   3.315   6.459   3.104  0.5720 -0.2142  0.4480
   88SLPC  H10R 8520   3.281   6.405   3.194 -0.5181 -0.5210 -0.1359
   88SLPC  C211 8521   3.400   6.576   3.126  0.1504  0.1605  0.3543
   88SLPC  H11R 8522   3.414   6.638   3.035 -1.8837  0.2128  0.0239
   88SLPC  H11S 8523   3.498   6.529   3.148  0.1967 -0.3515 -0.8514
   88SLPC  C212 8524   3.350   6.660   3.240  0.8640 -0.0996 -0.9023
   88SLPC  H12R 8525   3.302   6.756   3.217  0.0227  0.2235  1.8823
   88SLPC  C213 8526   3.391   6.641   3.371 -0.2974 -0.9256 -0.5343
   88SLPC  H13R 8527   3.340   6.705   3.445 -0.6010  1.0276 -2.3108
   88SLPC  C214 8528   3.481   6.529   3.424  0.4744 -0.4241  0.1615
   88SLPC  H14R 8529   3.581   6.575   3.436  1.3458 -1.9575 -0.9095
   88SLPC  H14S 8530   3.496   6.448   3.349 -1.7139  0.1528 -1.0152
   88SLPC  C215 8531   3.444   6.466   3.555 -0.1785  0.3864 -0.1588
   88SLPC  H15R 8532   3.529   6.410   3.598 -1.6185 -0.7454  1.3646
   88SLPC  H15S 8533   3.361   6.395   3.536  0.5478 -0.9395  1.3806
   88SLPC  C216 8534   3.406   6.562   3.668 -0.0611  0.0437 -0.1300
   88SLPC  H16R 8535   3.306   6.604   3.643 -0.1551  0.5165  0.9805
   88SLPC  H16S 8536   3.472   6.651   3.657  0.2536 -0.0403  1.0167
   88SLPC  C217 8537   3.421   6.501   3.805  0.0866  0.2239 -0.7206
   88SLPC  H17R 8538   3.526   6.466   3.808  0.1323  0.4278  0.4747
   88SLPC  H17S 8539   3.366   6.405   3.808  0.6035 -0.0529  0.3613
   88SLPC  C218 8540   3.410   6.601   3.920 -0.7972  0.0328  0.0689
   88SLPC  H18R 8541   3.419   6.538   4.011  0.8019 -2.9226 -1.9595
   88SLPC  H18S 8542   3.314   6.654   3.909 -0.8946  0.4821  2.5856
   88SLPC  H18T 8543   3.487   6.681   3.919  0.7310 -1.3545  1.3237
   88SLPC   C33 8544   2.907   6.690   2.584  0.1476  0.0415 -0.5927
   88SLPC   H3X 8545   2.908   6.598   2.522 -0.0264 -0.6926  0.4502
   88SLPC   H3Y 8546   2.807   6.737   2.573 -0.4210 -1.2303 -0.9743
   88SLPC   C34 8547   2.938   6.632   2.730  0.0269  0.2705  0.2971
   88SLPC   H4X 8548   3.039   6.587   2.742 -0.4202 -0.2396  2.8124
   88SLPC   H4Y 8549   2.873   6.544   2.750  2.0214 -0.6622  3.4447
   88SLPC   C35 8550   2.913   6.719   2.853  0.7204  0.4384 -0.5491
   88SLPC   H5X 8551   2.807   6.751   2.851  0.8954  0.9999 -2.8908
   88SLPC   H5Y 8552   2.985   6.804   2.853  0.7593  0.4092 -0.1836
   88SLPC   C36 8553   2.941   6.648   2.985 -0.4535  0.1274  0.3795
   88SLPC   H6X 8554   3.047   6.616   2.974 -0.9574 -2.3448  1.9414
   88SLPC   H6Y 8555   2.875   6.559   2.997  1.2692 -0.9389  2.9339
   88SLPC   C37 8556   2.932   6.742   3.105 -0.2508  0.3679 -0.0836
   88SLPC   H7X 8557   2.832   6.787   3.122  0.6325  2.2461  0.4581
   88SLPC   H7Y 8558   3.004   6.827   3.098  0.2067 -0.0621 -0.6617
   88SLPC   C38 8559   2.961   6.659   3.234  0.3262  0.2559 -0.1192
   88SLPC   H8X 8560   3.067   6.625   3.231  0.7919  1.6470 -0.1487
   88SLPC   H8Y 8561   2.893   6.571   3.236 -0.4958  0.8529 -1.0003
   88SLPC   C39 8562   2.947   6.747   3.363 -0.4216  0.8861 -0.0502
   88SLPC   H9X 8563   2.843   6.783   3.374  0.1962  2.2228  1.8176
   88SLPC   H9Y 8564   3.005   6.841   3.353  0.8357  0.1157 -0.1749
   88SLPC  C310 8565   3.018   6.676   3.479 -0.2659 -0.3381  0.9338
   88SLPC  H10X 8566   3.129   6.687   3.475 -0.4316  2.0510  1.6222
   88SLPC  H10Y 8567   2.988   6.569   3.477  0.2272 -0.4675  0.1252
   88SLPC  C311 8568   2.975   6.743   3.611 -0.1713 -0.4837 -0.4400
   88SLPC  H11X 8569   2.864   6.749   3.617 -0.2955  2.5741 -2.9674
   88SLPC  H11Y 8570   2.998   6.851   3.607 -0.5336 -0.3601  0.6659
   88SLPC  C312 8571   3.043   6.687   3.734 -0.3499  0.6023 -0.3292
   88SLPC  H12X 8572   3.152   6.707   3.726 -0.3079 -0.1510 -1.9364
   88SLPC  H12Y 8573   3.043   6.576   3.725  0.6652  0.6725 -1.4855
   88SLPC  C313 8574   2.984   6.735   3.866 -0.2397  0.2879  0.1911
   88SLPC  H13X 8575   2.981   6.846   3.868  0.0925  0.3366 -1.0420
   88SLPC  H13Y 8576   3.046   6.698   3.950 -3.0387 -1.8579  1.4746
   88SLPC  C314 8577   2.841   6.680   3.899 -0.5576  0.1945  0.6096
   88SLPC  H14X 8578   2.847   6.578   3.942 -2.6072 -1.0888 -1.8675
   88SLPC  H14Y 8579   2.779   6.670   3.807 -1.6028 -2.2457  1.5114
   88SLPC  C315 8580   2.760   6.765   4.000  0.6705  0.2596 -0.3666
   88SLPC  H15X 8581   2.658   6.721   4.011  1.0085 -0.3631  0.4947
   88SLPC  H15Y 8582   2.758   6.869   3.963 -0.3904  0.2303 -0.4180
   88SLPC  C316 8583   2.812   6.750   4.147  0.2862  0.3595 -0.2087
   88SLPC  H16X 8584   2.922   6.769   4.151  0.6442 -1.2371 -1.4482
   88SLPC  H16Y 8585   2.793   6.643   4.172 -0.5400  0.4833 -0.3008
   88SLPC  C317 8586   2.741   6.852   4.233  0.3872 -0.1796 -0.1018
   88SLPC  H17X 8587   2.790   6.852   4.333  0.8860  1.3004 -0.3278
   88SLPC  H17Y 8588   2.633   6.831   4.251  0.1589  0.2519 -0.9358
   88SLPC  C318 8589   2.760   6.998   4.182  0.3262 -0.4049 -0.0918
   88SLPC  H18X 8590   2.755   7.078   4.258 -0.6291 -1.0808  0.5753
   88SLPC  H18Y 8591   2.693   7.033   4.101 -0.0116  0.7386  0.6593
   88SLPC  H18Z 8592   2.865   7.004   4.145  0.2697 -2.6262 -0.7697
   89SAPE     N 8593   6.267   0.258   6.587 -0.2081  0.1504  0.9471
   89SAPE   HN1 8594   6.263   0.235   6.688  2.5315  1.3052  1.3908
   89SAPE   HN2 8595   6.226   0.176   6.537  1.5895  0.4558 -1.2153
   89SAPE   HN3 8596   6.367   0.265   6.560  0.0480 -0.7656  1.6530
   89SAPE   C12 8597   6.198   0.393   6.561 -0.2989 -0.1253  0.6894
   89SAPE  H12A 8598   6.210   0.457   6.651 -1.0826 -0.7970  1.2826
   89SAPE  H12B 8599   6.091   0.369   6.543  0.1102 -1.0109 -0.7702
   89SAPE   C11 8600   6.256   0.461   6.430 -0.0790 -0.2587  0.1054
   89SAPE  H11A 8601   6.364   0.487   6.438  0.3931 -0.6235 -3.5223
   89SAPE  H11B 8602   6.197   0.553   6.416  0.2910  0.6640  3.6280
   89SAPE     P 8603   6.290   0.401   6.177 -0.2760 -0.1416  0.3921
   89SAPE   O13 8604   6.186   0.347   6.079  0.4158  0.0085  0.6577
   89SAPE   O14 8605   6.330   0.540   6.160 -0.6132  0.1636  0.0993
   89SAPE   O12 8606   6.243   0.369   6.325 -0.8404 -0.0898 -0.1596
   89SAPE   O11 8607   6.418   0.304   6.172  0.2403  0.2368  0.2348
   89SAPE    C1 8608   6.412   0.165   6.195 -0.1085  0.4806  0.4538
   89SAPE    HA 8609   6.489   0.144   6.272 -0.8809 -0.3231  1.0185
   89SAPE    HB 8610   6.313   0.128   6.230 -1.1900  0.7735 -2.0576
   89SAPE    C2 8611   6.451   0.083   6.064  0.2147 -0.6904 -0.6262
   89SAPE    HS 8612   6.456  -0.024   6.094 -0.2377 -0.5875 -0.1661
   89SAPE   O21 8613   6.573   0.132   6.000 -0.0213 -0.4571 -0.4103
   89SAPE   C21 8614   6.682   0.103   6.071 -0.1087  0.5758  0.3387
   89SAPE   O22 8615   6.688   0.029   6.167 -0.0610 -0.6634  1.0114
   89SAPE   C22 8616   6.805   0.161   5.987  0.1878  0.6230 -0.7087
   89SAPE   H2R 8617   6.778   0.254   5.934  2.8641  1.1876 -1.2074
   89SAPE   H2S 8618   6.882   0.184   6.063 -0.4822  1.7532 -0.3525
   89SAPE    C3 8619   6.341   0.087   5.953 -0.2147  0.0273 -0.1609
   89SAPE    HX 8620   6.312   0.193   5.939  0.7644  0.1955 -0.9165
   89SAPE    HY 8621   6.247   0.033   5.981 -0.9035  1.2819  0.0109
   89SAPE   O31 8622   6.384   0.026   5.826 -0.1176  0.2859 -0.4573
   89SAPE   C31 8623   6.312   0.052   5.718  0.6114 -0.4581 -0.4610
   89SAPE   O32 8624   6.216   0.122   5.712  0.8105 -0.0479  0.4905
   89SAPE   C32 8625   6.370  -0.028   5.602 -0.2672  0.0218  0.0733
   89SAPE   H2X 8626   6.376  -0.136   5.626 -3.7178 -0.3556 -0.2686
   89SAPE   H2Y 8627   6.467   0.023   5.583 -0.9407  1.3475  0.0344
   89SAPE   C23 8628   6.854   0.062   5.871 -0.5490  0.6673 -0.1007
   89SAPE   H3R 8629   6.846   0.135   5.787 -0.4849  0.2407 -0.4862
   89SAPE   H3S 8630   6.776  -0.015   5.851  0.4876 -0.7748  1.2101
   89SAPE   C24 8631   6.998   0.006   5.889 -0.0543 -0.1232  0.1420
   89SAPE   H4R 8632   7.057   0.087   5.938 -0.9769 -0.6928  2.2964
   89SAPE   H4S 8633   7.039  -0.013   5.787 -0.3988  0.9644 -0.2151
   89SAPE   C25 8634   6.994  -0.116   5.978 -1.0078 -0.7604 -0.2181
   89SAPE   H5R 8635   6.941  -0.102   6.073 -0.5598 -0.6693  0.0195
   89SAPE   C26 8636   7.063  -0.232   5.952 -0.1136 -0.3767  0.2506
   89SAPE   H6R 8637   7.064  -0.305   6.035 -1.2778  1.0223  1.5693
   89SAPE   C27 8638   7.138  -0.264   5.830 -1.0616  0.1448  0.1818
   89SAPE   H7R 8639   7.248  -0.267   5.847 -0.8413  2.1410 -0.6036
   89SAPE   H7S 8640   7.134  -0.186   5.751  0.8922  1.1439  0.9963
   89SAPE   C28 8641   7.084  -0.395   5.778 -0.2241 -0.2367 -0.0279
   89SAPE   H8R 8642   7.028  -0.460   5.847 -0.3216  1.4466  1.5400
   89SAPE   C29 8643   7.101  -0.437   5.652  0.1084 -1.0053  0.3648
   89SAPE   H9R 8644   7.032  -0.516   5.618 -1.3924 -0.3018  1.6818
   89SAPE  C210 8645   7.169  -0.359   5.540 -0.1907  0.3770 -0.1238
   89SAPE  H10R 8646   7.200  -0.431   5.461  0.8212  2.1340 -1.4056
   89SAPE  H10S 8647   7.262  -0.319   5.588 -0.3136 -1.0239  1.3570
   89SAPE  C211 8648   7.080  -0.257   5.480  0.7584  0.1492  0.3725
   89SAPE  H11R 8649   6.991  -0.235   5.540 -0.1852  2.2854 -1.6860
   89SAPE  C212 8650   7.076  -0.211   5.352 -0.4395 -0.5669 -0.0843
   89SAPE  H12R 8651   7.023  -0.118   5.331 -0.4494 -0.5217  0.1345
   89SAPE  C213 8652   7.180  -0.248   5.253 -0.4202  0.4838  0.3915
   89SAPE  H13R 8653   7.278  -0.284   5.289 -1.0211  0.4936  2.1117
   89SAPE  H13S 8654   7.219  -0.161   5.195  1.0305 -0.4959 -0.1535
   89SAPE  C214 8655   7.122  -0.339   5.145 -0.5463  0.1001 -0.1587
   89SAPE  H14R 8656   7.038  -0.404   5.175 -1.3465  1.4311  0.5826
   89SAPE  C215 8657   7.146  -0.350   5.014  0.4228  0.6539  0.6274
   89SAPE  H15R 8658   7.075  -0.413   4.958  1.6743  0.2488 -0.5562
   89SAPE  C216 8659   7.245  -0.281   4.923  1.0906  0.4882 -0.7527
   89SAPE  H16R 8660   7.334  -0.250   4.982  0.3325  2.6679 -0.6835
   89SAPE  H16S 8661   7.196  -0.192   4.878 -0.8024 -0.0349  0.1957
   89SAPE  C217 8662   7.296  -0.379   4.816 -0.1570 -0.3672  0.5304
   89SAPE  H17R 8663   7.349  -0.322   4.737 -0.2221 -0.3206  0.5199
   89SAPE  H17S 8664   7.208  -0.419   4.763 -1.0482 -1.1642  2.5081
   89SAPE  C218 8665   7.385  -0.496   4.873  0.1978 -0.2593 -0.1173
   89SAPE  H18R 8666   7.414  -0.560   4.787  1.1838  2.3765 -1.8549
   89SAPE  H18S 8667   7.326  -0.569   4.933  1.3034 -1.3536 -0.3220
   89SAPE  C219 8668   7.524  -0.466   4.937 -0.0277  0.4939  0.1133
   89SAPE  H19R 8669   7.589  -0.555   4.946 -0.1398  0.4298  0.2845
   89SAPE  H19S 8670   7.503  -0.434   5.041  2.6629  1.5595  0.4031
   89SAPE  C220 8671   7.601  -0.357   4.863 -0.2660  0.0996 -0.1721
   89SAPE  H20R 8672   7.684  -0.321   4.927  0.1777 -2.2664  0.6810
   89SAPE  H20S 8673   7.523  -0.279   4.847 -2.2222 -1.5186  1.0052
   89SAPE  H20T 8674   7.634  -0.385   4.761  0.6062 -0.7693  0.3345
   89SAPE   C33 8675   6.286  -0.005   5.473 -0.0385 -0.3443  0.0126
   89SAPE   H3X 8676   6.239   0.095   5.462 -0.1443  0.0179  3.0569
   89SAPE   H3Y 8677   6.199  -0.073   5.473  1.5929 -2.5729 -0.8746
   89SAPE   C34 8678   6.386  -0.033   5.360 -0.5953 -0.7795  0.0764
   89SAPE   H4X 8679   6.453  -0.117   5.386  0.2612  0.3599  1.7344
   89SAPE   H4Y 8680   6.457   0.053   5.365 -0.0549 -1.2097 -0.0468
   89SAPE   C35 8681   6.335  -0.051   5.219 -0.1531 -0.4058  0.1362
   89SAPE   H5X 8682   6.269  -0.140   5.207  0.3474 -0.6203 -1.3044
   89SAPE   H5Y 8683   6.419  -0.048   5.146 -0.5170  1.5952 -0.2586
   89SAPE   C36 8684   6.246   0.069   5.176 -0.4356  0.7934  0.0290
   89SAPE   H6X 8685   6.274   0.166   5.222 -1.1752  0.4499  1.2409
   89SAPE   H6Y 8686   6.138   0.055   5.199 -0.7205 -0.2977 -1.8163
   89SAPE   C37 8687   6.259   0.094   5.021  0.5141  0.5988  0.4142
   89SAPE   H7X 8688   6.244  -0.003   4.968 -1.2889  0.9364  0.2386
   89SAPE   H7Y 8689   6.366   0.122   5.005  0.2661  1.4201  0.1724
   89SAPE   C38 8690   6.154   0.188   4.952 -0.5555  0.1851 -0.4184
   89SAPE   H8X 8691   6.147   0.294   4.984 -0.0843  0.5414 -1.4493
   89SAPE   H8Y 8692   6.053   0.147   4.973 -0.4835  0.8526  1.4055
   89SAPE   C39 8693   6.168   0.186   4.794  0.2456  0.2382 -1.2663
   89SAPE   H9X 8694   6.144   0.085   4.754 -1.3216 -1.7577  3.9421
   89SAPE   H9Y 8695   6.271   0.216   4.764  0.3676  1.1667  0.0033
   89SAPE  C310 8696   6.081   0.290   4.726 -0.4901  0.1259  0.2732
   89SAPE  H10X 8697   6.130   0.389   4.741  1.2455 -0.6391 -0.0744
   89SAPE  H10Y 8698   5.984   0.301   4.778 -1.2686 -0.4536 -1.0035
   89SAPE  C311 8699   6.061   0.281   4.577  0.4176  0.2463 -0.0265
   89SAPE  H11X 8700   5.992   0.195   4.563 -0.0731  0.3846  1.3551
   89SAPE  H11Y 8701   6.150   0.245   4.521 -0.9849 -0.4325 -1.9193
   89SAPE  C312 8702   5.993   0.400   4.501 -0.3746  0.1881 -0.7945
   89SAPE  H12X 8703   6.028   0.389   4.396  1.6519  2.8691 -0.4804
   89SAPE  H12Y 8704   6.020   0.498   4.545  2.7597 -1.0027  0.2142
   89SAPE  C313 8705   5.844   0.382   4.504 -0.3545  0.4370  0.1423
   89SAPE  H13X 8706   5.800   0.484   4.509  0.5220  0.7821  1.3720
   89SAPE  H13Y 8707   5.812   0.337   4.600  0.8356  0.6584  0.6639
   89SAPE  C314 8708   5.782   0.306   4.392 -0.5796 -1.0696  0.2446
   89SAPE  H14X 8709   5.802   0.198   4.407  1.2178 -0.9464 -0.8589
   89SAPE  H14Y 8710   5.813   0.335   4.289 -0.6640 -0.2071  0.4504
   89SAPE  C315 8711   5.628   0.312   4.390  0.2648 -0.1976 -0.2068
   89SAPE  H15X 8712   5.593   0.409   4.430  0.6519 -0.2744  0.3379
   89SAPE  H15Y 8713   5.581   0.239   4.459  0.7850 -0.2038  0.1521
   89SAPE  C316 8714   5.567   0.280   4.250 -0.2919 -0.1245  0.6505
   89SAPE  H16X 8715   5.603   0.177   4.226  0.4620  0.6021 -1.6320
   89SAPE  H16Y 8716   5.611   0.350   4.176 -0.7245 -0.6566 -0.1315
   89SAPE  C317 8717   5.419   0.301   4.244  0.0466 -0.3750 -0.1342
   89SAPE  H17X 8718   5.412   0.402   4.291  0.9973 -1.0878  1.6672
   89SAPE  H17Y 8719   5.371   0.224   4.308 -0.3195  0.2042  0.3039
   89SAPE  C318 8720   5.356   0.300   4.104  0.1500  0.3754 -0.5209
   89SAPE  H18X 8721   5.356   0.194   4.073  0.7244  0.3276 -0.3697
   89SAPE  H18Y 8722   5.423   0.364   4.043 -1.2764  0.9459 -1.5361
   89SAPE  H18Z 8723   5.255   0.343   4.122  1.7921  4.4381  0.2583
   90SAPE     N 8724   4.862   6.807   6.568  0.3472 -0.1596  0.5006
   90SAPE   HN1 8725   4.939   6.741   6.588  1.2224  1.0128  1.1158
   90SAPE   HN2 8726   4.846   6.815   6.465  1.1773 -1.7993  0.2188
   90SAPE   HN3 8727   4.894   6.903   6.592 -1.8744  1.3240 -1.9343
   90SAPE   C12 8728   4.736   6.769   6.642 -0.1797  0.7215  0.3140
   90SAPE  H12A 8729   4.676   6.863   6.647 -1.1579  0.0720  1.2650
   90SAPE  H12B 8730   4.775   6.746   6.744  3.7262 -1.6657 -1.4690
   90SAPE   C11 8731   4.654   6.659   6.576 -0.7590 -0.3489  0.6270
   90SAPE  H11A 8732   4.563   6.653   6.640 -0.4496 -0.0678  1.0988
   90SAPE  H11B 8733   4.704   6.560   6.589  0.9567  0.6721  2.3900
   90SAPE     P 8734   4.538   6.579   6.361  0.0835  0.0137 -0.0710
   90SAPE   O13 8735   4.555   6.449   6.424  0.2406  0.0074  0.0774
   90SAPE   O14 8736   4.400   6.630   6.346 -0.2056 -0.4500 -0.5445
   90SAPE   O12 8737   4.626   6.681   6.441  0.2442  0.4464  0.1442
   90SAPE   O11 8738   4.594   6.558   6.216 -0.0779  0.0859  0.2545
   90SAPE    C1 8739   4.727   6.542   6.190  0.2198  0.3948 -0.0910
   90SAPE    HA 8740   4.766   6.645   6.177  1.1039  0.0095 -0.5306
   90SAPE    HB 8741   4.778   6.492   6.276  1.5442 -0.5904 -1.4107
   90SAPE    C2 8742   4.737   6.442   6.063  0.1308 -1.1482 -0.7014
   90SAPE    HS 8743   4.845   6.432   6.038  0.7120  2.9756 -0.4534
   90SAPE   O21 8744   4.681   6.494   5.942 -0.1119 -0.2880 -0.2048
   90SAPE   C21 8745   4.748   6.597   5.894  0.3794  0.0559  0.5939
   90SAPE   O22 8746   4.859   6.635   5.933 -0.7217 -0.2441  0.1120
   90SAPE   C22 8747   4.677   6.650   5.759 -0.4186  0.5383  0.5739
   90SAPE   H2R 8748   4.575   6.682   5.790 -0.6732  1.2145 -0.9183
   90SAPE   H2S 8749   4.736   6.739   5.729 -0.2876 -0.3094 -1.9085
   90SAPE    C3 8750   4.673   6.302   6.085 -0.0842 -0.6029  0.2051
   90SAPE    HX 8751   4.564   6.324   6.078 -0.2925 -1.0415  1.7127
   90SAPE    HY 8752   4.693   6.292   6.193  0.2799  2.3089  0.4921
   90SAPE   O31 8753   4.715   6.206   5.988  0.2088  0.0747  0.0628
   90SAPE   C31 8754   4.834   6.152   6.012  0.4545 -0.3323  0.5335
   90SAPE   O32 8755   4.895   6.168   6.118 -0.2451 -0.5661 -0.2272
   90SAPE   C32 8756   4.882   6.063   5.900 -0.4135 -0.3099  0.0232
   90SAPE   H2X 8757   4.821   5.971   5.892  0.6301 -1.3135  2.5904
   90SAPE   H2Y 8758   4.990   6.044   5.920 -0.1326  1.1584  0.0537
   90SAPE   C23 8759   4.673   6.545   5.644 -0.2321  0.0112  0.3436
   90SAPE   H3R 8760   4.584   6.571   5.584 -0.4624  1.0989  1.1189
   90SAPE   H3S 8761   4.652   6.445   5.689  0.7291 -0.1106  0.5519
   90SAPE   C24 8762   4.804   6.535   5.565  0.1198  0.4190  1.1679
   90SAPE   H4R 8763   4.833   6.428   5.555 -1.3360 -0.0063  1.3927
   90SAPE   H4S 8764   4.889   6.568   5.628  0.4391 -0.3764  1.1664
   90SAPE   C25 8765   4.802   6.611   5.434  0.6079 -0.1706  0.5713
   90SAPE   H5R 8766   4.845   6.712   5.428  0.0258  0.0154 -1.0623
   90SAPE   C26 8767   4.760   6.562   5.312  0.4144 -0.4214  1.0001
   90SAPE   H6R 8768   4.762   6.630   5.226 -0.3497 -0.2917  1.0755
   90SAPE   C27 8769   4.701   6.425   5.277  0.1954  0.3334 -0.4510
   90SAPE   H7R 8770   4.610   6.445   5.216  0.0040  1.8634  0.2928
   90SAPE   H7S 8771   4.672   6.369   5.368  0.2361  2.7467  1.1524
   90SAPE   C28 8772   4.801   6.336   5.212 -0.1552 -0.2997  0.3532
   90SAPE   H8R 8773   4.883   6.305   5.279 -0.4365  1.3215  1.5091
   90SAPE   C29 8774   4.810   6.291   5.082  0.3137 -0.2761 -0.1095
   90SAPE   H9R 8775   4.886   6.220   5.047 -0.3359  0.4018 -3.1325
   90SAPE  C210 8776   4.703   6.331   4.985  0.5595 -0.1465  0.6032
   90SAPE  H10R 8777   4.727   6.424   4.930 -1.4645  0.0898  0.0578
   90SAPE  H10S 8778   4.609   6.345   5.043  1.2203  1.0170  1.4383
   90SAPE  C211 8779   4.673   6.215   4.894 -0.3123  0.1244 -0.8445
   90SAPE  H11R 8780   4.661   6.119   4.946  0.2846  0.6843  0.3767
   90SAPE  C212 8781   4.659   6.212   4.758  0.0548  0.4418 -0.7367
   90SAPE  H12R 8782   4.643   6.114   4.710  1.2681 -0.3301  0.3926
   90SAPE  C213 8783   4.677   6.332   4.666 -0.1704 -0.2960 -0.2584
   90SAPE  H13R 8784   4.680   6.424   4.728 -0.0222 -0.5166  0.0625
   90SAPE  H13S 8785   4.598   6.348   4.589 -1.1093 -1.7576  0.3488
   90SAPE  C214 8786   4.810   6.326   4.602 -0.3117  0.4574  0.4756
   90SAPE  H14R 8787   4.903   6.341   4.660  0.6342 -1.9501 -0.3089
   90SAPE  C215 8788   4.836   6.293   4.476  0.2745 -0.7024 -0.7723
   90SAPE  H15R 8789   4.931   6.314   4.425 -0.9059  0.1191 -2.7899
   90SAPE  C216 8790   4.731   6.246   4.374  0.0126  0.2084  0.4319
   90SAPE  H16R 8791   4.638   6.220   4.429 -1.4450 -2.7595 -3.0306
   90SAPE  H16S 8792   4.766   6.157   4.317 -0.2613  0.7961 -0.6745
   90SAPE  C217 8793   4.683   6.355   4.280 -0.2021  0.7154  0.3046
   90SAPE  H17R 8794   4.762   6.392   4.212  1.2213 -0.6968  1.0984
   90SAPE  H17S 8795   4.645   6.444   4.333 -0.4299  1.3288 -0.8585
   90SAPE  C218 8796   4.573   6.306   4.185 -0.8305 -0.5069 -0.1103
   90SAPE  H18R 8797   4.482   6.283   4.244 -1.2132 -1.9055 -1.1982
   90SAPE  H18S 8798   4.605   6.215   4.130 -1.4292  0.3574 -1.9763
   90SAPE  C219 8799   4.535   6.417   4.084 -0.6914  0.1932 -0.4258
   90SAPE  H19R 8800   4.618   6.436   4.012 -1.0564  1.0114 -0.6414
   90SAPE  H19S 8801   4.521   6.512   4.140  0.4762 -0.1288  0.4555
   90SAPE  C220 8802   4.404   6.380   4.011 -0.1141  0.1234  0.0360
   90SAPE  H20R 8803   4.428   6.307   3.931 -0.0662  0.6790 -0.4612
   90SAPE  H20S 8804   4.368   6.472   3.959 -1.1914  0.3387  1.1010
   90SAPE  H20T 8805   4.327   6.343   4.082  1.2223 -0.6793  1.1080
   90SAPE   C33 8806   4.877   6.128   5.754  0.1979  0.0893  0.3587
   90SAPE   H3X 8807   4.931   6.225   5.758  2.6936 -1.0980 -1.6842
   90SAPE   H3Y 8808   4.771   6.129   5.722  0.0360 -0.7978  0.8298
   90SAPE   C34 8809   4.936   6.029   5.654 -0.0243  0.3820 -0.3237
   90SAPE   H4X 8810   4.896   5.926   5.668  0.2878  0.0838 -1.5743
   90SAPE   H4Y 8811   5.046   6.030   5.666  0.0331  0.4453 -0.8587
   90SAPE   C35 8812   4.909   6.059   5.507  0.3074  0.6946  0.4218
   90SAPE   H5X 8813   4.949   6.160   5.483 -1.6441  1.5833  0.7931
   90SAPE   H5Y 8814   4.800   6.073   5.494 -0.4580 -2.3479  2.3738
   90SAPE   C36 8815   4.963   5.955   5.408 -0.1182  0.1768 -0.6241
   90SAPE   H6X 8816   4.904   5.862   5.413  0.1912 -0.0343 -0.8450
   90SAPE   H6Y 8817   5.066   5.921   5.435 -0.4526 -0.1701  0.2524
   90SAPE   C37 8818   4.967   6.002   5.260 -0.4128  0.1197  0.7196
   90SAPE   H7X 8819   5.024   6.098   5.267 -0.8609  0.4030  0.5577
   90SAPE   H7Y 8820   4.866   6.034   5.229 -0.4979 -1.2765 -0.4815
   90SAPE   C38 8821   5.028   5.904   5.158 -0.1700 -0.8523 -0.0448
   90SAPE   H8X 8822   4.979   5.805   5.157  0.0333 -0.9946  1.5628
   90SAPE   H8Y 8823   5.129   5.878   5.193 -0.0982 -0.7000 -0.1363
   90SAPE   C39 8824   5.026   5.961   5.015  0.2050  0.8768 -0.9446
   90SAPE   H9X 8825   5.082   6.055   5.026  1.7301 -0.1716  0.7584
   90SAPE   H9Y 8826   4.920   5.980   4.988 -0.4387 -1.5413 -0.4116
   90SAPE  C310 8827   5.090   5.862   4.911  0.1799 -0.1953 -0.4289
   90SAPE  H10X 8828   5.062   5.763   4.955  0.8946 -0.4587 -0.5657
   90SAPE  H10Y 8829   5.200   5.866   4.908  0.2446 -1.2527 -0.0234
   90SAPE  C311 8830   5.025   5.890   4.773  1.0006 -0.1757 -0.2614
   90SAPE  H11X 8831   5.075   5.983   4.738 -0.4148  0.4578 -0.6504
   90SAPE  H11Y 8832   4.914   5.895   4.777  1.0485  1.8281 -0.3245
   90SAPE  C312 8833   5.083   5.786   4.675 -0.4335  0.3240  0.0828
   90SAPE  H12X 8834   5.021   5.694   4.684  1.6029 -1.4647 -2.5754
   90SAPE  H12Y 8835   5.184   5.749   4.704 -0.0663  0.7029 -0.6982
   90SAPE  C313 8836   5.089   5.824   4.527 -0.4257  0.0393  0.0029
   90SAPE  H13X 8837   5.133   5.736   4.474  0.3012 -0.3085  1.1433
   90SAPE  H13Y 8838   5.164   5.904   4.508 -1.5749  1.2585  0.4951
   90SAPE  C314 8839   4.956   5.861   4.471  0.2819 -0.4193 -0.0245
   90SAPE  H14X 8840   4.904   5.924   4.547  2.9802  0.3051  1.3591
   90SAPE  H14Y 8841   4.886   5.776   4.456  1.0768 -0.8016 -1.7990
   90SAPE  C315 8842   4.965   5.947   4.339 -0.1677 -0.3355 -1.1667
   90SAPE  H15X 8843   4.988   6.051   4.370 -1.3139 -0.6244  0.8310
   90SAPE  H15Y 8844   4.859   5.952   4.308 -0.8240 -0.5221  0.9216
   90SAPE  C316 8845   5.046   5.887   4.229 -0.0132  0.2719  0.3153
   90SAPE  H16X 8846   5.024   5.779   4.212  2.4233 -0.1792 -0.4164
   90SAPE  H16Y 8847   5.155   5.897   4.252 -0.0576  0.4661  0.4366
   90SAPE  C317 8848   5.015   5.952   4.102  0.3062 -0.0455 -0.4960
   90SAPE  H17X 8849   5.047   6.058   4.100  3.0302 -0.7342  0.9532
   90SAPE  H17Y 8850   4.905   5.948   4.086  0.2755  1.3428 -0.7404
   90SAPE  C318 8851   5.076   5.891   3.985  0.6850  0.0303 -0.1337
   90SAPE  H18X 8852   5.079   5.780   3.992 -2.8589 -0.1129  1.5338
   90SAPE  H18Y 8853   5.174   5.941   3.974  0.3115  0.8725  0.2567
   90SAPE  H18Z 8854   5.024   5.923   3.892 -2.8246 -1.0364  1.2695
   91SAPE     N 8855   1.751   2.863   6.277 -0.0364  0.0986 -0.0306
   91SAPE   HN1 8856   1.701   2.885   6.366  1.6349  0.8194  0.7663
   91SAPE   HN2 8857   1.783   2.947   6.224  0.3116 -1.4892 -2.4770
   91SAPE   HN3 8858   1.690   2.805   6.215  0.9546 -3.4688  2.0696
   91SAPE   C12 8859   1.871   2.784   6.302  0.1718 -0.2474  0.5610
   91SAPE  H12A 8860   1.897   2.746   6.201 -0.3977 -0.2132  0.4017
   91SAPE  H12B 8861   1.852   2.696   6.368  0.1557 -1.0891 -0.5344
   91SAPE   C11 8862   1.981   2.869   6.368 -0.5871 -0.3261 -0.0299
   91SAPE  H11A 8863   1.946   2.900   6.469 -0.0002  1.3384 -0.2985
   91SAPE  H11B 8864   1.973   2.963   6.309  0.8387  1.2439  2.1118
   91SAPE     P 8865   2.153   2.698   6.455 -0.7477  0.0344  0.0019
   91SAPE   O13 8866   2.298   2.718   6.498  0.2682  0.3452 -0.2557
   91SAPE   O14 8867   2.043   2.680   6.555 -0.5538 -0.2680 -0.6415
   91SAPE   O12 8868   2.118   2.821   6.366 -0.3374  0.7738  0.4271
   91SAPE   O11 8869   2.153   2.562   6.368  0.3838  0.2697  0.0393
   91SAPE    C1 8870   2.249   2.548   6.263  0.2960 -0.7725 -0.6747
   91SAPE    HA 8871   2.333   2.620   6.260  0.3980 -0.7517  1.3003
   91SAPE    HB 8872   2.295   2.449   6.283 -2.9757 -2.1325  0.7816
   91SAPE    C2 8873   2.178   2.546   6.122 -0.0477  0.1494 -0.1043
   91SAPE    HS 8874   2.252   2.518   6.044 -0.7561 -0.6613 -0.4958
   91SAPE   O21 8875   2.123   2.679   6.102 -0.3165 -0.3545 -0.0476
   91SAPE   C21 8876   2.215   2.765   6.050 -0.2704  0.1463 -0.0507
   91SAPE   O22 8877   2.331   2.742   6.024  0.0286  0.3482 -0.0049
   91SAPE   C22 8878   2.158   2.908   6.035 -0.8475  0.2631 -0.4603
   91SAPE   H2R 8879   2.150   2.956   6.134 -0.8337 -0.1368 -0.2645
   91SAPE   H2S 8880   2.235   2.943   5.963 -0.0891 -1.7252 -0.6947
   91SAPE    C3 8881   2.064   2.437   6.128 -0.3521  0.9917 -0.6000
   91SAPE    HX 8882   1.982   2.479   6.190 -0.8708 -0.5082 -0.2416
   91SAPE    HY 8883   2.111   2.348   6.174 -2.2013  0.5274  0.4952
   91SAPE   O31 8884   1.991   2.398   6.008  0.3585 -0.0625 -0.1679
   91SAPE   C31 8885   2.056   2.327   5.924  0.3678  0.4222  0.5937
   91SAPE   O32 8886   2.168   2.281   5.932 -0.0780  0.1011  0.0604
   91SAPE   C32 8887   1.953   2.289   5.814  0.4416 -0.4150  0.1200
   91SAPE   H2X 8888   1.868   2.359   5.823  1.5169  0.6554  3.2217
   91SAPE   H2Y 8889   1.908   2.189   5.832 -0.7411 -0.2429 -1.5688
   91SAPE   C23 8890   2.025   2.905   5.951 -0.6082  0.1070 -0.2952
   91SAPE   H3R 8891   1.978   3.005   5.968  1.6078  1.9255 -3.6451
   91SAPE   H3S 8892   1.956   2.825   5.986  1.8560 -3.0834 -2.1860
   91SAPE   C24 8893   2.032   2.887   5.803 -0.3495  0.4174 -0.4735
   91SAPE   H4R 8894   2.088   2.972   5.757 -0.6008  0.2209 -1.1513
   91SAPE   H4S 8895   1.933   2.893   5.752 -2.0853 -4.1621  1.8225
   91SAPE   C25 8896   2.080   2.749   5.762 -0.3066 -0.2018 -0.0244
   91SAPE   H5R 8897   2.044   2.655   5.808 -2.0552  0.1949 -0.5303
   91SAPE   C26 8898   2.180   2.731   5.673  0.1648  0.4748 -0.5464
   91SAPE   H6R 8899   2.209   2.627   5.654  0.0224  0.2346  0.4506
   91SAPE   C27 8900   2.243   2.838   5.598  0.0861  0.7147  0.9881
   91SAPE   H7R 8901   2.232   2.940   5.641 -2.2164 -0.3539  3.2311
   91SAPE   H7S 8902   2.192   2.834   5.499  0.8128 -1.9003  0.6416
   91SAPE   C28 8903   2.386   2.798   5.581  0.3277  0.7340  0.7264
   91SAPE   H8R 8904   2.426   2.729   5.656 -0.3716  1.8014  2.1223
   91SAPE   C29 8905   2.451   2.806   5.463 -0.5135 -0.3548  0.1668
   91SAPE   H9R 8906   2.555   2.771   5.471 -0.4478 -0.1554  0.2062
   91SAPE  C210 8907   2.417   2.876   5.336  0.4790  0.7394 -0.3813
   91SAPE  H10R 8908   2.354   2.965   5.352 -0.8088 -0.2250  0.0609
   91SAPE  H10S 8909   2.355   2.816   5.266 -0.1105 -0.3203  1.0007
   91SAPE  C211 8910   2.545   2.939   5.284 -0.2517 -0.1433  0.3003
   91SAPE  H11R 8911   2.580   3.021   5.349 -1.3389  0.6603 -0.0988
   91SAPE  C212 8912   2.596   2.922   5.160  0.3298 -0.8217 -0.1859
   91SAPE  H12R 8913   2.683   2.987   5.143 -1.3499  1.5816  0.0244
   91SAPE  C213 8914   2.556   2.815   5.057 -0.1155 -0.1620 -0.4714
   91SAPE  H13R 8915   2.461   2.845   5.009  0.0004 -1.0737 -1.2938
   91SAPE  H13S 8916   2.525   2.717   5.101 -0.1126  0.0711  0.0504
   91SAPE  C214 8917   2.659   2.792   4.943  0.1447 -0.8771 -0.1015
   91SAPE  H14R 8918   2.738   2.720   4.970 -1.5277 -2.2100  1.5131
   91SAPE  C215 8919   2.674   2.858   4.829  0.2413  0.2536  0.0669
   91SAPE  H15R 8920   2.751   2.829   4.755 -0.1780  0.2356 -0.3635
   91SAPE  C216 8921   2.585   2.973   4.789 -0.4562 -0.5289 -0.2284
   91SAPE  H16R 8922   2.631   3.075   4.793  1.2161 -1.2522  0.0053
   91SAPE  H16S 8923   2.491   2.989   4.846 -0.7291 -1.3221 -0.4459
   91SAPE  C217 8924   2.559   2.948   4.639 -0.5600 -0.1558  0.1027
   91SAPE  H17R 8925   2.477   3.017   4.608  1.4160  3.5877  2.4452
   91SAPE  H17S 8926   2.523   2.843   4.630 -3.2855  0.7335 -0.5159
   91SAPE  C218 8927   2.681   2.982   4.539  1.0055  0.1686  0.2368
   91SAPE  H18R 8928   2.756   2.901   4.554  0.0788 -0.8980 -0.6949
   91SAPE  H18S 8929   2.721   3.082   4.565 -0.8397  1.1378 -0.4579
   91SAPE  C219 8930   2.658   2.977   4.395 -0.0316 -0.2910  0.5992
   91SAPE  H19R 8931   2.581   3.052   4.365  1.8364  1.0562 -1.1079
   91SAPE  H19S 8932   2.633   2.874   4.362 -0.9325 -0.1099  0.6700
   91SAPE  C220 8933   2.785   3.004   4.322  0.4468 -0.4627 -0.6736
   91SAPE  H20R 8934   2.865   2.990   4.398 -0.3532 -0.8817  0.1073
   91SAPE  H20S 8935   2.794   3.110   4.291  0.0034 -0.7104 -1.6816
   91SAPE  H20T 8936   2.800   2.949   4.227  0.4567  3.1959 -2.9741
   91SAPE   C33 8937   2.004   2.295   5.669  0.0554  0.1760  0.1176
   91SAPE   H3X 8938   2.052   2.199   5.641  1.7951  1.0056  0.1020
   91SAPE   H3Y 8939   2.095   2.359   5.665 -0.7552  1.4842  1.4919
   91SAPE   C34 8940   1.886   2.355   5.575 -0.1631  0.1940 -0.4319
   91SAPE   H4X 8941   1.863   2.458   5.607  2.1515  1.2613 -1.9237
   91SAPE   H4Y 8942   1.796   2.292   5.591 -0.1969  0.5797  0.9986
   91SAPE   C35 8943   1.932   2.342   5.429 -0.1312  0.0547 -0.3419
   91SAPE   H5X 8944   1.915   2.234   5.412 -1.5537  0.3852 -1.2240
   91SAPE   H5Y 8945   2.039   2.364   5.409  0.1573  0.7998  1.7367
   91SAPE   C36 8946   1.848   2.416   5.325  0.1640 -0.1437  0.1002
   91SAPE   H6X 8947   1.746   2.383   5.353  0.5100 -1.1844  0.1909
   91SAPE   H6Y 8948   1.878   2.390   5.222 -0.3641  0.8275 -0.3183
   91SAPE   C37 8949   1.831   2.568   5.347 -0.2971  0.1971  0.0350
   91SAPE   H7X 8950   1.782   2.606   5.440  1.5308  1.6325  0.4727
   91SAPE   H7Y 8951   1.777   2.601   5.256  0.2034  0.2157 -0.2572
   91SAPE   C38 8952   1.973   2.637   5.363 -0.6730  0.3102 -0.2314
   91SAPE   H8X 8953   2.009   2.584   5.453 -2.2861  2.3012  1.6858
   91SAPE   H8Y 8954   1.965   2.746   5.384  0.1415  0.6080 -1.3487
   91SAPE   C39 8955   2.075   2.612   5.251 -0.2662 -0.1211  0.4831
   91SAPE   H9X 8956   2.076   2.511   5.206  2.0876 -0.2577  0.7316
   91SAPE   H9Y 8957   2.179   2.622   5.288  0.1433  0.1976 -0.6894
   91SAPE  C310 8958   2.083   2.717   5.135 -0.2510 -0.0232 -0.7688
   91SAPE  H10X 8959   2.140   2.803   5.176 -1.8609  0.2798  0.9823
   91SAPE  H10Y 8960   1.980   2.750   5.112 -0.9725 -0.5972  1.3840
   91SAPE  C311 8961   2.155   2.657   5.015 -0.2877 -0.1342 -1.1214
   91SAPE  H11X 8962   2.087   2.581   4.970 -0.5597  0.1293 -1.1624
   91SAPE  H11Y 8963   2.249   2.605   5.044  1.5295  3.1935 -0.5841
   91SAPE  C312 8964   2.182   2.757   4.911  0.7646 -0.2924  0.1866
   91SAPE  H12X 8965   2.251   2.839   4.943  0.4901  0.1360 -0.3197
   91SAPE  H12Y 8966   2.087   2.812   4.897  0.1374 -1.9672 -3.1845
   91SAPE  C313 8967   2.233   2.715   4.776  0.0321 -0.1085  0.7093
   91SAPE  H13X 8968   2.233   2.607   4.751 -1.3625  0.5246 -2.5930
   91SAPE  H13Y 8969   2.338   2.748   4.764 -0.2622  0.1777 -1.5660
   91SAPE  C314 8970   2.174   2.805   4.664 -0.8221 -0.3288  0.0216
   91SAPE  H14X 8971   2.182   2.911   4.695 -1.3149  0.1766 -1.4901
   91SAPE  H14Y 8972   2.065   2.788   4.653 -1.0924  1.0881  0.3140
   91SAPE  C315 8973   2.239   2.790   4.523 -0.0467 -0.5815  0.1574
   91SAPE  H15X 8974   2.248   2.680   4.514  0.8846 -0.4095 -1.1421
   91SAPE  H15Y 8975   2.345   2.823   4.526 -0.8359  2.3050  0.0126
   91SAPE  C316 8976   2.156   2.865   4.417  0.0289  0.2461 -0.3544
   91SAPE  H16X 8977   2.138   2.968   4.454 -1.8120  0.4600 -1.7246
   91SAPE  H16Y 8978   2.057   2.816   4.409  0.0730 -0.1285  1.1569
   91SAPE  C317 8979   2.216   2.885   4.280 -0.1295  0.7734  0.0961
   91SAPE  H17X 8980   2.253   2.790   4.234  1.9888  0.6539  1.9014
   91SAPE  H17Y 8981   2.312   2.941   4.288  0.7943 -0.6612 -0.4938
   91SAPE  C318 8982   2.117   2.948   4.176 -0.4769 -0.3988  0.4877
   91SAPE  H18X 8983   2.015   2.912   4.201 -0.7752  0.6501  0.8493
   91SAPE  H18Y 8984   2.144   2.930   4.070 -2.7524  3.6691 -1.0027
   91SAPE  H18Z 8985   2.121   3.058   4.188  3.5686 -0.3031 -0.4876
   92SAPE     N 8986   2.590   2.139   6.288  0.1331 -0.8632  0.1851
   92SAPE   HN1 8987   2.614   2.059   6.350  2.3452 -0.3837  0.0177
   92SAPE   HN2 8988   2.515   2.125   6.217  1.1984  3.7742 -2.2129
   92SAPE   HN3 8989   2.674   2.152   6.229 -0.8709  1.9519 -0.7824
   92SAPE   C12 8990   2.564   2.254   6.383 -0.3929  0.3339  0.4164
   92SAPE  H12A 8991   2.494   2.217   6.460 -0.8271 -1.4544 -0.7692
   92SAPE  H12B 8992   2.523   2.339   6.324  0.3439  1.1347  1.0364
   92SAPE   C11 8993   2.702   2.303   6.436  0.0904  0.2822 -0.3246
   92SAPE  H11A 8994   2.760   2.217   6.476 -1.1862  0.8468  2.9947
   92SAPE  H11B 8995   2.678   2.371   6.520  1.0935 -0.6186  0.7347
   92SAPE     P 8996   2.833   2.523   6.335 -0.0732  0.0236  0.0104
   92SAPE   O13 8997   2.885   2.555   6.467 -0.0218  0.2949 -0.3644
   92SAPE   O14 8998   2.929   2.532   6.223  0.3270 -0.2629 -0.0778
   92SAPE   O12 8999   2.771   2.379   6.338  0.0195  0.4396  0.8176
   92SAPE   O11 9000   2.715   2.622   6.307  0.0754 -0.2637 -0.1279
   92SAPE    C1 9001   2.637   2.601   6.183  0.4063  0.6978 -0.4937
   92SAPE    HA 9002   2.586   2.502   6.183 -1.6141  1.6872 -0.3634
   92SAPE    HB 9003   2.542   2.659   6.187 -0.2566 -0.3307  3.1296
   92SAPE    C2 9004   2.708   2.630   6.047  0.2011  0.4100 -1.2750
   92SAPE    HS 9005   2.786   2.553   6.031 -0.4910 -0.4581 -0.6136
   92SAPE   O21 9006   2.782   2.751   6.063 -0.5566 -0.5441 -0.2422
   92SAPE   C21 9007   2.885   2.775   5.985 -1.1968  0.3130 -0.3452
   92SAPE   O22 9008   2.932   2.700   5.902 -0.3649 -0.1361 -0.0171
   92SAPE   C22 9009   2.921   2.926   6.001 -0.5798  0.9175  0.4048
   92SAPE   H2R 9010   2.913   2.945   6.110 -0.5543 -1.4419  0.8729
   92SAPE   H2S 9011   3.021   2.933   5.954 -0.2504  0.1435  0.9655
   92SAPE    C3 9012   2.616   2.634   5.924  0.5707 -0.0755  0.1758
   92SAPE    HX 9013   2.582   2.740   5.931  4.4860  1.2690  1.4370
   92SAPE    HY 9014   2.530   2.565   5.936 -0.5490  1.4391  1.1550
   92SAPE   O31 9015   2.675   2.612   5.794  0.6845  0.2166 -0.0426
   92SAPE   C31 9016   2.707   2.487   5.767 -0.5096  1.0657  0.4535
   92SAPE   O32 9017   2.709   2.392   5.848 -0.1278  0.0390  0.8254
   92SAPE   C32 9018   2.749   2.478   5.618 -0.6001  0.5988  0.1715
   92SAPE   H2X 9019   2.822   2.557   5.593 -0.3670 -0.0617 -1.3707
   92SAPE   H2Y 9020   2.663   2.504   5.552  0.7721  0.5344 -1.7217
   92SAPE   C23 9021   2.823   3.024   5.932 -0.0602  0.4714 -0.2011
   92SAPE   H3R 9022   2.856   3.125   5.967  2.0990 -0.3382  0.2616
   92SAPE   H3S 9023   2.720   3.007   5.971 -0.0435  0.3284 -0.2215
   92SAPE   C24 9024   2.814   3.009   5.779  0.1943 -0.0449  0.5344
   92SAPE   H4R 9025   2.740   3.077   5.733 -0.5770 -1.8781 -1.0794
   92SAPE   H4S 9026   2.770   2.909   5.757 -0.1147  0.7531 -3.0800
   92SAPE   C25 9027   2.945   3.049   5.724  0.0170  0.3044 -0.0644
   92SAPE   H5R 9028   2.997   3.120   5.791  0.6109  0.2492 -0.4559
   92SAPE   C26 9029   3.007   3.007   5.608  0.2869  0.0730 -0.8285
   92SAPE   H6R 9030   3.102   3.048   5.571  1.0495 -1.8959 -1.1752
   92SAPE   C27 9031   2.947   2.896   5.527 -0.1178  0.3510  0.1793
   92SAPE   H7R 9032   2.956   2.928   5.421 -3.5625 -1.6591 -0.8882
   92SAPE   H7S 9033   2.840   2.876   5.551 -0.1494  0.3505  0.0421
   92SAPE   C28 9034   3.013   2.770   5.555  0.0002  0.7048  0.0462
   92SAPE   H8R 9035   3.008   2.748   5.662 -1.0763  0.7642  0.0228
   92SAPE   C29 9036   3.080   2.697   5.469 -0.2119 -0.7300  0.4975
   92SAPE   H9R 9037   3.117   2.598   5.500  0.5679 -1.2019 -1.7407
   92SAPE  C210 9038   3.103   2.737   5.324 -0.7436 -0.9145  0.6706
   92SAPE  H10R 9039   3.156   2.834   5.319 -0.3160 -1.2272 -1.9824
   92SAPE  H10S 9040   3.006   2.756   5.274  0.3358  1.0305 -0.8195
   92SAPE  C211 9041   3.203   2.641   5.258 -0.6447 -0.7483 -0.0304
   92SAPE  H11R 9042   3.309   2.664   5.273 -0.8442  1.7481 -1.8343
   92SAPE  C212 9043   3.178   2.561   5.152  0.7443  0.2888 -0.3763
   92SAPE  H12R 9044   3.254   2.496   5.107 -0.2124 -1.8366  0.9299
   92SAPE  C213 9045   3.033   2.543   5.104  0.1213 -0.1320  0.1337
   92SAPE  H13R 9046   2.991   2.640   5.070  0.3136 -0.0637  0.0842
   92SAPE  H13S 9047   2.978   2.510   5.194  0.5302  0.1190  0.4826
   92SAPE  C214 9048   3.009   2.444   4.992  0.5817 -0.5014 -0.2292
   92SAPE  H14R 9049   2.955   2.350   5.009  0.1455 -0.4550 -1.2409
   92SAPE  C215 9050   3.041   2.457   4.862  0.6060 -0.3997 -0.1203
   92SAPE  H15R 9051   3.011   2.383   4.786 -1.0959 -0.8513  0.9322
   92SAPE  C216 9052   3.113   2.577   4.806 -0.0308  0.3340 -0.2215
   92SAPE  H16R 9053   3.110   2.661   4.878 -0.0538 -0.3247  0.5599
   92SAPE  H16S 9054   3.060   2.619   4.718  0.2715 -0.9421 -1.0518
   92SAPE  C217 9055   3.260   2.555   4.774 -0.7724  0.1206  0.1513
   92SAPE  H17R 9056   3.320   2.526   4.863  0.8893  2.7671  0.0007
   92SAPE  H17S 9057   3.296   2.649   4.726 -0.4837  0.4231  0.9471
   92SAPE  C218 9058   3.285   2.439   4.681 -0.4685 -0.5390 -0.0221
   92SAPE  H18R 9059   3.200   2.435   4.609 -1.0404  0.3762  0.5769
   92SAPE  H18S 9060   3.301   2.339   4.727  0.3013 -0.3446  0.1379
   92SAPE  C219 9061   3.410   2.455   4.595 -0.0330 -0.1483 -0.1783
   92SAPE  H19R 9062   3.504   2.454   4.654 -0.3173 -1.9585  0.2999
   92SAPE  H19S 9063   3.415   2.547   4.533  0.5265 -2.0232 -3.0877
   92SAPE  C220 9064   3.425   2.343   4.489  0.5819 -0.1455 -0.1957
   92SAPE  H20R 9065   3.423   2.245   4.542  0.8857  0.1564  0.3743
   92SAPE  H20S 9066   3.522   2.358   4.437 -0.3240  1.9053 -1.4453
   92SAPE  H20T 9067   3.334   2.344   4.426  0.5641 -1.8299 -0.2547
   92SAPE   C33 9068   2.812   2.338   5.585  1.2555 -0.3895  0.0285
   92SAPE   H3X 9069   2.724   2.269   5.588 -1.3045  2.6402  0.6319
   92SAPE   H3Y 9070   2.896   2.314   5.653  0.8221  2.5061  1.7416
   92SAPE   C34 9071   2.860   2.337   5.436 -0.4083  0.1620  0.6393
   92SAPE   H4X 9072   2.948   2.404   5.427  1.0509 -1.7371 -0.1142
   92SAPE   H4Y 9073   2.791   2.368   5.355  1.3987 -2.0194 -1.9650
   92SAPE   C35 9074   2.908   2.201   5.392  0.0744  0.2742 -0.3761
   92SAPE   H5X 9075   2.825   2.130   5.414 -0.3923  1.0234  0.3585
   92SAPE   H5Y 9076   2.995   2.168   5.452 -0.1206 -0.0871 -0.2900
   92SAPE   C36 9077   2.941   2.188   5.241  0.0145 -1.1591  0.0551
   92SAPE   H6X 9078   3.043   2.227   5.219  0.3391 -2.3401 -0.6248
   92SAPE   H6Y 9079   2.871   2.241   5.174  0.1840 -3.2165 -1.8811
   92SAPE   C37 9080   2.912   2.047   5.190  0.0144  0.3543  0.3915
   92SAPE   H7X 9081   2.814   2.024   5.238  0.2011  1.8243  1.5585
   92SAPE   H7Y 9082   2.991   1.985   5.237 -0.2479 -0.9454 -0.8267
   92SAPE   C38 9083   2.925   2.039   5.042 -0.1167 -0.1501  0.0554
   92SAPE   H8X 9084   2.945   1.932   5.020 -0.2094  0.0723 -1.2147
   92SAPE   H8Y 9085   3.013   2.101   5.012 -0.5448  0.6904  0.5093
   92SAPE   C39 9086   2.800   2.069   4.957 -0.1043 -0.3450  0.4787
   92SAPE   H9X 9087   2.780   2.178   4.958  1.9590  0.0762  0.0049
   92SAPE   H9Y 9088   2.711   2.017   4.998 -0.4418 -0.3211 -0.2053
   92SAPE  C310 9089   2.820   2.032   4.805  0.6568  0.4705  0.0916
   92SAPE  H10X 9090   2.725   2.001   4.756 -0.2283  2.1238  0.6676
   92SAPE  H10Y 9091   2.887   1.944   4.807  1.1286  0.7804 -1.1452
   92SAPE  C311 9092   2.873   2.153   4.722 -0.6916 -0.4559  0.4995
   92SAPE  H11X 9093   2.955   2.192   4.786 -1.2350  1.3750  0.1328
   92SAPE  H11Y 9094   2.803   2.239   4.710  1.1501  0.9251 -0.8429
   92SAPE  C312 9095   2.934   2.110   4.586  0.0808  0.0955 -0.7744
   92SAPE  H12X 9096   2.869   2.045   4.525  1.5212  0.2465 -2.5655
   92SAPE  H12Y 9097   3.015   2.042   4.622 -1.0445 -0.3811  0.9808
   92SAPE  C313 9098   3.010   2.211   4.501  0.4420 -0.3352  0.1169
   92SAPE  H13X 9099   3.051   2.294   4.562 -0.5720 -0.0169  0.3872
   92SAPE  H13Y 9100   2.926   2.250   4.439  1.3041 -2.3558 -2.5102
   92SAPE  C314 9101   3.108   2.149   4.404 -0.2730 -0.7048  1.5190
   92SAPE  H14X 9102   3.164   2.075   4.465  0.5994  0.9119  2.7777
   92SAPE  H14Y 9103   3.174   2.230   4.366 -0.2288 -0.9288  1.1115
   92SAPE  C315 9104   3.044   2.085   4.279  0.4140 -0.2073 -0.5707
   92SAPE  H15X 9105   3.004   2.164   4.212 -0.2378  1.5059  1.7090
   92SAPE  H15Y 9106   2.949   2.035   4.306  0.5669 -0.4675 -0.5141
   92SAPE  C316 9107   3.133   1.994   4.200  0.4556  0.3246 -0.1951
   92SAPE  H16X 9108   3.166   1.911   4.265 -0.9514  1.8935  2.6985
   92SAPE  H16Y 9109   3.228   2.048   4.176 -0.4221  1.5482 -1.0368
   92SAPE  C317 9110   3.067   1.946   4.071  0.1613 -0.1189  0.2425
   92SAPE  H17X 9111   3.100   2.022   3.996  2.5963  2.9742  4.0495
   92SAPE  H17Y 9112   2.956   1.950   4.077  0.2461  1.5889  1.0667
   92SAPE  C318 9113   3.103   1.799   4.043  0.4989 -0.1094 -0.2516
   92SAPE  H18X 9114   3.117   1.730   4.130 -0.5706 -3.1779 -2.3538
   92SAPE  H18Y 9115   3.201   1.792   3.991  1.7062  4.1070  1.0541
   92SAPE  H18Z 9116   3.021   1.752   3.985 -0.2275  1.5727 -0.6268
   93SAPE     N 9117   3.661   1.316   6.680  0.0429  1.1943  0.5603
   93SAPE   HN1 9118   3.604   1.236   6.647 -0.2954  2.2898 -1.7333
   93SAPE   HN2 9119   3.719   1.307   6.765  0.1064  2.8596  0.7358
   93SAPE   HN3 9120   3.597   1.397   6.693 -1.0198  0.7648 -1.5419
   93SAPE   C12 9121   3.745   1.329   6.563  0.3878 -0.4103  0.0315
   93SAPE  H12A 9122   3.679   1.331   6.474 -1.0033  1.2651  1.0424
   93SAPE  H12B 9123   3.796   1.230   6.553  0.9934 -0.0806 -0.1578
   93SAPE   C11 9124   3.842   1.443   6.591  0.7390 -0.2685  1.0817
   93SAPE  H11A 9125   3.923   1.430   6.516  0.3763  1.6823  0.2884
   93SAPE  H11B 9126   3.896   1.427   6.687  0.7392  0.9727  1.3099
   93SAPE     P 9127   3.729   1.627   6.454 -0.1155  0.0641  0.0639
   93SAPE   O13 9128   3.593   1.575   6.434 -0.4566 -0.4858 -0.1218
   93SAPE   O14 9129   3.745   1.775   6.449 -0.3365 -0.0899 -0.1651
   93SAPE   O12 9130   3.789   1.576   6.586  0.1176  0.1855  0.4735
   93SAPE   O11 9131   3.820   1.553   6.343  0.3812 -0.1482  0.3192
   93SAPE    C1 9132   3.937   1.604   6.278  0.5582  0.6016 -0.2898
   93SAPE    HA 9133   3.944   1.714   6.292 -0.3496  0.2824  3.8200
   93SAPE    HB 9134   4.026   1.567   6.334  1.5253  0.3775 -1.8972
   93SAPE    C2 9135   3.936   1.568   6.123  0.0033  0.6695  0.0816
   93SAPE    HS 9136   3.992   1.647   6.069 -0.9449  0.8342 -0.6954
   93SAPE   O21 9137   3.800   1.558   6.075  0.3689  0.2801  0.4915
   93SAPE   C21 9138   3.735   1.670   6.076  0.0396 -0.0305  0.3638
   93SAPE   O22 9139   3.785   1.779   6.088 -0.3539  0.4568  0.0710
   93SAPE   C22 9140   3.579   1.649   6.046 -0.6307  0.2217  0.0237
   93SAPE   H2R 9141   3.532   1.586   6.125 -0.8713  0.6552  0.2323
   93SAPE   H2S 9142   3.544   1.751   6.019  1.2287  0.3154 -2.3805
   93SAPE    C3 9143   4.017   1.441   6.093  0.4353 -0.5874  0.7092
   93SAPE    HX 9144   3.978   1.344   6.132 -0.0813 -2.2109 -3.4141
   93SAPE    HY 9145   4.116   1.457   6.142  1.4727 -1.4036 -1.0258
   93SAPE   O31 9146   4.041   1.430   5.949 -0.2999 -0.6884  0.0759
   93SAPE   C31 9147   4.096   1.312   5.916  0.7341  0.0687 -0.5247
   93SAPE   O32 9148   4.128   1.229   5.994 -0.2182  0.2243 -0.3475
   93SAPE   C32 9149   4.118   1.300   5.763 -0.2511  0.7503 -0.5389
   93SAPE   H2X 9150   4.177   1.388   5.729 -0.6682  1.7931  1.3026
   93SAPE   H2Y 9151   4.023   1.309   5.707 -0.1203  0.1139 -0.8659
   93SAPE   C23 9152   3.560   1.574   5.912 -0.1698  0.2044 -0.5520
   93SAPE   H3R 9153   3.576   1.468   5.942 -1.7404 -0.1625 -0.8918
   93SAPE   H3S 9154   3.639   1.599   5.838  0.3442 -0.7195 -0.3317
   93SAPE   C24 9155   3.418   1.566   5.860  0.1016 -0.2742  0.1371
   93SAPE   H4R 9156   3.349   1.531   5.940  1.5061 -1.9037  0.7005
   93SAPE   H4S 9157   3.429   1.488   5.782  1.8885 -1.2782  1.3352
   93SAPE   C25 9158   3.387   1.705   5.798 -0.5169  0.4385  0.3590
   93SAPE   H5R 9159   3.333   1.765   5.874 -1.7833  0.5369 -0.5889
   93SAPE   C26 9160   3.419   1.749   5.675 -0.4094 -0.1176  0.4184
   93SAPE   H6R 9161   3.405   1.856   5.656 -1.1752  0.1435  2.2592
   93SAPE   C27 9162   3.500   1.677   5.574  0.1587 -0.3793 -0.7438
   93SAPE   H7R 9163   3.437   1.658   5.485  0.3835  0.4249 -1.0827
   93SAPE   H7S 9164   3.551   1.589   5.617 -0.2594  0.1692  0.9712
   93SAPE   C28 9165   3.609   1.778   5.535 -0.4130  0.0201 -0.2107
   93SAPE   H8R 9166   3.652   1.829   5.623  0.5888  2.5542 -2.0449
   93SAPE   C29 9167   3.664   1.803   5.419 -0.0298  0.3683  1.2779
   93SAPE   H9R 9168   3.733   1.888   5.412 -0.2736  0.4603 -0.8975
   93SAPE  C210 9169   3.622   1.748   5.280  0.0766 -0.3321 -0.2515
   93SAPE  H10R 9170   3.632   1.638   5.282  1.3207 -0.3996 -3.9867
   93SAPE  H10S 9171   3.684   1.783   5.195  0.0385 -1.6638 -0.8434
   93SAPE  C211 9172   3.478   1.784   5.247  0.0759 -0.1316 -0.0404
   93SAPE  H11R 9173   3.439   1.861   5.315  0.3960 -0.4843  0.5568
   93SAPE  C212 9174   3.410   1.743   5.136 -0.5856  0.0668  0.0065
   93SAPE  H12R 9175   3.309   1.785   5.117 -1.7825 -2.3845  0.5405
   93SAPE  C213 9176   3.476   1.639   5.039  0.5533 -0.4882 -0.6459
   93SAPE  H13R 9177   3.388   1.577   5.010  0.7528  0.2585 -3.1342
   93SAPE  H13S 9178   3.540   1.572   5.100  1.0191 -0.3222 -0.9464
   93SAPE  C214 9179   3.555   1.684   4.915 -0.0923  1.1106  0.2321
   93SAPE  H14R 9180   3.598   1.784   4.932 -0.6778  1.2530  0.9512
   93SAPE  C215 9181   3.578   1.608   4.808 -0.9096  0.3255  0.4682
   93SAPE  H15R 9182   3.630   1.644   4.718 -4.0741 -0.8728 -2.0327
   93SAPE  C216 9183   3.530   1.470   4.778 -0.2384  0.5241 -0.1698
   93SAPE  H16R 9184   3.492   1.411   4.864  0.0864  1.2607  0.4933
   93SAPE  H16S 9185   3.618   1.414   4.739  1.5742  1.8876  1.7441
   93SAPE  C217 9186   3.410   1.470   4.677  0.4281  0.5447 -0.4106
   93SAPE  H17R 9187   3.335   1.530   4.734  1.4779  1.0667  0.4642
   93SAPE  H17S 9188   3.378   1.365   4.666  1.1430 -0.0254  2.3359
   93SAPE  C218 9189   3.448   1.539   4.551  0.1319  0.3436 -0.9043
   93SAPE  H18R 9190   3.546   1.504   4.512  0.7689  1.0686  0.0005
   93SAPE  H18S 9191   3.468   1.644   4.579  0.6379 -0.5930  2.8014
   93SAPE  C219 9192   3.333   1.542   4.452  0.5846 -0.3326 -0.0515
   93SAPE  H19R 9193   3.238   1.565   4.504 -0.7679 -0.3326 -2.3870
   93SAPE  H19S 9194   3.316   1.440   4.412  0.4338 -0.3012 -0.0646
   93SAPE  C220 9195   3.348   1.635   4.334 -0.3571 -0.0765  0.1362
   93SAPE  H20R 9196   3.360   1.736   4.379  0.9861  0.7474 -1.9300
   93SAPE  H20S 9197   3.257   1.631   4.270 -1.2717 -0.1119  1.4161
   93SAPE  H20T 9198   3.434   1.604   4.271 -1.3242 -1.7951 -0.4040
   93SAPE   C33 9199   4.180   1.163   5.723  0.1463  0.1285 -0.8809
   93SAPE   H3X 9200   4.147   1.070   5.773 -1.4743  0.0736 -1.9885
   93SAPE   H3Y 9201   4.290   1.160   5.740 -0.1728 -0.5548  1.3056
   93SAPE   C34 9202   4.164   1.138   5.572 -0.7605  0.7231  0.3522
   93SAPE   H4X 9203   4.057   1.138   5.542 -1.1549  0.9213  1.7205
   93SAPE   H4Y 9204   4.209   1.038   5.550 -3.1621 -0.2057 -0.7351
   93SAPE   C35 9205   4.244   1.251   5.492  0.8401  0.2462  0.3149
   93SAPE   H5X 9206   4.350   1.260   5.522  0.9790  0.1153 -0.1235
   93SAPE   H5Y 9207   4.178   1.340   5.504  0.0362 -0.0040 -1.7180
   93SAPE   C36 9208   4.247   1.227   5.332  0.4245 -0.7242 -0.8765
   93SAPE   H6X 9209   4.252   1.325   5.280  3.6190  0.6531  1.6467
   93SAPE   H6Y 9210   4.154   1.175   5.301 -1.6865  1.3429  1.6364
   93SAPE   C37 9211   4.361   1.131   5.302 -0.5854 -0.0263  0.0331
   93SAPE   H7X 9212   4.342   1.034   5.352 -1.7346 -0.5232 -1.3144
   93SAPE   H7Y 9213   4.453   1.163   5.355 -2.2484 -0.0280  3.1332
   93SAPE   C38 9214   4.393   1.099   5.157  0.4861 -0.7076 -0.5607
   93SAPE   H8X 9215   4.294   1.072   5.114  0.2287  0.8544 -1.0030
   93SAPE   H8Y 9216   4.446   1.001   5.147 -0.2839 -1.3884  1.5774
   93SAPE   C39 9217   4.460   1.210   5.077 -0.1294 -0.0324  0.1816
   93SAPE   H9X 9218   4.565   1.222   5.110 -0.0335 -0.8431  0.1874
   93SAPE   H9Y 9219   4.417   1.312   5.089  2.3856  0.8883  2.4096
   93SAPE  C310 9220   4.481   1.189   4.923  0.9951  0.3247  0.0144
   93SAPE  H10X 9221   4.375   1.201   4.894  0.7397  2.3132  1.5082
   93SAPE  H10Y 9222   4.516   1.085   4.906  2.2225  0.4511  1.5467
   93SAPE  C311 9223   4.555   1.291   4.836  0.3359  0.3772  0.1767
   93SAPE  H11X 9224   4.496   1.384   4.822 -0.3068  0.0029  0.3391
   93SAPE  H11Y 9225   4.568   1.261   4.730 -0.5115 -0.1146  0.2061
   93SAPE  C312 9226   4.690   1.345   4.895  0.3289 -0.1597  0.3741
   93SAPE  H12X 9227   4.762   1.261   4.896 -0.6549 -1.0344  2.1459
   93SAPE  H12Y 9228   4.676   1.393   4.994 -2.2960  3.0885 -1.3543
   93SAPE  C313 9229   4.740   1.454   4.792 -0.2824  0.4163 -0.5140
   93SAPE  H13X 9230   4.806   1.528   4.843  2.3903 -1.3207 -1.2449
   93SAPE  H13Y 9231   4.652   1.511   4.755 -1.5949  0.0942  1.8727
   93SAPE  C314 9232   4.815   1.385   4.680  0.3392 -0.1636 -0.7118
   93SAPE  H14X 9233   4.754   1.321   4.612  0.8046  0.7491 -2.0283
   93SAPE  H14Y 9234   4.898   1.325   4.724  0.6229  1.4230  1.0055
   93SAPE  C315 9235   4.902   1.478   4.602  0.7276 -0.6412  0.2201
   93SAPE  H15X 9236   4.982   1.421   4.550  1.5373  0.6227  0.0400
   93SAPE  H15Y 9237   4.966   1.546   4.662  1.5362 -1.8357  0.7719
   93SAPE  C316 9238   4.821   1.572   4.512 -0.6170  0.6060 -0.4427
   93SAPE  H16X 9239   4.740   1.611   4.577 -0.0148 -0.1676  0.8055
   93SAPE  H16Y 9240   4.780   1.505   4.433 -0.2051 -0.2616  0.0696
   93SAPE  C317 9241   4.893   1.694   4.459  0.1778 -0.1449  0.3630
   93SAPE  H17X 9242   4.905   1.763   4.545 -0.6352 -0.3462  0.6471
   93SAPE  H17Y 9243   4.824   1.746   4.388 -0.0746 -0.8063  0.1166
   93SAPE  C318 9244   5.018   1.670   4.388 -0.0007 -0.3532 -0.0221
   93SAPE  H18X 9245   5.054   1.752   4.322 -0.6375  0.6640  0.8722
   93SAPE  H18Y 9246   5.020   1.574   4.331 -0.6668  0.0710 -0.7842
   93SAPE  H18Z 9247   5.097   1.649   4.463  0.9135 -2.5150 -1.4925
   94SAPE     N 9248   3.830   2.013   6.396  0.7623 -0.2346  0.4330
   94SAPE   HN1 9249   3.849   2.074   6.479  2.7652 -0.5392  0.2495
   94SAPE   HN2 9250   3.796   1.921   6.430  0.2096  0.1196  0.8618
   94SAPE   HN3 9251   3.910   2.014   6.330 -0.5106  1.0565 -1.1941
   94SAPE   C12 9252   3.719   2.076   6.319  0.5369  1.1484  1.0396
   94SAPE  H12A 9253   3.642   2.101   6.395 -1.8762  0.5473 -1.0619
   94SAPE  H12B 9254   3.690   2.003   6.241 -0.4554  1.3617  1.1944
   94SAPE   C11 9255   3.769   2.197   6.245  0.0644 -0.8050  0.4102
   94SAPE  H11A 9256   3.691   2.236   6.177  0.7383  0.6038  0.4066
   94SAPE  H11B 9257   3.849   2.155   6.180  0.6018  1.1820 -0.2664
   94SAPE     P 9258   3.726   2.420   6.380  0.4123 -0.1864 -0.6308
   94SAPE   O13 9259   3.628   2.361   6.473 -0.5356  0.7870 -0.9631
   94SAPE   O14 9260   3.809   2.529   6.427 -0.5803 -0.3738 -0.1703
   94SAPE   O12 9261   3.825   2.307   6.329  0.2025  0.0979 -0.1833
   94SAPE   O11 9262   3.652   2.477   6.251  0.2976 -0.2759 -0.6894
   94SAPE    C1 9263   3.525   2.524   6.276  1.1968  0.0298 -0.2540
   94SAPE    HA 9264   3.455   2.445   6.312 -0.7952 -0.2648 -4.1684
   94SAPE    HB 9265   3.530   2.613   6.342  0.8021 -0.6828  0.7602
   94SAPE    C2 9266   3.457   2.569   6.141 -0.4706 -1.1625  0.2320
   94SAPE    HS 9267   3.346   2.562   6.141 -0.5558 -0.2955 -1.5082
   94SAPE   O21 9268   3.505   2.489   6.026 -0.3746 -0.1269 -0.1635
   94SAPE   C21 9269   3.472   2.366   6.036 -0.3906  0.2582 -0.4902
   94SAPE   O22 9270   3.391   2.309   6.108 -0.7714  0.6234 -0.8123
   94SAPE   C22 9271   3.558   2.283   5.938 -0.6422  0.0812 -0.4680
   94SAPE   H2R 9272   3.533   2.323   5.838  1.6561  0.4191 -0.9584
   94SAPE   H2S 9273   3.668   2.293   5.956 -0.3907 -0.3801 -1.6654
   94SAPE    C3 9274   3.486   2.725   6.119  0.2631  0.2887 -0.4501
   94SAPE    HX 9275   3.594   2.737   6.142 -0.0611 -0.5723  1.7422
   94SAPE    HY 9276   3.443   2.784   6.202  3.2379  0.1485  1.3252
   94SAPE   O31 9277   3.441   2.778   5.994 -0.0073  0.0392  0.3870
   94SAPE   C31 9278   3.313   2.813   5.981 -0.1898 -0.1710  0.0134
   94SAPE   O32 9279   3.226   2.802   6.067  0.1659 -0.2436 -1.0328
   94SAPE   C32 9280   3.284   2.851   5.823  0.4459  0.7871 -0.2788
   94SAPE   H2X 9281   3.316   2.953   5.794 -0.0453  0.9123 -0.3871
   94SAPE   H2Y 9282   3.173   2.851   5.814  0.3993  2.5006  0.0189
   94SAPE   C23 9283   3.529   2.129   5.945  0.2419  0.3661 -0.1310
   94SAPE   H3R 9284   3.419   2.111   5.941  0.4856 -1.1756 -0.7988
   94SAPE   H3S 9285   3.561   2.088   6.043 -3.1523 -0.2191  0.8728
   94SAPE   C24 9286   3.607   2.051   5.827 -0.3149  0.4179 -1.2150
   94SAPE   H4R 9287   3.581   2.078   5.723  1.3584  2.5725 -1.1336
   94SAPE   H4S 9288   3.573   1.945   5.836 -0.8075  0.5563 -1.3857
   94SAPE   C25 9289   3.757   2.047   5.847  0.0999 -0.1402  0.7857
   94SAPE   H5R 9290   3.800   2.003   5.938  1.4278  1.6519  1.0836
   94SAPE   C26 9291   3.843   2.088   5.752  0.5185 -0.2528  0.1081
   94SAPE   H6R 9292   3.949   2.065   5.770  1.1211 -1.1871 -3.7322
   94SAPE   C27 9293   3.826   2.134   5.608 -0.2009  0.5091  0.2193
   94SAPE   H7R 9294   3.771   2.229   5.620 -2.6701 -0.7521 -0.3726
   94SAPE   H7S 9295   3.749   2.068   5.562 -0.1592  1.6312 -1.5800
   94SAPE   C28 9296   3.945   2.152   5.521 -0.4000 -0.6788  0.2284
   94SAPE   H8R 9297   4.039   2.164   5.577 -0.4050  2.5579 -0.2740
   94SAPE   C29 9298   3.945   2.160   5.386  0.2164  0.4702 -0.3597
   94SAPE   H9R 9299   4.042   2.169   5.336 -0.5881  1.2528 -1.8347
   94SAPE  C210 9300   3.821   2.152   5.302 -0.5376  0.2509  0.5838
   94SAPE  H10R 9301   3.772   2.250   5.286 -1.9677 -0.6434 -0.7909
   94SAPE  H10S 9302   3.739   2.098   5.354 -1.0018 -1.2379 -1.5279
   94SAPE  C211 9303   3.838   2.089   5.168 -0.0287  0.5717  0.6313
   94SAPE  H11R 9304   3.830   1.980   5.167  2.9746  0.1376 -2.9492
   94SAPE  C212 9305   3.866   2.148   5.049  0.2252  0.5748 -0.1478
   94SAPE  H12R 9306   3.888   2.080   4.965  3.1693  0.5528  0.5267
   94SAPE  C213 9307   3.875   2.300   5.018 -0.0221 -0.1223 -0.5911
   94SAPE  H13R 9308   3.953   2.320   4.942 -0.2022  2.1161 -0.2353
   94SAPE  H13S 9309   3.915   2.351   5.108 -1.6299  0.7997 -0.3503
   94SAPE  C214 9310   3.750   2.373   4.978  0.0060 -0.6488 -0.6060
   94SAPE  H14R 9311   3.660   2.349   5.037  1.3828  2.3220  3.0789
   94SAPE  C215 9312   3.728   2.439   4.868 -0.1162  0.6819  0.2087
   94SAPE  H15R 9313   3.624   2.466   4.842 -0.3034  0.8016  1.0641
   94SAPE  C216 9314   3.836   2.470   4.768 -0.5701  0.3921  0.4975
   94SAPE  H16R 9315   3.894   2.380   4.739  0.6466  1.1312  0.5467
   94SAPE  H16S 9316   3.909   2.539   4.816  0.9008 -1.4306  1.0227
   94SAPE  C217 9317   3.768   2.534   4.644  0.0429  0.1107  0.0137
   94SAPE  H17R 9318   3.702   2.457   4.598 -2.1453  2.3726 -0.8753
   94SAPE  H17S 9319   3.858   2.546   4.580 -0.1330  2.0960  0.0779
   94SAPE  C218 9320   3.710   2.667   4.668  0.5945 -0.1090 -0.0295
   94SAPE  H18R 9321   3.781   2.734   4.723 -0.4955  2.2313 -1.3071
   94SAPE  H18S 9322   3.617   2.650   4.725  1.1538 -0.2692  0.8534
   94SAPE  C219 9323   3.677   2.729   4.526 -0.5312 -0.1864  0.3733
   94SAPE  H19R 9324   3.578   2.781   4.522  0.0921  1.0943  1.1344
   94SAPE  H19S 9325   3.667   2.639   4.462  1.7704 -0.4318  0.2995
   94SAPE  C220 9326   3.795   2.826   4.483 -0.7608 -0.3832 -0.4530
   94SAPE  H20R 9327   3.794   2.845   4.373 -0.1855 -2.6119 -0.8955
   94SAPE  H20S 9328   3.891   2.783   4.518 -0.4694  0.4362 -0.2235
   94SAPE  H20T 9329   3.790   2.925   4.532 -1.7740 -1.1374  1.0191
   94SAPE   C33 9330   3.334   2.742   5.729  0.2146 -0.0249 -0.1347
   94SAPE   H3X 9331   3.444   2.729   5.727  0.0929 -1.0971 -0.1125
   94SAPE   H3Y 9332   3.296   2.775   5.629  0.0573  0.7848  0.1827
   94SAPE   C34 9333   3.259   2.613   5.759 -0.4724  0.0643  0.2157
   94SAPE   H4X 9334   3.148   2.619   5.756 -0.6548 -2.3869 -1.8165
   94SAPE   H4Y 9335   3.281   2.583   5.864 -0.1974 -0.6144 -0.0323
   94SAPE   C35 9336   3.304   2.494   5.673  0.2819  0.1205 -0.0596
   94SAPE   H5X 9337   3.407   2.476   5.711  0.0013  0.4299  0.8853
   94SAPE   H5Y 9338   3.296   2.529   5.568 -2.2166  1.8442  0.6055
   94SAPE   C36 9339   3.219   2.359   5.678 -0.6281 -0.7744  0.7672
   94SAPE   H6X 9340   3.132   2.399   5.622 -0.3043  0.0618  0.8516
   94SAPE   H6Y 9341   3.183   2.338   5.782 -2.4282 -1.5534  0.0280
   94SAPE   C37 9342   3.281   2.238   5.610 -0.0471 -0.2498  0.4648
   94SAPE   H7X 9343   3.197   2.168   5.592  0.3372 -0.5346 -0.2316
   94SAPE   H7Y 9344   3.358   2.192   5.675 -0.8290  0.0704  1.6558
   94SAPE   C38 9345   3.335   2.278   5.468 -0.0502 -0.0553 -0.4281
   94SAPE   H8X 9346   3.408   2.360   5.483 -0.8238  0.6806 -0.5873
   94SAPE   H8Y 9347   3.250   2.318   5.407 -0.8968 -0.4303  0.4843
   94SAPE   C39 9348   3.408   2.153   5.407 -0.0519 -0.0574  0.3965
   94SAPE   H9X 9349   3.344   2.063   5.398 -1.0421  0.5967  0.7733
   94SAPE   H9Y 9350   3.490   2.125   5.477  1.3949 -1.5210 -1.7510
   94SAPE  C310 9351   3.463   2.173   5.262 -0.0739 -0.1437 -0.2529
   94SAPE  H10X 9352   3.523   2.083   5.235  1.8694  0.7896  0.7365
   94SAPE  H10Y 9353   3.527   2.264   5.261 -1.0449  0.5476 -0.6135
   94SAPE  C311 9354   3.347   2.177   5.169  0.1685 -0.0123 -0.0759
   94SAPE  H11X 9355   3.272   2.253   5.198 -2.7187 -2.2138 -1.2980
   94SAPE  H11Y 9356   3.302   2.077   5.157 -1.1895  0.6403 -0.6122
   94SAPE  C312 9357   3.393   2.213   5.028  0.6672  0.4276 -0.2463
   94SAPE  H12X 9358   3.459   2.302   5.024  1.1611  0.0181 -1.6522
   94SAPE  H12Y 9359   3.303   2.230   4.964  0.7500 -0.1448 -0.5246
   94SAPE  C313 9360   3.472   2.092   4.974 -0.6352 -0.8553 -0.6042
   94SAPE  H13X 9361   3.439   2.001   5.028  1.4117 -1.4024 -0.1951
   94SAPE  H13Y 9362   3.582   2.109   4.980 -0.9721  1.1049  1.3843
   94SAPE  C314 9363   3.458   2.051   4.826  0.8767 -0.2644 -0.4134
   94SAPE  H14X 9364   3.499   1.948   4.823 -1.2758 -1.3368  2.4028
   94SAPE  H14Y 9365   3.502   2.124   4.755 -1.9467  0.0261 -2.0271
   94SAPE  C315 9366   3.313   2.042   4.770 -0.0938  0.2518  0.2729
   94SAPE  H15X 9367   3.302   2.021   4.662 -0.0170 -0.4999  0.4050
   94SAPE  H15Y 9368   3.259   2.138   4.784 -2.1830 -1.1789  3.1027
   94SAPE  C316 9369   3.217   1.947   4.844  0.8911 -0.1138 -0.5657
   94SAPE  H16X 9370   3.123   1.982   4.795  1.8640 -0.5560 -2.8786
   94SAPE  H16Y 9371   3.223   1.972   4.952  2.8185 -1.4236 -0.3225
   94SAPE  C317 9372   3.215   1.799   4.817 -0.1420  0.6166  0.9119
   94SAPE  H17X 9373   3.322   1.769   4.828 -0.3653 -1.0954 -0.9996
   94SAPE  H17Y 9374   3.179   1.786   4.713 -0.2711 -0.6758  1.0905
   94SAPE  C318 9375   3.117   1.721   4.908  0.0342  0.4900 -0.0926
   94SAPE  H18X 9376   3.019   1.767   4.882 -0.6897  0.9573  3.0992
   94SAPE  H18Y 9377   3.141   1.743   5.014 -1.4396 -1.2289  0.6318
   94SAPE  H18Z 9378   3.125   1.612   4.888 -1.0558  0.8191 -2.7373
   95SAPE     N 9379   6.049   0.768   6.024  0.6902 -0.1033 -0.5832
   95SAPE   HN1 9380   5.957   0.785   6.070  1.5386  0.2546  1.0436
   95SAPE   HN2 9381   6.046   0.812   5.930  1.4428 -0.5905 -0.8438
   95SAPE   HN3 9382   6.076   0.671   6.000  2.7114  0.3326 -0.2518
   95SAPE   C12 9383   6.163   0.826   6.107 -0.4495 -1.1276 -0.4646
   95SAPE  H12A 9384   6.256   0.811   6.048  0.7355  2.1519  0.3517
   95SAPE  H12B 9385   6.171   0.747   6.184 -0.8402 -0.4488  0.2876
   95SAPE   C11 9386   6.153   0.971   6.137 -0.3050  0.0072  1.0256
   95SAPE  H11A 9387   6.246   1.007   6.185  0.2787 -2.1263  1.6166
   95SAPE  H11B 9388   6.073   1.000   6.208  1.6510  3.1592  2.1279
   95SAPE     P 9389   6.169   1.172   5.960  0.2255 -0.2733  0.2586
   95SAPE   O13 9390   6.094   1.204   5.837  0.4397 -0.1136 -0.4947
   95SAPE   O14 9391   6.146   1.254   6.078 -1.1111  0.5823 -0.5828
   95SAPE   O12 9392   6.130   1.024   6.002 -0.1409 -0.3967  0.0344
   95SAPE   O11 9393   6.328   1.170   5.932 -0.4393  0.0087  0.5681
   95SAPE    C1 9394   6.390   1.038   5.930 -0.1696  0.2881 -0.1219
   95SAPE    HA 9395   6.414   0.997   6.031 -0.9574 -1.0914 -0.4601
   95SAPE    HB 9396   6.326   0.966   5.874 -0.4966 -1.3008  2.1237
   95SAPE    C2 9397   6.520   1.029   5.842  0.4609 -0.5547 -0.0816
   95SAPE    HS 9398   6.589   1.090   5.904 -1.3311 -0.6960  2.1697
   95SAPE   O21 9399   6.490   1.082   5.712  0.0053  0.3735  0.0087
   95SAPE   C21 9400   6.593   1.155   5.662 -0.0717 -0.0616 -0.0056
   95SAPE   O22 9401   6.699   1.172   5.720  0.3711 -0.9445 -0.2927
   95SAPE   C22 9402   6.551   1.212   5.520  0.3609 -0.2792 -0.3150
   95SAPE   H2R 9403   6.555   1.128   5.447  0.6550 -0.7132  0.1888
   95SAPE   H2S 9404   6.450   1.258   5.530  0.9557  1.2628 -1.1780
   95SAPE    C3 9405   6.584   0.886   5.834  0.1094  0.0659  0.7371
   95SAPE    HX 9406   6.628   0.870   5.935  1.5043 -0.3706  0.0846
   95SAPE    HY 9407   6.659   0.894   5.753 -0.8730 -0.0584 -0.2110
   95SAPE   O31 9408   6.487   0.790   5.799  0.6568 -0.0860 -0.0644
   95SAPE   C31 9409   6.534   0.668   5.816  0.1036  0.3953 -0.4270
   95SAPE   O32 9410   6.650   0.647   5.837  0.6284  0.5210 -0.4188
   95SAPE   C32 9411   6.422   0.564   5.807 -0.7862  0.0491 -0.2159
   95SAPE   H2X 9412   6.368   0.577   5.711  0.5015 -2.8221 -1.4681
   95SAPE   H2Y 9413   6.351   0.591   5.888 -0.1030  0.0916  0.3883
   95SAPE   C23 9414   6.642   1.325   5.479 -0.3773 -0.2603  0.1461
   95SAPE   H3R 9415   6.747   1.300   5.503  0.5442  0.4235 -2.7569
   95SAPE   H3S 9416   6.609   1.412   5.540 -0.7409 -0.9492  0.9655
   95SAPE   C24 9417   6.644   1.366   5.326  0.4713 -0.0428  0.1223
   95SAPE   H4R 9418   6.709   1.454   5.306  2.0931 -1.4152 -0.9201
   95SAPE   H4S 9419   6.539   1.384   5.295  0.4524 -0.9209 -0.3570
   95SAPE   C25 9420   6.700   1.262   5.232 -0.0616 -0.5284  1.5896
   95SAPE   H5R 9421   6.708   1.161   5.275  1.0542 -1.1325  0.0407
   95SAPE   C26 9422   6.733   1.283   5.101 -0.7376 -0.3704  0.4812
   95SAPE   H6R 9423   6.778   1.206   5.035  0.1714 -0.3278  1.0346
   95SAPE   C27 9424   6.712   1.416   5.028  0.5605  0.3220 -0.3127
   95SAPE   H7R 9425   6.654   1.490   5.086  1.5917  2.0940 -1.4600
   95SAPE   H7S 9426   6.646   1.403   4.939 -1.7999 -3.0821  1.7118
   95SAPE   C28 9427   6.840   1.485   4.991  0.7226  0.7526 -0.1920
   95SAPE   H8R 9428   6.879   1.546   5.074  0.5019  1.3626 -0.5356
   95SAPE   C29 9429   6.889   1.508   4.868  0.2088 -0.1956  0.6839
   95SAPE   H9R 9430   6.991   1.549   4.866  0.5170 -0.6560  3.2502
   95SAPE  C210 9431   6.835   1.454   4.740  0.1971  1.0253  0.5950
   95SAPE  H10R 9432   6.732   1.419   4.763  0.5922  0.0472  0.9898
   95SAPE  H10S 9433   6.892   1.363   4.710 -1.9739 -0.4981  0.7967
   95SAPE  C211 9434   6.829   1.569   4.632 -0.9020 -0.4125 -0.6238
   95SAPE  H11R 9435   6.771   1.658   4.658  0.9930  0.4844  0.7769
   95SAPE  C212 9436   6.901   1.573   4.519 -0.1787  0.5057 -0.3101
   95SAPE  H12R 9437   6.890   1.664   4.458  2.4750  2.1581  1.4900
   95SAPE  C213 9438   6.993   1.473   4.460 -1.1372  0.5395  0.4764
   95SAPE  H13R 9439   6.990   1.382   4.524 -0.6024  1.6999  2.2286
   95SAPE  H13S 9440   7.100   1.503   4.464 -1.2565  0.8519  1.8581
   95SAPE  C214 9441   6.953   1.444   4.315 -0.1341 -0.1052 -0.0341
   95SAPE  H14R 9442   6.905   1.528   4.264 -1.9894  0.8387  3.0327
   95SAPE  C215 9443   6.952   1.324   4.264  0.0846 -0.4764 -0.2157
   95SAPE  H15R 9444   6.910   1.314   4.162  0.6377 -0.2940 -0.4608
   95SAPE  C216 9445   7.014   1.196   4.309 -0.5512  0.0189  0.1798
   95SAPE  H16R 9446   6.948   1.107   4.297  0.9360 -0.9392 -1.2894
   95SAPE  H16S 9447   7.041   1.205   4.416  0.0487  0.6741 -0.0209
   95SAPE  C217 9448   7.148   1.160   4.229  0.6561  0.0377 -0.3336
   95SAPE  H17R 9449   7.112   1.176   4.125  0.5226 -0.5959 -0.3875
   95SAPE  H17S 9450   7.190   1.059   4.249  2.4200  0.5673 -1.2028
   95SAPE  C218 9451   7.256   1.264   4.256 -0.7591 -0.1872 -0.2954
   95SAPE  H18R 9452   7.247   1.285   4.364  0.3634 -1.0362 -0.0158
   95SAPE  H18S 9453   7.243   1.361   4.203  1.4578 -0.0204 -0.6282
   95SAPE  C219 9454   7.389   1.213   4.224 -0.0754  0.2852 -0.9534
   95SAPE  H19R 9455   7.391   1.169   4.122 -0.6242 -0.7717 -0.5298
   95SAPE  H19S 9456   7.432   1.130   4.284  1.6728  1.1851 -0.8942
   95SAPE  C220 9457   7.498   1.319   4.215 -0.6756  0.0863  0.0121
   95SAPE  H20R 9458   7.512   1.337   4.324  0.4600  2.1858 -0.4164
   95SAPE  H20S 9459   7.452   1.411   4.172 -0.0566  1.0720  1.3711
   95SAPE  H20T 9460   7.586   1.295   4.152 -0.9632 -0.7160 -0.0977
   95SAPE   C33 9461   6.470   0.412   5.820  0.6202 -0.4590  0.0865
   95SAPE   H3X 9462   6.387   0.341   5.800 -1.3934  1.8490 -0.2018
   95SAPE   H3Y 9463   6.519   0.389   5.916  0.9302 -0.9564 -0.1864
   95SAPE   C34 9464   6.560   0.361   5.708 -0.3795 -0.9573 -0.0565
   95SAPE   H4X 9465   6.593   0.261   5.744  0.5530 -1.1101 -1.2441
   95SAPE   H4Y 9466   6.654   0.420   5.705 -1.5091  0.9143 -0.2576
   95SAPE   C35 9467   6.495   0.336   5.569 -0.0961 -0.2983 -0.1282
   95SAPE   H5X 9468   6.386   0.337   5.590 -0.0266  0.3424  0.2492
   95SAPE   H5Y 9469   6.512   0.234   5.531 -2.5133 -1.2578  1.1509
   95SAPE   C36 9470   6.530   0.437   5.453 -0.5243  0.1305  0.1776
   95SAPE   H6X 9471   6.636   0.464   5.473  0.7446 -2.4131 -2.4215
   95SAPE   H6Y 9472   6.472   0.532   5.460  0.5737  1.0064 -1.8178
   95SAPE   C37 9473   6.500   0.378   5.312  0.0673 -0.2791 -0.4969
   95SAPE   H7X 9474   6.396   0.345   5.295  0.7219 -1.0139 -3.8302
   95SAPE   H7Y 9475   6.566   0.292   5.286  1.2287  0.4946 -0.2036
   95SAPE   C38 9476   6.528   0.474   5.196  0.3024 -0.2985  1.1723
   95SAPE   H8X 9477   6.638   0.491   5.193  0.1444  0.6729 -1.3455
   95SAPE   H8Y 9478   6.473   0.567   5.221 -0.8693 -0.1231 -1.6409
   95SAPE   C39 9479   6.473   0.424   5.061  0.3058  0.4341  0.2786
   95SAPE   H9X 9480   6.366   0.404   5.084 -0.1916  1.3305 -1.1132
   95SAPE   H9Y 9481   6.527   0.329   5.038  1.0420  1.1880 -1.2375
   95SAPE  C310 9482   6.483   0.525   4.939  0.5386  0.0659  0.5298
   95SAPE  H10X 9483   6.592   0.529   4.916  0.7353 -0.4245  1.3340
   95SAPE  H10Y 9484   6.454   0.626   4.975 -0.5565 -0.3046  0.7265
   95SAPE  C311 9485   6.417   0.476   4.806  0.2836  0.3693 -0.2354
   95SAPE  H11X 9486   6.307   0.460   4.810  0.0925  1.6785  0.1112
   95SAPE  H11Y 9487   6.455   0.375   4.779 -1.5828 -0.5038  0.2853
   95SAPE  C312 9488   6.448   0.577   4.686 -0.3499  0.3807 -0.2234
   95SAPE  H12X 9489   6.552   0.615   4.694  0.3216 -1.3330 -0.4390
   95SAPE  H12Y 9490   6.387   0.670   4.692  1.2310  1.5137 -0.9818
   95SAPE  C313 9491   6.434   0.520   4.544 -1.1518  0.0960 -0.3641
   95SAPE  H13X 9492   6.334   0.474   4.532 -0.5988 -2.1218  2.4735
   95SAPE  H13Y 9493   6.517   0.447   4.535 -1.4328 -0.6456  2.1917
   95SAPE  C314 9494   6.449   0.634   4.443  0.6001  0.3973 -1.1217
   95SAPE  H14X 9495   6.525   0.710   4.472 -0.6068  1.4518 -0.6771
   95SAPE  H14Y 9496   6.359   0.699   4.436 -0.8430 -1.3849 -0.0126
   95SAPE  C315 9497   6.470   0.571   4.311 -0.1228  0.4043 -0.6243
   95SAPE  H15X 9498   6.373   0.525   4.285 -0.9904  1.2423  0.9746
   95SAPE  H15Y 9499   6.543   0.488   4.312 -1.4575 -0.8408  2.0401
   95SAPE  C316 9500   6.496   0.677   4.199  0.4879 -0.0051  0.1650
   95SAPE  H16X 9501   6.596   0.715   4.230 -1.5222  4.5118  2.0577
   95SAPE  H16Y 9502   6.417   0.754   4.197 -0.2251 -0.6973 -2.6660
   95SAPE  C317 9503   6.502   0.623   4.057 -0.0337  0.1945  1.3414
   95SAPE  H17X 9504   6.555   0.526   4.044 -0.6723  0.0876 -0.8504
   95SAPE  H17Y 9505   6.541   0.710   4.000 -0.7391  0.5162  1.3403
   95SAPE  C318 9506   6.365   0.595   3.999 -0.0963  0.6666 -0.1962
   95SAPE  H18X 9507   6.305   0.532   4.068  0.1838  0.0515 -0.5091
   95SAPE  H18Y 9508   6.368   0.554   3.896 -1.6774  0.8508 -0.3507
   95SAPE  H18Z 9509   6.308   0.690   3.990  1.0553  1.3039 -1.0156
   96SAPE     N 9510   4.611   4.098   6.375 -0.0707 -0.3113 -0.1036
   96SAPE   HN1 9511   4.627   4.193   6.416  2.4750 -0.9502  0.5704
   96SAPE   HN2 9512   4.541   4.046   6.433  0.7744 -1.3059  0.0517
   96SAPE   HN3 9513   4.702   4.049   6.379  1.1392  1.7875 -0.7169
   96SAPE   C12 9514   4.554   4.105   6.239 -0.3668 -0.0353  0.5954
   96SAPE  H12A 9515   4.459   4.163   6.251 -0.4241 -0.4693  2.6304
   96SAPE  H12B 9516   4.525   4.002   6.210 -0.6470  0.0899  0.4196
   96SAPE   C11 9517   4.650   4.159   6.130 -1.3311 -0.6042 -0.1355
   96SAPE  H11A 9518   4.608   4.157   6.028 -1.9279 -2.2593  0.1246
   96SAPE  H11B 9519   4.745   4.102   6.124  0.2037  1.7562  0.2892
   96SAPE     P 9520   4.626   4.419   6.132  0.0247  0.1276 -0.0358
   96SAPE   O13 9521   4.513   4.414   6.224  0.2578 -0.0319 -0.5331
   96SAPE   O14 9522   4.716   4.535   6.140 -0.6358  0.2324 -0.0714
   96SAPE   O12 9523   4.705   4.289   6.162 -0.4618  0.1593 -0.1438
   96SAPE   O11 9524   4.579   4.387   5.981 -0.2678 -0.6104 -0.4513
   96SAPE    C1 9525   4.637   4.446   5.870  0.1005  0.7138  0.2271
   96SAPE    HA 9526   4.568   4.477   5.788  0.3889 -0.1742 -0.3724
   96SAPE    HB 9527   4.712   4.522   5.899  2.6085 -0.9157 -1.5950
   96SAPE    C2 9528   4.727   4.342   5.807 -0.4713 -0.1433 -0.1580
   96SAPE    HS 9529   4.798   4.308   5.886 -1.0424 -1.0862 -0.0421
   96SAPE   O21 9530   4.802   4.412   5.709 -0.3369 -0.0401  0.4606
   96SAPE   C21 9531   4.903   4.333   5.670  0.7185  0.3316 -0.4177
   96SAPE   O22 9532   4.942   4.232   5.731  0.2033  0.3086 -0.1486
   96SAPE   C22 9533   4.964   4.382   5.539 -0.1677  0.6175 -0.2898
   96SAPE   H2R 9534   4.901   4.362   5.449  0.1687  1.2478 -0.6724
   96SAPE   H2S 9535   4.983   4.491   5.549  1.0433  0.4208 -0.2776
   96SAPE    C3 9536   4.646   4.227   5.735 -0.2752 -1.3173  0.8208
   96SAPE    HX 9537   4.583   4.196   5.821 -0.4018  1.6124  1.9069
   96SAPE    HY 9538   4.703   4.142   5.694  0.0805 -0.7596  0.1400
   96SAPE   O31 9539   4.555   4.283   5.633 -0.0884 -0.0397 -0.2920
   96SAPE   C31 9540   4.598   4.293   5.513  0.6904 -0.3857 -0.3215
   96SAPE   O32 9541   4.693   4.235   5.463 -0.1610 -0.7378 -0.2492
   96SAPE   C32 9542   4.505   4.386   5.436 -1.0031 -0.2871  0.2167
   96SAPE   H2X 9543   4.475   4.327   5.347 -1.5946 -0.5824  0.5990
   96SAPE   H2Y 9544   4.574   4.462   5.394 -2.3304  0.8084 -0.0490
   96SAPE   C23 9545   5.103   4.310   5.505  0.0663 -0.2729 -0.2403
   96SAPE   H3R 9546   5.073   4.211   5.464  0.5828 -0.8537  0.7719
   96SAPE   H3S 9547   5.164   4.296   5.596  1.7135 -2.5572 -1.5719
   96SAPE   C24 9548   5.194   4.377   5.402  1.0916  0.0992  0.5726
   96SAPE   H4R 9549   5.296   4.336   5.395  0.6395 -0.8189 -1.7613
   96SAPE   H4S 9550   5.205   4.486   5.423  1.7768  0.2418 -0.4358
   96SAPE   C25 9551   5.137   4.374   5.263  0.0920  0.2004  0.6753
   96SAPE   H5R 9552   5.106   4.275   5.226  1.7957 -0.5303  1.0987
   96SAPE   C26 9553   5.141   4.484   5.175  0.7980  0.0929 -0.0433
   96SAPE   H6R 9554   5.110   4.472   5.070  3.7290  0.1919 -1.0090
   96SAPE   C27 9555   5.191   4.628   5.207 -0.2354 -0.0491  0.4321
   96SAPE   H7R 9556   5.257   4.632   5.297 -3.3909  1.6300  2.8545
   96SAPE   H7S 9557   5.103   4.682   5.247 -0.5834 -1.2129  1.3199
   96SAPE   C28 9558   5.255   4.687   5.083  0.3845 -0.0191  0.0067
   96SAPE   H8R 9559   5.363   4.667   5.073  0.2601 -0.1986 -1.2534
   96SAPE   C29 9560   5.182   4.750   4.990 -0.0572  0.1422 -0.3285
   96SAPE   H9R 9561   5.220   4.785   4.893 -2.0418  1.6293 -0.6427
   96SAPE  C210 9562   5.036   4.776   4.990  0.0959 -0.9440  0.3099
   96SAPE  H10R 9563   4.984   4.758   5.086 -1.1856 -1.9790 -0.5564
   96SAPE  H10S 9564   4.995   4.713   4.909 -2.6996  0.8580  0.1806
   96SAPE  C211 9565   5.011   4.925   4.965 -0.3134  0.6618  0.1350
   96SAPE  H11R 9566   5.007   4.989   5.054  1.2580 -0.0406  0.7437
   96SAPE  C212 9567   5.012   4.989   4.843  0.0857 -0.0900 -0.6571
   96SAPE  H12R 9568   4.972   5.092   4.840 -2.2804 -0.8674  1.2125
   96SAPE  C213 9569   5.027   4.924   4.703  0.2383 -0.0221 -0.2186
   96SAPE  H13R 9570   5.062   4.818   4.700 -0.7358 -0.5523  2.9006
   96SAPE  H13S 9571   5.113   4.967   4.648 -0.6765  0.8906 -0.9577
   96SAPE  C214 9572   4.899   4.912   4.631  0.0119 -0.0123 -0.3971
   96SAPE  H14R 9573   4.809   4.924   4.693  0.0660 -0.7604 -0.1558
   96SAPE  C215 9574   4.890   4.880   4.503  0.1556  0.1423  0.3790
   96SAPE  H15R 9575   4.794   4.890   4.449  0.3566  0.6522  0.1124
   96SAPE  C216 9576   5.004   4.876   4.410  0.3672 -0.6149  0.1170
   96SAPE  H16R 9577   5.035   4.770   4.403  2.2502  0.0248 -2.3512
   96SAPE  H16S 9578   5.095   4.934   4.437  1.0056 -1.0753 -0.9980
   96SAPE  C217 9579   4.962   4.936   4.268  0.7912 -0.1712 -0.1247
   96SAPE  H17R 9580   4.872   4.884   4.229 -1.8066  2.7208  1.5783
   96SAPE  H17S 9581   5.031   4.911   4.185  0.0872 -1.3997 -0.3628
   96SAPE  C218 9582   4.952   5.089   4.266  1.0309  0.4407  0.2665
   96SAPE  H18R 9583   5.044   5.141   4.300 -0.2001  1.8556  1.6188
   96SAPE  H18S 9584   4.885   5.123   4.348  2.4093 -1.4765  2.3134
   96SAPE  C219 9585   4.913   5.155   4.128  0.7672  0.4931  0.0291
   96SAPE  H19R 9586   4.822   5.098   4.100 -0.1042  1.7537  0.2087
   96SAPE  H19S 9587   4.987   5.127   4.050  0.8007  1.7722 -0.4190
   96SAPE  C220 9588   4.896   5.301   4.131  0.0955 -0.3689  0.2393
   96SAPE  H20R 9589   4.859   5.349   4.038 -1.1148 -1.4734  0.1303
   96SAPE  H20S 9590   4.995   5.346   4.152  0.0779 -0.4288  0.4494
   96SAPE  H20T 9591   4.825   5.336   4.209  0.4298  1.9078 -0.4002
   96SAPE   C33 9592   4.399   4.457   5.511  0.3243 -0.2620 -0.6348
   96SAPE   H3X 9593   4.448   4.492   5.604 -2.0576 -0.7545  0.8956
   96SAPE   H3Y 9594   4.341   4.367   5.542  1.4111 -1.4944 -1.9873
   96SAPE   C34 9595   4.310   4.553   5.433  0.1418 -0.0241 -0.5380
   96SAPE   H4X 9596   4.372   4.629   5.381  0.3829  0.5577  0.5698
   96SAPE   H4Y 9597   4.239   4.602   5.503  1.1690 -1.5596  1.6796
   96SAPE   C35 9598   4.229   4.487   5.319 -0.0843 -0.4454  0.1570
   96SAPE   H5X 9599   4.146   4.427   5.363 -1.1027  3.0898  3.6333
   96SAPE   H5Y 9600   4.297   4.422   5.260  0.1159  1.1142 -1.4219
   96SAPE   C36 9601   4.163   4.584   5.220  0.4612  0.4852  0.7869
   96SAPE   H6X 9602   4.237   4.627   5.149  0.4362 -1.3388 -0.4262
   96SAPE   H6Y 9603   4.131   4.660   5.294 -1.1535  1.2452 -0.6099
   96SAPE   C37 9604   4.038   4.528   5.148  0.0228  0.5742 -0.0177
   96SAPE   H7X 9605   4.017   4.612   5.078 -2.7798 -1.7106 -2.1896
   96SAPE   H7Y 9606   3.946   4.520   5.210  0.3272  0.4156  0.4201
   96SAPE   C38 9607   4.062   4.421   5.044  0.3143  0.1854  0.6571
   96SAPE   H8X 9608   4.114   4.334   5.089  1.4955  0.8893  0.6856
   96SAPE   H8Y 9609   4.114   4.465   4.957 -1.4785 -0.6418 -0.9092
   96SAPE   C39 9610   3.940   4.360   4.975  0.4429 -0.4429 -0.6375
   96SAPE   H9X 9611   3.885   4.436   4.915  3.4619  0.6539 -2.2169
   96SAPE   H9Y 9612   3.875   4.304   5.046 -0.3636 -0.4306 -1.3486
   96SAPE  C310 9613   3.983   4.258   4.865 -0.5876 -0.2468 -0.8438
   96SAPE  H10X 9614   3.929   4.162   4.878 -0.8480  0.1268  1.1522
   96SAPE  H10Y 9615   4.088   4.235   4.894 -0.8899 -0.6595 -0.0336
   96SAPE  C311 9616   3.981   4.308   4.718 -0.5313  0.2948  0.0215
   96SAPE  H11X 9617   4.040   4.236   4.658  1.6797  1.3116  0.8738
   96SAPE  H11Y 9618   4.037   4.402   4.701  0.7030 -0.4148  0.0730
   96SAPE  C312 9619   3.838   4.308   4.656  0.5058 -0.1998 -0.3365
   96SAPE  H12X 9620   3.769   4.379   4.708  0.8924 -0.1307  0.0950
   96SAPE  H12Y 9621   3.798   4.207   4.677 -0.3047  0.1818  0.0009
   96SAPE  C313 9622   3.831   4.334   4.507 -0.2280 -0.6646  0.2757
   96SAPE  H13X 9623   3.904   4.270   4.452  2.0980  2.0826 -0.0718
   96SAPE  H13Y 9624   3.857   4.438   4.478 -2.7246  0.3634  1.4038
   96SAPE  C314 9625   3.701   4.295   4.443  0.0684  0.2941  0.3513
   96SAPE  H14X 9626   3.626   4.373   4.468 -0.0259  0.5016 -0.5371
   96SAPE  H14Y 9627   3.661   4.200   4.483 -0.0526  1.4234  3.1409
   96SAPE  C315 9628   3.714   4.297   4.289 -0.0944 -0.1048  0.2058
   96SAPE  H15X 9629   3.618   4.260   4.247  0.1993  0.6884 -1.2359
   96SAPE  H15Y 9630   3.790   4.231   4.244 -2.9365 -2.2575 -1.8174
   96SAPE  C316 9631   3.722   4.448   4.243  0.6178  0.2615  1.1041
   96SAPE  H16X 9632   3.829   4.478   4.237  1.0815 -1.4178  0.4522
   96SAPE  H16Y 9633   3.664   4.520   4.304 -0.4151 -1.7636  2.6323
   96SAPE  C317 9634   3.650   4.460   4.105 -0.5218  0.3255 -0.6351
   96SAPE  H17X 9635   3.541   4.453   4.123 -0.6743 -2.9992 -2.0844
   96SAPE  H17Y 9636   3.671   4.366   4.049  0.5183 -1.1158  2.0164
   96SAPE  C318 9637   3.679   4.592   4.034  0.2605  0.5497  0.4993
   96SAPE  H18X 9638   3.655   4.673   4.105 -1.3549  0.4430  0.1028
   96SAPE  H18Y 9639   3.622   4.605   3.939  1.6360 -3.2175 -1.0461
   96SAPE  H18Z 9640   3.786   4.615   4.013  0.2342  0.7295  0.5678
   97SAPE     N 9641   3.260   4.556   6.595 -0.3341 -0.5677  0.6818
   97SAPE   HN1 9642   3.238   4.539   6.695 -1.9080  0.0467  0.4777
   97SAPE   HN2 9643   3.220   4.648   6.568 -0.9294 -0.5845  1.4608
   97SAPE   HN3 9644   3.210   4.481   6.544 -0.8781  1.7637 -2.4833
   97SAPE   C12 9645   3.412   4.539   6.584 -0.5929  0.1100 -0.3646
   97SAPE  H12A 9646   3.430   4.433   6.612  0.2528  0.4044  0.2480
   97SAPE  H12B 9647   3.462   4.612   6.651 -0.4410 -0.4247  0.1109
   97SAPE   C11 9648   3.459   4.573   6.441  0.0827  0.4821  0.2703
   97SAPE  H11A 9649   3.434   4.495   6.365  0.1748 -0.1017  0.8287
   97SAPE  H11B 9650   3.570   4.574   6.448 -0.0188 -0.5989  3.2485
   97SAPE     P 9651   3.475   4.833   6.424  0.1848  0.3166 -0.6673
   97SAPE   O13 9652   3.374   4.939   6.426 -0.0125  0.1109 -0.1599
   97SAPE   O14 9653   3.558   4.832   6.542  0.3886  0.0817 -0.3251
   97SAPE   O12 9654   3.408   4.692   6.402  0.3424 -0.0172 -0.4134
   97SAPE   O11 9655   3.572   4.850   6.302  0.0598  0.2657 -0.2682
   97SAPE    C1 9656   3.517   4.828   6.171  0.7820 -0.3420  0.4052
   97SAPE    HA 9657   3.409   4.841   6.149  1.0731  1.1094 -0.3080
   97SAPE    HB 9658   3.573   4.893   6.100  2.3369 -2.0725 -0.0334
   97SAPE    C2 9659   3.571   4.686   6.114 -0.3921 -0.3521  0.5489
   97SAPE    HS 9660   3.539   4.601   6.177 -1.2423 -2.1554 -2.1415
   97SAPE   O21 9661   3.714   4.687   6.103 -0.5232  0.5667 -0.3660
   97SAPE   C21 9662   3.778   4.579   6.074 -0.2034 -0.1596  0.5309
   97SAPE   O22 9663   3.732   4.470   6.046 -0.2020  0.2357  0.2945
   97SAPE   C22 9664   3.934   4.607   6.061  0.4403 -0.3101  0.1590
   97SAPE   H2R 9665   3.954   4.715   6.073 -0.4848  0.0301 -1.1298
   97SAPE   H2S 9666   3.983   4.549   6.143  1.3758  1.5642  0.9763
   97SAPE    C3 9667   3.506   4.658   5.968  0.1323  0.8317  0.0359
   97SAPE    HX 9668   3.397   4.636   5.973  0.4420 -1.1008 -0.8624
   97SAPE    HY 9669   3.546   4.564   5.926  0.4724  0.2551  1.6122
   97SAPE   O31 9670   3.520   4.774   5.879  0.3947 -0.3726 -0.0805
   97SAPE   C31 9671   3.489   4.756   5.754  0.3670  0.0591  0.5328
   97SAPE   O32 9672   3.457   4.648   5.707 -0.1353 -0.6611  0.1439
   97SAPE   C32 9673   3.495   4.892   5.673 -0.5486  0.0683  0.4512
   97SAPE   H2X 9674   3.602   4.923   5.663 -0.6499  0.2408 -0.0914
   97SAPE   H2Y 9675   3.441   4.969   5.732  0.3143  1.2390 -0.2188
   97SAPE   C23 9676   3.996   4.573   5.927 -0.3761 -0.2155  0.7870
   97SAPE   H3R 9677   3.963   4.471   5.897  1.7241 -0.5803 -0.5258
   97SAPE   H3S 9678   4.107   4.566   5.927 -0.3845 -1.0124 -0.7213
   97SAPE   C24 9679   3.954   4.667   5.813 -0.3016 -0.7356  0.7137
   97SAPE   H4R 9680   3.982   4.773   5.835  1.4713 -1.1360  0.5487
   97SAPE   H4S 9681   3.844   4.671   5.799 -0.1489  1.0966 -0.3437
   97SAPE   C25 9682   4.018   4.635   5.681 -0.5856 -0.4296 -0.3332
   97SAPE   H5R 9683   4.127   4.631   5.695 -0.7739 -1.4263  1.0889
   97SAPE   C26 9684   3.960   4.576   5.573  0.7689  0.1403 -0.9589
   97SAPE   H6R 9685   4.030   4.539   5.497 -0.0007 -0.5473 -1.3587
   97SAPE   C27 9686   3.813   4.555   5.551  0.1943  0.4806 -0.4952
   97SAPE   H7R 9687   3.754   4.537   5.643 -0.3420  1.4121 -0.6420
   97SAPE   H7S 9688   3.806   4.462   5.491  0.1595  0.9238 -1.1860
   97SAPE   C28 9689   3.758   4.672   5.475  0.6807  0.2237 -0.8111
   97SAPE   H8R 9690   3.795   4.771   5.506  1.0759  0.2448 -1.3467
   97SAPE   C29 9691   3.691   4.667   5.361 -0.7611 -0.2317  1.3668
   97SAPE   H9R 9692   3.678   4.764   5.310 -0.7885 -0.2740  1.2945
   97SAPE  C210 9693   3.657   4.544   5.291  0.7558  0.8198  0.7078
   97SAPE  H10R 9694   3.751   4.485   5.293 -0.0406 -0.5428 -0.2137
   97SAPE  H10S 9695   3.631   4.570   5.187  0.0066 -1.3029  0.3004
   97SAPE  C211 9696   3.547   4.452   5.340  0.2442 -0.6252 -0.1906
   97SAPE  H11R 9697   3.510   4.468   5.443  2.3251  1.2823  0.3611
   97SAPE  C212 9698   3.480   4.360   5.267 -0.4594 -0.0589 -0.2409
   97SAPE  H12R 9699   3.392   4.312   5.313  1.9543 -1.9036  2.8428
   97SAPE  C213 9700   3.510   4.330   5.121 -0.0061  0.0217  0.2223
   97SAPE  H13R 9701   3.601   4.266   5.117 -0.4356 -0.6640  1.0484
   97SAPE  H13S 9702   3.553   4.420   5.073  1.9806 -2.0858 -2.3044
   97SAPE  C214 9703   3.405   4.288   5.020  0.2964  0.8860 -0.3214
   97SAPE  H14R 9704   3.306   4.330   5.043 -1.1128 -1.1676 -2.1679
   97SAPE  C215 9705   3.418   4.218   4.905 -0.6153  0.2114 -0.0442
   97SAPE  H15R 9706   3.329   4.208   4.841 -0.0345 -0.3066 -0.7778
   97SAPE  C216 9707   3.552   4.150   4.862  0.0666 -0.5583  0.3855
   97SAPE  H16R 9708   3.641   4.192   4.914 -0.6093 -1.1698  2.1073
   97SAPE  H16S 9709   3.563   4.174   4.754 -2.2280  2.3316  0.6600
   97SAPE  C217 9710   3.546   4.004   4.894  0.3396 -0.8304  0.3389
   97SAPE  H17R 9711   3.552   3.978   5.002  0.1711  1.0911  0.8508
   97SAPE  H17S 9712   3.638   3.962   4.847 -0.6356 -2.3193 -0.3138
   97SAPE  C218 9713   3.430   3.920   4.820 -0.5561 -0.5554 -0.2743
   97SAPE  H18R 9714   3.329   3.956   4.849  0.3449  2.2087 -0.2410
   97SAPE  H18S 9715   3.434   3.820   4.867 -1.0695  0.2187  1.5223
   97SAPE  C219 9716   3.429   3.917   4.665  0.0506  0.7308  0.0070
   97SAPE  H19R 9717   3.528   3.958   4.636 -0.2090  0.8491 -0.7238
   97SAPE  H19S 9718   3.354   3.993   4.635  0.0118  1.1962  1.2104
   97SAPE  C220 9719   3.397   3.778   4.590  0.1387 -0.7020 -0.4466
   97SAPE  H20R 9720   3.494   3.740   4.551  0.1220 -0.8496 -0.3436
   97SAPE  H20S 9721   3.326   3.795   4.507  0.8185 -2.8183 -1.5167
   97SAPE  H20T 9722   3.345   3.700   4.649  0.9425 -0.6894  0.3123
   97SAPE   C33 9723   3.430   4.874   5.531 -0.1310 -0.1426 -0.1040
   97SAPE   H3X 9724   3.322   4.846   5.538  0.4020 -2.1228  4.3343
   97SAPE   H3Y 9725   3.495   4.790   5.498 -1.2836 -2.0868  2.1817
   97SAPE   C34 9726   3.455   4.993   5.434 -0.5301  0.2021 -0.3928
   97SAPE   H4X 9727   3.564   5.010   5.422 -0.4651 -0.8503 -1.4868
   97SAPE   H4Y 9728   3.415   5.090   5.469  1.2489  0.6999  0.3311
   97SAPE   C35 9729   3.408   4.947   5.299 -0.2450 -0.3784  0.8786
   97SAPE   H5X 9730   3.297   4.946   5.296 -0.2549  0.4359  0.4929
   97SAPE   H5Y 9731   3.449   4.847   5.277  0.6805  0.5439 -2.1856
   97SAPE   C36 9732   3.444   5.048   5.192  0.5055  0.6278 -0.1336
   97SAPE   H6X 9733   3.552   5.073   5.193  0.7049 -0.2076  0.8695
   97SAPE   H6Y 9734   3.387   5.143   5.197  0.9295  0.8221  2.2208
   97SAPE   C37 9735   3.410   4.989   5.057  0.0402  0.0583  0.0622
   97SAPE   H7X 9736   3.301   4.970   5.057  0.0168  0.0620 -1.7585
   97SAPE   H7Y 9737   3.461   4.893   5.035  2.8247  1.9521 -2.7694
   97SAPE   C38 9738   3.454   5.070   4.926  1.0106  0.3604 -1.0690
   97SAPE   H8X 9739   3.557   5.044   4.895 -0.2297 -2.5492 -3.3150
   97SAPE   H8Y 9740   3.448   5.179   4.945  2.4663  0.1942  0.6000
   97SAPE   C39 9741   3.364   5.063   4.803 -0.2387 -0.2871 -0.4939
   97SAPE   H9X 9742   3.259   5.076   4.836  1.0979  0.5264  4.1797
   97SAPE   H9Y 9743   3.369   4.966   4.749 -1.0223  0.2231 -1.5276
   97SAPE  C310 9744   3.391   5.182   4.706  0.0453 -0.1308  0.0623
   97SAPE  H10X 9745   3.481   5.166   4.642 -0.4003 -0.0014 -0.6087
   97SAPE  H10Y 9746   3.408   5.278   4.760 -0.3252 -0.9398  1.6743
   97SAPE  C311 9747   3.272   5.199   4.611  0.2318  0.0148 -0.0392
   97SAPE  H11X 9748   3.182   5.231   4.669  2.1167  1.1857  2.4518
   97SAPE  H11Y 9749   3.250   5.104   4.558  0.5358  0.0918 -0.3010
   97SAPE  C312 9750   3.295   5.299   4.498  0.0375 -0.1660  0.6947
   97SAPE  H12X 9751   3.199   5.295   4.443  0.2970 -1.5771  0.3076
   97SAPE  H12Y 9752   3.376   5.261   4.433  1.1906  3.8911 -0.5294
   97SAPE  C313 9753   3.331   5.442   4.538  0.0196 -0.2670 -0.2785
   97SAPE  H13X 9754   3.430   5.439   4.588 -0.4343  0.0228  0.6719
   97SAPE  H13Y 9755   3.262   5.487   4.612  1.3489  1.5856 -0.0948
   97SAPE  C314 9756   3.333   5.536   4.418  0.5928  0.1493 -0.2302
   97SAPE  H14X 9757   3.237   5.514   4.367 -0.5200 -0.0918  1.8596
   97SAPE  H14Y 9758   3.416   5.503   4.351 -0.2938 -1.2328 -0.6924
   97SAPE  C315 9759   3.334   5.688   4.444  0.4829 -1.2159 -0.2626
   97SAPE  H15X 9760   3.407   5.709   4.525 -1.7043 -0.6509  1.6814
   97SAPE  H15Y 9761   3.234   5.708   4.488  0.3391 -0.7909 -0.7704
   97SAPE  C316 9762   3.368   5.781   4.322 -0.4575  0.1389 -0.0735
   97SAPE  H16X 9763   3.283   5.769   4.251 -0.6724 -0.0733  0.2147
   97SAPE  H16Y 9764   3.470   5.762   4.283  0.1983  3.0864 -0.0408
   97SAPE  C317 9765   3.361   5.929   4.363 -0.5107  0.8841 -0.7120
   97SAPE  H17X 9766   3.447   5.941   4.432 -0.1185 -0.2937 -0.9851
   97SAPE  H17Y 9767   3.272   5.956   4.424  0.0827  3.1948 -0.7711
   97SAPE  C318 9768   3.380   6.025   4.243  0.4467 -0.0403 -0.0560
   97SAPE  H18X 9769   3.470   6.013   4.180 -0.3202  1.5979 -1.5706
   97SAPE  H18Y 9770   3.388   6.132   4.275  0.0540  0.5134 -1.6998
   97SAPE  H18Z 9771   3.296   6.014   4.171  1.1369 -1.9600 -0.6276
   98SAPE     N 9772   3.525   5.552   6.096  0.4589 -0.5280 -0.9927
   98SAPE   HN1 9773   3.536   5.598   6.003  0.8128 -2.6918 -2.0764
   98SAPE   HN2 9774   3.614   5.503   6.117  0.3766  0.6295  2.7643
   98SAPE   HN3 9775   3.446   5.485   6.090  1.6133 -2.1511  0.6548
   98SAPE   C12 9776   3.501   5.648   6.216  0.0689  0.5128  0.3708
   98SAPE  H12A 9777   3.599   5.696   6.236  1.2327 -1.4926 -0.2018
   98SAPE  H12B 9778   3.473   5.585   6.303 -0.6024 -1.7071 -1.3335
   98SAPE   C11 9779   3.383   5.746   6.193 -0.5764 -0.6222 -0.4304
   98SAPE  H11A 9780   3.413   5.827   6.123  1.0735 -0.3319  0.5615
   98SAPE  H11B 9781   3.370   5.807   6.285  0.9249 -0.6420 -0.1723
   98SAPE     P 9782   3.165   5.614   6.250 -0.3833  0.1392  0.0961
   98SAPE   O13 9783   3.144   5.480   6.190 -0.3110  0.8049 -0.3271
   98SAPE   O14 9784   3.211   5.605   6.391 -0.0410  0.2900 -0.5010
   98SAPE   O12 9785   3.267   5.686   6.154 -0.2380 -0.2152  0.6567
   98SAPE   O11 9786   3.028   5.689   6.234 -0.5140  0.6855 -0.5829
   98SAPE    C1 9787   2.991   5.724   6.105 -0.2781  0.0984 -0.6893
   98SAPE    HA 9788   3.076   5.745   6.037  1.1547 -2.3633  0.2001
   98SAPE    HB 9789   2.944   5.633   6.061 -0.3074  0.6968 -1.9585
   98SAPE    C2 9790   2.878   5.834   6.093 -0.4620  0.4530 -0.2009
   98SAPE    HS 9791   2.792   5.808   6.158 -0.1723  3.4194  1.5518
   98SAPE   O21 9792   2.842   5.848   5.955 -0.4053 -0.7307  0.2664
   98SAPE   C21 9793   2.751   5.767   5.908 -0.6015 -0.2936  0.1013
   98SAPE   O22 9794   2.690   5.693   5.973 -0.4972  0.5882 -0.4446
   98SAPE   C22 9795   2.743   5.777   5.756 -0.1569  0.2865  0.0457
   98SAPE   H2R 9796   2.760   5.673   5.719 -0.0128  0.3241  0.0074
   98SAPE   H2S 9797   2.640   5.805   5.727 -0.4084 -1.9320 -1.4379
   98SAPE    C3 9798   2.926   5.973   6.155 -0.4453  0.8703  0.7973
   98SAPE    HX 9799   2.955   5.950   6.260 -2.6028  1.3314  1.5474
   98SAPE    HY 9800   2.836   6.038   6.151 -0.4930  0.7789  0.3642
   98SAPE   O31 9801   3.029   6.031   6.068 -0.1380 -0.0743 -0.6418
   98SAPE   C31 9802   3.151   6.036   6.111 -0.4715 -0.0767 -1.1111
   98SAPE   O32 9803   3.194   6.016   6.226  0.8029 -0.0365  0.5326
   98SAPE   C32 9804   3.256   6.064   5.994 -0.4969  0.3789  0.0630
   98SAPE   H2X 9805   3.355   6.065   6.044 -1.1003 -1.8452  1.4411
   98SAPE   H2Y 9806   3.229   6.160   5.943 -0.2662 -0.0277 -0.8488
   98SAPE   C23 9807   2.843   5.879   5.701  0.1033 -0.0055 -0.6367
   98SAPE   H3R 9808   2.948   5.848   5.721 -0.4838 -0.1898  2.7945
   98SAPE   H3S 9809   2.833   5.981   5.744  1.6578  0.5940 -1.6145
   98SAPE   C24 9810   2.840   5.892   5.544  0.7233  0.7227 -0.1125
   98SAPE   H4R 9811   2.745   5.859   5.497  0.9576  1.0010 -0.7959
   98SAPE   H4S 9812   2.927   5.833   5.508 -0.3915 -0.1224 -1.4752
   98SAPE   C25 9813   2.864   6.040   5.516  0.5726 -0.3622 -0.6340
   98SAPE   H5R 9814   2.870   6.113   5.598  2.5026 -1.3646  0.1793
   98SAPE   C26 9815   2.861   6.080   5.395 -0.3699 -0.2669  0.5651
   98SAPE   H6R 9816   2.872   6.189   5.379 -0.8783 -0.3701 -0.6046
   98SAPE   C27 9817   2.864   5.999   5.273  0.2465  0.2184 -0.3026
   98SAPE   H7R 9818   2.922   5.906   5.292 -1.8815 -1.3010 -0.8857
   98SAPE   H7S 9819   2.923   6.058   5.200  1.1305  2.9672  2.3894
   98SAPE   C28 9820   2.720   5.959   5.232 -1.1152 -0.3002 -0.3212
   98SAPE   H8R 9821   2.675   5.904   5.316 -1.1162  0.7354  0.3703
   98SAPE   C29 9822   2.654   5.973   5.116  0.2223  0.0229  0.3046
   98SAPE   H9R 9823   2.559   5.919   5.113  0.4667 -0.5035  1.3224
   98SAPE  C210 9824   2.702   6.036   4.990  0.0775  0.0639  0.2097
   98SAPE  H10R 9825   2.688   5.967   4.905 -0.4865 -1.6914  1.6577
   98SAPE  H10S 9826   2.811   6.054   5.003 -0.1525 -0.3544  3.9657
   98SAPE  C211 9827   2.636   6.174   4.967 -0.0794  0.4303  0.0162
   98SAPE  H11R 9828   2.559   6.207   5.039 -0.6094  1.9590 -1.1839
   98SAPE  C212 9829   2.651   6.260   4.869  0.0304 -0.2963 -0.9384
   98SAPE  H12R 9830   2.592   6.352   4.876 -0.8959 -0.8815 -0.9713
   98SAPE  C213 9831   2.740   6.249   4.746 -0.2715  0.1839 -0.0633
   98SAPE  H13R 9832   2.775   6.143   4.744 -0.2614  0.2040 -0.9801
   98SAPE  H13S 9833   2.827   6.314   4.770 -0.6647  0.5476  0.3948
   98SAPE  C214 9834   2.664   6.267   4.620 -0.3310  0.1926 -1.0996
   98SAPE  H14R 9835   2.584   6.194   4.608  0.2071 -0.9960  1.7473
   98SAPE  C215 9836   2.678   6.362   4.527 -0.4775  1.4655 -0.1717
   98SAPE  H15R 9837   2.602   6.353   4.448 -0.4698  3.4394 -0.4432
   98SAPE  C216 9838   2.772   6.480   4.520  0.8229  0.1713  0.5210
   98SAPE  H16R 9839   2.829   6.489   4.425  1.7525 -0.0246  1.0355
   98SAPE  H16S 9840   2.855   6.467   4.594  2.3737 -1.5877 -1.4092
   98SAPE  C217 9841   2.698   6.608   4.552 -0.5548  0.1305  0.6386
   98SAPE  H17R 9842   2.612   6.605   4.482  0.9352 -0.0344 -1.2572
   98SAPE  H17S 9843   2.754   6.697   4.517  1.8233 -0.7243  2.0411
   98SAPE  C218 9844   2.673   6.606   4.701  0.1667 -0.5597  0.6675
   98SAPE  H18R 9845   2.769   6.612   4.756  0.5075 -0.1143  0.0271
   98SAPE  H18S 9846   2.617   6.516   4.736 -2.6849  0.1122 -1.7007
   98SAPE  C219 9847   2.585   6.725   4.741  0.8017 -0.1382  0.0933
   98SAPE  H19R 9848   2.486   6.723   4.691  0.6705 -1.2607  0.3791
   98SAPE  H19S 9849   2.634   6.820   4.710 -0.9182  1.0675  0.9204
   98SAPE  C220 9850   2.568   6.732   4.892  0.0645  0.1306 -0.3369
   98SAPE  H20R 9851   2.491   6.810   4.914 -0.0666 -0.0540 -0.1320
   98SAPE  H20S 9852   2.657   6.755   4.954 -0.8808  0.7123  0.8463
   98SAPE  H20T 9853   2.536   6.632   4.929  0.9754  1.2615  4.0803
   98SAPE   C33 9854   3.240   5.956   5.891 -0.5442 -0.0532 -0.1431
   98SAPE   H3X 9855   3.149   5.949   5.828 -1.6482  0.1236  1.3926
   98SAPE   H3Y 9856   3.252   5.855   5.937 -1.9646 -1.0034 -1.6921
   98SAPE   C34 9857   3.355   5.970   5.786  0.3529 -0.1186 -0.3983
   98SAPE   H4X 9858   3.455   5.945   5.827  1.0174 -1.4666 -2.6408
   98SAPE   H4Y 9859   3.360   6.075   5.749  1.2053 -0.3954 -1.1237
   98SAPE   C35 9860   3.348   5.876   5.662  0.6578  0.7873 -0.2129
   98SAPE   H5X 9861   3.244   5.870   5.623  0.6425 -2.0733  0.0645
   98SAPE   H5Y 9862   3.378   5.771   5.680 -1.7576  0.3447  1.7227
   98SAPE   C36 9863   3.434   5.927   5.550 -1.0885  0.0634  0.8403
   98SAPE   H6X 9864   3.543   5.914   5.563 -1.0256 -0.2386  0.0969
   98SAPE   H6Y 9865   3.426   6.038   5.538 -1.0125  0.0702  0.8513
   98SAPE   C37 9866   3.398   5.869   5.413  0.1319  0.7204  0.2698
   98SAPE   H7X 9867   3.289   5.888   5.399 -0.5613 -0.5954  3.1020
   98SAPE   H7Y 9868   3.411   5.759   5.403 -0.8899  0.7689 -2.9762
   98SAPE   C38 9869   3.480   5.928   5.306 -0.5880 -0.1203  0.2160
   98SAPE   H8X 9870   3.584   5.891   5.316  0.0991  1.6514 -0.0237
   98SAPE   H8Y 9871   3.484   6.039   5.317  1.1731 -0.2900  1.7080
   98SAPE   C39 9872   3.431   5.878   5.166 -0.0816 -0.4200 -0.8979
   98SAPE   H9X 9873   3.321   5.868   5.171 -0.1544  0.7877  1.0580
   98SAPE   H9Y 9874   3.470   5.777   5.144 -0.8461 -0.5767 -1.5856
   98SAPE  C310 9875   3.456   5.986   5.057 -0.3714  0.5918  0.4394
   98SAPE  H10X 9876   3.561   5.982   5.020 -0.9418  2.5847 -1.6378
   98SAPE  H10Y 9877   3.445   6.090   5.094 -1.3969  0.1831  1.3338
   98SAPE  C311 9878   3.360   5.956   4.938 -0.5116  0.4832 -0.3544
   98SAPE  H11X 9879   3.259   5.964   4.982 -0.9593  1.5163 -1.5331
   98SAPE  H11Y 9880   3.380   5.851   4.908  0.3160  0.3696  0.5067
   98SAPE  C312 9881   3.372   6.062   4.830 -0.8012  0.4494  0.0296
   98SAPE  H12X 9882   3.468   6.037   4.780 -0.5903 -0.6783  0.9717
   98SAPE  H12Y 9883   3.371   6.165   4.870 -0.5893 -0.1620  1.6577
   98SAPE  C313 9884   3.261   6.038   4.725 -0.9879  0.5002  0.5540
   98SAPE  H13X 9885   3.249   5.932   4.695 -2.9678  0.4716  1.2799
   98SAPE  H13Y 9886   3.278   6.100   4.635  1.8957  1.3271  1.5646
   98SAPE  C314 9887   3.120   6.085   4.770  0.4553  0.1176  0.4091
   98SAPE  H14X 9888   3.095   6.186   4.732  0.2692 -0.1967 -0.3129
   98SAPE  H14Y 9889   3.118   6.099   4.880  0.3355 -4.1604  1.1167
   98SAPE  C315 9890   3.002   5.998   4.719 -0.2338  0.0895 -1.0709
   98SAPE  H15X 9891   2.911   6.017   4.780  1.1246  0.4887  0.9091
   98SAPE  H15Y 9892   3.029   5.891   4.736  0.8513  0.2923 -1.4538
   98SAPE  C316 9893   2.968   6.015   4.566  0.1688 -0.3340  0.4676
   98SAPE  H16X 9894   3.052   5.986   4.499 -0.8098 -0.2453 -0.8140
   98SAPE  H16Y 9895   2.944   6.123   4.555  1.3963 -0.2371 -2.0455
   98SAPE  C317 9896   2.850   5.923   4.518 -1.0791  0.6298  0.2327
   98SAPE  H17X 9897   2.763   5.982   4.555 -1.4396  0.4792 -0.3598
   98SAPE  H17Y 9898   2.851   5.826   4.572 -1.1717  2.1726  3.2140
   98SAPE  C318 9899   2.845   5.905   4.367 -0.2567 -0.4007  0.1171
   98SAPE  H18X 9900   2.842   6.002   4.313 -1.5751 -0.5664 -0.1173
   98SAPE  H18Y 9901   2.751   5.850   4.350 -0.6657 -0.1368  1.4116
   98SAPE  H18Z 9902   2.941   5.859   4.334 -0.0985  1.5858 -2.5031
   99SAPE     N 9903   6.657   5.694   6.226 -0.9126 -0.3262  0.2049
   99SAPE   HN1 9904   6.743   5.635   6.222  0.0996  1.0846  0.3786
   99SAPE   HN2 9905   6.581   5.631   6.193 -0.7159 -0.3399 -0.2297
   99SAPE   HN3 9906   6.665   5.771   6.157  2.1401  1.5838  2.3929
   99SAPE   C12 9907   6.642   5.759   6.362  0.2918 -0.6237 -0.9285
   99SAPE  H12A 9908   6.596   5.680   6.425 -0.3763  0.4030 -0.0834
   99SAPE  H12B 9909   6.568   5.842   6.355  0.1583 -0.3361  2.4582
   99SAPE   C11 9910   6.775   5.799   6.424 -0.4984  0.5140 -0.0693
   99SAPE  H11A 9911   6.849   5.720   6.450  1.1900  2.3604  0.9826
   99SAPE  H11B 9912   6.741   5.827   6.526  1.1100 -2.6277  1.5016
   99SAPE     P 9913   6.955   5.996   6.391 -0.3399 -0.1345 -0.1542
   99SAPE   O13 9914   6.911   6.070   6.511  0.0231  0.4565 -0.1414
   99SAPE   O14 9915   7.087   5.924   6.396 -0.5075 -0.5574  0.5742
   99SAPE   O12 9916   6.842   5.899   6.345 -0.6229 -0.0278 -0.0663
   99SAPE   O11 9917   6.971   6.109   6.273  0.1860  0.3394 -0.3693
   99SAPE    C1 9918   6.850   6.142   6.201  0.8676  0.3411 -0.0496
   99SAPE    HA 9919   6.763   6.162   6.266 -0.3854  0.3715 -1.6598
   99SAPE    HB 9920   6.866   6.238   6.147  0.4036  0.5010  0.0955
   99SAPE    C2 9921   6.821   6.051   6.074 -0.4076  0.9090  0.2977
   99SAPE    HS 9922   6.851   5.946   6.097  0.6357  0.9162 -0.9153
   99SAPE   O21 9923   6.895   6.107   5.969 -0.1744  0.3027  0.3286
   99SAPE   C21 9924   6.943   6.023   5.886 -0.8497  0.3297  1.0163
   99SAPE   O22 9925   6.931   5.902   5.885 -0.5504  0.1904 -0.7790
   99SAPE   C22 9926   7.022   6.101   5.780  0.0646 -1.2405  0.4594
   99SAPE   H2R 9927   7.005   6.211   5.778  0.4540 -1.1811 -0.7317
   99SAPE   H2S 9928   7.130   6.089   5.801  0.6621  4.3136  2.3343
   99SAPE    C3 9929   6.666   6.067   6.032  0.6909 -0.4653 -0.0293
   99SAPE    HX 9930   6.650   6.175   6.016 -4.5750 -1.2707 -1.9242
   99SAPE    HY 9931   6.606   6.041   6.122  0.6616  0.4931  0.2352
   99SAPE   O31 9932   6.634   5.995   5.908  0.4900  0.1682  0.3831
   99SAPE   C31 9933   6.583   5.870   5.922  0.3464 -0.4223  0.5584
   99SAPE   O32 9934   6.551   5.818   6.023 -0.1129  0.4210 -0.4020
   99SAPE   C32 9935   6.594   5.797   5.783  0.0168  0.2349 -0.0932
   99SAPE   H2X 9936   6.581   5.688   5.793 -0.6077  0.3481  0.4005
   99SAPE   H2Y 9937   6.697   5.811   5.745 -0.3590 -1.7067 -1.9555
   99SAPE   C23 9938   6.985   6.043   5.643  0.5091  0.6481 -0.2436
   99SAPE   H3R 9939   6.987   5.932   5.648  0.6487  0.7254  2.8198
   99SAPE   H3S 9940   7.068   6.069   5.573 -0.8731  0.0080 -2.1916
   99SAPE   C24 9941   6.848   6.089   5.588 -0.4629  0.1444  0.8470
   99SAPE   H4R 9942   6.772   6.098   5.669 -0.2954 -0.7081  1.1045
   99SAPE   H4S 9943   6.816   6.014   5.513  0.8950  1.0107 -0.6691
   99SAPE   C25 9944   6.849   6.219   5.515 -0.2163  0.8342 -0.3476
   99SAPE   H5R 9945   6.812   6.314   5.554 -0.0691  1.0585 -0.7396
   99SAPE   C26 9946   6.887   6.225   5.385  0.2114  0.3062 -0.6598
   99SAPE   H6R 9947   6.904   6.326   5.343 -4.0423  1.3973 -0.2040
   99SAPE   C27 9948   6.932   6.125   5.287  0.1881 -0.3436 -0.0013
   99SAPE   H7R 9949   6.967   6.035   5.343  2.6048  1.1296  1.0020
   99SAPE   H7S 9950   7.021   6.165   5.234  0.5668 -1.2773 -0.0870
   99SAPE   C28 9951   6.839   6.077   5.177  0.1247  0.9507  0.3631
   99SAPE   H8R 9952   6.741   6.042   5.212  0.9191 -1.9647 -0.0871
   99SAPE   C29 9953   6.869   6.061   5.041  0.0187 -0.4257 -0.2032
   99SAPE   H9R 9954   6.789   6.030   4.972 -1.4887  0.7982  0.9117
   99SAPE  C210 9955   6.995   6.100   4.970  0.0718  0.3240 -0.3758
   99SAPE  H10R 9956   7.027   6.021   4.898 -1.2249  2.6469 -3.7769
   99SAPE  H10S 9957   7.077   6.115   5.044  0.0551 -1.7927  0.1444
   99SAPE  C211 9958   6.989   6.232   4.897 -0.2358 -0.1265  0.7781
   99SAPE  H11R 9959   6.966   6.322   4.956 -0.4675  0.1159  0.3165
   99SAPE  C212 9960   6.987   6.260   4.770  0.0016  0.5434  0.4530
   99SAPE  H12R 9961   6.968   6.362   4.733 -1.4867 -0.3008 -1.2795
   99SAPE  C213 9962   7.009   6.169   4.660 -0.2218 -0.4099 -0.0073
   99SAPE  H13R 9963   6.980   6.215   4.563  1.6582  2.1168  0.5178
   99SAPE  H13S 9964   6.946   6.077   4.659  1.9703 -1.9883 -0.5143
   99SAPE  C214 9965   7.148   6.125   4.635  0.0840  0.4970  0.4250
   99SAPE  H14R 9966   7.224   6.144   4.712  0.3100  0.1058  0.2992
   99SAPE  C215 9967   7.186   6.040   4.528 -0.1872 -0.1907 -0.0069
   99SAPE  H15R 9968   7.292   6.020   4.509  0.1495  1.9733 -0.6712
   99SAPE  C216 9969   7.095   5.988   4.421  0.7617 -0.0522 -0.8064
   99SAPE  H16R 9970   6.993   6.032   4.431  1.0235  0.5512 -0.7703
   99SAPE  H16S 9971   7.082   5.880   4.442  1.0676 -0.0877 -0.8006
   99SAPE  C217 9972   7.122   6.010   4.270 -0.2653  0.2847 -0.5650
   99SAPE  H17R 9973   7.174   6.107   4.264  0.2295  0.0174 -0.6053
   99SAPE  H17S 9974   7.033   6.016   4.203  0.0645  0.5361 -0.9762
   99SAPE  C218 9975   7.215   5.905   4.207 -0.3506 -0.2098 -0.0154
   99SAPE  H18R 9976   7.151   5.824   4.166  0.4041 -0.6854 -0.2662
   99SAPE  H18S 9977   7.281   5.861   4.284 -1.6196 -0.6716  0.8437
   99SAPE  C219 9978   7.303   5.963   4.098 -0.0034  0.2981  0.2938
   99SAPE  H19R 9979   7.380   5.885   4.078 -0.0114 -0.0919  1.6849
   99SAPE  H19S 9980   7.355   6.054   4.135  1.1430 -0.9101  1.8001
   99SAPE  C220 9981   7.232   5.993   3.971 -0.1439 -0.0763  0.2076
   99SAPE  H20R 9982   7.302   5.985   3.885  0.1835 -0.4819  0.5119
   99SAPE  H20S 9983   7.178   6.090   3.974 -0.0002 -0.0135  0.9226
   99SAPE  H20T 9984   7.149   5.919   3.964  0.5329 -0.8633  0.3631
   99SAPE   C33 9985   6.492   5.855   5.676  0.1029 -0.3955 -0.3754
   99SAPE   H3X 9986   6.486   5.962   5.703  0.6206 -0.0539 -1.5514
   99SAPE   H3Y 9987   6.393   5.809   5.695  0.0953 -0.6796 -1.0545
   99SAPE   C34 9988   6.541   5.835   5.530  0.9926 -0.3342 -0.6066
   99SAPE   H4X 9989   6.561   5.727   5.521 -0.2402 -0.4990 -1.6963
   99SAPE   H4Y 9990   6.635   5.893   5.518  0.6586  0.1760 -0.8193
   99SAPE   C35 9991   6.429   5.894   5.434 -1.1775  0.4608  0.1972
   99SAPE   H5X 9992   6.422   6.002   5.457 -1.7811  0.6609 -0.8538
   99SAPE   H5Y 9993   6.333   5.847   5.462 -1.9373  1.8526 -0.0006
   99SAPE   C36 9994   6.476   5.860   5.289  0.2225  0.4523 -0.1858
   99SAPE   H6X 9995   6.448   5.757   5.257  0.0529 -0.3186  2.2343
   99SAPE   H6Y 9996   6.586   5.864   5.280  0.0570  1.8792 -1.9901
   99SAPE   C37 9997   6.425   5.962   5.192 -0.3617 -0.0598 -0.7100
   99SAPE   H7X 9998   6.442   6.066   5.226 -0.4883 -0.3775  0.3571
   99SAPE   H7Y 9999   6.314   5.963   5.181 -0.3962  2.8279 -0.9754
   99SAPE   C3810000   6.493   5.951   5.055  0.3465  0.0396 -0.3707
   99SAPE   H8X10001   6.493   5.844   5.024  1.0224 -0.1679  0.3089
   99SAPE   H8Y10002   6.599   5.980   5.070  0.0068  1.9274 -1.4248
   99SAPE   C3910003   6.441   6.046   4.943 -0.0441 -0.3647  0.1166
   99SAPE   H9X10004   6.445   6.152   4.977 -1.0472 -0.0422 -0.7164
   99SAPE   H9Y10005   6.334   6.024   4.926 -0.5115  0.4043  1.8257
   99SAPE  C31010006   6.528   6.063   4.811 -0.7117  0.3732 -0.3476
   99SAPE  H10X10007   6.626   6.108   4.836 -1.3373  1.4816  0.2086
   99SAPE  H10Y10008   6.479   6.137   4.744  1.5129  1.0822 -1.2843
   99SAPE  C31110009   6.563   5.933   4.728 -0.7571 -0.4494 -0.1808
   99SAPE  H11X10010   6.461   5.907   4.692 -1.4215 -0.1847  1.4223
   99SAPE  H11Y10011   6.601   5.843   4.782  1.8281  0.4169 -0.4461
   99SAPE  C31210012   6.639   5.962   4.599  0.4898  0.2868  0.7800
   99SAPE  H12X10013   6.745   5.978   4.626  1.5260 -1.0818 -1.9875
   99SAPE  H12Y10014   6.601   6.054   4.549 -0.6034 -0.5176  0.0549
   99SAPE  C31310015   6.644   5.839   4.502  0.5364  0.2868 -0.2493
   99SAPE  H13X10016   6.545   5.796   4.475  1.6575 -0.9065 -2.9312
   99SAPE  H13Y10017   6.704   5.759   4.550  3.3532  2.7339  0.6211
   99SAPE  C31410018   6.711   5.859   4.366 -0.2140  0.1673  0.0034
   99SAPE  H14X10019   6.812   5.898   4.388  0.4056 -1.5687  0.3989
   99SAPE  H14Y10020   6.646   5.922   4.300  0.9552  0.7754 -0.5888
   99SAPE  C31510021   6.715   5.720   4.292 -0.1276 -0.3928  0.0011
   99SAPE  H15X10022   6.607   5.713   4.265 -0.4326  2.4170  0.2307
   99SAPE  H15Y10023   6.755   5.636   4.353  2.0598  1.7375  1.7130
   99SAPE  C31610024   6.810   5.729   4.167 -0.2260 -0.3296  0.0205
   99SAPE  H16X10025   6.892   5.657   4.188  0.2545  0.3506  0.5096
   99SAPE  H16Y10026   6.847   5.833   4.180 -0.6094 -0.2583  0.5524
   99SAPE  C31710027   6.743   5.713   4.032  0.6556  0.1198 -0.2229
   99SAPE  H17X10028   6.668   5.795   4.025 -0.4231 -0.7748  0.5424
   99SAPE  H17Y10029   6.690   5.617   4.049  2.4079 -0.5610  1.8247
   99SAPE  C31810030   6.834   5.713   3.915 -0.3629  0.2612  0.5953
   99SAPE  H18X10031   6.897   5.625   3.939 -0.6129  0.5516  2.5003
   99SAPE  H18Y10032   6.883   5.810   3.894  0.9597 -0.7452 -1.2866
   99SAPE  H18Z10033   6.789   5.678   3.820 -0.1650 -1.4874  1.1080
  100SAPE     N10034   6.572   3.690   6.504  0.3653 -0.9643 -0.7088
  100SAPE   HN110035   6.621   3.757   6.441 -0.2439 -0.1713 -0.3554
  100SAPE   HN210036   6.481   3.724   6.541  0.4383 -2.5851  1.1359
  100SAPE   HN310037   6.627   3.681   6.591 -0.9873 -0.0866  0.2830
  100SAPE   C1210038   6.581   3.549   6.448  0.8857 -0.0333 -0.6539
  100SAPE  H12A10039   6.686   3.527   6.419  2.1526  2.6274  1.4080
  100SAPE  H12B10040   6.537   3.547   6.346  0.6257  1.9215 -0.6076
  100SAPE   C1110041   6.524   3.452   6.556  0.1511  1.2864  0.2446
  100SAPE  H11A10042   6.519   3.352   6.508 -0.7717  1.1272  0.6456
  100SAPE  H11B10043   6.415   3.469   6.568 -0.5000 -0.6402 -2.0523
  100SAPE     P10044   6.736   3.377   6.693 -0.0149 -0.0040 -0.0122
  100SAPE   O1310045   6.837   3.474   6.727 -0.1755  0.4109 -0.1999
  100SAPE   O1410046   6.727   3.261   6.784 -0.0248  0.1255  0.8195
  100SAPE   O1210047   6.602   3.452   6.681 -0.9280 -0.4913  0.4488
  100SAPE   O1110048   6.772   3.326   6.544 -0.4352  0.1865  0.2342
  100SAPE    C110049   6.898   3.277   6.513  0.9107 -0.1229  0.3192
  100SAPE    HA10050   6.981   3.345   6.540  1.6989 -0.2929 -1.5241
  100SAPE    HB10051   6.909   3.173   6.553 -1.3988 -1.0890 -1.3325
  100SAPE    C210052   6.917   3.250   6.356  0.6972 -0.3170 -0.1845
  100SAPE    HS10053   7.027   3.255   6.346  0.5856 -0.4735 -1.7987
  100SAPE   O2110054   6.866   3.357   6.274 -0.6502 -0.7849 -0.2332
  100SAPE   C2110055   6.939   3.471   6.262 -0.3408  0.2620 -0.8345
  100SAPE   O2210056   7.051   3.490   6.311 -0.6368  0.4831  0.0152
  100SAPE   C2210057   6.869   3.570   6.172 -0.0852  0.1555  0.2438
  100SAPE   H2R10058   6.797   3.515   6.108  1.3985  1.5563 -2.8752
  100SAPE   H2S10059   6.799   3.628   6.236  0.6465  1.3628 -0.0185
  100SAPE    C310060   6.869   3.111   6.307  0.4023 -0.5688 -0.7111
  100SAPE    HX10061   6.759   3.119   6.290  0.5157  1.5137 -0.7543
  100SAPE    HY10062   6.883   3.043   6.394  1.8624  0.5114 -0.0626
  100SAPE   O3110063   6.934   3.075   6.188 -0.1054  0.6198  0.1081
  100SAPE   C3110064   7.014   2.974   6.188  0.4575  0.0198 -0.2952
  100SAPE   O3210065   7.076   2.929   6.284 -0.3437 -0.0630 -0.3855
  100SAPE   C3210066   7.043   2.918   6.051  1.1093 -0.3832  0.4140
  100SAPE   H2X10067   7.039   3.006   5.983  0.7810  0.0447  0.9717
  100SAPE   H2Y10068   6.961   2.848   6.023  1.4630 -0.4886 -0.3791
  100SAPE   C2310069   6.964   3.667   6.099  0.0615 -0.3885 -0.1162
  100SAPE   H3R10070   7.031   3.718   6.171  1.7757 -3.3398  0.5134
  100SAPE   H3S10071   6.891   3.735   6.049  0.0837 -1.2315 -1.3349
  100SAPE   C2410072   7.044   3.593   5.995 -0.2911 -0.1291 -0.2378
  100SAPE   H4R10073   7.105   3.524   6.056 -0.4067 -0.3419 -0.3595
  100SAPE   H4S10074   7.123   3.653   5.945  1.0291  0.6655  2.6119
  100SAPE   C2510075   6.962   3.526   5.889  0.2051 -0.0698 -0.5577
  100SAPE   H5R10076   6.901   3.601   5.836 -0.8138  0.1049  0.8150
  100SAPE   C2610077   6.936   3.394   5.863 -0.5128 -0.7347 -0.1127
  100SAPE   H6R10078   6.873   3.379   5.775 -0.1854 -0.1569 -0.4555
  100SAPE   C2710079   7.006   3.271   5.910  0.2922 -0.4093 -0.0178
  100SAPE   H7R10080   6.958   3.193   5.847  1.1418 -0.5799 -0.4591
  100SAPE   H7S10081   6.985   3.256   6.018  3.7221 -0.9590  0.6870
  100SAPE   C2810082   7.156   3.259   5.895  0.2307  0.5508  0.8128
  100SAPE   H8R10083   7.215   3.305   5.976  1.9091  1.0996 -0.6407
  100SAPE   C2910084   7.231   3.228   5.781  0.1875  0.0921 -0.6488
  100SAPE   H9R10085   7.341   3.225   5.779  0.1584 -2.4853 -1.0123
  100SAPE  C21010086   7.167   3.186   5.649  0.1161 -0.5626 -0.5207
  100SAPE  H10R10087   7.069   3.239   5.641  0.2501 -0.3499 -0.7430
  100SAPE  H10S10088   7.155   3.075   5.646 -0.8848 -0.4604 -0.5871
  100SAPE  C21110089   7.260   3.207   5.532 -0.9011 -0.4352 -0.0612
  100SAPE  H11R10090   7.332   3.127   5.512  1.5248  1.4711  0.5931
  100SAPE  C21210091   7.262   3.316   5.461 -0.6511 -0.1899  0.5985
  100SAPE  H12R10092   7.335   3.326   5.379 -0.7785  2.2794  0.7285
  100SAPE  C21310093   7.159   3.422   5.481  0.0356  0.2058  1.0196
  100SAPE  H13R10094   7.207   3.520   5.461  3.1525 -1.0846  1.5712
  100SAPE  H13S10095   7.114   3.427   5.582  1.8908  2.9994  1.8213
  100SAPE  C21410096   7.050   3.389   5.380 -0.0408  0.0110  0.5222
  100SAPE  H14R10097   6.991   3.299   5.402 -0.8264  0.6211  0.9550
  100SAPE  C21510098   7.010   3.471   5.278 -0.7664 -0.0972  0.2170
  100SAPE  H15R10099   6.927   3.440   5.214 -1.0902  1.5408 -0.1873
  100SAPE  C21610100   7.085   3.599   5.234 -0.1139  0.7057 -0.1279
  100SAPE  H16R10101   7.119   3.657   5.324  1.4746 -0.7367  0.2582
  100SAPE  H16S10102   7.023   3.665   5.170  0.0556  1.6048  0.6115
  100SAPE  C21710103   7.213   3.566   5.154  0.1334 -0.9246 -0.3043
  100SAPE  H17R10104   7.274   3.496   5.215 -0.8913 -0.6591  1.0677
  100SAPE  H17S10105   7.271   3.661   5.153  0.3881 -1.0640  0.5541
  100SAPE  C21810106   7.195   3.514   5.012  0.5978  0.2934  0.3409
  100SAPE  H18R10107   7.121   3.572   4.954 -0.3970 -0.7266  0.5644
  100SAPE  H18S10108   7.167   3.407   5.023  0.8305  0.0793 -1.0270
  100SAPE  C21910109   7.335   3.516   4.940  0.3597 -0.0600 -0.1461
  100SAPE  H19R10110   7.404   3.444   4.990  0.2929 -0.2210 -0.2834
  100SAPE  H19S10111   7.374   3.620   4.941  1.1663 -0.3328  1.8033
  100SAPE  C22010112   7.330   3.453   4.798  0.9054 -0.2289 -0.1948
  100SAPE  H20R10113   7.287   3.532   4.733 -1.3342 -1.6590 -0.5427
  100SAPE  H20S10114   7.277   3.356   4.789  1.2727 -0.5837  1.1974
  100SAPE  H20T10115   7.432   3.441   4.757  0.7240 -1.3149 -0.3571
  100SAPE   C3310116   7.174   2.832   6.045 -0.1227 -0.4944 -0.0442
  100SAPE   H3X10117   7.186   2.739   6.104  1.7417 -0.7883 -0.8242
  100SAPE   H3Y10118   7.259   2.894   6.081 -1.1137  0.3973  0.8361
  100SAPE   C3410119   7.197   2.797   5.892 -0.8102 -0.1943 -0.1327
  100SAPE   H4X10120   7.303   2.765   5.882 -0.3721  1.2383 -0.2799
  100SAPE   H4Y10121   7.185   2.895   5.841 -0.7916  0.1500  0.5083
  100SAPE   C3510122   7.122   2.679   5.833 -0.4245  0.6572  0.1780
  100SAPE   H5X10123   7.011   2.686   5.841 -0.6513 -1.3985 -0.7296
  100SAPE   H5Y10124   7.147   2.590   5.894  1.0616 -0.7171 -2.3317
  100SAPE   C3610125   7.162   2.656   5.680  0.3024  0.6956  0.4766
  100SAPE   H6X10126   7.134   2.549   5.665 -1.2596  1.0642  0.6161
  100SAPE   H6Y10127   7.273   2.668   5.676  0.2575  0.9637 -0.1028
  100SAPE   C3710128   7.080   2.720   5.568  0.1847 -0.1483  0.7936
  100SAPE   H7X10129   7.068   2.827   5.594 -1.5094  0.0676 -0.6436
  100SAPE   H7Y10130   6.983   2.666   5.576 -0.4854  1.0341  0.9597
  100SAPE   C3810131   7.154   2.705   5.438  0.1642  0.1417 -0.0794
  100SAPE   H8X10132   7.093   2.691   5.347  2.7426 -1.1170 -1.7480
  100SAPE   H8Y10133   7.207   2.607   5.434  0.8709  0.5295 -0.3551
  100SAPE   C3910134   7.242   2.834   5.402  0.0884  0.0383 -0.3139
  100SAPE   H9X10135   7.345   2.804   5.430  1.3033  2.5001 -1.8040
  100SAPE   H9Y10136   7.225   2.921   5.468 -1.1733  0.7375 -1.5082
  100SAPE  C31010137   7.228   2.887   5.263 -0.2887  1.1524 -0.3452
  100SAPE  H10X10138   7.221   2.806   5.187 -0.3767  1.4153 -0.6195
  100SAPE  H10Y10139   7.324   2.935   5.233  1.4418 -1.5841  0.3778
  100SAPE  C31110140   7.116   2.988   5.240  0.3853 -0.3263 -0.0415
  100SAPE  H11X10141   7.106   3.061   5.323  0.9399  0.1568 -0.3933
  100SAPE  H11Y10142   7.026   2.924   5.247 -0.0533  0.3330  0.4507
  100SAPE  C31210143   7.114   3.048   5.098 -0.4396  0.2299 -0.3844
  100SAPE  H12X10144   7.220   3.069   5.070  0.6924 -1.5766  2.1952
  100SAPE  H12Y10145   7.053   3.140   5.092  1.0972  1.2010 -2.4959
  100SAPE  C31310146   7.061   2.940   5.005 -0.0327 -0.5865 -0.6326
  100SAPE  H13X10147   6.964   2.914   5.053  0.0808 -2.7655 -1.4540
  100SAPE  H13Y10148   7.117   2.844   5.010 -0.2587 -0.9199 -3.2553
  100SAPE  C31410149   7.043   2.993   4.865  0.0792 -0.3222 -0.0145
  100SAPE  H14X10150   7.145   2.993   4.820  0.3799 -2.1063  0.5734
  100SAPE  H14Y10151   6.986   3.087   4.850  1.2326  0.5936  1.1215
  100SAPE  C31510152   6.967   2.885   4.790 -0.2233 -0.0372 -0.2823
  100SAPE  H15X10153   6.861   2.894   4.819  0.1566  0.4462  0.9953
  100SAPE  H15Y10154   7.004   2.783   4.816  1.3123  1.1590  2.6321
  100SAPE  C31610155   6.969   2.913   4.639  0.8408  0.3657 -0.4270
  100SAPE  H16X10156   7.077   2.918   4.614  1.0388  1.6105  0.5759
  100SAPE  H16Y10157   6.927   3.015   4.627 -2.1405 -0.7829 -0.5837
  100SAPE  C31710158   6.886   2.811   4.561  0.0994 -0.2407 -0.5017
  100SAPE  H17X10159   6.781   2.830   4.588  0.5855 -0.8071  2.0372
  100SAPE  H17Y10160   6.904   2.709   4.603  1.2153  0.7196  1.5049
  100SAPE  C31810161   6.903   2.808   4.412  0.7825  0.5178  0.0559
  100SAPE  H18X10162   6.860   2.709   4.385 -0.4856  1.2351 -0.7079
  100SAPE  H18Y10163   7.007   2.803   4.376  0.2551 -1.2855 -1.3584
  100SAPE  H18Z10164   6.855   2.893   4.358  1.6215  1.6909  1.0779
  101SAPE     N10165   0.364   0.266   6.342 -0.3960  0.3261 -0.4730
  101SAPE   HN110166   0.460   0.303   6.326  0.1665 -1.9654 -3.1845
  101SAPE   HN210167   0.313   0.287   6.254 -2.8483 -1.8287  0.3000
  101SAPE   HN310168   0.338   0.311   6.432 -1.4528 -1.5096  0.1999
  101SAPE   C1210169   0.370   0.119   6.355 -0.3720 -0.0406  0.0135
  101SAPE  H12A10170   0.274   0.084   6.398  0.2043  0.1494  1.5464
  101SAPE  H12B10171   0.454   0.085   6.420 -0.1129  0.3599 -0.1106
  101SAPE   C1110172   0.402   0.045   6.224 -0.4642 -0.5575 -0.1188
  101SAPE  H11A10173   0.330   0.079   6.147  1.1401  2.1520 -0.5840
  101SAPE  H11B10174   0.378  -0.063   6.232  1.8892 -1.1426 -0.1141
  101SAPE     P10175   0.662  -0.017   6.227 -0.5173  0.0363  0.1140
  101SAPE   O1310176   0.773   0.048   6.154  0.3971  0.4618 -0.5259
  101SAPE   O1410177   0.674  -0.029   6.371  0.0281 -0.2110  0.2014
  101SAPE   O1210178   0.534   0.062   6.184 -0.2558  0.1416  0.2223
  101SAPE   O1110179   0.645  -0.170   6.168 -0.2530  0.2263  0.3968
  101SAPE    C110180   0.629  -0.206   6.029 -0.1398 -1.2976 -0.1291
  101SAPE    HA10181   0.538  -0.266   6.011 -1.0376  0.0583 -0.2349
  101SAPE    HB10182   0.615  -0.110   5.975  1.3974  1.3472  3.6828
  101SAPE    C210183   0.756  -0.277   5.970  0.1018  0.1695 -0.7840
  101SAPE    HS10184   0.848  -0.235   6.017  0.8915 -1.6833 -0.6054
  101SAPE   O2110185   0.757  -0.269   5.827 -0.0426  0.3524 -0.1581
  101SAPE   C2110186   0.809  -0.157   5.770 -0.1434 -0.1392 -0.1342
  101SAPE   O2210187   0.850  -0.062   5.832 -0.4579  0.3561  0.1886
  101SAPE   C2210188   0.816  -0.170   5.618 -0.0563  0.9097  0.0113
  101SAPE   H2R10189   0.717  -0.140   5.579 -0.3774  2.2208  1.7094
  101SAPE   H2S10190   0.894  -0.100   5.581  0.0750  2.3040  2.7119
  101SAPE    C310191   0.756  -0.427   6.012  0.0233 -0.1342  0.0394
  101SAPE    HX10192   0.763  -0.428   6.123 -0.2522 -1.6965  0.0658
  101SAPE    HY10193   0.848  -0.482   5.982  0.0144  0.0782 -0.3887
  101SAPE   O3110194   0.633  -0.488   5.971  0.5070 -0.5043 -0.5132
  101SAPE   C3110195   0.645  -0.588   5.887  0.1987 -0.6703  1.0481
  101SAPE   O3210196   0.743  -0.648   5.856 -0.2108  0.1761 -0.0159
  101SAPE   C3210197   0.512  -0.598   5.810 -0.5563  0.2444  0.9464
  101SAPE   H2X10198   0.479  -0.494   5.792  0.8224  0.4766 -0.4775
  101SAPE   H2Y10199   0.449  -0.644   5.888 -0.0523 -0.7009  0.8155
  101SAPE   C2310200   0.850  -0.315   5.568 -0.1819 -0.3811  0.2397
  101SAPE   H3R10201   0.777  -0.385   5.614 -0.1075 -1.1429 -0.7657
  101SAPE   H3S10202   0.957  -0.339   5.590 -0.0019 -1.6090 -1.7811
  101SAPE   C2410203   0.844  -0.325   5.415 -0.1786  0.0965  0.5923
  101SAPE   H4R10204   0.883  -0.423   5.380  2.4111  0.9833  0.7622
  101SAPE   H4S10205   0.919  -0.252   5.375 -1.2797 -0.1159 -2.0775
  101SAPE   C2510206   0.703  -0.299   5.355 -0.3533 -0.1270  0.4057
  101SAPE   H5R10207   0.619  -0.370   5.366 -1.2690  0.6315 -1.2209
  101SAPE   C2610208   0.673  -0.201   5.276  0.4957 -0.7388 -0.3156
  101SAPE   H6R10209   0.574  -0.200   5.227  0.4472 -1.7249 -0.2484
  101SAPE   C2710210   0.764  -0.091   5.217  0.3584  0.8043  0.2182
  101SAPE   H7R10211   0.790  -0.108   5.110  1.6386 -2.1390  0.8925
  101SAPE   H7S10212   0.862  -0.086   5.269  1.1613 -0.5304 -1.0704
  101SAPE   C2810213   0.703   0.042   5.234 -0.2465  0.1998  0.4365
  101SAPE   H8R10214   0.726   0.087   5.331  1.3679  0.4945 -0.0600
  101SAPE   C2910215   0.608   0.103   5.160 -0.0868 -0.0319 -0.1159
  101SAPE   H9R10216   0.563   0.199   5.191  1.8406  0.3934  1.6172
  101SAPE  C21010217   0.559   0.064   5.022 -0.8473 -0.2816 -0.3481
  101SAPE  H10R10218   0.548  -0.046   5.009 -1.2456  0.0529 -3.6753
  101SAPE  H10S10219   0.641   0.107   4.960 -0.3055  0.7468  1.0236
  101SAPE  C21110220   0.426   0.118   4.981 -0.2206  0.7878  0.3838
  101SAPE  H11R10221   0.341   0.101   5.049 -1.9002 -1.6878 -2.0861
  101SAPE  C21210222   0.405   0.165   4.851 -0.4686  0.0890 -0.2041
  101SAPE  H12R10223   0.321   0.234   4.836 -1.1952 -0.8614 -0.5957
  101SAPE  C21310224   0.509   0.201   4.747 -0.3419 -0.5978 -0.1816
  101SAPE  H13R10225   0.609   0.159   4.773  0.1082  0.9713  0.7546
  101SAPE  H13S10226   0.524   0.311   4.742  3.7467 -1.0242 -0.7629
  101SAPE  C21410227   0.478   0.151   4.607 -0.2155 -0.3982 -1.1499
  101SAPE  H14R10228   0.405   0.069   4.603 -0.5039 -0.1245 -1.5686
  101SAPE  C21510229   0.509   0.204   4.483 -0.0435  0.4807 -0.5140
  101SAPE  H15R10230   0.489   0.145   4.392 -0.6903  1.6669 -1.1698
  101SAPE  C21610231   0.581   0.330   4.452  0.1739 -0.1158  0.4847
  101SAPE  H16R10232   0.645   0.313   4.363 -1.7718 -3.9053 -0.3993
  101SAPE  H16S10233   0.645   0.363   4.537 -0.2264 -0.7102  1.0220
  101SAPE  C21710234   0.483   0.443   4.418  0.1023  0.2716 -0.1676
  101SAPE  H17R10235   0.408   0.453   4.499 -1.4055  1.4608 -1.6447
  101SAPE  H17S10236   0.430   0.438   4.320 -0.4425 -1.2847  0.1910
  101SAPE  C21810237   0.557   0.571   4.419 -0.4868 -0.0737  0.6970
  101SAPE  H18R10238   0.501   0.648   4.362  0.6357 -0.2978 -0.7697
  101SAPE  H18S10239   0.656   0.555   4.370 -0.5608 -2.5142  1.2253
  101SAPE  C21910240   0.575   0.630   4.562  0.1328  0.1287  0.6621
  101SAPE  H19R10241   0.626   0.555   4.627 -1.5114 -1.7743 -0.1374
  101SAPE  H19S10242   0.472   0.646   4.601 -0.3166 -1.2942  0.1325
  101SAPE  C22010243   0.654   0.764   4.558 -0.1145  0.0208 -0.1026
  101SAPE  H20R10244   0.640   0.814   4.656 -0.5819 -1.5195  0.6475
  101SAPE  H20S10245   0.623   0.831   4.474 -1.4707 -0.8222 -0.3173
  101SAPE  H20T10246   0.764   0.759   4.566 -0.2275  0.1606  2.2981
  101SAPE   C3310247   0.507  -0.691   5.684  0.4360 -0.0777 -0.2540
  101SAPE   H3X10248   0.397  -0.699   5.670  0.5819 -1.1730 -0.9160
  101SAPE   H3Y10249   0.540  -0.795   5.708 -2.5521 -1.1816 -0.4618
  101SAPE   C3410250   0.567  -0.617   5.561 -0.1456 -0.5733  0.9268
  101SAPE   H4X10251   0.675  -0.592   5.572 -0.2255  0.3901 -0.2369
  101SAPE   H4Y10252   0.512  -0.522   5.547  0.9760 -0.1874 -1.3154
  101SAPE   C3510253   0.562  -0.694   5.423  0.6360  0.4094 -0.1027
  101SAPE   H5X10254   0.565  -0.802   5.446  0.3431  0.3693 -0.2647
  101SAPE   H5Y10255   0.653  -0.659   5.369  0.5538  2.5006  0.9591
  101SAPE   C3610256   0.437  -0.670   5.346 -0.4383 -0.1646 -0.4589
  101SAPE   H6X10257   0.392  -0.569   5.345 -0.0234  0.0308 -0.0270
  101SAPE   H6Y10258   0.359  -0.735   5.390 -1.5376  1.2727 -0.2308
  101SAPE   C3710259   0.453  -0.701   5.198  0.0031  0.0897 -0.2977
  101SAPE   H7X10260   0.529  -0.629   5.163 -0.2844  0.7867  0.4839
  101SAPE   H7Y10261   0.368  -0.676   5.132  0.2477  1.1809 -0.2097
  101SAPE   C3810262   0.470  -0.849   5.165  0.1927 -0.2471  0.2444
  101SAPE   H8X10263   0.382  -0.909   5.196  0.9820 -2.9148 -2.2202
  101SAPE   H8Y10264   0.548  -0.888   5.234 -0.2836  0.0063  0.9416
  101SAPE   C3910265   0.506  -0.865   5.012  0.7141  0.5226  0.3198
  101SAPE   H9X10266   0.617  -0.856   5.011  0.8037  2.7536  4.5692
  101SAPE   H9Y10267   0.451  -0.785   4.958 -1.0555  1.4589  3.2652
  101SAPE  C31010268   0.453  -1.003   4.969 -0.5065 -0.2046  0.6925
  101SAPE  H10X10269   0.344  -1.024   4.975 -0.3274 -2.2735 -1.6866
  101SAPE  H10Y10270   0.508  -1.079   5.027 -0.1958 -0.7724 -0.3203
  101SAPE  C31110271   0.514  -1.024   4.832 -0.7030  0.7337 -0.0276
  101SAPE  H11X10272   0.620  -0.991   4.831 -1.0337  1.9229  1.5547
  101SAPE  H11Y10273   0.452  -0.967   4.759  0.1930  1.1770 -0.4512
  101SAPE  C31210274   0.515  -1.177   4.785 -0.2822  0.5762 -0.1556
  101SAPE  H12X10275   0.414  -1.218   4.806 -1.4541  2.7468 -1.2386
  101SAPE  H12Y10276   0.596  -1.224   4.846  0.9597  0.4297 -1.8503
  101SAPE  C31310277   0.567  -1.207   4.642  0.2897  0.6213  0.1122
  101SAPE  H13X10278   0.492  -1.163   4.573 -1.3171 -3.1964 -0.8877
  101SAPE  H13Y10279   0.562  -1.316   4.617 -0.1365  0.9943 -1.5580
  101SAPE  C31410280   0.710  -1.156   4.609  0.9061 -0.3848  0.3733
  101SAPE  H14X10281   0.798  -1.214   4.643  1.7056 -0.2253 -1.3461
  101SAPE  H14Y10282   0.701  -1.050   4.642 -1.7084 -0.3848 -0.0998
  101SAPE  C31510283   0.734  -1.158   4.460 -0.1724  0.7153 -0.2621
  101SAPE  H15X10284   0.838  -1.121   4.446  0.1706  0.5979  1.6809
  101SAPE  H15Y10285   0.668  -1.085   4.409 -0.4859  1.0167  0.5604
  101SAPE  C31610286   0.703  -1.288   4.388  1.3318 -0.7199 -0.1005
  101SAPE  H16X10287   0.615  -1.345   4.425  0.3937  0.1897 -0.8816
  101SAPE  H16Y10288   0.785  -1.356   4.420  2.7593  0.2564 -1.5349
  101SAPE  C31710289   0.712  -1.287   4.233 -0.0907 -0.1550 -0.3481
  101SAPE  H17X10290   0.804  -1.233   4.201  1.1917 -2.3873 -0.6104
  101SAPE  H17Y10291   0.627  -1.227   4.193 -1.8462 -2.0087  0.3856
  101SAPE  C31810292   0.717  -1.429   4.177 -0.0216  0.0513 -0.0354
  101SAPE  H18X10293   0.792  -1.493   4.227  1.2237  2.1312  0.8715
  101SAPE  H18Y10294   0.744  -1.434   4.069  2.3905 -0.4075  0.5392
  101SAPE  H18Z10295   0.616  -1.470   4.199  0.5393 -1.9958 -1.0096
  102SAPE     N10296   5.567   4.922   6.355 -0.0568  0.2657  0.3070
  102SAPE   HN110297   5.528   5.018   6.350 -0.7950 -0.0789 -0.8007
  102SAPE   HN210298   5.548   4.892   6.453 -1.4826 -1.8925 -0.5608
  102SAPE   HN310299   5.668   4.918   6.329  0.6352 -0.1725  2.7705
  102SAPE   C1210300   5.483   4.830   6.260 -0.9033 -0.6520  0.0099
  102SAPE  H12A10301   5.378   4.818   6.295 -1.1699 -1.4597 -1.0321
  102SAPE  H12B10302   5.529   4.729   6.268 -0.6705 -0.7392 -1.9828
  102SAPE   C1110303   5.495   4.877   6.110 -0.6521  0.0662  0.1010
  102SAPE  H11A10304   5.459   4.783   6.063  0.1079 -1.2102  1.9324
  102SAPE  H11B10305   5.605   4.886   6.098 -0.5909 -1.1971 -0.4470
  102SAPE     P10306   5.482   5.131   6.067  0.0020  0.1625 -0.0356
  102SAPE   O1310307   5.402   5.222   5.980 -0.2217  0.0994  0.4383
  102SAPE   O1410308   5.504   5.175   6.206  0.2600  0.1300  0.4385
  102SAPE   O1210309   5.410   4.990   6.073 -0.1283 -0.0834  0.0344
  102SAPE   O1110310   5.617   5.098   5.990  0.3395 -0.6431  0.3707
  102SAPE    C110311   5.714   5.200   5.968 -0.0455  0.1780  0.5746
  102SAPE    HA10312   5.734   5.262   6.057  1.5602  0.2532  0.1921
  102SAPE    HB10313   5.808   5.147   5.941 -1.0956 -0.3122 -2.5448
  102SAPE    C210314   5.684   5.306   5.861  0.5621  0.2733  0.0924
  102SAPE    HS10315   5.614   5.374   5.914  0.1377 -1.2579  1.6040
  102SAPE   O2110316   5.631   5.231   5.744  0.3993  0.0039 -0.5474
  102SAPE   C2110317   5.550   5.310   5.676 -0.0945  0.6565  0.1716
  102SAPE   O2210318   5.532   5.428   5.703  0.1706 -0.3406 -0.3912
  102SAPE   C2210319   5.493   5.244   5.562 -0.1805  0.2340  0.6750
  102SAPE   H2R10320   5.421   5.168   5.599 -2.3875  2.1189  0.5029
  102SAPE   H2S10321   5.428   5.315   5.506  1.4467 -0.1816 -1.8689
  102SAPE    C310322   5.813   5.371   5.823 -0.9690 -0.0508 -0.4725
  102SAPE    HX10323   5.889   5.305   5.775 -0.7270 -0.7009  0.7702
  102SAPE    HY10324   5.867   5.398   5.916 -2.1201 -0.0416  0.2134
  102SAPE   O3110325   5.795   5.500   5.763  0.2605  0.0644 -0.1401
  102SAPE   C3110326   5.819   5.512   5.641 -0.3298 -0.3781 -0.3799
  102SAPE   O3210327   5.854   5.422   5.567 -0.5302  0.0438  0.5772
  102SAPE   C3210328   5.789   5.654   5.588  0.3350 -0.7171  0.2931
  102SAPE   H2X10329   5.867   5.722   5.627  0.2834 -0.8853  0.6932
  102SAPE   H2Y10330   5.693   5.674   5.641 -0.9585 -3.3382 -0.8805
  102SAPE   C2310331   5.597   5.181   5.462  0.4966  0.4473 -0.0729
  102SAPE   H3R10332   5.667   5.104   5.501 -2.3618  0.1235  5.2729
  102SAPE   H3S10333   5.646   5.272   5.421  0.0752  0.0812 -1.4714
  102SAPE   C2410334   5.521   5.126   5.336 -0.6713 -0.3198  0.1004
  102SAPE   H4R10335   5.600   5.125   5.257  1.1214 -1.9532  1.8068
  102SAPE   H4S10336   5.441   5.192   5.297 -1.1565 -1.4784 -0.9362
  102SAPE   C2510337   5.473   4.986   5.341  0.3644  0.0182  0.6263
  102SAPE   H5R10338   5.535   4.912   5.394  0.5412  0.6442  1.3064
  102SAPE   C2610339   5.350   4.946   5.308 -0.1809  0.6558 -1.2908
  102SAPE   H6R10340   5.330   4.839   5.321 -1.0048  0.7963 -1.3437
  102SAPE   C2710341   5.229   5.015   5.246 -0.2559  0.0444 -0.4843
  102SAPE   H7R10342   5.155   4.944   5.204  0.6461  0.4330 -2.8843
  102SAPE   H7S10343   5.265   5.063   5.153  2.8981 -2.0503 -0.5028
  102SAPE   C2810344   5.159   5.105   5.345  0.1782  0.5970  0.0889
  102SAPE   H8R10345   5.219   5.193   5.374 -2.0355  2.0664  0.5158
  102SAPE   C2910346   5.040   5.092   5.412  0.0358 -0.8066  0.7781
  102SAPE   H9R10347   5.014   5.169   5.486 -1.8451 -0.3570 -0.2914
  102SAPE  C21010348   4.942   4.973   5.409  0.1214 -0.4235 -0.7260
  102SAPE  H10R10349   5.008   4.889   5.378  0.1077 -0.5321 -0.4681
  102SAPE  H10S10350   4.869   4.992   5.327 -1.4589 -2.6578  0.0377
  102SAPE  C21110351   4.876   4.940   5.545  0.4429  0.3272 -0.3008
  102SAPE  H11R10352   4.887   5.024   5.616 -0.2592  0.0271  0.1675
  102SAPE  C21210353   4.813   4.823   5.572 -0.0808 -0.7789 -0.2333
  102SAPE  H12R10354   4.761   4.813   5.669  1.0725  2.5803  0.8498
  102SAPE  C21310355   4.805   4.708   5.475  0.2213 -0.5435  0.7606
  102SAPE  H13R10356   4.797   4.612   5.531  0.6652 -0.5910  0.7506
  102SAPE  H13S10357   4.898   4.701   5.415 -0.7986  1.1623 -1.1248
  102SAPE  C21410358   4.697   4.732   5.370  0.0056 -0.7438 -0.4884
  102SAPE  H14R10359   4.613   4.799   5.391  1.1823  1.1178 -1.4651
  102SAPE  C21510360   4.691   4.667   5.251 -0.3065 -0.1650  0.0938
  102SAPE  H15R10361   4.620   4.707   5.177 -0.4898  0.9267  0.8419
  102SAPE  C21610362   4.777   4.551   5.206  0.6753  0.7456  0.0209
  102SAPE  H16R10363   4.778   4.468   5.279 -1.6524  0.2859 -0.3735
  102SAPE  H16S10364   4.878   4.593   5.190  1.0093  0.0799  0.3763
  102SAPE  C21710365   4.715   4.502   5.067  0.2846  0.2202  0.0060
  102SAPE  H17R10366   4.769   4.409   5.041  2.0270  1.0462  0.5284
  102SAPE  H17S10367   4.726   4.577   4.985 -1.8936 -0.2045 -0.7620
  102SAPE  C21810368   4.563   4.476   5.072 -0.2880  0.3103  0.3402
  102SAPE  H18R10369   4.505   4.560   5.114  0.8343  1.7467 -0.8825
  102SAPE  H18S10370   4.559   4.389   5.141  0.0827 -1.7261 -2.0546
  102SAPE  C21910371   4.507   4.422   4.937 -0.3229 -0.7599 -0.6127
  102SAPE  H19R10372   4.575   4.341   4.902  0.9006 -0.0631  0.0844
  102SAPE  H19S10373   4.512   4.487   4.846  0.0864 -2.0490 -1.5357
  102SAPE  C22010374   4.368   4.356   4.946 -0.3135 -0.3049  0.3828
  102SAPE  H20R10375   4.318   4.342   4.848 -0.8820  0.2545  0.5864
  102SAPE  H20S10376   4.305   4.425   5.007 -0.3332 -0.9523  1.1035
  102SAPE  H20T10377   4.373   4.257   4.996  1.7861 -0.0048  0.8770
  102SAPE   C3310378   5.762   5.666   5.439  0.1768  0.4505  0.2214
  102SAPE   H3X10379   5.855   5.646   5.381  0.6524  0.8610  0.8333
  102SAPE   H3Y10380   5.743   5.775   5.425  0.0080  0.1878 -2.1289
  102SAPE   C3410381   5.640   5.599   5.377 -0.2167  0.4546 -0.1197
  102SAPE   H4X10382   5.565   5.635   5.450 -0.9816 -1.4738  0.1193
  102SAPE   H4Y10383   5.649   5.488   5.376 -0.4558  0.4344 -0.6771
  102SAPE   C3510384   5.624   5.646   5.234 -0.0923  0.1916 -0.4257
  102SAPE   H5X10385   5.633   5.756   5.223 -0.1190  0.1781 -0.5985
  102SAPE   H5Y10386   5.523   5.619   5.198 -0.5572 -0.6141  1.3837
  102SAPE   C3610387   5.726   5.578   5.136  0.2996 -0.7468  0.5032
  102SAPE   H6X10388   5.726   5.468   5.148  0.7164 -0.8881 -0.6687
  102SAPE   H6Y10389   5.829   5.614   5.155  0.7653 -0.8519 -1.6357
  102SAPE   C3710390   5.682   5.601   4.987  0.8430 -0.3538  0.3400
  102SAPE   H7X10391   5.681   5.712   4.984  0.7935 -0.2438  2.4203
  102SAPE   H7Y10392   5.578   5.564   4.970  1.9039 -3.0416 -0.7836
  102SAPE   C3810393   5.770   5.528   4.893  0.1644  0.2533 -0.3173
  102SAPE   H8X10394   5.766   5.421   4.923 -2.8718  0.2791 -0.3480
  102SAPE   H8Y10395   5.876   5.560   4.904 -0.2210  1.9912 -1.3707
  102SAPE   C3910396   5.729   5.541   4.750 -0.0608  0.0279  0.4559
  102SAPE   H9X10397   5.745   5.640   4.703  0.5414 -1.5819 -3.1118
  102SAPE   H9Y10398   5.620   5.526   4.736 -0.1376 -0.2416  1.2767
  102SAPE  C31010399   5.796   5.436   4.664  0.5876 -0.1748 -0.1670
  102SAPE  H10X10400   5.761   5.332   4.679 -0.8314  0.2921 -0.0669
  102SAPE  H10Y10401   5.905   5.441   4.686  0.6046 -0.6105 -0.1553
  102SAPE  C31110402   5.771   5.470   4.520  0.3518 -0.0382  0.5768
  102SAPE  H11X10403   5.823   5.564   4.489 -0.0277 -0.5368 -1.7699
  102SAPE  H11Y10404   5.663   5.484   4.499  0.3986  0.8710  0.8967
  102SAPE  C31210405   5.831   5.367   4.414 -0.1020  0.7127 -0.2800
  102SAPE  H12X10406   5.792   5.266   4.437 -0.8905  1.0646 -0.0546
  102SAPE  H12Y10407   5.942   5.375   4.420 -0.1304  0.7620  0.2377
  102SAPE  C31310408   5.790   5.392   4.274 -0.5952 -0.1401 -0.6195
  102SAPE  H13X10409   5.838   5.485   4.236  1.4151 -1.0985 -0.5339
  102SAPE  H13Y10410   5.682   5.418   4.281 -0.5698  0.3153 -1.7068
  102SAPE  C31410411   5.812   5.284   4.168  0.2121 -0.4479  0.0355
  102SAPE  H14X10412   5.749   5.196   4.193 -1.6947  1.0477  0.8248
  102SAPE  H14Y10413   5.921   5.266   4.184  0.5282  0.9297 -0.4599
  102SAPE  C31510414   5.791   5.333   4.021  0.3786 -0.3216 -0.3596
  102SAPE  H15X10415   5.880   5.388   3.983  0.9870 -0.8854  0.2201
  102SAPE  H15Y10416   5.698   5.394   4.015  0.2968 -0.5086 -1.0689
  102SAPE  C31610417   5.781   5.215   3.924 -0.6812  0.1218 -0.9822
  102SAPE  H16X10418   5.679   5.171   3.936 -0.3576 -0.5834 -0.7899
  102SAPE  H16Y10419   5.849   5.134   3.958  0.6952  0.8674 -1.8486
  102SAPE  C31710420   5.807   5.262   3.778  0.4177  0.0317 -0.3944
  102SAPE  H17X10421   5.756   5.360   3.764  0.4480  0.5034  2.2667
  102SAPE  H17Y10422   5.763   5.193   3.703  0.6113  0.5725 -1.0168
  102SAPE  C31810423   5.962   5.264   3.748  0.5621  0.5112 -0.5725
  102SAPE  H18X10424   6.003   5.172   3.796  2.1557  1.0470 -0.8497
  102SAPE  H18Y10425   6.009   5.352   3.797 -0.8349  1.5765 -1.0663
  102SAPE  H18Z10426   5.975   5.252   3.639 -0.6628  1.7489 -0.8837
  103SAPE     N10427   2.907   4.230   1.837  0.3986 -0.0412 -0.3727
  103SAPE   HN110428   2.998   4.228   1.887 -0.5249  3.0720  1.6783
  103SAPE   HN210429   2.921   4.229   1.734  0.8073  1.0297 -0.3308
  103SAPE   HN310430   2.870   4.324   1.857 -0.4711 -0.7022  1.3176
  103SAPE   C1210431   2.812   4.115   1.881  0.0782 -0.1975  0.6097
  103SAPE  H12A10432   2.830   4.030   1.811 -0.6417  2.2533 -2.8510
  103SAPE  H12B10433   2.707   4.146   1.866 -0.4198 -1.8885  0.3625
  103SAPE   C1110434   2.837   4.071   2.025  0.2321  0.0468 -0.3473
  103SAPE  H11A10435   2.944   4.042   2.036  0.1048  0.0658  1.0951
  103SAPE  H11B10436   2.770   3.984   2.040  2.3771 -1.4901  0.7846
  103SAPE     P10437   2.657   4.198   2.173  0.2981  0.4272  0.2015
  103SAPE   O1310438   2.653   4.304   2.275  0.4664 -0.6309  0.4299
  103SAPE   O1410439   2.570   4.207   2.055  0.3277 -0.6109 -0.0989
  103SAPE   O1210440   2.807   4.177   2.118 -0.1605 -0.1430  0.3670
  103SAPE   O1110441   2.624   4.060   2.250  0.0844 -0.5647 -0.0558
  103SAPE    C110442   2.730   3.992   2.322 -0.3064 -0.4051  0.7909
  103SAPE    HA10443   2.755   3.896   2.271 -1.5203  0.2171 -1.0721
  103SAPE    HB10444   2.817   4.059   2.336  0.3377 -0.7904 -1.0283
  103SAPE    C210445   2.675   3.951   2.461  0.4114 -0.3123 -0.1340
  103SAPE    HS10446   2.765   3.920   2.517  0.6954  1.5208  0.5144
  103SAPE   O2110447   2.572   3.844   2.454 -0.2763 -0.3192 -0.1898
  103SAPE   C2110448   2.619   3.723   2.416 -0.6981  0.6140  0.4789
  103SAPE   O2210449   2.736   3.703   2.401  0.0761  0.6033  0.0271
  103SAPE   C2210450   2.507   3.618   2.411 -0.3851 -0.0442 -0.1501
  103SAPE   H2R10451   2.465   3.623   2.514  0.1063  1.3301  0.0071
  103SAPE   H2S10452   2.429   3.657   2.343 -1.0413  0.3306  0.7938
  103SAPE    C310453   2.617   4.083   2.525  0.1926  0.0052 -1.0806
  103SAPE    HX10454   2.519   4.102   2.476  0.3734  1.0803 -1.0505
  103SAPE    HY10455   2.671   4.176   2.498 -1.5979  2.0203  1.7807
  103SAPE   O3110456   2.603   4.074   2.671  0.3093  0.4226 -0.2073
  103SAPE   C3110457   2.699   4.136   2.731 -0.6506 -0.1577  0.1652
  103SAPE   O3210458   2.803   4.182   2.689 -0.0721 -0.3893 -0.1981
  103SAPE   C3210459   2.687   4.137   2.885 -0.1510 -0.6598 -0.0694
  103SAPE   H2X10460   2.653   4.034   2.911 -0.7117 -0.3711  0.3606
  103SAPE   H2Y10461   2.607   4.213   2.901  2.5526  2.3318  0.1655
  103SAPE   C2310462   2.551   3.474   2.372  0.6565 -0.4379 -0.0415
  103SAPE   H3R10463   2.587   3.476   2.267 -1.9616  0.2305 -1.0141
  103SAPE   H3S10464   2.460   3.411   2.365 -0.3902  0.9671  0.4237
  103SAPE   C2410465   2.646   3.410   2.472 -0.2937 -0.0200  0.4381
  103SAPE   H4R10466   2.736   3.475   2.484  0.4566 -1.1395  1.1559
  103SAPE   H4S10467   2.688   3.320   2.422 -1.7993  0.6340 -2.2402
  103SAPE   C2510468   2.589   3.387   2.605 -0.2382  0.2168  0.0169
  103SAPE   H5R10469   2.558   3.473   2.666 -0.2213 -0.1035  0.4808
  103SAPE   C2610470   2.566   3.264   2.654 -0.9859 -0.1073 -0.6183
  103SAPE   H6R10471   2.546   3.251   2.762 -0.0472 -0.9842 -0.5311
  103SAPE   C2710472   2.591   3.131   2.579 -0.8946  0.1640  0.1329
  103SAPE   H7R10473   2.622   3.149   2.474  0.5142 -1.6724  0.1651
  103SAPE   H7S10474   2.500   3.068   2.579 -0.1973 -1.0476  3.0854
  103SAPE   C2810475   2.703   3.042   2.635 -0.1036 -1.1418  0.1608
  103SAPE   H8R10476   2.795   3.056   2.575 -1.0313  1.8993 -0.7459
  103SAPE   C2910477   2.702   2.965   2.747 -0.7081 -0.2998 -0.3032
  103SAPE   H9R10478   2.791   2.902   2.762 -0.6512  0.1058  1.1306
  103SAPE  C21010479   2.584   2.933   2.831  0.2125  0.1369  0.1436
  103SAPE  H10R10480   2.489   2.975   2.792  0.3137 -0.7235 -1.0713
  103SAPE  H10S10481   2.602   2.962   2.937 -1.4413 -0.4352  0.6058
  103SAPE  C21110482   2.563   2.786   2.813  0.0653  0.0637  0.3244
  103SAPE  H11R10483   2.535   2.755   2.711  2.6752 -1.6650  0.0076
  103SAPE  C21210484   2.559   2.691   2.909 -0.2750  0.7229  0.1302
  103SAPE  H12R10485   2.534   2.588   2.879  0.7965  0.2146  0.9133
  103SAPE  C21310486   2.571   2.712   3.062  0.5135 -0.0305  0.4788
  103SAPE  H13R10487   2.484   2.663   3.110  0.3548 -0.3115 -0.0943
  103SAPE  H13S10488   2.553   2.819   3.084 -0.2014  0.1113 -0.7318
  103SAPE  C21410489   2.700   2.668   3.131  0.1480 -0.7283  0.3533
  103SAPE  H14R10490   2.794   2.698   3.081  0.5536 -3.4518 -0.6620
  103SAPE  C21510491   2.708   2.590   3.236  0.2778 -0.1074 -0.1215
  103SAPE  H15R10492   2.806   2.562   3.279 -0.9352  0.8496  3.6010
  103SAPE  C21610493   2.594   2.527   3.309  0.1807  0.0418  0.5527
  103SAPE  H16R10494   2.619   2.419   3.300  1.5217  0.3320  0.5973
  103SAPE  H16S10495   2.491   2.555   3.278 -0.3685 -0.3364  1.9652
  103SAPE  C21710496   2.608   2.565   3.458  0.1068 -0.1838  0.0498
  103SAPE  H17R10497   2.597   2.675   3.465 -0.0440 -0.2690  1.5719
  103SAPE  H17S10498   2.707   2.539   3.502  0.6180  0.1119 -0.8963
  103SAPE  C21810499   2.494   2.506   3.542  0.2567  0.3833  0.7242
  103SAPE  H18R10500   2.507   2.396   3.537 -0.5363  0.3469 -1.7313
  103SAPE  H18S10501   2.399   2.532   3.491  0.5191 -3.0183 -1.8138
  103SAPE  C21910502   2.486   2.568   3.681  0.6719  0.1022 -0.4944
  103SAPE  H19R10503   2.440   2.668   3.664  4.5598  2.0647 -0.8228
  103SAPE  H19S10504   2.591   2.583   3.715  0.4681  1.3520 -0.3752
  103SAPE  C22010505   2.397   2.493   3.776 -0.2820 -0.2747  0.8080
  103SAPE  H20R10506   2.437   2.392   3.798 -0.7560 -0.2253  1.9511
  103SAPE  H20S10507   2.294   2.492   3.732  0.0302  2.8569 -0.2689
  103SAPE  H20T10508   2.392   2.536   3.878 -1.8315 -1.0945  1.1132
  103SAPE   C3310509   2.821   4.173   2.958  0.2918  0.5568 -0.0220
  103SAPE   H3X10510   2.816   4.283   2.972 -2.4474  0.3418  1.4609
  103SAPE   H3Y10511   2.917   4.142   2.911  1.2745 -2.0019  3.3264
  103SAPE   C3410512   2.833   4.110   3.103 -0.1819  0.6132 -0.1232
  103SAPE   H4X10513   2.817   4.001   3.093 -3.0096  1.0633 -1.6162
  103SAPE   H4Y10514   2.752   4.157   3.163  0.0613  2.4251 -1.1342
  103SAPE   C3510515   2.968   4.134   3.168  0.5633 -0.9326 -0.7004
  103SAPE   H5X10516   3.007   4.236   3.147 -0.4920 -0.6376 -1.3279
  103SAPE   H5Y10517   3.036   4.063   3.116  2.4027  0.8195 -0.8065
  103SAPE   C3610518   2.969   4.099   3.317 -0.2011  1.0086  0.2195
  103SAPE   H6X10519   2.897   4.163   3.372  2.4829  4.1807  0.3306
  103SAPE   H6Y10520   3.068   4.128   3.357  0.3708  1.2297 -1.3002
  103SAPE   C3710521   2.959   3.950   3.355 -0.2359  0.1249  0.2303
  103SAPE   H7X10522   3.049   3.898   3.315 -0.9866 -3.7894  3.0530
  103SAPE   H7Y10523   2.868   3.910   3.303  0.1387 -0.0612 -0.2955
  103SAPE   C3810524   2.957   3.926   3.509 -0.3155 -0.1227 -0.0368
  103SAPE   H8X10525   3.053   3.958   3.554  0.5357 -0.5945 -1.4712
  103SAPE   H8Y10526   2.950   3.820   3.541 -0.4384  0.2475  1.2424
  103SAPE   C3910527   2.839   3.996   3.590 -0.0391 -0.0797  0.0587
  103SAPE   H9X10528   2.744   3.976   3.535  0.4178  0.5403 -0.9848
  103SAPE   H9Y10529   2.845   4.106   3.580  1.4648 -0.2394 -1.2264
  103SAPE  C31010530   2.826   3.958   3.740  0.5194  0.3558  0.2002
  103SAPE  H10X10531   2.788   3.854   3.746  2.2968 -0.3247  0.2561
  103SAPE  H10Y10532   2.755   4.031   3.784 -0.2429 -1.4548  2.1245
  103SAPE  C31110533   2.960   3.959   3.815 -0.1446  0.8624  0.2467
  103SAPE  H11X10534   3.023   4.049   3.798  3.7876 -1.5968  0.4346
  103SAPE  H11Y10535   3.031   3.885   3.772 -1.1413  0.5703 -0.9231
  103SAPE  C31210536   2.928   3.933   3.964  0.4940  0.1954 -0.0761
  103SAPE  H12X10537   2.857   3.849   3.977 -1.4245  1.8325  0.3711
  103SAPE  H12Y10538   2.873   4.016   4.012  1.0736  0.8166 -0.4589
  103SAPE  C31310539   3.056   3.898   4.043 -0.3330 -0.6136  0.6748
  103SAPE  H13X10540   3.109   3.996   4.051  0.8222 -1.1183 -0.3981
  103SAPE  H13Y10541   3.128   3.835   3.986 -0.8048 -0.9989  0.5004
  103SAPE  C31410542   3.037   3.840   4.185  0.0165 -0.1144  0.3838
  103SAPE  H14X10543   2.959   3.901   4.234  0.1189  0.9099 -0.6911
  103SAPE  H14Y10544   3.132   3.849   4.243 -0.5843 -0.2992  1.4234
  103SAPE  C31510545   2.988   3.695   4.175 -0.5160 -0.0151 -0.8482
  103SAPE  H15X10546   3.066   3.626   4.136  1.1962  0.9242  0.7813
  103SAPE  H15Y10547   2.916   3.693   4.090  0.5100  1.4339 -1.7906
  103SAPE  C31610548   2.924   3.633   4.302  0.0308 -0.5606 -0.4581
  103SAPE  H16X10549   2.890   3.529   4.283  2.5914 -1.6079  0.3022
  103SAPE  H16Y10550   2.841   3.703   4.325  0.8161  0.0852  0.4970
  103SAPE  C31710551   3.029   3.638   4.413  0.0446  0.4794 -0.1982
  103SAPE  H17X10552   3.053   3.743   4.439 -1.3423  0.8499 -0.3410
  103SAPE  H17Y10553   3.123   3.590   4.376  1.3821  2.1913  0.8562
  103SAPE  C31810554   2.978   3.575   4.548 -0.2600  0.1591  0.2902
  103SAPE  H18X10555   2.896   3.629   4.599  1.2203  1.8854  0.9493
  103SAPE  H18Y10556   3.061   3.566   4.621 -0.4849  0.0380  0.5325
  103SAPE  H18Z10557   2.954   3.468   4.530  0.2382  0.1423 -0.3125
  104SAPE     N10558   6.037   6.805   1.632  0.0432 -0.8288 -0.2294
  104SAPE   HN110559   5.945   6.769   1.664 -1.7953  3.6545  0.3064
  104SAPE   HN210560   6.029   6.881   1.561 -0.0449  1.1997  1.8290
  104SAPE   HN310561   6.093   6.725   1.597  0.3738 -0.7854  0.1971
  104SAPE   C1210562   6.107   6.848   1.753 -0.0438  0.1084 -0.1753
  104SAPE  H12A10563   6.039   6.918   1.807 -1.3903 -0.5922 -0.9287
  104SAPE  H12B10564   6.208   6.888   1.728 -0.5246  1.6766  0.2731
  104SAPE   C1110565   6.132   6.732   1.851  0.2289  0.1887  0.2772
  104SAPE  H11A10566   6.036   6.680   1.874 -0.2124  0.9518  0.1692
  104SAPE  H11B10567   6.161   6.762   1.954 -0.4021 -0.0130  0.5210
  104SAPE     P10568   6.318   6.542   1.885  0.6713 -0.1080  0.3632
  104SAPE   O1310569   6.294   6.401   1.838  0.2843 -0.3195 -0.0153
  104SAPE   O1410570   6.454   6.590   1.882  0.0729 -0.8437  0.0960
  104SAPE   O1210571   6.232   6.639   1.797 -0.0144 -0.0726 -0.0932
  104SAPE   O1110572   6.261   6.579   2.026  0.1528  0.4608 -0.1166
  104SAPE    C110573   6.181   6.482   2.084  0.4632  0.8062 -0.2974
  104SAPE    HA10574   6.091   6.467   2.021 -0.3089  1.1880  0.6952
  104SAPE    HB10575   6.229   6.382   2.092  0.9578  0.9825 -0.9795
  104SAPE    C210576   6.132   6.528   2.224 -0.4087 -0.3537  0.3432
  104SAPE    HS10577   6.075   6.448   2.275  0.8443 -2.3174 -1.1441
  104SAPE   O2110578   6.059   6.652   2.221 -0.1982 -0.1972 -0.1024
  104SAPE   C2110579   5.929   6.643   2.183  0.1573 -0.4093  0.0146
  104SAPE   O2210580   5.877   6.543   2.134  0.3388 -0.2204 -0.6465
  104SAPE   C2210581   5.860   6.772   2.217  0.8404 -0.3261 -0.1733
  104SAPE   H2R10582   5.874   6.790   2.326 -0.3619  1.4115 -0.2607
  104SAPE   H2S10583   5.903   6.847   2.148  0.7091  2.5682  2.6439
  104SAPE    C310584   6.260   6.550   2.308 -0.5075  0.2290 -0.3524
  104SAPE    HX10585   6.306   6.647   2.279  0.3708  0.2491  1.0253
  104SAPE    HY10586   6.322   6.466   2.269 -0.0125  1.2709 -1.9208
  104SAPE   O3110587   6.237   6.550   2.451 -0.0622  0.3594  0.4291
  104SAPE   C3110588   6.337   6.564   2.528 -0.0395  0.2884 -0.8654
  104SAPE   O3210589   6.456   6.570   2.498 -0.1470 -0.3358  0.0878
  104SAPE   C3210590   6.271   6.583   2.666  0.7865  0.5454  0.9211
  104SAPE   H2X10591   6.192   6.507   2.683 -0.6908  2.0752  1.1207
  104SAPE   H2Y10592   6.225   6.684   2.659  0.4290  0.3449  0.3395
  104SAPE   C2310593   5.701   6.761   2.199  0.0420  0.6828  0.2232
  104SAPE   H3R10594   5.658   6.670   2.245 -2.9525  1.2598 -1.1908
  104SAPE   H3S10595   5.674   6.758   2.091 -0.9468 -0.5895  0.4866
  104SAPE   C2410596   5.632   6.889   2.251 -0.4288  0.0874 -0.1478
  104SAPE   H4R10597   5.681   6.969   2.191  0.3360  0.3259  0.7667
  104SAPE   H4S10598   5.658   6.920   2.355 -2.5504  0.4530  0.3243
  104SAPE   C2510599   5.480   6.892   2.228 -0.1591  0.7323  0.3385
  104SAPE   H5R10600   5.438   6.919   2.131 -0.8231 -1.5310 -0.0539
  104SAPE   C2610601   5.391   6.866   2.324  0.4817  0.4094 -0.1908
  104SAPE   H6R10602   5.285   6.875   2.299  0.1568 -0.6109  0.7158
  104SAPE   C2710603   5.408   6.811   2.465  0.0320 -0.3751 -0.2248
  104SAPE   H7R10604   5.349   6.872   2.537 -0.0670 -1.8096  0.9488
  104SAPE   H7S10605   5.514   6.820   2.498  0.0523 -0.2139 -0.3304
  104SAPE   C2810606   5.363   6.672   2.477  1.1091 -0.8423 -0.1943
  104SAPE   H8R10607   5.362   6.618   2.382  2.1253  0.4370 -0.9720
  104SAPE   C2910608   5.334   6.614   2.594 -0.0221 -0.1637  0.4190
  104SAPE   H9R10609   5.285   6.516   2.585  1.5235 -0.8604 -1.0628
  104SAPE  C21010610   5.363   6.670   2.733 -0.4878  0.3152  0.7218
  104SAPE  H10R10611   5.395   6.776   2.731 -1.2489  0.5508 -1.5305
  104SAPE  H10S10612   5.451   6.604   2.753 -0.0893  0.3991 -0.7121
  104SAPE  C21110613   5.260   6.663   2.839 -0.8526  0.5538  0.1606
  104SAPE  H11R10614   5.170   6.614   2.800 -0.3647  0.3195 -0.7000
  104SAPE  C21210615   5.270   6.701   2.962  0.0281 -0.1403  1.0759
  104SAPE  H12R10616   5.191   6.674   3.033 -0.2585 -2.4483 -0.0318
  104SAPE  C21310617   5.397   6.736   3.040 -0.2215  0.2300 -0.1218
  104SAPE  H13R10618   5.370   6.779   3.139  0.4908  0.1355  0.1160
  104SAPE  H13S10619   5.455   6.812   2.985  1.9959 -0.4386  1.1887
  104SAPE  C21410620   5.490   6.618   3.064 -0.4492  0.4802  0.1769
  104SAPE  H14R10621   5.435   6.523   3.068 -0.1592  0.3436  0.9633
  104SAPE  C21510622   5.627   6.612   3.074  0.3875 -0.0888 -0.3211
  104SAPE  H15R10623   5.677   6.514   3.081  1.8720  0.6204 -0.6167
  104SAPE  C21610624   5.720   6.723   3.058 -0.4411 -0.1838  0.0227
  104SAPE  H16R10625   5.814   6.704   3.114  0.9777 -1.7014 -2.6918
  104SAPE  H16S10626   5.669   6.813   3.098  0.4843  1.0324 -1.4570
  104SAPE  C21710627   5.759   6.765   2.906 -0.0597 -0.1993 -0.3777
  104SAPE  H17R10628   5.819   6.858   2.896  0.8852 -0.7016  0.3819
  104SAPE  H17S10629   5.661   6.776   2.855  0.9905  0.0156 -2.4329
  104SAPE  C21810630   5.825   6.650   2.823 -0.3404  0.1765 -0.0823
  104SAPE  H18R10631   5.768   6.557   2.843  0.3767 -0.1575  0.4799
  104SAPE  H18S10632   5.927   6.625   2.859 -0.1285  2.1743  0.8716
  104SAPE  C21910633   5.836   6.671   2.671  0.2936  0.1235 -0.4996
  104SAPE  H19R10634   5.893   6.761   2.640  0.3098 -0.0402 -0.9561
  104SAPE  H19S10635   5.734   6.677   2.629 -0.0900 -0.9092  0.2436
  104SAPE  C22010636   5.913   6.555   2.609 -0.2218  1.1012  0.7025
  104SAPE  H20R10637   5.869   6.453   2.608  1.5956  0.1893 -2.9114
  104SAPE  H20S10638   6.002   6.544   2.675 -1.4416 -0.5337  2.1569
  104SAPE  H20T10639   5.946   6.581   2.507  0.0329 -1.6713  0.0023
  104SAPE   C3310640   6.366   6.594   2.781  0.4765 -0.6186 -0.1487
  104SAPE   H3X10641   6.435   6.679   2.759  1.0888 -1.5815 -2.2311
  104SAPE   H3Y10642   6.437   6.509   2.779  1.1816 -0.0539  0.2346
  104SAPE   C3410643   6.289   6.607   2.915 -0.2267 -0.0444 -0.4677
  104SAPE   H4X10644   6.260   6.504   2.945 -2.1491 -0.0039 -1.9614
  104SAPE   H4Y10645   6.196   6.667   2.906  0.5106  1.2871  0.4143
  104SAPE   C3510646   6.380   6.670   3.029  0.3210  0.2901 -0.2676
  104SAPE   H5X10647   6.401   6.779   3.020 -0.2090  0.3702 -0.6056
  104SAPE   H5Y10648   6.472   6.608   3.022  1.7198  2.3303 -1.0652
  104SAPE   C3610649   6.309   6.658   3.164 -0.4694  0.0338 -0.1175
  104SAPE   H6X10650   6.293   6.554   3.199 -0.6553  1.4213  4.6699
  104SAPE   H6Y10651   6.209   6.700   3.139 -0.4844 -1.0919 -2.2149
  104SAPE   C3710652   6.390   6.738   3.274  0.2798 -0.3814  0.1376
  104SAPE   H7X10653   6.361   6.845   3.264 -0.9796 -0.8576 -1.8574
  104SAPE   H7Y10654   6.499   6.737   3.254  0.2244  2.3082 -0.7344
  104SAPE   C3810655   6.367   6.695   3.422  0.1023  0.2448  0.6215
  104SAPE   H8X10656   6.387   6.586   3.427 -0.3287 -0.1863 -3.7281
  104SAPE   H8Y10657   6.258   6.703   3.439 -0.7264 -1.0257 -3.3087
  104SAPE   C3910658   6.460   6.768   3.519 -0.3853 -0.4148 -0.3136
  104SAPE   H9X10659   6.455   6.876   3.493 -0.4679 -0.6388 -1.2467
  104SAPE   H9Y10660   6.562   6.726   3.509 -0.0812  0.1808  0.2151
  104SAPE  C31010661   6.415   6.745   3.655 -0.5324 -0.2340 -0.1170
  104SAPE  H10X10662   6.432   6.638   3.678 -0.7705 -0.4600 -0.9706
  104SAPE  H10Y10663   6.310   6.780   3.662 -0.0337  1.0030  2.1753
  104SAPE  C31110664   6.487   6.838   3.761  0.2134  0.1327  0.3186
  104SAPE  H11X10665   6.516   6.931   3.706 -3.5085  1.6724  0.6959
  104SAPE  H11Y10666   6.580   6.788   3.796 -0.4063 -0.9063  0.5007
  104SAPE  C31210667   6.405   6.890   3.887 -0.1897 -0.2871  0.3325
  104SAPE  H12X10668   6.371   6.801   3.944 -0.4181 -0.5921 -0.2660
  104SAPE  H12Y10669   6.316   6.948   3.856  0.3517  0.3968  0.0358
  104SAPE  C31310670   6.479   6.990   3.976  0.3645  0.1002  0.2174
  104SAPE  H13X10671   6.475   7.091   3.930 -1.6339 -0.1113 -0.1413
  104SAPE  H13Y10672   6.588   6.966   3.971  0.3309  0.0202 -0.1890
  104SAPE  C31410673   6.434   6.972   4.122  0.2372  0.3923 -0.0687
  104SAPE  H14X10674   6.434   6.866   4.156  0.3122  0.0002 -1.2538
  104SAPE  H14Y10675   6.330   7.011   4.124 -0.0958 -0.4845  1.2360
  104SAPE  C31510676   6.515   7.048   4.227 -0.3120 -0.0876 -0.3178
  104SAPE  H15X10677   6.445   7.115   4.281  1.1309  0.2000  1.2972
  104SAPE  H15Y10678   6.587   7.116   4.176  0.7681 -1.0699 -0.1399
  104SAPE  C31610679   6.592   6.961   4.327  0.0196 -0.0027 -0.1935
  104SAPE  H16X10680   6.701   6.971   4.306 -0.0984  0.4901 -0.5950
  104SAPE  H16Y10681   6.561   6.855   4.329  1.4719 -0.4581  2.1993
  104SAPE  C31710682   6.584   7.006   4.473  0.0738  0.4807 -0.2412
  104SAPE  H17X10683   6.618   7.112   4.473 -0.3260  0.6132 -1.0251
  104SAPE  H17Y10684   6.659   6.953   4.536  0.4151 -0.3576 -1.3249
  104SAPE  C31810685   6.443   6.992   4.539  0.0764 -0.1616  0.4668
  104SAPE  H18X10686   6.413   6.885   4.542 -0.6696  0.0230 -0.0322
  104SAPE  H18Y10687   6.363   7.051   4.490  1.8685  0.9543 -1.2246
  104SAPE  H18Z10688   6.426   7.026   4.644 -2.6911  0.0970  0.0197
  105SAPE     N10689   0.682   1.891   1.702 -0.1130 -0.0570  0.2580
  105SAPE   HN110690   0.677   1.916   1.803 -1.6626 -0.9275  0.4344
  105SAPE   HN210691   0.718   1.976   1.655  1.0478  0.4632  1.9978
  105SAPE   HN310692   0.583   1.887   1.670  0.2564 -0.0402 -0.9065
  105SAPE   C1210693   0.740   1.760   1.687  0.2475  0.3120 -0.8177
  105SAPE  H12A10694   0.784   1.744   1.587 -1.9713  0.2982 -1.8599
  105SAPE  H12B10695   0.662   1.682   1.699  0.5145 -0.0335 -1.2883
  105SAPE   C1110696   0.850   1.753   1.790  0.3464 -0.0499 -0.1365
  105SAPE  H11A10697   0.916   1.842   1.779  1.3954 -1.0874 -3.2620
  105SAPE  H11B10698   0.917   1.669   1.762  0.7717 -0.0721  0.9032
  105SAPE     P10699   0.851   1.692   2.054 -0.2216  0.2354  0.5766
  105SAPE   O1310700   0.757   1.735   2.158 -0.1462 -0.0748 -0.1497
  105SAPE   O1410701   0.886   1.550   2.053 -0.4774  1.0572  0.0342
  105SAPE   O1210702   0.787   1.739   1.917 -0.0674  0.4238 -0.2107
  105SAPE   O1110703   0.988   1.779   2.073 -0.2489 -0.6370 -0.2782
  105SAPE    C110704   0.982   1.922   2.093  0.4197 -0.5482  0.0133
  105SAPE    HA10705   1.041   1.981   2.019  1.3783  1.2407  2.0833
  105SAPE    HB10706   0.878   1.960   2.094  0.5921  0.0823  2.8715
  105SAPE    C210707   1.051   1.963   2.222 -0.3253  0.0684  0.4510
  105SAPE    HS10708   1.158   1.974   2.195 -0.2686 -1.7813 -0.1924
  105SAPE   O2110709   1.046   1.857   2.324  0.6936  0.1611  0.1774
  105SAPE   C2110710   1.168   1.816   2.372  0.3424 -0.0420 -0.2390
  105SAPE   O2210711   1.279   1.867   2.360  0.1230 -0.2793 -0.1609
  105SAPE   C2210712   1.138   1.697   2.469  0.1583  0.1334 -0.7419
  105SAPE   H2R10713   1.106   1.744   2.565  1.1780 -0.2815 -0.1857
  105SAPE   H2S10714   1.061   1.625   2.434  1.4417 -0.7584 -1.8239
  105SAPE    C310715   0.979   2.085   2.287 -0.5712 -0.6799  0.2528
  105SAPE    HX10716   0.889   2.051   2.342 -1.2315  0.7378  0.0799
  105SAPE    HY10717   0.953   2.152   2.203 -0.4834 -1.3539 -0.3302
  105SAPE   O3110718   1.073   2.139   2.378  0.2001  0.2506 -0.3825
  105SAPE   C3110719   1.015   2.229   2.462 -0.7411  0.4975 -0.5873
  105SAPE   O3210720   0.901   2.266   2.456 -0.2505  0.3397  0.4790
  105SAPE   C3210721   1.121   2.284   2.552  0.0982  0.4133  0.0948
  105SAPE   H2X10722   1.164   2.377   2.509  1.1867  0.1128  0.4844
  105SAPE   H2Y10723   1.211   2.219   2.557 -0.1862 -0.0366 -0.5216
  105SAPE   C2310724   1.263   1.622   2.507  0.0429  0.2220  0.1526
  105SAPE   H3R10725   1.345   1.691   2.535  1.0292 -0.5848 -0.6349
  105SAPE   H3S10726   1.304   1.555   2.428  0.4211 -3.1410  2.9660
  105SAPE   C2410727   1.236   1.531   2.626 -0.0866 -0.0034  0.1082
  105SAPE   H4R10728   1.183   1.589   2.704  1.2152 -1.8091  2.4636
  105SAPE   H4S10729   1.330   1.494   2.672  0.0194  1.1669  0.8867
  105SAPE   C2510730   1.155   1.411   2.586  0.3579  0.2681  0.2343
  105SAPE   H5R10731   1.173   1.382   2.481  1.7134  2.7707 -0.3318
  105SAPE   C2610732   1.056   1.354   2.658  0.3691  0.2446  0.4953
  105SAPE   H6R10733   1.001   1.271   2.613 -0.8581  1.5790 -0.5300
  105SAPE   C2710734   1.007   1.384   2.801 -0.0854  0.3206  0.4310
  105SAPE   H7R10735   0.914   1.444   2.801 -0.6622 -0.4766 -1.8874
  105SAPE   H7S10736   1.079   1.448   2.857  0.2117  0.0587  0.3499
  105SAPE   C2810737   0.965   1.256   2.868  1.4469 -0.2233  0.4946
  105SAPE   H8R10738   0.913   1.181   2.805  1.8633  0.0611 -0.1953
  105SAPE   C2910739   0.988   1.214   2.989 -1.0931 -0.0232 -0.7623
  105SAPE   H9R10740   0.966   1.113   3.027 -0.4637  0.6484  1.5427
  105SAPE  C21010741   1.049   1.306   3.104  0.6398  0.8738  0.8987
  105SAPE  H10R10742   1.028   1.258   3.202  2.4109  1.8595  1.8187
  105SAPE  H10S10743   0.999   1.404   3.110  0.1150  0.5999  1.0015
  105SAPE  C21110744   1.193   1.326   3.107  0.3625  0.6958  0.1981
  105SAPE  H11R10745   1.247   1.309   3.013  2.8389 -1.3308  1.8280
  105SAPE  C21210746   1.271   1.344   3.213  0.4360 -0.5316 -0.7446
  105SAPE  H12R10747   1.380   1.343   3.197  0.4920  0.8085 -0.6173
  105SAPE  C21310748   1.220   1.374   3.357 -0.5261 -0.2229  0.4419
  105SAPE  H13R10749   1.250   1.288   3.420  2.8463  0.9538  0.6923
  105SAPE  H13S10750   1.111   1.392   3.366 -0.2546  1.0578  1.5068
  105SAPE  C21410751   1.295   1.500   3.397 -0.5864  0.3596 -0.1719
  105SAPE  H14R10752   1.309   1.576   3.318 -1.8902  1.5880  0.7431
  105SAPE  C21510753   1.342   1.530   3.517 -0.0199 -0.0186  0.8059
  105SAPE  H15R10754   1.391   1.627   3.531  0.4368 -0.4993  2.7714
  105SAPE  C21610755   1.344   1.445   3.640 -0.3525  0.1475 -0.8687
  105SAPE  H16R10756   1.442   1.395   3.649  0.8284  1.4883 -4.4848
  105SAPE  H16S10757   1.275   1.358   3.644  0.6253 -0.6224 -0.2057
  105SAPE  C21710758   1.307   1.523   3.764  0.0842 -0.2412  0.0356
  105SAPE  H17R10759   1.199   1.545   3.748  0.3658 -0.3372 -2.3855
  105SAPE  H17S10760   1.366   1.617   3.770 -0.4404  0.6127 -4.6083
  105SAPE  C21810761   1.336   1.441   3.893  0.6900  1.0139  0.1610
  105SAPE  H18R10762   1.291   1.340   3.881 -1.3468  1.3696  3.4639
  105SAPE  H18S10763   1.298   1.475   3.992 -1.8330 -1.1137  0.0365
  105SAPE  C21910764   1.484   1.408   3.925 -0.4538 -1.5682  0.1271
  105SAPE  H19R10765   1.550   1.497   3.929 -3.0663  0.5578 -0.9912
  105SAPE  H19S10766   1.525   1.340   3.847  1.3492 -0.7785  0.3630
  105SAPE  C22010767   1.491   1.334   4.063 -0.3355  0.0552  0.3432
  105SAPE  H20R10768   1.574   1.260   4.056  0.4264  0.8889  0.4369
  105SAPE  H20S10769   1.400   1.271   4.075  0.3316 -1.0601 -0.1962
  105SAPE  H20T10770   1.497   1.402   4.150  1.3208  0.0202  0.2934
  105SAPE   C3310771   1.055   2.304   2.690  0.0664  0.1500 -0.2587
  105SAPE   H3X10772   1.004   2.209   2.714 -1.2175  0.9401  0.2637
  105SAPE   H3Y10773   0.981   2.387   2.685 -0.3120 -0.2210 -1.0197
  105SAPE   C3410774   1.159   2.340   2.793 -0.2385  0.2969  0.5693
  105SAPE   H4X10775   1.219   2.427   2.761  2.8000 -0.6644  3.1024
  105SAPE   H4Y10776   1.238   2.262   2.779 -1.6837 -1.0749 -0.2918
  105SAPE   C3510777   1.104   2.343   2.936 -0.3323 -0.4690 -0.1411
  105SAPE   H5X10778   1.049   2.252   2.967 -0.7006  0.2663  1.5446
  105SAPE   H5Y10779   1.029   2.425   2.944  0.6702  0.3523  1.4645
  105SAPE   C3610780   1.211   2.385   3.039 -0.2666 -0.4658  0.2593
  105SAPE   H6X10781   1.262   2.476   3.001 -1.0960 -0.2731 -0.4085
  105SAPE   H6Y10782   1.286   2.302   3.043 -0.5814 -0.7067  2.0492
  105SAPE   C3710783   1.149   2.427   3.174  0.5883  0.7009  0.1219
  105SAPE   H7X10784   1.073   2.504   3.147  0.6427  1.1217  1.1337
  105SAPE   H7Y10785   1.226   2.478   3.235 -1.5948 -0.1466  3.8971
  105SAPE   C3810786   1.088   2.308   3.255 -0.1348 -0.2352  0.1808
  105SAPE   H8X10787   1.181   2.259   3.290  1.5156  2.1706 -0.5747
  105SAPE   H8Y10788   1.030   2.233   3.199  1.0580  0.4406 -2.0611
  105SAPE   C3910789   1.005   2.351   3.379  0.3681  0.0974  0.4842
  105SAPE   H9X10790   0.917   2.411   3.349  0.1730  0.6095  2.0119
  105SAPE   H9Y10791   1.066   2.426   3.434  0.6011  2.8423 -3.1441
  105SAPE  C31010792   0.953   2.234   3.472  0.0532  0.4662 -0.0792
  105SAPE  H10X10793   1.044   2.189   3.517  0.7264 -0.2588 -2.0872
  105SAPE  H10Y10794   0.904   2.156   3.411  2.1239  1.0377 -2.6223
  105SAPE  C31110795   0.856   2.294   3.578 -0.0635  0.4514 -0.3357
  105SAPE  H11X10796   0.792   2.365   3.520 -1.1457 -1.9936 -2.3109
  105SAPE  H11Y10797   0.906   2.346   3.662  1.5294 -2.1558  0.4302
  105SAPE  C31210798   0.756   2.184   3.639  0.2878 -0.0885  0.2946
  105SAPE  H12X10799   0.805   2.091   3.678  1.3899  2.0422  4.6832
  105SAPE  H12Y10800   0.683   2.158   3.560 -1.0531  0.0377  1.4649
  105SAPE  C31310801   0.683   2.238   3.764  0.3963 -0.1271  0.3617
  105SAPE  H13X10802   0.630   2.334   3.742  2.1049  0.9431  0.7249
  105SAPE  H13Y10803   0.753   2.267   3.845 -0.9990  1.5841  1.0368
  105SAPE  C31410804   0.580   2.132   3.807 -0.2471 -0.4104 -0.5384
  105SAPE  H14X10805   0.631   2.033   3.805  0.5870  0.0169 -1.7977
  105SAPE  H14Y10806   0.499   2.132   3.732 -1.2148 -0.0211  0.4751
  105SAPE  C31510807   0.511   2.161   3.944 -0.0923 -0.3839  0.6811
  105SAPE  H15X10808   0.461   2.259   3.927 -1.0254 -0.8958  0.4165
  105SAPE  H15Y10809   0.593   2.170   4.018 -1.0204  1.6110  1.5428
  105SAPE  C31610810   0.411   2.056   3.974  0.0573 -0.3820  0.7155
  105SAPE  H16X10811   0.462   1.957   3.968  1.8536  0.5721 -1.5459
  105SAPE  H16Y10812   0.335   2.050   3.893  1.7695 -1.1436 -0.9318
  105SAPE  C31710813   0.338   2.064   4.109  0.5202  0.1590  0.3639
  105SAPE  H17X10814   0.300   2.168   4.103  0.8300  0.2483 -0.1565
  105SAPE  H17Y10815   0.410   2.055   4.194  1.5039  0.2430 -0.4383
  105SAPE  C31810816   0.221   1.963   4.109 -0.3204 -0.0694  0.0652
  105SAPE  H18X10817   0.152   1.967   4.022  1.9333  2.5869 -1.7711
  105SAPE  H18Y10818   0.166   1.956   4.205  0.2496  1.0025  0.4744
  105SAPE  H18Z10819   0.272   1.864   4.106  3.0656  1.5803 -1.8416
  106SAPE     N10820   1.229   5.013   2.086 -0.6906 -0.4526 -0.4685
  106SAPE   HN110821   1.148   5.009   2.021 -2.1752 -3.5899  1.3565
  106SAPE   HN210822   1.267   5.108   2.101 -1.2237 -0.1982 -0.6682
  106SAPE   HN310823   1.310   4.973   2.035  0.8465  1.0832  0.6504
  106SAPE   C1210824   1.205   4.937   2.213  1.1750  0.9066  0.1284
  106SAPE  H12A10825   1.144   4.999   2.281 -0.4988  0.0880 -0.5559
  106SAPE  H12B10826   1.305   4.916   2.256  0.8977  0.7613  0.7183
  106SAPE   C1110827   1.140   4.793   2.195  0.6675  0.8466  0.3614
  106SAPE  H11A10828   1.119   4.755   2.297  0.6434  0.5452  0.2450
  106SAPE  H11B10829   1.212   4.721   2.151 -0.1845 -0.8976  1.6693
  106SAPE     P10830   0.880   4.845   2.172  0.0634  0.1329 -0.0057
  106SAPE   O1310831   0.886   4.993   2.186 -0.9999  0.0178 -0.5824
  106SAPE   O1410832   0.778   4.782   2.084  0.0685 -0.3019  0.4914
  106SAPE   O1210833   1.020   4.782   2.123  0.2454  0.2042 -0.7114
  106SAPE   O1110834   0.860   4.791   2.313  0.7452 -0.2526  0.2938
  106SAPE    C110835   0.837   4.652   2.336  0.4594  0.4002  0.0129
  106SAPE    HA10836   0.736   4.632   2.293  0.6858  1.0285 -0.8250
  106SAPE    HB10837   0.911   4.585   2.288 -1.1490 -1.4717  0.0170
  106SAPE    C210838   0.826   4.601   2.483  0.4351 -0.0830  0.8927
  106SAPE    HS10839   0.773   4.504   2.468  0.4405 -0.0267  0.4883
  106SAPE   O2110840   0.766   4.696   2.575 -0.1072 -0.0313 -0.0028
  106SAPE   C2110841   0.639   4.685   2.593  0.0656  0.4940 -0.2861
  106SAPE   O2210842   0.566   4.615   2.527 -0.2185 -0.8010 -0.1006
  106SAPE   C2210843   0.588   4.782   2.699  0.5351 -0.2221 -0.3365
  106SAPE   H2R10844   0.599   4.884   2.657 -1.2086 -0.5939 -1.7926
  106SAPE   H2S10845   0.479   4.768   2.715  0.5066  0.9761  0.6870
  106SAPE    C310846   0.960   4.561   2.532 -0.8296  0.3345  0.2887
  106SAPE    HX10847   1.027   4.650   2.527 -0.1690  0.0505  2.7935
  106SAPE    HY10848   1.015   4.486   2.470 -0.9984 -0.8048  1.4770
  106SAPE   O3110849   0.948   4.496   2.657 -0.3759 -0.4978  0.1272
  106SAPE   C3110850   1.016   4.567   2.749 -0.3632  0.2148  0.0861
  106SAPE   O3210851   1.096   4.659   2.727 -0.7699  0.6023 -0.1375
  106SAPE   C3210852   0.978   4.513   2.885  0.3779  0.0870 -0.6204
  106SAPE   H2X10853   0.980   4.402   2.884 -0.7574  0.0240  0.7122
  106SAPE   H2Y10854   0.877   4.554   2.905  1.2629  1.4007  1.4638
  106SAPE   C2310855   0.651   4.774   2.841 -0.1430  0.0525 -0.4543
  106SAPE   H3R10856   0.643   4.671   2.883  0.8973 -0.5707 -1.7175
  106SAPE   H3S10857   0.594   4.842   2.908  0.1472 -0.5543  0.4258
  106SAPE   C2410858   0.801   4.821   2.844  0.0288 -0.5676  0.0431
  106SAPE   H4R10859   0.855   4.753   2.775  1.1995  1.5337 -1.2164
  106SAPE   H4S10860   0.837   4.807   2.949  1.0539 -0.6793 -0.3142
  106SAPE   C2510861   0.821   4.968   2.812  1.0265  0.6631 -0.1833
  106SAPE   H5R10862   0.785   4.992   2.711 -2.0202 -1.9324  0.1409
  106SAPE   C2610863   0.868   5.061   2.891  0.0777  0.0793 -0.1974
  106SAPE   H6R10864   0.865   5.167   2.861  0.0529  1.4850  4.0789
  106SAPE   C2710865   0.899   5.052   3.038 -0.6891  0.6542  0.2249
  106SAPE   H7R10866   0.915   4.949   3.076 -1.8790 -0.7480 -2.7915
  106SAPE   H7S10867   0.812   5.080   3.102 -0.9062 -2.1285  1.2645
  106SAPE   C2810868   1.026   5.123   3.071 -0.4336  0.7930 -0.7132
  106SAPE   H8R10869   1.109   5.089   3.008 -1.1578  1.3941 -2.0272
  106SAPE   C2910870   1.060   5.201   3.178  0.4105 -0.4534  0.3790
  106SAPE   H9R10871   1.151   5.261   3.162  0.4230 -0.2291  1.2808
  106SAPE  C21010872   0.970   5.233   3.295  0.4048  0.9765  0.4675
  106SAPE  H10R10873   1.001   5.168   3.380  0.4533 -1.1818 -1.1127
  106SAPE  H10S10874   0.864   5.204   3.279  1.0709 -0.4599 -1.7237
  106SAPE  C21110875   0.985   5.375   3.335 -0.0842  0.2159  0.2325
  106SAPE  H11R10876   0.951   5.450   3.262  1.4990  0.1944 -0.5712
  106SAPE  C21210877   1.042   5.421   3.452 -0.4640 -0.5808 -0.5544
  106SAPE  H12R10878   1.034   5.529   3.470 -1.9701 -0.4850 -1.6226
  106SAPE  C21310879   1.084   5.337   3.567  0.2765  0.4973  0.2995
  106SAPE  H13R10880   1.130   5.244   3.526 -0.5970 -0.3010  1.1030
  106SAPE  H13S10881   0.990   5.303   3.615 -0.8232  2.2081 -0.5587
  106SAPE  C21410882   1.191   5.406   3.654  0.4460 -0.6190  0.7468
  106SAPE  H14R10883   1.295   5.396   3.621  0.6095 -1.0331  1.3726
  106SAPE  C21510884   1.175   5.466   3.775 -0.0368 -0.3453 -0.0955
  106SAPE  H15R10885   1.261   5.525   3.810 -0.9003  0.4402  0.7560
  106SAPE  C21610886   1.037   5.500   3.832 -0.9250  0.4556  0.0819
  106SAPE  H16R10887   1.025   5.425   3.913  2.7202 -1.0628 -0.5707
  106SAPE  H16S10888   0.956   5.473   3.762  0.3246 -1.4520 -0.7050
  106SAPE  C21710889   1.013   5.640   3.888 -0.0879 -0.8434 -0.2174
  106SAPE  H17R10890   0.905   5.654   3.909  0.6972  0.7537  3.6923
  106SAPE  H17S10891   1.049   5.725   3.826  0.7256 -1.5774 -0.7738
  106SAPE  C21810892   1.081   5.666   4.026  0.6417 -0.5407  0.8968
  106SAPE  H18R10893   1.191   5.675   4.009  0.5375 -0.7998  0.0246
  106SAPE  H18S10894   1.078   5.589   4.106  0.0670 -0.3136  1.0938
  106SAPE  C21910895   1.042   5.804   4.088 -0.3844 -0.2106 -0.6901
  106SAPE  H19R10896   0.931   5.803   4.092 -0.3602 -1.4620  0.3899
  106SAPE  H19S10897   1.082   5.873   4.012 -0.0432 -2.1822 -2.3990
  106SAPE  C22010898   1.095   5.840   4.227 -0.2528  0.0496 -0.0810
  106SAPE  H20R10899   1.048   5.768   4.298  2.2300 -1.0288  0.6104
  106SAPE  H20S10900   1.054   5.938   4.259 -2.1165 -1.4381  2.4731
  106SAPE  H20T10901   1.202   5.815   4.243 -0.7128 -1.1836  1.4144
  106SAPE   C3310902   1.058   4.574   3.004 -0.2284  0.0065 -0.1908
  106SAPE   H3X10903   1.021   4.678   3.014 -1.2580 -0.3851  0.2139
  106SAPE   H3Y10904   1.167   4.584   2.983 -0.1052 -1.1181 -0.1466
  106SAPE   C3410905   1.047   4.512   3.141 -0.1396  0.2990  0.3957
  106SAPE   H4X10906   1.149   4.530   3.181  0.5921  0.3030 -1.4182
  106SAPE   H4Y10907   1.027   4.402   3.134 -0.5750  0.2811  1.5630
  106SAPE   C3510908   0.954   4.580   3.243  0.2319 -0.5109  0.3089
  106SAPE   H5X10909   0.983   4.687   3.250  1.0000 -0.3411 -3.5863
  106SAPE   H5Y10910   0.976   4.528   3.340  2.7981 -0.7660 -0.3247
  106SAPE   C3610911   0.813   4.561   3.192 -0.1564 -0.1040 -0.2520
  106SAPE   H6X10912   0.798   4.471   3.128  1.4067  0.0183 -0.8331
  106SAPE   H6Y10913   0.789   4.652   3.132 -1.2709  1.3227  2.1877
  106SAPE   C3710914   0.706   4.560   3.304  0.0025 -0.4187 -0.1881
  106SAPE   H7X10915   0.734   4.464   3.354  1.2202  0.1693  0.2764
  106SAPE   H7Y10916   0.607   4.554   3.253  0.1010 -0.0677 -0.4227
  106SAPE   C3810917   0.724   4.667   3.406 -0.2329  0.0777 -0.2662
  106SAPE   H8X10918   0.819   4.647   3.460  0.3826 -1.2116 -1.7602
  106SAPE   H8Y10919   0.637   4.658   3.474  0.8775 -0.1846  1.1819
  106SAPE   C3910920   0.730   4.810   3.354  0.0609  0.4170 -0.2724
  106SAPE   H9X10921   0.653   4.823   3.275  0.5481  1.9921 -0.5225
  106SAPE   H9Y10922   0.833   4.833   3.320  0.7883  1.5423  2.3672
  106SAPE  C31010923   0.713   4.919   3.471  0.3785 -0.0593  0.9489
  106SAPE  H10X10924   0.606   4.912   3.497 -0.0777  2.2557 -0.1119
  106SAPE  H10Y10925   0.725   5.023   3.435  1.6859 -0.3993  0.3418
  106SAPE  C31110926   0.804   4.894   3.597 -0.4633  0.2237 -0.2612
  106SAPE  H11X10927   0.901   4.849   3.567 -0.2729 -0.9807  1.9622
  106SAPE  H11Y10928   0.753   4.813   3.654 -1.0575  0.5521 -0.3141
  106SAPE  C31210929   0.827   5.016   3.684  0.2141  1.2448 -0.0150
  106SAPE  H12X10930   0.737   5.070   3.721 -0.0937  0.3315  0.6113
  106SAPE  H12Y10931   0.891   5.086   3.628 -0.3470 -0.7403 -3.4248
  106SAPE  C31310932   0.899   4.974   3.813  0.4707  0.4596  0.1242
  106SAPE  H13X10933   0.991   4.913   3.797 -0.5860 -1.1931  0.1001
  106SAPE  H13Y10934   0.822   4.934   3.882 -1.0425  0.7413 -1.3365
  106SAPE  C31410935   0.964   5.093   3.881  1.0817 -0.9469  0.1165
  106SAPE  H14X10936   0.896   5.180   3.895  2.4980  0.0724  0.7983
  106SAPE  H14Y10937   1.046   5.130   3.816  1.3832 -0.7709  0.5915
  106SAPE  C31510938   1.018   5.052   4.022  0.2661 -0.6795  0.4138
  106SAPE  H15X10939   1.113   5.106   4.045  0.2274 -0.8525  1.0066
  106SAPE  H15Y10940   1.038   4.943   4.027  2.9567 -0.2620  0.2479
  106SAPE  C31610941   0.929   5.089   4.139  0.3230  0.4196 -0.1502
  106SAPE  H16X10942   0.827   5.085   4.096  0.8825 -1.1558 -1.4164
  106SAPE  H16Y10943   0.940   5.192   4.180 -2.4092  0.9553 -0.6089
  106SAPE  C31710944   0.939   4.988   4.262  0.3227 -0.2160  0.6043
  106SAPE  H17X10945   0.880   5.029   4.347 -0.5530 -0.9607  0.3694
  106SAPE  H17Y10946   1.046   4.981   4.291  0.1140  1.5709  1.9272
  106SAPE  C31810947   0.888   4.852   4.220  0.2094  0.0858  0.3632
  106SAPE  H18X10948   0.779   4.865   4.199  0.4981 -0.9807 -2.1969
  106SAPE  H18Y10949   0.912   4.776   4.297  0.1758  0.0051  0.2956
  106SAPE  H18Z10950   0.931   4.807   4.127 -2.2659 -5.6390  1.5170
  107SAPE     N10951   2.337   1.284   2.114  0.2358 -0.2022  0.6643
  107SAPE   HN110952   2.354   1.350   2.193 -0.5646  1.2744 -0.3453
  107SAPE   HN210953   2.236   1.262   2.122 -0.2516  1.3110 -0.6958
  107SAPE   HN310954   2.403   1.204   2.114 -0.1546 -0.5449 -0.5345
  107SAPE   C1210955   2.360   1.353   1.985  0.2020 -0.6817  0.0783
  107SAPE  H12A10956   2.266   1.404   1.954 -0.9346 -3.0805 -0.6087
  107SAPE  H12B10957   2.385   1.282   1.904 -0.9176 -0.3177 -0.6103
  107SAPE   C1110958   2.480   1.457   1.997 -0.1464  0.6358 -0.4384
  107SAPE  H11A10959   2.461   1.519   2.087  0.1983 -2.2220  1.7625
  107SAPE  H11B10960   2.486   1.524   1.909  0.6960  0.2585 -0.6812
  107SAPE     P10961   2.741   1.463   2.030 -0.1635 -0.1488  0.0583
  107SAPE   O1310962   2.845   1.377   1.967 -0.6399 -0.2511  0.2651
  107SAPE   O1410963   2.721   1.596   1.963 -0.2848  0.2914  0.4800
  107SAPE   O1210964   2.605   1.386   2.024  0.7670  0.0507 -0.5569
  107SAPE   O1110965   2.755   1.485   2.185  0.0453  0.2501  0.0769
  107SAPE    C110966   2.772   1.372   2.274 -0.3328 -0.1120 -0.0359
  107SAPE    HA10967   2.691   1.301   2.248  0.2299  0.4488 -4.0523
  107SAPE    HB10968   2.863   1.315   2.244  0.0339 -0.6836  2.0015
  107SAPE    C210969   2.770   1.432   2.414 -0.9096 -0.3453  0.1216
  107SAPE    HS10970   2.860   1.494   2.429 -1.2505 -0.4371  3.0779
  107SAPE   O2110971   2.764   1.330   2.509  0.0564 -0.0938 -0.4471
  107SAPE   C2110972   2.864   1.249   2.519  0.2255  0.1366 -0.0159
  107SAPE   O2210973   2.969   1.255   2.457  0.4740  0.2954 -0.3275
  107SAPE   C2210974   2.822   1.155   2.636 -0.5320  0.5844  0.2036
  107SAPE   H2R10975   2.797   1.222   2.721 -1.1836 -0.7108  1.0651
  107SAPE   H2S10976   2.727   1.100   2.616 -0.6148  0.3100  1.2548
  107SAPE    C310977   2.661   1.538   2.430  1.3262 -0.3778 -0.7935
  107SAPE    HX10978   2.561   1.501   2.403 -0.6981  3.1384  1.0527
  107SAPE    HY10979   2.680   1.623   2.361 -0.2203  0.0215 -0.7648
  107SAPE   O3110980   2.651   1.597   2.562 -0.1634  0.4798 -0.1497
  107SAPE   C3110981   2.528   1.599   2.621 -0.0015  0.2193 -0.2939
  107SAPE   O3210982   2.419   1.561   2.573 -0.5984 -0.3204  0.3610
  107SAPE   C3210983   2.528   1.634   2.778 -1.1828 -0.0462  0.2744
  107SAPE   H2X10984   2.575   1.734   2.779  0.2054 -0.6730 -0.1445
  107SAPE   H2Y10985   2.600   1.567   2.830  0.3349  0.5461 -1.0140
  107SAPE   C2310986   2.932   1.055   2.679  0.5156 -0.0592  0.1720
  107SAPE   H3R10987   2.990   1.030   2.588 -1.0282 -0.5460 -0.7253
  107SAPE   H3S10988   2.899   0.958   2.722  3.0029 -0.0249  2.4030
  107SAPE   C2410989   3.029   1.110   2.782 -0.1709  0.3206 -0.4786
  107SAPE   H4R10990   2.971   1.133   2.874 -0.3248 -0.7971 -0.2818
  107SAPE   H4S10991   3.073   1.201   2.736  0.0378  0.0124 -0.8949
  107SAPE   C2510992   3.129   1.006   2.831 -0.0920  0.3320 -0.2651
  107SAPE   H5R10993   3.132   0.912   2.775 -3.1068 -0.1528  0.2375
  107SAPE   C2610994   3.201   1.029   2.934  0.2977  0.4587  0.3738
  107SAPE   H6R10995   3.263   0.945   2.968 -1.3624 -0.2665  1.7810
  107SAPE   C2710996   3.213   1.156   3.015 -0.1228 -0.0377 -0.3119
  107SAPE   H7R10997   3.144   1.168   3.101 -0.4493  0.3174 -0.6222
  107SAPE   H7S10998   3.195   1.242   2.947  2.2886 -0.0458 -1.0618
  107SAPE   C2810999   3.359   1.180   3.061  0.3986 -0.0402  0.6694
  107SAPE   H8R11000   3.433   1.104   3.031 -0.2518 -0.7445  0.8398
  107SAPE   C2911001   3.391   1.278   3.151 -0.1312  0.9203  0.7607
  107SAPE   H9R11002   3.497   1.289   3.180 -0.1195  0.4714  0.8984
  107SAPE  C21011003   3.294   1.382   3.207 -0.1443  0.0723  0.9285
  107SAPE  H10R11004   3.189   1.348   3.213 -0.4988  0.9041 -0.1297
  107SAPE  H10S11005   3.287   1.461   3.129 -0.8122  0.3515  1.2674
  107SAPE  C21111006   3.351   1.450   3.327  0.7642 -0.2696 -0.2754
  107SAPE  H11R11007   3.381   1.556   3.318 -1.1335  0.3662  0.2164
  107SAPE  C21211008   3.362   1.394   3.447 -0.2499 -0.3383 -0.1419
  107SAPE  H12R11009   3.394   1.458   3.531 -1.6125  0.9532 -0.5669
  107SAPE  C21311010   3.334   1.250   3.478  0.2756 -0.0201 -0.4743
  107SAPE  H13R11011   3.414   1.231   3.553 -0.8842  1.8758  1.3677
  107SAPE  H13S11012   3.373   1.181   3.401  1.6737 -0.6957  0.7837
  107SAPE  C21411013   3.196   1.205   3.525 -0.1647  0.5940  0.1131
  107SAPE  H14R11014   3.114   1.242   3.460 -2.6723  1.5535  3.5391
  107SAPE  C21511015   3.163   1.124   3.631 -0.0595  0.1604 -0.1256
  107SAPE  H15R11016   3.057   1.102   3.650 -0.1687 -0.0582 -0.9445
  107SAPE  C21611017   3.265   1.068   3.728  0.8057  0.3596  0.0943
  107SAPE  H16R11018   3.319   1.146   3.785 -0.6019  1.7404 -0.3910
  107SAPE  H16S11019   3.345   1.007   3.681 -0.1470 -1.0193  0.1893
  107SAPE  C21711020   3.203   0.971   3.832  0.3013  0.4446 -0.2737
  107SAPE  H17R11021   3.286   0.910   3.874  0.2533  0.8700  0.4541
  107SAPE  H17S11022   3.121   0.905   3.796 -0.3390  0.6361  0.8060
  107SAPE  C21811023   3.146   1.043   3.960 -0.1204  0.8078 -0.0827
  107SAPE  H18R11024   3.142   0.970   4.043 -0.3981  1.4238  0.4587
  107SAPE  H18S11025   3.049   1.081   3.920 -0.1918  1.5256  0.7340
  107SAPE  C21911026   3.232   1.158   4.018  0.9337  0.2802 -0.1335
  107SAPE  H19R11027   3.171   1.204   4.099  1.6937 -1.7231  1.6653
  107SAPE  H19S11028   3.244   1.232   3.936  1.0098 -1.4924 -1.7857
  107SAPE  C22011029   3.366   1.129   4.083  0.1098  0.3425 -0.0145
  107SAPE  H20R11030   3.338   1.088   4.183  2.3362  0.4899  0.7103
  107SAPE  H20S11031   3.426   1.221   4.098 -1.4967  1.4200  0.1169
  107SAPE  H20T11032   3.416   1.055   4.018 -0.3425  0.1876 -0.1877
  107SAPE   C3311033   2.391   1.620   2.839  0.0272 -0.6634 -0.5320
  107SAPE   H3X11034   2.335   1.531   2.804 -1.3850  0.8895 -2.4887
  107SAPE   H3Y11035   2.327   1.707   2.813  0.4762  0.3813  1.6716
  107SAPE   C3411036   2.398   1.634   2.994  0.2550 -0.0191 -0.3167
  107SAPE   H4X11037   2.446   1.551   3.048 -0.6747  1.2180  2.6043
  107SAPE   H4Y11038   2.294   1.633   3.033  1.4783 -0.5231  3.2146
  107SAPE   C3511039   2.467   1.765   3.037  0.1138  0.2948 -0.0586
  107SAPE   H5X11040   2.407   1.852   3.000 -1.1784  0.1376  1.5374
  107SAPE   H5Y11041   2.568   1.766   2.992 -0.6724  0.5102 -1.9364
  107SAPE   C3611042   2.475   1.764   3.194  0.1937 -0.5735  0.3181
  107SAPE   H6X11043   2.396   1.695   3.230  0.0653 -2.1683 -2.7118
  107SAPE   H6Y11044   2.478   1.872   3.223  2.0128 -0.1601 -1.2119
  107SAPE   C3711045   2.606   1.707   3.236 -0.6225 -0.0365  1.0444
  107SAPE   H7X11046   2.688   1.779   3.214  0.0451 -0.9858  0.3348
  107SAPE   H7Y11047   2.627   1.620   3.170  1.9571 -1.0535  3.0156
  107SAPE   C3811048   2.616   1.681   3.384  0.6170 -0.5649  0.5936
  107SAPE   H8X11049   2.522   1.632   3.417 -0.1180 -1.1476 -2.0900
  107SAPE   H8Y11050   2.624   1.782   3.428  3.0554 -0.7334  0.7039
  107SAPE   C3911051   2.737   1.595   3.420 -0.2158  0.3518 -0.2777
  107SAPE   H9X11052   2.730   1.502   3.359  2.4356  0.5721 -1.0512
  107SAPE   H9Y11053   2.737   1.584   3.531  1.1891  0.1019 -0.2813
  107SAPE  C31011054   2.867   1.671   3.391  0.6267  0.5383  0.6001
  107SAPE  H10X11055   2.852   1.776   3.424 -1.4759  0.8205 -1.0782
  107SAPE  H10Y11056   2.890   1.676   3.282  1.0742  0.6000  0.6945
  107SAPE  C31111057   2.995   1.628   3.464 -0.5434  0.3850 -0.8033
  107SAPE  H11X11058   3.087   1.651   3.408 -0.5602  0.6158 -0.7364
  107SAPE  H11Y11059   2.991   1.517   3.478 -2.4997  0.4380 -0.6382
  107SAPE  C31211060   3.001   1.691   3.606  0.5798  0.1117 -0.2682
  107SAPE  H12X11061   2.899   1.723   3.636  1.2848  2.9559 -0.6041
  107SAPE  H12Y11062   3.071   1.777   3.598 -0.1235  0.7423  0.3170
  107SAPE  C31311063   3.064   1.592   3.713  0.5858  0.7770  0.4665
  107SAPE  H13X11064   3.049   1.488   3.675  2.5824  1.2913 -2.0589
  107SAPE  H13Y11065   3.005   1.609   3.806  2.2326 -1.0269  1.9403
  107SAPE  C31411066   3.214   1.599   3.742  0.4905  0.3379  0.1951
  107SAPE  H14X11067   3.234   1.703   3.773  1.6798  0.2246 -0.1244
  107SAPE  H14Y11068   3.260   1.584   3.642 -1.4253  0.5254 -0.7574
  107SAPE  C31511069   3.237   1.492   3.853  0.1436  0.2054 -0.1969
  107SAPE  H15X11070   3.209   1.386   3.836 -1.5022  0.6743 -0.6505
  107SAPE  H15Y11071   3.169   1.521   3.936 -3.3541 -0.6822 -2.5320
  107SAPE  C31611072   3.381   1.492   3.910 -0.2500  0.1020  0.1732
  107SAPE  H16X11073   3.400   1.445   4.009 -0.2485 -0.2929 -0.0115
  107SAPE  H16Y11074   3.419   1.595   3.927 -0.7575  0.0689  1.7013
  107SAPE  C31711075   3.487   1.430   3.810 -0.6925  0.1957 -0.3209
  107SAPE  H17X11076   3.500   1.514   3.738 -2.9452  1.7017  0.9058
  107SAPE  H17Y11077   3.449   1.338   3.759  1.7111  0.0307 -1.9696
  107SAPE  C31811078   3.627   1.399   3.856 -0.5132  0.5167 -0.6200
  107SAPE  H18X11079   3.668   1.464   3.937  0.8798 -1.3647  0.2726
  107SAPE  H18Y11080   3.698   1.397   3.771  0.3561  0.1880  0.0894
  107SAPE  H18Z11081   3.622   1.293   3.890 -0.3162  1.1961  1.7564
  108SAPE     N11082   4.124   4.525   1.880  0.3433 -0.7250  0.3307
  108SAPE   HN111083   4.061   4.514   1.798 -0.5903  2.3862  0.4895
  108SAPE   HN211084   4.060   4.579   1.942 -0.0960 -0.5744 -0.2415
  108SAPE   HN311085   4.202   4.582   1.841 -0.4890 -0.4008 -0.9279
  108SAPE   C1211086   4.173   4.406   1.958  0.3611  0.3548  0.0569
  108SAPE  H12A11087   4.241   4.352   1.888  0.0506  0.7721 -0.5711
  108SAPE  H12B11088   4.081   4.346   1.976  0.0500 -0.3577 -3.2749
  108SAPE   C1111089   4.247   4.455   2.088 -0.7584  0.6430  0.2642
  108SAPE  H11A11090   4.188   4.530   2.145  0.5063  0.8201  1.3941
  108SAPE  H11B11091   4.345   4.500   2.060  1.4449 -2.4181  2.3346
  108SAPE     P11092   4.382   4.231   2.130 -0.4047  0.0809  0.0958
  108SAPE   O1311093   4.312   4.128   2.046  0.0945 -0.1078  0.3737
  108SAPE   O1411094   4.501   4.296   2.070  0.0419 -0.1457  0.0860
  108SAPE   O1211095   4.279   4.343   2.172 -1.0255 -0.0233  0.1325
  108SAPE   O1111096   4.425   4.164   2.268 -0.4797  0.3401  0.1372
  108SAPE    C111097   4.495   4.238   2.367 -0.1918 -0.2750  0.0245
  108SAPE    HA11098   4.593   4.274   2.328  0.1886  0.9808  1.9721
  108SAPE    HB11099   4.441   4.333   2.386  0.2575  0.3885 -1.8615
  108SAPE    C211100   4.532   4.165   2.497 -0.9305 -0.2109 -0.0345
  108SAPE    HS11101   4.586   4.074   2.464  0.2121  0.4688 -0.0772
  108SAPE   O2111102   4.422   4.126   2.576  0.0202  0.5666  0.0669
  108SAPE   C2111103   4.348   4.029   2.526 -0.0141  0.4096  0.3414
  108SAPE   O2211104   4.374   3.957   2.430 -0.0700  0.0106  0.0666
  108SAPE   C2211105   4.230   4.005   2.615  0.9155  0.1032  0.9383
  108SAPE   H2R11106   4.266   3.957   2.709  0.0655  1.3654  1.9455
  108SAPE   H2S11107   4.198   4.108   2.640  1.2541  0.2773  0.6568
  108SAPE    C311108   4.635   4.249   2.581  0.7988 -0.6879 -0.1279
  108SAPE    HX11109   4.599   4.354   2.576  0.7269 -0.4690  2.7699
  108SAPE    HY11110   4.738   4.257   2.539  0.7103  1.8931 -0.0283
  108SAPE   O3111111   4.635   4.201   2.717 -0.0094  0.0704 -0.5354
  108SAPE   C3111112   4.539   4.245   2.797  0.1179 -0.8785  0.3580
  108SAPE   O3211113   4.473   4.342   2.774  0.8824  0.2183 -0.0258
  108SAPE   C3211114   4.546   4.171   2.938 -0.7871  0.7780  0.7879
  108SAPE   H2X11115   4.612   4.233   3.003  0.6134  1.5045 -1.2514
  108SAPE   H2Y11116   4.590   4.073   2.912 -0.2238  1.1662  0.2511
  108SAPE   C2311117   4.112   3.911   2.562 -0.5326  0.1015 -0.0411
  108SAPE   H3R11118   4.159   3.811   2.551  0.4502  0.4734  0.6983
  108SAPE   H3S11119   4.092   3.942   2.457 -0.8160 -1.1485 -0.3746
  108SAPE   C2411120   3.992   3.905   2.651  0.2952  0.4748  0.1566
  108SAPE   H4R11121   3.892   3.882   2.607  2.0418 -2.7362 -2.5407
  108SAPE   H4S11122   3.983   4.007   2.695 -0.6559 -1.0912  4.0151
  108SAPE   C2511123   4.010   3.800   2.755 -0.9095  0.4494 -0.1200
  108SAPE   H5R11124   3.999   3.697   2.717  0.5755 -0.0363  0.6911
  108SAPE   C2611125   4.053   3.808   2.884 -0.2696 -0.1438 -0.6747
  108SAPE   H6R11126   4.058   3.717   2.945  1.3762  0.3397 -0.0328
  108SAPE   C2711127   4.088   3.943   2.950  0.2909  0.6936  0.1809
  108SAPE   H7R11128   4.129   4.017   2.879  0.3913  1.0320  0.5827
  108SAPE   H7S11129   4.174   3.927   3.018 -0.4612  0.0733  1.0189
  108SAPE   C2811130   3.977   3.998   3.033  0.5240 -1.0556  0.1613
  108SAPE   H8R11131   3.912   4.076   2.991 -1.9919 -1.9477  2.1890
  108SAPE   C2911132   3.934   3.960   3.154  0.2093  0.8208  0.5988
  108SAPE   H9R11133   3.843   4.010   3.192 -0.1806  0.5670  0.0260
  108SAPE  C21011134   3.984   3.845   3.241 -0.3398 -0.2899  0.0773
  108SAPE  H10R11135   4.095   3.841   3.236 -0.3035  0.1878  0.4541
  108SAPE  H10S11136   3.942   3.751   3.200 -0.3222  0.4343 -1.6957
  108SAPE  C21111137   3.976   3.852   3.392 -0.0057  0.4161 -0.2980
  108SAPE  H11R11138   3.922   3.938   3.433 -0.8999  0.4858 -1.5664
  108SAPE  C21211139   4.038   3.768   3.476 -0.6505 -0.1437 -0.6233
  108SAPE  H12R11140   4.026   3.785   3.584  1.3935 -0.5909 -0.2741
  108SAPE  C21311141   4.105   3.640   3.440  0.5212  0.5636 -0.1999
  108SAPE  H13R11142   4.076   3.606   3.339 -1.4227 -2.8757  1.3555
  108SAPE  H13S11143   4.068   3.558   3.506 -2.8858  1.9666 -0.1617
  108SAPE  C21411144   4.255   3.665   3.438  0.9865 -0.0687 -1.2688
  108SAPE  H14R11145   4.288   3.698   3.537 -0.0378  0.6006 -1.1374
  108SAPE  C21511146   4.342   3.653   3.338 -0.7475  0.0050 -0.4317
  108SAPE  H15R11147   4.449   3.666   3.358 -0.4740 -1.5257 -0.8098
  108SAPE  C21611148   4.307   3.623   3.195  0.4572  0.0744 -0.4101
  108SAPE  H16R11149   4.205   3.665   3.180  1.0211  1.4872 -0.5184
  108SAPE  H16S11150   4.318   3.517   3.166  2.3510  0.6367 -1.9821
  108SAPE  C21711151   4.394   3.720   3.112 -0.1560 -0.1566 -0.7403
  108SAPE  H17R11152   4.501   3.718   3.142 -0.1440  0.5225 -0.7239
  108SAPE  H17S11153   4.351   3.821   3.128  1.0694  0.4520 -1.1594
  108SAPE  C21811154   4.378   3.684   2.964  0.2927  0.2062 -0.0077
  108SAPE  H18R11155   4.268   3.687   2.948 -0.5750 -0.2851  4.5234
  108SAPE  H18S11156   4.390   3.575   2.944 -1.4464  0.4968 -3.4874
  108SAPE  C21911157   4.454   3.783   2.874 -0.0206 -0.2079 -0.2338
  108SAPE  H19R11158   4.555   3.794   2.919 -0.6991 -1.3652  1.6837
  108SAPE  H19S11159   4.405   3.882   2.875 -1.2873 -0.8162  0.5807
  108SAPE  C22011160   4.451   3.725   2.737 -0.0002  0.5872 -0.3133
  108SAPE  H20R11161   4.555   3.729   2.699  1.2709 -2.0155  2.4319
  108SAPE  H20S11162   4.382   3.773   2.665 -2.1302 -0.4812  0.8975
  108SAPE  H20T11163   4.436   3.615   2.728 -0.9457  0.5302  1.4826
  108SAPE   C3311164   4.415   4.137   3.012  0.9267  0.2292  0.0792
  108SAPE   H3X11165   4.444   4.053   3.080 -0.4233  0.9026  1.5582
  108SAPE   H3Y11166   4.331   4.109   2.945  0.9414  0.2780  0.0400
  108SAPE   C3411167   4.370   4.257   3.089 -0.0511  0.1899 -0.2101
  108SAPE   H4X11168   4.328   4.321   3.009  0.2019 -1.9460 -2.1743
  108SAPE   H4Y11169   4.460   4.307   3.130 -0.1923  0.2723 -0.0041
  108SAPE   C3511170   4.279   4.242   3.205  0.9268 -0.3088 -0.4259
  108SAPE   H5X11171   4.250   4.340   3.248  1.8872 -0.7671  1.3423
  108SAPE   H5Y11172   4.182   4.202   3.169 -0.1139  1.8374 -0.1600
  108SAPE   C3611173   4.342   4.168   3.324 -0.1571 -0.1928  0.5481
  108SAPE   H6X11174   4.420   4.234   3.370 -0.4499 -0.3832  1.3249
  108SAPE   H6Y11175   4.394   4.076   3.291  1.8864  1.2821 -0.6696
  108SAPE   C3711176   4.244   4.132   3.437 -0.7855 -0.5511 -0.4026
  108SAPE   H7X11177   4.184   4.046   3.402  1.4259 -2.0175 -0.8174
  108SAPE   H7Y11178   4.177   4.217   3.464  0.1687  0.5337 -1.3140
  108SAPE   C3811179   4.318   4.082   3.569 -0.3374 -0.0711  0.1478
  108SAPE   H8X11180   4.374   4.161   3.624  0.5264 -1.8547  1.9658
  108SAPE   H8Y11181   4.402   4.012   3.549  0.0073 -0.4615  2.6176
  108SAPE   C3911182   4.213   4.021   3.669 -0.2231  0.9060  0.7698
  108SAPE   H9X11183   4.186   3.923   3.624  1.3136 -0.9820  3.6729
  108SAPE   H9Y11184   4.146   4.107   3.690  0.9966  2.5635 -1.5699
  108SAPE  C31011185   4.274   3.979   3.807 -0.2185  0.0396 -0.0406
  108SAPE  H10X11186   4.193   3.970   3.882 -0.4428  0.5806 -0.2097
  108SAPE  H10Y11187   4.353   4.045   3.850  0.2824  0.6276 -1.7521
  108SAPE  C31111188   4.345   3.846   3.797 -0.8415  0.4294 -0.0561
  108SAPE  H11X11189   4.410   3.844   3.707  0.2961  1.4492  0.7075
  108SAPE  H11Y11190   4.265   3.772   3.775  0.0761 -0.0416 -2.0677
  108SAPE  C31211191   4.419   3.801   3.924  0.4476 -0.2358 -0.5016
  108SAPE  H12X11192   4.473   3.890   3.963  0.4585 -0.2579 -0.4655
  108SAPE  H12Y11193   4.492   3.719   3.908  0.7265  0.2084 -1.5919
  108SAPE  C31311194   4.313   3.757   4.028  0.4181 -0.4464  0.8366
  108SAPE  H13X11195   4.254   3.687   3.965  1.3967  1.3185 -2.2732
  108SAPE  H13Y11196   4.239   3.829   4.067 -0.6266 -0.6396 -0.6813
  108SAPE  C31411197   4.382   3.685   4.138  0.2457  0.1611 -0.3771
  108SAPE  H14X11198   4.459   3.745   4.191  0.9511 -1.3951  0.4430
  108SAPE  H14Y11199   4.431   3.591   4.105  3.5557  2.1739 -1.6350
  108SAPE  C31511200   4.283   3.634   4.256 -0.5340 -0.1025  0.3556
  108SAPE  H15X11201   4.190   3.589   4.215 -0.8190  1.5933 -0.9575
  108SAPE  H15Y11202   4.251   3.725   4.310  2.3336 -0.5310  3.0722
  108SAPE  C31611203   4.355   3.537   4.350 -0.2316  0.3380 -0.9707
  108SAPE  H16X11204   4.292   3.525   4.440  1.5833 -0.3407  0.2724
  108SAPE  H16Y11205   4.455   3.571   4.385  1.7131 -1.6745 -4.0543
  108SAPE  C31711206   4.361   3.396   4.288 -0.6953 -0.2613  0.2115
  108SAPE  H17X11207   4.423   3.417   4.198 -2.2025  2.5337 -0.2744
  108SAPE  H17Y11208   4.260   3.359   4.259 -0.4677  0.0952 -1.0966
  108SAPE  C31811209   4.433   3.309   4.394  0.0283 -0.2810  0.1355
  108SAPE  H18X11210   4.358   3.266   4.464  1.1213  0.3664  1.7583
  108SAPE  H18Y11211   4.506   3.355   4.464 -0.1909 -1.2427  1.0207
  108SAPE  H18Z11212   4.479   3.219   4.349 -0.8674 -1.5041  1.5451
  109SAPE     N11213   5.577   1.050   2.151 -0.0261  0.5342  0.6485
  109SAPE   HN111214   5.625   1.139   2.177  0.7650  0.6008 -0.9208
  109SAPE   HN211215   5.477   1.066   2.174  0.1177  2.0811  0.3267
  109SAPE   HN311216   5.617   0.980   2.216  3.2287  1.8528  0.2740
  109SAPE   C1211217   5.612   1.022   2.005  0.1594  0.2206  0.4152
  109SAPE  H12A11218   5.619   0.913   1.985  2.0068  0.4537 -0.4080
  109SAPE  H12B11219   5.711   1.064   1.980 -0.1115  0.3337 -0.4933
  109SAPE   C1111220   5.531   1.103   1.903  0.0619 -0.6437 -0.4089
  109SAPE  H11A11221   5.426   1.079   1.932  0.0961  0.6022  0.8494
  109SAPE  H11B11222   5.543   1.068   1.798 -0.2305 -1.7728 -0.0815
  109SAPE     P11223   5.685   1.309   1.854  0.5882 -0.2516 -0.0634
  109SAPE   O1311224   5.760   1.223   1.761 -0.1832  0.3861  0.1876
  109SAPE   O1411225   5.645   1.435   1.797  0.3714 -0.3180 -0.1812
  109SAPE   O1211226   5.563   1.243   1.923 -0.0032  0.1686 -0.1078
  109SAPE   O1111227   5.776   1.328   1.981 -0.3480 -0.2441  0.0215
  109SAPE    C111228   5.827   1.459   2.025  0.1345  0.2637 -0.3450
  109SAPE    HA11229   5.932   1.466   1.991  0.3408 -1.4519 -0.1202
  109SAPE    HB11230   5.778   1.545   1.974  1.9316  0.1302 -2.4412
  109SAPE    C211231   5.813   1.488   2.174  0.8213  0.1822 -0.0583
  109SAPE    HS11232   5.871   1.420   2.239 -0.1367  0.2955  0.9417
  109SAPE   O2111233   5.674   1.489   2.212 -0.7752 -0.3295 -0.4272
  109SAPE   C2111234   5.620   1.368   2.240 -0.0251  0.5120 -0.4749
  109SAPE   O2211235   5.678   1.266   2.263 -0.5172  0.3094  0.4414
  109SAPE   C2211236   5.473   1.386   2.261  0.0550  0.1131  0.9239
  109SAPE   H2R11237   5.430   1.422   2.165 -0.8687 -2.0502  0.4818
  109SAPE   H2S11238   5.429   1.288   2.289 -0.4076  0.6273  2.0581
  109SAPE    C311239   5.871   1.628   2.196 -0.0446  0.2696  0.7242
  109SAPE    HX11240   5.813   1.700   2.135  0.8504  0.3782 -0.0301
  109SAPE    HY11241   5.978   1.645   2.170  0.3553 -0.5098  1.7770
  109SAPE   O3111242   5.846   1.659   2.336 -0.4598 -0.0830  0.0801
  109SAPE   C3111243   5.928   1.609   2.429  0.3562 -0.0187  0.2834
  109SAPE   O3211244   6.033   1.560   2.415  0.0461  0.3528  0.7714
  109SAPE   C3211245   5.863   1.636   2.565 -0.1949 -0.0003 -0.0248
  109SAPE   H2X11246   5.813   1.540   2.587  1.7103 -1.2292 -0.8483
  109SAPE   H2Y11247   5.792   1.719   2.539  2.5209  1.7340 -2.5399
  109SAPE   C2311248   5.433   1.490   2.368  0.2695 -0.1171 -0.0978
  109SAPE   H3R11249   5.322   1.497   2.374  0.3285  0.6643  0.1745
  109SAPE   H3S11250   5.481   1.589   2.355  0.9371 -0.4148  0.0434
  109SAPE   C2411251   5.493   1.445   2.505 -0.4170  0.2112 -0.5302
  109SAPE   H4R11252   5.498   1.534   2.571 -2.6625  0.1638 -0.2151
  109SAPE   H4S11253   5.594   1.403   2.485 -0.8103 -0.8987 -0.2939
  109SAPE   C2511254   5.422   1.335   2.584  0.1424 -0.7292  0.2282
  109SAPE   H5R11255   5.396   1.253   2.516  0.3917  0.0757 -0.8698
  109SAPE   C2611256   5.380   1.340   2.712 -0.3349 -0.1359  0.2685
  109SAPE   H6R11257   5.311   1.262   2.747 -1.1925  0.4725 -0.0458
  109SAPE   C2711258   5.419   1.453   2.804  0.3461 -0.3514 -1.1044
  109SAPE   H7R11259   5.341   1.532   2.794  1.0538  0.6359  0.7471
  109SAPE   H7S11260   5.517   1.498   2.777  0.5864  0.3255  0.7466
  109SAPE   C2811261   5.422   1.413   2.948 -0.0162  0.2743  0.0335
  109SAPE   H8R11262   5.423   1.307   2.977  1.7621  0.2158 -0.1626
  109SAPE   C2911263   5.424   1.507   3.047 -0.2607  0.3905 -0.2230
  109SAPE   H9R11264   5.411   1.472   3.151 -0.5454  0.6051 -0.1859
  109SAPE  C21011265   5.437   1.661   3.035 -0.1580 -0.3136 -0.7007
  109SAPE  H10R11266   5.340   1.709   3.061 -0.2533 -0.5980 -0.5262
  109SAPE  H10S11267   5.453   1.695   2.930  1.8057  0.0819 -0.2991
  109SAPE  C21111268   5.555   1.725   3.110  0.4099  0.4204  0.1399
  109SAPE  H11R11269   5.648   1.740   3.053  0.2669  1.1608  0.1053
  109SAPE  C21211270   5.556   1.753   3.247 -0.5120 -0.2995 -0.0165
  109SAPE  H12R11271   5.649   1.792   3.292 -1.4381  2.3891 -0.2189
  109SAPE  C21311272   5.442   1.728   3.339  0.4045 -0.0106  0.4553
  109SAPE  H13R11273   5.364   1.663   3.293  0.9356  0.9839 -1.9907
  109SAPE  H13S11274   5.388   1.823   3.359  0.4421 -0.0082  0.5428
  109SAPE  C21411275   5.504   1.666   3.466  1.1437 -0.4131  0.4444
  109SAPE  H14R11276   5.539   1.566   3.441 -0.1939 -1.0112  0.8501
  109SAPE  C21511277   5.528   1.727   3.585 -0.1123 -0.4164  0.1914
  109SAPE  H15R11278   5.567   1.669   3.670 -1.1399 -0.7525  0.4476
  109SAPE  C21611279   5.489   1.869   3.635  0.2912 -0.5143  0.3078
  109SAPE  H16R11280   5.504   1.963   3.577 -1.1833  0.2989  1.1972
  109SAPE  H16S11281   5.542   1.893   3.730  2.7277 -0.3575 -0.9876
  109SAPE  C21711282   5.337   1.863   3.675 -0.6406 -0.0419  0.4423
  109SAPE  H17R11283   5.323   1.773   3.737 -2.0077  1.2352  2.0856
  109SAPE  H17S11284   5.263   1.854   3.593  0.1214 -0.8414 -0.1726
  109SAPE  C21811285   5.286   1.977   3.763  0.4081 -0.6424 -0.0257
  109SAPE  H18R11286   5.282   2.078   3.716 -0.1592 -0.2877  0.7520
  109SAPE  H18S11287   5.371   1.977   3.834  0.4903 -2.0684 -0.1008
  109SAPE  C21911288   5.154   1.946   3.829 -0.4704 -0.5475 -0.2233
  109SAPE  H19R11289   5.115   2.040   3.873 -3.1990 -0.8067 -1.8074
  109SAPE  H19S11290   5.154   1.870   3.910  0.3079 -2.4505 -1.9167
  109SAPE  C22011291   5.036   1.908   3.733 -0.3317 -0.6052 -0.1687
  109SAPE  H20R11292   5.035   1.964   3.637 -1.3096 -0.4553 -0.0791
  109SAPE  H20S11293   4.935   1.926   3.777 -1.3904 -3.4152 -1.2153
  109SAPE  H20T11294   5.035   1.799   3.710 -2.2689 -0.4629 -0.9615
  109SAPE   C3311295   5.964   1.683   2.669  0.3723  0.2954 -0.5541
  109SAPE   H3X11296   5.982   1.793   2.665 -0.3925  0.5398  1.3520
  109SAPE   H3Y11297   6.064   1.638   2.653  1.2603  1.1888  1.9811
  109SAPE   C3411298   5.931   1.659   2.817 -0.1281  0.3753 -0.0060
  109SAPE   H4X11299   5.947   1.552   2.841 -1.1437  0.4613  1.1821
  109SAPE   H4Y11300   5.823   1.680   2.835 -0.2973 -0.5088  0.0587
  109SAPE   C3511301   6.017   1.747   2.918 -0.0808 -0.3422 -0.1387
  109SAPE   H5X11302   5.980   1.851   2.911 -1.3531 -0.4840  2.8126
  109SAPE   H5Y11303   6.124   1.746   2.889  0.3670  0.6411  1.3782
  109SAPE   C3611304   6.009   1.692   3.063  0.4101  0.5374 -0.1122
  109SAPE   H6X11305   6.043   1.587   3.052  0.6062  0.3977  1.5629
  109SAPE   H6Y11306   5.904   1.693   3.099  1.0696 -0.1546  1.9788
  109SAPE   C3711307   6.085   1.778   3.166 -0.0942  0.0382  0.1459
  109SAPE   H7X11308   6.057   1.882   3.139 -0.4293 -0.1179 -0.1190
  109SAPE   H7Y11309   6.191   1.753   3.147 -0.4109 -1.7568  0.5549
  109SAPE   C3811310   6.046   1.758   3.314 -0.0091 -0.1392  0.1237
  109SAPE   H8X11311   6.133   1.786   3.376  0.5101 -0.7298 -0.3186
  109SAPE   H8Y11312   6.026   1.651   3.336  1.8219 -0.1645  1.8870
  109SAPE   C3911313   5.930   1.854   3.359 -0.3666  0.7358 -0.1319
  109SAPE   H9X11314   5.845   1.865   3.290 -0.5444 -1.4933 -0.3618
  109SAPE   H9Y11315   5.973   1.956   3.363 -1.1008  1.1017 -1.3862
  109SAPE  C31011316   5.861   1.810   3.498 -0.8635 -0.3251  0.4941
  109SAPE  H10X11317   5.810   1.713   3.480 -1.1597 -0.3687  1.5058
  109SAPE  H10Y11318   5.783   1.888   3.509  1.1454  2.1356 -1.2683
  109SAPE  C31111319   5.958   1.812   3.622 -0.5255  1.0568  0.2521
  109SAPE  H11X11320   5.989   1.917   3.642  2.8783  0.6487 -1.9371
  109SAPE  H11Y11321   6.055   1.762   3.602 -0.2256 -0.3433  4.4026
  109SAPE  C31211322   5.900   1.737   3.746 -0.2850 -0.3384  0.4875
  109SAPE  H12X11323   5.795   1.768   3.763 -0.1108  0.6140 -0.0556
  109SAPE  H12Y11324   5.955   1.765   3.838  0.4662 -0.3950  0.0696
  109SAPE  C31311325   5.895   1.585   3.740 -0.1375 -0.2455  0.5151
  109SAPE  H13X11326   5.995   1.538   3.756 -0.0552 -0.6900 -1.1118
  109SAPE  H13Y11327   5.854   1.551   3.642  3.1732 -1.3248 -0.6381
  109SAPE  C31411328   5.815   1.510   3.855 -0.3851  0.0292  0.0685
  109SAPE  H14X11329   5.716   1.558   3.865  1.5791  4.2819  1.3961
  109SAPE  H14Y11330   5.865   1.530   3.953 -0.1371 -0.5716  0.0711
  109SAPE  C31511331   5.817   1.362   3.851  0.2868 -0.0529 -0.5942
  109SAPE  H15X11332   5.749   1.328   3.770  1.3250 -1.6106 -0.8699
  109SAPE  H15Y11333   5.760   1.335   3.943  0.4011 -0.1631 -0.5551
  109SAPE  C31611334   5.948   1.289   3.845 -0.2026 -0.4665 -0.7048
  109SAPE  H16X11335   6.003   1.346   3.922 -1.7116 -1.7392  1.4147
  109SAPE  H16Y11336   6.001   1.310   3.750  0.6001 -0.6614 -0.3034
  109SAPE  C31711337   5.942   1.143   3.879 -0.1036 -0.4181 -0.3733
  109SAPE  H17X11338   5.879   1.121   3.967 -0.8089 -2.8069 -1.4105
  109SAPE  H17Y11339   6.047   1.114   3.900 -0.6618 -2.5362 -0.3539
  109SAPE  C31811340   5.890   1.054   3.769  0.5608 -0.8149  0.2329
  109SAPE  H18X11341   5.955   1.052   3.679 -1.2517  0.6183 -1.2004
  109SAPE  H18Y11342   5.786   1.077   3.738  0.5537  0.4322  1.1220
  109SAPE  H18Z11343   5.900   0.956   3.820 -0.5407  0.1067  2.3060
  110SAPE     N11344   5.720   0.384   1.777 -0.0640 -0.0152 -0.2858
  110SAPE   HN111345   5.812   0.343   1.802  0.3191  0.3425 -1.0832
  110SAPE   HN211346   5.645   0.318   1.749 -2.3775  2.8555 -1.4890
  110SAPE   HN311347   5.733   0.442   1.691 -0.9375 -0.1492 -0.5176
  110SAPE   C1211348   5.677   0.477   1.892  0.3337 -0.7733 -0.7240
  110SAPE  H12A11349   5.650   0.416   1.981  2.0014 -1.6750 -0.7994
  110SAPE  H12B11350   5.584   0.529   1.861  0.2728  0.0585  0.7493
  110SAPE   C1111351   5.792   0.572   1.918  0.3336  0.7475 -0.1568
  110SAPE  H11A11352   5.886   0.524   1.953  0.9571  0.0720 -2.5450
  110SAPE  H11B11353   5.755   0.637   2.000  1.0677 -1.6752  2.2490
  110SAPE     P11354   5.916   0.768   1.806 -0.2183  0.4701  0.3194
  110SAPE   O1311355   5.990   0.745   1.676 -0.2027 -0.4187 -0.4760
  110SAPE   O1411356   5.851   0.899   1.829  0.3378  0.6152 -0.0790
  110SAPE   O1211357   5.813   0.651   1.806 -0.1111  0.2978  0.5734
  110SAPE   O1111358   6.017   0.742   1.924  0.4112 -0.5021  0.3318
  110SAPE    C111359   6.140   0.673   1.907 -0.8820  0.2362 -0.3834
  110SAPE    HA11360   6.118   0.567   1.881 -1.8746  0.2934  0.1588
  110SAPE    HB11361   6.205   0.724   1.832  1.0499 -0.5914  0.6682
  110SAPE    C211362   6.221   0.673   2.034 -0.0699 -0.0868 -0.0812
  110SAPE    HS11363   6.181   0.621   2.123 -0.2674  1.1525  0.5832
  110SAPE   O2111364   6.252   0.807   2.058  0.4033  0.4785 -0.1369
  110SAPE   C2111365   6.266   0.843   2.189 -0.2194  0.1952 -0.1235
  110SAPE   O2211366   6.218   0.788   2.286 -0.3495  0.5123 -0.0653
  110SAPE   C2211367   6.342   0.974   2.203 -0.1852  0.5357 -0.1133
  110SAPE   H2R11368   6.357   1.019   2.103  1.2354 -0.7620 -0.5140
  110SAPE   H2S11369   6.277   1.046   2.257  0.7108  1.1194  0.2172
  110SAPE    C311370   6.360   0.591   2.003 -0.5087  0.1188 -0.0288
  110SAPE    HX11371   6.330   0.484   2.006 -1.5676  0.3769 -0.8314
  110SAPE    HY11372   6.389   0.615   1.898 -2.0172 -1.2481 -0.8092
  110SAPE   O3111373   6.465   0.617   2.107  0.3121  0.3500  0.1434
  110SAPE   C3111374   6.562   0.527   2.096 -0.1569  0.3974 -0.2558
  110SAPE   O3211375   6.572   0.442   2.006  0.4928 -0.3407 -0.1238
  110SAPE   C3211376   6.667   0.553   2.201  0.0437  0.2882  0.8610
  110SAPE   H2X11377   6.635   0.641   2.261 -1.7434 -0.4822  1.0952
  110SAPE   H2Y11378   6.764   0.569   2.149  0.1692 -0.8825  0.7029
  110SAPE   C2311379   6.489   0.957   2.268 -0.1413 -0.3502 -0.3985
  110SAPE   H3R11380   6.548   0.908   2.188  0.4373  0.6006 -0.5671
  110SAPE   H3S11381   6.485   0.890   2.357 -4.4769  0.4008  0.1930
  110SAPE   C2411382   6.564   1.084   2.330 -0.4595 -0.4663 -0.2523
  110SAPE   H4R11383   6.588   1.139   2.236  0.4737  0.1846  0.3543
  110SAPE   H4S11384   6.664   1.067   2.375 -0.6702 -0.9028  0.0584
  110SAPE   C2511385   6.471   1.166   2.428  0.2826  1.0494  0.6619
  110SAPE   H5R11386   6.448   1.264   2.382 -1.4995  0.4978  0.3039
  110SAPE   C2611387   6.409   1.130   2.541  0.9853 -0.3851  0.1153
  110SAPE   H6R11388   6.331   1.198   2.579 -1.2677 -2.0406 -1.2719
  110SAPE   C2711389   6.446   1.005   2.624 -0.2200 -0.2604  0.1420
  110SAPE   H7R11390   6.474   1.038   2.726 -0.6015  0.3163  0.0626
  110SAPE   H7S11391   6.544   0.963   2.591 -0.7043  0.3375 -2.2123
  110SAPE   C2811392   6.338   0.902   2.618  0.1980 -0.3240 -0.4715
  110SAPE   H8R11393   6.329   0.861   2.516 -1.1759 -2.1678  0.3463
  110SAPE   C2911394   6.251   0.868   2.715 -0.5081  0.1758 -0.5526
  110SAPE   H9R11395   6.173   0.794   2.691 -0.5740  0.6364 -1.8248
  110SAPE  C21011396   6.260   0.906   2.858 -0.5713  0.1150 -0.1076
  110SAPE  H10R11397   6.263   1.016   2.869 -0.5037  0.1039 -0.0132
  110SAPE  H10S11398   6.355   0.869   2.901 -0.7396 -1.7438 -1.2145
  110SAPE  C21111399   6.144   0.868   2.948  0.1514  0.8213 -0.7963
  110SAPE  H11R11400   6.053   0.843   2.893  0.2327 -1.4427  0.0009
  110SAPE  C21211401   6.145   0.867   3.081 -0.1438  0.4296 -0.5465
  110SAPE  H12R11402   6.057   0.836   3.139  1.5179 -2.7410  0.5831
  110SAPE  C21311403   6.264   0.898   3.164 -0.1776 -0.4569 -0.0916
  110SAPE  H13R11404   6.361   0.902   3.112  1.9171  0.2495  3.5018
  110SAPE  H13S11405   6.288   0.821   3.241 -0.3602 -0.3911  0.0322
  110SAPE  C21411406   6.231   1.028   3.239 -0.3092 -0.0795  0.4771
  110SAPE  H14R11407   6.240   1.121   3.181 -0.8928 -0.4730 -0.2588
  110SAPE  C21511408   6.215   1.046   3.373 -0.5476 -1.1637 -0.0785
  110SAPE  H15R11409   6.186   1.148   3.403 -1.0492 -1.7082  1.3781
  110SAPE  C21611410   6.189   0.946   3.487 -0.2145 -0.3850 -0.1445
  110SAPE  H16R11411   6.186   0.844   3.443 -1.9280 -0.6498  0.5019
  110SAPE  H16S11412   6.087   0.959   3.528  0.8049 -0.3304  2.6033
  110SAPE  C21711413   6.294   0.958   3.594 -0.4007  0.1571  0.2038
  110SAPE  H17R11414   6.395   0.932   3.557 -0.1853  1.8342 -0.4769
  110SAPE  H17S11415   6.274   0.894   3.683  0.0138  1.0893  0.9775
  110SAPE  C21811416   6.305   1.102   3.651 -0.0407  0.5651  0.6686
  110SAPE  H18R11417   6.204   1.133   3.684 -0.2718 -0.0658  0.5637
  110SAPE  H18S11418   6.345   1.165   3.568 -0.0507 -2.6620 -2.0065
  110SAPE  C21911419   6.414   1.118   3.758  0.6361 -1.3459 -0.1090
  110SAPE  H19R11420   6.371   1.101   3.859 -0.0551  1.1978  0.0985
  110SAPE  H19S11421   6.447   1.223   3.775  0.2335 -0.9668 -1.5243
  110SAPE  C22011422   6.543   1.038   3.743 -0.9206  0.7319  0.3675
  110SAPE  H20R11423   6.605   1.082   3.824 -1.9796 -0.6940  2.0161
  110SAPE  H20S11424   6.590   1.058   3.644  0.9856 -1.7657  0.6900
  110SAPE  H20T11425   6.546   0.928   3.747  0.9879  0.4617 -3.5287
  110SAPE   C3311426   6.692   0.437   2.299 -0.5076 -0.6314 -0.3320
  110SAPE   H3X11427   6.798   0.445   2.331 -0.4547 -1.3068 -0.3333
  110SAPE   H3Y11428   6.685   0.342   2.242 -1.4470 -1.7025  1.4726
  110SAPE   C3411429   6.588   0.437   2.418  0.7406 -0.1003 -0.7499
  110SAPE   H4X11430   6.587   0.336   2.465  0.9973  0.3980  0.3413
  110SAPE   H4Y11431   6.486   0.455   2.377  0.5148 -1.7622 -1.0162
  110SAPE   C3511432   6.607   0.562   2.514 -0.3133 -0.4254 -0.5068
  110SAPE   H5X11433   6.592   0.664   2.471  1.5009 -0.0424 -0.2932
  110SAPE   H5Y11434   6.714   0.557   2.542 -0.8048  2.0183  2.3473
  110SAPE   C3611435   6.542   0.533   2.652 -0.7977 -1.2238 -0.7416
  110SAPE   H6X11436   6.569   0.431   2.687  3.1694  0.3273  1.2516
  110SAPE   H6Y11437   6.435   0.564   2.663 -0.9657 -0.7700 -3.1019
  110SAPE   C3711438   6.613   0.618   2.764  0.1688 -0.3057  0.7596
  110SAPE   H7X11439   6.635   0.726   2.749  0.0982 -0.1047  2.0393
  110SAPE   H7Y11440   6.712   0.570   2.777  0.7260 -0.0399 -1.8867
  110SAPE   C3811441   6.543   0.610   2.904  0.4022 -0.2900 -0.2616
  110SAPE   H8X11442   6.519   0.504   2.923 -0.2554 -0.4512 -1.8382
  110SAPE   H8Y11443   6.451   0.672   2.892  0.9424  0.2711 -1.8040
  110SAPE   C3911444   6.622   0.665   3.027  0.0683  0.0814 -0.4702
  110SAPE   H9X11445   6.616   0.775   3.014  1.8277  0.2681 -0.0240
  110SAPE   H9Y11446   6.726   0.626   3.024 -0.2734 -1.0991  1.2812
  110SAPE  C31011447   6.551   0.620   3.158 -0.1001 -0.0754  0.1924
  110SAPE  H10X11448   6.443   0.622   3.133 -0.2833 -0.9639  0.8691
  110SAPE  H10Y11449   6.568   0.691   3.242  0.3553 -0.9581  0.8543
  110SAPE  C31111450   6.596   0.477   3.198 -0.1502 -0.4470  0.2174
  110SAPE  H11X11451   6.707   0.480   3.206 -0.2020 -0.9326  1.4515
  110SAPE  H11Y11452   6.559   0.394   3.134 -0.7382 -0.0633  0.0557
  110SAPE  C31211453   6.554   0.435   3.331 -0.3584  0.0136 -0.2246
  110SAPE  H12X11454   6.443   0.437   3.322 -0.5363 -0.9379  1.3575
  110SAPE  H12Y11455   6.591   0.510   3.404  0.2832 -1.0521  0.5650
  110SAPE  C31311456   6.607   0.289   3.369  0.0980 -0.3037 -0.4164
  110SAPE  H13X11457   6.709   0.287   3.326 -0.2748  2.7012 -1.7055
  110SAPE  H13Y11458   6.539   0.219   3.316 -1.9432  1.1979  0.0600
  110SAPE  C31411459   6.604   0.258   3.515 -0.7446  0.7056 -0.4181
  110SAPE  H14X11460   6.643   0.156   3.534  0.8336  0.9226 -2.2368
  110SAPE  H14Y11461   6.497   0.252   3.547  0.0103 -0.8347  2.1826
  110SAPE  C31511462   6.666   0.368   3.608  0.5991  0.6329  0.6272
  110SAPE  H15X11463   6.609   0.463   3.597  0.2373  0.3205 -0.3806
  110SAPE  H15Y11464   6.775   0.383   3.593  0.5939 -1.0474 -1.8761
  110SAPE  C31611465   6.650   0.329   3.758  0.5472  0.6006 -0.6899
  110SAPE  H16X11466   6.684   0.227   3.786 -3.4065 -0.3175  1.5272
  110SAPE  H16Y11467   6.540   0.323   3.776  0.8858 -1.1325  1.2478
  110SAPE  C31711468   6.710   0.430   3.856 -0.6363  0.0216  0.3490
  110SAPE  H17X11469   6.679   0.399   3.957  1.4478 -0.8609  0.7706
  110SAPE  H17Y11470   6.675   0.535   3.845 -0.6542  0.0777  0.9157
  110SAPE  C31811471   6.861   0.428   3.840 -0.7895  0.0894 -0.0968
  110SAPE  H18X11472   6.897   0.324   3.855 -1.1948  0.1374  1.3747
  110SAPE  H18Y11473   6.915   0.500   3.905  0.3699  0.8944 -1.8786
  110SAPE  H18Z11474   6.897   0.454   3.738 -3.8705  1.5594 -0.9328
  111SAPE     N11475   4.146   6.870   2.013  0.5086 -0.2114  0.1774
  111SAPE   HN111476   4.072   6.816   1.963  0.3649 -0.8002  0.9938
  111SAPE   HN211477   4.116   6.968   2.028  3.0324  0.3464  2.3869
  111SAPE   HN311478   4.234   6.864   1.959 -0.1180  3.0629 -1.4398
  111SAPE   C1211479   4.166   6.782   2.131 -0.2017 -0.1586 -0.1353
  111SAPE  H12A11480   4.073   6.762   2.189 -0.2491 -1.4630 -0.6194
  111SAPE  H12B11481   4.246   6.823   2.194 -1.0589  0.8779  0.3051
  111SAPE   C1111482   4.215   6.641   2.090 -0.7910 -0.4165 -0.1057
  111SAPE  H11A11483   4.141   6.562   2.064  0.0093 -0.5547 -2.1634
  111SAPE  H11B11484   4.268   6.594   2.175 -0.2204  0.6924  0.1713
  111SAPE     P11485   4.449   6.673   1.973 -0.1493  0.0153 -0.3612
  111SAPE   O1311486   4.508   6.607   1.852  0.0889 -0.1903  0.4860
  111SAPE   O1411487   4.466   6.821   1.998  0.2291 -0.5282  0.0751
  111SAPE   O1211488   4.303   6.639   1.976  0.4932 -0.5277 -0.4907
  111SAPE   O1111489   4.509   6.593   2.099 -0.1242 -0.2799 -0.0851
  111SAPE    C111490   4.512   6.455   2.096 -0.0502 -0.1593  0.0435
  111SAPE    HA11491   4.409   6.414   2.090 -0.8733  1.5991  1.2228
  111SAPE    HB11492   4.576   6.420   2.012  3.5540  3.1544  1.1098
  111SAPE    C211493   4.571   6.387   2.227  0.7165  0.4655 -0.2197
  111SAPE    HS11494   4.511   6.407   2.318  1.2309  1.4294 -0.0769
  111SAPE   O2111495   4.706   6.421   2.229 -0.9512 -0.0194  0.0848
  111SAPE   C2111496   4.770   6.461   2.338  0.4576  0.7806 -0.2046
  111SAPE   O2211497   4.725   6.448   2.454 -0.7868 -0.0127 -0.1975
  111SAPE   C2211498   4.904   6.517   2.319  0.3993 -0.0790  0.0806
  111SAPE   H2R11499   4.956   6.526   2.417  1.7376  0.0313 -0.6135
  111SAPE   H2S11500   4.957   6.435   2.266  0.8969 -0.1609  0.6988
  111SAPE    C311501   4.570   6.233   2.211 -0.9391  0.8727 -0.1632
  111SAPE    HX11502   4.623   6.204   2.117 -0.5143  0.9352  0.0534
  111SAPE    HY11503   4.471   6.185   2.197 -0.7027 -0.5110  2.4418
  111SAPE   O3111504   4.638   6.162   2.318  0.3127 -0.0449 -0.7942
  111SAPE   C3111505   4.557   6.141   2.429 -0.2285  0.2246  0.3213
  111SAPE   O3211506   4.435   6.154   2.438 -1.2655  0.0331 -0.0981
  111SAPE   C3211507   4.647   6.097   2.543 -0.0783  0.1577  0.3477
  111SAPE   H2X11508   4.735   6.164   2.542 -0.7476  1.0714 -1.1862
  111SAPE   H2Y11509   4.689   5.999   2.513 -1.5848  0.1769 -2.1021
  111SAPE   C2311510   4.909   6.652   2.246 -0.2958  0.1539 -0.2190
  111SAPE   H3R11511   4.856   6.661   2.149  1.0984  0.6912 -0.9610
  111SAPE   H3S11512   5.009   6.673   2.203 -0.0204 -1.9458 -0.7306
  111SAPE   C2411513   4.872   6.766   2.347  0.1723  0.6281  0.4020
  111SAPE   H4R11514   4.784   6.733   2.406  0.4521 -1.1077 -0.0865
  111SAPE   H4S11515   4.846   6.857   2.290 -0.2979 -0.8229 -1.8213
  111SAPE   C2511516   4.993   6.801   2.434  0.6183  0.1853 -0.0265
  111SAPE   H5R11517   5.081   6.829   2.376 -0.4732  2.2217 -0.7865
  111SAPE   C2611518   4.996   6.804   2.567  0.2913  0.4611 -0.0726
  111SAPE   H6R11519   5.091   6.843   2.608 -0.8183  1.7055  1.4811
  111SAPE   C2711520   4.872   6.786   2.658  0.1872 -0.8618  0.1227
  111SAPE   H7R11521   4.777   6.796   2.600  0.3379  1.0934  0.1573
  111SAPE   H7S11522   4.874   6.859   2.741 -0.9302 -0.1594 -0.4325
  111SAPE   C2811523   4.869   6.653   2.721  0.0945 -0.5846 -0.1144
  111SAPE   H8R11524   4.889   6.573   2.649  1.1013  0.7163 -1.3580
  111SAPE   C2911525   4.835   6.633   2.851  0.1370  1.0850  0.3561
  111SAPE   H9R11526   4.837   6.530   2.889 -1.1587  1.0965  0.4994
  111SAPE  C21011527   4.793   6.731   2.955  1.1109 -0.0828 -0.3421
  111SAPE  H10R11528   4.709   6.793   2.917  0.1359 -0.1863  1.5293
  111SAPE  H10S11529   4.874   6.802   2.980  1.9484  0.7666 -4.6640
  111SAPE  C21111530   4.746   6.666   3.086 -0.1030  0.1013 -0.5750
  111SAPE  H11R11531   4.753   6.557   3.102 -0.7740 -0.0337 -1.1321
  111SAPE  C21211532   4.720   6.739   3.192  0.1735 -0.1310 -0.0374
  111SAPE  H12R11533   4.686   6.688   3.283  1.5263 -1.8022 -0.4126
  111SAPE  C21311534   4.708   6.886   3.199 -0.5180  0.9242 -0.4269
  111SAPE  H13R11535   4.601   6.905   3.174 -0.6311  1.7127  0.5761
  111SAPE  H13S11536   4.765   6.938   3.119  0.9056  2.2238  1.3356
  111SAPE  C21411537   4.751   6.933   3.334  0.1212 -0.5524 -0.9702
  111SAPE  H14R11538   4.859   6.952   3.344 -0.4147  2.4733  0.2879
  111SAPE  C21511539   4.678   6.982   3.434 -0.0487 -0.4452  0.6300
  111SAPE  H15R11540   4.724   7.014   3.528 -1.6764  1.6573  0.7909
  111SAPE  C21611541   4.523   6.988   3.442  0.1390 -0.3172 -0.1728
  111SAPE  H16R11542   4.487   6.947   3.345  0.1976 -0.2615 -0.2181
  111SAPE  H16S11543   4.489   7.091   3.463 -1.6810 -0.6667 -1.1668
  111SAPE  C21711544   4.482   6.896   3.561  0.0925 -0.7231  0.7069
  111SAPE  H17R11545   4.538   6.921   3.653  1.2303 -1.0871  0.1264
  111SAPE  H17S11546   4.513   6.791   3.543  4.3979  0.5305 -0.3462
  111SAPE  C21811547   4.327   6.883   3.587 -0.8985  0.4200 -0.2725
  111SAPE  H18R11548   4.279   6.834   3.500  0.2270  1.5391 -1.5514
  111SAPE  H18S11549   4.281   6.983   3.602 -0.8612  0.0762  2.7803
  111SAPE  C21911550   4.302   6.790   3.705 -0.3435  0.6278  0.2636
  111SAPE  H19R11551   4.362   6.836   3.786 -0.2220 -0.7607  1.0045
  111SAPE  H19S11552   4.333   6.684   3.691 -0.9648  0.6221 -1.2904
  111SAPE  C22011553   4.159   6.779   3.764  0.6861 -0.2486 -0.2426
  111SAPE  H20R11554   4.167   6.705   3.846  0.1478  0.2829  0.2993
  111SAPE  H20S11555   4.095   6.744   3.680 -3.2680  1.5959  1.7109
  111SAPE  H20T11556   4.115   6.876   3.798 -1.2772 -0.8175 -1.0135
  111SAPE   C3311557   4.588   6.102   2.688  0.6922  0.1773 -0.2132
  111SAPE   H3X11558   4.520   6.015   2.703  1.6878 -0.4174  0.9911
  111SAPE   H3Y11559   4.515   6.184   2.704  0.5219 -0.3220  1.8481
  111SAPE   C3411560   4.694   6.090   2.794  0.7004  0.1910 -0.4605
  111SAPE   H4X11561   4.771   6.167   2.774  2.2529 -1.3025 -0.4442
  111SAPE   H4Y11562   4.749   5.995   2.778  0.8480  0.3140 -0.6735
  111SAPE   C3511563   4.643   6.095   2.939  0.1118 -0.0895 -0.3748
  111SAPE   H5X11564   4.573   6.010   2.950 -0.4439  0.6125  1.9725
  111SAPE   H5Y11565   4.574   6.182   2.940  0.3285  0.0815 -0.1019
  111SAPE   C3611566   4.758   6.114   3.043  0.0071  0.5523  0.2551
  111SAPE   H6X11567   4.800   6.217   3.035  1.4284  0.2659  2.8916
  111SAPE   H6Y11568   4.832   6.043   3.000 -1.3143 -0.5829 -0.1949
  111SAPE   C3711569   4.711   6.091   3.192 -0.2519  0.6078 -0.1063
  111SAPE   H7X11570   4.798   6.111   3.258 -0.3890 -0.9937  0.5911
  111SAPE   H7Y11571   4.686   5.983   3.197  1.0182  0.2149 -1.3917
  111SAPE   C3811572   4.594   6.161   3.242 -0.1195 -0.0517  0.1700
  111SAPE   H8X11573   4.504   6.141   3.180 -1.1924 -2.3259  2.2449
  111SAPE   H8Y11574   4.608   6.269   3.263 -0.5356  0.1190 -0.4161
  111SAPE   C3911575   4.550   6.105   3.377 -0.3959 -0.2862  0.1014
  111SAPE   H9X11576   4.644   6.108   3.435 -0.3280  1.7000 -0.0482
  111SAPE   H9Y11577   4.514   6.000   3.369 -0.2744 -0.3432  0.2890
  111SAPE  C31011578   4.431   6.176   3.448 -0.4815 -0.3052 -0.3776
  111SAPE  H10X11579   4.335   6.167   3.391  0.7113  1.7285 -2.9294
  111SAPE  H10Y11580   4.467   6.281   3.450  0.2626 -0.5643  0.1657
  111SAPE  C31111581   4.428   6.132   3.593  0.3561 -0.0761  0.0582
  111SAPE  H11X11582   4.415   6.022   3.588 -1.1112  0.1374 -1.3210
  111SAPE  H11Y11583   4.337   6.170   3.645 -0.6255 -0.7509 -1.1289
  111SAPE  C31211584   4.557   6.164   3.677  0.2840 -0.2825 -0.1659
  111SAPE  H12X11585   4.583   6.271   3.684  0.8518 -0.3191 -1.4890
  111SAPE  H12Y11586   4.654   6.134   3.632  1.4146 -0.5635  2.2624
  111SAPE  C31311587   4.553   6.101   3.821 -0.4418 -0.5748  0.2118
  111SAPE  H13X11588   4.454   6.112   3.871 -0.0840  0.8701  0.6477
  111SAPE  H13Y11589   4.632   6.152   3.879  0.7460 -0.9027 -1.0787
  111SAPE  C31411590   4.585   5.953   3.814 -0.1883 -0.8421  0.6447
  111SAPE  H14X11591   4.695   5.940   3.805  0.3361  2.3078  1.2966
  111SAPE  H14Y11592   4.543   5.927   3.714 -2.4081 -0.3134  1.3917
  111SAPE  C31511593   4.530   5.863   3.920 -1.2667  0.1604 -0.0852
  111SAPE  H15X11594   4.558   5.759   3.895  0.9469  0.8408 -0.6343
  111SAPE  H15Y11595   4.419   5.860   3.924 -1.2949 -0.9280 -0.9888
  111SAPE  C31611596   4.578   5.890   4.062 -0.0052  0.3123 -0.3085
  111SAPE  H16X11597   4.539   5.990   4.089  0.3465  0.7281 -1.2898
  111SAPE  H16Y11598   4.687   5.899   4.079 -0.1324  0.9275  0.1788
  111SAPE  C31711599   4.508   5.796   4.149  0.0754 -1.2666 -0.7159
  111SAPE  H17X11600   4.544   5.693   4.128 -2.3415 -1.8984 -2.2073
  111SAPE  H17Y11601   4.400   5.785   4.125  0.0556  1.1907 -2.1546
  111SAPE  C31811602   4.529   5.825   4.300  0.7495  0.4737  0.0598
  111SAPE  H18X11603   4.520   5.935   4.310  0.3770  0.5994 -1.3787
  111SAPE  H18Y11604   4.632   5.794   4.325  1.4624 -0.6324 -3.6489
  111SAPE  H18Z11605   4.454   5.782   4.370 -0.5903  0.9308 -1.0318
  112SAPE     N11606   0.971   5.616   2.066 -1.0290  0.4792  1.0273
  112SAPE   HN111607   1.011   5.621   2.161 -2.9945 -2.6178  2.1539
  112SAPE   HN211608   1.017   5.686   2.004 -1.2431 -0.1395  0.1397
  112SAPE   HN311609   0.868   5.633   2.071 -1.3398 -0.3843 -1.2274
  112SAPE   C1211610   1.005   5.482   2.010 -0.7787  0.1661  0.1201
  112SAPE  H12A11611   1.096   5.502   1.950  0.6639  2.9501  2.9709
  112SAPE  H12B11612   0.923   5.434   1.953 -0.3627 -1.2978  0.7048
  112SAPE   C1111613   1.051   5.377   2.120 -0.0375 -0.1588  0.4874
  112SAPE  H11A11614   1.073   5.285   2.061 -1.8884  0.1778 -0.8254
  112SAPE  H11B11615   0.968   5.343   2.185 -0.6116 -0.3424 -0.3302
  112SAPE     P11616   1.294   5.362   2.233  0.0049 -0.2094  0.0060
  112SAPE   O1311617   1.331   5.256   2.134 -0.5165 -0.2180 -0.0594
  112SAPE   O1411618   1.395   5.460   2.264 -0.3412  0.1630  0.0846
  112SAPE   O1211619   1.158   5.432   2.197  0.1776  0.1247  0.1310
  112SAPE   O1111620   1.275   5.297   2.385 -0.3776 -0.2999 -0.8291
  112SAPE    C111621   1.156   5.320   2.458  0.0743  0.7918  0.3015
  112SAPE    HA11622   1.094   5.408   2.431  2.0741  2.3171  0.4394
  112SAPE    HB11623   1.097   5.225   2.454 -0.7857  1.2340  1.6987
  112SAPE    C211624   1.172   5.342   2.610  0.5474 -0.4164  0.1395
  112SAPE    HS11625   1.228   5.437   2.601  0.2834 -0.2532  0.2216
  112SAPE   O2111626   1.255   5.239   2.670 -0.0370 -0.3329 -0.2760
  112SAPE   C2111627   1.335   5.288   2.772 -0.2824  0.6085 -0.0131
  112SAPE   O2211628   1.333   5.403   2.809 -0.0758  0.6387 -0.1294
  112SAPE   C2211629   1.421   5.173   2.828  0.7222 -0.0893  0.2559
  112SAPE   H2R11630   1.364   5.081   2.800 -0.9392  0.5415  1.3715
  112SAPE   H2S11631   1.523   5.185   2.786  1.0177  0.1762  1.0503
  112SAPE    C311632   1.034   5.357   2.681 -0.3326  0.9831  0.3478
  112SAPE    HX11633   0.974   5.263   2.678  0.6621  0.2431  2.0745
  112SAPE    HY11634   0.981   5.436   2.624 -0.2382  1.4037  0.8332
  112SAPE   O3111635   1.030   5.388   2.817  0.2911 -0.4837 -0.2413
  112SAPE   C3111636   1.045   5.515   2.840 -0.3598 -0.6515  0.3231
  112SAPE   O3211637   1.093   5.591   2.758  0.4578  0.2587 -0.2168
  112SAPE   C3211638   1.009   5.543   2.985  1.0405 -0.4137  0.1588
  112SAPE   H2X11639   1.098   5.528   3.051  1.2772  2.7795  0.7206
  112SAPE   H2Y11640   0.937   5.468   3.023 -0.1932 -1.0488 -3.1620
  112SAPE   C2311641   1.428   5.166   2.981 -1.1706  0.3193 -0.2194
  112SAPE   H3R11642   1.324   5.167   3.019 -0.5240  3.7066  1.8594
  112SAPE   H3S11643   1.490   5.248   3.023 -1.3767 -0.2523  1.2454
  112SAPE   C2411644   1.490   5.037   3.034  0.6569  0.2206 -0.2316
  112SAPE   H4R11645   1.521   5.045   3.141  0.4023 -3.0073  0.1681
  112SAPE   H4S11646   1.587   5.035   2.980  0.2909  1.1387 -0.9477
  112SAPE   C2511647   1.410   4.913   2.996  0.3891  0.5147 -0.2011
  112SAPE   H5R11648   1.388   4.908   2.889  0.6854  0.3513 -0.2553
  112SAPE   C2611649   1.356   4.828   3.083  0.1975 -0.2619  0.4573
  112SAPE   H6R11650   1.292   4.743   3.055  0.3812 -0.6573  1.1902
  112SAPE   C2711651   1.365   4.830   3.233  0.2657 -0.4835  0.0630
  112SAPE   H7R11652   1.429   4.908   3.279  2.1408 -0.9243 -1.6840
  112SAPE   H7S11653   1.400   4.733   3.274 -1.6530 -0.7960  1.0865
  112SAPE   C2811654   1.231   4.857   3.292 -0.0414 -0.0426  0.0867
  112SAPE   H8R11655   1.181   4.945   3.247 -0.1457 -1.0272 -1.8480
  112SAPE   C2911656   1.177   4.817   3.410 -1.0793 -0.2781 -0.8832
  112SAPE   H9R11657   1.073   4.846   3.432 -0.6672  1.5512 -1.1218
  112SAPE  C21011658   1.247   4.721   3.504 -0.6394 -1.1292 -0.3478
  112SAPE  H10R11659   1.226   4.751   3.609  3.7066 -0.0873  0.4209
  112SAPE  H10S11660   1.357   4.738   3.500 -0.9880  1.5132 -0.2950
  112SAPE  C21111661   1.228   4.571   3.484 -0.2405  0.7000 -0.3420
  112SAPE  H11R11662   1.222   4.536   3.380 -1.7636 -4.5625  1.2112
  112SAPE  C21211663   1.206   4.479   3.582 -0.0595  0.1476 -0.2218
  112SAPE  H12R11664   1.194   4.376   3.547  0.5726  0.5828 -1.7840
  112SAPE  C21311665   1.196   4.492   3.727  0.2508 -0.0558  0.4194
  112SAPE  H13R11666   1.258   4.581   3.751 -0.0500  0.0681  0.7497
  112SAPE  H13S11667   1.250   4.417   3.789 -1.2093 -0.0828  1.7086
  112SAPE  C21411668   1.058   4.514   3.787 -0.3954  0.2799  0.2282
  112SAPE  H14R11669   0.970   4.522   3.722  1.1061  1.2434 -1.7636
  112SAPE  C21511670   1.037   4.551   3.918  0.5498 -0.1709 -0.0725
  112SAPE  H15R11671   0.933   4.561   3.953  0.8783  0.6108  0.6911
  112SAPE  C21611672   1.135   4.557   4.029  0.4939 -0.2717  0.2600
  112SAPE  H16R11673   1.163   4.663   4.044  1.8685 -0.2485 -2.0011
  112SAPE  H16S11674   1.230   4.508   3.998  0.9590  0.6847  0.1479
  112SAPE  C21711675   1.076   4.487   4.156 -0.4688 -0.0155  0.7159
  112SAPE  H17R11676   0.990   4.546   4.193 -0.0487  1.0251  0.0684
  112SAPE  H17S11677   1.160   4.483   4.228 -0.8258  0.0492  1.1407
  112SAPE  C21811678   1.032   4.343   4.146  0.8050 -0.4507 -0.4757
  112SAPE  H18R11679   0.931   4.356   4.103  0.6277  2.4639  0.6101
  112SAPE  H18S11680   1.019   4.310   4.251 -1.1531  0.0053 -0.5424
  112SAPE  C21911681   1.111   4.241   4.063 -0.0602  0.0690 -0.5693
  112SAPE  H19R11682   1.130   4.285   3.963  2.4044  2.1701  0.7244
  112SAPE  H19S11683   1.054   4.145   4.060 -0.5212  0.3334 -0.4106
  112SAPE  C22011684   1.250   4.224   4.124 -0.8614 -0.0240 -0.4302
  112SAPE  H20R11685   1.319   4.155   4.072 -0.2441  1.4185 -1.5996
  112SAPE  H20S11686   1.250   4.200   4.232  1.3922 -0.4241 -0.4728
  112SAPE  H20T11687   1.293   4.327   4.128  1.7237 -0.9960 -0.9701
  112SAPE   C3311688   0.948   5.686   2.989 -0.4436  0.1218  0.3851
  112SAPE   H3X11689   0.857   5.683   2.927 -0.0962  0.6766 -0.1588
  112SAPE   H3Y11690   1.019   5.754   2.937 -1.2526  1.3518  0.8673
  112SAPE   C3411691   0.903   5.713   3.138 -0.1128 -0.2904  0.6581
  112SAPE   H4X11692   0.862   5.626   3.193 -0.5422  0.4808  1.5900
  112SAPE   H4Y11693   0.830   5.797   3.140  0.3157  0.1048  0.0709
  112SAPE   C3511694   1.022   5.750   3.224  0.0305 -0.8785 -0.2798
  112SAPE   H5X11695   1.097   5.814   3.172 -0.1736  0.6899  1.2844
  112SAPE   H5Y11696   1.075   5.655   3.244 -1.4867 -1.3316  1.8362
  112SAPE   C3611697   0.979   5.822   3.353  0.2035 -0.2134 -0.1449
  112SAPE   H6X11698   0.905   5.753   3.398 -0.2049  0.7092  0.6302
  112SAPE   H6Y11699   0.913   5.911   3.342 -2.3245 -1.6681  2.0878
  112SAPE   C3711700   1.084   5.846   3.458 -0.1646 -0.2813 -0.7899
  112SAPE   H7X11701   1.168   5.896   3.406  0.7476 -1.8861 -0.9255
  112SAPE   H7Y11702   1.126   5.749   3.493  0.1932 -0.4846 -1.7750
  112SAPE   C3811703   1.040   5.932   3.583  0.0755 -0.6648 -0.3036
  112SAPE   H8X11704   0.954   5.891   3.640  0.1642  1.0068  1.1171
  112SAPE   H8Y11705   1.001   6.032   3.555  0.5180  0.3942  2.5719
  112SAPE   C3911706   1.165   5.966   3.668  0.0925  0.4262  0.0443
  112SAPE   H9X11707   1.246   6.004   3.602 -0.6096  0.2111 -0.9690
  112SAPE   H9Y11708   1.199   5.869   3.710 -1.0644 -0.0257 -0.0373
  112SAPE  C31011709   1.141   6.067   3.785  0.0013 -0.4627 -0.3230
  112SAPE  H10X11710   1.064   6.030   3.857 -0.2030  1.1537  0.3355
  112SAPE  H10Y11711   1.096   6.159   3.742  1.7754  0.9076  0.6008
  112SAPE  C31111712   1.264   6.091   3.867  0.4977 -0.3305  0.2518
  112SAPE  H11X11713   1.332   6.149   3.800  1.5706 -1.3612  0.4127
  112SAPE  H11Y11714   1.317   5.994   3.874 -0.7935 -0.9599  1.5502
  112SAPE  C31211715   1.250   6.158   4.001 -0.7087 -0.5399 -0.3420
  112SAPE  H12X11716   1.197   6.101   4.080  0.7628 -1.3907  0.0846
  112SAPE  H12Y11717   1.205   6.258   3.986  1.0660  0.4841  0.7805
  112SAPE  C31311718   1.385   6.182   4.066 -0.7312 -0.9309  0.7534
  112SAPE  H13X11719   1.436   6.084   4.081 -0.4091 -0.8486  0.2062
  112SAPE  H13Y11720   1.372   6.222   4.169 -1.5725  0.1989  0.2332
  112SAPE  C31411721   1.483   6.274   3.989  0.3716  0.4176  0.5950
  112SAPE  H14X11722   1.427   6.364   3.956 -0.0294 -0.6221 -1.8063
  112SAPE  H14Y11723   1.501   6.219   3.894  0.0646  2.5837 -0.7901
  112SAPE  C31511724   1.621   6.306   4.045  0.1517 -0.3652 -0.2573
  112SAPE  H15X11725   1.603   6.358   4.141 -0.8764 -0.1419 -0.5605
  112SAPE  H15Y11726   1.682   6.371   3.979  2.8139 -2.4035  0.0412
  112SAPE  C31611727   1.709   6.181   4.075  0.1314 -0.8449  0.0288
  112SAPE  H16X11728   1.740   6.147   3.974  0.2420 -1.0727  0.1397
  112SAPE  H16Y11729   1.651   6.097   4.119  0.2701 -1.7245 -1.3991
  112SAPE  C31711730   1.840   6.204   4.141 -0.2381  0.3633 -0.2552
  112SAPE  H17X11731   1.900   6.111   4.136  3.3372  2.2681  2.5251
  112SAPE  H17Y11732   1.833   6.235   4.248 -0.8555 -1.3967  0.2511
  112SAPE  C31811733   1.929   6.304   4.071  0.4557  0.3333  0.0482
  112SAPE  H18X11734   1.874   6.400   4.074 -1.0545 -0.4649 -0.7251
  112SAPE  H18Y11735   1.947   6.270   3.967 -2.9415  1.5160 -1.0521
  112SAPE  H18Z11736   2.020   6.319   4.133 -0.1952  1.2872  0.7964
  113SAPE     N11737   1.455   2.990   2.376 -0.5507  0.2556  0.2406
  113SAPE   HN111738   1.526   2.914   2.382  2.0802  2.3553 -1.6790
  113SAPE   HN211739   1.477   3.054   2.455  0.3176 -0.2019  0.3875
  113SAPE   HN311740   1.360   2.949   2.382 -0.7384  0.5811 -0.3993
  113SAPE   C1211741   1.496   3.067   2.254  0.3684  0.8959  0.0869
  113SAPE  H12A11742   1.562   3.001   2.194 -0.9375 -1.3739  1.0060
  113SAPE  H12B11743   1.555   3.151   2.296  1.8865  0.4280 -1.0248
  113SAPE   C1111744   1.371   3.106   2.170 -0.1609  0.8103 -0.9305
  113SAPE  H11A11745   1.336   3.014   2.120 -0.4920  0.3720  0.0872
  113SAPE  H11B11746   1.402   3.173   2.087  1.1235 -0.0152 -1.1445
  113SAPE     P11747   1.273   3.301   2.305 -0.2824 -0.2265  0.2958
  113SAPE   O1311748   1.373   3.382   2.228  0.1238 -0.2367 -0.1438
  113SAPE   O1411749   1.136   3.346   2.309 -0.0603  0.3679 -0.4575
  113SAPE   O1211750   1.268   3.162   2.243 -0.7790  0.2307  0.0011
  113SAPE   O1111751   1.329   3.271   2.446  0.2875  0.6608 -0.4828
  113SAPE    C111752   1.337   3.369   2.547 -0.1013  0.0885 -0.7984
  113SAPE    HA11753   1.236   3.413   2.561 -0.2583 -0.2003 -1.0258
  113SAPE    HB11754   1.362   3.305   2.635  3.8879  2.8464  0.3302
  113SAPE    C211755   1.453   3.464   2.527 -0.7373 -0.2198 -0.4637
  113SAPE    HS11756   1.425   3.533   2.444  1.5090  1.7535  0.3028
  113SAPE   O2111757   1.574   3.402   2.496  0.0196  0.2168 -0.1038
  113SAPE   C2111758   1.671   3.480   2.453 -0.6261  0.4326 -0.4887
  113SAPE   O2211759   1.656   3.594   2.413  0.1885 -0.1164 -0.3353
  113SAPE   C2211760   1.802   3.408   2.466  0.3739  0.6324 -0.8324
  113SAPE   H2R11761   1.801   3.323   2.394 -0.4179 -0.6866  0.6905
  113SAPE   H2S11762   1.878   3.486   2.445 -0.6489  1.8515 -0.1761
  113SAPE    C311763   1.478   3.554   2.648  0.2054  0.1430 -0.3238
  113SAPE    HX11764   1.547   3.639   2.627 -0.3431  0.4834 -0.7952
  113SAPE    HY11765   1.525   3.496   2.730  2.4346  0.1179 -1.5365
  113SAPE   O3111766   1.350   3.603   2.697 -0.4029  0.5281  0.0721
  113SAPE   C3111767   1.305   3.708   2.631  0.0651 -0.0596 -0.5486
  113SAPE   O3211768   1.371   3.768   2.547  0.2260  0.4261  0.5925
  113SAPE   C3211769   1.164   3.744   2.669  0.1863 -0.9501  1.2421
  113SAPE   H2X11770   1.144   3.722   2.776  0.0017  0.8316  1.6057
  113SAPE   H2Y11771   1.103   3.682   2.600 -0.1370  0.9900 -0.3162
  113SAPE   C2311772   1.837   3.368   2.611  0.5078 -0.7840 -0.6633
  113SAPE   H3R11773   1.834   3.257   2.611 -0.2831 -0.7710  0.7872
  113SAPE   H3S11774   1.755   3.401   2.677 -1.1407  0.2848 -3.1041
  113SAPE   C2411775   1.979   3.408   2.662  0.3457 -0.5605  0.1301
  113SAPE   H4R11776   1.979   3.368   2.765 -0.6891 -0.5837  0.1261
  113SAPE   H4S11777   1.981   3.519   2.649 -1.3363 -0.3737  1.1999
  113SAPE   C2511778   2.084   3.340   2.575  0.7804 -0.9466 -0.7402
  113SAPE   H5R11779   2.065   3.370   2.471  1.7865  0.3909 -0.5621
  113SAPE   C2611780   2.197   3.279   2.616  0.2218  0.2524  0.1350
  113SAPE   H6R11781   2.270   3.245   2.542  0.8347 -0.3958  1.0232
  113SAPE   C2711782   2.231   3.260   2.759  0.7873 -0.3021 -0.1781
  113SAPE   H7R11783   2.191   3.342   2.822 -3.5497 -1.0871 -1.5683
  113SAPE   H7S11784   2.341   3.244   2.767  0.9203 -0.2328 -1.5725
  113SAPE   C2811785   2.185   3.128   2.815 -0.5261  0.2545 -0.6141
  113SAPE   H8R11786   2.107   3.076   2.757 -1.5235  1.4517 -0.4059
  113SAPE   C2911787   2.224   3.067   2.932  0.5185  0.2455 -0.7062
  113SAPE   H9R11788   2.179   2.970   2.957 -0.6950  0.8887 -0.3337
  113SAPE  C21011789   2.338   3.104   3.023 -0.5891 -0.2138 -0.8526
  113SAPE  H10R11790   2.401   3.179   2.970 -1.3183  0.1817 -1.1625
  113SAPE  H10S11791   2.398   3.013   3.046  1.3623  0.8391 -1.4789
  113SAPE  C21111792   2.287   3.157   3.151  0.0260  0.0011 -0.5968
  113SAPE  H11R11793   2.195   3.218   3.149  1.9745  3.2322  0.2862
  113SAPE  C21211794   2.352   3.138   3.270  0.4007 -0.1003  0.5789
  113SAPE  H12R11795   2.308   3.177   3.363  0.0428 -0.9784  0.7836
  113SAPE  C21311796   2.487   3.085   3.311 -0.6280  0.4123 -0.4795
  113SAPE  H13R11797   2.532   3.161   3.378 -1.6947 -0.1445  0.9153
  113SAPE  H13S11798   2.559   3.054   3.232 -0.1468 -1.1146  0.5078
  113SAPE  C21411799   2.459   2.959   3.395 -0.6812 -0.0307  1.2107
  113SAPE  H14R11800   2.465   2.860   3.347  2.4997  0.2293  0.8312
  113SAPE  C21511801   2.439   2.956   3.526  0.5220 -1.1160  0.3763
  113SAPE  H15R11802   2.429   2.853   3.564  1.2334 -1.8985 -1.4252
  113SAPE  C21611803   2.452   3.066   3.628 -0.2723 -0.1864 -0.3118
  113SAPE  H16R11804   2.466   3.163   3.576 -1.5124 -0.1832 -0.6699
  113SAPE  H16S11805   2.533   3.035   3.697 -0.6554 -1.2775 -0.3190
  113SAPE  C21711806   2.329   3.075   3.714  0.8331  0.0638 -0.2237
  113SAPE  H17R11807   2.242   3.073   3.646  0.2070 -0.4167  0.5672
  113SAPE  H17S11808   2.327   3.172   3.769 -1.3789 -0.5830  0.9504
  113SAPE  C21811809   2.315   2.952   3.808  0.0825 -0.0248 -0.2500
  113SAPE  H18R11810   2.351   2.865   3.748  0.0735 -1.3675  1.6011
  113SAPE  H18S11811   2.206   2.948   3.832 -0.3997  1.2600 -2.0129
  113SAPE  C21911812   2.408   2.957   3.933 -0.4117 -0.3581 -0.1078
  113SAPE  H19R11813   2.372   3.029   4.009  1.1565 -0.6191  0.9542
  113SAPE  H19S11814   2.507   2.984   3.891 -0.0041 -1.4349  0.1230
  113SAPE  C22011815   2.412   2.815   3.998 -0.0752  0.4995  0.1057
  113SAPE  H20R11816   2.314   2.763   3.994  0.7753 -1.2081  0.2907
  113SAPE  H20S11817   2.455   2.800   4.100  3.3250 -0.3585 -1.3141
  113SAPE  H20T11818   2.478   2.756   3.931  0.1572  1.5567 -0.6213
  113SAPE   C3311819   1.128   3.894   2.636 -0.5296 -0.4844  0.1182
  113SAPE   H3X11820   1.110   3.899   2.526 -2.3795  0.5744  0.4280
  113SAPE   H3Y11821   1.211   3.964   2.659 -0.9275  0.3919 -1.0375
  113SAPE   C3411822   0.999   3.925   2.698 -0.6071  0.0029  0.0996
  113SAPE   H4X11823   1.022   3.909   2.805  3.3261  0.7715 -0.4912
  113SAPE   H4Y11824   0.916   3.860   2.660  0.0140 -0.7873  0.0617
  113SAPE   C3511825   0.955   4.064   2.650 -0.7376 -0.0000  0.1387
  113SAPE   H5X11826   0.928   4.041   2.545  0.3495 -1.5957  0.1840
  113SAPE   H5Y11827   1.047   4.126   2.646 -1.4347  1.0493 -3.5107
  113SAPE   C3611828   0.827   4.123   2.712 -0.1915  0.1163  0.1820
  113SAPE   H6X11829   0.747   4.063   2.662  1.9698 -2.9098  0.0759
  113SAPE   H6Y11830   0.822   4.230   2.681 -0.2096 -0.3305 -1.4303
  113SAPE   C3711831   0.814   4.120   2.861  0.6521 -0.4399 -0.9290
  113SAPE   H7X11832   0.900   4.165   2.915 -0.3666 -0.0766  0.4527
  113SAPE   H7Y11833   0.792   4.018   2.901  0.8395  0.1420  0.7708
  113SAPE   C3811834   0.681   4.191   2.915 -0.3153  0.2544  0.7325
  113SAPE   H8X11835   0.678   4.292   2.869  1.7377  0.4120  0.8426
  113SAPE   H8Y11836   0.593   4.132   2.881 -0.9236  0.7072  1.4914
  113SAPE   C3911837   0.678   4.202   3.068 -0.1935 -1.2479  0.2486
  113SAPE   H9X11838   0.771   4.256   3.096 -1.4350  1.6959 -0.8857
  113SAPE   H9Y11839   0.690   4.103   3.116 -1.8924 -0.3370  2.8038
  113SAPE  C31011840   0.539   4.267   3.108 -0.7259  0.5692 -0.0012
  113SAPE  H10X11841   0.466   4.217   3.041 -0.8600  2.2633 -1.1845
  113SAPE  H10Y11842   0.536   4.374   3.078  1.7894  0.6123 -0.3150
  113SAPE  C31111843   0.500   4.246   3.254  0.4342  0.2157  0.6474
  113SAPE  H11X11844   0.584   4.282   3.318  0.4121  1.6243 -0.0847
  113SAPE  H11Y11845   0.497   4.136   3.270 -1.0986  0.3548  1.4987
  113SAPE  C31211846   0.370   4.315   3.288  0.0228 -0.2855  0.1474
  113SAPE  H12X11847   0.286   4.270   3.230 -2.4222  1.7307  1.8826
  113SAPE  H12Y11848   0.368   4.422   3.258  0.3610 -0.4478 -0.4755
  113SAPE  C31311849   0.349   4.312   3.436  0.9412  0.3475  0.5850
  113SAPE  H13X11850   0.417   4.385   3.484 -0.9126  1.9607  0.8462
  113SAPE  H13Y11851   0.395   4.216   3.469 -0.0551  0.4037  2.2364
  113SAPE  C31411852   0.204   4.349   3.479 -0.2438 -0.3697  0.4141
  113SAPE  H14X11853   0.131   4.271   3.447 -2.9745  2.4823 -0.9429
  113SAPE  H14Y11854   0.183   4.446   3.428  0.6807 -1.3956 -2.0778
  113SAPE  C31511855   0.192   4.364   3.628 -0.7933  0.5449 -0.0458
  113SAPE  H15X11856   0.088   4.396   3.650 -0.8441  0.9426 -0.8008
  113SAPE  H15Y11857   0.263   4.440   3.669  1.1727 -0.9344 -0.5510
  113SAPE  C31611858   0.207   4.233   3.710  1.0248 -0.0326 -0.2830
  113SAPE  H16X11859   0.305   4.188   3.682  1.5362 -1.2880  3.0739
  113SAPE  H16Y11860   0.136   4.157   3.671  0.3875  1.2323 -1.6780
  113SAPE  C31711861   0.204   4.259   3.862 -0.2534  0.0594  0.2487
  113SAPE  H17X11862   0.099   4.288   3.884 -0.9918 -0.3361 -2.4739
  113SAPE  H17Y11863   0.269   4.344   3.892 -0.3269 -0.4648  2.0058
  113SAPE  C31811864   0.263   4.152   3.946  0.3474  0.1151 -0.0123
  113SAPE  H18X11865   0.207   4.056   3.937  0.0963  0.0359  1.8486
  113SAPE  H18Y11866   0.255   4.186   4.052  1.6613 -1.0624  0.4990
  113SAPE  H18Z11867   0.370   4.131   3.927 -0.0052 -1.7939 -0.1124
  114SAPE     N11868   5.519   6.074   1.856  0.7624  0.5777  1.0835
  114SAPE   HN111869   5.532   6.158   1.916 -1.9245  1.0349  1.1593
  114SAPE   HN211870   5.612   6.045   1.820 -0.9122 -1.6993 -1.8907
  114SAPE   HN311871   5.462   6.101   1.773  2.2254  1.2464  0.2603
  114SAPE   C1211872   5.452   5.951   1.910 -0.7318 -0.0044 -0.0077
  114SAPE  H12A11873   5.394   5.988   1.997  0.0753  0.9329  0.1344
  114SAPE  H12B11874   5.530   5.887   1.957 -2.0283 -2.2885 -0.7692
  114SAPE   C1111875   5.375   5.857   1.813 -0.1203 -1.2200  0.0577
  114SAPE  H11A11876   5.335   5.767   1.865 -1.7037 -0.8909 -0.5208
  114SAPE  H11B11877   5.433   5.816   1.728 -2.1101 -1.2879 -1.3241
  114SAPE     P11878   5.127   5.968   1.834  0.1640  0.2300 -0.0279
  114SAPE   O1311879   5.105   6.115   1.841 -0.3187 -0.1530  0.0181
  114SAPE   O1411880   5.029   5.881   1.764  0.1881 -0.0862 -0.0785
  114SAPE   O1211881   5.265   5.946   1.766  0.2283 -0.0830  0.1001
  114SAPE   O1111882   5.164   5.918   1.982  0.4848  0.3025  0.1272
  114SAPE    C111883   5.059   5.853   2.067 -0.6657  0.0162 -0.3334
  114SAPE    HA11884   4.982   5.792   2.016 -0.4488 -0.3508 -0.2245
  114SAPE    HB11885   5.117   5.784   2.132 -0.1431  0.5926 -0.1754
  114SAPE    C211886   5.001   5.954   2.167 -0.0484  0.6674 -0.3640
  114SAPE    HS11887   4.960   6.040   2.109 -1.2882 -0.9915 -2.0694
  114SAPE   O2111888   5.108   5.989   2.259  0.7434 -0.1730  0.4229
  114SAPE   C2111889   5.102   6.108   2.323  1.2339 -0.5397  0.5842
  114SAPE   O2211890   5.013   6.192   2.304 -0.5936 -0.5548 -0.0631
  114SAPE   C2211891   5.213   6.121   2.423 -0.0338 -0.4179 -0.4140
  114SAPE   H2R11892   5.214   6.032   2.489  0.0027 -0.8958 -1.0571
  114SAPE   H2S11893   5.301   6.123   2.355  0.4354  0.3360  0.1908
  114SAPE    C311894   4.879   5.899   2.248 -0.7383  0.9364 -0.0630
  114SAPE    HX11895   4.801   5.863   2.177  1.8525 -1.1197 -2.0947
  114SAPE    HY11896   4.835   5.986   2.300 -1.2446  0.4078  0.4033
  114SAPE   O3111897   4.914   5.787   2.337 -0.6691  0.6259  0.9293
  114SAPE   C3111898   4.936   5.814   2.469 -1.0863  0.2185 -0.6043
  114SAPE   O3211899   4.929   5.920   2.527 -0.0344 -0.1033  0.1008
  114SAPE   C3211900   4.978   5.677   2.533 -0.3203 -0.2421  0.3799
  114SAPE   H2X11901   5.079   5.649   2.496 -0.0495  1.0515  0.0923
  114SAPE   H2Y11902   4.903   5.599   2.508 -0.3836 -0.3230  0.8071
  114SAPE   C2311903   5.202   6.262   2.503  0.2625  0.4319  0.8057
  114SAPE   H3R11904   5.191   6.334   2.418  0.5309 -1.5078 -0.9421
  114SAPE   H3S11905   5.299   6.285   2.551  0.1498 -1.1272  1.8384
  114SAPE   C2411906   5.080   6.278   2.586 -0.4992 -0.1360 -1.0458
  114SAPE   H4R11907   4.985   6.267   2.529 -2.6771 -2.2757  2.5698
  114SAPE   H4S11908   5.078   6.383   2.623 -0.7992 -0.0154 -1.3930
  114SAPE   C2511909   5.074   6.173   2.694 -0.8017 -0.6247  0.8016
  114SAPE   H5R11910   5.093   6.069   2.663  1.9087 -0.4039  1.5215
  114SAPE   C2611911   5.065   6.203   2.822 -0.1374  0.0990 -0.8566
  114SAPE   H6R11912   5.069   6.113   2.885 -0.9431 -0.3626 -1.4517
  114SAPE   C2711913   5.061   6.336   2.889 -0.3533  0.4367  0.4536
  114SAPE   H7R11914   4.969   6.352   2.949 -0.9757  1.2596 -0.6706
  114SAPE   H7S11915   5.061   6.426   2.824 -0.0383 -0.1208 -0.3401
  114SAPE   C2811916   5.187   6.341   2.977 -0.5115  0.5406 -0.5885
  114SAPE   H8R11917   5.281   6.327   2.921 -0.4814 -2.1455  0.0236
  114SAPE   C2911918   5.184   6.339   3.113  0.5179 -0.6019 -0.5523
  114SAPE   H9R11919   5.273   6.336   3.177 -0.6473  1.9515  1.3665
  114SAPE  C21011920   5.053   6.340   3.205 -1.2065 -0.4717  0.4332
  114SAPE  H10R11921   5.071   6.283   3.298  0.2459  0.9555  1.0789
  114SAPE  H10S11922   4.964   6.298   3.154 -1.7104 -0.7994  1.5520
  114SAPE  C21111923   5.031   6.492   3.233  0.2516 -0.7409 -0.5387
  114SAPE  H11R11924   5.082   6.568   3.172  0.3068  0.0304  0.4457
  114SAPE  C21211925   4.947   6.535   3.331  0.9737 -0.3981  0.2666
  114SAPE  H12R11926   4.933   6.641   3.358 -0.5557 -0.3811 -0.5195
  114SAPE  C21311927   4.872   6.445   3.434 -0.3373  0.0840 -0.2740
  114SAPE  H13R11928   4.926   6.443   3.532  0.7015 -1.3739 -0.8416
  114SAPE  H13S11929   4.866   6.340   3.399 -1.4923  0.1322 -0.2303
  114SAPE  C21411930   4.729   6.475   3.447 -1.1059  0.5098 -0.5438
  114SAPE  H14R11931   4.672   6.454   3.355 -0.0726  1.5989 -1.4604
  114SAPE  C21511932   4.670   6.515   3.562 -0.6517  0.3042  0.0639
  114SAPE  H15R11933   4.562   6.530   3.550 -0.3567  1.4471 -1.5951
  114SAPE  C21611934   4.724   6.537   3.701  0.2066  0.3642 -0.0258
  114SAPE  H16R11935   4.834   6.527   3.712 -0.0292 -2.2104  0.7878
  114SAPE  H16S11936   4.695   6.450   3.765 -0.4667  3.3728  4.1619
  114SAPE  C21711937   4.674   6.654   3.781 -0.9830  0.0999 -0.1850
  114SAPE  H17R11938   4.629   6.621   3.877  0.0413 -1.8582 -0.3098
  114SAPE  H17S11939   4.599   6.712   3.724  0.2169  1.5742 -0.3196
  114SAPE  C21811940   4.790   6.747   3.815  0.3885  0.5000 -0.5454
  114SAPE  H18R11941   4.836   6.778   3.719 -1.6069  0.1339 -1.6764
  114SAPE  H18S11942   4.870   6.698   3.874 -0.4750 -0.1819  0.0917
  114SAPE  C21911943   4.740   6.878   3.882 -1.0070  0.3701  0.4561
  114SAPE  H19R11944   4.650   6.912   3.826  0.5067  2.9850 -0.5574
  114SAPE  H19S11945   4.812   6.962   3.870  0.9346 -1.3646 -0.7738
  114SAPE  C22011946   4.697   6.863   4.032  0.1797  0.3001 -0.3337
  114SAPE  H20R11947   4.646   6.957   4.065  0.6955 -0.2163  2.1314
  114SAPE  H20S11948   4.784   6.854   4.101  0.9975  0.0342 -1.3786
  114SAPE  H20T11949   4.636   6.772   4.046  1.7281 -0.7879 -0.3943
  114SAPE   C3311950   4.958   5.687   2.686  0.7957 -0.1789  0.4325
  114SAPE   H3X11951   4.977   5.587   2.731 -0.1035  0.0763  1.4051
  114SAPE   H3Y11952   4.852   5.716   2.701  1.0693  0.1390  1.9065
  114SAPE   C3411953   5.057   5.777   2.749  0.8452  0.9678  0.1704
  114SAPE   H4X11954   5.030   5.884   2.735 -1.5506  0.4024 -0.0330
  114SAPE   H4Y11955   5.154   5.780   2.695  0.8059  2.5689  0.1262
  114SAPE   C3511956   5.071   5.758   2.904  0.0359 -0.0779  0.1652
  114SAPE   H5X11957   5.070   5.653   2.941  0.6888  0.7289  2.6964
  114SAPE   H5Y11958   4.974   5.794   2.944  0.6031  1.4795  0.2010
  114SAPE   C3611959   5.194   5.830   2.961 -0.4274  0.1575  0.3363
  114SAPE   H6X11960   5.182   5.935   2.927 -0.8453  0.1728  0.5251
  114SAPE   H6Y11961   5.283   5.783   2.913 -1.0675  0.2562 -0.9800
  114SAPE   C3711962   5.209   5.829   3.112  0.1849  0.2596  0.4314
  114SAPE   H7X11963   5.314   5.854   3.139  1.4051 -1.8221 -1.9407
  114SAPE   H7Y11964   5.188   5.724   3.141 -0.1276 -0.0838 -0.9588
  114SAPE   C3811965   5.102   5.910   3.174  0.4895 -0.8342 -0.7513
  114SAPE   H8X11966   5.000   5.891   3.136 -0.9025  0.6227  1.9430
  114SAPE   H8Y11967   5.115   6.018   3.152  1.7034 -0.2764  2.2125
  114SAPE   C3911968   5.095   5.894   3.330 -0.6184 -0.1446  0.1575
  114SAPE   H9X11969   5.200   5.905   3.366 -0.8556  3.1702  0.1350
  114SAPE   H9Y11970   5.066   5.788   3.342  1.1877 -0.5567  1.2178
  114SAPE  C31011971   5.003   5.984   3.402 -0.1702 -0.1901  0.0516
  114SAPE  H10X11972   4.896   5.959   3.382 -0.1699  0.3371 -0.6919
  114SAPE  H10Y11973   5.023   6.088   3.366 -2.5257 -0.0203 -1.0167
  114SAPE  C31111974   5.030   5.998   3.550 -0.5276 -0.8795 -0.3211
  114SAPE  H11X11975   5.138   5.986   3.574 -0.6899  0.1074  0.9615
  114SAPE  H11Y11976   4.978   5.915   3.601 -0.1599 -1.2539 -0.5493
  114SAPE  C31211977   4.982   6.141   3.600  0.0475 -0.4041  0.5198
  114SAPE  H12X11978   4.871   6.148   3.596  0.0503 -0.6678 -0.1072
  114SAPE  H12Y11979   5.024   6.223   3.538 -0.2189 -0.1969  0.6120
  114SAPE  C31311980   5.022   6.160   3.746 -0.5386  0.5305 -0.7956
  114SAPE  H13X11981   5.129   6.131   3.751 -0.8267 -0.3776  2.7465
  114SAPE  H13Y11982   4.957   6.079   3.786  0.4188 -1.1489 -2.4674
  114SAPE  C31411983   4.986   6.302   3.793  0.0035 -0.0093  0.2167
  114SAPE  H14X11984   4.877   6.315   3.779  0.0008 -0.7760 -0.5484
  114SAPE  H14Y11985   5.043   6.373   3.730 -0.7859  1.2563  0.8848
  114SAPE  C31511986   5.039   6.340   3.932 -0.0266  1.1197  0.7227
  114SAPE  H15X11987   5.149   6.341   3.922 -0.0616  3.2827  0.0660
  114SAPE  H15Y11988   5.010   6.266   4.010  0.4023  1.2108  0.9677
  114SAPE  C31611989   5.006   6.474   3.969  0.3530 -0.5915 -0.1149
  114SAPE  H16X11990   4.895   6.483   3.974  0.4447 -0.1136  2.3534
  114SAPE  H16Y11991   5.039   6.542   3.887 -1.6642 -2.1663 -2.3654
  114SAPE  C31711992   5.062   6.519   4.109  0.0718 -0.3468  0.0170
  114SAPE  H17X11993   5.172   6.513   4.098  0.1377 -0.7065  0.7565
  114SAPE  H17Y11994   5.027   6.455   4.193  0.8415  1.3649  1.7259
  114SAPE  C31811995   5.026   6.674   4.136  0.1448 -0.8144 -0.3374
  114SAPE  H18X11996   4.934   6.689   4.197  1.8489  0.5945  2.0968
  114SAPE  H18Y11997   5.020   6.739   4.047 -0.5270 -0.6971 -0.2111
  114SAPE  H18Z11998   5.109   6.711   4.202  0.5435 -0.8453 -0.8159
  115SAPE     N11999   1.536   2.151   1.737  0.0548 -0.3821 -0.3211
  115SAPE   HN112000   1.637   2.131   1.720  1.1855  1.7457  2.9432
  115SAPE   HN212001   1.498   2.054   1.745 -2.7604  0.6360 -0.3083
  115SAPE   HN312002   1.476   2.186   1.660 -0.5959  2.4107  1.3140
  115SAPE   C1212003   1.505   2.217   1.871 -0.2053  0.3247 -0.1695
  115SAPE  H12A12004   1.490   2.146   1.955 -0.0481  0.8585  0.3156
  115SAPE  H12B12005   1.413   2.278   1.858  0.8618  2.1921  0.5307
  115SAPE   C1112006   1.622   2.306   1.913  1.0719 -0.7476 -0.1542
  115SAPE  H11A12007   1.587   2.367   1.999  0.0861 -0.5725 -0.6702
  115SAPE  H11B12008   1.648   2.378   1.834 -1.5403  0.6897  0.1798
  115SAPE     P12009   1.780   2.208   2.105 -0.1392 -0.3050  0.1830
  115SAPE   O1312010   1.861   2.086   2.103  0.2278  0.0331 -0.2068
  115SAPE   O1412011   1.842   2.328   2.166  0.0651  0.1820  0.4222
  115SAPE   O1212012   1.736   2.237   1.961  0.4447 -0.0153  0.1492
  115SAPE   O1112013   1.641   2.190   2.172  0.5129 -0.0075  0.4190
  115SAPE    C112014   1.578   2.285   2.254 -0.0209 -0.2326 -0.4254
  115SAPE    HA12015   1.612   2.387   2.227  1.6971 -1.0522 -1.5125
  115SAPE    HB12016   1.468   2.277   2.240 -0.2384 -0.0006  0.9782
  115SAPE    C212017   1.583   2.258   2.406  0.1194  0.8211 -0.6535
  115SAPE    HS12018   1.689   2.258   2.441 -0.5744 -0.7717  1.6762
  115SAPE   O2112019   1.529   2.124   2.420  0.1675  0.0330  0.0558
  115SAPE   C2112020   1.570   2.067   2.540  0.3045 -0.1038  0.9230
  115SAPE   O2212021   1.667   2.103   2.600 -0.0291  0.2658  0.0234
  115SAPE   C2212022   1.455   1.968   2.598 -0.0094 -0.2124  0.2199
  115SAPE   H2R12023   1.367   1.979   2.530  1.8698 -1.5349 -2.6208
  115SAPE   H2S12024   1.495   1.865   2.590 -1.0417 -0.5044 -1.9270
  115SAPE    C312025   1.513   2.369   2.486 -0.2568 -1.2944  0.1329
  115SAPE    HX12026   1.408   2.375   2.450 -0.2022 -0.5173  0.1025
  115SAPE    HY12027   1.558   2.466   2.457 -1.4580 -0.5814  0.5435
  115SAPE   O3112028   1.508   2.346   2.629 -0.1630  0.0232  0.3880
  115SAPE   C3112029   1.622   2.377   2.689 -0.2440 -0.2424 -0.1091
  115SAPE   O3212030   1.724   2.409   2.634 -0.6257 -0.7130 -0.3629
  115SAPE   C3212031   1.605   2.364   2.841 -0.2152 -0.2121 -0.9625
  115SAPE   H2X12032   1.501   2.349   2.876 -0.1675  1.2587 -0.1153
  115SAPE   H2Y12033   1.652   2.457   2.880  1.2879 -1.4224  0.2681
  115SAPE   C2312034   1.438   2.002   2.751  0.2154  0.9101  0.1898
  115SAPE   H3R12035   1.417   2.110   2.768  0.0328  0.6810  1.4875
  115SAPE   H3S12036   1.533   1.995   2.807 -1.2604  1.2125  2.8857
  115SAPE   C2412037   1.326   1.923   2.823  0.2127  0.0210  0.4737
  115SAPE   H4R12038   1.235   1.928   2.759 -0.5363 -0.3976  1.4646
  115SAPE   H4S12039   1.296   1.981   2.913  1.3480 -0.1403  0.9642
  115SAPE   C2512040   1.353   1.785   2.859  0.8215 -0.0620 -0.1592
  115SAPE   H5R12041   1.370   1.719   2.773  1.1206 -2.6312  1.7465
  115SAPE   C2612042   1.342   1.727   2.984 -0.8919 -0.3150  0.0433
  115SAPE   H6R12043   1.375   1.622   2.991  1.6666  0.2202 -2.1754
  115SAPE   C2712044   1.308   1.799   3.112  0.3631  0.2094 -0.3769
  115SAPE   H7R12045   1.236   1.729   3.159  2.4252 -0.9673  1.2131
  115SAPE   H7S12046   1.242   1.884   3.086  1.1318  1.7246  2.3101
  115SAPE   C2812047   1.427   1.847   3.196 -0.2189  0.6260  0.9102
  115SAPE   H8R12048   1.526   1.828   3.151  0.0428  0.6560  1.4630
  115SAPE   C2912049   1.427   1.931   3.297 -0.0592  0.3900  0.7971
  115SAPE   H9R12050   1.523   1.942   3.351 -0.0929 -0.3523  1.0112
  115SAPE  C21012051   1.304   1.989   3.357 -0.5291  0.1628 -0.5490
  115SAPE  H10R12052   1.237   2.010   3.271 -1.0561 -0.8360 -0.4036
  115SAPE  H10S12053   1.328   2.089   3.400  3.0528 -0.5960 -0.4488
  115SAPE  C21112054   1.237   1.907   3.466 -0.1651 -0.2954  0.4628
  115SAPE  H11R12055   1.144   1.856   3.436 -0.3471 -0.3320  1.0769
  115SAPE  C21212056   1.258   1.902   3.599 -0.4340 -0.1752 -0.0917
  115SAPE  H12R12057   1.199   1.830   3.658  0.9769 -0.8917  0.4912
  115SAPE  C21312058   1.366   1.966   3.689 -0.5964  0.7364 -0.1353
  115SAPE  H13R12059   1.424   2.027   3.617 -0.5984 -0.0637 -0.8301
  115SAPE  H13S12060   1.436   1.889   3.728  1.0737  2.1940 -0.1304
  115SAPE  C21412061   1.317   2.055   3.798 -0.4472  0.5728  0.4808
  115SAPE  H14R12062   1.263   2.140   3.755  1.1786  1.5549  0.3393
  115SAPE  C21512063   1.287   2.018   3.923  0.0059  0.2543  0.5370
  115SAPE  H15R12064   1.240   2.089   3.992  2.0922  0.4890  1.8028
  115SAPE  C21612065   1.330   1.891   3.990 -0.3415  0.1616 -0.8662
  115SAPE  H16R12066   1.358   1.814   3.915 -1.0133 -1.2442  0.2623
  115SAPE  H16S12067   1.246   1.850   4.050 -1.2984  2.1123 -0.7791
  115SAPE  C21712068   1.448   1.909   4.082 -0.7642  0.2815 -0.2025
  115SAPE  H17R12069   1.432   1.994   4.151 -0.6813 -0.5689  0.8857
  115SAPE  H17S12070   1.527   1.946   4.012  0.6966  0.6005  1.5470
  115SAPE  C21812071   1.496   1.785   4.162  0.7462  0.1714  0.2212
  115SAPE  H18R12072   1.598   1.809   4.201  0.6306 -1.2532  1.4900
  115SAPE  H18S12073   1.514   1.712   4.080 -0.8776  0.7388 -0.6752
  115SAPE  C21912074   1.395   1.747   4.263  0.1279  0.4522 -0.3008
  115SAPE  H19R12075   1.317   1.710   4.194 -0.4436  2.1826 -0.6390
  115SAPE  H19S12076   1.354   1.838   4.312 -0.3255 -0.1947  0.5492
  115SAPE  C22012077   1.437   1.641   4.364 -0.3566 -0.0149 -0.1351
  115SAPE  H20R12078   1.459   1.539   4.325  0.2151 -1.3679  3.3480
  115SAPE  H20S12079   1.366   1.620   4.446  0.4012  0.3384  0.6235
  115SAPE  H20T12080   1.539   1.669   4.399 -0.4438  0.0417  0.0755
  115SAPE   C3312081   1.677   2.240   2.897  0.2101  0.1308  0.2929
  115SAPE   H3X12082   1.749   2.200   2.823 -0.0427 -1.8368  1.0603
  115SAPE   H3Y12083   1.594   2.168   2.916 -0.5901  0.9140 -0.1293
  115SAPE   C3412084   1.750   2.262   3.037 -0.3776 -0.2742  0.1438
  115SAPE   H4X12085   1.839   2.326   3.017 -1.2817  1.1432  0.4979
  115SAPE   H4Y12086   1.791   2.163   3.064  2.2968  0.9665  0.9697
  115SAPE   C3512087   1.662   2.312   3.151 -0.5014 -0.3736  0.1388
  115SAPE   H5X12088   1.575   2.245   3.168 -2.3730  2.4381  2.7632
  115SAPE   H5Y12089   1.618   2.408   3.115  0.0053 -0.2939 -0.2820
  115SAPE   C3612090   1.726   2.318   3.290 -0.9760 -0.0637  0.0599
  115SAPE   H6X12091   1.808   2.393   3.296 -0.3165 -0.7762  0.0009
  115SAPE   H6Y12092   1.774   2.220   3.309 -1.2565 -0.0123  1.0722
  115SAPE   C3712093   1.628   2.349   3.400 -0.1335 -0.4091 -0.6081
  115SAPE   H7X12094   1.527   2.311   3.377 -0.1920 -0.1451 -0.7947
  115SAPE   H7Y12095   1.604   2.458   3.394 -0.2069 -0.4136 -0.4113
  115SAPE   C3812096   1.668   2.293   3.534 -0.9610 -0.4113 -0.4893
  115SAPE   H8X12097   1.770   2.323   3.564 -1.6897 -1.0261  2.9283
  115SAPE   H8Y12098   1.674   2.182   3.522 -1.5808 -0.5234  0.1571
  115SAPE   C3912099   1.565   2.326   3.651 -0.2636 -0.4220  0.1186
  115SAPE   H9X12100   1.466   2.279   3.632 -0.3094  0.1718 -1.2034
  115SAPE   H9Y12101   1.552   2.436   3.653  0.6523 -0.3172  1.1274
  115SAPE  C31012102   1.606   2.271   3.782 -0.4471  0.0938 -0.2831
  115SAPE  H10X12103   1.712   2.304   3.795 -0.0590 -1.0080 -0.5447
  115SAPE  H10Y12104   1.613   2.160   3.781  0.9024  0.1571 -1.2776
  115SAPE  C31112105   1.514   2.321   3.897  0.0673 -0.3518  0.1525
  115SAPE  H11X12106   1.412   2.292   3.866 -0.2785  0.2071  0.7293
  115SAPE  H11Y12107   1.518   2.432   3.890 -0.6791 -0.3796 -0.9855
  115SAPE  C31212108   1.553   2.267   4.033 -0.3356  0.6572  0.2708
  115SAPE  H12X12109   1.652   2.303   4.069  1.1093 -0.9872 -1.8572
  115SAPE  H12Y12110   1.562   2.157   4.028  0.9691  0.8113 -1.4499
  115SAPE  C31312111   1.437   2.285   4.136  0.6626  0.2542  0.9343
  115SAPE  H13X12112   1.460   2.225   4.227  1.1968 -0.4048  0.3685
  115SAPE  H13Y12113   1.344   2.239   4.096  0.6941  0.2751  0.8369
  115SAPE  C31412114   1.418   2.431   4.182  0.6191  0.2037 -0.7000
  115SAPE  H14X12115   1.383   2.496   4.100 -2.1331  1.0126  1.0089
  115SAPE  H14Y12116   1.516   2.467   4.219  0.3255  0.7773 -0.4815
  115SAPE  C31512117   1.305   2.438   4.282 -0.2235  0.6180 -0.6270
  115SAPE  H15X12118   1.341   2.379   4.369 -1.0668  0.7616 -0.1778
  115SAPE  H15Y12119   1.224   2.373   4.244 -0.7312  0.9478 -0.1327
  115SAPE  C31612120   1.232   2.568   4.319  0.0396 -0.7095 -0.0496
  115SAPE  H16X12121   1.150   2.534   4.386  0.7714 -1.6983  0.3578
  115SAPE  H16Y12122   1.193   2.613   4.225  0.8871  0.1750  0.0039
  115SAPE  C31712123   1.317   2.662   4.406 -0.5088 -0.4767 -0.5914
  115SAPE  H17X12124   1.266   2.760   4.411  0.5881  0.1487 -1.2324
  115SAPE  H17Y12125   1.409   2.685   4.348  0.5315 -1.0521  0.7704
  115SAPE  C31812126   1.359   2.606   4.546  0.1122 -0.2936  0.3275
  115SAPE  H18X12127   1.420   2.515   4.524 -0.5629 -0.8847  0.8444
  115SAPE  H18Y12128   1.276   2.567   4.608 -0.5856 -0.4386 -0.6865
  115SAPE  H18Z12129   1.411   2.683   4.607  0.4618 -1.4580  1.5436
  116SAPE     N12130   2.261   2.316   1.813 -0.4374  0.2065  0.3673
  116SAPE   HN112131   2.276   2.306   1.711  0.3259  0.6717  0.4200
  116SAPE   HN212132   2.171   2.367   1.819 -0.6981 -0.0535 -1.0538
  116SAPE   HN312133   2.338   2.378   1.847  0.3301 -0.2130 -0.5699
  116SAPE   C1212134   2.250   2.192   1.889  0.4098  0.1425 -0.4246
  116SAPE  H12A12135   2.351   2.155   1.916 -0.5149 -0.5067  2.5671
  116SAPE  H12B12136   2.189   2.116   1.836  0.5819  0.4320 -1.0435
  116SAPE   C1112137   2.172   2.229   2.023 -0.3062 -0.0098 -0.2032
  116SAPE  H11A12138   2.138   2.149   2.091 -2.7568  1.3809  0.3076
  116SAPE  H11B12139   2.072   2.259   1.986 -1.1719  0.0304  2.0478
  116SAPE     P12140   2.318   2.316   2.228 -0.5012 -0.1524 -0.0274
  116SAPE   O1312141   2.438   2.242   2.194 -0.2522  0.3149  0.5693
  116SAPE   O1412142   2.336   2.447   2.299 -0.5301 -0.1826  0.9838
  116SAPE   O1212143   2.231   2.338   2.096  0.4282  0.4915 -0.1804
  116SAPE   O1112144   2.233   2.215   2.306  0.1137 -0.0187  0.1454
  116SAPE    C112145   2.108   2.235   2.372  0.6947 -0.3338 -0.2688
  116SAPE    HA12146   2.062   2.311   2.306  0.7979  0.0609  0.1077
  116SAPE    HB12147   2.043   2.145   2.367 -2.0356  1.4254  1.1356
  116SAPE    C212148   2.128   2.276   2.522  0.1318  0.1162  0.5011
  116SAPE    HS12149   2.173   2.377   2.525 -1.3494  0.8492 -0.7108
  116SAPE   O2112150   2.210   2.178   2.600 -0.2518  0.2559 -0.6304
  116SAPE   C2112151   2.316   2.227   2.651  0.6006  0.5457 -0.1176
  116SAPE   O2212152   2.343   2.345   2.646 -0.5302 -0.7179 -0.2700
  116SAPE   C2212153   2.389   2.128   2.736  0.3551 -0.4673 -0.3358
  116SAPE   H2R12154   2.344   2.027   2.746 -0.1023 -0.1932  0.4992
  116SAPE   H2S12155   2.487   2.116   2.686  0.0618  2.1108 -1.6908
  116SAPE    C312156   1.995   2.289   2.592  0.2461 -0.5432  0.4390
  116SAPE    HX12157   1.945   2.189   2.593  0.6532 -0.7957  2.8145
  116SAPE    HY12158   1.929   2.355   2.531 -0.4280 -0.0691  1.6376
  116SAPE   O3112159   2.000   2.342   2.734  0.3375 -0.4682  0.7142
  116SAPE   C3112160   2.019   2.471   2.745  0.8615 -0.4349  0.4835
  116SAPE   O3212161   2.045   2.549   2.653  0.4727  0.1313 -0.3983
  116SAPE   C3212162   2.033   2.503   2.896 -0.5809 -0.0398  1.2296
  116SAPE   H2X12163   2.084   2.417   2.944  1.0451  0.5447  0.6026
  116SAPE   H2Y12164   1.934   2.521   2.945 -0.0671  0.7155  2.0026
  116SAPE   C2312165   2.439   2.187   2.872  1.0931  0.6172 -0.5541
  116SAPE   H3R12166   2.515   2.266   2.854  2.6005 -0.6186  0.1536
  116SAPE   H3S12167   2.482   2.104   2.933 -2.0735 -0.6598  0.1446
  116SAPE   C2412168   2.323   2.237   2.967  0.7587  0.5472 -0.6131
  116SAPE   H4R12169   2.252   2.152   2.980  1.9097 -0.2400  0.9708
  116SAPE   H4S12170   2.277   2.319   2.909  0.2627 -0.2719 -1.4011
  116SAPE   C2512171   2.379   2.289   3.094  0.1910 -0.2807  0.2228
  116SAPE   H5R12172   2.473   2.343   3.078 -1.0629  1.9584 -0.0688
  116SAPE   C2612173   2.326   2.291   3.216 -0.5060  0.6032 -0.3119
  116SAPE   H6R12174   2.384   2.334   3.299 -1.3397 -0.1009  0.6550
  116SAPE   C2712175   2.192   2.238   3.251 -0.2881  0.6169  0.3534
  116SAPE   H7R12176   2.202   2.128   3.266  0.8412  0.5857 -0.5043
  116SAPE   H7S12177   2.129   2.253   3.160 -1.4324 -0.2668  0.9697
  116SAPE   C2812178   2.117   2.301   3.362  1.1963 -1.0751 -0.1219
  116SAPE   H8R12179   2.043   2.368   3.314 -0.2797 -2.8653 -0.4393
  116SAPE   C2912180   2.128   2.290   3.491  0.6538 -0.0221 -0.9394
  116SAPE   H9R12181   2.054   2.346   3.550  1.7850  1.2844 -0.7301
  116SAPE  C21012182   2.222   2.188   3.552  0.5497 -0.5220 -0.6186
  116SAPE  H10R12183   2.245   2.229   3.652 -0.3447 -1.3189 -0.0571
  116SAPE  H10S12184   2.317   2.171   3.498  1.3142 -1.6491  0.9867
  116SAPE  C21112185   2.156   2.055   3.563  0.4701 -0.4237 -0.1799
  116SAPE  H11R12186   2.049   2.062   3.585  0.8463 -0.0851  1.7804
  116SAPE  C21212187   2.211   1.936   3.562  0.6303  0.5138 -0.0288
  116SAPE  H12R12188   2.158   1.840   3.565  1.5717 -0.0159  0.5268
  116SAPE  C21312189   2.358   1.902   3.547  0.1445  0.2342  0.1894
  116SAPE  H13R12190   2.411   1.998   3.563 -0.1610  0.4134  0.1434
  116SAPE  H13S12191   2.378   1.877   3.440  0.0918 -0.2523  0.2948
  116SAPE  C21412192   2.410   1.782   3.626  0.0545 -0.6975  0.4462
  116SAPE  H14R12193   2.392   1.678   3.594  0.0289  0.3479 -3.3763
  116SAPE  C21512194   2.487   1.810   3.739 -0.0456  0.3893 -0.0484
  116SAPE  H15R12195   2.523   1.719   3.789  0.7195  0.7604  0.0768
  116SAPE  C21612196   2.521   1.939   3.810 -0.4224 -0.1680  0.3642
  116SAPE  H16R12197   2.452   2.021   3.781  0.7882  0.7586 -0.0084
  116SAPE  H16S12198   2.622   1.981   3.789 -0.3797 -0.9177 -1.0889
  116SAPE  C21712199   2.496   1.923   3.964  0.1686  0.3015 -0.1285
  116SAPE  H17R12200   2.566   1.847   4.006  1.2526  0.7407 -1.0987
  116SAPE  H17S12201   2.391   1.888   3.969 -0.0360  0.7626 -1.0522
  116SAPE  C21812202   2.495   2.050   4.056  0.0656 -0.0989  0.9067
  116SAPE  H18R12203   2.405   2.035   4.119 -0.6882 -1.1372 -0.3810
  116SAPE  H18S12204   2.477   2.138   3.990  0.6838 -1.1273 -0.6895
  116SAPE  C21912205   2.610   2.075   4.161  0.9279 -0.0575 -0.0820
  116SAPE  H19R12206   2.611   2.174   4.212 -0.2270 -0.5747  1.0033
  116SAPE  H19S12207   2.705   2.066   4.105  0.5669 -1.6532 -0.4837
  116SAPE  C22012208   2.614   1.970   4.267  0.2405  0.3140  0.1006
  116SAPE  H20R12209   2.516   1.965   4.320  0.5237  0.1225  0.6173
  116SAPE  H20S12210   2.695   1.981   4.343  0.0648 -2.5081  0.7908
  116SAPE  H20T12211   2.625   1.872   4.216  0.1240  0.4265 -0.1423
  116SAPE   C3312212   2.107   2.633   2.910 -0.1135  0.2170 -0.7686
  116SAPE   H3X12213   2.069   2.713   2.843 -1.2976  1.3997  1.2000
  116SAPE   H3Y12214   2.213   2.616   2.880  0.7197  3.0929  0.2303
  116SAPE   C3412215   2.108   2.682   3.056  0.4264 -0.5946  0.3828
  116SAPE   H4X12216   2.002   2.692   3.088 -1.1794 -3.0092 -3.4870
  116SAPE   H4Y12217   2.153   2.783   3.049  1.0361 -0.8809  0.0811
  116SAPE   C3512218   2.195   2.608   3.156  0.2710  0.1508  0.7148
  116SAPE   H5X12219   2.286   2.575   3.102 -0.9231 -0.6959 -0.8667
  116SAPE   H5Y12220   2.148   2.509   3.174  1.3553 -0.4626  0.2603
  116SAPE   C3612221   2.233   2.681   3.278  0.6613 -0.5445 -0.6513
  116SAPE   H6X12222   2.305   2.758   3.243 -0.4970  0.1941 -1.4910
  116SAPE   H6Y12223   2.293   2.616   3.344  1.0183  1.2273  0.8445
  116SAPE   C3712224   2.113   2.750   3.347  0.0910 -0.7103  0.0189
  116SAPE   H7X12225   2.070   2.819   3.272 -0.3006 -0.6232  0.3234
  116SAPE   H7Y12226   2.135   2.819   3.431 -1.1123  1.9642 -1.7330
  116SAPE   C3812227   2.005   2.651   3.385 -0.1973  0.0598 -0.5152
  116SAPE   H8X12228   2.042   2.577   3.458 -0.8041 -0.2550 -0.5207
  116SAPE   H8Y12229   1.966   2.602   3.293  1.8061 -1.9181 -0.3980
  116SAPE   C3912230   1.876   2.712   3.451  0.3919 -0.2938 -0.4067
  116SAPE   H9X12231   1.816   2.625   3.485 -0.0248 -0.4920 -1.6233
  116SAPE   H9Y12232   1.816   2.755   3.369 -1.5351  0.2105  1.2034
  116SAPE  C31012233   1.904   2.808   3.571 -0.0062 -0.7607  0.1970
  116SAPE  H10X12234   1.806   2.824   3.621 -0.9901 -1.0600 -1.5877
  116SAPE  H10Y12235   1.945   2.901   3.526 -3.0709  0.3358 -0.5602
  116SAPE  C31112236   1.992   2.747   3.684  0.4321  0.0843  0.0912
  116SAPE  H11X12237   2.002   2.825   3.762  1.2360  0.2889 -0.2033
  116SAPE  H11Y12238   2.093   2.729   3.641 -1.1285  0.2838 -4.1743
  116SAPE  C31212239   1.948   2.622   3.752 -0.1412 -0.6079 -0.3557
  116SAPE  H12X12240   2.015   2.595   3.836 -0.8358 -0.7414  0.1613
  116SAPE  H12Y12241   1.961   2.543   3.674  0.1986 -2.0486  1.1143
  116SAPE  C31312242   1.808   2.632   3.803  0.3461 -0.2917  0.1794
  116SAPE  H13X12243   1.769   2.527   3.799 -1.3639  0.3349 -1.8961
  116SAPE  H13Y12244   1.739   2.686   3.734  0.2568 -0.7740 -0.1148
  116SAPE  C31412245   1.799   2.681   3.947  0.5692  0.4369  0.2677
  116SAPE  H14X12246   1.853   2.776   3.963 -0.1882  0.8117  0.6386
  116SAPE  H14Y12247   1.837   2.601   4.015 -0.8726 -1.0236 -0.5536
  116SAPE  C31512248   1.645   2.707   3.977  0.3762  0.2115 -0.1566
  116SAPE  H15X12249   1.601   2.606   3.963  0.4889  0.1766 -0.2561
  116SAPE  H15Y12250   1.599   2.769   3.898 -2.2868  0.0042  1.1306
  116SAPE  C31612251   1.624   2.771   4.118 -0.1952  0.0430  0.4455
  116SAPE  H16X12252   1.713   2.747   4.179  0.9743  1.4143 -0.6630
  116SAPE  H16Y12253   1.535   2.721   4.163 -0.7962  0.2402 -0.5086
  116SAPE  C31712254   1.623   2.917   4.109  0.4838 -0.2236  0.2152
  116SAPE  H17X12255   1.534   2.945   4.048  0.3447  1.1480  1.0145
  116SAPE  H17Y12256   1.716   2.948   4.055  0.4714  0.4646  0.5816
  116SAPE  C31812257   1.605   2.983   4.238  0.3367 -0.3406 -0.5014
  116SAPE  H18X12258   1.692   2.960   4.303  1.7026  0.5745 -1.9309
  116SAPE  H18Y12259   1.520   2.943   4.296  1.2908  0.5114  1.5640
  116SAPE  H18Z12260   1.604   3.093   4.227 -0.3070 -0.0581  1.9352
  117SOPE     N12261   1.537   6.104   6.783 -0.4071 -0.4009 -0.0407
  117SOPE   HN112262   1.610   6.106   6.709 -1.9809  2.5192 -1.7298
  117SOPE   HN212263   1.459   6.039   6.762  0.7906 -1.1989 -2.4461
  117SOPE   HN312264   1.501   6.202   6.788 -1.9045 -0.8889 -0.8337
  117SOPE   C1212265   1.587   6.039   6.910  0.2312 -0.3357  0.7228
  117SOPE  H12A12266   1.499   6.038   6.979 -0.2011 -1.2752  0.1869
  117SOPE  H12B12267   1.656   6.103   6.969  2.1549 -2.1303  0.5458
  117SOPE   C1112268   1.629   5.897   6.884  0.3986 -0.0127  0.3174
  117SOPE  H11A12269   1.542   5.857   6.829  0.3652  0.2912  0.1462
  117SOPE  H11B12270   1.638   5.846   6.982  0.1074  1.6531  1.2530
  117SOPE     P12271   1.776   5.784   6.701 -0.4561 -0.2722  0.0833
  117SOPE   O1312272   1.743   5.647   6.749  0.1489 -0.1100 -0.2292
  117SOPE   O1412273   1.901   5.814   6.626 -0.1177 -0.4229  0.2392
  117SOPE   O1212274   1.757   5.894   6.816  0.0298 -0.0836  0.0252
  117SOPE   O1112275   1.657   5.813   6.601 -0.4862  0.4792 -0.6967
  117SOPE    C112276   1.666   5.904   6.492  0.1522  0.5865 -0.2496
  117SOPE    HA12277   1.756   5.969   6.502 -0.6571  1.3103  4.3571
  117SOPE    HB12278   1.581   5.975   6.490  1.0235  1.6849  0.4869
  117SOPE    C212279   1.679   5.826   6.357 -0.4499  0.7104  0.8831
  117SOPE    HS12280   1.685   5.904   6.278  2.3218  0.6524  0.9572
  117SOPE   O2112281   1.560   5.746   6.317  0.6587  0.6745 -0.8494
  117SOPE   C2112282   1.451   5.818   6.283  0.3376 -0.1960  0.1147
  117SOPE   O2212283   1.455   5.942   6.283 -0.6690  0.1395  0.3393
  117SOPE   C2212284   1.332   5.733   6.239 -0.1665  0.1536 -0.1033
  117SOPE   H2R12285   1.250   5.745   6.313 -0.9730  0.7908 -1.0740
  117SOPE   H2S12286   1.367   5.630   6.215  4.8832  0.9730  2.2643
  117SOPE    C312287   1.801   5.733   6.327 -0.2632 -0.4155  0.0766
  117SOPE    HX12288   1.791   5.639   6.385  0.6050  0.1707  1.2318
  117SOPE    HY12289   1.889   5.796   6.352  1.1413 -1.3437 -2.2859
  117SOPE   O3112290   1.817   5.720   6.185 -0.5464 -0.1280  0.2385
  117SOPE   C3112291   1.919   5.645   6.153 -0.4181 -0.0802  0.0707
  117SOPE   O3212292   1.986   5.575   6.224 -0.9587 -0.6068 -0.1234
  117SOPE   C3212293   1.937   5.646   5.995  0.3290 -0.1662 -0.6980
  117SOPE   H2X12294   1.875   5.557   5.968  1.0534 -0.9166  0.0572
  117SOPE   H2Y12295   2.045   5.638   5.971  0.7126 -0.4636  1.0090
  117SOPE   C2312296   1.270   5.778   6.107 -0.5979 -0.1279 -0.3977
  117SOPE   H3R12297   1.241   5.885   6.107 -0.5963 -0.1273 -0.4780
  117SOPE   H3S12298   1.172   5.726   6.101  0.4206 -2.2464  0.1751
  117SOPE   C2412299   1.350   5.736   5.984 -0.3279 -0.1541  0.5686
  117SOPE   H4R12300   1.455   5.771   5.996 -0.5194  0.8476 -0.4906
  117SOPE   H4S12301   1.354   5.626   5.973 -0.1909 -0.1563  0.6245
  117SOPE   C2512302   1.291   5.805   5.855  0.2384  0.3400 -0.3782
  117SOPE   H5R12303   1.186   5.771   5.844  0.0493  1.1253 -1.1173
  117SOPE   H5S12304   1.281   5.915   5.865  0.0532  0.3042 -0.1558
  117SOPE   C2612305   1.367   5.783   5.726  0.1204  0.3176 -0.6190
  117SOPE   H6R12306   1.466   5.831   5.742 -0.7731  1.7975  0.7648
  117SOPE   H6S12307   1.376   5.673   5.713  0.4118  0.2464  0.1465
  117SOPE   C2712308   1.305   5.839   5.600  0.2662 -0.0869  0.2071
  117SOPE   H7R12309   1.251   5.930   5.634  0.7523  0.8471 -1.4137
  117SOPE   H7S12310   1.390   5.867   5.534  0.4795 -0.7828  0.1820
  117SOPE   C2812311   1.212   5.752   5.512  0.1665 -0.3269  0.0322
  117SOPE   H8R12312   1.251   5.652   5.482 -2.2839 -1.7467  1.1904
  117SOPE   H8S12313   1.120   5.726   5.570 -1.8699 -1.2486 -3.2980
  117SOPE   C2912314   1.158   5.838   5.395  0.1880 -0.5319  0.8353
  117SOPE   H9112315   1.061   5.887   5.413  0.0781  0.1092 -1.2391
  117SOPE  C21012316   1.224   5.854   5.277  0.0088 -0.1511 -0.1788
  117SOPE  H10112317   1.174   5.913   5.198 -1.0036  1.0511  1.3043
  117SOPE  C21112318   1.351   5.783   5.240  0.1347  0.0821  0.3375
  117SOPE  H11R12319   1.336   5.693   5.176  2.9907 -0.9357  0.9469
  117SOPE  H11S12320   1.397   5.736   5.330 -1.0115 -2.3452 -0.2635
  117SOPE  C21212321   1.454   5.856   5.157  0.0031 -0.2989 -0.0677
  117SOPE  H12R12322   1.537   5.783   5.149  0.6470  0.4099 -0.0215
  117SOPE  H12S12323   1.497   5.945   5.207  1.7641 -1.1990  0.0953
  117SOPE  C21312324   1.412   5.899   5.019  0.6548 -0.2678  0.2519
  117SOPE  H13R12325   1.334   5.978   5.015  0.0965 -0.7789  0.7690
  117SOPE  H13S12326   1.362   5.809   4.977  1.1737 -1.0839  1.3316
  117SOPE  C21412327   1.526   5.947   4.930 -0.0447 -0.2755 -0.1319
  117SOPE  H14R12328   1.583   5.854   4.910  0.0197 -0.1677 -0.4571
  117SOPE  H14S12329   1.592   6.022   4.979 -3.0871  1.4771  1.5456
  117SOPE  C21512330   1.475   6.005   4.796 -0.0491  0.5170 -0.2657
  117SOPE  H15R12331   1.403   6.083   4.828  0.7607  0.6026  1.4602
  117SOPE  H15S12332   1.416   5.929   4.741  2.7060 -3.3515  1.6632
  117SOPE  C21612333   1.580   6.068   4.700  0.5850  0.0489 -0.3591
  117SOPE  H16R12334   1.623   6.148   4.765 -1.0771  2.2009 -1.7993
  117SOPE  H16S12335   1.528   6.119   4.617  0.1072  0.4924  0.2065
  117SOPE  C21712336   1.689   5.986   4.638 -0.0004  0.0972 -0.2902
  117SOPE  H17R12337   1.643   5.906   4.576  1.8726 -1.1080 -0.1794
  117SOPE  H17S12338   1.743   5.932   4.719 -0.9234 -0.1535  0.1719
  117SOPE  C21812339   1.795   6.069   4.566  0.1925 -0.0016 -0.1691
  117SOPE  H18R12340   1.840   6.142   4.637 -0.1867  0.5951 -0.5380
  117SOPE  H18S12341   1.766   6.134   4.481  1.0830  1.2264  0.4365
  117SOPE  H18T12342   1.878   6.004   4.532 -0.1515 -0.4473 -0.1813
  117SOPE   C3312343   1.861   5.758   5.932 -0.9631  0.7466  0.4046
  117SOPE   H3X12344   1.896   5.857   5.968 -1.3695  0.4158  1.7719
  117SOPE   H3Y12345   1.754   5.751   5.961 -1.0020 -0.7225  0.0217
  117SOPE   C3412346   1.895   5.768   5.777 -0.4959 -0.5248 -0.4860
  117SOPE   H4X12347   1.877   5.669   5.731  0.6953 -1.5307  1.1111
  117SOPE   H4Y12348   2.000   5.798   5.758 -0.1336 -2.1857 -1.2281
  117SOPE   C3512349   1.807   5.865   5.701 -0.9508  1.2626  0.1580
  117SOPE   H5X12350   1.825   5.961   5.754 -0.1576  0.7620  0.8158
  117SOPE   H5Y12351   1.701   5.838   5.720 -0.8859 -0.8514 -2.0865
  117SOPE   C3612352   1.832   5.885   5.557 -0.0965  0.3938  0.6122
  117SOPE   H6X12353   1.942   5.874   5.542 -0.4028 -0.9719 -0.8888
  117SOPE   H6Y12354   1.792   5.982   5.521  1.6969  0.5721 -1.0997
  117SOPE   C3712355   1.760   5.779   5.466  0.0008  0.5529  0.4263
  117SOPE   H7X12356   1.651   5.799   5.472  0.0644  0.5579  1.7302
  117SOPE   H7Y12357   1.777   5.682   5.518  0.8933  0.0112 -0.8119
  117SOPE   C3812358   1.808   5.763   5.323 -0.0491 -0.0622  0.5831
  117SOPE   H8X12359   1.744   5.706   5.253 -0.2859  1.7750 -0.7908
  117SOPE   H8Y12360   1.911   5.724   5.336  0.0577 -0.6427 -1.6356
  117SOPE   C3912361   1.815   5.903   5.249  0.7526  0.4497 -0.1279
  117SOPE   H9X12362   1.870   5.980   5.306  0.1896  1.4270 -0.8860
  117SOPE   H9Y12363   1.716   5.949   5.231  1.3894  0.8494 -3.0156
  117SOPE  C31012364   1.873   5.886   5.110  0.3551 -0.5606 -0.8499
  117SOPE  H10X12365   1.861   5.977   5.048  0.5711 -0.0609 -0.1626
  117SOPE  H10Y12366   1.822   5.807   5.050  0.8211 -0.8101 -0.9197
  117SOPE  C31112367   2.030   5.863   5.104  0.8344 -0.1871  0.6683
  117SOPE  H11X12368   2.062   5.764   5.142  0.9030  0.0361  1.2033
  117SOPE  H11Y12369   2.070   5.940   5.174 -2.6693  1.7549  0.7580
  117SOPE  C31212370   2.093   5.885   4.970  0.4733  0.1038  0.2190
  117SOPE  H12X12371   2.069   5.987   4.933 -3.2223 -1.1500 -1.2037
  117SOPE  H12Y12372   2.058   5.817   4.890  0.9380 -0.9401  0.8756
  117SOPE  C31312373   2.242   5.863   4.981  0.4919 -0.2246  0.6527
  117SOPE  H13X12374   2.268   5.755   4.985 -1.3349 -0.6667  2.0447
  117SOPE  H13Y12375   2.269   5.916   5.075 -0.3376  0.9836  0.2438
  117SOPE  C31412376   2.325   5.937   4.875  0.9958 -1.2658  0.0042
  117SOPE  H14X12377   2.431   5.941   4.909  0.9723 -0.6105  0.0239
  117SOPE  H14Y12378   2.284   6.041   4.872  1.3304 -1.1524 -1.0828
  117SOPE  C31512379   2.303   5.886   4.731 -0.1571  0.2039 -0.3022
  117SOPE  H15X12380   2.197   5.888   4.698 -0.7997 -0.5020  1.5972
  117SOPE  H15Y12381   2.329   5.779   4.714 -1.1564  0.0082 -0.6798
  117SOPE  C31612382   2.390   5.964   4.642  0.5231 -0.5536  0.2953
  117SOPE  H16X12383   2.496   5.966   4.676  1.3313  0.8671 -2.0537
  117SOPE  H16Y12384   2.361   6.071   4.632  1.8660 -0.2623 -0.7402
  117SOPE  C31712385   2.390   5.918   4.494 -0.3003  0.3369 -0.6601
  117SOPE  H17X12386   2.285   5.898   4.464 -0.0036  0.8308 -2.0773
  117SOPE  H17Y12387   2.442   5.821   4.481  1.6064  1.3113 -0.6626
  117SOPE  C31812388   2.439   6.018   4.400 -0.4421 -0.3229  0.7563
  117SOPE  H18X12389   2.549   6.036   4.408 -0.1539 -0.8433 -1.4505
  117SOPE  H18Y12390   2.391   6.118   4.408  0.4898  0.2604 -0.4923
  117SOPE  H18Z12391   2.425   5.984   4.295 -0.5672  1.4616  0.1575
  118SOPE     N12392   2.398   3.719   6.535 -0.4512  0.1694  0.0624
  118SOPE   HN112393   2.492   3.678   6.553 -1.5572 -2.9244 -0.4957
  118SOPE   HN212394   2.332   3.663   6.593 -0.8890  2.0788  1.4840
  118SOPE   HN312395   2.382   3.702   6.433 -0.0560 -0.6843  0.1333
  118SOPE   C1212396   2.390   3.870   6.566 -0.5505  0.4029 -0.3680
  118SOPE  H12A12397   2.465   3.936   6.518  0.1514  0.4829  0.8108
  118SOPE  H12B12398   2.403   3.874   6.676 -3.0073  2.1783 -0.0560
  118SOPE   C1112399   2.250   3.924   6.538  0.5553  0.8384 -0.7002
  118SOPE  H11A12400   2.257   4.032   6.562  3.0974  1.3851 -3.3291
  118SOPE  H11B12401   2.183   3.880   6.614  0.1480 -0.5790 -1.8373
  118SOPE     P12402   2.227   3.971   6.279  0.3607  0.0272  0.0623
  118SOPE   O1312403   2.110   3.953   6.188 -0.2487  0.3871  0.1121
  118SOPE   O1412404   2.356   3.933   6.220  0.0169 -0.2578 -0.1753
  118SOPE   O1212405   2.197   3.884   6.410 -0.0572  0.4433  1.2162
  118SOPE   O1112406   2.233   4.124   6.333  0.0311  0.1587 -0.2010
  118SOPE    C112407   2.132   4.219   6.299  0.0328  0.1145  0.5349
  118SOPE    HA12408   2.163   4.317   6.340  0.4125  0.1714  0.1237
  118SOPE    HB12409   2.029   4.194   6.331 -1.0480  0.7197 -2.2250
  118SOPE    C212410   2.123   4.245   6.144  0.4023  0.7936 -0.2532
  118SOPE    HS12411   2.052   4.168   6.106 -2.1137  2.6995  0.3134
  118SOPE   O2112412   2.258   4.253   6.087 -0.3691 -0.5770  0.5184
  118SOPE   C2112413   2.259   4.230   5.957 -0.0077 -0.2969  0.0234
  118SOPE   O2212414   2.177   4.176   5.889  0.0012 -0.1637  0.0459
  118SOPE   C2212415   2.379   4.311   5.905 -0.4929  0.2220  0.0197
  118SOPE   H2R12416   2.472   4.261   5.938  1.1576  3.2415  0.2660
  118SOPE   H2S12417   2.366   4.411   5.952 -3.9057  0.6030 -1.3702
  118SOPE    C312418   2.050   4.378   6.123  0.4707 -0.2374 -0.3687
  118SOPE    HX12419   2.105   4.468   6.158 -2.1276  2.2883 -2.2487
  118SOPE    HY12420   1.957   4.382   6.183  0.2171 -0.1438 -0.7599
  118SOPE   O3112421   2.023   4.400   5.979  0.1727  0.2369  0.2024
  118SOPE   C3112422   1.920   4.334   5.926  0.1017 -0.0681 -1.0242
  118SOPE   O3212423   1.850   4.252   5.989 -0.2543 -0.2496 -0.3485
  118SOPE   C3212424   1.913   4.351   5.782 -0.6901  0.0568 -0.8570
  118SOPE   H2X12425   2.009   4.329   5.731  0.3427  0.8357  0.7186
  118SOPE   H2Y12426   1.877   4.456   5.773  0.0659  0.4743  0.7751
  118SOPE   C2312427   2.375   4.339   5.750  0.6471 -0.0132 -0.1229
  118SOPE   H3R12428   2.447   4.419   5.721  2.2605 -1.2637  0.2855
  118SOPE   H3S12429   2.269   4.363   5.730  0.6096 -0.9788 -1.1875
  118SOPE   C2412430   2.403   4.211   5.666  0.1474 -0.7409  0.1239
  118SOPE   H4R12431   2.504   4.175   5.696 -0.3106 -3.4886 -1.2911
  118SOPE   H4S12432   2.339   4.132   5.708  0.3026 -0.1436  1.5337
  118SOPE   C2512433   2.376   4.228   5.518 -0.4754 -0.4163 -0.5899
  118SOPE   H5R12434   2.428   4.319   5.481 -1.6546  0.8834  0.8122
  118SOPE   H5S12435   2.416   4.144   5.456 -0.3874 -0.5636 -0.3379
  118SOPE   C2612436   2.228   4.243   5.481  0.3538 -0.4476  0.1465
  118SOPE   H6R12437   2.166   4.160   5.519 -1.9432  1.3322  0.5322
  118SOPE   H6S12438   2.182   4.337   5.519  1.0473  1.7710 -3.9514
  118SOPE   C2712439   2.215   4.269   5.329 -0.6274  1.4555  0.7230
  118SOPE   H7R12440   2.113   4.301   5.300 -0.3131  0.0022 -2.2936
  118SOPE   H7S12441   2.291   4.345   5.301  1.3019 -0.5581  0.1629
  118SOPE   C2812442   2.231   4.144   5.241  0.1224 -0.1993 -0.2639
  118SOPE   H8R12443   2.337   4.112   5.254  0.7743  1.9765  0.0919
  118SOPE   H8S12444   2.161   4.067   5.282 -0.0922  1.1943  2.1640
  118SOPE   C2912445   2.199   4.181   5.102 -0.3667 -0.7724  0.5598
  118SOPE   H9112446   2.136   4.269   5.084 -1.0664 -1.7737 -2.4925
  118SOPE  C21012447   2.261   4.130   4.999 -0.1732 -0.0130 -0.1296
  118SOPE  H10112448   2.249   4.182   4.903  2.5369  2.5994  0.7840
  118SOPE  C21112449   2.356   4.013   4.995  0.7158  0.5086  0.8190
  118SOPE  H11R12450   2.351   3.968   5.096 -0.5453  1.1555  1.0610
  118SOPE  H11S12451   2.461   4.044   4.977  0.6375  1.4526  1.8732
  118SOPE  C21212452   2.331   3.900   4.888 -0.0182 -1.1456  0.0357
  118SOPE  H12R12453   2.243   3.841   4.920 -0.6968  0.9855  2.4244
  118SOPE  H12S12454   2.422   3.836   4.880  0.8305 -0.1481  1.2923
  118SOPE  C21312455   2.313   3.957   4.739  0.1583 -0.0930  0.1846
  118SOPE  H13R12456   2.399   4.022   4.713 -1.1190  2.1036  1.1408
  118SOPE  H13S12457   2.219   4.016   4.733  1.0250  1.2248 -3.9212
  118SOPE  C21412458   2.296   3.830   4.648  0.2898  1.4431  0.3879
  118SOPE  H14R12459   2.230   3.759   4.701 -0.3135  1.6022 -0.1353
  118SOPE  H14S12460   2.394   3.779   4.633 -0.0122  0.2862  2.1259
  118SOPE  C21512461   2.236   3.865   4.516  0.2750 -0.0325  0.7562
  118SOPE  H15R12462   2.317   3.917   4.460  0.5800  0.1224  1.3340
  118SOPE  H15S12463   2.152   3.932   4.542 -0.2405  0.2491 -1.4416
  118SOPE  C21612464   2.188   3.746   4.431  0.1325  0.1165  0.2884
  118SOPE  H16R12465   2.279   3.686   4.410  0.7571  0.1685  2.5757
  118SOPE  H16S12466   2.150   3.784   4.334 -0.2510  2.0007  1.1405
  118SOPE  C21712467   2.079   3.665   4.503 -0.3646  0.0375  0.3398
  118SOPE  H17R12468   1.986   3.722   4.523 -0.4710  0.0785 -0.2475
  118SOPE  H17S12469   2.124   3.632   4.599 -0.6675  0.1696  0.5249
  118SOPE  C21812470   2.036   3.536   4.433 -0.0808 -0.1836  0.2892
  118SOPE  H18R12471   2.032   3.451   4.504  1.1862 -1.0224 -0.5843
  118SOPE  H18S12472   2.100   3.512   4.345 -1.1627 -0.1334 -0.5282
  118SOPE  H18T12473   1.941   3.558   4.380 -2.2648  0.6346  4.2336
  118SOPE   C3312474   1.809   4.267   5.721  0.1109 -0.1382 -0.5776
  118SOPE   H3X12475   1.706   4.299   5.746  0.2967  1.0029 -1.1620
  118SOPE   H3Y12476   1.826   4.165   5.762 -1.5764  0.3635  1.5004
  118SOPE   C3412477   1.811   4.269   5.563  0.2405  0.0486 -0.4679
  118SOPE   H4X12478   1.754   4.180   5.529  0.3841 -0.5188  0.7341
  118SOPE   H4Y12479   1.920   4.268   5.543  0.8118 -0.8748  2.2189
  118SOPE   C3512480   1.760   4.401   5.500  0.2415 -0.7905  0.8906
  118SOPE   H5X12481   1.785   4.486   5.567 -1.7925  1.5741 -1.1336
  118SOPE   H5Y12482   1.650   4.391   5.504  0.2391 -0.5763  1.6639
  118SOPE   C3612483   1.819   4.422   5.360  0.2424 -0.6659  0.3169
  118SOPE   H6X12484   1.929   4.411   5.351  0.2921  0.8584 -1.6692
  118SOPE   H6Y12485   1.801   4.526   5.325  0.9754 -0.1813  1.3265
  118SOPE   C3712486   1.768   4.329   5.253  0.2422 -0.4150  0.4901
  118SOPE   H7X12487   1.659   4.332   5.274 -0.1672  0.2183 -1.4552
  118SOPE   H7Y12488   1.817   4.230   5.254  2.6764  0.6538 -1.5493
  118SOPE   C3812489   1.792   4.382   5.111  0.1235 -0.1630  0.0511
  118SOPE   H8X12490   1.895   4.379   5.070 -0.5244  0.8991 -1.7817
  118SOPE   H8Y12491   1.750   4.484   5.103 -0.3360 -0.3137  0.5208
  118SOPE   C3912492   1.703   4.302   5.009 -0.3661 -0.5920  0.2612
  118SOPE   H9X12493   1.596   4.323   5.031  0.0869  1.6243  0.6825
  118SOPE   H9Y12494   1.723   4.195   5.029  1.6878 -0.5582 -1.2996
  118SOPE  C31012495   1.729   4.320   4.859  0.0359  0.8844 -0.5870
  118SOPE  H10X12496   1.689   4.420   4.829 -2.1937  0.5668  1.0902
  118SOPE  H10Y12497   1.676   4.238   4.806  3.3371 -0.6407 -1.8079
  118SOPE  C31112498   1.875   4.314   4.816  0.4726 -0.7335 -0.2052
  118SOPE  H11X12499   1.910   4.216   4.853  2.1296  0.1497  0.6737
  118SOPE  H11Y12500   1.938   4.395   4.858 -0.1494 -0.1316 -0.4028
  118SOPE  C31212501   1.881   4.307   4.659 -0.5556  0.8829  0.2378
  118SOPE  H12X12502   1.818   4.387   4.615 -1.3855  0.1775  0.1079
  118SOPE  H12Y12503   1.828   4.216   4.623 -0.9694  1.2041  0.0197
  118SOPE  C31312504   2.028   4.299   4.607 -0.1677  0.0548 -0.2469
  118SOPE  H13X12505   2.085   4.240   4.681 -0.1473 -0.6012 -0.7839
  118SOPE  H13Y12506   2.071   4.402   4.611  0.9992 -0.4109 -0.6297
  118SOPE  C31412507   2.036   4.237   4.468 -0.4890 -0.1999  0.1213
  118SOPE  H14X12508   1.987   4.308   4.397 -1.5969  1.1357  2.1218
  118SOPE  H14Y12509   1.983   4.140   4.457  0.8630 -1.1485  1.6509
  118SOPE  C31512510   2.190   4.207   4.432  0.8058  0.6673  0.2547
  118SOPE  H15X12511   2.220   4.127   4.502  0.0711  0.0837 -0.0829
  118SOPE  H15Y12512   2.250   4.301   4.427 -1.0263  1.8882  0.0273
  118SOPE  C31612513   2.198   4.143   4.291  1.2479  0.5644  0.6606
  118SOPE  H16X12514   2.123   4.061   4.287  2.9713 -1.0101 -0.6427
  118SOPE  H16Y12515   2.292   4.087   4.274  0.9930  0.5410 -0.7983
  118SOPE  C31712516   2.182   4.245   4.174  0.8832  0.0086 -0.5231
  118SOPE  H17X12517   2.249   4.333   4.187  2.3278 -1.0917 -0.2931
  118SOPE  H17Y12518   2.087   4.302   4.182  1.2109  0.9618 -2.5669
  118SOPE  C31812519   2.198   4.185   4.040 -0.1861 -0.4531  0.5821
  118SOPE  H18X12520   2.293   4.131   4.023  0.8543  0.5133  2.8697
  118SOPE  H18Y12521   2.180   4.255   3.956 -1.8165 -0.4999  0.8539
  118SOPE  H18Z12522   2.121   4.105   4.031  1.1315 -1.8296  1.2708
  119SOPE     N12523   2.410   0.054   6.515  0.3967  0.1158  0.3007
  119SOPE   HN112524   2.498   0.072   6.464  0.0181  0.3657 -0.2731
  119SOPE   HN212525   2.411  -0.047   6.540  0.9595 -0.5086 -2.0241
  119SOPE   HN312526   2.336   0.086   6.449  0.2211 -0.7617  0.0630
  119SOPE   C1212527   2.383   0.139   6.639  0.0127  0.4777 -0.2077
  119SOPE  H12A12528   2.466   0.119   6.710 -1.2655 -0.2296  1.1425
  119SOPE  H12B12529   2.288   0.102   6.682 -0.3406 -0.0851 -1.4203
  119SOPE   C1112530   2.377   0.285   6.598 -0.2303  0.3294 -0.7713
  119SOPE  H11A12531   2.352   0.338   6.692  0.9351 -1.0984  0.4031
  119SOPE  H11B12532   2.302   0.317   6.522 -0.6963  0.8698 -0.0906
  119SOPE     P12533   2.622   0.368   6.655  0.2001  0.0889  0.4190
  119SOPE   O1312534   2.708   0.247   6.671  0.4022  0.1416  0.6046
  119SOPE   O1412535   2.565   0.422   6.778 -0.8221 -0.1362  0.6788
  119SOPE   O1212536   2.505   0.324   6.558 -0.2607 -0.4757 -0.3960
  119SOPE   O1112537   2.702   0.473   6.574  0.6224 -0.4385  0.5645
  119SOPE    C112538   2.646   0.588   6.518  0.4102 -0.1470  0.0960
  119SOPE    HA12539   2.667   0.677   6.581 -0.0222  0.0846 -0.0878
  119SOPE    HB12540   2.537   0.579   6.501  0.4503 -1.4468  0.4575
  119SOPE    C212541   2.712   0.615   6.381 -0.4012 -0.8110 -0.0443
  119SOPE    HS12542   2.823   0.618   6.395 -0.4779  2.2018  0.4622
  119SOPE   O2112543   2.665   0.748   6.329 -0.2721 -0.3597  0.8715
  119SOPE   C2112544   2.758   0.817   6.255 -0.5544 -0.2168 -0.3196
  119SOPE   O2212545   2.876   0.797   6.243  0.1079  0.0504  0.2492
  119SOPE   C2212546   2.685   0.916   6.168  0.0412 -0.3329 -0.4311
  119SOPE   H2R12547   2.748   1.006   6.150  0.7393 -0.3628  1.5759
  119SOPE   H2S12548   2.603   0.949   6.235  0.1447 -1.4090  0.2536
  119SOPE    C312549   2.681   0.497   6.283 -0.4660  0.4046  0.0961
  119SOPE    HX12550   2.570   0.490   6.271 -0.2293  0.3292 -2.7620
  119SOPE    HY12551   2.717   0.398   6.318 -1.4188 -0.8906 -2.3744
  119SOPE   O3112552   2.724   0.524   6.144  0.2193  0.0419 -0.0666
  119SOPE   C3112553   2.858   0.518   6.120 -0.2915 -0.2569  0.2108
  119SOPE   O3212554   2.946   0.489   6.199 -0.2765 -0.2763 -0.2648
  119SOPE   C3212555   2.886   0.539   5.974 -0.1765 -0.0365 -0.2794
  119SOPE   H2X12556   2.816   0.611   5.927 -1.0019 -1.2495 -0.9703
  119SOPE   H2Y12557   2.870   0.442   5.923  0.6660  1.1080 -2.9165
  119SOPE   C2312558   2.633   0.854   6.040 -0.4509 -0.0799 -0.0124
  119SOPE   H3R12559   2.575   0.768   6.079 -1.4443  0.7502  0.4224
  119SOPE   H3S12560   2.716   0.819   5.975  1.2725  0.1272  2.0004
  119SOPE   C2412561   2.548   0.963   5.963 -0.0192 -0.6090 -0.3105
  119SOPE   H4R12562   2.465   1.001   6.025 -0.2471 -1.9949  0.2629
  119SOPE   H4S12563   2.613   1.046   5.928  0.8708 -0.8357  0.7443
  119SOPE   C2512564   2.481   0.909   5.840  0.0862 -0.0944  0.1466
  119SOPE   H5R12565   2.393   0.845   5.861  0.8175 -1.6514 -1.2748
  119SOPE   H5S12566   2.442   0.998   5.787  0.8969 -0.1849 -0.6249
  119SOPE   C2612567   2.569   0.827   5.743 -0.0868 -0.7266 -0.0304
  119SOPE   H6R12568   2.607   0.734   5.790  0.9306 -0.2052  0.2117
  119SOPE   H6S12569   2.515   0.804   5.649  0.3076 -1.8497 -0.0031
  119SOPE   C2712570   2.695   0.905   5.703  0.5054 -0.6680  0.1369
  119SOPE   H7R12571   2.747   0.934   5.797  0.4174 -1.7247  0.5215
  119SOPE   H7S12572   2.764   0.838   5.647  0.7192 -1.1514  0.9623
  119SOPE   C2812573   2.660   1.027   5.612 -0.4586 -0.0257  0.2463
  119SOPE   H8R12574   2.601   0.990   5.526  0.0088  1.3477 -0.7175
  119SOPE   H8S12575   2.587   1.091   5.667  0.5578  1.7669 -0.3735
  119SOPE   C2912576   2.792   1.088   5.564 -0.1930 -0.7845  0.4261
  119SOPE   H9112577   2.868   1.119   5.637  0.9289  1.5333 -1.5906
  119SOPE  C21012578   2.818   1.112   5.432 -0.4886  0.1496 -0.2652
  119SOPE  H10112579   2.909   1.167   5.405 -0.9890  1.5669  0.7810
  119SOPE  C21112580   2.732   1.084   5.316 -0.1874  0.7200  0.0867
  119SOPE  H11R12581   2.623   1.098   5.330 -0.1736  1.1630 -0.2304
  119SOPE  H11S12582   2.748   0.976   5.294  1.0914  0.6662  1.1055
  119SOPE  C21212583   2.786   1.168   5.199 -0.6463  0.0917 -0.2057
  119SOPE  H12R12584   2.779   1.277   5.222  0.9204  0.3365 -0.7383
  119SOPE  H12S12585   2.722   1.151   5.110 -2.6261  2.2623  0.6873
  119SOPE  C21312586   2.931   1.125   5.152  0.7431  0.1540 -0.2579
  119SOPE  H13R12587   2.933   1.015   5.145  2.6012  0.2763 -2.8915
  119SOPE  H13S12588   3.001   1.151   5.235 -0.2107  2.2558 -0.0320
  119SOPE  C21412589   2.964   1.188   5.022 -0.2453 -0.4809  0.7569
  119SOPE  H14R12590   2.968   1.298   5.037 -0.0065 -0.2194 -1.0578
  119SOPE  H14S12591   2.886   1.160   4.948  0.3921  0.0089 -0.1096
  119SOPE  C21512592   3.103   1.148   4.977 -0.2471  0.7169 -1.1258
  119SOPE  H15R12593   3.105   1.039   4.957 -0.6801  0.7543 -1.3825
  119SOPE  H15S12594   3.172   1.171   5.062 -0.8352  1.0662 -0.7398
  119SOPE  C21612595   3.152   1.227   4.854  0.3013  0.1132 -0.6004
  119SOPE  H16R12596   3.255   1.192   4.833 -0.1016 -0.2936 -1.9782
  119SOPE  H16S12597   3.151   1.337   4.867  0.1960  0.0686 -0.2216
  119SOPE  C21712598   3.069   1.196   4.730 -0.0495 -0.1511  0.3519
  119SOPE  H17R12599   2.963   1.222   4.752 -1.1131 -2.7604 -1.1976
  119SOPE  H17S12600   3.077   1.086   4.713 -0.9438  0.0312 -1.4906
  119SOPE  C21812601   3.125   1.266   4.603  0.3861  0.4218 -0.0698
  119SOPE  H18R12602   3.062   1.262   4.511 -0.4711 -0.9685  0.5577
  119SOPE  H18S12603   3.225   1.225   4.577  0.3956 -1.9453  3.1667
  119SOPE  H18T12604   3.154   1.372   4.622  1.5429  0.2876 -1.0006
  119SOPE   C3312605   3.026   0.599   5.953 -0.7021 -0.4820  0.1689
  119SOPE   H3X12606   3.106   0.545   6.009 -1.5945 -1.2936  0.6789
  119SOPE   H3Y12607   3.035   0.702   5.992  0.2255 -0.2678 -0.5553
  119SOPE   C3412608   3.065   0.615   5.798 -0.2089 -0.0090 -0.3846
  119SOPE   H4X12609   3.117   0.713   5.788 -3.1554  1.6835 -0.4122
  119SOPE   H4Y12610   2.968   0.614   5.743 -1.5054 -1.7331  1.7817
  119SOPE   C3512611   3.147   0.503   5.736  0.3444  0.3722  0.0380
  119SOPE   H5X12612   3.111   0.403   5.770  0.4766  0.7430  1.3517
  119SOPE   H5Y12613   3.250   0.511   5.777 -0.1155  0.1407  1.2910
  119SOPE   C3612614   3.164   0.504   5.579 -0.7502  0.1118  0.2856
  119SOPE   H6X12615   3.062   0.518   5.537 -0.8259  0.0570  0.4482
  119SOPE   H6Y12616   3.191   0.399   5.553 -1.6543 -0.3107  0.9718
  119SOPE   C3712617   3.263   0.608   5.521 -0.8799 -0.8005  0.0787
  119SOPE   H7X12618   3.356   0.592   5.580 -1.9533 -0.0042  2.0988
  119SOPE   H7Y12619   3.218   0.709   5.528 -0.8891 -0.4347 -3.5340
  119SOPE   C3812620   3.289   0.581   5.372 -0.1285  0.0183 -0.4452
  119SOPE   H8X12621   3.193   0.572   5.316 -0.9214 -0.5416  0.9506
  119SOPE   H8Y12622   3.343   0.484   5.379  1.5185  0.8528 -1.1795
  119SOPE   C3912623   3.381   0.678   5.311 -0.1704  0.2504  1.1657
  119SOPE   H9X12624   3.447   0.732   5.382  0.8534 -0.6550  0.9207
  119SOPE   H9Y12625   3.313   0.755   5.268 -0.1475 -0.7828 -0.8654
  119SOPE  C31012626   3.472   0.610   5.204  0.0374  0.5714  0.4737
  119SOPE  H10X12627   3.420   0.529   5.149  0.8453  1.6086 -1.9296
  119SOPE  H10Y12628   3.560   0.560   5.251  0.0618  0.4510  0.3006
  119SOPE  C31112629   3.548   0.705   5.105  0.1304  0.2039 -0.1536
  119SOPE  H11X12630   3.626   0.759   5.163 -0.1328  1.3607 -0.8270
  119SOPE  H11Y12631   3.474   0.778   5.065 -0.4882 -0.2631  0.1025
  119SOPE  C31212632   3.594   0.627   4.984 -0.5126  0.4147  0.9922
  119SOPE  H12X12633   3.498   0.592   4.941 -0.3714  0.2875  0.7803
  119SOPE  H12Y12634   3.642   0.533   5.017 -0.6215  0.7210  2.0632
  119SOPE  C31312635   3.677   0.706   4.880 -0.1033  0.6518 -0.2186
  119SOPE  H13X12636   3.722   0.633   4.809 -3.2785 -0.6352 -1.0654
  119SOPE  H13Y12637   3.758   0.752   4.942  0.7225  1.7746 -2.0669
  119SOPE  C31412638   3.589   0.806   4.809 -0.4992  0.2125  0.0565
  119SOPE  H14X12639   3.549   0.876   4.885  0.1015  0.4619  0.1519
  119SOPE  H14Y12640   3.501   0.748   4.772  1.1808 -2.3222 -0.2470
  119SOPE  C31512641   3.654   0.861   4.682 -0.1030 -0.3222 -0.0943
  119SOPE  H15X12642   3.641   0.782   4.604  1.1147 -0.3632 -0.2705
  119SOPE  H15Y12643   3.764   0.869   4.697 -0.0463 -0.9691 -0.1449
  119SOPE  C31612644   3.591   0.998   4.631  0.1401  0.0768  0.5893
  119SOPE  H16X12645   3.564   1.061   4.719 -1.6467 -0.4282  0.4396
  119SOPE  H16Y12646   3.493   0.973   4.586 -0.7266  2.8506  0.6942
  119SOPE  C31712647   3.672   1.083   4.525  0.0207  0.3172 -0.1326
  119SOPE  H17X12648   3.735   1.008   4.472  1.2808 -0.7522  2.6786
  119SOPE  H17Y12649   3.748   1.140   4.583 -0.3302  0.1709  0.4811
  119SOPE  C31812650   3.584   1.186   4.451  0.4032 -0.0279  0.4968
  119SOPE  H18X12651   3.532   1.247   4.529  0.5086  1.3684 -0.4940
  119SOPE  H18Y12652   3.513   1.147   4.375  2.0775  0.4560 -1.3992
  119SOPE  H18Z12653   3.653   1.253   4.395  1.5329 -2.8497 -1.7738
  120SOPE     N12654   5.364   5.365   6.332 -0.3899  0.6206 -0.5394
  120SOPE   HN112655   5.383   5.436   6.259 -1.1740  1.3156 -0.0860
  120SOPE   HN212656   5.439   5.294   6.323 -1.4796 -0.5804 -0.5481
  120SOPE   HN312657   5.272   5.316   6.324 -0.8040  0.8424  1.9899
  120SOPE   C1212658   5.380   5.434   6.459  0.7130  0.1389  0.5653
  120SOPE  H12A12659   5.490   5.436   6.476  0.7750  1.2981  0.1363
  120SOPE  H12B12660   5.319   5.375   6.531  1.6495 -0.0841  1.1992
  120SOPE   C1112661   5.320   5.579   6.450 -0.2262  0.1936  0.8696
  120SOPE  H11A12662   5.364   5.630   6.539 -2.7328  2.1824  1.0953
  120SOPE  H11B12663   5.210   5.575   6.463 -0.5231  1.9380 -0.6519
  120SOPE     P12664   5.388   5.809   6.325  0.8007 -0.0588  0.1456
  120SOPE   O1312665   5.493   5.817   6.222  0.2707 -0.1615 -0.1594
  120SOPE   O1412666   5.421   5.869   6.457 -0.0420  0.4131 -0.5123
  120SOPE   O1212667   5.352   5.654   6.334 -0.3261  0.2655  0.0782
  120SOPE   O1112668   5.252   5.864   6.279 -0.0362 -0.1545  0.1038
  120SOPE    C112669   5.194   5.805   6.156  0.3654 -0.0938 -0.0041
  120SOPE    HA12670   5.083   5.812   6.157  0.3358 -0.2599 -1.2271
  120SOPE    HB12671   5.223   5.697   6.155 -0.3394 -0.3607  2.1241
  120SOPE    C212672   5.243   5.889   6.033 -0.0892 -0.5746 -0.0596
  120SOPE    HS12673   5.353   5.878   6.020 -0.3754 -1.6697 -1.8082
  120SOPE   O2112674   5.204   6.029   6.044 -0.0856  0.5560  0.3294
  120SOPE   C2112675   5.301   6.113   6.093  0.9697  0.3591 -0.0154
  120SOPE   O2212676   5.418   6.089   6.110  0.1768  0.4994  0.0421
  120SOPE   C2212677   5.235   6.242   6.126 -0.1206  0.7175  0.0331
  120SOPE   H2R12678   5.292   6.282   6.213  3.4227  0.5778 -2.0342
  120SOPE   H2S12679   5.126   6.227   6.140 -0.4344 -0.1806 -2.8021
  120SOPE    C312680   5.186   5.843   5.902 -0.6479  0.1878 -0.7490
  120SOPE    HX12681   5.075   5.839   5.910 -0.6708 -2.0255 -1.4839
  120SOPE    HY12682   5.232   5.744   5.879  1.9655  1.2312 -0.4100
  120SOPE   O3112683   5.225   5.943   5.803  0.2470  0.5486 -0.0490
  120SOPE   C3112684   5.340   5.912   5.735  0.5401  0.0176 -0.5589
  120SOPE   O3212685   5.415   5.816   5.758  0.7586 -0.9089  0.1739
  120SOPE   C3212686   5.368   6.014   5.623 -0.0915  0.0735 -0.2051
  120SOPE   H2X12687   5.447   6.087   5.653  1.3385 -1.4731 -0.0209
  120SOPE   H2Y12688   5.276   6.068   5.593  0.3230  0.5752 -0.5878
  120SOPE   C2312689   5.254   6.342   6.017  0.1530  0.2527  0.7833
  120SOPE   H3R12690   5.361   6.360   5.992  0.6514  1.4343  3.5132
  120SOPE   H3S12691   5.201   6.431   6.056  0.9094  1.1212 -0.1359
  120SOPE   C2412692   5.170   6.310   5.895  0.4090 -0.0718 -0.3223
  120SOPE   H4R12693   5.207   6.229   5.828  2.9930  1.8377 -1.3803
  120SOPE   H4S12694   5.067   6.307   5.935  0.8615  0.6781  0.9432
  120SOPE   C2512695   5.176   6.428   5.797 -0.0394 -0.1403 -0.1060
  120SOPE   H5R12696   5.092   6.499   5.812 -0.2839 -0.2511 -0.9231
  120SOPE   H5S12697   5.269   6.486   5.815 -0.7845  1.2522 -0.5884
  120SOPE   C2612698   5.189   6.391   5.650  0.3043  0.0894  0.4394
  120SOPE   H6R12699   5.283   6.331   5.645 -0.2715 -1.2082  3.1580
  120SOPE   H6S12700   5.102   6.328   5.622  0.4332 -0.0173  0.2763
  120SOPE   C2712701   5.191   6.513   5.549  0.2307 -0.1163  0.6346
  120SOPE   H7R12702   5.113   6.587   5.577  0.0884  0.0107 -0.0935
  120SOPE   H7S12703   5.289   6.564   5.562 -0.7698  2.5294 -1.3824
  120SOPE   C2812704   5.172   6.474   5.401  0.0789 -0.4712 -0.1846
  120SOPE   H8R12705   5.081   6.410   5.407 -0.5349  0.0874 -2.4384
  120SOPE   H8S12706   5.138   6.571   5.357 -0.6751 -0.8796 -0.5257
  120SOPE   C2912707   5.287   6.403   5.333 -0.1993 -0.3224 -0.3895
  120SOPE   H9112708   5.349   6.349   5.406  0.0869  0.7091  0.1405
  120SOPE  C21012709   5.324   6.415   5.201 -0.1109 -0.5334 -0.5040
  120SOPE  H10112710   5.411   6.359   5.163  1.5527  1.9481 -0.5762
  120SOPE  C21112711   5.252   6.482   5.086 -0.1628 -0.0126 -0.0534
  120SOPE  H11R12712   5.296   6.583   5.075 -1.4390  0.3106 -3.0642
  120SOPE  H11S12713   5.147   6.499   5.117  0.4034  1.2219  1.3206
  120SOPE  C21212714   5.267   6.405   4.952  0.2294 -0.7066 -0.5314
  120SOPE  H12R12715   5.220   6.304   4.959  3.1113 -2.1476 -0.2479
  120SOPE  H12S12716   5.374   6.381   4.932  0.6619  0.0870  0.7516
  120SOPE  C21312717   5.211   6.478   4.837  0.2077 -0.2314 -0.2885
  120SOPE  H13R12718   5.250   6.582   4.830  2.7104 -1.0769 -0.0443
  120SOPE  H13S12719   5.101   6.463   4.847  0.4403 -1.4191  0.7575
  120SOPE  C21412720   5.275   6.402   4.714  0.3825 -0.1837 -0.1345
  120SOPE  H14R12721   5.270   6.293   4.735  0.1747 -0.0402  0.5857
  120SOPE  H14S12722   5.382   6.428   4.698  0.5898 -0.7697  0.2446
  120SOPE  C21512723   5.193   6.419   4.590  0.0075  0.6173  0.5601
  120SOPE  H15R12724   5.173   6.528   4.589 -0.0953  0.7136 -3.4926
  120SOPE  H15S12725   5.101   6.357   4.599  0.5220 -0.3362 -0.5276
  120SOPE  C21612726   5.262   6.367   4.458  0.6450 -0.0523  0.6656
  120SOPE  H16R12727   5.373   6.362   4.463  0.9111  0.3910 -2.4716
  120SOPE  H16S12728   5.245   6.438   4.375 -0.2964  0.4865  1.3046
  120SOPE  C21712729   5.219   6.233   4.396  0.1429 -0.2049 -0.0960
  120SOPE  H17R12730   5.116   6.244   4.354  0.5779 -1.1745 -1.4698
  120SOPE  H17S12731   5.220   6.152   4.472  1.2533 -1.0240 -0.9584
  120SOPE  C21812732   5.303   6.178   4.281 -0.2534 -0.5266 -0.8015
  120SOPE  H18R12733   5.293   6.239   4.188  0.4497 -1.4738 -1.5165
  120SOPE  H18S12734   5.275   6.073   4.256  0.2323 -0.7266 -0.5146
  120SOPE  H18T12735   5.412   6.169   4.296  0.0746 -0.3795 -2.8338
  120SOPE   C3312736   5.421   5.956   5.498  0.4679  0.4380  0.6239
  120SOPE   H3X12737   5.371   5.860   5.472  1.6114  0.1772 -0.7467
  120SOPE   H3Y12738   5.529   5.931   5.500 -0.0292 -2.2685 -0.7591
  120SOPE   C3412739   5.400   6.047   5.375  0.3173 -0.1198 -0.0410
  120SOPE   H4X12740   5.432   6.151   5.395 -0.2592 -0.2056  1.4356
  120SOPE   H4Y12741   5.291   6.044   5.352  0.1525  0.3357  0.6413
  120SOPE   C3512742   5.455   5.991   5.240  0.0742 -0.4795  0.3332
  120SOPE   H5X12743   5.424   5.885   5.239 -1.5511 -0.0335 -0.4088
  120SOPE   H5Y12744   5.565   5.981   5.230  0.3797  0.8821  1.8393
  120SOPE   C3612745   5.412   6.053   5.101 -0.0358 -0.1364 -0.2873
  120SOPE   H6X12746   5.443   6.157   5.077 -0.9600  0.8643  2.4472
  120SOPE   H6Y12747   5.301   6.051   5.094 -0.0789  2.6145 -2.0405
  120SOPE   C3712748   5.458   5.965   4.986  0.1566  0.2460  0.1321
  120SOPE   H7X12749   5.413   5.864   4.988  1.0607 -0.1588  0.2417
  120SOPE   H7Y12750   5.568   5.960   4.998  0.3034  1.4173 -0.5600
  120SOPE   C3812751   5.429   6.035   4.850 -0.5144  0.0304 -0.0101
  120SOPE   H8X12752   5.492   6.126   4.840 -0.4928  0.0214  0.0435
  120SOPE   H8Y12753   5.326   6.079   4.846  0.5888  2.7467 -1.4111
  120SOPE   C3912754   5.444   5.954   4.725 -0.2741 -0.4581 -0.3186
  120SOPE   H9X12755   5.400   6.015   4.643 -0.9287  0.1396  0.4730
  120SOPE   H9Y12756   5.389   5.858   4.720  0.7203 -1.0699  0.1257
  120SOPE  C31012757   5.589   5.927   4.696  0.0448  0.1686  0.7218
  120SOPE  H10X12758   5.644   5.872   4.776  0.6278 -2.9576 -1.6248
  120SOPE  H10Y12759   5.643   6.022   4.680 -1.3699  0.9178  0.2559
  120SOPE  C31112760   5.589   5.842   4.565 -0.5071 -0.9883  0.3008
  120SOPE  H11X12761   5.508   5.879   4.498  1.4407 -2.3704 -3.1020
  120SOPE  H11Y12762   5.571   5.734   4.587 -1.4956 -1.2009 -1.3975
  120SOPE  C31212763   5.717   5.873   4.481 -0.0937  0.1091 -0.3418
  120SOPE  H12X12764   5.808   5.852   4.540  0.2895  1.0003 -0.5964
  120SOPE  H12Y12765   5.705   5.981   4.458  0.5861  0.4755  0.9784
  120SOPE  C31312766   5.698   5.792   4.353  0.2039  0.5081  0.0351
  120SOPE  H13X12767   5.592   5.803   4.321  0.5979 -1.3690 -2.1978
  120SOPE  H13Y12768   5.697   5.682   4.369  0.2675  0.4334 -0.4587
  120SOPE  C31412769   5.770   5.834   4.231 -0.2166 -0.2607  0.6476
  120SOPE  H14X12770   5.879   5.819   4.252 -0.0304  0.5096  0.2584
  120SOPE  H14Y12771   5.747   5.940   4.212 -4.2521 -1.3708 -1.7003
  120SOPE  C31512772   5.722   5.765   4.105  0.3509 -0.3179 -0.7081
  120SOPE  H15X12773   5.622   5.801   4.074 -0.6424 -1.0884  1.4566
  120SOPE  H15Y12774   5.707   5.657   4.124 -0.6784 -0.0774 -0.1085
  120SOPE  C31612775   5.830   5.781   3.996  0.3425 -0.1768 -0.0550
  120SOPE  H16X12776   5.915   5.732   4.048  0.4536 -1.0956 -1.0585
  120SOPE  H16Y12777   5.852   5.887   3.973 -0.3099  0.0593  0.3920
  120SOPE  C31712778   5.805   5.708   3.869 -0.3524  0.2434  0.2144
  120SOPE  H17X12779   5.739   5.770   3.804 -1.9508 -2.3002 -0.7434
  120SOPE  H17Y12780   5.745   5.616   3.886  0.3134 -0.4511 -1.0947
  120SOPE  C31812781   5.936   5.664   3.798 -0.0335  0.1343 -0.2232
  120SOPE  H18X12782   5.910   5.625   3.697 -1.4869 -0.1916  0.2586
  120SOPE  H18Y12783   5.987   5.584   3.855 -2.3448 -3.2419 -2.4902
  120SOPE  H18Z12784   5.994   5.759   3.801 -1.4157  1.0481 -1.1574
  121SOPE     N12785   6.320   4.279   6.557  0.4079  0.0405  0.4342
  121SOPE   HN112786   6.222   4.315   6.557 -0.5977 -2.5090  0.8637
  121SOPE   HN212787   6.371   4.315   6.640  2.5399  1.1395 -1.2347
  121SOPE   HN312788   6.373   4.312   6.474 -2.3075 -0.5515 -1.6892
  121SOPE   C1212789   6.318   4.130   6.527 -0.2695 -0.4030  0.1117
  121SOPE  H12A12790   6.422   4.102   6.553  1.0031  2.4256 -1.4483
  121SOPE  H12B12791   6.312   4.115   6.417 -0.1170 -0.7559  0.1503
  121SOPE   C1112792   6.218   4.063   6.609  0.0085  0.4235 -0.3286
  121SOPE  H11A12793   6.212   4.093   6.716 -0.0333  0.0074 -0.2141
  121SOPE  H11B12794   6.234   3.954   6.625 -2.4690  0.0274 -0.0983
  121SOPE     P12795   5.986   4.187   6.550 -0.4304 -0.0929 -0.4298
  121SOPE   O1312796   6.041   4.291   6.638 -0.2327 -0.0269  0.0977
  121SOPE   O1412797   5.849   4.148   6.572  0.1574  0.0324  0.3001
  121SOPE   O1212798   6.090   4.065   6.559 -0.0507 -0.0516 -0.4700
  121SOPE   O1112799   6.002   4.240   6.398  0.2928 -0.0794 -0.5290
  121SOPE    C112800   5.961   4.149   6.294  0.1885 -0.3121 -1.3057
  121SOPE    HA12801   5.906   4.198   6.210  2.0767 -2.4536 -3.9649
  121SOPE    HB12802   5.887   4.072   6.325  0.4258  0.6086  1.8428
  121SOPE    C212803   6.079   4.082   6.236 -0.0858 -0.0607 -0.4645
  121SOPE    HS12804   6.145   4.046   6.318  1.2418 -0.2852 -1.5810
  121SOPE   O2112805   6.144   4.179   6.156  0.1847 -0.9133  0.2178
  121SOPE   C2112806   6.273   4.143   6.124  0.0421  0.1365  0.0677
  121SOPE   O2212807   6.333   4.051   6.174 -0.5237  0.7183  0.0371
  121SOPE   C2212808   6.332   4.232   6.014  0.2760  0.0930 -0.4206
  121SOPE   H2R12809   6.317   4.338   6.044 -2.0625 -0.1657 -0.4688
  121SOPE   H2S12810   6.270   4.218   5.923 -1.8067 -0.6506  1.0352
  121SOPE    C312811   6.034   3.964   6.157 -0.1373  0.8701  0.2518
  121SOPE    HX12812   5.988   3.887   6.224 -0.1934  0.9382  0.2912
  121SOPE    HY12813   6.110   3.901   6.105 -0.1526 -0.4070  1.6915
  121SOPE   O3112814   5.926   4.005   6.070 -0.0102 -0.5318 -0.0380
  121SOPE   C3112815   5.955   4.019   5.939 -0.5466  0.0647  0.3861
  121SOPE   O3212816   6.061   3.990   5.883 -0.6254  0.1651 -0.8034
  121SOPE   C3212817   5.833   4.072   5.866  0.8782  0.0071 -0.1311
  121SOPE   H2X12818   5.819   4.181   5.887  1.5156  0.1089 -0.2170
  121SOPE   H2Y12819   5.748   4.009   5.899  1.1700 -0.6652 -0.6547
  121SOPE   C2312820   6.479   4.197   5.973  0.3833 -0.1403 -1.0261
  121SOPE   H3R12821   6.473   4.093   5.935 -0.5755 -1.1392  1.6849
  121SOPE   H3S12822   6.555   4.187   6.053 -0.2469 -0.5143 -0.4604
  121SOPE   C2412823   6.544   4.286   5.871  0.0757  0.5924  0.4639
  121SOPE   H4R12824   6.487   4.281   5.776 -0.4727  2.5774  0.6441
  121SOPE   H4S12825   6.529   4.394   5.894  1.0461  1.5208 -2.7564
  121SOPE   C2512826   6.693   4.262   5.863 -0.8078 -0.2128  0.6294
  121SOPE   H5R12827   6.735   4.260   5.966 -1.3946 -1.4095  0.8641
  121SOPE   H5S12828   6.707   4.162   5.819  0.1267  0.9199 -1.8421
  121SOPE   C2612829   6.769   4.371   5.790 -0.4914  0.2965 -0.1840
  121SOPE   H6R12830   6.753   4.464   5.847 -0.1439  0.3863 -0.2296
  121SOPE   H6S12831   6.878   4.352   5.801 -0.6730 -1.0026 -0.3902
  121SOPE   C2712832   6.732   4.381   5.645  0.0032  0.4804  0.0908
  121SOPE   H7R12833   6.736   4.280   5.599 -3.1600  0.8843 -1.3609
  121SOPE   H7S12834   6.628   4.416   5.626  0.4722  2.1573  0.4249
  121SOPE   C2812835   6.831   4.473   5.570 -0.4220 -0.0178 -0.1823
  121SOPE   H8R12836   6.785   4.515   5.478 -0.3970  0.4583  0.0191
  121SOPE   H8S12837   6.859   4.560   5.632  0.2734 -1.1979  1.2414
  121SOPE   C2912838   6.964   4.406   5.540 -0.2465  0.1959  0.0079
  121SOPE   H9112839   7.036   4.393   5.621  0.3346  0.1942 -0.4981
  121SOPE  C21012840   7.016   4.389   5.417 -0.2509  0.6221  0.5248
  121SOPE  H10112841   7.112   4.339   5.403 -0.9604 -0.4235 -0.8815
  121SOPE  C21112842   6.956   4.410   5.289 -0.4259 -0.6939  0.7446
  121SOPE  H11R12843   6.857   4.461   5.281  0.1412  0.6275  1.7588
  121SOPE  H11S12844   6.951   4.310   5.241 -0.3231  0.4659 -1.8459
  121SOPE  C21212845   7.044   4.475   5.180 -0.0447 -0.7074 -0.2648
  121SOPE  H12R12846   7.147   4.436   5.189  0.4801  0.0225 -2.4804
  121SOPE  H12S12847   7.051   4.584   5.199  0.8072 -0.9644  0.9728
  121SOPE  C21312848   6.988   4.450   5.044 -0.2828 -0.3085  0.6115
  121SOPE  H13R12849   6.887   4.492   5.027 -0.9751 -2.4080 -0.8658
  121SOPE  H13S12850   6.980   4.339   5.037  1.1277 -0.4687  1.1895
  121SOPE  C21412851   7.069   4.500   4.922 -0.2251  0.3349 -0.2982
  121SOPE  H14R12852   7.151   4.426   4.913 -1.1080 -0.4613 -2.8677
  121SOPE  H14S12853   7.098   4.605   4.940 -0.7143  0.3428  0.5091
  121SOPE  C21512854   6.980   4.482   4.801  0.4880 -0.5736 -0.7616
  121SOPE  H15R12855   6.878   4.526   4.808  0.9683  0.4048  0.3107
  121SOPE  H15S12856   6.961   4.372   4.798  2.2022 -0.9089 -0.2903
  121SOPE  C21612857   7.062   4.523   4.676 -0.1640 -0.2411 -1.2137
  121SOPE  H16R12858   7.158   4.468   4.689 -1.0800 -1.4207  1.2813
  121SOPE  H16S12859   7.069   4.633   4.686  0.9590 -0.4669  1.1163
  121SOPE  C21712860   7.000   4.476   4.540 -0.4902  0.9344  0.2100
  121SOPE  H17R12861   6.897   4.515   4.529 -1.2229 -0.4613  1.7119
  121SOPE  H17S12862   6.993   4.366   4.556  1.0182  0.7754 -0.0923
  121SOPE  C21812863   7.075   4.517   4.413 -0.2796  0.1617  0.0708
  121SOPE  H18R12864   7.172   4.466   4.400 -0.5509 -0.8928  1.8122
  121SOPE  H18S12865   7.095   4.626   4.406  1.2572 -0.0795  0.4460
  121SOPE  H18T12866   7.023   4.485   4.321 -1.2195  0.5799  0.4436
  121SOPE   C3312867   5.844   4.054   5.712 -0.1630 -0.6502 -0.4066
  121SOPE   H3X12868   5.829   3.944   5.699 -1.5209 -0.3990 -1.0879
  121SOPE   H3Y12869   5.944   4.083   5.674 -0.1381 -1.5996 -1.1179
  121SOPE   C3412870   5.744   4.132   5.633 -0.4299 -0.8540 -0.5521
  121SOPE   H4X12871   5.778   4.238   5.635 -1.4278 -0.5036 -1.0396
  121SOPE   H4Y12872   5.642   4.134   5.679 -1.3394  1.1891 -2.4591
  121SOPE   C3512873   5.742   4.083   5.492  1.2400 -0.8012 -0.4066
  121SOPE   H5X12874   5.710   3.977   5.483 -0.1733 -0.5687  1.4210
  121SOPE   H5Y12875   5.843   4.062   5.449  1.8267 -0.6767  0.8779
  121SOPE   C3612876   5.657   4.176   5.406  0.2864 -0.2842 -0.2909
  121SOPE   H6X12877   5.693   4.281   5.396 -2.5446  0.7430 -0.6558
  121SOPE   H6Y12878   5.553   4.186   5.442  0.1236 -0.9018 -0.5795
  121SOPE   C3712879   5.650   4.137   5.263 -0.1776 -0.0567 -0.2514
  121SOPE   H7X12880   5.575   4.206   5.218 -0.2734 -0.8256 -1.3120
  121SOPE   H7Y12881   5.600   4.039   5.253  0.6448 -0.5322  0.2138
  121SOPE   C3812882   5.777   4.153   5.173 -0.2189  0.0691 -0.4623
  121SOPE   H8X12883   5.843   4.065   5.188 -0.2654 -0.4258 -2.7495
  121SOPE   H8Y12884   5.835   4.240   5.211 -0.5160  0.0741 -0.0084
  121SOPE   C3912885   5.735   4.165   5.030 -0.3984 -0.5057  0.3858
  121SOPE   H9X12886   5.658   4.242   5.010  0.4217 -0.5024 -3.4931
  121SOPE   H9Y12887   5.678   4.081   4.984  0.8155 -0.3613 -1.4652
  121SOPE  C31012888   5.863   4.183   4.950  0.5558 -0.0428  0.3464
  121SOPE  H10X12889   5.939   4.102   4.956 -1.1240 -1.6900  0.6061
  121SOPE  H10Y12890   5.904   4.281   4.983  1.6412 -0.2122 -0.4448
  121SOPE  C31112891   5.830   4.197   4.799 -0.2261 -0.2872 -0.0403
  121SOPE  H11X12892   5.791   4.296   4.767 -0.2641 -0.4302 -0.4445
  121SOPE  H11Y12893   5.752   4.125   4.765 -0.2357 -0.7836  1.0063
  121SOPE  C31212894   5.957   4.176   4.712 -0.2885 -0.3697 -0.0044
  121SOPE  H12X12895   6.033   4.100   4.741  0.7065 -0.4610 -2.5440
  121SOPE  H12Y12896   6.013   4.269   4.740 -1.4630  0.4424 -0.2930
  121SOPE  C31312897   5.935   4.176   4.565  0.0590 -0.2926 -0.2610
  121SOPE  H13X12898   5.857   4.249   4.534  1.8531  1.7604 -0.2127
  121SOPE  H13Y12899   5.895   4.080   4.526 -1.8986  1.0353 -1.7489
  121SOPE  C31412900   6.072   4.213   4.496  0.1734  0.2044 -0.1054
  121SOPE  H14X12901   6.103   4.126   4.434  1.7031  0.3974  0.3504
  121SOPE  H14Y12902   6.154   4.238   4.567  0.8768 -1.6223 -0.2300
  121SOPE  C31512903   6.071   4.340   4.403  0.8445  0.7495 -0.4328
  121SOPE  H15X12904   6.054   4.432   4.464 -0.2100 -0.3889  1.0553
  121SOPE  H15Y12905   5.996   4.317   4.324  0.7977  0.6680 -0.3645
  121SOPE  C31612906   6.199   4.343   4.321 -0.0452  0.0851 -0.2557
  121SOPE  H16X12907   6.189   4.255   4.255 -1.1005  0.1707 -0.2364
  121SOPE  H16Y12908   6.285   4.330   4.390 -0.0665  2.4655  0.3055
  121SOPE  C31712909   6.235   4.472   4.254  0.2236 -0.0559  0.8915
  121SOPE  H17X12910   6.233   4.552   4.331 -1.3829  0.6366  0.1658
  121SOPE  H17Y12911   6.155   4.500   4.183  0.9604  1.0746  0.4837
  121SOPE  C31812912   6.374   4.470   4.185  0.2433 -0.8426  0.0802
  121SOPE  H18X12913   6.449   4.440   4.261 -0.3673 -2.0547  0.2381
  121SOPE  H18Y12914   6.389   4.571   4.142 -5.5171  0.6465  0.7237
  121SOPE  H18Z12915   6.369   4.392   4.106  0.5567 -0.1017 -0.6824
  122SOPE     N12916   4.875   4.463   6.370 -0.6523 -0.9487 -0.5525
  122SOPE   HN112917   4.936   4.379   6.362  2.1729  0.9748 -0.6996
  122SOPE   HN212918   4.804   4.445   6.444  1.3878 -1.3660  1.4540
  122SOPE   HN312919   4.836   4.485   6.277  1.2091 -0.0186 -1.1637
  122SOPE   C1212920   4.951   4.584   6.411  0.5834 -0.6506  0.2115
  122SOPE  H12A12921   4.979   4.567   6.517  1.6899  0.1158  0.0553
  122SOPE  H12B12922   4.881   4.671   6.407  1.4767  0.2944  2.9112
  122SOPE   C1112923   5.069   4.593   6.311 -0.8681 -0.4482 -0.6291
  122SOPE  H11A12924   5.138   4.679   6.325 -0.0060 -1.0002 -1.4447
  122SOPE  H11B12925   5.022   4.605   6.212 -0.4096 -0.1904 -0.8193
  122SOPE     P12926   5.302   4.470   6.326  0.1736 -0.3040  0.2858
  122SOPE   O1312927   5.355   4.334   6.340 -0.4649  0.5160  0.5381
  122SOPE   O1412928   5.352   4.562   6.430  0.4891 -0.3419  0.0472
  122SOPE   O1212929   5.146   4.468   6.324  0.1024  0.0772 -0.0111
  122SOPE   O1112930   5.331   4.536   6.186  0.0253  0.2377  0.6259
  122SOPE    C112931   5.303   4.451   6.070  0.1846 -0.0184  0.2190
  122SOPE    HA12932   5.244   4.513   6.000  0.7749 -0.2905 -0.5411
  122SOPE    HB12933   5.238   4.363   6.091 -0.0474  0.2841  0.8026
  122SOPE    C212934   5.425   4.383   6.005 -0.0391  0.0177 -0.2877
  122SOPE    HS12935   5.459   4.300   6.071 -1.3780 -0.6167 -0.3602
  122SOPE   O2112936   5.523   4.487   5.975 -0.0845 -0.1423  0.0017
  122SOPE   C2112937   5.631   4.497   6.051 -0.1707 -0.1453 -0.3105
  122SOPE   O2212938   5.658   4.425   6.146 -0.2638  0.1197 -0.6164
  122SOPE   C2212939   5.729   4.589   5.986 -0.0015  0.3885  0.1740
  122SOPE   H2R12940   5.747   4.670   6.060  0.8205  2.2462 -1.9491
  122SOPE   H2S12941   5.697   4.638   5.892  1.0847  0.5794 -0.0978
  122SOPE    C312942   5.379   4.326   5.869 -0.7352 -0.2634  0.1408
  122SOPE    HX12943   5.475   4.298   5.821 -0.6623 -0.2254  0.2635
  122SOPE    HY12944   5.333   4.415   5.821  2.6025  2.0269  0.8590
  122SOPE   O3112945   5.279   4.224   5.867  0.6232  0.1355  0.1631
  122SOPE   C3112946   5.322   4.099   5.873 -0.7339  0.0867 -0.0874
  122SOPE   O3212947   5.435   4.062   5.888  0.2087  0.5988  0.2752
  122SOPE   C3212948   5.211   3.997   5.854  0.0102 -0.4336  0.4644
  122SOPE   H2X12949   5.120   4.047   5.815 -0.9476 -2.5546 -0.1282
  122SOPE   H2Y12950   5.176   3.946   5.946 -3.1011 -0.5485 -0.6622
  122SOPE   C2312951   5.864   4.525   5.965  0.4731  0.4260  0.2003
  122SOPE   H3R12952   5.887   4.444   6.037 -1.3490  0.1466  0.5169
  122SOPE   H3S12953   5.935   4.606   5.992 -1.5872  1.8488  1.7500
  122SOPE   C2412954   5.896   4.483   5.816 -0.0931  0.7084 -0.4453
  122SOPE   H4R12955   5.831   4.407   5.769  2.5853 -2.5229  0.6647
  122SOPE   H4S12956   5.893   4.578   5.760 -0.4497  0.2925 -1.1385
  122SOPE   C2512957   6.036   4.423   5.798 -0.7185 -0.1554  0.0047
  122SOPE   H5R12958   6.107   4.465   5.872 -0.5083  0.8754 -0.7529
  122SOPE   H5S12959   6.040   4.313   5.812  0.7217 -0.1751 -0.3788
  122SOPE   C2612960   6.100   4.461   5.664  0.8612 -0.2408  0.2512
  122SOPE   H6R12961   6.109   4.570   5.646  1.6036 -0.1275  1.1892
  122SOPE   H6S12962   6.204   4.422   5.665  0.4574 -1.3541  1.4153
  122SOPE   C2712963   6.020   4.392   5.547  0.3049  0.2623  0.2918
  122SOPE   H7R12964   6.009   4.282   5.559 -3.8114  0.4455 -0.2115
  122SOPE   H7S12965   5.917   4.435   5.544 -0.5845 -1.7983 -0.5381
  122SOPE   C2812966   6.064   4.423   5.403 -0.4614 -0.2239 -0.2986
  122SOPE   H8R12967   6.163   4.374   5.387  1.3564  2.8332  0.6740
  122SOPE   H8S12968   5.985   4.380   5.338  1.6199 -2.0953 -1.7254
  122SOPE   C2912969   6.081   4.562   5.367  0.5817  0.3731 -0.7592
  122SOPE   H9112970   5.991   4.623   5.385  0.0037 -0.9396  0.9740
  122SOPE  C21012971   6.193   4.620   5.317  0.7649  0.1309 -0.0297
  122SOPE  H10112972   6.202   4.727   5.294  0.3435 -0.1880 -1.8144
  122SOPE  C21112973   6.322   4.553   5.281  0.3022  0.1761  0.3420
  122SOPE  H11R12974   6.312   4.444   5.263  0.9952  0.1117  0.3016
  122SOPE  H11S12975   6.389   4.565   5.369  0.4941  2.2545 -0.0482
  122SOPE  C21212976   6.391   4.617   5.164  0.3807 -0.3119  0.1624
  122SOPE  H12R12977   6.387   4.728   5.173  1.2822 -0.3053  0.6496
  122SOPE  H12S12978   6.336   4.586   5.073  0.4992  0.2354 -0.0998
  122SOPE  C21312979   6.535   4.575   5.152  0.1847  0.3427 -0.0110
  122SOPE  H13R12980   6.528   4.472   5.111  0.7727  0.9362 -1.6668
  122SOPE  H13S12981   6.580   4.578   5.254  0.1063  0.6517  0.0167
  122SOPE  C21412982   6.616   4.672   5.064 -0.3952 -0.1548  0.6295
  122SOPE  H14R12983   6.725   4.653   5.074 -0.3291  0.4548  1.1722
  122SOPE  H14S12984   6.601   4.773   5.107  1.8306  0.9902 -1.0807
  122SOPE  C21512985   6.567   4.689   4.920  0.2733 -0.0178  0.4388
  122SOPE  H15R12986   6.640   4.733   4.848 -3.0431 -0.1125 -3.3628
  122SOPE  H15S12987   6.485   4.764   4.924  0.7140  0.5159 -0.2427
  122SOPE  C21612988   6.526   4.562   4.851  0.2044  0.2103 -0.6773
  122SOPE  H16R12989   6.449   4.505   4.906  1.9095 -0.5888  1.0209
  122SOPE  H16S12990   6.620   4.503   4.862  0.4843  0.7327 -0.2248
  122SOPE  C21712991   6.482   4.575   4.707 -0.1155 -0.0304 -0.0050
  122SOPE  H17R12992   6.409   4.658   4.718 -0.8945 -0.9758  2.8470
  122SOPE  H17S12993   6.427   4.482   4.680  0.8944 -0.5612 -0.2800
  122SOPE  C21812994   6.598   4.607   4.611 -0.5118 -0.4876  0.5815
  122SOPE  H18R12995   6.641   4.709   4.625 -0.2285 -0.5793  0.3868
  122SOPE  H18S12996   6.562   4.599   4.506 -0.1028  0.9756  0.3034
  122SOPE  H18T12997   6.676   4.531   4.632  0.1302 -0.4391 -1.3900
  122SOPE   C3312998   5.252   3.885   5.758  0.4146  0.4858  0.4997
  122SOPE   H3X12999   5.188   3.795   5.772  1.5817 -0.6162 -0.9628
  122SOPE   H3Y13000   5.354   3.847   5.783 -0.5289 -1.7570  1.2644
  122SOPE   C3413001   5.234   3.918   5.613 -0.7555 -0.0634  0.0449
  122SOPE   H4X13002   5.305   4.001   5.590 -0.8274  0.2255  0.8582
  122SOPE   H4Y13003   5.130   3.945   5.585 -1.4182 -1.2995  1.2438
  122SOPE   C3513004   5.297   3.819   5.512  0.8297 -0.2920 -1.0587
  122SOPE   H5X13005   5.226   3.736   5.490 -0.3748  0.0939  1.1158
  122SOPE   H5Y13006   5.378   3.763   5.563  1.4783  1.0295 -0.6083
  122SOPE   C3613007   5.355   3.888   5.388  0.1797 -0.0675 -0.5367
  122SOPE   H6X13008   5.404   3.808   5.327  0.1757 -1.4206  1.1661
  122SOPE   H6Y13009   5.443   3.944   5.426 -0.8132  1.7666 -0.8514
  122SOPE   C3713010   5.257   3.959   5.302 -0.2544 -0.3820  0.2936
  122SOPE   H7X13011   5.200   4.037   5.357  2.1136  0.7840  1.2159
  122SOPE   H7Y13012   5.181   3.889   5.260 -1.2270  0.8647 -0.0782
  122SOPE   C3813013   5.322   4.042   5.189  0.3040  0.2201  0.7155
  122SOPE   H8X13014   5.412   3.988   5.152 -0.1615 -0.3862  0.4539
  122SOPE   H8Y13015   5.348   4.147   5.215 -1.1268  1.1747 -1.4176
  122SOPE   C3913016   5.231   4.060   5.067 -0.3858  0.1489 -0.2627
  122SOPE   H9X13017   5.135   4.114   5.084 -0.6565 -0.1161 -0.9100
  122SOPE   H9Y13018   5.193   3.959   5.042 -0.8066  0.0298  0.8179
  122SOPE  C31013019   5.293   4.122   4.938  0.0004  0.5381  0.1286
  122SOPE  H10X13020   5.225   4.091   4.856 -0.9778 -1.8358  1.7154
  122SOPE  H10Y13021   5.392   4.079   4.912  0.7709  1.5512  1.3062
  122SOPE  C31113022   5.316   4.275   4.945 -0.5980  0.0117 -0.2075
  122SOPE  H11X13023   5.400   4.302   5.013  1.8161  0.7772 -3.2645
  122SOPE  H11Y13024   5.228   4.334   4.979 -0.4855  0.5091 -0.7604
  122SOPE  C31213025   5.348   4.328   4.805  0.2140  0.3502  0.1632
  122SOPE  H12X13026   5.264   4.297   4.738 -0.3130  1.4602  0.2957
  122SOPE  H12Y13027   5.438   4.281   4.760  0.5495  1.4141 -0.2966
  122SOPE  C31313028   5.376   4.477   4.813  0.0462 -0.1108  0.3896
  122SOPE  H13X13029   5.448   4.483   4.897  2.1394 -2.4153 -1.1129
  122SOPE  H13Y13030   5.281   4.531   4.835 -0.0972  0.1944 -0.8923
  122SOPE  C31413031   5.418   4.548   4.686 -0.0821 -0.3010 -0.4695
  122SOPE  H14X13032   5.526   4.527   4.670  0.0598  0.5828 -0.7251
  122SOPE  H14Y13033   5.405   4.658   4.694 -1.7281 -0.3717 -1.7239
  122SOPE  C31513034   5.341   4.497   4.565 -0.3783  0.0184  0.2242
  122SOPE  H15X13035   5.238   4.515   4.602 -0.2077  2.3831 -0.2605
  122SOPE  H15Y13036   5.367   4.391   4.545 -1.4687 -0.3225  0.5377
  122SOPE  C31613037   5.361   4.574   4.435 -0.6489  0.0549 -0.0335
  122SOPE  H16X13038   5.472   4.572   4.421 -0.6852 -2.0187 -0.3546
  122SOPE  H16Y13039   5.315   4.675   4.437  1.5807  1.2708 -2.8512
  122SOPE  C31713040   5.297   4.504   4.319  0.3563 -0.0224  0.4922
  122SOPE  H17X13041   5.188   4.490   4.334  0.2467  1.0612  0.7896
  122SOPE  H17Y13042   5.338   4.402   4.308  0.7633  0.1563  0.2994
  122SOPE  C31813043   5.304   4.575   4.186 -0.7669 -0.7264  0.2796
  122SOPE  H18X13044   5.284   4.684   4.193 -2.3129 -1.0026  0.3436
  122SOPE  H18Y13045   5.232   4.544   4.108 -1.5429 -0.7539  0.9904
  122SOPE  H18Z13046   5.410   4.568   4.151 -0.9930 -0.1459 -0.5486
  123SOPE     N13047   4.120   1.503   1.853  0.1476 -0.3415 -0.1929
  123SOPE   HN113048   4.031   1.461   1.818  0.2230 -0.2591 -0.4783
  123SOPE   HN213049   4.097   1.545   1.946 -0.1918 -1.0675  0.0667
  123SOPE   HN313050   4.163   1.574   1.791  0.4018  0.0883  0.4694
  123SOPE   C1213051   4.217   1.392   1.870  0.3409 -0.1100 -0.2781
  123SOPE  H12A13052   4.157   1.316   1.925  0.0787  1.7889  2.2227
  123SOPE  H12B13053   4.294   1.430   1.941 -1.8484  0.3485  2.0023
  123SOPE   C1113054   4.275   1.343   1.743  0.3672  0.5438  0.6481
  123SOPE  H11A13055   4.208   1.276   1.684  0.4623  1.0108 -0.0029
  123SOPE  H11B13056   4.356   1.272   1.771  0.8161  1.9482  3.2739
  123SOPE     P13057   4.443   1.535   1.675  0.2213 -0.7402  0.3854
  123SOPE   O1313058   4.392   1.668   1.700  0.2235 -0.1608  0.0085
  123SOPE   O1413059   4.541   1.511   1.564  0.3554 -0.3999 -0.8760
  123SOPE   O1213060   4.316   1.443   1.656  0.5126  0.2154  0.1950
  123SOPE   O1113061   4.501   1.486   1.812  0.2561 -0.3382 -0.3447
  123SOPE    C113062   4.619   1.537   1.874 -0.3913 -0.0078 -0.0685
  123SOPE    HA13063   4.674   1.611   1.812 -1.3116 -0.3557 -1.3510
  123SOPE    HB13064   4.689   1.455   1.897 -1.2815 -1.0786 -1.0541
  123SOPE    C213065   4.600   1.586   2.017 -0.0365 -0.4980  0.1543
  123SOPE    HS13066   4.699   1.615   2.058  0.1883 -2.2322  0.9419
  123SOPE   O2113067   4.538   1.486   2.092  0.2020 -0.3301  0.0870
  123SOPE   C2113068   4.599   1.419   2.175 -0.3997 -0.6669  0.2502
  123SOPE   O2213069   4.715   1.429   2.212 -0.8717 -0.1863  0.2973
  123SOPE   C2213070   4.504   1.321   2.240  0.3735 -0.2660 -0.7151
  123SOPE   H2R13071   4.513   1.229   2.179  0.3042 -0.3590 -0.5857
  123SOPE   H2S13072   4.397   1.354   2.240  0.5988  0.4819 -0.3218
  123SOPE    C313073   4.507   1.714   2.009 -0.0737  0.5456 -0.4377
  123SOPE    HX13074   4.406   1.683   1.975 -0.7018  1.8081  0.2271
  123SOPE    HY13075   4.557   1.783   1.939 -0.8201  1.2465 -0.2942
  123SOPE   O3113076   4.502   1.786   2.130  0.9195 -0.0415 -0.2093
  123SOPE   C3113077   4.418   1.751   2.229  0.0712  0.8449  0.5152
  123SOPE   O3213078   4.329   1.669   2.216 -0.0635  0.3710  1.1399
  123SOPE   C3213079   4.437   1.849   2.347 -0.2296  0.1820 -0.3706
  123SOPE   H2X13080   4.388   1.946   2.325 -1.2357  0.0188  0.9799
  123SOPE   H2Y13081   4.545   1.855   2.374 -0.1551 -2.1249  0.1018
  123SOPE   C2313082   4.535   1.272   2.384  0.1128  0.5847 -0.9266
  123SOPE   H3R13083   4.636   1.227   2.383 -0.7490 -1.5223 -0.0982
  123SOPE   H3S13084   4.459   1.198   2.418  0.8112  0.7716  1.1720
  123SOPE   C2413085   4.526   1.392   2.486  0.2901  0.1527  0.1842
  123SOPE   H4R13086   4.613   1.458   2.469 -0.5564  1.1468 -0.4369
  123SOPE   H4S13087   4.437   1.456   2.466  0.6936  0.3595 -1.0336
  123SOPE   C2513088   4.534   1.351   2.629  0.0910 -0.2582 -0.5003
  123SOPE   H5R13089   4.447   1.287   2.654 -0.4885 -0.2082 -2.2438
  123SOPE   H5S13090   4.627   1.294   2.652  0.6762  0.9696  0.3103
  123SOPE   C2613091   4.537   1.475   2.730 -0.2357  0.0593 -0.8042
  123SOPE   H6R13092   4.637   1.522   2.719  0.5998 -1.5800 -0.5811
  123SOPE   H6S13093   4.473   1.562   2.706  0.0694  0.3787 -0.4692
  123SOPE   C2713094   4.508   1.414   2.876 -0.0564  0.1667  0.0703
  123SOPE   H7R13095   4.399   1.395   2.881 -0.2003  0.8251 -0.4373
  123SOPE   H7S13096   4.565   1.319   2.876  1.6194  1.1286 -0.2316
  123SOPE   C2813097   4.561   1.508   2.988  0.1233 -0.0853  0.4471
  123SOPE   H8R13098   4.489   1.593   2.988 -0.4676 -0.5769  1.1591
  123SOPE   H8S13099   4.545   1.452   3.082 -0.5088 -0.8012 -0.0762
  123SOPE   C2913100   4.700   1.553   2.971 -0.5842 -0.1100 -0.3810
  123SOPE   H9113101   4.771   1.469   2.978 -0.3160  0.1711  0.4865
  123SOPE  C21013102   4.746   1.674   2.971 -0.6111  0.1879  0.8636
  123SOPE  H10113103   4.854   1.692   2.955 -0.4111 -1.0795  0.7124
  123SOPE  C21113104   4.659   1.801   2.962  0.2131  0.3752 -0.0508
  123SOPE  H11R13105   4.555   1.781   2.929 -0.0276 -0.7959  1.3638
  123SOPE  H11S13106   4.709   1.870   2.890  0.3036 -0.4724 -0.8303
  123SOPE  C21213107   4.666   1.872   3.093  0.0612  0.1355  0.9333
  123SOPE  H12R13108   4.620   1.972   3.083 -0.9209 -0.1343  2.4713
  123SOPE  H12S13109   4.771   1.891   3.126  0.4821 -0.2866 -0.1005
  123SOPE  C21313110   4.581   1.802   3.197  0.4369  0.6431  0.4216
  123SOPE  H13R13111   4.640   1.714   3.232  1.8266  1.3399 -0.1085
  123SOPE  H13S13112   4.490   1.766   3.143  0.5206 -1.1660  1.3949
  123SOPE  C21413113   4.536   1.889   3.315  0.2556 -0.3001  0.0423
  123SOPE  H14R13114   4.464   1.835   3.381 -2.5961  0.9284 -1.8462
  123SOPE  H14S13115   4.465   1.970   3.288 -0.5260 -0.7012  0.8296
  123SOPE  C21513116   4.650   1.957   3.398  0.3528  0.0796 -1.1326
  123SOPE  H15R13117   4.733   1.992   3.333  0.4081  0.1807 -1.0075
  123SOPE  H15S13118   4.699   1.877   3.456 -0.2337 -0.4915 -1.4041
  123SOPE  C21613119   4.610   2.072   3.485  0.6431  0.9708 -0.3602
  123SOPE  H16R13120   4.514   2.054   3.538  0.5636  2.6168  0.1114
  123SOPE  H16S13121   4.596   2.160   3.418 -0.2413  1.0569 -0.0698
  123SOPE  C21713122   4.717   2.099   3.601 -0.1104  0.0459  0.5644
  123SOPE  H17R13123   4.741   2.003   3.650 -0.1666 -1.0799 -1.4826
  123SOPE  H17S13124   4.679   2.179   3.668  3.3156  1.6039  0.8311
  123SOPE  C21813125   4.848   2.146   3.535 -0.5788 -0.1075  0.1782
  123SOPE  H18R13126   4.898   2.073   3.468 -1.0055 -0.9769  0.7904
  123SOPE  H18S13127   4.907   2.180   3.623 -0.0243 -2.1642  0.6639
  123SOPE  H18T13128   4.824   2.236   3.474 -2.1247 -0.0637  0.7928
  123SOPE   C3313129   4.370   1.797   2.474 -0.2969 -0.1237 -0.0363
  123SOPE   H3X13130   4.416   1.703   2.510 -2.2264 -1.0737  0.1091
  123SOPE   H3Y13131   4.264   1.770   2.455 -0.6545  0.1103  1.5144
  123SOPE   C3413132   4.358   1.902   2.585  0.8754 -0.0768  1.3293
  123SOPE   H4X13133   4.304   1.993   2.553 -0.1676 -0.8548  0.8037
  123SOPE   H4Y13134   4.464   1.934   2.594  2.0058 -2.9889 -0.2073
  123SOPE   C3513135   4.314   1.837   2.711  0.5100 -0.3070 -0.6510
  123SOPE   H5X13136   4.374   1.746   2.734 -2.3542 -1.9526  0.7964
  123SOPE   H5Y13137   4.212   1.795   2.710  0.1161  0.6087 -0.1725
  123SOPE   C3613138   4.318   1.937   2.831 -0.0448 -0.0571 -0.6182
  123SOPE   H6X13139   4.266   2.027   2.793 -2.7423 -0.7889  1.0212
  123SOPE   H6Y13140   4.421   1.971   2.854 -0.9236  1.2155  1.7974
  123SOPE   C3713141   4.253   1.880   2.960  0.3394  0.1647  0.0177
  123SOPE   H7X13142   4.315   1.793   2.989 -1.0900 -0.4396  1.4435
  123SOPE   H7Y13143   4.146   1.855   2.942 -0.0359  1.4139  0.4015
  123SOPE   C3813144   4.238   1.979   3.076  1.0415  0.0299  0.2857
  123SOPE   H8X13145   4.178   2.061   3.032 -3.8408 -2.3772  1.6727
  123SOPE   H8Y13146   4.343   2.000   3.105  0.2920  1.8091  1.9346
  123SOPE   C3913147   4.160   1.929   3.202  0.5753 -0.3727 -0.2342
  123SOPE   H9X13148   4.216   1.839   3.236  2.4571  1.0010  0.4613
  123SOPE   H9Y13149   4.053   1.906   3.183 -0.2781  1.9658  1.2180
  123SOPE  C31013150   4.144   2.029   3.320  0.5233 -1.1472  0.0486
  123SOPE  H10X13151   4.073   2.105   3.281 -1.6126 -3.3316 -0.5751
  123SOPE  H10Y13152   4.246   2.069   3.338  1.3801 -3.4161  0.5545
  123SOPE  C31113153   4.079   1.984   3.454  0.1025  0.5650 -0.5501
  123SOPE  H11X13154   4.150   1.915   3.505  0.2825 -1.5769 -3.4407
  123SOPE  H11Y13155   3.984   1.929   3.436 -0.6400  1.6615 -0.1025
  123SOPE  C31213156   4.053   2.099   3.547 -0.1417  0.3998 -0.0609
  123SOPE  H12X13157   4.015   2.179   3.481  3.1681  0.9174 -1.5467
  123SOPE  H12Y13158   4.159   2.130   3.565  0.4768 -0.2836 -2.2758
  123SOPE  C31313159   3.982   2.075   3.675 -0.2542 -0.0586 -0.1792
  123SOPE  H13X13160   4.018   1.991   3.737 -1.1863  0.8421  1.6811
  123SOPE  H13Y13161   3.877   2.049   3.648 -0.5770  1.6801 -0.8015
  123SOPE  C31413162   3.981   2.207   3.751  0.5521 -0.5498  0.0683
  123SOPE  H14X13163   3.946   2.291   3.687  0.6173 -0.5196  0.0726
  123SOPE  H14Y13164   4.082   2.240   3.784  1.2771 -1.0113 -1.6282
  123SOPE  C31513165   3.891   2.208   3.872  0.0315 -0.3522  0.2944
  123SOPE  H15X13166   3.820   2.123   3.855 -2.0826  0.5718  3.5245
  123SOPE  H15Y13167   3.834   2.302   3.885  1.0440  0.1949  0.8387
  123SOPE  C31613168   3.947   2.179   4.018 -0.0891 -0.4566  0.5970
  123SOPE  H16X13169   4.012   2.253   4.071 -1.9092  0.7678  1.2006
  123SOPE  H16Y13170   3.997   2.080   4.011 -1.1703 -1.0068  0.4496
  123SOPE  C31713171   3.830   2.145   4.111  0.2847  0.1116 -0.0254
  123SOPE  H17X13172   3.871   2.083   4.194 -1.3312 -0.7218  0.1988
  123SOPE  H17Y13173   3.775   2.067   4.054 -0.6145  1.5349 -1.1784
  123SOPE  C31813174   3.729   2.252   4.159  0.1150  0.4326  1.1692
  123SOPE  H18X13175   3.786   2.320   4.226 -0.3953  1.3820  0.6539
  123SOPE  H18Y13176   3.652   2.199   4.219  2.0323 -2.1478  1.5441
  123SOPE  H18Z13177   3.678   2.293   4.070  0.1391 -1.2926  0.3243
  124SOPE     N13178   5.439   3.819   2.291 -0.0511 -0.0580 -0.3180
  124SOPE   HN113179   5.470   3.739   2.351  1.9699  0.4029 -0.6696
  124SOPE   HN213180   5.345   3.797   2.253  0.3547  0.2236 -1.5365
  124SOPE   HN313181   5.497   3.829   2.206 -1.5928 -1.5094 -1.6164
  124SOPE   C1213182   5.426   3.948   2.365  0.5118 -0.7412 -0.3186
  124SOPE  H12A13183   5.519   3.968   2.422  1.7727  1.0447 -2.8103
  124SOPE  H12B13184   5.331   3.940   2.423 -0.3015 -0.1963 -1.5288
  124SOPE   C1113185   5.405   4.059   2.254 -0.7366 -0.0675 -0.5495
  124SOPE  H11A13186   5.363   4.144   2.312  0.7516  0.1825  0.2280
  124SOPE  H11B13187   5.326   4.045   2.178 -2.1628 -2.3746  1.2347
  124SOPE     P13188   5.543   4.234   2.131  0.2756  0.1426  0.1618
  124SOPE   O1313189   5.426   4.265   2.048 -0.2844 -0.6095  0.2998
  124SOPE   O1413190   5.672   4.236   2.065 -0.3208  0.7244  0.0135
  124SOPE   O1213191   5.532   4.095   2.203 -0.1791 -0.2827  0.4909
  124SOPE   O1113192   5.551   4.338   2.248 -0.4439 -0.9588  0.1773
  124SOPE    C113193   5.658   4.322   2.347  0.1191  0.9499 -0.3677
  124SOPE    HA13194   5.705   4.420   2.369  2.8311 -0.5517  1.0932
  124SOPE    HB13195   5.743   4.256   2.319  0.1565  1.1998 -0.8540
  124SOPE    C213196   5.590   4.279   2.481 -1.1922  0.2581  0.6953
  124SOPE    HS13197   5.520   4.195   2.459 -1.9522  0.7210  1.2861
  124SOPE   O2113198   5.527   4.392   2.538  0.3665 -0.5425 -0.2312
  124SOPE   C2113199   5.413   4.371   2.604 -0.3308  0.4104 -0.7690
  124SOPE   O2213200   5.357   4.262   2.610 -0.2134  0.1918  0.5833
  124SOPE   C2213201   5.360   4.500   2.662 -0.0672  0.5612  1.4148
  124SOPE   H2R13202   5.275   4.529   2.596 -0.2528 -3.2006 -0.2703
  124SOPE   H2S13203   5.444   4.571   2.678 -0.3729  1.0101  1.0774
  124SOPE    C313204   5.699   4.224   2.576 -0.2267 -0.3160  0.0328
  124SOPE    HX13205   5.770   4.308   2.591 -0.4678 -0.2746  1.0074
  124SOPE    HY13206   5.761   4.144   2.529  0.3042  0.0305  0.1400
  124SOPE   O3113207   5.642   4.193   2.715 -0.1411  0.0178  0.2797
  124SOPE   C3113208   5.585   4.074   2.736 -0.2656  0.5357  0.5931
  124SOPE   O3213209   5.625   3.976   2.674  0.2113 -0.0750  0.0625
  124SOPE   C3213210   5.478   4.068   2.844  0.0317 -0.0097  0.1219
  124SOPE   H2X13211   5.380   4.040   2.800  0.5997  0.5287 -1.5381
  124SOPE   H2Y13212   5.476   4.170   2.888 -0.8017 -0.3585  0.9354
  124SOPE   C2313213   5.287   4.481   2.799 -0.1669 -0.6700 -0.4375
  124SOPE   H3R13214   5.217   4.397   2.778 -0.0793 -0.7583 -0.3799
  124SOPE   H3S13215   5.224   4.567   2.831 -0.8235 -0.7832 -1.3778
  124SOPE   C2413216   5.390   4.467   2.916 -0.4283  0.0160 -0.4662
  124SOPE   H4R13217   5.463   4.386   2.893 -0.0251 -0.2217  1.4925
  124SOPE   H4S13218   5.447   4.563   2.915  3.2557 -1.9689  0.0966
  124SOPE   C2513219   5.323   4.448   3.051 -0.1341  0.0532  0.8218
  124SOPE   H5R13220   5.245   4.526   3.063  0.8352  0.9984  1.0643
  124SOPE   H5S13221   5.275   4.347   3.051 -0.4670  0.1779 -1.2005
  124SOPE   C2613222   5.419   4.456   3.169 -0.9359  0.4327  1.1773
  124SOPE   H6R13223   5.500   4.382   3.153 -2.6555 -1.3023 -0.0592
  124SOPE   H6S13224   5.464   4.557   3.165  0.0699  0.0497  2.2470
  124SOPE   C2713225   5.352   4.427   3.302 -0.1038 -0.2706  0.1875
  124SOPE   H7R13226   5.427   4.474   3.369  1.8075 -0.7408 -1.5052
  124SOPE   H7S13227   5.264   4.493   3.317  0.4231  0.0488  2.0773
  124SOPE   C2813228   5.329   4.281   3.327  0.0850  0.0349  0.1083
  124SOPE   H8R13229   5.248   4.270   3.403  0.7402  0.0912  0.8386
  124SOPE   H8S13230   5.287   4.232   3.237  0.5096  3.5551 -2.1876
  124SOPE   C2913231   5.451   4.204   3.368  0.0988 -0.1882  0.1750
  124SOPE   H9113232   5.529   4.189   3.292  1.4892 -0.0902  1.5401
  124SOPE  C21013233   5.485   4.152   3.490  0.2886 -0.3324 -0.4883
  124SOPE  H10113234   5.584   4.109   3.510  0.5661  0.3183 -0.4185
  124SOPE  C21113235   5.399   4.164   3.614  0.2959 -0.2525  0.0630
  124SOPE  H11R13236   5.387   4.064   3.660  0.2629 -0.6943 -0.8837
  124SOPE  H11S13237   5.298   4.205   3.593  0.0830 -1.4351 -1.3602
  124SOPE  C21213238   5.476   4.261   3.702  0.2297 -0.1379  0.3966
  124SOPE  H12R13239   5.503   4.350   3.642  3.4386 -0.5845  1.0180
  124SOPE  H12S13240   5.565   4.202   3.733  0.9469  0.2561 -0.8311
  124SOPE  C21313241   5.397   4.304   3.827 -0.2848  0.6579 -0.0258
  124SOPE  H13R13242   5.335   4.222   3.869  0.4895  0.7521  1.3590
  124SOPE  H13S13243   5.313   4.372   3.802  0.8459  2.6162  1.2057
  124SOPE  C21413244   5.490   4.379   3.928 -0.0134  0.5363 -0.1887
  124SOPE  H14R13245   5.416   4.459   3.951 -1.7762 -0.2991 -2.5420
  124SOPE  H14S13246   5.569   4.436   3.874  1.7394  0.1041  1.7790
  124SOPE  C21513247   5.530   4.292   4.053 -0.6847  0.0534  0.1338
  124SOPE  H15R13248   5.571   4.201   4.004 -1.5740  1.2255 -3.0940
  124SOPE  H15S13249   5.451   4.257   4.123 -2.7241 -2.1366 -2.9589
  124SOPE  C21613250   5.646   4.359   4.135 -0.0204  0.1213  0.2507
  124SOPE  H16R13251   5.612   4.456   4.177 -3.2694 -1.0043  0.4892
  124SOPE  H16S13252   5.725   4.388   4.062 -1.0540  0.4641 -0.7606
  124SOPE  C21713253   5.710   4.281   4.252  0.2491 -0.1590 -0.1850
  124SOPE  H17R13254   5.780   4.346   4.309  0.9637  0.1626 -1.3831
  124SOPE  H17S13255   5.770   4.195   4.218 -2.4112 -2.8335  1.4104
  124SOPE  C21813256   5.611   4.225   4.355 -0.2275 -0.3161 -0.1275
  124SOPE  H18R13257   5.573   4.125   4.324  0.8156 -0.1777 -2.0074
  124SOPE  H18S13258   5.525   4.293   4.374 -0.7727 -0.7697 -0.9266
  124SOPE  H18T13259   5.664   4.203   4.450  0.7090  0.3793 -0.4702
  124SOPE   C3313260   5.536   3.963   2.947  0.4517 -0.3194 -0.2145
  124SOPE   H3X13261   5.644   3.973   2.970  0.5694 -1.3631 -0.2513
  124SOPE   H3Y13262   5.531   3.866   2.892 -0.5091 -0.3480 -0.0856
  124SOPE   C3413263   5.448   3.952   3.068 -1.0770  0.1695 -0.5031
  124SOPE   H4X13264   5.341   3.971   3.048 -1.3374 -0.6531  0.0771
  124SOPE   H4Y13265   5.487   4.034   3.131 -2.9987 -0.7930  2.0828
  124SOPE   C3513266   5.477   3.821   3.151 -0.2553  0.0777  0.5528
  124SOPE   H5X13267   5.587   3.808   3.160 -0.2860 -0.3931  0.3205
  124SOPE   H5Y13268   5.439   3.734   3.092  1.2738  0.7684 -1.5795
  124SOPE   C3613269   5.402   3.821   3.283  0.1347  0.3718  0.1641
  124SOPE   H6X13270   5.299   3.859   3.263 -0.7728 -3.1060 -2.7405
  124SOPE   H6Y13271   5.453   3.884   3.359  1.0284 -0.7108  0.4703
  124SOPE   C3713272   5.373   3.676   3.329 -0.2356 -0.7534 -0.4270
  124SOPE   H7X13273   5.476   3.634   3.321  0.6699  1.2423 -0.0056
  124SOPE   H7Y13274   5.307   3.620   3.260  0.8669  0.4829 -2.6179
  124SOPE   C3813275   5.332   3.668   3.477 -0.2148  0.6050 -0.3588
  124SOPE   H8X13276   5.236   3.715   3.507 -0.8467 -2.3064  2.9688
  124SOPE   H8Y13277   5.419   3.711   3.531  0.5674  1.9731 -2.6069
  124SOPE   C3913278   5.299   3.527   3.527 -0.0672 -0.1944  0.4951
  124SOPE   H9X13279   5.384   3.458   3.505 -1.0752 -0.7953 -1.8111
  124SOPE   H9Y13280   5.202   3.502   3.479  0.5870  0.6001 -1.3030
  124SOPE  C31013281   5.269   3.516   3.684 -0.2477 -0.0684  0.8621
  124SOPE  H10X13282   5.175   3.574   3.699 -0.9104 -1.5533  2.7989
  124SOPE  H10Y13283   5.354   3.559   3.742 -0.2472 -1.7313  2.1466
  124SOPE  C31113284   5.245   3.375   3.726 -0.4154  0.0941  0.1024
  124SOPE  H11X13285   5.322   3.307   3.683  0.6188 -0.0541  2.0961
  124SOPE  H11Y13286   5.149   3.343   3.680 -1.3441  0.4827  1.7178
  124SOPE  C31213287   5.228   3.349   3.871 -0.1727  0.2426 -0.7134
  124SOPE  H12X13288   5.158   3.425   3.913  2.5540  2.4091  0.2062
  124SOPE  H12Y13289   5.324   3.355   3.926 -0.2697  1.1461 -0.6318
  124SOPE  C31313290   5.166   3.210   3.891  0.2471  0.3354 -0.2234
  124SOPE  H13X13291   5.178   3.184   3.998 -0.9915  2.0493  0.3843
  124SOPE  H13Y13292   5.228   3.139   3.831  0.5639 -0.1358  0.6511
  124SOPE  C31413293   5.013   3.198   3.845 -0.3407 -0.7217 -0.2838
  124SOPE  H14X13294   5.002   3.222   3.738 -1.7500  0.2032  0.0398
  124SOPE  H14Y13295   4.955   3.270   3.907 -0.2086 -1.9696  1.3802
  124SOPE  C31513296   4.958   3.055   3.866 -1.0150 -0.0860  1.0480
  124SOPE  H15X13297   4.944   3.027   3.973 -2.7412 -1.7404  0.4392
  124SOPE  H15Y13298   5.029   2.977   3.831 -0.6644  0.9491 -0.6677
  124SOPE  C31613299   4.828   3.031   3.795  0.1560  0.4041 -0.1834
  124SOPE  H16X13300   4.844   3.027   3.685 -0.0689  1.2059 -0.2515
  124SOPE  H16Y13301   4.761   3.119   3.805 -1.3912 -0.5422 -1.6044
  124SOPE  C31713302   4.760   2.900   3.843  0.4554 -0.3034  0.5705
  124SOPE  H17X13303   4.760   2.897   3.954 -2.8316  0.4898  0.6718
  124SOPE  H17Y13304   4.821   2.820   3.796 -1.4572 -0.1409 -2.3880
  124SOPE  C31813305   4.623   2.897   3.793 -0.6818  0.8188  0.5622
  124SOPE  H18X13306   4.558   2.814   3.830 -0.7312  0.0814 -1.0984
  124SOPE  H18Y13307   4.629   2.891   3.683  0.9120  1.1446  0.6199
  124SOPE  H18Z13308   4.573   2.993   3.818 -0.3025  0.6073  2.3149
  125SOPE     N13309   1.559   5.767   2.583 -0.0873  0.0417 -0.1569
  125SOPE   HN113310   1.610   5.827   2.651  0.6992  1.6391 -2.0407
  125SOPE   HN213311   1.496   5.699   2.630 -1.8498  0.8932 -1.1632
  125SOPE   HN313312   1.638   5.713   2.543  0.4267 -0.5095  1.5577
  125SOPE   C1213313   1.498   5.851   2.470 -0.9348  0.6360 -0.1525
  125SOPE  H12A13314   1.419   5.911   2.519 -0.8392  2.5264 -2.1614
  125SOPE  H12B13315   1.440   5.775   2.413  0.2655 -0.6409  0.2675
  125SOPE   C1113316   1.598   5.914   2.375  0.1729  0.3273  0.8329
  125SOPE  H11A13317   1.650   5.990   2.436  0.0712 -0.2679  1.6881
  125SOPE  H11B13318   1.531   5.960   2.299 -0.5445  1.0684  1.8768
  125SOPE     P13319   1.772   5.848   2.196 -0.0981 -0.5017 -0.3755
  125SOPE   O1313320   1.712   5.963   2.128 -0.2404 -0.5888  0.5521
  125SOPE   O1413321   1.799   5.730   2.122 -0.4244  0.4783 -0.1631
  125SOPE   O1213322   1.686   5.807   2.320  0.5425  0.3434 -0.1491
  125SOPE   O1113323   1.906   5.893   2.255  0.3808 -0.0920 -0.2144
  125SOPE    C113324   1.942   5.877   2.392  0.0558 -0.5173 -0.2163
  125SOPE    HA13325   1.861   5.891   2.466  1.4183  0.6723  1.1306
  125SOPE    HB13326   2.021   5.952   2.414  0.6871 -1.5887  1.3487
  125SOPE    C213327   2.004   5.742   2.425 -0.6650 -0.0746  0.3513
  125SOPE    HS13328   1.931   5.660   2.409  1.3553 -1.8004 -0.5528
  125SOPE   O2113329   2.046   5.739   2.563  0.2669 -0.3463 -0.3306
  125SOPE   C2113330   1.955   5.733   2.655 -0.6896  0.9777 -0.7125
  125SOPE   O2213331   1.835   5.724   2.644 -0.1477  0.0348  0.1696
  125SOPE   C2213332   2.035   5.726   2.781  0.3649  0.6317  0.1690
  125SOPE   H2R13333   2.082   5.825   2.798  3.0241 -0.7149  1.2311
  125SOPE   H2S13334   2.114   5.648   2.776  0.0646  0.3048  0.4611
  125SOPE    C313335   2.135   5.715   2.346  0.0352  0.0314  0.1542
  125SOPE    HX13336   2.210   5.786   2.385  0.1383  0.3053 -0.5276
  125SOPE    HY13337   2.129   5.730   2.236  2.0519 -2.7114 -0.4571
  125SOPE   O3113338   2.190   5.586   2.373 -0.3675  0.6843 -0.0892
  125SOPE   C3113339   2.122   5.484   2.311  0.7005 -0.8650 -0.2098
  125SOPE   O3213340   2.051   5.510   2.212 -1.0720  0.3277 -0.1729
  125SOPE   C3213341   2.137   5.353   2.373 -0.2417 -0.3109 -0.7839
  125SOPE   H2X13342   2.243   5.322   2.374 -0.6493 -1.7906 -0.0991
  125SOPE   H2Y13343   2.079   5.299   2.295  0.5055  0.7975 -2.1570
  125SOPE   C2313344   1.946   5.704   2.901 -0.2931 -0.1507 -0.1371
  125SOPE   H3R13345   2.000   5.658   2.986 -1.8094  0.5409  1.2347
  125SOPE   H3S13346   1.861   5.634   2.885 -1.5125  1.3766 -0.5882
  125SOPE   C2413347   1.900   5.837   2.958 -0.0734  0.5093 -0.1353
  125SOPE   H4R13348   1.829   5.891   2.892 -0.3906 -0.3940 -0.5495
  125SOPE   H4S13349   1.838   5.817   3.048 -0.4906 -1.3809 -0.7887
  125SOPE   C2513350   2.002   5.953   3.000  0.5812 -0.3620 -0.4220
  125SOPE   H5R13351   2.096   5.904   3.031 -0.2317 -1.1903  0.8021
  125SOPE   H5S13352   2.029   6.019   2.914  0.0271  3.0635  1.8365
  125SOPE   C2613353   1.942   6.045   3.100  0.9519 -0.1305  0.5321
  125SOPE   H6R13354   1.984   6.148   3.094  2.2795 -0.6740  0.0737
  125SOPE   H6S13355   1.833   6.052   3.080  1.3201  0.3099 -1.5442
  125SOPE   C2713356   1.960   6.000   3.243  0.5043 -0.4183 -0.7216
  125SOPE   H7R13357   1.926   5.897   3.266  2.8773 -1.7886 -2.8936
  125SOPE   H7S13358   2.064   6.011   3.282  0.2106  2.1748 -0.5271
  125SOPE   C2813359   1.879   6.093   3.344  0.0721 -0.6266  0.3329
  125SOPE   H8R13360   1.928   6.079   3.443 -0.0307  0.9298  0.6303
  125SOPE   H8S13361   1.899   6.196   3.306 -0.9085 -0.0523  1.3301
  125SOPE   C2913362   1.729   6.065   3.345 -0.9927 -0.6861  0.2228
  125SOPE   H9113363   1.692   6.024   3.250 -0.2604 -0.8533 -0.0017
  125SOPE  C21013364   1.648   6.091   3.449  0.2018  0.3087 -0.4185
  125SOPE  H10113365   1.539   6.075   3.443  0.3028 -0.9223  0.6062
  125SOPE  C21113366   1.704   6.153   3.575 -0.8737 -0.3785 -0.1543
  125SOPE  H11R13367   1.799   6.101   3.600 -0.7133  0.6979  1.5861
  125SOPE  H11S13368   1.650   6.137   3.671 -0.8033 -0.7679 -0.1781
  125SOPE  C21213369   1.715   6.303   3.562  0.6106  0.3180  0.6837
  125SOPE  H12R13370   1.614   6.348   3.549  0.4441 -0.2330 -0.0327
  125SOPE  H12S13371   1.771   6.336   3.472  0.9889  2.4679  1.6532
  125SOPE  C21313372   1.788   6.387   3.668 -0.1330  0.0849 -0.0540
  125SOPE  H13R13373   1.898   6.375   3.662 -0.0149  1.1443 -0.1314
  125SOPE  H13S13374   1.754   6.358   3.770 -2.8041  0.3800 -0.7779
  125SOPE  C21413375   1.750   6.541   3.657  0.0687  0.7510 -0.0877
  125SOPE  H14R13376   1.641   6.550   3.676  0.1681  0.2093  0.8071
  125SOPE  H14S13377   1.772   6.573   3.553 -0.9773  0.4706 -0.4122
  125SOPE  C21513378   1.817   6.634   3.756  0.0618 -0.0048 -0.4382
  125SOPE  H15R13379   1.780   6.609   3.858 -1.5049  3.2339 -0.0861
  125SOPE  H15S13380   1.790   6.742   3.752  1.4190  0.3785 -0.0488
  125SOPE  C21613381   1.973   6.621   3.746 -0.0478  0.2762 -0.7460
  125SOPE  H16R13382   2.000   6.622   3.638  1.2677 -0.7708 -0.4484
  125SOPE  H16S13383   2.005   6.523   3.787 -3.0439 -0.0844  1.0278
  125SOPE  C21713384   2.031   6.737   3.828 -0.0878 -0.6232  0.0441
  125SOPE  H17R13385   2.019   6.721   3.937 -0.7419  1.1108  0.2585
  125SOPE  H17S13386   1.980   6.829   3.793  2.6389  0.0726 -2.4863
  125SOPE  C21813387   2.179   6.747   3.801 -0.6326  0.6529 -0.3598
  125SOPE  H18R13388   2.224   6.838   3.845 -0.5279  0.4589 -0.0577
  125SOPE  H18S13389   2.207   6.748   3.694 -2.0216 -0.3386 -0.7576
  125SOPE  H18T13390   2.214   6.660   3.861 -0.3219  1.0248 -0.0013
  125SOPE   C3313391   2.075   5.362   2.518 -0.7540  0.4934  0.2485
  125SOPE   H3X13392   2.121   5.449   2.570 -0.3241  0.3532  0.1080
  125SOPE   H3Y13393   2.117   5.277   2.576 -2.8472  0.3807  1.7286
  125SOPE   C3413394   1.928   5.367   2.535 -0.2115  0.2623 -0.1993
  125SOPE   H4X13395   1.884   5.274   2.491 -0.3216  1.2880 -2.3960
  125SOPE   H4Y13396   1.890   5.451   2.473  0.8218  1.1805  0.3693
  125SOPE   C3513397   1.885   5.403   2.677  0.8966  0.8431 -0.6433
  125SOPE   H5X13398   1.776   5.424   2.684  0.7327 -0.3269  1.3082
  125SOPE   H5Y13399   1.947   5.482   2.724 -0.3440  2.1359 -1.1049
  125SOPE   C3613400   1.903   5.282   2.779 -0.3109  0.0985  0.5426
  125SOPE   H6X13401   2.012   5.260   2.781 -0.2031  0.6715  1.2856
  125SOPE   H6Y13402   1.838   5.199   2.744 -0.8050  1.4444 -2.0250
  125SOPE   C3713403   1.873   5.312   2.928  0.5076 -0.1682  0.1945
  125SOPE   H7X13404   1.769   5.350   2.933  0.0934 -0.8566 -1.9793
  125SOPE   H7Y13405   1.937   5.395   2.965 -0.7198  1.0592 -0.3329
  125SOPE   C3813406   1.880   5.193   3.023 -0.2472 -0.4777 -0.4432
  125SOPE   H8X13407   1.975   5.141   3.000  0.2292 -0.1551  0.7186
  125SOPE   H8Y13408   1.813   5.115   2.981  0.8419 -2.5210  1.4452
  125SOPE   C3913409   1.837   5.227   3.162 -0.0765 -0.3584 -0.4090
  125SOPE   H9X13410   1.728   5.247   3.163 -0.2670 -1.1963 -1.6755
  125SOPE   H9Y13411   1.894   5.319   3.189  0.9364 -1.1899  0.3421
  125SOPE  C31013412   1.872   5.123   3.257  0.9403  0.3281 -0.2971
  125SOPE  H10X13413   1.982   5.107   3.260  0.7532 -1.0698 -0.0801
  125SOPE  H10Y13414   1.822   5.028   3.228 -0.8282  1.6482 -1.8649
  125SOPE  C31113415   1.819   5.156   3.396 -0.2559 -0.1306  0.7880
  125SOPE  H11X13416   1.843   5.259   3.429 -1.1847  0.3957 -0.0869
  125SOPE  H11Y13417   1.872   5.096   3.473 -1.8638 -0.5150  1.6259
  125SOPE  C31213418   1.669   5.148   3.421  0.8719  0.0057  0.0728
  125SOPE  H12X13419   1.636   5.046   3.393 -0.2178  0.2402  0.4347
  125SOPE  H12Y13420   1.626   5.226   3.355  1.8347 -0.0767 -0.6556
  125SOPE  C31313421   1.631   5.165   3.573  0.0701  0.3688 -0.3860
  125SOPE  H13X13422   1.653   5.267   3.609  0.0782  0.5728 -0.9729
  125SOPE  H13Y13423   1.685   5.082   3.625  0.0634  0.0504 -0.8771
  125SOPE  C31413424   1.480   5.141   3.588 -0.0757  0.3031  0.0431
  125SOPE  H14X13425   1.462   5.059   3.515  1.9216  1.8278 -2.3105
  125SOPE  H14Y13426   1.423   5.235   3.571  0.3869  1.0967  2.5193
  125SOPE  C31513427   1.450   5.097   3.734 -0.1661  1.2703 -0.5290
  125SOPE  H15X13428   1.489   4.999   3.768  2.1258  2.2918 -0.0629
  125SOPE  H15Y13429   1.339   5.090   3.740 -0.1436 -0.1756 -1.2525
  125SOPE  C31613430   1.488   5.201   3.840 -0.3610 -0.4249 -0.4343
  125SOPE  H16X13431   1.416   5.282   3.818 -0.7739 -1.1806 -2.0492
  125SOPE  H16Y13432   1.593   5.237   3.828 -1.1523  2.1521 -0.1342
  125SOPE  C31713433   1.473   5.159   3.987 -0.0786 -0.3948 -0.5571
  125SOPE  H17X13434   1.545   5.077   4.008 -0.7645 -0.5251  1.4911
  125SOPE  H17Y13435   1.369   5.121   3.997 -0.1909  0.1845  0.6921
  125SOPE  C31813436   1.479   5.274   4.090  0.0803  0.2592  0.4056
  125SOPE  H18X13437   1.408   5.354   4.061 -0.6005 -0.5064 -0.0973
  125SOPE  H18Y13438   1.584   5.312   4.085 -0.5947  2.1094 -0.4516
  125SOPE  H18Z13439   1.447   5.234   4.189  0.8448 -0.3611  0.4208
  126SOPE     N13440   6.352   3.034   1.564 -0.2237  0.0132  0.1467
  126SOPE   HN113441   6.393   3.074   1.651  1.6685  0.9890 -1.1348
  126SOPE   HN213442   6.409   3.068   1.484  0.0637  1.5179  0.9468
  126SOPE   HN313443   6.255   3.066   1.547  0.0116 -0.4800 -2.5956
  126SOPE   C1213444   6.351   2.882   1.568  0.4225 -0.2859  0.3081
  126SOPE  H12A13445   6.458   2.852   1.575  1.3038  2.5453  0.1259
  126SOPE  H12B13446   6.310   2.852   1.470  0.1322  2.6610 -0.5687
  126SOPE   C1113447   6.271   2.823   1.689  0.1542 -0.6223  0.2564
  126SOPE  H11A13448   6.334   2.840   1.779 -1.4503 -0.4141  1.3748
  126SOPE  H11B13449   6.266   2.715   1.664  0.1200 -0.4544 -0.4786
  126SOPE     P13450   6.089   2.966   1.818 -0.0836  0.1058  0.1806
  126SOPE   O1313451   5.943   2.992   1.814 -0.0606  0.3892  0.7803
  126SOPE   O1413452   6.161   3.096   1.811 -0.1808  0.1463  0.3619
  126SOPE   O1213453   6.141   2.878   1.691  0.4902 -0.5114  0.0681
  126SOPE   O1113454   6.134   2.881   1.942  0.0661  0.1912 -0.4704
  126SOPE    C113455   6.053   2.764   1.967 -0.5017 -0.8738 -0.1356
  126SOPE    HA13456   6.122   2.694   2.020 -0.2450 -1.4900 -1.2580
  126SOPE    HB13457   6.017   2.711   1.877 -0.7779 -0.5726 -0.2038
  126SOPE    C213458   5.937   2.803   2.064  0.2441  0.1614 -0.5091
  126SOPE    HS13459   5.871   2.872   2.007 -0.8368  1.5910  2.2246
  126SOPE   O2113460   5.992   2.852   2.188  0.3700  0.1217  0.1659
  126SOPE   C2113461   5.906   2.937   2.248  0.3064  0.2454  0.5408
  126SOPE   O2213462   5.804   2.980   2.197 -0.2614  0.1576 -0.3530
  126SOPE   C2213463   5.954   2.975   2.386 -0.0318  0.4661 -0.2062
  126SOPE   H2R13464   6.058   3.012   2.369 -0.4382  1.6296 -0.2567
  126SOPE   H2S13465   5.971   2.881   2.442  0.9199 -0.0275 -1.2741
  126SOPE    C313466   5.853   2.669   2.088 -0.4072 -0.3560  0.3426
  126SOPE    HX13467   5.919   2.594   2.136 -0.5383  0.0956  1.2638
  126SOPE    HY13468   5.817   2.616   1.997  1.7975 -3.1389  0.9576
  126SOPE   O3113469   5.757   2.677   2.201 -0.9266  0.4132 -0.0684
  126SOPE   C3113470   5.644   2.732   2.161  0.0837  0.7354  0.4642
  126SOPE   O3213471   5.608   2.767   2.053 -0.5165 -0.1469 -0.2821
  126SOPE   C3213472   5.548   2.726   2.277  0.6552 -0.9290 -0.0307
  126SOPE   H2X13473   5.502   2.625   2.266  0.0878 -0.7569  0.6843
  126SOPE   H2Y13474   5.475   2.806   2.252 -0.1781 -1.7685 -0.3251
  126SOPE   C2313475   5.871   3.080   2.457 -0.2980 -0.0612 -0.3588
  126SOPE   H3R13476   5.854   3.055   2.564 -2.3373  0.0434 -0.6094
  126SOPE   H3S13477   5.771   3.087   2.410 -1.3224 -0.4373  1.6532
  126SOPE   C2413478   5.951   3.204   2.469 -0.0457 -0.0611  0.0663
  126SOPE   H4R13479   5.987   3.229   2.367 -5.0823  0.4946 -1.8400
  126SOPE   H4S13480   5.889   3.294   2.486  0.3557  0.0156  1.1984
  126SOPE   C2513481   6.080   3.192   2.560  0.2100 -0.7744  0.0366
  126SOPE   H5R13482   6.094   3.086   2.589  2.3621 -0.3992  0.5051
  126SOPE   H5S13483   6.165   3.220   2.494  0.6073 -0.6971  0.5777
  126SOPE   C2613484   6.074   3.273   2.689  0.1841 -0.3375 -0.6696
  126SOPE   H6R13485   6.176   3.302   2.720 -0.2494  0.9138 -0.3676
  126SOPE   H6S13486   6.021   3.369   2.673  0.7714  0.3341  1.1971
  126SOPE   C2713487   5.987   3.200   2.794 -0.2555 -0.3566  0.4409
  126SOPE   H7R13488   5.886   3.193   2.747  0.7708  2.0065 -2.4201
  126SOPE   H7S13489   6.026   3.096   2.805  0.4712 -0.3100 -1.2977
  126SOPE   C2813490   5.994   3.275   2.930  0.3654 -0.7482 -0.3081
  126SOPE   H8R13491   5.995   3.385   2.911  0.8841 -1.0896 -2.5667
  126SOPE   H8S13492   5.892   3.260   2.971 -1.0888  2.6015 -2.2524
  126SOPE   C2913493   6.103   3.247   3.026 -0.3824  0.3904  0.1277
  126SOPE   H9113494   6.198   3.230   2.974 -0.4058  1.9985 -0.4934
  126SOPE  C21013495   6.096   3.235   3.160 -0.1028  0.1257 -0.7321
  126SOPE  H10113496   6.184   3.218   3.224 -0.3093 -0.7379 -0.6760
  126SOPE  C21113497   5.967   3.268   3.242 -0.1582  0.4566 -0.3781
  126SOPE  H11R13498   5.875   3.213   3.212 -0.5400  1.4404 -1.0708
  126SOPE  H11S13499   5.942   3.374   3.218  0.1058  0.1267 -2.2903
  126SOPE  C21213500   5.986   3.235   3.390 -0.0753 -0.0730  0.5919
  126SOPE  H12R13501   6.087   3.269   3.423  1.2476 -0.9515 -2.2451
  126SOPE  H12S13502   5.996   3.125   3.402 -1.5739 -0.2382  0.4750
  126SOPE  C21313503   5.879   3.283   3.484  0.5147 -1.0832 -0.3165
  126SOPE  H13R13504   5.783   3.296   3.429 -0.6001  0.6717  1.8626
  126SOPE  H13S13505   5.902   3.382   3.529  0.6079 -1.8693  1.4549
  126SOPE  C21413506   5.846   3.181   3.588  0.2074  0.4927  0.0978
  126SOPE  H14R13507   5.931   3.161   3.657  0.4527 -0.4146 -0.4475
  126SOPE  H14S13508   5.826   3.081   3.545  1.5572  0.5911 -0.8079
  126SOPE  C21513509   5.722   3.221   3.677 -0.3984  0.7436 -0.0267
  126SOPE  H15R13510   5.645   3.245   3.600  0.7898  0.0723 -1.4842
  126SOPE  H15S13511   5.741   3.304   3.749 -1.8308  0.6893  0.4341
  126SOPE  C21613512   5.689   3.102   3.764  0.8756  0.3061  0.1049
  126SOPE  H16R13513   5.774   3.091   3.834  2.1027 -1.0631 -1.5147
  126SOPE  H16S13514   5.692   3.004   3.711  1.5773  0.0568  0.5970
  126SOPE  C21713515   5.555   3.122   3.836 -0.0121 -0.4864 -0.0826
  126SOPE  H17R13516   5.484   3.165   3.763 -2.0186 -1.1897  1.3369
  126SOPE  H17S13517   5.562   3.190   3.923 -1.7175  0.3183 -0.5209
  126SOPE  C21813518   5.504   2.992   3.883  0.0316  0.1492 -0.0899
  126SOPE  H18R13519   5.414   2.999   3.949  0.4646 -1.1561  0.6791
  126SOPE  H18S13520   5.582   2.946   3.947 -2.7177 -2.5359  1.6117
  126SOPE  H18T13521   5.480   2.924   3.798 -2.5200  0.6160  0.1799
  126SOPE   C3313522   5.615   2.741   2.419  0.4547  0.3923  0.5286
  126SOPE   H3X13523   5.654   2.843   2.441  0.1776  0.4665  0.6747
  126SOPE   H3Y13524   5.695   2.664   2.417 -0.5428 -0.6626 -1.9170
  126SOPE   C3413525   5.507   2.705   2.518 -0.0159 -0.1162 -1.3963
  126SOPE   H4X13526   5.472   2.603   2.490 -0.3297 -0.3753 -0.1324
  126SOPE   H4Y13527   5.419   2.771   2.502 -0.2378 -0.0600 -0.0520
  126SOPE   C3513528   5.555   2.712   2.667  0.2621  0.2691  0.3710
  126SOPE   H5X13529   5.660   2.678   2.660  0.2208 -0.0729  1.2716
  126SOPE   H5Y13530   5.502   2.631   2.721 -0.5169 -1.2763 -2.5119
  126SOPE   C3613531   5.543   2.848   2.726  0.8929  0.1872 -0.6906
  126SOPE   H6X13532   5.438   2.886   2.726  1.1025  0.7632 -1.1805
  126SOPE   H6Y13533   5.615   2.923   2.688  0.2500  2.3312  1.9921
  126SOPE   C3713534   5.584   2.852   2.872 -0.0446  0.0803  0.6829
  126SOPE   H7X13535   5.543   2.762   2.923 -1.5618 -1.0495 -2.3135
  126SOPE   H7Y13536   5.535   2.944   2.911 -0.1233  0.2574  0.1728
  126SOPE   C3813537   5.734   2.867   2.880 -0.5651  0.4580 -0.1093
  126SOPE   H8X13538   5.774   2.937   2.804  1.3533  2.2096  2.3727
  126SOPE   H8Y13539   5.793   2.776   2.859  0.9927  0.9182  1.9267
  126SOPE   C3913540   5.787   2.921   3.010  0.4118  0.0058 -0.0067
  126SOPE   H9X13541   5.719   2.999   3.051 -2.2426 -1.0555 -2.0698
  126SOPE   H9Y13542   5.886   2.964   2.985  1.3445 -1.5109  0.8967
  126SOPE  C31013543   5.806   2.821   3.127  0.4522 -0.0152 -0.3966
  126SOPE  H10X13544   5.883   2.746   3.099 -0.2548 -0.4022 -1.4096
  126SOPE  H10Y13545   5.709   2.773   3.154 -0.1429  0.9694 -0.7090
  126SOPE  C31113546   5.871   2.900   3.241  0.2513 -0.3404 -0.2994
  126SOPE  H11X13547   5.814   2.994   3.258  0.3050 -0.3296 -0.1804
  126SOPE  H11Y13548   5.974   2.927   3.210  0.3459 -0.9907 -0.5716
  126SOPE  C31213549   5.888   2.821   3.371  0.0257  0.0092 -1.6749
  126SOPE  H12X13550   5.792   2.792   3.420  1.9286 -0.5182  2.1957
  126SOPE  H12Y13551   5.939   2.895   3.436  0.3667 -0.3132 -1.5731
  126SOPE  C31313552   5.983   2.703   3.369  0.4793 -0.1374 -0.4820
  126SOPE  H13X13553   6.083   2.744   3.340  0.3403  0.5997  0.0399
  126SOPE  H13Y13554   5.947   2.617   3.309  0.1804 -0.2202 -0.1826
  126SOPE  C31413555   6.020   2.644   3.511  0.6167 -0.1272  0.5020
  126SOPE  H14X13556   5.923   2.617   3.559  1.0635  0.3396  1.7161
  126SOPE  H14Y13557   6.064   2.725   3.574  3.2171 -0.2627 -0.9779
  126SOPE  C31513558   6.128   2.538   3.493 -0.0366  0.2090  0.5251
  126SOPE  H15X13559   6.214   2.592   3.448 -1.8578  2.1685 -0.7746
  126SOPE  H15Y13560   6.091   2.464   3.419  0.4393  0.3407  0.1457
  126SOPE  C31613561   6.169   2.472   3.626 -0.8846 -0.2409  0.5092
  126SOPE  H16X13562   6.228   2.382   3.600 -0.4102  0.6841 -1.8692
  126SOPE  H16Y13563   6.077   2.436   3.676 -2.1193  2.6644  0.5027
  126SOPE  C31713564   6.244   2.565   3.722  0.6424 -0.6150 -0.2559
  126SOPE  H17X13565   6.177   2.645   3.758  0.9438 -0.4351 -0.0931
  126SOPE  H17Y13566   6.325   2.620   3.669 -0.7026 -0.8109 -2.6659
  126SOPE  C31813567   6.306   2.489   3.842 -0.8817  0.5176  0.4561
  126SOPE  H18X13568   6.240   2.443   3.919  0.3566  1.0200  1.8578
  126SOPE  H18Y13569   6.384   2.544   3.898  2.7669 -3.0380 -0.6162
  126SOPE  H18Z13570   6.352   2.403   3.788  0.3310 -0.0899  2.3539
  127SOPE     N13571   4.631   0.280   1.882 -0.2618 -0.0509  0.5221
  127SOPE   HN113572   4.545   0.290   1.938 -0.0862  0.9021  0.6402
  127SOPE   HN213573   4.654   0.178   1.878  0.4387  0.0487  1.6725
  127SOPE   HN313574   4.705   0.315   1.946 -0.5443  3.7367 -0.9627
  127SOPE   C1213575   4.615   0.347   1.738 -0.1331  0.3740 -0.6254
  127SOPE  H12A13576   4.549   0.283   1.675 -0.6056 -0.2120  0.4378
  127SOPE  H12B13577   4.717   0.350   1.693  0.2811 -1.5623  0.0507
  127SOPE   C1113578   4.562   0.493   1.752 -0.2873  0.2607  0.5689
  127SOPE  H11A13579   4.539   0.512   1.645  1.3170 -0.3888  0.0789
  127SOPE  H11B13580   4.649   0.556   1.778 -0.0350 -0.8280  2.5325
  127SOPE     P13581   4.388   0.665   1.851  0.2899 -0.1104 -0.7082
  127SOPE   O1313582   4.282   0.678   1.747  0.3173  0.1155 -0.3529
  127SOPE   O1413583   4.495   0.771   1.859 -0.1002  0.5051  0.0142
  127SOPE   O1213584   4.450   0.517   1.836  0.1776  0.3235  0.4196
  127SOPE   O1113585   4.321   0.654   1.994  0.1627 -0.0761 -0.3912
  127SOPE    C113586   4.382   0.576   2.095 -0.2025  0.3297 -0.8403
  127SOPE    HA13587   4.489   0.603   2.102 -0.2031  1.5968 -4.1387
  127SOPE    HB13588   4.354   0.470   2.077  0.0171 -0.0671  0.9222
  127SOPE    C213589   4.321   0.603   2.234  0.1957 -0.0257  0.0313
  127SOPE    HS13590   4.212   0.586   2.218 -0.1342  1.5965  0.3587
  127SOPE   O2113591   4.348   0.740   2.260  0.4541  0.0274 -0.3555
  127SOPE   C2113592   4.262   0.809   2.332  0.3527  0.1410 -0.1714
  127SOPE   O2213593   4.157   0.764   2.379 -0.2544  0.1770 -0.3098
  127SOPE   C2213594   4.311   0.952   2.360  0.0874 -0.4491  0.5015
  127SOPE   H2R13595   4.276   1.014   2.275  1.1441  1.4657  1.3995
  127SOPE   H2S13596   4.420   0.968   2.372  0.0176 -0.7478  1.6919
  127SOPE    C313597   4.382   0.506   2.342 -0.6338  0.4328  0.1249
  127SOPE    HX13598   4.493   0.516   2.344 -0.5927 -0.0516  0.5281
  127SOPE    HY13599   4.354   0.408   2.298  1.9776 -0.0260 -0.7250
  127SOPE   O3113600   4.329   0.531   2.473  0.0112  0.5752  0.1694
  127SOPE   C3113601   4.244   0.451   2.528 -0.5801  0.6778  0.6835
  127SOPE   O3213602   4.211   0.339   2.487 -0.1226 -0.5709  0.2174
  127SOPE   C3213603   4.204   0.513   2.659 -0.6562 -0.5359 -0.0217
  127SOPE   H2X13604   4.227   0.434   2.733  1.1978  2.2978  2.6787
  127SOPE   H2Y13605   4.095   0.536   2.658 -0.1027  3.2025  3.1048
  127SOPE   C2313606   4.261   1.007   2.491  0.5903 -0.3945  0.4985
  127SOPE   H3R13607   4.163   0.963   2.519 -0.2293 -0.3597 -2.0848
  127SOPE   H3S13608   4.247   1.117   2.482  0.9834 -0.1240  2.5874
  127SOPE   C2413609   4.358   0.984   2.603 -0.3092 -0.5517 -0.1123
  127SOPE   H4R13610   4.386   0.878   2.621  0.4688  0.1338  3.7510
  127SOPE   H4S13611   4.451   1.036   2.570 -1.3420  0.8810 -0.8840
  127SOPE   C2513612   4.309   1.039   2.742  0.3788 -0.4277 -0.4038
  127SOPE   H5R13613   4.277   1.143   2.717 -0.8088 -1.0683 -1.6812
  127SOPE   H5S13614   4.226   0.977   2.781  1.5481 -1.9725 -0.3042
  127SOPE   C2613615   4.419   1.041   2.853  0.1036  0.8249 -0.0389
  127SOPE   H6R13616   4.467   0.941   2.845  1.5098  1.5716 -1.5492
  127SOPE   H6S13617   4.494   1.123   2.851 -1.0032  1.8714 -2.2898
  127SOPE   C2713618   4.347   1.058   2.989 -0.1911 -0.1269  0.6551
  127SOPE   H7R13619   4.294   1.155   2.998  0.2041  0.1545  0.0519
  127SOPE   H7S13620   4.258   0.991   2.989  0.1873 -0.6562 -0.1400
  127SOPE   C2813621   4.431   1.034   3.118 -0.2106  0.3651 -0.2790
  127SOPE   H8R13622   4.376   1.075   3.206  2.2503  0.0451  1.5298
  127SOPE   H8S13623   4.441   0.923   3.122  0.8298  0.4856  1.6225
  127SOPE   C2913624   4.569   1.102   3.114 -0.0739 -0.2251 -0.0635
  127SOPE   H9113625   4.618   1.085   3.017 -0.2302  0.2367 -0.2255
  127SOPE  C21013626   4.620   1.182   3.211 -0.1709 -0.3256 -0.0807
  127SOPE  H10113627   4.721   1.221   3.192 -1.0423  2.4558  0.5504
  127SOPE  C21113628   4.557   1.212   3.345 -1.0121 -0.1291  0.1356
  127SOPE  H11R13629   4.615   1.153   3.419  2.6065 -0.4577 -2.6637
  127SOPE  H11S13630   4.449   1.186   3.348 -0.6282 -1.8450  0.4519
  127SOPE  C21213631   4.585   1.360   3.387  0.2604 -0.6240  0.6928
  127SOPE  H12R13632   4.560   1.433   3.308 -1.0643 -2.5278 -0.7330
  127SOPE  H12S13633   4.695   1.373   3.391  0.3584 -1.2745  0.3719
  127SOPE  C21313634   4.506   1.406   3.508  0.1326 -0.2449 -0.3080
  127SOPE  H13R13635   4.491   1.322   3.579  0.3046  0.7429  0.9254
  127SOPE  H13S13636   4.408   1.437   3.466 -0.6592 -0.1650  1.5194
  127SOPE  C21413637   4.565   1.532   3.575  0.0847  0.5126  0.3614
  127SOPE  H14R13638   4.612   1.595   3.497  1.5008 -0.2383  0.5653
  127SOPE  H14S13639   4.651   1.514   3.644  0.4618 -0.2372 -0.2884
  127SOPE  C21513640   4.468   1.619   3.655  0.9065 -0.4864 -0.4605
  127SOPE  H15R13641   4.418   1.558   3.733 -1.1197 -0.0702 -1.3681
  127SOPE  H15S13642   4.386   1.657   3.589 -1.0370 -0.0628  2.0633
  127SOPE  C21613643   4.527   1.749   3.720  0.0837 -0.4038  0.1953
  127SOPE  H16R13644   4.563   1.816   3.639  2.0855 -1.7693 -0.1403
  127SOPE  H16S13645   4.611   1.739   3.792 -0.3188  1.6640  1.0249
  127SOPE  C21713646   4.431   1.829   3.799  1.0249 -0.5430 -0.1103
  127SOPE  H17R13647   4.367   1.757   3.855 -0.4055  0.7472 -0.0087
  127SOPE  H17S13648   4.352   1.868   3.731 -0.0324 -1.2573  0.6873
  127SOPE  C21813649   4.481   1.936   3.894  0.2482  0.3554  0.4974
  127SOPE  H18R13650   4.530   2.015   3.834  0.4247 -0.7114 -0.8067
  127SOPE  H18S13651   4.553   1.884   3.961 -0.3043 -0.3369  0.5688
  127SOPE  H18T13652   4.402   1.963   3.967 -0.4613  2.4472 -0.9561
  127SOPE   C3313653   4.277   0.636   2.716  0.1948 -0.2901  0.0013
  127SOPE   H3X13654   4.241   0.733   2.676  2.2380  0.2105 -0.7559
  127SOPE   H3Y13655   4.382   0.630   2.681  0.0894  0.7982 -0.5561
  127SOPE   C3413656   4.281   0.648   2.873  0.0818  0.1973  0.2407
  127SOPE   H4X13657   4.349   0.734   2.891  1.1592 -0.7088  0.5636
  127SOPE   H4Y13658   4.327   0.552   2.904  0.0072  0.0334 -0.1494
  127SOPE   C3513659   4.145   0.663   2.941  0.1050  0.2275 -0.6349
  127SOPE   H5X13660   4.061   0.595   2.914 -0.8147  0.8694  0.5046
  127SOPE   H5Y13661   4.104   0.766   2.928  0.3041  0.7556  2.2387
  127SOPE   C3613662   4.158   0.638   3.095  0.4302 -0.3745  0.2725
  127SOPE   H6X13663   4.249   0.698   3.118 -0.1448  1.1116 -1.1411
  127SOPE   H6Y13664   4.182   0.531   3.114 -1.5947 -0.8971  0.1059
  127SOPE   C3713665   4.040   0.676   3.187  0.6236  0.2433 -0.0908
  127SOPE   H7X13666   3.970   0.590   3.183  1.5359 -0.4693 -1.9352
  127SOPE   H7Y13667   3.977   0.754   3.138 -0.3122 -0.3010  0.2067
  127SOPE   C3813668   4.094   0.735   3.313 -0.2202  0.6144  0.8578
  127SOPE   H8X13669   4.132   0.839   3.307 -0.6788  0.7373  0.0184
  127SOPE   H8Y13670   4.181   0.679   3.352  0.1602  3.0747  3.9622
  127SOPE   C3913671   3.994   0.732   3.428  0.1427  0.1786 -0.1559
  127SOPE   H9X13672   3.945   0.632   3.425 -0.9616  0.6965  0.2558
  127SOPE   H9Y13673   3.915   0.809   3.416  2.8506  3.6045  2.1059
  127SOPE  C31013674   4.073   0.756   3.557  0.0917 -0.4148 -0.0663
  127SOPE  H10X13675   4.141   0.671   3.581  2.3409  1.2537 -0.2366
  127SOPE  H10Y13676   3.991   0.757   3.631 -2.3763  0.7390 -2.6080
  127SOPE  C31113677   4.158   0.882   3.563  0.3516 -0.7061 -0.3234
  127SOPE  H11X13678   4.239   0.892   3.488  1.3686  2.7380  1.0466
  127SOPE  H11Y13679   4.205   0.879   3.664  1.5676 -0.1790 -0.8528
  127SOPE  C31213680   4.085   1.023   3.557  0.6227  0.2739  0.6100
  127SOPE  H12X13681   4.003   1.028   3.631 -1.6871  0.3675 -1.7743
  127SOPE  H12Y13682   4.044   1.055   3.458  0.9400  1.8687  0.9650
  127SOPE  C31313683   4.188   1.141   3.592 -0.3981  1.0379 -0.4227
  127SOPE  H13X13684   4.150   1.239   3.555 -0.0973  1.1615 -0.4103
  127SOPE  H13Y13685   4.286   1.128   3.541 -0.4710 -1.2022 -0.0908
  127SOPE  C31413686   4.218   1.166   3.744 -0.8420  0.2483  1.0585
  127SOPE  H14X13687   4.278   1.259   3.752 -0.3422 -0.1326  1.8466
  127SOPE  H14Y13688   4.285   1.086   3.780  0.4573  0.5671 -0.5366
  127SOPE  C31513689   4.089   1.175   3.830  0.0201  0.7125 -0.0435
  127SOPE  H15X13690   4.034   1.079   3.830 -0.0116  0.7064 -1.2473
  127SOPE  H15Y13691   4.013   1.235   3.775 -2.1117 -0.8048  1.1061
  127SOPE  C31613692   4.104   1.234   3.968 -0.0011 -0.0352 -0.0411
  127SOPE  H16X13693   4.197   1.296   3.964 -1.7392  2.8100 -4.0204
  127SOPE  H16Y13694   4.114   1.149   4.038 -0.2560 -1.1364 -1.2967
  127SOPE  C31713695   3.980   1.319   4.013 -0.3438 -0.2916 -0.7989
  127SOPE  H17X13696   3.891   1.254   4.004  0.3570 -1.5803  0.9952
  127SOPE  H17Y13697   3.967   1.411   3.952  0.2889 -0.4722 -1.2115
  127SOPE  C31813698   3.993   1.360   4.159 -0.1113 -0.0062 -0.5378
  127SOPE  H18X13699   3.909   1.419   4.202  0.4957  0.3299  0.2207
  127SOPE  H18Y13700   4.078   1.432   4.165  0.4965 -0.6410 -1.2059
  127SOPE  H18Z13701   4.015   1.271   4.221  0.5084  0.7152  0.3017
  128SOPE     N13702   3.645   0.965   1.675 -0.5819 -0.4295 -0.5351
  128SOPE   HN113703   3.746   0.989   1.672 -0.3285 -1.0506  1.3823
  128SOPE   HN213704   3.630   0.900   1.755 -0.4885 -0.7658 -0.7870
  128SOPE   HN313705   3.621   0.922   1.583 -3.7021  1.1783 -0.5845
  128SOPE   C1213706   3.552   1.083   1.701 -0.5904  0.8108  0.8248
  128SOPE  H12A13707   3.447   1.047   1.696 -0.3229 -0.4657  2.9941
  128SOPE  H12B13708   3.555   1.155   1.617 -2.1800  2.4735  2.1211
  128SOPE   C1113709   3.591   1.159   1.831  0.2246  1.0302  0.3920
  128SOPE  H11A13710   3.604   1.079   1.907  4.2327 -0.8398 -1.8800
  128SOPE  H11B13711   3.510   1.216   1.881 -0.4382 -0.9146  1.6519
  128SOPE     P13712   3.822   1.257   1.912 -0.1211  0.1424  0.0104
  128SOPE   O1313713   3.898   1.377   1.865  0.4325 -0.2321 -0.3015
  128SOPE   O1413714   3.890   1.123   1.934 -0.2838  0.2363 -0.4666
  128SOPE   O1213715   3.709   1.233   1.806  0.1204  0.6355  0.1027
  128SOPE   O1113716   3.741   1.288   2.042 -0.6551 -0.2278 -0.7111
  128SOPE    C113717   3.775   1.373   2.151  0.3226  0.1659 -0.3999
  128SOPE    HA13718   3.708   1.463   2.157  0.3988  0.1304  1.3680
  128SOPE    HB13719   3.875   1.419   2.137  0.8132  0.4216  3.1363
  128SOPE    C213720   3.769   1.299   2.290 -0.2344 -0.7748  0.1526
  128SOPE    HS13721   3.685   1.343   2.348  0.2100  0.9334 -0.4493
  128SOPE   O2113722   3.903   1.307   2.350  0.7081 -0.7328 -0.0242
  128SOPE   C2113723   3.921   1.422   2.415  0.2442  0.1200  0.2053
  128SOPE   O2213724   3.842   1.517   2.420  0.0751 -0.1255  0.4674
  128SOPE   C2213725   4.069   1.438   2.467 -0.5345 -0.1732  0.7002
  128SOPE   H2R13726   4.138   1.443   2.379  0.4472 -1.6383  1.3423
  128SOPE   H2S13727   4.088   1.342   2.519  1.3854 -1.0124 -1.3660
  128SOPE    C313728   3.735   1.146   2.273 -0.5794  0.7279  0.1388
  128SOPE    HX13729   3.791   1.101   2.188 -2.2383  0.1761 -0.7194
  128SOPE    HY13730   3.628   1.139   2.243 -0.2392 -1.3690 -0.7927
  128SOPE   O3113731   3.755   1.073   2.405  0.8057 -0.4830  0.2061
  128SOPE   C3113732   3.859   0.991   2.408  0.7335 -0.3122 -0.4161
  128SOPE   O3213733   3.925   0.966   2.310 -0.1256  0.4656  0.4075
  128SOPE   C3213734   3.875   0.938   2.551 -0.2042 -0.3507  0.9643
  128SOPE   H2X13735   3.960   0.867   2.547  0.6460  0.6346  1.3558
  128SOPE   H2Y13736   3.784   0.884   2.587  0.1819 -3.0001 -1.6322
  128SOPE   C2313737   4.086   1.550   2.571 -0.2025  0.1855 -0.1856
  128SOPE   H3R13738   4.040   1.642   2.530  1.2267  1.0283  0.0047
  128SOPE   H3S13739   4.195   1.573   2.577  0.0068 -1.0477  2.6245
  128SOPE   C2413740   4.042   1.512   2.715 -0.5999 -0.9254 -0.0323
  128SOPE   H4R13741   4.046   1.607   2.773 -1.2635 -0.3577 -0.8797
  128SOPE   H4S13742   3.938   1.475   2.721 -0.4383 -1.3138  0.4304
  128SOPE   C2513743   4.129   1.413   2.776 -1.0313  0.4543 -0.7447
  128SOPE   H5R13744   4.099   1.318   2.727 -1.8680  0.7712 -0.8745
  128SOPE   H5S13745   4.232   1.433   2.741 -1.1289  2.0508 -0.2009
  128SOPE   C2613746   4.111   1.397   2.932 -0.0033 -0.5167 -0.1516
  128SOPE   H6R13747   4.003   1.377   2.940 -0.1434  0.4004  0.3973
  128SOPE   H6S13748   4.172   1.311   2.969  0.6748 -0.5033 -1.1923
  128SOPE   C2713749   4.147   1.526   3.006 -0.2601 -0.4147 -0.5152
  128SOPE   H7R13750   4.234   1.571   2.952  1.0611 -1.3141  0.8014
  128SOPE   H7S13751   4.061   1.596   3.006 -1.7799 -2.2044 -1.0419
  128SOPE   C2813752   4.193   1.498   3.154 -0.2479 -0.2234 -0.0511
  128SOPE   H8R13753   4.284   1.436   3.167  1.7930  2.1955 -1.7512
  128SOPE   H8S13754   4.227   1.599   3.186  0.8022  0.2355 -2.3856
  128SOPE   C2913755   4.085   1.438   3.246  0.0062  1.0512 -0.0060
  128SOPE   H9113756   4.016   1.365   3.200  1.4470 -1.4094  1.4693
  128SOPE  C21013757   4.055   1.476   3.374 -0.0252  0.2846 -0.4363
  128SOPE  H10113758   3.969   1.429   3.423 -0.0195 -0.6364 -1.2803
  128SOPE  C21113759   4.119   1.582   3.464  0.2118  0.0156 -0.5743
  128SOPE  H11R13760   4.069   1.679   3.442 -0.3902 -0.1142  0.1823
  128SOPE  H11S13761   4.224   1.604   3.437 -0.6568  2.7610 -2.0771
  128SOPE  C21213762   4.100   1.561   3.616  0.1863 -0.4262  0.1282
  128SOPE  H12R13763   4.181   1.495   3.654 -1.4540 -2.2370  0.6570
  128SOPE  H12S13764   4.005   1.507   3.634 -0.1275  0.2933  0.6863
  128SOPE  C21313765   4.087   1.689   3.693  0.0890  0.3760 -0.8380
  128SOPE  H13R13766   4.004   1.757   3.662  0.3229  1.6035  1.0501
  128SOPE  H13S13767   4.187   1.736   3.681  0.1888  0.4397  0.1737
  128SOPE  C21413768   4.072   1.662   3.846  0.2555  0.1247  0.1394
  128SOPE  H14R13769   4.157   1.601   3.882  0.6562  0.5502 -0.0735
  128SOPE  H14S13770   3.979   1.601   3.844  0.6689 -0.5129  0.0018
  128SOPE  C21513771   4.047   1.790   3.925  0.5980 -0.5831 -1.0752
  128SOPE  H15R13772   3.969   1.854   3.878 -0.4139  1.1537  2.5978
  128SOPE  H15S13773   4.134   1.858   3.923 -2.1000  3.2606  0.3909
  128SOPE  C21613774   3.996   1.779   4.071 -0.0349  0.6385 -0.0129
  128SOPE  H16R13775   3.927   1.692   4.077 -0.4458  0.8936 -0.9304
  128SOPE  H16S13776   3.933   1.863   4.105  0.3110  0.4803  1.0640
  128SOPE  C21713777   4.111   1.750   4.169 -0.8741  0.0336 -0.6984
  128SOPE  H17R13778   4.180   1.681   4.116  0.2688  0.8448 -0.3017
  128SOPE  H17S13779   4.069   1.694   4.256  0.0376  1.7501  0.9206
  128SOPE  C21813780   4.166   1.878   4.232 -0.3496 -0.4026 -0.0311
  128SOPE  H18R13781   4.248   1.916   4.167 -0.0870 -1.4488 -0.3295
  128SOPE  H18S13782   4.219   1.847   4.324 -1.8373 -1.6032  0.4709
  128SOPE  H18T13783   4.086   1.950   4.261 -1.3799 -1.6293  0.2187
  128SOPE   C3313784   3.906   1.039   2.657 -0.1543  0.1575  0.0094
  128SOPE   H3X13785   3.844   1.129   2.642 -0.1220  0.2030  0.1559
  128SOPE   H3Y13786   4.011   1.077   2.649  0.4088 -1.0990  1.0483
  128SOPE   C3413787   3.868   0.981   2.794 -0.3054  0.7161  0.3317
  128SOPE   H4X13788   3.934   0.897   2.825 -0.5794 -0.0339 -1.0423
  128SOPE   H4Y13789   3.765   0.940   2.781  0.7253 -1.4805 -1.4767
  128SOPE   C3513790   3.870   1.090   2.899  0.3220 -0.4679  0.2147
  128SOPE   H5X13791   3.785   1.156   2.872  1.3615  0.3038 -1.2576
  128SOPE   H5Y13792   3.963   1.148   2.887  0.8593 -1.3167  0.1585
  128SOPE   C3613793   3.868   1.039   3.044 -0.0858 -0.3028  0.2446
  128SOPE   H6X13794   3.972   1.020   3.078 -0.0543 -0.4760  0.0522
  128SOPE   H6Y13795   3.826   0.937   3.032 -1.8331  0.1436  2.0195
  128SOPE   C3713796   3.781   1.118   3.137  0.7276 -0.2671  0.0643
  128SOPE   H7X13797   3.673   1.122   3.112 -0.0076 -2.1938  2.5377
  128SOPE   H7Y13798   3.811   1.225   3.132 -0.4649  0.0711 -0.1837
  128SOPE   C3813799   3.797   1.086   3.287 -0.4349  0.5789  0.0869
  128SOPE   H8X13800   3.902   1.098   3.318 -0.6754 -0.2671  1.3178
  128SOPE   H8Y13801   3.768   0.979   3.296 -0.0995  0.4734 -0.1003
  128SOPE   C3913802   3.718   1.187   3.377 -0.4522 -0.0610  0.0414
  128SOPE   H9X13803   3.610   1.191   3.352 -0.1136  0.5110 -1.4561
  128SOPE   H9Y13804   3.762   1.289   3.369 -1.7253  0.4339 -1.0703
  128SOPE  C31013805   3.717   1.144   3.526 -0.2822  0.7568  0.6252
  128SOPE  H10X13806   3.656   1.214   3.586  0.0305 -0.5050  2.4683
  128SOPE  H10Y13807   3.819   1.150   3.569 -0.2208  0.2094  0.5641
  128SOPE  C31113808   3.653   1.007   3.554  0.3583  0.0412  0.2961
  128SOPE  H11X13809   3.709   0.925   3.505  2.4567  0.6967  1.4728
  128SOPE  H11Y13810   3.556   1.015   3.499  2.0284 -1.6357 -3.2269
  128SOPE  C31213811   3.628   0.990   3.701 -0.2637  1.2977  0.1934
  128SOPE  H12X13812   3.543   0.919   3.708 -0.8839  2.1870  2.4806
  128SOPE  H12Y13813   3.606   1.088   3.747 -0.8975  0.8807  0.7898
  128SOPE  C31313814   3.740   0.918   3.769  0.3619  0.0641 -0.4845
  128SOPE  H13X13815   3.833   0.975   3.754 -0.4340  1.6201  0.2843
  128SOPE  H13Y13816   3.735   0.819   3.719 -3.3204 -0.0287 -0.2438
  128SOPE  C31413817   3.708   0.910   3.923  0.0362  0.5897  0.4349
  128SOPE  H14X13818   3.620   0.845   3.938  0.9512 -0.6536  0.6295
  128SOPE  H14Y13819   3.679   1.014   3.951 -1.3850  0.1203  0.7701
  128SOPE  C31513820   3.818   0.865   4.010 -0.3879 -0.1743  0.5576
  128SOPE  H15X13821   3.901   0.939   3.998 -1.5194  1.2683  1.2188
  128SOPE  H15Y13822   3.870   0.772   3.981 -0.2617  0.5143 -1.5710
  128SOPE  C31613823   3.775   0.840   4.158 -0.3339  0.0033 -0.4129
  128SOPE  H16X13824   3.710   0.753   4.180  0.6787 -0.8075 -0.5648
  128SOPE  H16Y13825   3.723   0.936   4.182  1.2858  0.3707  2.0177
  128SOPE  C31713826   3.890   0.831   4.259  0.2981  0.4118 -0.2242
  128SOPE  H17X13827   3.947   0.738   4.243  0.6015  0.6139 -0.3292
  128SOPE  H17Y13828   3.841   0.831   4.359 -0.0554  2.6587 -0.3357
  128SOPE  C31813829   3.978   0.957   4.263 -0.2951 -0.1552  0.6377
  128SOPE  H18X13830   4.059   0.955   4.339 -0.9292  1.9851  1.4362
  128SOPE  H18Y13831   3.924   1.054   4.253 -1.3016 -0.5686  1.8290
  128SOPE  H18Z13832   4.034   0.953   4.167  0.8361 -0.6645  1.2975
  129OSM      N13833   2.089   6.073   6.741 -0.8344 -0.2550  0.2071
  129OSM    C1513834   1.977   6.116   6.835 -0.3557  0.1098 -0.4670
  129OSM   H15A13835   2.016   6.110   6.935  0.7351 -1.9787 -0.9698
  129OSM   H15B13836   1.893   6.050   6.819 -1.6335  1.9808 -2.0524
  129OSM   H15C13837   1.944   6.216   6.812  0.2539  0.2252 -0.8463
  129OSM    C1413838   2.208   6.171   6.752 -0.4955 -0.2807  0.5470
  129OSM   H14A13839   2.296   6.131   6.704  2.8468  2.4409  3.7795
  129OSM   H14B13840   2.231   6.183   6.857 -0.5696  1.0702  0.4231
  129OSM   H14C13841   2.173   6.266   6.714  1.8586 -0.5427 -2.6494
  129OSM    C1313842   2.133   5.938   6.779 -0.0509  0.0641 -0.0428
  129OSM   H13A13843   2.128   5.927   6.886 -0.4143  3.1138  0.3419
  129OSM   H13B13844   2.237   5.927   6.752 -0.0555 -2.0143  0.6201
  129OSM   H13C13845   2.089   5.859   6.720  0.4371  0.5796 -1.1250
  129OSM    C1213846   2.030   6.081   6.599  0.4834  0.1327  0.1544
  129OSM   H12A13847   1.927   6.070   6.630  0.7703  2.1947  2.0866
  129OSM   H12B13848   2.060   5.992   6.546  1.9803  1.1781 -0.8618
  129OSM    C1113849   2.032   6.210   6.510 -0.2310 -0.1948  0.7903
  129OSM   H11A13850   1.979   6.196   6.413  0.5074  0.1895  0.3227
  129OSM   H11B13851   2.140   6.220   6.485  0.0121 -2.3776  0.7838
  129OSM      P13852   2.002   6.468   6.538  0.0320 -0.0280  0.0394
  129OSM    O1313853   1.931   6.568   6.618 -0.0867 -0.2366  0.4131
  129OSM    O1413854   2.147   6.487   6.502  0.2334 -0.7352  0.4392
  129OSM    O1113855   1.926   6.458   6.406  0.7467  0.4151 -0.5873
  129OSM    O1213856   1.981   6.318   6.589  0.3325 -0.5854 -0.7353
  129OSM    C1S13857   1.842   6.560   6.337  0.5902  0.2268  0.0258
  129OSM    H1S13858   1.903   6.649   6.311 -0.3488  0.6243 -0.9254
  129OSM    H1T13859   1.748   6.588   6.388 -0.7740 -2.4137 -0.8333
  129OSM     NF13860   1.744   6.583   6.104  0.8344  0.3961 -0.0949
  129OSM    HNF13861   1.646   6.571   6.087  0.5673  2.5824 -0.4525
  129OSM    C2S13862   1.798   6.490   6.208  0.3425  0.4207 -0.8128
  129OSM    H2S13863   1.893   6.452   6.164  2.4314  1.1798  2.6169
  129OSM    C3S13864   1.702   6.371   6.234 -0.2147 -1.0153  0.7306
  129OSM    H3S13865   1.601   6.404   6.265  0.1969  1.3119 -0.2047
  129OSM     O313866   1.746   6.294   6.345  0.2103  0.3882 -0.2173
  129OSM    HO313867   1.807   6.357   6.385 -1.7389  0.6748  2.6727
  129OSM    C4S13868   1.697   6.282   6.114 -0.0118  0.1046  0.0332
  129OSM    H4S13869   1.796   6.260   6.071 -0.4517  0.6041 -1.3002
  129OSM    C5S13870   1.580   6.233   6.061 -0.2273  0.2171 -0.0889
  129OSM    H5S13871   1.484   6.253   6.111 -1.7227 -1.8032 -1.9517
  129OSM    C6S13872   1.578   6.146   5.936  0.3878  0.2075 -0.7436
  129OSM    H6S13873   1.502   6.068   5.956  2.1566 -1.3488  0.2544
  129OSM    H6T13874   1.676   6.098   5.911  0.6286  2.1433 -4.0703
  129OSM    C7S13875   1.537   6.230   5.807  0.8351  0.7642  0.0837
  129OSM    H7S13876   1.618   6.304   5.790  3.5221 -2.1491 -0.7358
  129OSM    H7T13877   1.436   6.274   5.817 -0.0591 -1.4412  1.8506
  129OSM    C8S13878   1.529   6.141   5.683  0.2362  0.9115  0.5001
  129OSM    H8S13879   1.447   6.067   5.684  1.1502 -0.2090 -1.3728
  129OSM    H8T13880   1.617   6.076   5.661 -1.1102 -0.8560  0.1779
  129OSM    C9S13881   1.524   6.225   5.550 -0.3557 -0.0711 -0.5939
  129OSM    H9S13882   1.615   6.288   5.546 -0.0776 -0.3392  0.9863
  129OSM    H9T13883   1.444   6.302   5.554 -1.6727 -1.3592 -1.0584
  129OSM   C10S13884   1.485   6.139   5.428 -0.6698  0.2233 -0.3119
  129OSM   H10S13885   1.383   6.098   5.439 -0.8950  0.9892  0.5606
  129OSM   H10T13886   1.552   6.051   5.413 -0.4931  0.5245 -1.3868
  129OSM   C11S13887   1.484   6.245   5.307 -0.2731  0.4960  0.2653
  129OSM   H11S13888   1.441   6.345   5.327 -1.5001 -0.4909  3.0283
  129OSM   H11T13889   1.413   6.195   5.237  0.7988 -0.8839  0.1123
  129OSM   C12S13890   1.622   6.264   5.236  0.6899 -0.2441  0.5129
  129OSM   H12S13891   1.660   6.169   5.191  0.7041  0.5193 -1.1412
  129OSM   H12T13892   1.692   6.306   5.311 -0.0035  1.9104 -0.0019
  129OSM   C13S13893   1.632   6.369   5.114  0.6396  0.3096 -1.3528
  129OSM   H13S13894   1.723   6.354   5.053 -0.3747 -0.8311 -2.6583
  129OSM   H13T13895   1.632   6.475   5.147 -3.3086 -0.2193  1.0812
  129OSM   C14S13896   1.511   6.348   5.019 -0.3550  0.1157  0.4882
  129OSM   H14S13897   1.420   6.359   5.081 -0.2623 -1.4414  0.9415
  129OSM   H14T13898   1.518   6.254   4.961  2.5951  0.2799  0.4219
  129OSM   C15S13899   1.492   6.459   4.910 -0.0082 -0.1297  0.9226
  129OSM   H15S13900   1.474   6.557   4.959  3.6503 -0.1234  2.5923
  129OSM   H15T13901   1.397   6.426   4.862 -0.1899 -0.3816  1.4525
  129OSM   C16S13902   1.596   6.473   4.793 -0.6162 -0.7350 -0.2195
  129OSM   H16S13903   1.637   6.373   4.766 -0.5392 -0.4390 -1.2714
  129OSM   H16T13904   1.682   6.532   4.833 -1.5355  1.0144 -0.7141
  129OSM   C17S13905   1.542   6.539   4.668 -0.1739  0.2736  0.2766
  129OSM   H17S13906   1.555   6.649   4.678 -1.7555  0.4177  1.1665
  129OSM   H17T13907   1.433   6.528   4.651  0.0708 -1.1200 -0.5575
  129OSM   C18S13908   1.600   6.490   4.535 -0.3555  0.1199  0.2988
  129OSM   H18S13909   1.710   6.500   4.525 -0.2411 -2.1269 -1.5320
  129OSM   H18T13910   1.558   6.538   4.444  2.7366  1.8907 -0.3328
  129OSM   H18U13911   1.590   6.380   4.542  1.8930 -0.1290  0.5174
  129OSM    C1F13912   1.818   6.681   6.043 -0.3066  0.5115 -0.3281
  129OSM     OF13913   1.943   6.689   6.062 -0.3901 -0.0035  0.1169
  129OSM    C2F13914   1.738   6.772   5.957 -0.6253  0.2161  0.4087
  129OSM    H2F13915   1.723   6.868   6.010  1.6187  0.2248  1.1496
  129OSM    H2G13916   1.638   6.731   5.933 -0.0087 -1.2551  0.2395
  129OSM    C3F13917   1.810   6.800   5.818  0.1635  0.8771  1.0638
  129OSM    H3F13918   1.921   6.798   5.825  0.1956 -1.2946  0.5908
  129OSM    H3G13919   1.777   6.895   5.772  0.2980 -0.0500 -1.0346
  129OSM    C4F13920   1.792   6.686   5.719 -0.0475 -0.0448  0.2411
  129OSM    H4F13921   1.746   6.604   5.777 -1.1614  0.3071 -0.1180
  129OSM    H4G13922   1.884   6.643   5.676 -1.2105 -0.0917 -2.3663
  129OSM    C5F13923   1.706   6.738   5.601 -0.3016  1.0778 -0.2185
  129OSM    H5F13924   1.766   6.811   5.542 -0.3345 -0.1728 -1.8847
  129OSM    H5G13925   1.625   6.793   5.653 -0.1625  0.8661  0.2252
  129OSM    C6F13926   1.666   6.622   5.508 -0.3622  0.1157 -0.8493
  129OSM    H6F13927   1.593   6.558   5.563  1.5187  0.4038  2.2539
  129OSM    H6G13928   1.751   6.553   5.493  0.1108 -0.3818  3.1131
  129OSM    C7F13929   1.601   6.665   5.375  0.4341  0.8253  0.5093
  129OSM    H7F13930   1.509   6.725   5.394  1.3830  2.3665  0.3612
  129OSM    H7G13931   1.566   6.570   5.329 -0.3851  1.0138  0.7152
  129OSM    C8F13932   1.694   6.748   5.287 -0.2646  0.2779 -0.8467
  129OSM    H8F13933   1.781   6.681   5.271 -0.4453  0.4069 -2.4703
  129OSM    H8G13934   1.729   6.839   5.341 -0.4808  1.5014 -2.6787
  129OSM    C9F13935   1.642   6.805   5.158  0.4765  0.4743  0.0515
  129OSM    H9F13936   1.539   6.845   5.167 -0.0865 -1.2739  2.5736
  129OSM   C10F13937   1.691   6.791   5.036 -0.1669  0.2710 -0.0410
  129OSM   H10F13938   1.629   6.822   4.951  0.7672  2.2643 -0.0589
  129OSM   C11F13939   1.819   6.727   4.996 -0.1887  0.0953 -0.0876
  129OSM   H11F13940   1.808   6.620   4.967 -0.6038  0.3013 -0.6977
  129OSM   H11G13941   1.884   6.702   5.082  0.8620 -0.6803 -1.0772
  129OSM   C12F13942   1.906   6.794   4.889  0.1290  0.3559  0.5542
  129OSM   H12F13943   1.999   6.735   4.873  0.1406  0.3560  0.6217
  129OSM   H12G13944   1.930   6.901   4.906 -0.0538  0.6194 -0.7245
  129OSM   C13F13945   1.846   6.805   4.742  0.2975  0.7389 -0.1001
  129OSM   H13F13946   1.757   6.871   4.746  0.8723  1.4795  1.3404
  129OSM   H13G13947   1.819   6.698   4.724 -0.4196  0.7782  0.7060
  129OSM   C14F13948   1.949   6.855   4.632  0.6273 -0.2830 -0.2395
  129OSM   H14F13949   2.037   6.788   4.636  0.1713 -1.0903 -2.3737
  129OSM   H14G13950   1.976   6.953   4.678 -0.5083 -0.1497  0.1841
  129OSM   C15F13951   1.889   6.890   4.493  0.1481 -0.1762 -0.4114
  129OSM   H15F13952   1.960   6.961   4.445 -0.3466 -1.3766 -3.1011
  129OSM   H15G13953   1.793   6.943   4.514  0.4397  0.6274 -1.0388
  129OSM   C16F13954   1.874   6.772   4.401  0.1817 -0.9397  0.4392
  129OSM   H16F13955   1.843   6.685   4.462  1.4463 -1.0711  0.9231
  129OSM   H16G13956   1.973   6.754   4.354 -1.1820 -1.0097 -2.6582
  129OSM   C17F13957   1.761   6.786   4.292 -0.2303  0.0724 -0.1478
  129OSM   H17F13958   1.782   6.868   4.219  3.1400 -1.3260 -0.9525
  129OSM   H17G13959   1.660   6.810   4.332 -0.1622  1.1344 -0.5638
  129OSM   C18F13960   1.761   6.663   4.208 -0.2187  0.3591  0.0843
  129OSM   H18F13961   1.723   6.581   4.272 -1.0391  1.7343  1.4354
  129OSM   H18G13962   1.868   6.652   4.182  0.2643 -1.4653  2.5106
  129OSM   H18H13963   1.698   6.665   4.117 -0.5808  0.5288  0.3329
  130OSM      N13964   2.832   4.294   6.546  0.9292  0.2345 -0.2389
  130OSM    C1513965   2.863   4.405   6.449  0.3018 -0.0034  0.1802
  130OSM   H15A13966   2.970   4.408   6.436  0.8422  0.6773  3.7506
  130OSM   H15B13967   2.834   4.499   6.493  0.2148 -0.4262  1.0543
  130OSM   H15C13968   2.825   4.384   6.350  1.3676 -2.3365  0.1946
  130OSM    C1413969   2.939   4.294   6.649 -0.5978 -0.5164  0.0742
  130OSM   H14A13970   3.038   4.270   6.614  0.2504  1.2498  1.1181
  130OSM   H14B13971   2.916   4.235   6.736  2.2476  0.0175  1.2938
  130OSM   H14C13972   2.945   4.396   6.686 -4.7516  0.0100 -0.1722
  130OSM    C1313973   2.690   4.311   6.609 -0.3444 -0.2119 -0.0392
  130OSM   H13A13974   2.683   4.405   6.662 -1.9491 -0.3768  0.0998
  130OSM   H13B13975   2.678   4.236   6.685  0.1517  1.6550  1.9673
  130OSM   H13C13976   2.617   4.299   6.530  1.4304 -0.8511 -1.6789
  130OSM    C1213977   2.833   4.163   6.471 -0.5115 -0.1657  0.3098
  130OSM   H12A13978   2.746   4.161   6.408  0.0358 -0.2156 -0.4529
  130OSM   H12B13979   2.815   4.083   6.542 -1.1524 -0.9435 -0.6943
  130OSM    C1113980   2.954   4.126   6.382  0.2579  0.7467 -0.0036
  130OSM   H11A13981   2.970   4.203   6.303  0.6536  1.5058  0.8019
  130OSM   H11B13982   2.933   4.033   6.325 -3.0187  2.2257 -1.4569
  130OSM      P13983   3.201   4.188   6.443 -0.3470 -0.1947 -0.0171
  130OSM    O1313984   3.176   4.324   6.489  0.2000 -0.5023 -0.0869
  130OSM    O1413985   3.303   4.111   6.520  0.3451 -0.2874  0.7586
  130OSM    O1113986   3.235   4.186   6.287  0.5028  0.5233 -0.0097
  130OSM    O1213987   3.076   4.099   6.459 -0.5897 -0.0139  0.9290
  130OSM    C1S13988   3.259   4.064   6.215  0.0691  0.4172  0.2833
  130OSM    H1S13989   3.175   3.991   6.213  0.7859 -0.5360  2.0937
  130OSM    H1T13990   3.333   4.000   6.268  0.0049 -1.2608 -1.5266
  130OSM     NF13991   3.345   3.984   5.981 -0.3284  0.1313  0.0696
  130OSM    HNF13992   3.436   3.949   5.961  0.1783  1.4535 -0.0482
  130OSM    C2S13993   3.319   4.097   6.072 -0.3380 -0.1336 -0.3830
  130OSM    H2S13994   3.242   4.154   6.016  0.7890 -0.5382 -2.4325
  130OSM    C3S13995   3.449   4.190   6.083  0.4886 -0.0329 -0.0400
  130OSM    H3S13996   3.530   4.131   6.132  0.8000 -1.9891 -2.7275
  130OSM     O313997   3.423   4.317   6.148 -0.5428  0.4141  0.0333
  130OSM    HO313998   3.343   4.300   6.197 -0.8097  1.1548 -0.1369
  130OSM    C4S13999   3.484   4.216   5.933 -0.4278 -0.5400 -0.1347
  130OSM    H4S14000   3.563   4.147   5.900  0.1484 -0.1426  0.3964
  130OSM    C5S14001   3.427   4.303   5.851 -0.2733  0.1668  0.3757
  130OSM    H5S14002   3.330   4.347   5.879 -1.2744 -0.2154 -2.1612
  130OSM    C6S14003   3.465   4.319   5.708  0.4039  0.0504  0.4171
  130OSM    H6S14004   3.567   4.362   5.706  0.8312 -0.6133  3.3562
  130OSM    H6T14005   3.396   4.389   5.656  0.4512 -1.3185 -1.6207
  130OSM    C7S14006   3.478   4.192   5.616  0.2109  0.2549 -0.0072
  130OSM    H7S14007   3.530   4.112   5.672 -2.1737 -0.6207  1.0555
  130OSM    H7T14008   3.524   4.215   5.517 -0.8212  0.1823 -0.5105
  130OSM    C8S14009   3.339   4.133   5.594 -0.0489  0.1129 -0.4764
  130OSM    H8S14010   3.278   4.215   5.549 -1.6091 -1.1163 -0.6825
  130OSM    H8T14011   3.284   4.102   5.686 -2.5097 -1.5228 -2.3678
  130OSM    C9S14012   3.341   4.017   5.497  0.0733  1.5083 -0.2049
  130OSM    H9S14013   3.386   3.930   5.549 -1.9758  0.4546 -0.1046
  130OSM    H9T14014   3.408   4.051   5.415 -0.9542 -1.5760 -2.4950
  130OSM   C10S14015   3.202   3.977   5.450  0.1516 -0.3669  0.3539
  130OSM   H10S14016   3.162   4.063   5.392  0.4389 -0.0630  0.6009
  130OSM   H10T14017   3.133   3.960   5.536 -0.3621 -0.4199 -0.0700
  130OSM   C11S14018   3.210   3.846   5.376 -0.0112  1.3183 -0.1384
  130OSM   H11S14019   3.249   3.773   5.450  0.8961  1.6219 -0.3116
  130OSM   H11T14020   3.274   3.848   5.285  0.3262 -0.0062  0.0504
  130OSM   C12S14021   3.076   3.792   5.326  0.1554  0.1372  0.0256
  130OSM   H12S14022   2.999   3.796   5.406 -0.2555 -0.3677 -0.3391
  130OSM   H12T14023   3.098   3.687   5.297  3.4950  0.5565  0.5480
  130OSM   C13S14024   3.032   3.866   5.199 -0.2437 -0.6930  0.1180
  130OSM   H13S14025   3.098   3.845   5.112  1.2890 -1.3150  1.3719
  130OSM   H13T14026   3.032   3.975   5.220  2.2183 -0.4117 -0.9764
  130OSM   C14S14027   2.879   3.844   5.162  0.1365 -0.1831  0.4592
  130OSM   H14S14028   2.813   3.865   5.248 -1.5064  0.5070 -0.9030
  130OSM   H14T14029   2.868   3.736   5.138  2.4508 -0.7653  1.6763
  130OSM   C15S14030   2.838   3.915   5.033 -0.4617 -0.2903  0.0321
  130OSM   H15S14031   2.874   4.021   5.030 -1.6061  0.1022 -0.2508
  130OSM   H15T14032   2.727   3.912   5.027 -0.3832 -2.5305 -1.0990
  130OSM   C16S14033   2.865   3.851   4.901 -0.8631  0.5938 -0.2071
  130OSM   H16S14034   2.827   3.746   4.900 -0.6017  0.5012 -0.4432
  130OSM   H16T14035   2.975   3.853   4.891 -0.3462 -1.1609  3.3530
  130OSM   C17S14036   2.809   3.921   4.775 -0.2833  0.3796  1.2798
  130OSM   H17S14037   2.700   3.940   4.783  0.0801  2.7187  1.1869
  130OSM   H17T14038   2.824   3.843   4.697 -1.4072  0.7627  0.6625
  130OSM   C18S14039   2.894   4.036   4.737  0.1468  0.4685  0.0756
  130OSM   H18S14040   2.833   4.087   4.659  0.6633 -1.2779 -1.5482
  130OSM   H18T14041   2.989   3.998   4.692 -0.7204 -1.5287 -0.1947
  130OSM   H18U14042   2.916   4.115   4.812  0.1493  1.1634 -0.6542
  130OSM    C1F14043   3.246   3.918   5.936  0.0663  0.1988 -0.8108
  130OSM     OF14044   3.137   3.962   5.962  0.4247  0.0492 -0.0898
  130OSM    C2F14045   3.270   3.789   5.855 -0.0254 -0.3220 -0.2565
  130OSM    H2F14046   3.293   3.710   5.930  2.2101  0.6170  0.1489
  130OSM    H2G14047   3.362   3.801   5.793 -1.2429 -3.2219 -2.8771
  130OSM    C3F14048   3.158   3.747   5.755 -0.0045 -0.7038 -0.3622
  130OSM    H3F14049   3.159   3.816   5.668 -0.8168 -0.4691 -0.1946
  130OSM    H3G14050   3.055   3.766   5.793 -0.2546 -1.2534 -0.7543
  130OSM    C4F14051   3.193   3.611   5.692  0.0100 -0.5513 -0.2554
  130OSM    H4F14052   3.211   3.540   5.775 -0.1671  3.0419  3.1795
  130OSM    H4G14053   3.295   3.625   5.649 -0.2802  0.4233 -0.6625
  130OSM    C5F14054   3.095   3.551   5.590 -0.1284 -0.0124 -0.3946
  130OSM    H5F14055   3.058   3.637   5.531 -1.3974 -0.8622 -0.8838
  130OSM    H5G14056   2.999   3.514   5.634 -0.0852  1.0778  0.6693
  130OSM    C6F14057   3.160   3.444   5.497 -0.0723 -0.0131 -0.0470
  130OSM    H6F14058   3.208   3.371   5.565  0.2583 -1.3746 -1.6695
  130OSM    H6G14059   3.245   3.485   5.439  0.5540 -1.0639  0.1066
  130OSM    C7F14060   3.065   3.364   5.407  0.0784  0.0791  0.7960
  130OSM    H7F14061   3.018   3.435   5.336  1.0050  1.5964  1.6388
  130OSM    H7G14062   2.981   3.326   5.469 -1.5536  1.8570 -0.2036
  130OSM    C8F14063   3.123   3.250   5.314 -0.3222 -0.2467  0.3111
  130OSM    H8F14064   3.174   3.181   5.385  1.3928  1.0484  0.3899
  130OSM    H8G14065   3.201   3.296   5.251 -2.0619  3.7614  0.7901
  130OSM    C9F14066   3.020   3.183   5.227 -0.5927 -0.0407  0.2514
  130OSM    H9F14067   2.992   3.093   5.284 -0.6869  0.6654  1.3468
  130OSM   C10F14068   2.965   3.229   5.107 -0.2624 -0.4143  0.2987
  130OSM   H10F14069   2.876   3.175   5.071 -1.4680 -0.2106  2.7503
  130OSM   C11F14070   3.006   3.356   5.033 -0.1873  0.1597 -0.0909
  130OSM   H11F14071   3.105   3.397   5.060  1.4196 -1.7625 -2.6391
  130OSM   H11G14072   2.936   3.441   5.048  2.7189  2.2839  3.1698
  130OSM   C12F14073   3.014   3.320   4.884  0.4529 -0.6773  0.4058
  130OSM   H12F14074   3.046   3.414   4.835 -2.9248  0.2320 -0.3244
  130OSM   H12G14075   2.911   3.303   4.845  1.6966  0.0748 -3.5968
  130OSM   C13F14076   3.104   3.211   4.851  0.3201  0.3038  0.0284
  130OSM   H13F14077   3.053   3.113   4.868  2.0613 -0.7510 -0.5345
  130OSM   H13G14078   3.197   3.216   4.912  0.2091  0.2342  0.2061
  130OSM   C14F14079   3.128   3.220   4.697  0.2499 -0.5410 -0.5618
  130OSM   H14F14080   3.189   3.311   4.680 -1.5070  0.9957  0.8685
  130OSM   H14G14081   3.029   3.245   4.652  0.5551  0.4625 -0.6971
  130OSM   C15F14082   3.180   3.101   4.631 -0.2034  0.2678 -0.1857
  130OSM   H15F14083   3.283   3.080   4.666 -0.3055 -0.6822 -0.4260
  130OSM   H15G14084   3.179   3.120   4.521 -0.1694  1.0358 -0.0540
  130OSM   C16F14085   3.096   2.977   4.648  0.5129  0.5072 -0.6709
  130OSM   H16F14086   2.993   2.998   4.611  0.3370  0.8224 -0.0194
  130OSM   H16G14087   3.097   2.940   4.753  0.9299 -0.4803 -1.0100
  130OSM   C17F14088   3.150   2.859   4.562 -0.5797 -0.5314 -0.3278
  130OSM   H17F14089   3.084   2.773   4.583 -0.9612 -0.3951 -0.9311
  130OSM   H17G14090   3.253   2.828   4.588 -0.6176 -1.7993 -1.6016
  130OSM   C18F14091   3.153   2.878   4.408  0.1420  0.4859 -0.4717
  130OSM   H18F14092   3.055   2.891   4.358 -0.0175  1.1439 -0.0100
  130OSM   H18G14093   3.204   2.791   4.363 -0.3203 -0.8872  1.5282
  130OSM   H18H14094   3.209   2.971   4.382  0.2091  0.7286  0.4680
  131OSM      N14095   3.547   6.834   6.847  0.3897 -0.5220 -0.0447
  131OSM    C1514096   3.445   6.798   6.950 -0.2894  0.1767  0.2948
  131OSM   H15A14097   3.446   6.690   6.945  1.6467  0.2035 -1.3307
  131OSM   H15B14098   3.353   6.834   6.905  0.8564  1.3490 -1.2385
  131OSM   H15C14099   3.467   6.830   7.050  0.7141 -0.6005  0.3466
  131OSM    C1414100   3.491   6.781   6.717 -0.4214 -0.4107 -0.0064
  131OSM   H14A14101   3.409   6.844   6.686  1.2077  1.8736  0.0258
  131OSM   H14B14102   3.468   6.676   6.727  1.1472 -0.6348  1.9348
  131OSM   H14C14103   3.561   6.798   6.636  0.3392 -1.9572  0.2827
  131OSM    C1314104   3.553   6.989   6.844  0.2786  0.8682 -0.0551
  131OSM   H13A14105   3.617   7.022   6.764 -0.0756  1.1776 -0.2142
  131OSM   H13B14106   3.601   7.021   6.936 -1.2436 -0.8768  1.4333
  131OSM   H13C14107   3.456   7.034   6.828 -0.0197 -0.2995 -1.6820
  131OSM    C1214108   3.683   6.780   6.884  0.2062  0.1170  0.3512
  131OSM   H12A14109   3.685   6.673   6.870  1.2017  0.0894  0.6418
  131OSM   H12B14110   3.701   6.806   6.988  0.5311  1.4001 -0.0088
  131OSM    C1114111   3.794   6.835   6.787 -0.5662  0.4720  0.0150
  131OSM   H11A14112   3.899   6.808   6.813  0.5012  2.0955 -2.2774
  131OSM   H11B14113   3.802   6.946   6.781  1.0990  0.2999 -1.4979
  131OSM      P14114   3.819   6.655   6.600  0.3995  0.2734  0.2426
  131OSM    O1314115   3.958   6.676   6.549  0.5483  0.3794 -0.1742
  131OSM    O1414116   3.801   6.555   6.706  0.9007 -0.0780  0.3029
  131OSM    O1114117   3.724   6.627   6.472 -0.2200 -0.4603  0.0114
  131OSM    O1214118   3.764   6.791   6.652 -0.5742 -0.7285 -0.2932
  131OSM    C1S14119   3.719   6.718   6.355 -0.2663 -0.3453 -0.6108
  131OSM    H1S14120   3.807   6.783   6.339  0.3978 -1.3535 -1.1834
  131OSM    H1T14121   3.628   6.781   6.354  0.2504  0.4124 -0.5219
  131OSM     NF14122   3.754   6.734   6.112  0.3060  0.3751  0.0508
  131OSM    HNF14123   3.675   6.752   6.054 -1.9818 -0.5928  2.6679
  131OSM    C2S14124   3.731   6.638   6.223  0.1203 -0.4078  0.0536
  131OSM    H2S14125   3.819   6.572   6.240  0.2233 -0.1443  0.5667
  131OSM    C3S14126   3.613   6.550   6.201 -0.0489 -1.1382 -0.1557
  131OSM    H3S14127   3.517   6.602   6.177  0.1962 -1.0588 -0.9763
  131OSM     O314128   3.580   6.481   6.322 -0.0376  0.1845  0.2028
  131OSM    HO314129   3.627   6.536   6.385  1.2036 -0.7507  0.1370
  131OSM    C4S14130   3.634   6.461   6.079  0.3994 -0.6031 -0.1181
  131OSM    H4S14131   3.634   6.521   5.987  0.7466 -0.1007  0.1992
  131OSM    C5S14132   3.650   6.332   6.065 -0.2782 -0.8010 -0.6238
  131OSM    H5S14133   3.657   6.265   6.152  1.7746 -3.1109 -2.4308
  131OSM    C6S14134   3.660   6.265   5.937  0.8104 -0.2717 -0.3565
  131OSM    H6S14135   3.602   6.171   5.944 -1.0047  0.9113  1.7726
  131OSM    H6T14136   3.768   6.239   5.933  1.1889  0.7740  1.6803
  131OSM    C7S14137   3.610   6.338   5.815  0.0562 -0.6018 -0.4743
  131OSM    H7S14138   3.671   6.429   5.800  0.1960 -0.8519 -1.5099
  131OSM    H7T14139   3.499   6.348   5.817 -0.0460  0.5199 -4.1700
  131OSM    C8S14140   3.641   6.261   5.686  0.0103 -0.0769  0.3162
  131OSM    H8S14141   3.569   6.177   5.673 -1.0510  1.1657 -2.5366
  131OSM    H8T14142   3.739   6.210   5.703 -0.0219 -0.4534 -0.5540
  131OSM    C9S14143   3.636   6.349   5.560 -0.1460  0.4631 -0.3488
  131OSM    H9S14144   3.713   6.429   5.555  0.0873  0.4587  2.0399
  131OSM    H9T14145   3.533   6.386   5.575 -0.2778 -1.1008  3.6688
  131OSM   C10S14146   3.661   6.267   5.435 -0.2795 -0.2950  0.1410
  131OSM   H10S14147   3.596   6.177   5.428 -1.0408  0.2977 -0.6058
  131OSM   H10T14148   3.768   6.243   5.421  0.2341  2.6145 -1.8861
  131OSM   C11S14149   3.628   6.355   5.308 -0.0959  0.2731  0.6003
  131OSM   H11S14150   3.691   6.447   5.312 -1.5841  1.6518 -3.2269
  131OSM   H11T14151   3.521   6.386   5.306  0.3222  1.7952 -0.1279
  131OSM   C12S14152   3.667   6.286   5.180  0.1083 -0.8277  0.5875
  131OSM   H12S14153   3.604   6.196   5.165 -0.8002 -0.0973 -0.1494
  131OSM   H12T14154   3.771   6.250   5.191  0.4457  0.0160  0.2892
  131OSM   C13S14155   3.631   6.371   5.057 -0.5733 -0.5097 -0.7752
  131OSM   H13S14156   3.688   6.466   5.068 -0.9370 -0.2196 -1.3668
  131OSM   H13T14157   3.528   6.401   5.084 -0.1593  0.3848 -0.0988
  131OSM   C14S14158   3.656   6.302   4.924 -0.6286  0.2327  0.7063
  131OSM   H14S14159   3.593   6.212   4.914  2.9933 -2.4263 -0.3027
  131OSM   H14T14160   3.763   6.276   4.937 -0.8768 -0.6099  1.1170
  131OSM   C15S14161   3.632   6.391   4.810  0.1137  0.3735 -0.6351
  131OSM   H15S14162   3.677   6.492   4.825 -1.7501  1.5670 -2.4791
  131OSM   H15T14163   3.523   6.414   4.801  0.1347  0.9962  0.5473
  131OSM   C16S14164   3.678   6.330   4.677 -0.1950  0.1512  0.8059
  131OSM   H16S14165   3.631   6.231   4.659  0.6829 -0.3984  1.5317
  131OSM   H16T14166   3.784   6.300   4.684 -0.1204 -0.3114 -1.4945
  131OSM   C17S14167   3.659   6.419   4.555 -0.7568  0.0364 -0.6642
  131OSM   H17S14168   3.728   6.505   4.551  2.6906 -2.5754 -2.9819
  131OSM   H17T14169   3.551   6.447   4.558 -0.6158  0.5268  1.8848
  131OSM   C18S14170   3.706   6.354   4.423 -0.2540 -0.3729  0.8373
  131OSM   H18S14171   3.676   6.247   4.418  0.7920 -0.7024  1.3423
  131OSM   H18T14172   3.816   6.346   4.416 -0.3597 -1.8561  0.6640
  131OSM   H18U14173   3.677   6.433   4.350 -1.8259  1.4332  3.2116
  131OSM    C1F14174   3.871   6.797   6.096  0.2214  0.2429 -0.2217
  131OSM     OF14175   3.965   6.788   6.178  0.2828  0.6314  0.0438
  131OSM    C2F14176   3.876   6.890   5.979 -0.4653 -0.6370  0.3191
  131OSM    H2F14177   3.789   6.959   5.978  0.4007  0.4783 -0.3269
  131OSM    H2G14178   3.872   6.832   5.884  2.4030 -0.0905 -0.2185
  131OSM    C3F14179   4.001   6.978   5.978  0.0878 -0.4544  1.1050
  131OSM    H3F14180   4.082   6.915   6.021 -0.9252 -2.7172 -0.0765
  131OSM    H3G14181   3.990   7.061   6.051  1.9648  1.2715 -0.4517
  131OSM    C4F14182   4.022   7.043   5.839 -0.8736  0.5080  0.3804
  131OSM    H4F14183   3.935   7.105   5.807 -0.6820 -0.7625 -2.8979
  131OSM    H4G14184   4.029   6.961   5.765 -1.8206  0.3316  0.4744
  131OSM    C5F14185   4.147   7.137   5.839 -0.2327  0.2051 -0.1658
  131OSM    H5F14186   4.135   7.216   5.917  2.1521  1.9008 -1.3647
  131OSM    H5G14187   4.157   7.178   5.736  2.1239 -0.4610 -0.2719
  131OSM    C6F14188   4.278   7.058   5.864  0.4568  0.2561 -0.1316
  131OSM    H6F14189   4.254   6.960   5.817 -1.1457  1.1360 -1.2519
  131OSM    H6G14190   4.293   7.042   5.973  1.0836  2.3538  0.1331
  131OSM    C7F14191   4.407   7.117   5.806  0.7069  0.3933  0.2493
  131OSM    H7F14192   4.504   7.086   5.850  0.9694  2.2445  1.0268
  131OSM    H7G14193   4.414   7.224   5.833  2.1545  0.7574 -1.4323
  131OSM    C8F14194   4.404   7.115   5.653  0.6281  0.0334 -0.0593
  131OSM    H8F14195   4.334   7.190   5.611  0.9966  0.6972  0.5032
  131OSM    H8G14196   4.371   7.014   5.620 -0.2548  0.1625  0.3967
  131OSM    C9F14197   4.539   7.149   5.595 -0.1181 -0.1030  0.0092
  131OSM    H9F14198   4.580   7.246   5.627 -1.5313  0.2186  0.9351
  131OSM   C10F14199   4.620   7.064   5.526 -0.1056 -0.5725 -1.1091
  131OSM   H10F14200   4.720   7.103   5.503 -0.4574  1.9117  1.1180
  131OSM   C11F14201   4.598   6.927   5.470 -0.1109  0.1182 -0.1128
  131OSM   H11F14202   4.503   6.884   5.509  0.0997  0.9539  1.3577
  131OSM   H11G14203   4.679   6.856   5.496 -0.7542 -0.5358  0.1473
  131OSM   C12F14204   4.588   6.919   5.318 -0.1380  0.9832  0.1482
  131OSM   H12F14205   4.504   6.977   5.275 -0.8136  1.6360  2.1939
  131OSM   H12G14206   4.563   6.818   5.280  0.4715  0.5905  0.7625
  131OSM   C13F14207   4.715   6.957   5.242  0.0588  0.4078  0.1671
  131OSM   H13F14208   4.802   6.889   5.259  1.5387  2.4859  1.3161
  131OSM   H13G14209   4.749   7.057   5.274  1.4680  0.3480 -1.0380
  131OSM   C14F14210   4.702   6.967   5.088  0.2531  0.4798  0.2236
  131OSM   H14F14211   4.789   7.018   5.042  2.4141 -2.3003  0.9614
  131OSM   H14G14212   4.605   7.019   5.070  0.4312  0.3745 -1.1456
  131OSM   C15F14213   4.697   6.833   5.020 -0.2032  0.1111 -0.4792
  131OSM   H15F14214   4.611   6.776   5.061  0.8487 -0.5796  0.8628
  131OSM   H15G14215   4.786   6.774   5.050 -0.4017 -1.3477 -2.6112
  131OSM   C16F14216   4.683   6.849   4.873  0.3412  0.3095 -0.2851
  131OSM   H16F14217   4.748   6.924   4.822 -1.4549  1.2592 -1.3031
  131OSM   H16G14218   4.578   6.875   4.848 -0.5971 -1.0275  1.9732
  131OSM   C17F14219   4.712   6.711   4.807 -0.1552  0.6791 -0.4319
  131OSM   H17F14220   4.644   6.710   4.719  1.0941  0.9695 -1.4322
  131OSM   H17G14221   4.686   6.630   4.879 -2.0007  1.4416 -0.1721
  131OSM   C18F14222   4.850   6.695   4.749  0.4837  0.2643 -0.2771
  131OSM   H18F14223   4.870   6.775   4.674 -0.5722  2.4653  1.6932
  131OSM   H18G14224   4.839   6.590   4.712 -1.9140  0.0818  0.7963
  131OSM   H18H14225   4.937   6.691   4.818  0.6968  1.0491 -0.4953
  132OSM      N14226   3.518   3.416   6.525 -0.2296  0.0556  0.4544
  132OSM    C1514227   3.424   3.300   6.568 -0.2613 -0.0398 -0.1069
  132OSM   H15A14228   3.323   3.336   6.573  0.2218  1.1688  1.6499
  132OSM   H15B14229   3.446   3.274   6.670  1.5935 -0.5490 -0.5997
  132OSM   H15C14230   3.429   3.210   6.509 -1.6306  0.1663 -0.5638
  132OSM    C1414231   3.464   3.468   6.403 -0.1468 -0.1990  0.9427
  132OSM   H14A14232   3.376   3.526   6.425 -0.7655 -0.4742 -0.6226
  132OSM   H14B14233   3.455   3.389   6.330  1.6733  1.0787 -0.7888
  132OSM   H14C14234   3.538   3.528   6.351 -1.0052  0.1960  0.1338
  132OSM    C1314235   3.506   3.521   6.630  0.1871  0.7949  0.4314
  132OSM   H13A14236   3.545   3.495   6.728  1.9756 -2.5446 -1.0025
  132OSM   H13B14237   3.401   3.546   6.629 -0.3930 -1.4301 -0.3552
  132OSM   H13C14238   3.564   3.606   6.597  0.3517 -0.3259 -2.4242
  132OSM    C1214239   3.651   3.366   6.508  0.8708  0.6176  0.2101
  132OSM   H12A14240   3.644   3.280   6.444  0.9166  0.0366  0.9732
  132OSM   H12B14241   3.691   3.336   6.604  1.3673 -0.8367 -0.4250
  132OSM    C1114242   3.759   3.460   6.450  0.2260 -0.3790 -0.0603
  132OSM   H11A14243   3.721   3.466   6.345 -0.6943  0.3433  0.2990
  132OSM   H11B14244   3.860   3.415   6.445 -0.2827 -1.7848  1.5348
  132OSM      P14245   3.743   3.719   6.421  0.2773 -0.4002  0.2745
  132OSM    O1314246   3.596   3.752   6.427 -0.5028  0.0755  0.0609
  132OSM    O1414247   3.843   3.821   6.466  0.6192  0.1543 -0.3854
  132OSM    O1114248   3.784   3.658   6.275  0.0129 -0.7127 -0.0210
  132OSM    O1214249   3.759   3.590   6.514  0.2571  0.0258 -0.1141
  132OSM    C1S14250   3.924   3.674   6.248 -0.1927 -0.7990 -0.9835
  132OSM    H1S14251   3.988   3.645   6.334 -0.2013  0.3553 -0.5657
  132OSM    H1T14252   3.956   3.779   6.230  1.8011 -1.0866  0.4359
  132OSM     NF14253   4.118   3.579   6.118 -0.2153  0.2537 -0.2565
  132OSM    HNF14254   4.159   3.611   6.034  3.3482  0.9342  1.5364
  132OSM    C2S14255   3.970   3.582   6.131 -0.1652  0.8971  0.3678
  132OSM    H2S14256   3.948   3.476   6.156  0.0794  0.7473 -0.0371
  132OSM    C3S14257   3.894   3.620   6.001 -0.1128 -0.0724 -0.8108
  132OSM    H3S14258   3.904   3.729   5.981  0.8647 -0.1897 -1.0227
  132OSM     O314259   3.748   3.615   6.004 -0.1102 -0.1112 -0.7086
  132OSM    HO314260   3.723   3.603   6.096 -2.3912 -1.0562 -1.3927
  132OSM    C4S14261   3.942   3.543   5.879 -0.3330 -0.4427 -0.1821
  132OSM    H4S14262   3.923   3.435   5.882 -2.7803 -0.0453  1.8257
  132OSM    C5S14263   4.004   3.603   5.771 -0.3692 -0.0758  0.3494
  132OSM    H5S14264   4.024   3.711   5.770 -1.5708  0.1594 -0.4113
  132OSM    C6S14265   4.055   3.522   5.644 -0.1621 -0.5213  0.3074
  132OSM    H6S14266   4.003   3.425   5.634  0.2647 -0.7558  0.3427
  132OSM    H6T14267   4.166   3.511   5.655  0.2209 -1.3015 -3.1737
  132OSM    C7S14268   4.040   3.591   5.501 -0.0792  0.1252  0.0262
  132OSM    H7S14269   4.062   3.700   5.505  0.0725  0.1254 -0.7329
  132OSM    H7T14270   3.932   3.586   5.477 -0.4184 -0.0774  1.4745
  132OSM    C8S14271   4.123   3.519   5.394 -0.0057  0.2334  0.3597
  132OSM    H8S14272   4.113   3.410   5.414  1.0288  0.2368  1.0137
  132OSM    H8T14273   4.229   3.552   5.399 -0.3909  1.5637  0.0954
  132OSM    C9S14274   4.080   3.542   5.250 -0.3395 -0.3908 -0.0808
  132OSM    H9S14275   4.080   3.652   5.232  1.8972 -0.4279 -0.4688
  132OSM    H9T14276   3.986   3.495   5.214  0.5547 -1.7344 -0.7048
  132OSM   C10S14277   4.192   3.493   5.149  0.0933  0.0601  0.3666
  132OSM   H10S14278   4.227   3.395   5.188 -3.3680 -1.7280 -0.6173
  132OSM   H10T14279   4.274   3.568   5.138 -1.4286  1.6435 -0.9219
  132OSM   C11S14280   4.143   3.464   5.010 -0.0714  0.6855 -0.3502
  132OSM   H11S14281   4.077   3.549   4.983  0.2045  1.1206  0.3307
  132OSM   H11T14282   4.088   3.367   5.006 -1.7298  1.6347 -2.4660
  132OSM   C12S14283   4.249   3.446   4.900  0.1213 -0.3069 -0.2437
  132OSM   H12S14284   4.303   3.543   4.900  0.8880 -0.7289  0.2456
  132OSM   H12T14285   4.196   3.443   4.803  1.4697  2.0243 -1.1351
  132OSM   C13S14286   4.351   3.340   4.912  0.1525  0.1697 -0.0665
  132OSM   H13S14287   4.315   3.252   4.969  1.8769 -0.0889  0.6918
  132OSM   H13T14288   4.428   3.377   4.983  1.2008 -2.4685  0.2756
  132OSM   C14S14289   4.428   3.311   4.783  0.6254 -0.3755  0.2680
  132OSM   H14S14290   4.452   3.411   4.741 -1.6511 -0.1165 -0.5372
  132OSM   H14T14291   4.364   3.267   4.704  0.8537 -1.4038  0.6441
  132OSM   C15S14292   4.557   3.227   4.793  0.2037 -0.3729 -0.5730
  132OSM   H15S14293   4.641   3.281   4.842  1.9893 -3.5337  0.1013
  132OSM   H15T14294   4.597   3.214   4.690  2.8479 -2.0881  0.5622
  132OSM   C16S14295   4.526   3.090   4.853  0.2704 -0.8728 -1.1934
  132OSM   H16S14296   4.438   3.044   4.804  0.4772 -0.8689 -1.5673
  132OSM   H16T14297   4.498   3.091   4.961 -0.8863  2.1039 -1.4366
  132OSM   C17S14298   4.651   2.994   4.846  0.1645 -0.7535  0.3016
  132OSM   H17S14299   4.682   2.992   4.740 -1.7263 -0.4794 -0.2800
  132OSM   H17T14300   4.618   2.892   4.877  1.6725 -1.4182 -0.1647
  132OSM   C18S14301   4.756   3.040   4.951 -0.3083 -0.4243  0.3159
  132OSM   H18S14302   4.722   3.110   5.030  1.9512  1.5936 -0.3823
  132OSM   H18T14303   4.841   3.087   4.897 -0.1621 -0.3104  0.6464
  132OSM   H18U14304   4.803   2.949   4.993 -0.8352 -1.7998 -1.8571
  132OSM    C1F14305   4.201   3.528   6.208 -0.1996 -0.0969  0.1110
  132OSM     OF14306   4.158   3.444   6.283 -0.2916  0.9029 -0.1821
  132OSM    C2F14307   4.346   3.568   6.204  0.6651  0.2202 -0.0338
  132OSM    H2F14308   4.400   3.487   6.259 -0.9349 -0.5399  0.4955
  132OSM    H2G14309   4.368   3.662   6.259  1.3347 -0.0115  0.1035
  132OSM    C3F14310   4.408   3.583   6.060 -0.6870 -0.2113  0.2198
  132OSM    H3F14311   4.516   3.607   6.068 -0.8662  0.0019  3.1141
  132OSM    H3G14312   4.346   3.658   6.007 -2.2425 -0.5252  1.5253
  132OSM    C4F14313   4.411   3.444   5.980 -0.0339  0.0166  0.5987
  132OSM    H4F14314   4.306   3.407   5.980 -0.2522  0.5093 -1.6219
  132OSM    H4G14315   4.472   3.374   6.041  1.7949  0.2498 -0.8693
  132OSM    C5F14316   4.461   3.464   5.838  0.6785  0.1336 -0.8305
  132OSM    H5F14317   4.550   3.529   5.821  0.0785  1.1730 -0.1425
  132OSM    H5G14318   4.380   3.509   5.778 -0.4725 -0.9664 -0.1420
  132OSM    C6F14319   4.481   3.331   5.775 -0.6685  0.7352  0.0012
  132OSM    H6F14320   4.389   3.270   5.771 -0.6806  0.6653  0.9587
  132OSM    H6G14321   4.547   3.272   5.843 -3.4089 -1.4511  0.9455
  132OSM    C7F14322   4.528   3.336   5.628 -0.2817 -0.3241  0.5307
  132OSM    H7F14323   4.544   3.231   5.596  1.8081  0.3509 -0.8380
  132OSM    H7G14324   4.628   3.383   5.618 -0.0995 -0.4376  1.6237
  132OSM    C8F14325   4.424   3.385   5.525  0.2275  0.5865 -0.0349
  132OSM    H8F14326   4.370   3.469   5.571 -2.9023 -1.7159  0.8344
  132OSM    H8G14327   4.341   3.312   5.517  0.3247  0.3770  0.7914
  132OSM    C9F14328   4.495   3.429   5.401  0.6942 -0.2275  0.1244
  132OSM    H9F14329   4.519   3.535   5.418 -0.0942 -0.2114  1.2084
  132OSM   C10F14330   4.530   3.364   5.287  0.7552 -0.3920  0.5262
  132OSM   H10F14331   4.595   3.410   5.211 -0.4645 -0.0269 -0.3332
  132OSM   C11F14332   4.492   3.222   5.265 -0.2603 -0.0539 -0.2378
  132OSM   H11F14333   4.479   3.210   5.155 -1.3119  0.5968 -0.1979
  132OSM   H11G14334   4.396   3.208   5.319  0.5544  2.1564  1.9941
  132OSM   C12F14335   4.598   3.119   5.309 -0.0655  0.4127 -0.1564
  132OSM   H12F14336   4.581   3.027   5.249 -4.3934  0.4261  0.7221
  132OSM   H12G14337   4.584   3.094   5.416  1.6424  0.7385  0.1692
  132OSM   C13F14338   4.751   3.171   5.295  0.4108 -0.7552  0.0362
  132OSM   H13F14339   4.776   3.229   5.386 -5.1038  0.0645  1.3821
  132OSM   H13G14340   4.775   3.227   5.202  0.7829 -0.7622  0.1287
  132OSM   C14F14341   4.847   3.050   5.303 -0.2741 -0.2337 -0.5413
  132OSM   H14F14342   4.830   2.968   5.230 -0.5117 -1.7062  1.1120
  132OSM   H14G14343   4.833   2.995   5.398 -0.7029  0.9305  0.0854
  132OSM   C15F14344   4.993   3.094   5.295  0.1247  0.4054  1.3294
  132OSM   H15F14345   4.993   3.193   5.347 -2.9896 -0.1931  2.6839
  132OSM   H15G14346   5.006   3.108   5.186  1.3612 -1.1861  1.2357
  132OSM   C16F14347   5.087   2.995   5.354 -0.1594  0.0872  0.2972
  132OSM   H16F14348   5.079   2.898   5.301  2.0764  0.0285 -0.0541
  132OSM   H16G14349   5.054   2.970   5.457 -0.4265 -0.7872  0.0084
  132OSM   C17F14350   5.234   3.049   5.354 -0.0285 -0.0362  0.4206
  132OSM   H17F14351   5.306   2.977   5.400 -0.5799  0.7772  2.6812
  132OSM   H17G14352   5.222   3.139   5.418  2.6272  1.7109 -1.3437
  132OSM   C18F14353   5.286   3.084   5.213 -0.2179  0.3511  0.2809
  132OSM   H18F14354   5.304   2.993   5.151  0.3286  0.7281 -0.1165
  132OSM   H18G14355   5.377   3.145   5.229  1.0463 -0.8765 -1.7645
  132OSM   H18H14356   5.216   3.146   5.153 -0.1439 -2.3755 -2.9433
  133OSM      N14357   1.827   1.861   6.168 -0.2137 -0.1310  0.5666
  133OSM    C1514358   1.828   1.785   6.041 -0.2332 -0.2142 -0.0700
  133OSM   H15A14359   1.927   1.790   5.998  0.3218 -5.1558 -0.0205
  133OSM   H15B14360   1.763   1.827   5.966 -2.2457 -1.7414  0.7163
  133OSM   H15C14361   1.802   1.681   6.053  0.7412 -0.5138 -0.4290
  133OSM    C1414362   1.690   1.869   6.209  0.0323 -0.5751 -0.1043
  133OSM   H14A14363   1.681   1.945   6.286 -0.6889 -1.7926  1.0460
  133OSM   H14B14364   1.654   1.782   6.260  1.0260 -0.5545  0.6568
  133OSM   H14C14365   1.619   1.894   6.131 -0.8485  1.2108  1.2034
  133OSM    C1314366   1.898   1.779   6.274  0.8267  0.0148  0.4044
  133OSM   H13A14367   1.868   1.808   6.374 -0.4342  0.5230 -0.1014
  133OSM   H13B14368   2.002   1.797   6.252  0.4819  0.6429 -0.7800
  133OSM   H13C14369   1.882   1.672   6.273  1.0427 -0.0455 -1.8774
  133OSM    C1214370   1.892   2.000   6.160  0.1733 -0.6926  0.6756
  133OSM   H12A14371   1.880   2.050   6.255 -1.9005  1.3187 -0.5491
  133OSM   H12B14372   1.831   2.048   6.086  1.1500  1.1452  1.0146
  133OSM    C1114373   2.045   2.007   6.130 -0.2198  0.0265 -0.1560
  133OSM   H11A14374   2.077   2.113   6.132 -2.9316  1.1895 -4.3983
  133OSM   H11B14375   2.070   1.980   6.025  0.9422  0.5640 -0.0311
  133OSM      P14376   2.263   1.964   6.277  0.3313  0.0017  0.0253
  133OSM    O1314377   2.282   2.106   6.262  0.6302 -0.2359  0.3490
  133OSM    O1414378   2.280   1.910   6.411 -0.3288  0.6491 -0.1252
  133OSM    O1114379   2.362   1.879   6.184 -0.1854  0.3725  0.0947
  133OSM    O1214380   2.121   1.923   6.218  0.0584  0.4136 -0.5943
  133OSM    C1S14381   2.322   1.786   6.083 -0.2623  0.7954  0.7494
  133OSM    H1S14382   2.215   1.756   6.093 -0.4492  0.8725 -0.7045
  133OSM    H1T14383   2.380   1.692   6.086  0.1178  1.0500  1.5964
  133OSM     NF14384   2.286   1.762   5.836  0.0541  0.3195  0.5470
  133OSM    HNF14385   2.360   1.719   5.784 -1.6001 -2.3331  0.1690
  133OSM    C2S14386   2.339   1.843   5.939 -0.4513 -0.0279  0.2114
  133OSM    H2S14387   2.290   1.943   5.939 -0.5396 -0.0269 -1.6739
  133OSM    C3S14388   2.490   1.873   5.923 -0.4886 -0.6271 -0.7896
  133OSM    H3S14389   2.545   1.777   5.908  0.2701 -0.4986  0.8475
  133OSM     O314390   2.556   1.944   6.027 -0.6656 -0.3505 -0.3284
  133OSM    HO314391   2.498   1.934   6.103 -0.9210 -0.3732 -0.5229
  133OSM    C4S14392   2.511   1.946   5.795 -0.0567 -0.3345  0.3449
  133OSM    H4S14393   2.483   2.052   5.800  0.8625 -0.0179 -0.6845
  133OSM    C5S14394   2.562   1.896   5.682  0.0641 -0.5730 -0.3044
  133OSM    H5S14395   2.591   1.790   5.681 -0.0188 -0.5941 -0.4337
  133OSM    C6S14396   2.571   1.970   5.548  0.0709  0.6073 -0.7149
  133OSM    H6S14397   2.534   1.911   5.461  2.1991 -0.2698 -1.0915
  133OSM    H6T14398   2.679   1.992   5.531  0.0808  1.0090 -0.1581
  133OSM    C7S14399   2.491   2.099   5.541 -0.3540  0.0694 -0.3897
  133OSM    H7S14400   2.534   2.169   5.615  0.5816  3.4773 -3.8410
  133OSM    H7T14401   2.382   2.089   5.557 -0.5779  3.0228  0.4213
  133OSM    C8S14402   2.513   2.164   5.408  0.0697  0.1360  0.7368
  133OSM    H8S14403   2.462   2.098   5.335 -0.6782 -0.2370  1.5739
  133OSM    H8T14404   2.620   2.167   5.379 -0.4941 -0.8925 -1.6608
  133OSM    C9S14405   2.444   2.301   5.402 -0.0988 -0.0676 -0.0030
  133OSM    H9S14406   2.470   2.362   5.491  0.8423  1.8147 -1.4914
  133OSM    H9T14407   2.333   2.292   5.397 -0.5007  2.0928  2.7078
  133OSM   C10S14408   2.482   2.375   5.272 -0.0312  1.0089 -0.0881
  133OSM   H10S14409   2.593   2.370   5.274 -0.0005  1.6484 -0.0729
  133OSM   H10T14410   2.444   2.479   5.280  0.3758  1.0925  1.0398
  133OSM   C11S14411   2.411   2.325   5.145  0.5005  0.7062 -0.5441
  133OSM   H11S14412   2.311   2.371   5.163 -0.2731 -0.9010 -0.5570
  133OSM   H11T14413   2.401   2.214   5.143 -1.5943  0.8420  0.0593
  133OSM   C12S14414   2.457   2.372   5.011 -0.5026  0.0038  0.1972
  133OSM   H12S14415   2.559   2.411   5.031  0.6699 -2.2604 -0.9756
  133OSM   H12T14416   2.402   2.463   4.977  0.9065  0.7647 -0.1504
  133OSM   C13S14417   2.459   2.264   4.911 -0.1443 -0.2998 -0.4551
  133OSM   H13S14418   2.362   2.210   4.905 -0.3529 -0.4091  2.5559
  133OSM   H13T14419   2.544   2.199   4.940  1.3271  1.1780 -1.2561
  133OSM   C14S14420   2.501   2.323   4.777  0.3333 -0.4768  0.6817
  133OSM   H14S14421   2.610   2.346   4.780 -0.0416  1.3050  2.3761
  133OSM   H14T14422   2.447   2.418   4.762  2.2350  0.2713 -2.4047
  133OSM   C15S14423   2.475   2.214   4.671 -0.5009  0.0825  0.6014
  133OSM   H15S14424   2.392   2.144   4.694  0.2009 -1.0936 -0.3015
  133OSM   H15T14425   2.558   2.141   4.662 -2.0549 -1.5130 -2.0568
  133OSM   C16S14426   2.436   2.260   4.534 -0.0629 -0.0143  0.3964
  133OSM   H16S14427   2.479   2.195   4.454  0.3584 -2.1009  2.2193
  133OSM   H16T14428   2.485   2.358   4.521  0.3504  0.2151  3.1165
  133OSM   C17S14429   2.282   2.253   4.505 -0.5096  1.0292 -0.6313
  133OSM   H17S14430   2.247   2.149   4.524  0.4510  0.9490  0.8403
  133OSM   H17T14431   2.260   2.289   4.403 -1.6156  0.5993 -0.5652
  133OSM   C18S14432   2.199   2.344   4.598  0.2229  0.1427 -0.5560
  133OSM   H18S14433   2.105   2.389   4.561  0.0216  0.5579  0.4257
  133OSM   H18T14434   2.268   2.427   4.623  0.8438  0.0810 -2.0064
  133OSM   H18U14435   2.188   2.284   4.691 -1.5434 -1.3811 -1.6872
  133OSM    C1F14436   2.157   1.755   5.808 -0.1638 -1.0387 -0.9943
  133OSM     OF14437   2.073   1.762   5.894  0.0303  0.4962 -0.5163
  133OSM    C2F14438   2.114   1.734   5.666  0.0759 -0.0777  0.5937
  133OSM    H2F14439   2.004   1.743   5.661  0.0974 -0.0738  0.0128
  133OSM    H2G14440   2.139   1.629   5.639  0.5486  0.4951 -1.3878
  133OSM    C3F14441   2.184   1.830   5.572  0.6554  1.1333  0.0192
  133OSM    H3F14442   2.293   1.811   5.561  0.7853  1.4509  0.7499
  133OSM    H3G14443   2.171   1.933   5.611 -2.5319  1.2331 -0.9795
  133OSM    C4F14444   2.115   1.852   5.430 -0.1969 -0.2850  0.1156
  133OSM    H4F14445   2.122   1.759   5.370 -1.8781  1.0018 -2.2565
  133OSM    H4G14446   2.163   1.933   5.373 -1.8631 -1.7129 -3.6822
  133OSM    C5F14447   1.965   1.884   5.444 -0.9612 -0.4953 -0.7105
  133OSM    H5F14448   1.940   1.965   5.515 -0.0219 -0.0355 -0.8944
  133OSM    H5G14449   1.916   1.790   5.476  2.5435 -2.3303 -0.3050
  133OSM    C6F14450   1.911   1.929   5.308 -0.3912  0.7040  0.3122
  133OSM    H6F14451   1.990   1.996   5.268  3.1488 -1.3029  3.2286
  133OSM    H6G14452   1.813   1.976   5.331  0.5743  1.9554  2.1552
  133OSM    C7F14453   1.891   1.807   5.205  0.5294 -0.4082 -0.1606
  133OSM    H7F14454   1.799   1.756   5.241  0.5942 -0.0311  0.5613
  133OSM    H7G14455   1.977   1.736   5.201  1.5282  0.5304  2.5029
  133OSM    C8F14456   1.874   1.862   5.059  0.0568  0.0793 -0.5193
  133OSM    H8F14457   1.966   1.912   5.024 -2.6138  3.1284 -4.0448
  133OSM    H8G14458   1.791   1.934   5.073  1.5325  1.5176  1.2060
  133OSM    C9F14459   1.819   1.754   4.970 -0.7204 -0.0155 -0.4438
  133OSM    H9F14460   1.779   1.664   5.018  1.4940 -0.1912  1.2426
  133OSM   C10F14461   1.834   1.743   4.835 -0.0295 -0.1303  0.1509
  133OSM   H10F14462   1.783   1.666   4.775 -1.9794  0.8937  0.4474
  133OSM   C11F14463   1.888   1.845   4.742  1.1075 -0.2364  0.0650
  133OSM   H11F14464   1.955   1.802   4.665  0.2421  0.3354 -1.0315
  133OSM   H11G14465   1.944   1.918   4.803 -0.2589 -0.0657  1.1699
  133OSM   C12F14466   1.775   1.910   4.657 -0.5824  0.3435 -0.2228
  133OSM   H12F14467   1.731   1.985   4.726  3.0773  2.9114 -0.3388
  133OSM   H12G14468   1.701   1.843   4.610 -0.9581  3.2191 -4.3048
  133OSM   C13F14469   1.850   2.002   4.556  0.3081  0.2360 -0.2214
  133OSM   H13F14470   1.931   1.952   4.500 -0.2212  0.0326 -0.8134
  133OSM   H13G14471   1.897   2.091   4.603 -1.0210  1.1012 -0.4538
  133OSM   C14F14472   1.745   2.060   4.456 -0.2638  1.0242 -0.2755
  133OSM   H14F14473   1.670   1.979   4.448  0.3104  0.3653  0.7483
  133OSM   H14G14474   1.799   2.063   4.358 -1.3604 -1.1609 -1.0184
  133OSM   C15F14475   1.668   2.183   4.503  0.7979  0.4855 -0.0977
  133OSM   H15F14476   1.645   2.183   4.611  0.6960 -0.0210 -0.1174
  133OSM   H15G14477   1.575   2.162   4.446  1.8009 -2.2536 -0.9136
  133OSM   C16F14478   1.744   2.302   4.447  0.0135 -0.5500  0.4109
  133OSM   H16F14479   1.772   2.287   4.340  1.7735 -0.4000  0.8256
  133OSM   H16G14480   1.844   2.310   4.494  1.0598  1.2817 -1.9179
  133OSM   C17F14481   1.681   2.433   4.468 -0.3174 -0.8016 -0.7575
  133OSM   H17F14482   1.647   2.445   4.573  0.1300  1.0653 -0.7932
  133OSM   H17G14483   1.593   2.451   4.403 -1.2534  0.3221  0.7567
  133OSM   C18F14484   1.770   2.549   4.435  0.2524  0.1081 -0.3732
  133OSM   H18F14485   1.712   2.643   4.423 -0.4464 -0.3438 -0.6006
  133OSM   H18G14486   1.814   2.533   4.334  1.6433 -0.0660  0.2412
  133OSM   H18H14487   1.856   2.554   4.504 -0.0406  1.1743 -0.0596
  134OSM      N14488   2.027   1.027   6.387  0.3444 -0.2050  0.2889
  134OSM    C1514489   1.963   1.126   6.474  0.4007 -0.4330 -0.0894
  134OSM   H15A14490   1.916   1.202   6.413 -1.1568 -0.8227  0.5739
  134OSM   H15B14491   2.030   1.170   6.546 -0.9667  0.5989  0.6115
  134OSM   H15C14492   1.889   1.072   6.531  0.5487 -1.2081 -0.6229
  134OSM    C1414493   2.113   0.923   6.467 -0.3283 -0.5205  0.2285
  134OSM   H14A14494   2.194   0.989   6.494 -0.2989  0.7072 -2.5777
  134OSM   H14B14495   2.148   0.841   6.406  4.3076  0.5197  1.0723
  134OSM   H14C14496   2.067   0.898   6.562  0.6141 -0.6198  0.6720
  134OSM    C1314497   1.923   0.948   6.315  0.1709 -0.1574 -0.3050
  134OSM   H13A14498   1.857   1.008   6.255 -0.1093  0.2082  0.3602
  134OSM   H13B14499   1.853   0.906   6.386  1.7368  0.2470  1.6001
  134OSM   H13C14500   1.963   0.862   6.262  0.2956  0.0351 -0.5244
  134OSM    C1214501   2.122   1.095   6.284 -1.0716 -0.5706  0.7056
  134OSM   H12A14502   2.159   1.026   6.210 -1.0236  0.3807 -0.1872
  134OSM   H12B14503   2.209   1.127   6.339 -0.8801 -0.9792  0.6427
  134OSM    C1114504   2.061   1.220   6.219 -1.0531 -0.1421  0.5001
  134OSM   H11A14505   2.137   1.241   6.140 -0.7116  1.3190  1.1691
  134OSM   H11B14506   2.071   1.299   6.296  1.5733  0.0442  0.0791
  134OSM      P14507   1.814   1.312   6.155  0.0039 -0.1773 -0.0552
  134OSM    O1314508   1.774   1.351   6.292  0.5724 -0.3937  0.2123
  134OSM    O1414509   1.860   1.411   6.054 -0.0506  0.4426 -0.3899
  134OSM    O1114510   1.691   1.231   6.106  0.7356 -0.4868 -0.3628
  134OSM    O1214511   1.926   1.199   6.167 -0.2184  0.3894 -0.0867
  134OSM    C1S14512   1.614   1.276   5.988  0.4256  0.0157 -0.1715
  134OSM    H1S14513   1.623   1.383   5.959  1.2410  0.1501  0.5200
  134OSM    H1T14514   1.506   1.256   6.006  0.1309  1.4330 -0.2244
  134OSM     NF14515   1.598   1.223   5.743 -0.0525 -0.1960  0.1965
  134OSM    HNF14516   1.510   1.179   5.723 -3.0204  4.7161  0.8067
  134OSM    C2S14517   1.660   1.192   5.869 -0.3291  0.1378 -0.2578
  134OSM    H2S14518   1.768   1.217   5.861  0.5182 -1.7506  3.3862
  134OSM    C3S14519   1.656   1.035   5.904 -0.4646 -0.9998  0.2759
  134OSM    H3S14520   1.551   1.008   5.926 -2.2198  3.2781 -1.6768
  134OSM     O314521   1.735   0.995   6.014 -0.3187 -0.2007  0.2926
  134OSM    HO314522   1.746   1.078   6.060 -0.6491  1.1109 -1.8280
  134OSM    C4S14523   1.706   0.956   5.798 -0.9302  0.3102  0.0525
  134OSM    H4S14524   1.814   0.962   5.776 -1.0746  0.0977 -0.7539
  134OSM    C5S14525   1.632   0.889   5.707  0.6637 -0.4639  0.3772
  134OSM    H5S14526   1.523   0.904   5.705  0.9463  1.6986 -1.5364
  134OSM    C6S14527   1.681   0.806   5.592  0.5386  0.2576 -0.5306
  134OSM    H6S14528   1.616   0.716   5.583  2.8460 -1.4624 -0.9652
  134OSM    H6T14529   1.782   0.772   5.624 -0.7229  0.0029  3.9347
  134OSM    C7S14530   1.676   0.859   5.447 -0.1721 -0.7138  0.3964
  134OSM    H7S14531   1.699   0.773   5.381 -0.7297 -0.6191  0.0666
  134OSM    H7T14532   1.749   0.939   5.423 -1.7918 -0.2276 -3.6683
  134OSM    C8S14533   1.530   0.894   5.406 -0.7354 -0.1174 -0.3567
  134OSM    H8S14534   1.496   0.966   5.483  0.6250  0.3800 -0.1963
  134OSM    H8T14535   1.461   0.808   5.420  0.0960 -0.4108  2.7678
  134OSM    C9S14536   1.521   0.951   5.266 -0.1687 -0.5473  0.4457
  134OSM    H9S14537   1.602   1.025   5.245  0.6121 -1.2257  1.0130
  134OSM    H9T14538   1.435   1.020   5.251  0.2141 -0.2222 -0.3737
  134OSM   C10S14539   1.525   0.846   5.151 -0.5095  0.6160 -0.2049
  134OSM   H10S14540   1.419   0.817   5.134 -1.0633 -0.1491  3.5924
  134OSM   H10T14541   1.582   0.759   5.190  2.1821  2.2477 -0.2329
  134OSM   C11S14542   1.597   0.888   5.018  0.2926 -0.4666 -0.1431
  134OSM   H11S14543   1.553   0.975   4.964 -0.1147 -0.4190  0.2588
  134OSM   H11T14544   1.576   0.797   4.957 -2.0974 -0.4014  0.4680
  134OSM   C12S14545   1.753   0.903   5.028  0.5183 -0.2296  0.8019
  134OSM   H12S14546   1.795   0.824   5.094  0.0419 -3.2559 -2.2622
  134OSM   H12T14547   1.770   1.002   5.075 -3.8880  0.5240  1.2221
  134OSM   C13S14548   1.819   0.882   4.892  0.4133 -0.1780  1.2197
  134OSM   H13S14549   1.799   0.785   4.842  0.9739 -0.3773  1.3745
  134OSM   H13T14550   1.929   0.877   4.908  0.6637  0.2199 -0.2307
  134OSM   C14S14551   1.776   0.989   4.787 -0.2658  0.1112 -0.1074
  134OSM   H14S14552   1.783   1.092   4.828  2.3807  0.5643 -1.4644
  134OSM   H14T14553   1.670   0.963   4.768  0.2545 -0.9653 -1.7240
  134OSM   C15S14554   1.848   0.979   4.652  0.5056 -0.6693 -0.2899
  134OSM   H15S14555   1.948   0.932   4.667  0.6467 -0.3599 -0.2475
  134OSM   H15T14556   1.866   1.085   4.627  2.4854 -1.0277 -0.5558
  134OSM   C16S14557   1.754   0.910   4.548  0.4179 -0.8507 -0.0305
  134OSM   H16S14558   1.666   0.975   4.531 -0.0031 -1.1692  0.8252
  134OSM   H16T14559   1.736   0.805   4.583 -1.8184 -0.9903 -1.4213
  134OSM   C17S14560   1.818   0.903   4.415 -0.4979  0.3238  0.2813
  134OSM   H17S14561   1.744   0.882   4.335 -1.5597 -1.9645  1.7489
  134OSM   H17T14562   1.892   0.819   4.419 -1.0510 -0.1274  1.7778
  134OSM   C18S14563   1.894   1.026   4.363  1.1044  0.4065  0.1587
  134OSM   H18S14564   1.986   1.039   4.424  1.5710 -1.4592 -0.0908
  134OSM   H18T14565   1.820   1.108   4.376 -0.9515 -1.4976  1.2215
  134OSM   H18U14566   1.917   1.013   4.255 -3.0808  0.2935 -0.8649
  134OSM    C1F14567   1.616   1.344   5.685 -0.0784  0.4922 -0.2518
  134OSM     OF14568   1.710   1.411   5.727  0.8280 -0.2023 -0.1875
  134OSM    C2F14569   1.524   1.384   5.576  0.4157  0.1817  0.1101
  134OSM    H2F14570   1.497   1.491   5.570 -0.8008 -0.0753  0.7783
  134OSM    H2G14571   1.428   1.329   5.583 -0.2886  1.0701 -1.7258
  134OSM    C3F14572   1.603   1.332   5.448 -0.1406 -0.0335 -0.3308
  134OSM    H3F14573   1.590   1.222   5.456 -1.6919  0.0974 -0.6562
  134OSM    H3G14574   1.709   1.364   5.451 -0.3495  0.6676 -0.2145
  134OSM    C4F14575   1.553   1.389   5.316  0.7896 -0.6929 -0.6375
  134OSM    H4F14576   1.550   1.499   5.329  1.0947 -0.7375 -0.1458
  134OSM    H4G14577   1.453   1.341   5.307  1.1257 -1.5565  0.0620
  134OSM    C5F14578   1.627   1.354   5.195  0.4154 -0.1554  0.0831
  134OSM    H5F14579   1.629   1.243   5.201 -3.7477 -0.3710  0.5581
  134OSM    H5G14580   1.729   1.396   5.186  0.5230 -0.3827  0.2480
  134OSM    C6F14581   1.548   1.400   5.072  0.1055  0.0036  0.0285
  134OSM    H6F14582   1.513   1.505   5.084  0.5372  0.0681  0.7499
  134OSM    H6G14583   1.458   1.337   5.054  1.9286 -2.3835 -1.2516
  134OSM    C7F14584   1.629   1.392   4.948  0.0129 -0.1036  0.2352
  134OSM    H7F14585   1.636   1.282   4.931  0.9023  0.1971 -1.5018
  134OSM    H7G14586   1.733   1.428   4.966 -0.1872  1.4038 -1.4352
  134OSM    C8F14587   1.569   1.462   4.826  0.8101 -0.1680  0.4644
  134OSM    H8F14588   1.603   1.566   4.848 -2.1698  0.6675  1.6412
  134OSM    H8G14589   1.458   1.455   4.829  0.7348 -0.9158 -1.9232
  134OSM    C9F14590   1.618   1.400   4.694 -1.1264  0.1893  0.3836
  134OSM    H9F14591   1.723   1.412   4.666 -1.6375  1.1562 -1.2773
  134OSM   C10F14592   1.538   1.337   4.604 -0.1099 -0.0647  0.1906
  134OSM   H10F14593   1.584   1.301   4.511 -2.2082 -1.8762 -0.2395
  134OSM   C11F14594   1.395   1.308   4.617  0.6505  0.8300 -0.2026
  134OSM   H11F14595   1.348   1.377   4.543 -3.0862 -1.3132 -0.0922
  134OSM   H11G14596   1.352   1.326   4.718  0.5645  0.5762 -0.1908
  134OSM   C12F14597   1.364   1.162   4.573  0.5393  1.2659 -0.6738
  134OSM   H12F14598   1.258   1.145   4.600  1.2219 -1.9336  0.4405
  134OSM   H12G14599   1.414   1.083   4.633  0.4901 -0.1860 -2.4447
  134OSM   C13F14600   1.380   1.130   4.427 -0.0965  0.2188 -0.5080
  134OSM   H13F14601   1.487   1.159   4.417 -0.4210  1.6867 -0.0019
  134OSM   H13G14602   1.319   1.196   4.361  0.3409  0.3161 -0.8174
  134OSM   C14F14603   1.362   0.978   4.388  0.3958 -0.1383 -0.9338
  134OSM   H14F14604   1.354   0.912   4.477  0.8594 -3.1272 -2.9659
  134OSM   H14G14605   1.445   0.940   4.325 -0.4842 -2.6739 -0.6890
  134OSM   C15F14606   1.232   0.955   4.312 -0.7467  0.0423 -0.3085
  134OSM   H15F14607   1.242   1.018   4.221 -0.7538 -0.2208 -0.4935
  134OSM   H15G14608   1.143   0.981   4.373  0.4211 -0.2869  1.5896
  134OSM   C16F14609   1.209   0.809   4.257  0.0567 -0.0750  0.1402
  134OSM   H16F14610   1.217   0.748   4.350  0.5151  0.1863  0.2749
  134OSM   H16G14611   1.278   0.770   4.180 -3.0081 -2.0913 -1.7667
  134OSM   C17F14612   1.065   0.795   4.201 -0.6319  0.2079  0.5597
  134OSM   H17F14613   1.004   0.831   4.286 -1.7939  0.3258 -0.3046
  134OSM   H17G14614   1.057   0.687   4.175  1.3439 -0.0162  0.6986
  134OSM   C18F14615   1.039   0.871   4.071  0.4333  0.2849  0.5117
  134OSM   H18F14616   1.039   0.982   4.071  0.9682  0.3116 -0.9588
  134OSM   H18G14617   0.938   0.855   4.029  0.5495 -0.0307  0.3501
  134OSM   H18H14618   1.113   0.843   3.993  0.0017 -0.8435  0.4818
  135OSM      N14619   1.428   5.243   7.111 -0.0854 -0.0725 -0.3982
  135OSM    C1514620   1.316   5.245   7.009 -0.3163  0.6311 -0.1326
  135OSM   H15A14621   1.331   5.170   6.933 -0.6606  0.3438  0.0832
  135OSM   H15B14622   1.314   5.334   6.948  0.0569 -0.8007 -2.3744
  135OSM   H15C14623   1.216   5.228   7.045 -0.0744 -3.3809 -0.9359
  135OSM    C1414624   1.413   5.373   7.197  0.0079  0.2260  0.2031
  135OSM   H14A14625   1.494   5.391   7.267  0.0122  0.3105  0.1770
  135OSM   H14B14626   1.323   5.358   7.254 -1.3338  1.9754 -1.3432
  135OSM   H14C14627   1.402   5.464   7.139  0.4835 -0.0803 -0.3843
  135OSM    C1314628   1.428   5.123   7.196  0.0529  0.4389 -0.0803
  135OSM   H13A14629   1.340   5.125   7.259  0.5192 -0.1266  0.5933
  135OSM   H13B14630   1.514   5.112   7.260  0.2286  1.0191 -0.2134
  135OSM   H13C14631   1.425   5.029   7.143 -0.5751  1.7811 -2.5821
  135OSM    C1214632   1.555   5.251   7.036 -0.1630  0.4617  1.1955
  135OSM   H12A14633   1.627   5.239   7.117 -1.5609 -0.4906  2.3545
  135OSM   H12B14634   1.578   5.349   6.998  1.0483 -0.7926 -1.6086
  135OSM    C1114635   1.580   5.151   6.926  0.1849 -0.7012  0.1633
  135OSM   H11A14636   1.676   5.183   6.880 -0.6777 -0.5017 -1.5891
  135OSM   H11B14637   1.511   5.160   6.839  0.7544 -1.2071 -0.3526
  135OSM      P14638   1.516   4.897   6.894 -0.2417  0.2717 -0.1166
  135OSM    O1314639   1.581   4.777   6.933  0.3685 -0.4581  0.1517
  135OSM    O1414640   1.373   4.907   6.900 -0.2355  0.5012 -0.3772
  135OSM    O1114641   1.567   4.934   6.751  0.0480 -0.6410  0.1932
  135OSM    O1214642   1.581   5.014   6.976  0.1343  0.0100  0.3590
  135OSM    C1S14643   1.530   4.874   6.630 -0.2322  0.0185 -0.0132
  135OSM    H1S14644   1.432   4.820   6.635  0.2541 -1.3653 -3.2080
  135OSM    H1T14645   1.608   4.800   6.604 -1.2523 -0.7148 -1.0912
  135OSM     NF14646   1.483   4.911   6.387  0.6226 -0.5148  0.1163
  135OSM    HNF14647   1.545   4.903   6.310 -2.1258 -0.8576 -2.2426
  135OSM    C2S14648   1.528   4.974   6.514  0.5850  0.2733  0.2979
  135OSM    H2S14649   1.446   5.043   6.543 -1.8178 -1.5076 -1.7873
  135OSM    C3S14650   1.656   5.049   6.493  0.0517 -0.8516  0.4975
  135OSM    H3S14651   1.736   4.977   6.468 -0.2307 -0.4848 -1.6229
  135OSM     O314652   1.716   5.116   6.605  0.1534  0.0811  0.1526
  135OSM    HO314653   1.670   5.069   6.676 -3.0676  0.4963 -1.4662
  135OSM    C4S14654   1.637   5.145   6.381 -0.0152 -0.9996  0.0066
  135OSM    H4S14655   1.632   5.105   6.278  1.4257 -0.5346 -0.2703
  135OSM    C5S14656   1.612   5.278   6.388  0.4312 -0.0887 -0.1682
  135OSM    H5S14657   1.604   5.334   6.482  0.5289  0.7846 -0.6653
  135OSM    C6S14658   1.589   5.364   6.264  0.3006  0.1655  0.8524
  135OSM    H6S14659   1.656   5.452   6.253 -0.4099  0.5506 -0.6375
  135OSM    H6T14660   1.489   5.412   6.262 -0.6377 -1.6972 -1.8630
  135OSM    C7S14661   1.602   5.296   6.128  0.4394 -0.8074  0.0270
  135OSM    H7S14662   1.524   5.218   6.117  0.1185 -0.4647 -0.1507
  135OSM    H7T14663   1.699   5.243   6.129  0.6198 -0.5142 -0.8527
  135OSM    C8S14664   1.578   5.395   6.013 -0.7891 -0.6460 -0.4156
  135OSM    H8S14665   1.661   5.468   5.997 -3.0778  1.9389 -1.1970
  135OSM    H8T14666   1.481   5.447   6.027  0.0059  0.9145 -0.4476
  135OSM    C9S14667   1.566   5.316   5.888 -0.0173  0.0309 -0.2204
  135OSM    H9S14668   1.475   5.252   5.887  1.1128 -1.6433 -1.6095
  135OSM    H9T14669   1.663   5.267   5.863 -0.2434  0.4584 -2.0957
  135OSM   C10S14670   1.545   5.419   5.771  0.1350 -0.8096 -0.4848
  135OSM   H10S14671   1.617   5.504   5.769 -2.6559  1.7366 -3.0641
  135OSM   H10T14672   1.445   5.466   5.782 -0.4680 -2.1287 -0.1498
  135OSM   C11S14673   1.549   5.349   5.633  0.1194 -0.0734  0.2219
  135OSM   H11S14674   1.466   5.275   5.638 -2.4198  2.5648  0.1560
  135OSM   H11T14675   1.650   5.308   5.613  0.0627  0.8086 -2.2295
  135OSM   C12S14676   1.498   5.434   5.515 -0.0459  0.2025  0.0878
  135OSM   H12S14677   1.541   5.537   5.507  0.1466  0.2430  1.4155
  135OSM   H12T14678   1.390   5.459   5.518 -0.4728 -1.3435 -1.3148
  135OSM   C13S14679   1.529   5.355   5.384  0.1408  0.6151 -0.0239
  135OSM   H13S14680   1.478   5.257   5.369  1.3392  0.1330 -1.1076
  135OSM   H13T14681   1.640   5.355   5.373  0.3631  1.8188  1.7683
  135OSM   C14S14682   1.489   5.441   5.268  0.2779 -0.9025 -0.2038
  135OSM   H14S14683   1.553   5.531   5.275  0.5552 -1.1603  0.7654
  135OSM   H14T14684   1.386   5.480   5.284  0.1385 -1.2099 -0.3476
  135OSM   C15S14685   1.494   5.373   5.129 -0.2747 -0.0405  0.9447
  135OSM   H15S14686   1.439   5.276   5.137  0.7167 -0.8593 -1.2754
  135OSM   H15T14687   1.601   5.349   5.114 -0.3830 -0.7336  1.2575
  135OSM   C16S14688   1.448   5.460   5.015  0.3532  0.5288 -0.5183
  135OSM   H16S14689   1.490   5.563   5.022 -0.2599  0.6955  1.1149
  135OSM   H16T14690   1.341   5.460   5.044  0.7431 -1.8435  1.1631
  135OSM   C17S14691   1.473   5.406   4.875 -0.0498  0.0325 -0.5875
  135OSM   H17S14692   1.578   5.422   4.842  0.0088 -0.8590 -0.8491
  135OSM   H17T14693   1.411   5.472   4.810 -0.8987  0.6426  0.7980
  135OSM   C18S14694   1.419   5.269   4.847 -0.1570  0.4473  0.6394
  135OSM   H18S14695   1.482   5.191   4.895  0.5388  0.8181  0.3423
  135OSM   H18T14696   1.430   5.238   4.741  2.0179  1.7657  0.4259
  135OSM   H18U14697   1.316   5.270   4.890 -0.8105  2.1387 -0.8488
  135OSM    C1F14698   1.363   4.862   6.371  0.3687  0.9281  0.1690
  135OSM     OF14699   1.273   4.860   6.462 -0.4563  0.0716 -0.0492
  135OSM    C2F14700   1.332   4.830   6.224 -0.0766 -0.4739  0.2564
  135OSM    H2F14701   1.399   4.745   6.199 -2.0960 -1.6320 -1.5594
  135OSM    H2G14702   1.361   4.919   6.165  0.2623  0.4231  1.7385
  135OSM    C3F14703   1.185   4.781   6.196  0.9038 -0.5566  0.2558
  135OSM    H3F14704   1.119   4.846   6.257  2.1211 -0.2636  1.3239
  135OSM    H3G14705   1.176   4.675   6.227 -0.5728 -0.6163 -0.3278
  135OSM    C4F14706   1.151   4.777   6.051  0.4760  0.0178 -0.0306
  135OSM    H4F14707   1.174   4.867   5.991 -0.2190 -0.9590 -1.8333
  135OSM    H4G14708   1.208   4.701   5.994  1.5289  0.7506  0.0123
  135OSM    C5F14709   1.000   4.733   6.038 -0.2912  0.1577  0.4047
  135OSM    H5F14710   0.936   4.811   6.085  0.1351  0.6753  0.1351
  135OSM    H5G14711   0.979   4.634   6.084 -0.6876 -1.0632 -2.2399
  135OSM    C6F14712   0.960   4.710   5.894  0.5772 -0.6407 -0.1521
  135OSM    H6F14713   0.879   4.635   5.885 -1.4279  1.4709 -0.5747
  135OSM    H6G14714   1.053   4.676   5.843  0.1609  0.4667 -1.7624
  135OSM    C7F14715   0.897   4.837   5.824 -0.1612  0.6062 -0.1283
  135OSM    H7F14716   0.958   4.925   5.854  0.2991  0.0647  0.5258
  135OSM    H7G14717   0.791   4.848   5.856 -0.2078  1.6118 -0.5817
  135OSM    C8F14718   0.901   4.818   5.670  0.6049  0.8500 -0.7165
  135OSM    H8F14719   0.842   4.907   5.640 -1.5718 -0.1652  0.3116
  135OSM    H8G14720   0.853   4.722   5.643  0.7641 -0.2071  2.3670
  135OSM    C9F14721   1.042   4.827   5.612  0.0535  0.4363  1.1496
  135OSM    H9F14722   1.122   4.814   5.686 -1.5083  0.8665  2.9776
  135OSM   C10F14723   1.064   4.853   5.483  0.2686 -0.0919 -0.0347
  135OSM   H10F14724   1.163   4.866   5.438  0.6804  1.5688  1.2458
  135OSM   C11F14725   0.959   4.879   5.382  1.0632  0.0507  0.0581
  135OSM   H11F14726   0.991   4.947   5.300 -0.5999 -0.4071 -1.0171
  135OSM   H11G14727   0.877   4.944   5.420 -0.3434 -1.8295  0.3780
  135OSM   C12F14728   0.888   4.758   5.305  0.0215 -0.4599 -0.3128
  135OSM   H12F14729   0.793   4.793   5.258 -0.4283 -0.4444  0.5858
  135OSM   H12G14730   0.856   4.679   5.375 -0.4105 -1.7220 -1.8800
  135OSM   C13F14731   0.980   4.697   5.201  0.0602  1.0970 -0.1931
  135OSM   H13F14732   0.936   4.596   5.185 -0.5175  1.2986  0.1118
  135OSM   H13G14733   1.084   4.691   5.240  0.1038 -0.1451 -0.4464
  135OSM   C14F14734   0.979   4.770   5.064 -0.3697  0.0162 -0.1985
  135OSM   H14F14735   1.014   4.874   5.081  1.3108 -0.5786  0.1154
  135OSM   H14G14736   0.876   4.768   5.023 -0.4381 -0.5616 -0.0024
  135OSM   C15F14737   1.070   4.702   4.956 -0.0207  0.9534  0.0213
  135OSM   H15F14738   1.034   4.597   4.953  0.2344  0.8670 -0.0804
  135OSM   H15G14739   1.176   4.702   4.991  0.1456 -0.6811 -0.4049
  135OSM   C16F14740   1.071   4.757   4.814  0.3949  0.3696 -0.2388
  135OSM   H16F14741   1.123   4.691   4.741  1.0861  0.2890  0.3156
  135OSM   H16G14742   1.133   4.847   4.830  1.7478 -0.9185  2.3544
  135OSM   C17F14743   0.937   4.805   4.763 -0.1237  0.0352 -0.2002
  135OSM   H17F14744   0.912   4.891   4.828  1.1539  0.8226 -0.7091
  135OSM   H17G14745   0.869   4.720   4.784  0.8064 -0.3369  1.4329
  135OSM   C18F14746   0.931   4.833   4.618 -0.8632 -0.1932  1.2012
  135OSM   H18F14747   1.014   4.903   4.592 -0.6540 -0.3830  1.3536
  135OSM   H18G14748   0.832   4.872   4.587 -0.5084 -1.1227 -1.4093
  135OSM   H18H14749   0.950   4.738   4.563 -1.0849  0.8275 -0.7432
  136OSM      N14750   1.837   0.103   6.576  0.6915  0.3927 -0.8247
  136OSM    C1514751   1.937  -0.003   6.609 -0.3949  0.1896 -0.3171
  136OSM   H15A14752   1.896  -0.103   6.620 -0.3813  0.0963 -1.0523
  136OSM   H15B14753   1.985   0.020   6.702 -0.4703  3.0519 -0.9118
  136OSM   H15C14754   2.017  -0.012   6.537 -0.5551 -1.6752 -0.3335
  136OSM    C1414755   1.735   0.120   6.683 -0.1927  0.4246 -0.0089
  136OSM   H14A14756   1.787   0.140   6.775  0.7033  1.2344 -0.6795
  136OSM   H14B14757   1.692   0.021   6.696  0.4949  0.2768  1.2971
  136OSM   H14C14758   1.661   0.193   6.653  0.1079  0.4427 -0.7068
  136OSM    C1314759   1.904   0.241   6.552  0.6293 -0.2628  0.1858
  136OSM   H13A14760   1.965   0.247   6.463  0.4434  0.1917  0.0836
  136OSM   H13B14761   1.956   0.261   6.645 -0.6390 -2.4208  1.4275
  136OSM   H13C14762   1.827   0.316   6.541  0.8509 -0.1739 -0.9228
  136OSM    C1214763   1.763   0.052   6.461 -0.0114  0.2551 -0.0600
  136OSM   H12A14764   1.688   0.129   6.448  1.2176  1.1278 -2.6508
  136OSM   H12B14765   1.707  -0.037   6.484 -2.7634  1.6252 -0.9322
  136OSM    C1114766   1.845   0.037   6.332  0.2886  0.2379  0.1009
  136OSM   H11A14767   1.786  -0.012   6.252  1.3989 -0.2640 -0.4329
  136OSM   H11B14768   1.925  -0.036   6.358 -1.9297 -3.2801 -2.0729
  136OSM      P14769   1.807   0.261   6.211  0.3880  0.0360 -0.0503
  136OSM    O1314770   1.689   0.202   6.157  0.5002  0.3757 -0.2143
  136OSM    O1414771   1.787   0.379   6.299  0.6156 -0.1264  0.4387
  136OSM    O1114772   1.883   0.318   6.085 -0.0422 -0.4059 -0.1616
  136OSM    O1214773   1.899   0.158   6.286  0.0188 -0.2114  0.3060
  136OSM    C1S14774   1.926   0.233   5.979 -0.0891 -0.4872  0.3144
  136OSM    H1S14775   1.854   0.247   5.895  0.0419  0.6611  0.3832
  136OSM    H1T14776   1.935   0.127   6.013  3.5706  0.0920  1.5881
  136OSM     NF14777   2.103   0.193   5.811 -0.4889 -0.6279 -0.2010
  136OSM    HNF14778   2.169   0.121   5.828  2.1383  1.7689  0.5471
  136OSM    C2S14779   2.070   0.271   5.922 -0.8543 -0.4389 -0.3340
  136OSM    H2S14780   2.055   0.381   5.907 -0.9141 -0.3426  0.3668
  136OSM    C3S14781   2.175   0.269   6.039 -0.3718 -0.2315 -0.1383
  136OSM    H3S14782   2.179   0.163   6.075  0.4069 -0.3862 -0.6555
  136OSM     O314783   2.145   0.353   6.147  0.5315  0.1277 -0.4146
  136OSM    HO314784   2.050   0.365   6.143  0.5722  0.4362 -0.5051
  136OSM    C4S14785   2.317   0.295   5.979  0.0927 -0.0948  0.4918
  136OSM    H4S14786   2.371   0.201   5.961  0.6127  0.0996  0.9915
  136OSM    C5S14787   2.378   0.411   5.945 -0.1143 -0.2292  0.5168
  136OSM    H5S14788   2.330   0.507   5.968 -1.6299 -0.8311 -0.0132
  136OSM    C6S14789   2.517   0.419   5.883  0.0201  0.0365 -0.2852
  136OSM    H6S14790   2.565   0.320   5.892  0.8316  0.4408 -0.0625
  136OSM    H6T14791   2.565   0.492   5.951  1.1332 -0.1808 -0.8209
  136OSM    C7S14792   2.510   0.449   5.731  0.2780 -0.8751 -0.2502
  136OSM    H7S14793   2.462   0.548   5.717 -0.8765 -1.4002 -0.0652
  136OSM    H7T14794   2.449   0.371   5.682 -1.8810 -1.6934  3.3300
  136OSM    C8S14795   2.648   0.445   5.659  0.4592  0.3100  0.5818
  136OSM    H8S14796   2.697   0.346   5.666 -0.1209  0.1324  3.3689
  136OSM    H8T14797   2.717   0.520   5.703  0.6808  1.9704 -2.3803
  136OSM    C9S14798   2.637   0.495   5.513 -0.0021  0.1692 -0.4124
  136OSM    H9S14799   2.568   0.581   5.506  0.0628  0.4141  1.3947
  136OSM    H9T14800   2.601   0.412   5.448 -1.4799  0.6064 -0.1903
  136OSM   C10S14801   2.776   0.532   5.467 -0.9130 -0.4517  0.1289
  136OSM   H10S14802   2.852   0.451   5.471  0.2841  0.6885  1.5072
  136OSM   H10T14803   2.819   0.606   5.538  0.4752 -0.6600 -0.4595
  136OSM   C11S14804   2.785   0.610   5.336 -0.2718  0.0332  0.1341
  136OSM   H11S14805   2.754   0.715   5.357  0.3108  0.5170 -1.2626
  136OSM   H11T14806   2.717   0.566   5.259 -0.4806 -1.4349  1.1243
  136OSM   C12S14807   2.925   0.613   5.266  0.3034 -0.1645 -0.9796
  136OSM   H12S14808   2.951   0.506   5.256 -3.8710 -1.3190 -1.1566
  136OSM   H12T14809   2.997   0.660   5.337  0.5118 -2.9725  0.8350
  136OSM   C13S14810   2.926   0.661   5.127  0.3621 -0.3653  0.2501
  136OSM   H13S14811   2.918   0.771   5.121 -1.1549 -0.5260 -1.4166
  136OSM   H13T14812   2.841   0.613   5.074  0.3038 -0.8836  0.7995
  136OSM   C14S14813   3.043   0.608   5.047  0.8286 -1.0781 -0.1604
  136OSM   H14S14814   3.026   0.498   5.048  1.4533 -1.1895 -1.0192
  136OSM   H14T14815   3.138   0.643   5.091  0.0734  2.1875 -0.8807
  136OSM   C15S14816   3.038   0.649   4.896 -0.2636  0.6355 -0.0163
  136OSM   H15S14817   3.005   0.755   4.889  0.1300  0.6669 -1.7901
  136OSM   H15T14818   2.975   0.584   4.832  2.4275 -1.0125 -1.1892
  136OSM   C16S14819   3.170   0.657   4.822 -0.2481  0.3669 -0.0114
  136OSM   H16S14820   3.211   0.556   4.805 -0.6530  0.2238 -0.1390
  136OSM   H16T14821   3.245   0.707   4.887  0.0825  0.7451 -0.6664
  136OSM   C17S14822   3.142   0.735   4.698 -0.4631 -0.6756  0.0627
  136OSM   H17S14823   3.085   0.829   4.716 -2.3323 -1.8390  0.5247
  136OSM   H17T14824   3.075   0.672   4.636 -1.5468 -0.3535  0.8676
  136OSM   C18S14825   3.264   0.781   4.618 -0.3281 -0.4481  0.1848
  136OSM   H18S14826   3.343   0.706   4.596 -0.5575 -1.0584  1.3620
  136OSM   H18T14827   3.311   0.869   4.668  0.7745  0.2230 -1.8932
  136OSM   H18U14828   3.237   0.824   4.519  0.7551  2.3236  0.9828
  136OSM    C1F14829   2.053   0.213   5.685 -0.0400 -0.2164  0.4138
  136OSM     OF14830   1.987   0.311   5.650  0.2936  0.3229  0.4832
  136OSM    C2F14831   2.091   0.108   5.586 -0.0372 -0.1800  0.7930
  136OSM    H2F14832   2.017   0.026   5.583  0.2882 -0.4549 -0.0722
  136OSM    H2G14833   2.193   0.065   5.599  0.5108  1.6853  3.4507
  136OSM    C3F14834   2.097   0.161   5.442  0.2157 -0.2909  0.3088
  136OSM    H3F14835   2.177   0.236   5.423  0.2903 -0.8028 -1.6983
  136OSM    H3G14836   2.001   0.208   5.413  0.5728 -0.3794 -1.1163
  136OSM    C4F14837   2.130   0.048   5.342 -0.0217 -0.7159 -0.1688
  136OSM    H4F14838   2.053  -0.030   5.356  0.3589 -1.1322 -0.3545
  136OSM    H4G14839   2.236   0.014   5.345 -0.1292 -1.2833 -1.7672
  136OSM    C5F14840   2.108   0.086   5.192  0.5741  0.2457  0.1199
  136OSM    H5F14841   2.005   0.125   5.176  0.5789  0.8729  1.4470
  136OSM    H5G14842   2.128   0.005   5.119  2.4717  1.2498 -0.5419
  136OSM    C6F14843   2.196   0.198   5.133  0.1073  0.1675  0.8308
  136OSM    H6F14844   2.304   0.176   5.146  0.1366 -0.8971 -0.9189
  136OSM    H6G14845   2.181   0.285   5.201 -0.8965  0.2308  0.5410
  136OSM    C7F14846   2.173   0.231   4.984 -0.7989  0.0370  0.1649
  136OSM    H7F14847   2.186   0.342   4.980  0.1426  0.0012  1.6503
  136OSM    H7G14848   2.068   0.214   4.953 -0.3187 -1.4839 -0.7063
  136OSM    C8F14849   2.274   0.161   4.886  0.9391 -0.2528 -0.2178
  136OSM    H8F14850   2.266   0.051   4.894  0.4419 -0.0751  2.9616
  136OSM    H8G14851   2.365   0.201   4.935 -0.4817  3.2357 -0.0762
  136OSM    C9F14852   2.252   0.187   4.736 -0.2738 -0.1557  0.0697
  136OSM    H9F14853   2.157   0.161   4.686 -0.1653 -0.4073 -0.0096
  136OSM   C10F14854   2.336   0.260   4.667 -0.3357  0.5476 -0.5393
  136OSM   H10F14855   2.322   0.288   4.562  2.7782  0.3580 -1.0906
  136OSM   C11F14856   2.470   0.308   4.712  0.7889 -0.0111 -0.3991
  136OSM   H11F14857   2.541   0.235   4.757  1.3094  0.6160 -0.1757
  136OSM   H11G14858   2.449   0.378   4.795 -0.2896 -1.1056  0.2687
  136OSM   C12F14859   2.559   0.377   4.601  0.6275 -0.1723  0.2983
  136OSM   H12F14860   2.556   0.488   4.610  3.9593 -0.0874  1.9586
  136OSM   H12G14861   2.537   0.334   4.501  0.3146 -0.5948  0.5481
  136OSM   C13F14862   2.710   0.338   4.613  0.4187 -0.5313 -0.2671
  136OSM   H13F14863   2.720   0.230   4.586 -0.2156 -0.3440 -1.3496
  136OSM   H13G14864   2.733   0.356   4.720  2.2256 -2.2203 -0.3122
  136OSM   C14F14865   2.799   0.420   4.520 -0.6094  0.0530 -0.2351
  136OSM   H14F14866   2.778   0.525   4.551 -0.6236  0.0533 -0.2461
  136OSM   H14G14867   2.769   0.409   4.414  0.0439 -0.1329 -0.4061
  136OSM   C15F14868   2.947   0.391   4.540 -0.4214  0.3216 -0.0114
  136OSM   H15F14869   2.984   0.389   4.645 -1.6972 -0.7457  0.4417
  136OSM   H15G14870   3.011   0.461   4.482 -0.0149 -0.8679 -1.0404
  136OSM   C16F14871   2.973   0.255   4.477 -0.0314  0.1155 -0.1836
  136OSM   H16F14872   2.968   0.266   4.366  1.1150 -0.0873 -0.2700
  136OSM   H16G14873   2.918   0.165   4.512  1.5340 -1.3218 -1.2429
  136OSM   C17F14874   3.119   0.231   4.503  0.1204  0.1407  0.2432
  136OSM   H17F14875   3.132   0.228   4.613  0.4561  0.4243  0.2121
  136OSM   H17G14876   3.178   0.320   4.471 -0.1090  0.5217  0.8778
  136OSM   C18F14877   3.168   0.102   4.432  0.0032  0.0898 -0.4126
  136OSM   H18F14878   3.155   0.116   4.323 -0.2518 -0.9914 -0.5305
  136OSM   H18G14879   3.116   0.010   4.467  0.9857 -0.1150  0.5680
  136OSM   H18H14880   3.278   0.091   4.448  0.1076  1.4006 -0.1097
  137OSM      N14881   5.888   6.221   6.492 -0.4388  0.9372  0.3231
  137OSM    C1514882   5.990   6.317   6.542 -0.1172 -0.5477 -0.0095
  137OSM   H15A14883   5.973   6.406   6.484  1.0474 -0.3709 -0.1048
  137OSM   H15B14884   6.087   6.270   6.532  1.3079  2.0916  0.5534
  137OSM   H15C14885   5.971   6.324   6.649 -1.0397 -0.2594 -0.1808
  137OSM    C1414886   5.755   6.258   6.539 -0.4870  0.4116 -0.0629
  137OSM   H14A14887   5.743   6.241   6.645 -0.6468 -1.5592 -0.3481
  137OSM   H14B14888   5.677   6.193   6.504  0.5481 -0.7192 -0.3727
  137OSM   H14C14889   5.727   6.359   6.514 -0.0417  0.8985  1.2942
  137OSM    C1314890   5.867   6.210   6.344  0.3748 -0.7637  0.0154
  137OSM   H13A14891   5.828   6.306   6.314  0.2085 -0.7906  0.1426
  137OSM   H13B14892   5.800   6.128   6.321 -0.8265 -0.0737  0.9440
  137OSM   H13C14893   5.963   6.187   6.300  0.8331 -0.8542  1.0424
  137OSM    C1214894   5.913   6.083   6.551  0.7591  0.1667  0.2379
  137OSM   H12A14895   5.826   6.019   6.546  0.5153  0.2756  2.3702
  137OSM   H12B14896   5.914   6.094   6.658 -1.2340  1.2967  0.1817
  137OSM    C1114897   6.040   6.006   6.499  0.3731 -0.1893  0.4216
  137OSM   H11A14898   6.017   5.974   6.395 -0.6089 -2.0988  1.1706
  137OSM   H11B14899   6.059   5.918   6.564  1.9760  1.1287  1.8247
  137OSM      P14900   6.269   6.072   6.399  0.0660 -0.3464 -0.2148
  137OSM    O1314901   6.377   6.167   6.443 -0.7763  0.6593 -0.0204
  137OSM    O1414902   6.300   5.934   6.389  0.2214 -0.1210 -0.6213
  137OSM    O1114903   6.199   6.123   6.263  0.7396 -0.1355 -0.2256
  137OSM    O1214904   6.158   6.080   6.514  0.2568  0.5334 -0.7548
  137OSM    C1S14905   6.220   6.244   6.192 -0.3429  1.1259  0.8117
  137OSM    H1S14906   6.291   6.313   6.242 -1.9939  1.9170  2.1956
  137OSM    H1T14907   6.123   6.298   6.198 -1.7683 -1.1673 -0.0820
  137OSM     NF14908   6.318   6.316   5.972 -0.0024  0.4037 -0.4622
  137OSM    HNF14909   6.265   6.355   5.897 -0.4991 -0.4541 -0.5802
  137OSM    C2S14910   6.259   6.205   6.044  0.4793 -0.9346 -0.5115
  137OSM    H2S14911   6.335   6.124   6.051  0.0454 -1.2392  1.1507
  137OSM    C3S14912   6.135   6.145   5.979 -0.0746  0.4522 -1.1422
  137OSM    H3S14913   6.056   6.224   5.977  0.0872  0.6105 -2.3478
  137OSM     O314914   6.082   6.027   6.048 -0.2138 -0.2867  0.2195
  137OSM    HO314915   6.121   6.031   6.135 -0.5662 -0.0003  0.3649
  137OSM    C4S14916   6.167   6.094   5.840 -0.1777 -0.4286 -0.1405
  137OSM    H4S14917   6.233   6.007   5.854  0.0516 -0.0673  1.1463
  137OSM    C5S14918   6.117   6.142   5.724 -0.4020 -0.1520  0.0649
  137OSM    H5S14919   6.051   6.229   5.729  0.6212  0.6831 -0.4202
  137OSM    C6S14920   6.149   6.092   5.585  0.1238  0.2756  0.5515
  137OSM    H6S14921   6.216   6.004   5.576  1.4051  1.3318 -0.6658
  137OSM    H6T14922   6.213   6.164   5.530 -0.8863 -0.4443 -1.6752
  137OSM    C7S14923   6.023   6.034   5.516  0.4430 -0.1977 -0.2825
  137OSM    H7S14924   5.950   6.117   5.502  2.0590  1.1799 -0.9252
  137OSM    H7T14925   5.960   5.963   5.572 -0.9684  1.8904  0.9145
  137OSM    C8S14926   6.073   5.986   5.375 -0.3106 -0.7718  0.0768
  137OSM    H8S14927   6.129   5.891   5.386  1.9126  0.4128 -0.4820
  137OSM    H8T14928   6.143   6.064   5.337  0.3027 -2.1919 -1.8526
  137OSM    C9S14929   5.958   5.984   5.265  0.0741 -0.5691  0.1989
  137OSM    H9S14930   5.915   6.085   5.275  0.4450 -0.3309 -0.5207
  137OSM    H9T14931   5.883   5.910   5.302 -1.8464  0.5960 -1.1849
  137OSM   C10S14932   6.009   5.977   5.123  0.4607  0.2287  0.1707
  137OSM   H10S14933   6.042   5.874   5.099 -2.7126 -0.6293 -0.9856
  137OSM   H10T14934   6.089   6.052   5.108  1.0452 -0.1245  1.4005
  137OSM   C11S14935   5.893   6.004   5.028 -0.6811 -0.3730 -0.1176
  137OSM   H11S14936   5.867   6.112   5.031 -0.7921 -0.4182  0.7288
  137OSM   H11T14937   5.799   5.949   5.051 -1.1654  0.0922 -0.9499
  137OSM   C12S14938   5.927   5.980   4.879 -0.2545  0.0293 -0.0055
  137OSM   H12S14939   5.839   5.994   4.814 -0.2978  0.0725  0.0627
  137OSM   H12T14940   5.956   5.873   4.866  1.6022  0.1386  2.3711
  137OSM   C13S14941   6.037   6.071   4.825  0.5934 -0.3117 -0.7017
  137OSM   H13S14942   6.135   6.048   4.872  0.5322  0.1919 -0.3174
  137OSM   H13T14943   6.016   6.180   4.830  0.1476 -0.2162 -3.2363
  137OSM   C14S14944   6.066   6.064   4.673 -0.2180 -0.5982 -0.3098
  137OSM   H14S14945   6.151   6.134   4.654 -1.4623  0.9101 -0.4610
  137OSM   H14T14946   5.977   6.101   4.617  1.4007  2.9677 -0.8222
  137OSM   C15S14947   6.124   5.927   4.624  0.2613 -0.5166 -0.3375
  137OSM   H15S14948   6.067   5.844   4.671  0.0791 -0.1609  0.0779
  137OSM   H15T14949   6.235   5.916   4.628  0.3501 -1.6221 -3.2543
  137OSM   C16S14950   6.101   5.899   4.475  0.4866  0.2894 -0.1299
  137OSM   H16S14951   5.991   5.888   4.468  0.4411 -0.6775  1.6794
  137OSM   H16T14952   6.156   5.805   4.454  0.5386  0.3622 -0.3319
  137OSM   C17S14953   6.158   6.013   4.387  0.2338 -0.0090  0.5024
  137OSM   H17S14954   6.110   6.109   4.417 -1.3823 -0.1501 -1.4264
  137OSM   H17T14955   6.113   6.005   4.286  0.3577 -1.1513  0.5206
  137OSM   C18S14956   6.314   6.022   4.369 -0.3707  0.0369 -0.0656
  137OSM   H18S14957   6.367   6.038   4.466 -2.8006  2.7669  0.9655
  137OSM   H18T14958   6.349   6.097   4.296  2.9148  0.0099  1.3053
  137OSM   H18U14959   6.344   5.923   4.329  4.1904  1.1952 -0.0278
  137OSM    C1F14960   6.435   6.372   6.005 -0.2301  0.0075  0.8295
  137OSM     OF14961   6.497   6.339   6.102  0.1755 -0.2323  0.7219
  137OSM    C2F14962   6.491   6.473   5.907  0.3847 -0.0225  0.1173
  137OSM    H2F14963   6.478   6.575   5.950 -1.3097 -0.1111 -0.1313
  137OSM    H2G14964   6.431   6.470   5.814  0.7178 -0.6934 -0.0810
  137OSM    C3F14965   6.640   6.452   5.882 -0.2999  0.2884  0.5801
  137OSM    H3F14966   6.652   6.351   5.838 -1.3583  0.8044 -1.0065
  137OSM    H3G14967   6.712   6.446   5.967  0.7926 -0.0455 -0.3390
  137OSM    C4F14968   6.697   6.542   5.774  1.0205  0.0992  0.1754
  137OSM    H4F14969   6.798   6.503   5.749 -0.0958 -1.3147 -2.6508
  137OSM    H4G14970   6.703   6.647   5.808 -0.4782 -0.2571  1.7011
  137OSM    C5F14971   6.616   6.558   5.649 -0.1014 -0.3939  0.5769
  137OSM    H5F14972   6.521   6.607   5.679 -0.1645  1.8140 -2.7236
  137OSM    H5G14973   6.591   6.460   5.603  1.1154 -0.7056  0.5441
  137OSM    C6F14974   6.687   6.650   5.552 -0.1810 -0.1989  0.2008
  137OSM    H6F14975   6.781   6.685   5.600 -0.7686 -2.6730  3.4573
  137OSM    H6G14976   6.633   6.746   5.534  0.0774  0.4686  2.6115
  137OSM    C7F14977   6.724   6.579   5.423 -0.1525 -1.0736  0.8916
  137OSM    H7F14978   6.772   6.484   5.455  1.0363 -0.9665 -0.4573
  137OSM    H7G14979   6.798   6.629   5.356  0.8509 -1.8233  1.4213
  137OSM    C8F14980   6.596   6.538   5.341 -0.6576  0.0230 -0.1709
  137OSM    H8F14981   6.559   6.633   5.297 -0.4839  0.6861  1.0446
  137OSM    H8G14982   6.510   6.508   5.404 -1.5093 -0.6712 -1.6215
  137OSM    C9F14983   6.620   6.425   5.244 -0.1852 -0.1243 -1.0549
  137OSM    H9F14984   6.645   6.332   5.297  2.1327  0.2520 -1.3998
  137OSM   C10F14985   6.600   6.417   5.114  0.3960 -0.5359  0.3711
  137OSM   H10F14986   6.633   6.323   5.067 -0.6444 -0.6645 -0.1333
  137OSM   C11F14987   6.542   6.523   5.020  0.2629 -0.0185 -0.4287
  137OSM   H11F14988   6.608   6.610   4.998  0.5817 -0.2515 -0.3926
  137OSM   H11G14989   6.455   6.569   5.072 -0.0856  1.5194 -2.2367
  137OSM   C12F14990   6.511   6.483   4.870  0.0303 -0.3211 -0.2198
  137OSM   H12F14991   6.462   6.566   4.814  1.0719  0.2756 -0.2887
  137OSM   H12G14992   6.439   6.400   4.882 -1.4075  1.1395  2.1865
  137OSM   C13F14993   6.635   6.435   4.800  0.6206 -0.0412 -0.4035
  137OSM   H13F14994   6.665   6.334   4.837 -1.8615 -0.2590  1.2537
  137OSM   H13G14995   6.724   6.496   4.824  0.6337  0.6298 -2.0404
  137OSM   C14F14996   6.617   6.423   4.646  0.4480  0.3028 -0.3563
  137OSM   H14F14997   6.599   6.524   4.603 -2.2068  0.3794  0.7764
  137OSM   H14G14998   6.526   6.362   4.628 -0.6731  1.1110  2.2044
  137OSM   C15F14999   6.731   6.359   4.574  0.1709  0.4143  0.3880
  137OSM   H15F15000   6.757   6.268   4.631  2.4894  0.5398 -0.3574
  137OSM   H15G15001   6.820   6.425   4.569 -0.2801  1.1669  1.8109
  137OSM   C16F15002   6.693   6.329   4.431  0.0603  0.7625  0.3806
  137OSM   H16F15003   6.646   6.419   4.386  1.7742  2.9154  2.6093
  137OSM   H16G15004   6.618   6.247   4.430 -0.4480  1.2120  0.2741
  137OSM   C17F15005   6.814   6.278   4.334 -0.7704 -0.0376 -1.1141
  137OSM   H17F15006   6.770   6.256   4.235 -2.3605 -1.6259 -0.1085
  137OSM   H17G15007   6.841   6.179   4.378 -1.1675  0.1059 -0.5253
  137OSM   C18F15008   6.934   6.369   4.319  0.3238  0.1501  0.2881
  137OSM   H18F15009   7.006   6.343   4.238 -0.9695  1.8224 -1.5174
  137OSM   H18G15010   6.982   6.372   4.418 -0.9288 -2.0073  1.0300
  137OSM   H18H15011   6.894   6.470   4.294  1.8587  0.7595  0.2220
  138OSM      N15012   4.064   6.304   6.287  0.2401  0.2096  0.4537
  138OSM    C1515013   4.140   6.289   6.158 -0.1786  0.0059 -0.1373
  138OSM   H15A15014   4.246   6.267   6.166 -0.1091  0.3040 -0.2213
  138OSM   H15B15015   4.103   6.365   6.091  0.6489  1.2351  0.7328
  138OSM   H15C15016   4.107   6.200   6.108  0.0234 -0.5091  0.6244
  138OSM    C1415017   4.113   6.431   6.356  0.1314  0.6671  0.3884
  138OSM   H14A15018   4.048   6.459   6.437 -1.2754 -0.0224 -0.4748
  138OSM   H14B15019   4.115   6.504   6.277  0.4210 -0.1474 -0.3792
  138OSM   H14C15020   4.215   6.411   6.385  0.0659  0.2070  0.3085
  138OSM    C1315021   3.915   6.312   6.255 -0.6828 -0.2895 -0.3893
  138OSM   H13A15022   3.860   6.340   6.344 -0.2805  1.1024 -0.5572
  138OSM   H13B15023   3.888   6.215   6.217 -1.0913 -0.4340  0.2422
  138OSM   H13C15024   3.904   6.390   6.181 -1.3428  1.8164  1.7726
  138OSM    C1215025   4.105   6.185   6.368  0.5129 -0.2210 -0.5463
  138OSM   H12A15026   4.068   6.192   6.469 -0.4324  0.3410 -0.9226
  138OSM   H12B15027   4.213   6.180   6.374  0.4943  0.5695  1.4372
  138OSM    C1115028   4.044   6.043   6.332  0.3759  0.0229 -0.2235
  138OSM   H11A15029   4.078   5.964   6.403  1.1401  0.1122 -0.4839
  138OSM   H11B15030   4.075   6.021   6.228 -0.1178  0.5460 -0.4859
  138OSM      P15031   3.798   5.950   6.275  0.2311 -0.3323 -0.1773
  138OSM    O1315032   3.812   5.812   6.322 -0.0518  0.8282  0.0759
  138OSM    O1415033   3.664   5.999   6.297 -0.5061 -0.0143 -0.2689
  138OSM    O1115034   3.830   5.963   6.116 -0.5397 -0.2849 -0.1216
  138OSM    O1215035   3.901   6.045   6.346  0.6791 -0.2693  0.0299
  138OSM    C1S15036   3.811   5.845   6.040 -0.1760 -0.1446 -0.0743
  138OSM    H1S15037   3.708   5.806   6.058 -0.7305  1.8803  1.5401
  138OSM    H1T15038   3.886   5.771   6.075  0.8752  1.6062  1.5671
  138OSM     NF15039   3.807   5.736   5.815  0.5148  0.1726 -0.0756
  138OSM    HNF15040   3.886   5.699   5.767 -0.0464  1.2663 -1.9326
  138OSM    C2S15041   3.830   5.862   5.886 -0.1917 -0.4598 -0.4494
  138OSM    H2S15042   3.761   5.938   5.842 -0.9713 -1.1504 -0.4389
  138OSM    C3S15043   3.962   5.931   5.852  0.1671 -0.1443  0.7033
  138OSM    H3S15044   4.051   5.869   5.877  1.3893 -0.3289 -3.3830
  138OSM     O315045   3.977   6.055   5.915 -0.4291 -0.4822  0.2166
  138OSM    HO315046   3.933   6.043   5.999  1.8466  1.0812  1.7312
  138OSM    C4S15047   3.979   5.956   5.706 -0.3955 -0.7377  0.1828
  138OSM    H4S15048   3.894   6.008   5.659  1.3428  0.5734 -1.6277
  138OSM    C5S15049   4.083   5.910   5.626 -0.1996  0.2612 -0.1204
  138OSM    H5S15050   4.162   5.842   5.662 -0.5898 -0.1981 -0.1219
  138OSM    C6S15051   4.082   5.940   5.478 -0.0788  0.0730 -0.5536
  138OSM    H6S15052   4.153   5.873   5.424 -0.5876 -0.7284 -0.2507
  138OSM    H6T15053   4.109   6.045   5.455  0.3005  0.1278  0.0979
  138OSM    C7S15054   3.948   5.916   5.401 -0.2809  0.4743 -0.3901
  138OSM    H7S15055   3.878   5.998   5.430 -2.7039 -1.0787 -1.5261
  138OSM    H7T15056   3.911   5.817   5.436  0.6796  0.8552  1.8789
  138OSM    C8S15057   3.962   5.920   5.244 -0.3647  0.2370 -0.2567
  138OSM    H8S15058   4.046   5.850   5.226 -0.2353  0.3496 -0.0925
  138OSM    H8T15059   3.986   6.022   5.208 -1.9248  0.2136 -1.5178
  138OSM    C9S15060   3.825   5.881   5.177 -0.0983 -0.0201  0.5322
  138OSM    H9S15061   3.749   5.961   5.192  0.5727  0.9938 -1.2249
  138OSM    H9T15062   3.772   5.795   5.223  0.0433  0.4160  1.5537
  138OSM   C10S15063   3.851   5.849   5.028 -0.3573 -0.0539 -0.2104
  138OSM   H10S15064   3.770   5.778   5.000 -0.4592  0.0557 -0.1896
  138OSM   H10T15065   3.946   5.792   5.019  1.1324  2.1919  0.5509
  138OSM   C11S15066   3.862   5.967   4.923  0.3312  0.0041 -0.3267
  138OSM   H11S15067   3.944   6.028   4.967 -0.3661 -0.0996  1.1926
  138OSM   H11T15068   3.776   6.037   4.918  0.8022  0.5213 -1.7594
  138OSM   C12S15069   3.904   5.907   4.789  0.0384  0.1024  0.0646
  138OSM   H12S15070   3.811   5.872   4.740 -1.6625  2.4647  1.4136
  138OSM   H12T15071   3.973   5.820   4.800  0.6117  0.3554 -1.3981
  138OSM   C13S15072   3.977   6.004   4.691  1.0175  0.7523 -0.1081
  138OSM   H13S15073   4.082   6.009   4.729  0.1492 -0.0877  2.6376
  138OSM   H13T15074   3.932   6.102   4.718  1.0566  0.9549 -0.7555
  138OSM   C14S15075   3.955   5.982   4.538 -0.0171  0.5124  1.1821
  138OSM   H14S15076   4.032   5.913   4.497  1.2945  3.5107 -1.8475
  138OSM   H14T15077   3.980   6.077   4.486 -1.9503 -0.0184 -0.8890
  138OSM   C15S15078   3.812   5.971   4.490  0.0496  0.4566 -0.0384
  138OSM   H15S15079   3.749   6.046   4.542 -0.9453  1.5559 -2.6566
  138OSM   H15T15080   3.769   5.874   4.522  2.8629 -0.5647  0.9541
  138OSM   C16S15081   3.788   5.986   4.340  0.2541  0.3165 -0.1553
  138OSM   H16S15082   3.805   6.093   4.318 -3.0277  0.8165 -0.8412
  138OSM   H16T15083   3.682   5.968   4.310 -0.0858  0.4588  0.9199
  138OSM   C17S15084   3.878   5.902   4.249 -0.1543 -0.3839 -0.5560
  138OSM   H17S15085   3.876   5.801   4.293 -2.2697  0.6487  1.9799
  138OSM   H17T15086   3.979   5.948   4.241 -1.3040  2.0344 -3.4317
  138OSM   C18S15087   3.829   5.891   4.107 -0.4165 -0.2647  0.0171
  138OSM   H18S15088   3.855   5.984   4.051  0.0829 -0.3490  0.1085
  138OSM   H18T15089   3.719   5.880   4.120 -0.5920 -0.7111 -1.6236
  138OSM   H18U15090   3.869   5.804   4.052 -1.4966 -1.9400  1.7739
  138OSM    C1F15091   3.696   5.658   5.819  0.2886 -0.7872  0.2684
  138OSM     OF15092   3.598   5.696   5.879  0.0466  0.1064 -0.4923
  138OSM    C2F15093   3.702   5.520   5.756  0.0675 -0.1490  0.0488
  138OSM    H2F15094   3.698   5.449   5.842  1.1747 -1.1973 -0.7182
  138OSM    H2G15095   3.799   5.496   5.707 -1.0948 -2.2480 -1.4031
  138OSM    C3F15096   3.575   5.492   5.678 -0.0323 -0.4784  0.6800
  138OSM    H3F15097   3.494   5.526   5.746  0.3249 -0.2331  0.9888
  138OSM    H3G15098   3.552   5.384   5.666 -0.2324 -0.6037  1.9776
  138OSM    C4F15099   3.556   5.566   5.535  0.0532  0.4880 -0.6223
  138OSM    H4F15100   3.549   5.674   5.559 -1.0979  0.6007 -1.4208
  138OSM    H4G15101   3.454   5.537   5.502  1.5450 -3.9988 -2.0256
  138OSM    C5F15102   3.664   5.540   5.427 -0.6651 -0.3984 -0.8663
  138OSM    H5F15103   3.746   5.473   5.462 -1.5817 -1.7839 -1.2469
  138OSM    H5G15104   3.708   5.638   5.400  1.3233 -1.0457 -0.1584
  138OSM    C6F15105   3.598   5.486   5.301  0.5151 -0.4651 -0.0027
  138OSM    H6F15106   3.521   5.557   5.264  2.4014  0.2696 -2.7403
  138OSM    H6G15107   3.558   5.384   5.320  0.2813 -0.6316 -1.3051
  138OSM    C7F15108   3.698   5.469   5.187 -0.1107  0.1081  0.7471
  138OSM    H7F15109   3.760   5.380   5.212 -0.0500 -1.7601 -4.7156
  138OSM    H7G15110   3.768   5.554   5.174  0.7478 -0.8901 -1.7640
  138OSM    C8F15111   3.635   5.448   5.044  0.3241 -0.6479 -0.1753
  138OSM    H8F15112   3.578   5.537   5.009  3.8792  0.2498 -4.4656
  138OSM    H8G15113   3.562   5.365   5.054  0.8094 -0.8167  3.0936
  138OSM    C9F15114   3.750   5.407   4.954 -0.2046  0.7828  0.4577
  138OSM    H9F15115   3.835   5.370   5.012 -0.0846  0.4094  0.0473
  138OSM   C10F15116   3.766   5.421   4.823 -0.0366 -0.1662 -0.4061
  138OSM   H10F15117   3.859   5.394   4.770  0.1775  2.2454 -1.4002
  138OSM   C11F15118   3.664   5.499   4.738  0.4561  0.0930 -0.3825
  138OSM   H11F15119   3.595   5.561   4.800  0.3668 -1.5807  1.2748
  138OSM   H11G15120   3.614   5.418   4.680 -0.8494 -1.5348  2.7825
  138OSM   C12F15121   3.751   5.597   4.648 -0.9042 -0.4483 -0.1117
  138OSM   H12F15122   3.823   5.651   4.713  0.0983 -2.3486  0.3965
  138OSM   H12G15123   3.688   5.677   4.603  0.3559  0.6953  0.0818
  138OSM   C13F15124   3.822   5.534   4.524  0.4443  0.8078 -0.5171
  138OSM   H13F15125   3.886   5.446   4.543 -0.6376 -0.3086 -1.7797
  138OSM   H13G15126   3.889   5.610   4.480  0.4875 -0.1121 -2.1360
  138OSM   C14F15127   3.724   5.486   4.419  0.4123 -0.5318 -0.4831
  138OSM   H14F15128   3.656   5.572   4.402 -2.0174 -2.7698 -3.2980
  138OSM   H14G15129   3.649   5.408   4.445 -0.0943 -0.9507 -2.9282
  138OSM   C15F15130   3.789   5.441   4.288 -0.2467  0.5337  0.2644
  138OSM   H15F15131   3.867   5.366   4.311 -1.7375 -1.5008 -0.8986
  138OSM   H15G15132   3.838   5.530   4.243  0.7840 -0.2030 -0.1125
  138OSM   C16F15133   3.701   5.371   4.185  0.6007 -0.2187 -0.3023
  138OSM   H16F15134   3.616   5.323   4.238  0.4097  1.8547  1.4049
  138OSM   H16G15135   3.757   5.298   4.122  0.2905 -1.4361  0.7809
  138OSM   C17F15136   3.632   5.457   4.078 -0.7208 -0.2192  0.1473
  138OSM   H17F15137   3.708   5.515   4.022 -0.1401 -0.6555  0.4640
  138OSM   H17G15138   3.567   5.535   4.123 -0.8235  0.2155 -0.7340
  138OSM   C18F15139   3.546   5.373   3.979  0.2730  0.7650 -0.1058
  138OSM   H18F15140   3.610   5.292   3.938  0.9374  2.0076 -1.6462
  138OSM   H18G15141   3.496   5.436   3.902  1.3069  1.9713  0.1776
  138OSM   H18H15142   3.473   5.323   4.046  0.6021  0.4831  0.0450
  139OSM      N15143   5.855   3.733   6.728 -0.7465  0.1378 -0.3640
  139OSM    C1515144   5.739   3.819   6.706  0.1315  0.0712 -0.1130
  139OSM   H15A15145   5.651   3.769   6.669  1.0709 -1.2783 -0.6097
  139OSM   H15B15146   5.748   3.889   6.624 -0.2251  1.4080  0.9346
  139OSM   H15C15147   5.714   3.874   6.796  0.0822  2.4562 -1.4813
  139OSM    C1415148   5.982   3.823   6.750  0.0608  0.0150 -0.0831
  139OSM   H14A15149   6.070   3.764   6.773  1.1422  1.1209 -1.2321
  139OSM   H14B15150   5.958   3.892   6.829 -0.7440 -0.4722  0.1043
  139OSM   H14C15151   5.996   3.882   6.660  0.7273 -2.5725 -1.7839
  139OSM    C1315152   5.825   3.648   6.852 -0.5858  0.2893  0.0695
  139OSM   H13A15153   5.907   3.582   6.877 -2.4934 -1.9858  0.6749
  139OSM   H13B15154   5.731   3.600   6.832  0.2822 -0.5226 -2.4531
  139OSM   H13C15155   5.813   3.709   6.941 -2.0260  0.6836 -0.3813
  139OSM    C1215156   5.874   3.633   6.616 -0.0380  0.9618  0.6135
  139OSM   H12A15157   5.780   3.586   6.589 -0.8264  1.9429  1.5699
  139OSM   H12B15158   5.933   3.553   6.658 -0.5196 -0.9807 -2.1071
  139OSM    C1115159   5.930   3.694   6.488  0.0264 -0.0171 -0.6561
  139OSM   H11A15160   5.865   3.782   6.466  1.3434  1.0311 -0.4500
  139OSM   H11B15161   5.913   3.633   6.396 -0.4792 -0.8947  0.0008
  139OSM      P15162   6.183   3.643   6.514 -0.2920  0.0317  0.1111
  139OSM    O1315163   6.309   3.712   6.555 -0.1662 -0.1931 -0.4616
  139OSM    O1415164   6.156   3.520   6.598 -0.2311  0.7822 -0.5867
  139OSM    O1115165   6.190   3.601   6.365 -0.2294  0.1852 -0.4077
  139OSM    O1215166   6.061   3.740   6.507  0.3369  0.2902  0.5037
  139OSM    C1S15167   6.236   3.682   6.260  0.4575  0.1478  0.5258
  139OSM    H1S15168   6.330   3.734   6.289 -0.4099  0.6706  2.6057
  139OSM    H1T15169   6.157   3.759   6.249  0.7483  0.4540  0.5989
  139OSM     NF15170   6.329   3.668   6.018  0.7499 -0.1444  0.3951
  139OSM    HNF15171   6.284   3.703   5.936 -0.8764 -0.9601  0.9001
  139OSM    C2S15172   6.244   3.606   6.120 -0.1625 -0.2484  0.6486
  139OSM    H2S15173   6.284   3.503   6.133  0.5852 -0.1907 -0.9965
  139OSM    C3S15174   6.091   3.579   6.081 -0.9935 -0.0173  0.0937
  139OSM    H3S15175   6.045   3.675   6.049  0.1977  0.3456 -0.5898
  139OSM     O315176   6.012   3.530   6.187 -0.3028  0.2507  0.4012
  139OSM    HO315177   6.081   3.531   6.254 -0.4788  3.5131  0.6932
  139OSM    C4S15178   6.076   3.493   5.963  0.0112  0.0028 -0.3157
  139OSM    H4S15179   6.081   3.550   5.868  1.8971 -1.2827 -1.0469
  139OSM    C5S15180   6.058   3.370   5.946  0.5150  0.6571  0.5647
  139OSM    H5S15181   6.058   3.307   6.036  0.4547 -0.5216 -0.2454
  139OSM    C6S15182   6.033   3.296   5.811 -0.2992 -0.3658 -0.6140
  139OSM    H6S15183   5.924   3.308   5.789 -0.7405 -1.3598  0.9124
  139OSM    H6T15184   6.045   3.185   5.809 -1.1467 -0.4790  0.0010
  139OSM    C7S15185   6.104   3.350   5.685  0.2344 -0.1584  0.2738
  139OSM    H7S15186   6.214   3.346   5.697  0.3361 -1.2332 -0.7506
  139OSM    H7T15187   6.070   3.455   5.676 -2.5813 -0.8828  1.5064
  139OSM    C8S15188   6.068   3.279   5.552  0.2360 -0.2879  0.0244
  139OSM    H8S15189   5.964   3.243   5.535  0.5598 -0.6383 -1.3202
  139OSM    H8T15190   6.141   3.195   5.545  1.6948  1.0452 -1.6784
  139OSM    C9S15191   6.108   3.374   5.433 -0.0953  0.3390 -0.7624
  139OSM    H9S15192   6.194   3.432   5.473 -0.9144 -1.0294  3.6464
  139OSM    H9T15193   6.030   3.449   5.410 -0.6241  0.0227 -0.0401
  139OSM   C10S15194   6.149   3.299   5.307 -1.1524  0.0347 -0.2832
  139OSM   H10S15195   6.082   3.213   5.282 -0.4300 -1.0014  1.1747
  139OSM   H10T15196   6.245   3.248   5.331 -1.0055 -0.1080 -1.1303
  139OSM   C11S15197   6.168   3.406   5.191  0.6466  0.5998 -0.0814
  139OSM   H11S15198   6.244   3.479   5.226 -0.5362  2.9435 -2.1312
  139OSM   H11T15199   6.075   3.463   5.170  2.2690  1.8427 -5.5497
  139OSM   C12S15200   6.206   3.338   5.055  0.2909 -0.2706 -1.0327
  139OSM   H12S15201   6.137   3.253   5.035 -1.7640  0.8877  0.7722
  139OSM   H12T15202   6.311   3.306   5.074 -0.1824 -0.5608  1.3680
  139OSM   C13S15203   6.190   3.436   4.937  0.3631  0.7797  0.4306
  139OSM   H13S15204   6.083   3.454   4.914  0.5161 -1.7346 -3.0007
  139OSM   H13T15205   6.233   3.381   4.850  0.9272  3.5736 -1.1684
  139OSM   C14S15206   6.254   3.578   4.942 -0.3969  0.3028  0.0058
  139OSM   H14S15207   6.354   3.560   4.985 -1.0224 -0.6259  1.1078
  139OSM   H14T15208   6.195   3.634   5.018 -1.2560 -0.7820  0.1783
  139OSM   C15S15209   6.265   3.651   4.808  0.1737 -0.0306 -0.8828
  139OSM   H15S15210   6.341   3.603   4.743  2.4902 -0.6715  2.0726
  139OSM   H15T15211   6.306   3.754   4.821  1.9816 -0.6755 -1.1212
  139OSM   C16S15212   6.132   3.676   4.725  0.2837 -0.0638  0.2965
  139OSM   H16S15213   6.059   3.710   4.802  2.7424  2.7346  1.6096
  139OSM   H16T15214   6.089   3.586   4.676  2.1511  0.4071 -2.3800
  139OSM   C17S15215   6.157   3.787   4.620  0.1429 -0.1448  0.5929
  139OSM   H17S15216   6.231   3.752   4.545 -1.7485 -1.5453 -0.7188
  139OSM   H17T15217   6.205   3.880   4.658 -0.7344  0.2173  0.8489
  139OSM   C18S15218   6.023   3.817   4.556  0.3933 -0.0212  0.1435
  139OSM   H18S15219   5.972   3.719   4.552 -0.3697  0.2176  2.3510
  139OSM   H18T15220   6.028   3.863   4.455 -0.5612 -1.7905 -0.7507
  139OSM   H18U15221   5.961   3.874   4.629 -0.8756 -1.4928  0.2471
  139OSM    C1F15222   6.451   3.688   6.030  0.3068 -0.1822  0.3286
  139OSM     OF15223   6.512   3.649   6.123 -0.4760  0.2124  0.0038
  139OSM    C2F15224   6.510   3.780   5.923 -0.2760 -0.0307  0.3173
  139OSM    H2F15225   6.469   3.881   5.946  1.0213  0.3901  0.8751
  139OSM    H2G15226   6.476   3.748   5.822 -0.8355  1.7669 -0.1128
  139OSM    C3F15227   6.659   3.784   5.948  0.1538 -0.0289  0.1663
  139OSM    H3F15228   6.697   3.679   5.944 -0.0311 -0.1585  1.4951
  139OSM    H3G15229   6.669   3.827   6.050 -1.9568  3.0152 -0.7775
  139OSM    C4F15230   6.747   3.867   5.852  0.7000  0.3998 -0.0046
  139OSM    H4F15231   6.850   3.844   5.886  0.0608 -0.6220  1.3132
  139OSM    H4G15232   6.723   3.974   5.870  0.5229 -0.1523  3.8766
  139OSM    C5F15233   6.730   3.833   5.702  0.3180 -0.1031  0.2938
  139OSM    H5F15234   6.619   3.842   5.697  0.3144 -0.2027  0.1733
  139OSM    H5G15235   6.765   3.735   5.662  2.1194  0.3195  0.7899
  139OSM    C6F15236   6.797   3.939   5.614 -0.1676  0.4636  0.0564
  139OSM    H6F15237   6.815   4.019   5.689 -0.1528  0.2583  0.2731
  139OSM    H6G15238   6.720   3.969   5.541 -1.2880 -0.6999  0.7215
  139OSM    C7F15239   6.920   3.895   5.537 -0.2050 -0.1471  0.1173
  139OSM    H7F15240   6.904   3.805   5.473 -1.9817 -0.5497  1.0706
  139OSM    H7G15241   7.013   3.875   5.595  1.2074  0.6972 -1.7685
  139OSM    C8F15242   6.963   4.014   5.451  0.7093 -0.3587 -0.2446
  139OSM    H8F15243   6.981   4.103   5.515  0.3777 -0.4299 -0.0500
  139OSM    H8G15244   6.871   4.032   5.391 -1.4384  0.4584  2.9959
  139OSM    C9F15245   7.090   3.991   5.378 -0.5107 -0.1237  0.6947
  139OSM    H9F15246   7.184   3.990   5.434 -0.4380  0.7554  0.5989
  139OSM   C10F15247   7.095   3.979   5.239  0.1341 -0.2488 -0.1253
  139OSM   H10F15248   7.185   3.933   5.195  0.8940  0.9175  0.1844
  139OSM   C11F15249   6.983   3.985   5.142  0.3113  0.7525  0.2402
  139OSM   H11F15250   6.953   4.088   5.116  0.4775  1.0127  1.0384
  139OSM   H11G15251   6.896   3.936   5.190  1.5118 -0.7243  1.0053
  139OSM   C12F15252   7.007   3.926   5.006 -0.5682 -0.1863  0.5666
  139OSM   H12F15253   6.905   3.908   4.965  0.4403 -3.1379 -0.9469
  139OSM   H12G15254   7.064   3.831   5.016 -0.1987 -0.0069  0.1893
  139OSM   C13F15255   7.087   4.017   4.912 -0.5932 -0.1798 -0.3422
  139OSM   H13F15256   7.182   4.022   4.968 -1.0007 -0.1167  0.3615
  139OSM   H13G15257   7.047   4.121   4.905 -0.1755 -0.0133 -0.2571
  139OSM   C14F15258   7.105   3.958   4.774 -0.5314  1.2195 -0.2596
  139OSM   H14F15259   7.003   3.923   4.747 -0.4135 -1.0520  1.9196
  139OSM   H14G15260   7.182   3.880   4.792 -0.7474  0.8793 -0.7785
  139OSM   C15F15261   7.157   4.057   4.676  0.3638  0.0530 -0.3774
  139OSM   H15F15262   7.256   4.079   4.720  0.4414  0.9378 -0.9632
  139OSM   H15G15263   7.100   4.152   4.666 -0.8868 -0.3638  2.0788
  139OSM   C16F15264   7.183   3.990   4.543  0.0294  0.1821  0.5944
  139OSM   H16F15265   7.078   3.965   4.516 -1.1025  4.4512  0.3328
  139OSM   H16G15266   7.248   3.901   4.558 -0.0441  0.2054  1.0682
  139OSM   C17F15267   7.220   4.086   4.426 -0.3025  0.7569  0.9207
  139OSM   H17F15268   7.314   4.133   4.463  0.0210 -0.5618  1.8425
  139OSM   H17G15269   7.141   4.163   4.414 -2.7379 -1.9711 -2.6204
  139OSM   C18F15270   7.234   4.003   4.294  0.1711 -0.1223 -0.5907
  139OSM   H18F15271   7.302   3.917   4.315 -0.2992  0.1441  2.5069
  139OSM   H18G15272   7.274   4.067   4.213 -0.8882  2.3542  0.7268
  139OSM   H18H15273   7.130   3.977   4.265 -0.5120  1.2692  0.5079
  140OSM      N15274   5.884   1.272   6.407 -0.0130 -0.1845 -0.4808
  140OSM    C1515275   5.893   1.128   6.458 -0.0581  0.2401 -0.2304
  140OSM   H15A15276   5.903   1.069   6.368  1.2756  2.7907 -1.8617
  140OSM   H15B15277   5.808   1.101   6.519  1.0715  0.1565  1.3646
  140OSM   H15C15278   5.983   1.115   6.516 -1.1784 -2.2502  1.0985
  140OSM    C1415279   5.852   1.350   6.534  0.5730 -0.5260  0.3438
  140OSM   H14A15280   5.754   1.318   6.567  0.8446 -0.1970  1.4839
  140OSM   H14B15281   5.851   1.457   6.520 -1.5596 -0.5055  0.3772
  140OSM   H14C15282   5.915   1.316   6.614 -0.9953 -2.2502  0.9040
  140OSM    C1315283   6.012   1.321   6.349 -0.0289 -0.7701 -0.8522
  140OSM   H13A15284   6.001   1.426   6.329 -0.7044 -0.7658 -0.4501
  140OSM   H13B15285   6.042   1.277   6.254  0.4555  0.5715 -1.3435
  140OSM   H13C15286   6.094   1.299   6.416  1.0766  0.7634 -1.6409
  140OSM    C1215287   5.769   1.290   6.305  0.1480 -0.2770 -0.2138
  140OSM   H12A15288   5.742   1.389   6.271 -1.7727 -1.6194 -3.0211
  140OSM   H12B15289   5.679   1.270   6.361 -0.2425  1.3892 -0.1929
  140OSM    C1115290   5.772   1.199   6.177  0.2938  0.1525 -0.1125
  140OSM   H11A15291   5.871   1.224   6.135  1.6076 -2.0462  1.5104
  140OSM   H11B15292   5.691   1.226   6.106 -1.8033 -3.5633  0.5758
  140OSM      P15293   5.706   0.949   6.120  0.1700  0.2153  0.5562
  140OSM    O1315294   5.802   0.843   6.096 -0.2723  0.1868 -0.0549
  140OSM    O1415295   5.577   0.913   6.180  0.4725  0.3325 -0.1077
  140OSM    O1115296   5.689   1.023   5.982 -0.2869  0.0778  0.3889
  140OSM    O1215297   5.766   1.062   6.205  0.1942 -0.2385 -0.1646
  140OSM    C1S15298   5.789   1.029   5.883  0.3826  1.1059  0.5116
  140OSM    H1S15299   5.877   0.973   5.921  0.7177  2.0732  1.2030
  140OSM    H1T15300   5.823   1.132   5.856  0.2026  1.0794  0.1829
  140OSM     NF15301   5.864   0.956   5.652  0.4291 -0.3147 -0.4653
  140OSM    HNF15302   5.876   1.034   5.590 -0.2548  1.1325  1.1273
  140OSM    C2S15303   5.746   0.975   5.737 -0.3484 -0.5489 -0.4708
  140OSM    H2S15304   5.700   0.874   5.743 -0.7086 -0.4904 -1.9490
  140OSM    C3S15305   5.629   1.057   5.694 -0.3586 -0.8954  0.4388
  140OSM    H3S15306   5.662   1.162   5.684 -0.1863 -0.9997 -0.1090
  140OSM     O315307   5.515   1.060   5.777 -0.2828 -0.2195 -0.1791
  140OSM    HO315308   5.539   1.028   5.864 -1.1242  0.7286  0.4199
  140OSM    C4S15309   5.580   1.026   5.553 -0.2389 -0.4587 -0.4563
  140OSM    H4S15310   5.620   1.097   5.478  1.4448 -0.0502  0.7589
  140OSM    C5S15311   5.492   0.930   5.521  0.3006  0.6339  0.1922
  140OSM    H5S15312   5.460   0.855   5.595 -1.5196  1.9593  0.8278
  140OSM    C6S15313   5.450   0.902   5.379 -0.1787 -0.2403 -0.6730
  140OSM    H6S15314   5.348   0.857   5.378  1.0005 -3.1577 -0.8362
  140OSM    H6T15315   5.505   0.815   5.336  1.2695  0.4352 -0.2280
  140OSM    C7S15316   5.440   1.017   5.284 -0.3541  0.4284  0.4246
  140OSM    H7S15317   5.530   1.081   5.287  0.4255 -0.6189  0.0475
  140OSM    H7T15318   5.356   1.083   5.316 -0.7001  2.2090 -3.5191
  140OSM    C8S15319   5.412   0.966   5.141 -0.0551  0.0570  0.0266
  140OSM    H8S15320   5.307   0.929   5.142  0.5868 -2.0977 -2.3387
  140OSM    H8T15321   5.470   0.881   5.099  0.6496 -0.2414  1.5077
  140OSM    C9S15322   5.434   1.073   5.035 -0.5102 -0.0635 -0.6323
  140OSM    H9S15323   5.537   1.078   4.995 -0.3418  2.6025 -0.0917
  140OSM    H9T15324   5.417   1.180   5.062 -0.3378 -0.5377  1.5062
  140OSM   C10S15325   5.357   1.043   4.905 -0.2754 -0.6645  0.4172
  140OSM   H10S15326   5.250   1.056   4.930 -0.2808 -0.0406  0.1061
  140OSM   H10T15327   5.386   0.945   4.861  2.4008  0.8611 -1.5251
  140OSM   C11S15328   5.396   1.143   4.793  1.1175  0.1380 -0.2634
  140OSM   H11S15329   5.496   1.113   4.755  0.3056 -2.9543 -0.2258
  140OSM   H11T15330   5.404   1.242   4.844 -3.2168 -1.4058  4.2975
  140OSM   C12S15331   5.298   1.125   4.683  0.4263 -0.0811  0.8393
  140OSM   H12S15332   5.198   1.151   4.725  0.5744 -2.7392  3.1413
  140OSM   H12T15333   5.292   1.025   4.635  2.0880  0.8158 -1.4274
  140OSM   C13S15334   5.339   1.224   4.567 -0.4834  0.2985 -0.2820
  140OSM   H13S15335   5.422   1.181   4.507 -0.9937  2.1925 -2.5067
  140OSM   H13T15336   5.379   1.317   4.612  1.9204  0.0632 -1.7742
  140OSM   C14S15337   5.230   1.236   4.459  0.0926 -0.6072  0.4525
  140OSM   H14S15338   5.268   1.298   4.375  0.3364 -1.0549  0.2244
  140OSM   H14T15339   5.138   1.286   4.496 -0.8189 -0.4210 -1.8789
  140OSM   C15S15340   5.179   1.098   4.407  0.4514  0.0508 -0.0567
  140OSM   H15S15341   5.133   1.031   4.483  0.1646 -0.5300 -0.7397
  140OSM   H15T15342   5.260   1.036   4.364  0.2416  1.0735 -2.0162
  140OSM   C16S15343   5.081   1.116   4.287 -0.2318  0.3725  0.4468
  140OSM   H16S15344   5.048   1.020   4.243 -1.5011  0.7140  0.6334
  140OSM   H16T15345   5.123   1.172   4.201 -2.5935  0.2608 -0.8649
  140OSM   C17S15346   4.953   1.179   4.342  0.6171 -1.1896  0.0865
  140OSM   H17S15347   4.966   1.289   4.351 -1.5507 -0.9317  0.5564
  140OSM   H17T15348   4.924   1.154   4.446  0.0956  0.8909  0.4752
  140OSM   C18S15349   4.828   1.168   4.248 -0.3352 -0.4888 -0.2321
  140OSM   H18S15350   4.861   1.164   4.142 -0.0979 -2.2143 -0.1211
  140OSM   H18T15351   4.754   1.249   4.266 -0.9692 -0.5424 -2.3033
  140OSM   H18U15352   4.763   1.080   4.267 -1.0949  0.4673  1.9483
  140OSM    C1F15353   5.971   0.873   5.683 -0.3536  0.2821  0.7876
  140OSM     OF15354   5.959   0.783   5.762 -0.1110  0.3473  0.3061
  140OSM    C2F15355   6.100   0.911   5.622  0.9680  0.7594 -0.4912
  140OSM    H2F15356   6.180   0.918   5.698  1.8911 -1.6059 -1.1727
  140OSM    H2G15357   6.092   1.009   5.569  0.8663  1.5941  1.0213
  140OSM    C3F15358   6.144   0.799   5.527 -0.0429  0.2289  0.1587
  140OSM    H3F15359   6.090   0.810   5.431  0.8160  0.4174 -0.3165
  140OSM    H3G15360   6.125   0.698   5.570  0.1739  0.6225  1.2065
  140OSM    C4F15361   6.302   0.814   5.497 -0.3904  0.3357  0.2335
  140OSM    H4F15362   6.322   0.730   5.427 -1.5589 -0.9934  1.4315
  140OSM    H4G15363   6.368   0.796   5.584 -1.6799 -0.3205  1.1011
  140OSM    C5F15364   6.327   0.944   5.418  0.0091 -0.1271  0.4329
  140OSM    H5F15365   6.437   0.947   5.399 -0.0615 -0.9503 -0.1654
  140OSM    H5G15366   6.300   1.040   5.467  1.9755  0.5094  0.3743
  140OSM    C6F15367   6.255   0.965   5.289  0.2336 -0.9466  0.2029
  140OSM    H6F15368   6.147   0.973   5.316  0.2986 -0.3480  0.2999
  140OSM    H6G15369   6.260   0.871   5.230  0.2836 -0.3794 -0.7035
  140OSM    C7F15370   6.310   1.096   5.230  0.0253 -0.1495 -0.1903
  140OSM    H7F15371   6.420   1.099   5.218 -0.0251 -0.3760 -0.7425
  140OSM    H7G15372   6.293   1.162   5.318 -1.4591 -1.2272  0.3724
  140OSM    C8F15373   6.235   1.154   5.111 -0.7546  0.8489 -0.2141
  140OSM    H8F15374   6.255   1.263   5.101 -0.1462  0.7251 -0.4163
  140OSM    H8G15375   6.126   1.149   5.126 -0.5505  1.6865  1.7785
  140OSM    C9F15376   6.265   1.070   4.989  0.3518 -0.4927 -0.0091
  140OSM    H9F15377   6.257   0.961   4.999  3.9250 -0.8300  0.5825
  140OSM   C10F15378   6.330   1.111   4.877 -0.7643  0.0463 -0.1013
  140OSM   H10F15379   6.345   1.027   4.808 -0.2783  0.2727 -0.2693
  140OSM   C11F15380   6.373   1.252   4.846  0.7509 -0.5338  0.3074
  140OSM   H11F15381   6.483   1.254   4.832  0.7869 -0.8454  0.5153
  140OSM   H11G15382   6.352   1.336   4.916 -0.2544  0.9130 -1.6494
  140OSM   C12F15383   6.300   1.293   4.713 -0.0992 -0.0336 -0.3990
  140OSM   H12F15384   6.192   1.319   4.722 -0.7545 -2.5223 -0.2284
  140OSM   H12G15385   6.293   1.207   4.644 -0.1192 -1.0802  0.8689
  140OSM   C13F15386   6.373   1.415   4.648 -0.1209 -0.6297 -0.0401
  140OSM   H13F15387   6.480   1.395   4.627  0.0794 -0.3089  0.6403
  140OSM   H13G15388   6.368   1.482   4.737  0.4858 -2.6413  1.5949
  140OSM   C14F15389   6.322   1.483   4.520  0.0350  0.0956  0.0628
  140OSM   H14F15390   6.252   1.567   4.538  0.8491  1.0711 -1.1791
  140OSM   H14G15391   6.262   1.407   4.466  2.9680 -1.1901 -1.6162
  140OSM   C15F15392   6.433   1.522   4.424  0.5732 -0.2365 -0.0995
  140OSM   H15F15393   6.485   1.437   4.374  0.3824 -0.1663 -0.4188
  140OSM   H15G15394   6.505   1.580   4.485  1.2606 -1.4155  0.2317
  140OSM   C16F15395   6.392   1.626   4.315 -0.0308 -0.5648 -0.1012
  140OSM   H16F15396   6.477   1.654   4.249 -1.0751  1.2473 -0.7347
  140OSM   H16G15397   6.369   1.720   4.370 -2.0348  0.4253 -2.4494
  140OSM   C17F15398   6.261   1.585   4.235 -0.0250  0.7416 -0.4308
  140OSM   H17F15399   6.175   1.565   4.302 -0.8261  0.0306 -1.6207
  140OSM   H17G15400   6.276   1.494   4.173  0.5293  1.0783 -0.8052
  140OSM   C18F15401   6.217   1.696   4.143 -0.2397  0.8853  0.0481
  140OSM   H18F15402   6.118   1.681   4.095 -1.4511  2.3298  1.9062
  140OSM   H18G15403   6.288   1.690   4.058 -0.5764  0.7236 -0.2244
  140OSM   H18H15404   6.214   1.796   4.191  0.7995  1.6920 -1.4978
  141OSM      N15405   6.489   6.728   6.482  0.7817 -0.1098 -0.1164
  141OSM    C1515406   6.618   6.737   6.408 -0.5258 -0.4224  0.5467
  141OSM   H15A15407   6.598   6.736   6.302 -2.4703 -1.7015  0.8762
  141OSM   H15B15408   6.673   6.645   6.418 -0.0942 -0.0004  2.3254
  141OSM   H15C15409   6.681   6.819   6.440 -0.7829 -0.5237  1.3377
  141OSM    C1415410   6.501   6.691   6.625 -0.8260  0.3010 -0.8132
  141OSM   H14A15411   6.410   6.668   6.679 -0.8937  0.6502 -0.7716
  141OSM   H14B15412   6.547   6.770   6.684 -1.7766  2.0139 -2.2576
  141OSM   H14C15413   6.554   6.599   6.645 -0.1899  0.8489  0.0998
  141OSM    C1315414   6.414   6.861   6.486  0.4870  0.6023  0.0921
  141OSM   H13A15415   6.481   6.935   6.528  0.9773  3.1541 -4.4286
  141OSM   H13B15416   6.321   6.848   6.539  1.6654  0.7457  2.2791
  141OSM   H13C15417   6.389   6.888   6.384  1.4271 -1.9476 -0.8960
  141OSM    C1215418   6.404   6.612   6.423  0.3083 -0.0847  0.4763
  141OSM   H12A15419   6.308   6.639   6.465  0.1962  2.1233 -1.0376
  141OSM   H12B15420   6.441   6.515   6.449  0.1121 -0.2680  0.0801
  141OSM    C1115421   6.372   6.608   6.267 -0.2565 -0.5667  0.4540
  141OSM   H11A15422   6.319   6.512   6.249  1.3783 -1.2725 -0.8008
  141OSM   H11B15423   6.470   6.607   6.216  0.2116 -0.6144  1.3390
  141OSM      P15424   6.141   6.739   6.258 -0.2760 -0.1050 -0.5883
  141OSM    O1315425   6.119   6.716   6.403  0.0216  0.2203  0.5189
  141OSM    O1415426   6.085   6.868   6.212 -0.2591  0.3167  0.7051
  141OSM    O1115427   6.064   6.635   6.172 -0.0452 -0.5637  0.1774
  141OSM    O1215428   6.298   6.726   6.226 -0.3806  0.4698  0.0917
  141OSM    C1S15429   6.052   6.642   6.028  0.0324  0.3082  0.3187
  141OSM    H1S15430   6.156   6.650   5.990 -0.8996  2.4885 -2.1557
  141OSM    H1T15431   6.002   6.737   5.997 -2.0888 -0.9232 -0.1601
  141OSM     NF15432   5.979   6.536   5.815 -0.1754  0.1981 -0.2211
  141OSM    HNF15433   5.898   6.578   5.774 -0.6507 -0.6962 -0.2178
  141OSM    C2S15434   5.981   6.518   5.965 -0.1387  0.2505 -0.1310
  141OSM    H2S15435   6.046   6.430   5.981 -1.7140 -1.3558 -1.9817
  141OSM    C3S15436   5.846   6.476   6.036 -0.2462  0.0370  1.0972
  141OSM    H3S15437   5.776   6.557   6.008  2.0498  1.9005  0.4378
  141OSM     O315438   5.861   6.457   6.180 -0.3457  0.5061 -0.3623
  141OSM    HO315439   5.947   6.495   6.200 -0.0019  0.5334 -1.8486
  141OSM    C4S15440   5.793   6.344   5.972  0.6153 -0.2748 -1.0857
  141OSM    H4S15441   5.836   6.248   6.004  1.4406 -0.2505 -2.0619
  141OSM    C5S15442   5.691   6.331   5.881 -0.0651 -0.1817 -0.0232
  141OSM    H5S15443   5.645   6.421   5.839  0.2129  0.9016  1.8887
  141OSM    C6S15444   5.645   6.201   5.816 -0.4034 -0.4977 -0.3690
  141OSM    H6S15445   5.535   6.200   5.801 -0.6345 -4.0061  0.6561
  141OSM    H6T15446   5.677   6.110   5.871 -1.4535 -0.4762  0.3086
  141OSM    C7S15447   5.714   6.202   5.672 -0.0107 -0.7114  0.5832
  141OSM    H7S15448   5.692   6.101   5.631 -1.5189  0.8118 -2.7486
  141OSM    H7T15449   5.825   6.208   5.678 -0.0082 -1.9272  2.6181
  141OSM    C8S15450   5.651   6.304   5.565  0.6817  0.2947  0.2765
  141OSM    H8S15451   5.683   6.403   5.603  1.4370 -0.2733  1.1921
  141OSM    H8T15452   5.541   6.300   5.555  0.7443  2.2391 -1.9716
  141OSM    C9S15453   5.705   6.267   5.422 -1.2613 -0.0463 -0.2999
  141OSM    H9S15454   5.677   6.162   5.397  1.4042 -1.1380  0.9258
  141OSM    H9T15455   5.815   6.252   5.420 -1.3587 -0.7825 -0.5814
  141OSM   C10S15456   5.676   6.368   5.316 -1.1108 -0.0025 -0.6924
  141OSM   H10S15457   5.748   6.452   5.326 -1.1283 -0.1971  1.7312
  141OSM   H10T15458   5.573   6.408   5.313 -0.6788  1.3044  0.7400
  141OSM   C11S15459   5.693   6.297   5.178 -0.8685 -0.7152 -0.8445
  141OSM   H11S15460   5.620   6.213   5.174 -0.7819 -0.9474  1.4995
  141OSM   H11T15461   5.795   6.254   5.180 -0.3789  0.4017 -1.1800
  141OSM   C12S15462   5.682   6.400   5.058 -0.7266 -0.2782  0.2156
  141OSM   H12S15463   5.741   6.491   5.081 -0.7376 -1.0016  3.6636
  141OSM   H12T15464   5.575   6.423   5.036  0.2312  1.5254 -3.1760
  141OSM   C13S15465   5.733   6.329   4.935 -0.2910  0.1727  0.1481
  141OSM   H13S15466   5.693   6.226   4.926  0.4403 -0.1419  0.5008
  141OSM   H13T15467   5.843   6.332   4.945 -0.3546  0.8322  0.7789
  141OSM   C14S15468   5.705   6.399   4.802  0.6205 -0.9010  0.4777
  141OSM   H14S15469   5.786   6.475   4.805  2.3143 -2.6597  1.7882
  141OSM   H14T15470   5.600   6.438   4.805  0.4268 -1.3263 -0.5748
  141OSM   C15S15471   5.721   6.306   4.685 -0.5181  0.0717  0.4895
  141OSM   H15S15472   5.629   6.243   4.684  1.0531 -2.3899 -1.5066
  141OSM   H15T15473   5.816   6.248   4.695  0.6114  1.7215 -0.2072
  141OSM   C16S15474   5.705   6.376   4.550  0.2352  1.3026  0.1029
  141OSM   H16S15475   5.793   6.434   4.517  2.2748 -2.4107 -1.6119
  141OSM   H16T15476   5.617   6.443   4.548  0.5019  1.6373 -2.1213
  141OSM   C17S15477   5.689   6.265   4.444  0.0724 -0.1977  0.0265
  141OSM   H17S15478   5.605   6.197   4.468 -0.3196  0.1621 -0.3059
  141OSM   H17T15479   5.777   6.199   4.436 -0.4787 -0.9885  0.3485
  141OSM   C18S15480   5.648   6.324   4.311 -0.1923 -0.2914  0.5574
  141OSM   H18S15481   5.567   6.396   4.338  0.8027  0.7276  0.8976
  141OSM   H18T15482   5.614   6.243   4.242  0.9936  0.1583 -0.5958
  141OSM   H18U15483   5.739   6.373   4.272 -0.6729  0.4439  0.3263
  141OSM    C1F15484   6.084   6.517   5.734 -0.0448  0.2138 -1.3000
  141OSM     OF15485   6.187   6.471   5.786 -0.2961  0.2841 -0.1088
  141OSM    C2F15486   6.076   6.557   5.594 -0.1784  0.3482 -0.6813
  141OSM    H2F15487   6.131   6.651   5.575  1.0910 -0.2777 -0.2053
  141OSM    H2G15488   5.971   6.558   5.558 -0.5274  0.5026  0.3075
  141OSM    C3F15489   6.158   6.447   5.510  0.0504 -0.4067  0.0861
  141OSM    H3F15490   6.114   6.347   5.529 -0.4496 -0.1306  0.4057
  141OSM    H3G15491   6.269   6.448   5.518  0.1749  2.1955 -1.0510
  141OSM    C4F15492   6.135   6.472   5.358 -0.8006  0.0088  0.3978
  141OSM    H4F15493   6.195   6.565   5.349 -0.6964  0.0011  0.9882
  141OSM    H4G15494   6.027   6.488   5.337 -1.3258 -0.5789  2.4388
  141OSM    C5F15495   6.188   6.360   5.269 -0.4480 -0.7466  0.0927
  141OSM    H5F15496   6.121   6.271   5.273 -0.6125 -0.6115  3.1820
  141OSM    H5G15497   6.284   6.337   5.320  0.1494 -0.1777 -0.7562
  141OSM    C6F15498   6.215   6.403   5.125  0.0170  0.2615  0.1358
  141OSM    H6F15499   6.279   6.325   5.078 -1.2347 -0.7314  0.0358
  141OSM    H6G15500   6.274   6.497   5.136 -0.3608  0.5676 -0.4218
  141OSM    C7F15501   6.087   6.434   5.047 -0.1142 -0.1731 -0.3726
  141OSM    H7F15502   6.027   6.507   5.104 -0.2765 -1.0036  0.5331
  141OSM    H7G15503   6.027   6.341   5.035 -0.6867  0.0388  0.7778
  141OSM    C8F15504   6.123   6.472   4.899  0.1909 -0.4655 -0.0879
  141OSM    H8F15505   6.032   6.455   4.839 -0.3519 -2.0386  1.1061
  141OSM    H8G15506   6.192   6.395   4.860  1.8321  1.2503 -0.7617
  141OSM    C9F15507   6.181   6.608   4.883 -0.5561 -0.1284 -0.0801
  141OSM    H9F15508   6.224   6.642   4.979  1.6187 -1.3031 -0.5706
  141OSM   C10F15509   6.187   6.680   4.773 -0.2620  1.0780  0.3133
  141OSM   H10F15510   6.235   6.777   4.759  0.3585  0.6012 -1.0197
  141OSM   C11F15511   6.152   6.619   4.641  0.4320  0.7241  0.0343
  141OSM   H11F15512   6.142   6.700   4.566  3.0182 -0.1827 -1.4208
  141OSM   H11G15513   6.065   6.551   4.653  0.8303  0.1383 -0.3343
  141OSM   C12F15514   6.271   6.534   4.604 -0.0567 -0.5723  0.0268
  141OSM   H12F15515   6.300   6.469   4.689 -0.9564 -0.5237  0.3820
  141OSM   H12G15516   6.360   6.595   4.576  1.1970 -2.8239 -1.2680
  141OSM   C13F15517   6.250   6.443   4.481 -0.2767  0.8154 -0.0956
  141OSM   H13F15518   6.183   6.357   4.504  1.1568 -0.5450 -0.8495
  141OSM   H13G15519   6.351   6.402   4.460 -0.2461 -0.9935  2.9769
  141OSM   C14F15520   6.202   6.512   4.351 -0.0989  0.1072  1.3429
  141OSM   H14F15521   6.264   6.604   4.337  2.9970 -1.8578  1.0718
  141OSM   H14G15522   6.102   6.557   4.367  0.2098  0.2375  3.1336
  141OSM   C15F15523   6.208   6.427   4.224 -0.2499  0.4618 -0.2629
  141OSM   H15F15524   6.158   6.478   4.138  0.6245 -0.1455 -1.1538
  141OSM   H15G15525   6.145   6.339   4.251 -1.5630  2.0549  2.1431
  141OSM   C16F15526   6.342   6.368   4.178  0.0800  0.2191 -0.4995
  141OSM   H16F15527   6.392   6.320   4.266  0.8578  1.1447 -0.4142
  141OSM   H16G15528   6.417   6.446   4.152  2.7488 -2.0655 -0.1764
  141OSM   C17F15529   6.336   6.272   4.058  0.0410  0.0772  0.0645
  141OSM   H17F15530   6.252   6.200   4.058 -0.7968  1.0318 -1.1462
  141OSM   H17G15531   6.431   6.214   4.052  0.5442  0.8794  0.1561
  141OSM   C18F15532   6.332   6.348   3.929  0.2413 -0.5319 -0.1723
  141OSM   H18F15533   6.341   6.276   3.845  1.9651  1.3309 -1.7044
  141OSM   H18G15534   6.422   6.412   3.914  1.0328 -1.6759 -0.4062
  141OSM   H18H15535   6.240   6.409   3.917  0.7010  1.0474  3.1627
  142OSM      N15536   0.187   4.898   6.632  0.2760  0.5454 -0.1978
  142OSM    C1515537   0.169   5.041   6.657  0.1873  0.1853 -0.0575
  142OSM   H15A15538   0.210   5.079   6.750  0.2206 -1.5685  0.6884
  142OSM   H15B15539   0.064   5.064   6.648 -0.2267 -1.6605 -0.4312
  142OSM   H15C15540   0.217   5.090   6.575 -1.2636 -2.0295 -2.3987
  142OSM    C1415541   0.333   4.877   6.612 -0.1027 -0.4163  0.5025
  142OSM   H14A15542   0.380   4.910   6.703  0.0788 -0.9628  0.6148
  142OSM   H14B15543   0.366   4.936   6.527  1.7518 -1.3236  0.5269
  142OSM   H14C15544   0.356   4.772   6.599 -1.2188 -0.5108 -0.9454
  142OSM    C1315545   0.140   4.828   6.757 -0.3804 -0.3494  0.1759
  142OSM   H13A15546   0.129   4.721   6.745 -0.6414 -0.1292 -1.9133
  142OSM   H13B15547   0.039   4.860   6.782 -0.7759 -0.1355 -1.5441
  142OSM   H13C15548   0.207   4.840   6.841 -2.0379  1.2155  1.3727
  142OSM    C1215549   0.098   4.849   6.514  0.2291  0.4345  0.5498
  142OSM   H12A15550  -0.003   4.879   6.541 -0.2455 -1.5974  1.2845
  142OSM   H12B15551   0.103   4.741   6.516  1.8474  0.4871  1.7127
  142OSM    C1115552   0.145   4.902   6.378  0.1629 -0.9219  0.2766
  142OSM   H11A15553   0.109   4.840   6.293  2.8116 -0.5112 -1.2321
  142OSM   H11B15554   0.254   4.894   6.360  0.2030  0.0365  0.0538
  142OSM      P15555  -0.043   5.074   6.344  0.6022  0.0791  0.0349
  142OSM    O1315556  -0.126   4.975   6.417  0.0386 -0.3286 -1.1040
  142OSM    O1415557  -0.071   5.218   6.373 -0.1573  0.2106 -0.2210
  142OSM    O1115558  -0.050   5.049   6.188  0.3254  0.2230  0.2247
  142OSM    O1215559   0.113   5.044   6.363 -0.6343  0.1140  0.0610
  142OSM    C1S15560  -0.167   5.094   6.118  0.8493  0.4522  1.2420
  142OSM    H1S15561  -0.177   5.203   6.137 -3.1523  0.4751  0.0223
  142OSM    H1T15562  -0.258   5.038   6.147  0.3971  0.6209  0.2289
  142OSM     NF15563  -0.291   5.111   5.896 -0.2417  0.0714 -0.0759
  142OSM    HNF15564  -0.354   5.036   5.876 -0.5810  0.2554  0.2785
  142OSM    C2S15565  -0.159   5.082   5.958 -0.1400  0.6162  0.1434
  142OSM    H2S15566  -0.081   5.157   5.934 -0.2972  0.2387 -1.7414
  142OSM    C3S15567  -0.105   4.944   5.909 -0.5652  0.0273  0.0081
  142OSM    H3S15568  -0.188   4.870   5.907 -0.3809 -0.2569  1.4329
  142OSM     O315569  -0.014   4.886   6.004 -0.3863 -0.4637  0.1093
  142OSM    HO315570   0.008   4.943   6.078 -1.9890  0.5995 -0.1923
  142OSM    C4S15571  -0.060   4.941   5.760 -0.0350 -0.2416  0.1494
  142OSM    H4S15572  -0.143   4.915   5.692 -0.2365 -0.9071  0.6353
  142OSM    C5S15573   0.067   4.959   5.715  0.0160 -0.5850  0.3018
  142OSM    H5S15574   0.144   4.992   5.787 -0.2914 -1.4710  1.0598
  142OSM    C6S15575   0.108   4.978   5.567  0.7656  0.6769 -0.4407
  142OSM    H6S15576   0.197   4.911   5.564 -0.0393 -1.2191  5.1168
  142OSM    H6T15577   0.122   5.088   5.559  1.1864  0.6947  0.4042
  142OSM    C7S15578   0.006   4.935   5.460 -0.1594  0.1662 -0.5791
  142OSM    H7S15579  -0.089   4.983   5.490  1.1090  1.7914  1.0995
  142OSM    H7T15580  -0.016   4.827   5.457 -0.2781  0.1732 -0.0589
  142OSM    C8S15581   0.061   4.975   5.320  0.0260  0.1391 -0.2084
  142OSM    H8S15582   0.167   4.946   5.303  0.0382  0.8529 -1.4596
  142OSM    H8T15583   0.062   5.085   5.305  2.2766 -0.0425 -1.9082
  142OSM    C9S15584   0.003   4.906   5.201  0.2585  0.5023  0.3511
  142OSM    H9S15585  -0.105   4.926   5.219  0.8638  4.2200  0.6894
  142OSM    H9T15586   0.031   4.799   5.207 -0.4249  0.3561  1.0479
  142OSM   C10S15587   0.049   4.967   5.066  0.1753  0.8300 -0.4577
  142OSM   H10S15588   0.159   4.979   5.073  0.3186 -0.2149 -0.6206
  142OSM   H10T15589   0.009   5.068   5.042 -2.5889 -0.3607 -1.2993
  142OSM   C11S15590   0.020   4.871   4.952 -0.2191  0.1343 -0.5530
  142OSM   H11S15591  -0.085   4.843   4.970 -0.1311  0.6611  0.8793
  142OSM   H11T15592   0.085   4.782   4.966  1.8019  1.7004  0.5572
  142OSM   C12S15593   0.059   4.929   4.813  0.2016 -0.2710  0.1541
  142OSM   H12S15594   0.164   4.900   4.791  0.2675 -0.4332  0.6797
  142OSM   H12T15595   0.047   5.039   4.817  0.1889 -0.1568 -1.9762
  142OSM   C13S15596  -0.027   4.879   4.703 -0.0607 -0.0611 -0.8776
  142OSM   H13S15597  -0.130   4.885   4.745 -0.2883 -0.6137 -1.3462
  142OSM   H13T15598  -0.003   4.773   4.683  1.1823 -0.3181  1.6202
  142OSM   C14S15599  -0.002   4.958   4.574 -0.1787 -0.4390  0.5452
  142OSM   H14S15600   0.100   4.935   4.539 -0.2025 -0.1845  0.3064
  142OSM   H14T15601  -0.009   5.068   4.591  0.2225 -0.2036 -0.7182
  142OSM   C15S15602  -0.104   4.927   4.462 -0.4742  0.2904  0.2165
  142OSM   H15S15603  -0.122   4.818   4.459 -0.1304  0.1612  1.8247
  142OSM   H15T15604  -0.063   4.961   4.364 -1.0039  0.1798 -0.0429
  142OSM   C16S15605  -0.232   5.003   4.488 -0.3306  0.1782  0.5126
  142OSM   H16S15606  -0.213   5.110   4.508  1.3204 -0.2630  1.4663
  142OSM   H16T15607  -0.271   4.965   4.585  1.7207  2.8594  2.5407
  142OSM   C17S15608  -0.343   4.986   4.375  0.1501  0.1840 -0.9649
  142OSM   H17S15609  -0.364   4.878   4.358  1.4445 -0.2982  0.3059
  142OSM   H17T15610  -0.313   5.041   4.283 -2.8053  1.6098 -1.1946
  142OSM   C18S15611  -0.477   5.058   4.407 -0.0601 -0.1033 -0.2692
  142OSM   H18S15612  -0.549   5.047   4.324  0.1537  0.1016 -0.4854
  142OSM   H18T15613  -0.445   5.163   4.426  1.8182 -0.5212 -0.8981
  142OSM   H18U15614  -0.529   5.011   4.493 -2.7690 -1.5113 -2.4970
  142OSM    C1F15615  -0.353   5.225   5.912 -0.3358 -0.4687 -0.8789
  142OSM     OF15616  -0.286   5.326   5.937 -0.1933  0.0264  0.2325
  142OSM    C2F15617  -0.506   5.229   5.900 -0.1454  0.6070 -0.4475
  142OSM    H2F15618  -0.546   5.212   6.002 -1.8536  0.2158 -1.1609
  142OSM    H2G15619  -0.537   5.136   5.847 -1.3035 -0.1326  1.4293
  142OSM    C3F15620  -0.561   5.364   5.850 -0.0970  0.2360 -0.1961
  142OSM    H3F15621  -0.514   5.444   5.911 -0.4327 -1.4708  2.4812
  142OSM    H3G15622  -0.670   5.369   5.870 -0.0791  2.3222 -0.4179
  142OSM    C4F15623  -0.552   5.379   5.703  0.1046  0.8075  0.2265
  142OSM    H4F15624  -0.581   5.289   5.645  0.2148  1.4815 -0.9145
  142OSM    H4G15625  -0.445   5.406   5.687  0.0003  0.9335 -0.2779
  142OSM    C5F15626  -0.649   5.494   5.663  0.0263  0.0834 -0.2156
  142OSM    H5F15627  -0.621   5.582   5.724 -0.2854  0.3610 -0.4680
  142OSM    H5G15628  -0.756   5.468   5.677  0.0584 -1.3476 -2.2144
  142OSM    C6F15629  -0.628   5.536   5.515  0.1946 -0.1659  0.4147
  142OSM    H6F15630  -0.525   5.573   5.499 -0.4471  1.7249  0.2738
  142OSM    H6G15631  -0.680   5.634   5.502  2.1051  0.7890 -0.4093
  142OSM    C7F15632  -0.671   5.433   5.409  0.7027  0.1852 -0.0900
  142OSM    H7F15633  -0.782   5.426   5.405  0.5988  2.0355 -2.4035
  142OSM    H7G15634  -0.621   5.335   5.431  0.6431  0.0104 -0.7278
  142OSM    C8F15635  -0.618   5.474   5.268  0.5492 -0.1303  0.1176
  142OSM    H8F15636  -0.629   5.385   5.202  1.3596  0.5348 -0.9521
  142OSM    H8G15637  -0.511   5.497   5.284  0.8111 -0.7731 -0.6482
  142OSM    C9F15638  -0.689   5.589   5.207 -0.2699  0.5811 -0.1839
  142OSM    H9F15639  -0.743   5.657   5.274  0.3205  1.1515 -0.2805
  142OSM   C10F15640  -0.706   5.601   5.072  0.0464  0.7938 -0.8255
  142OSM   H10F15641  -0.754   5.693   5.035  2.4274  1.5882 -2.1673
  142OSM   C11F15642  -0.665   5.513   4.963  0.1620  0.0333 -0.9334
  142OSM   H11F15643  -0.743   5.434   4.956 -1.4048  1.4355  0.1367
  142OSM   H11G15644  -0.573   5.456   4.987 -0.0681 -0.5736 -1.4342
  142OSM   C12F15645  -0.642   5.593   4.835 -0.4905 -0.1780  0.2937
  142OSM   H12F15646  -0.563   5.670   4.845 -0.2492 -0.1713 -1.3380
  142OSM   H12G15647  -0.737   5.642   4.804  0.9701  1.8079 -1.2626
  142OSM   C13F15648  -0.593   5.488   4.732  0.4292  0.3851  0.5822
  142OSM   H13F15649  -0.670   5.408   4.728  0.7747  0.0543  0.5461
  142OSM   H13G15650  -0.499   5.441   4.768  0.8524  1.1516  0.5058
  142OSM   C14F15651  -0.581   5.527   4.590  0.3577 -0.3182  0.3990
  142OSM   H14F15652  -0.487   5.580   4.565 -0.5656  1.1566 -0.1257
  142OSM   H14G15653  -0.664   5.597   4.565  0.7311  0.8540  2.2403
  142OSM   C15F15654  -0.617   5.408   4.501  0.1661  0.1384  0.2689
  142OSM   H15F15655  -0.728   5.401   4.501  0.1129 -1.2937 -3.2541
  142OSM   H15G15656  -0.559   5.321   4.539 -1.5055 -0.0511  2.6363
  142OSM   C16F15657  -0.571   5.429   4.359 -0.0360 -0.5888 -0.1867
  142OSM   H16F15658  -0.582   5.338   4.296 -1.7768 -2.1465  2.2077
  142OSM   H16G15659  -0.462   5.452   4.354 -0.1799  0.2353  0.2827
  142OSM   C17F15660  -0.636   5.546   4.293 -0.2749 -0.3084 -0.4755
  142OSM   H17F15661  -0.605   5.545   4.186 -0.3159  1.2873 -0.5162
  142OSM   H17G15662  -0.589   5.637   4.336  0.9321 -1.5525  0.9568
  142OSM   C18F15663  -0.788   5.564   4.293 -0.4351  0.5789  0.3293
  142OSM   H18F15664  -0.825   5.465   4.261  1.1500 -0.4982  1.6559
  142OSM   H18G15665  -0.827   5.643   4.226  0.1463  1.5199  1.0687
  142OSM   H18H15666  -0.831   5.582   4.394 -2.3530  1.8714 -0.6564
  143OSM      N15667   0.451   1.800   6.453 -0.2170 -0.2571 -0.0061
  143OSM    C1515668   0.547   1.752   6.563 -0.1465  0.4510 -0.0610
  143OSM   H15A15669   0.590   1.829   6.626  0.6602 -1.1441  1.4046
  143OSM   H15B15670   0.625   1.696   6.514  0.0538  0.2728  0.4643
  143OSM   H15C15671   0.493   1.681   6.623  1.4220 -2.8596 -2.2906
  143OSM    C1415672   0.530   1.879   6.350 -0.1202  0.7451  0.2690
  143OSM   H14A15673   0.602   1.813   6.305  1.4388  1.9306  0.9108
  143OSM   H14B15674   0.576   1.968   6.390 -2.4245  2.0994  0.0962
  143OSM   H14C15675   0.463   1.905   6.269 -1.7125  1.9813  1.8999
  143OSM    C1315676   0.395   1.683   6.381 -0.6994  1.2174  0.1217
  143OSM   H13A15677   0.376   1.593   6.438  1.6238  1.4789  1.3951
  143OSM   H13B15678   0.472   1.648   6.315  0.8092  1.6971  1.5695
  143OSM   H13C15679   0.312   1.697   6.313  0.2174  1.5918 -0.9456
  143OSM    C1215680   0.342   1.894   6.502 -0.2106  0.3724  0.2762
  143OSM   H12A15681   0.280   1.922   6.418 -0.2826 -1.5826 -0.3516
  143OSM   H12B15682   0.383   1.983   6.549  1.6048 -0.7105  0.8258
  143OSM    C1115683   0.252   1.820   6.610 -0.3945 -0.5138  0.7369
  143OSM   H11A15684   0.310   1.818   6.705  0.7038  0.0508  0.1030
  143OSM   H11B15685   0.225   1.717   6.577 -1.3234 -0.5176  1.4873
  143OSM      P15686   0.003   1.894   6.536  0.1190 -0.0621 -0.0470
  143OSM    O1315687  -0.052   1.753   6.556  0.2744 -0.6113 -0.0146
  143OSM    O1415688  -0.092   2.010   6.559  0.6669 -0.3128  0.0722
  143OSM    O1115689   0.063   1.910   6.390 -0.0140  0.1534 -0.2781
  143OSM    O1215690   0.144   1.914   6.618  0.2687 -0.0841 -0.7840
  143OSM    C1S15691  -0.013   1.989   6.294 -0.3205  0.5223  0.4592
  143OSM    H1S15692  -0.015   2.097   6.320 -2.9373  0.8184 -0.6671
  143OSM    H1T15693  -0.119   1.956   6.285 -0.3424  0.6468  0.2299
  143OSM     NF15694  -0.025   2.063   6.058  0.6324 -0.3122 -0.0988
  143OSM    HNF15695  -0.099   2.031   6.000 -0.6201  1.2460  0.5630
  143OSM    C2S15696   0.052   1.980   6.153  0.3632 -0.1063  1.3978
  143OSM    H2S15697   0.158   2.010   6.166  0.4257  0.2762  0.1954
  143OSM    C3S15698   0.069   1.829   6.107 -0.6737  0.7747  0.5247
  143OSM    H3S15699  -0.034   1.788   6.096 -0.3907  0.4175 -1.0884
  143OSM     O315700   0.143   1.740   6.198  0.0823  0.9138 -0.0855
  143OSM    HO315701   0.149   1.804   6.270 -0.3405  2.9503 -1.7696
  143OSM    C4S15702   0.136   1.805   5.968  0.2345 -0.3730 -0.1397
  143OSM    H4S15703   0.246   1.811   5.977  0.0250 -0.2587  3.8421
  143OSM    C5S15704   0.070   1.779   5.852  0.1701 -0.7940 -0.8473
  143OSM    H5S15705  -0.040   1.789   5.855  0.3160  1.4659 -1.3746
  143OSM    C6S15706   0.120   1.772   5.714  0.0562  0.3333 -0.0189
  143OSM    H6S15707   0.230   1.788   5.710  0.2963 -0.7011  1.7443
  143OSM    H6T15708   0.075   1.855   5.655  1.1904  1.0101  0.0364
  143OSM    C7S15709   0.104   1.637   5.654  0.6216  0.2685 -0.4739
  143OSM    H7S15710  -0.003   1.615   5.635  0.5787 -0.1190  0.1890
  143OSM    H7T15711   0.145   1.558   5.719 -0.2760  1.3378  1.4949
  143OSM    C8S15712   0.164   1.629   5.514  0.7507 -0.5625  0.3030
  143OSM    H8S15713   0.272   1.652   5.528  0.2446  0.8201  2.3924
  143OSM    H8T15714   0.124   1.719   5.463 -0.4574 -0.2166  1.7884
  143OSM    C9S15715   0.125   1.508   5.437 -0.0063 -0.1718 -0.2756
  143OSM    H9S15716   0.159   1.533   5.334 -3.2494  0.2139 -1.3742
  143OSM    H9T15717   0.014   1.509   5.429 -0.1249  0.8691  1.2243
  143OSM   C10S15718   0.181   1.390   5.506 -0.6714  0.3195 -0.5521
  143OSM   H10S15719   0.143   1.377   5.609  0.0268 -0.4979 -0.3793
  143OSM   H10T15720   0.291   1.387   5.523 -0.5465  0.6438 -1.2823
  143OSM   C11S15721   0.147   1.270   5.427 -0.8678 -0.1875 -0.0489
  143OSM   H11S15722   0.036   1.266   5.412 -0.9369  0.3920  0.2978
  143OSM   H11T15723   0.169   1.179   5.487 -0.0152 -2.0189 -2.9299
  143OSM   C12S15724   0.225   1.245   5.295 -0.0916 -0.2360 -0.4711
  143OSM   H12S15725   0.330   1.272   5.317 -0.4177  0.2082  0.5816
  143OSM   H12T15726   0.182   1.314   5.219 -2.0543 -3.0456 -2.0932
  143OSM   C13S15727   0.233   1.103   5.239  0.2005  0.9699  0.0692
  143OSM   H13S15728   0.133   1.055   5.250  0.0402  1.5154  1.1018
  143OSM   H13T15729   0.311   1.040   5.287 -0.7054 -0.4518 -0.2269
  143OSM   C14S15730   0.276   1.107   5.090  0.0038 -0.2884  0.3141
  143OSM   H14S15731   0.368   1.170   5.083  0.6074 -1.2153 -0.2799
  143OSM   H14T15732   0.201   1.160   5.028  0.2369  2.0957  1.9271
  143OSM   C15S15733   0.295   0.975   5.021 -1.1082 -1.2742 -0.4795
  143OSM   H15S15734   0.211   0.902   5.021 -0.6719 -1.7905  0.2416
  143OSM   H15T15735   0.379   0.928   5.077 -1.3999  0.5483  1.6434
  143OSM   C16S15736   0.336   0.986   4.873  0.3816 -0.1324  0.1996
  143OSM   H16S15737   0.379   0.886   4.851 -0.5515 -0.3685 -0.6236
  143OSM   H16T15738   0.411   1.066   4.852 -0.4667  0.2697 -1.5429
  143OSM   C17S15739   0.219   1.009   4.774  0.0893 -0.0394 -0.1948
  143OSM   H17S15740   0.177   1.112   4.768  3.6897  1.5157 -1.3694
  143OSM   H17T15741   0.140   0.935   4.800 -0.2332  1.0275  2.1749
  143OSM   C18S15742   0.251   0.973   4.631 -0.6884  0.0221  0.6047
  143OSM   H18S15743   0.159   0.943   4.575 -0.4104 -1.0417  0.6854
  143OSM   H18T15744   0.317   0.884   4.623 -0.1359  0.5187 -0.6984
  143OSM   H18U15745   0.304   1.059   4.586  1.3824 -1.7931 -0.6169
  143OSM    C1F15746  -0.007   2.202   6.052 -0.1569  0.7969 -0.3602
  143OSM     OF15747   0.064   2.256   6.138 -0.8921  0.4200 -0.1028
  143OSM    C2F15748  -0.079   2.282   5.952  0.2347  0.2444 -0.4810
  143OSM    H2F15749  -0.126   2.367   6.006 -1.4882 -1.1752  0.3443
  143OSM    H2G15750  -0.168   2.233   5.907  0.0419 -0.8134  0.9683
  143OSM    C3F15751   0.015   2.316   5.833  0.0072 -0.8358  0.1083
  143OSM    H3F15752   0.107   2.373   5.857 -0.3923  1.8328 -3.7097
  143OSM    H3G15753  -0.036   2.392   5.769  1.9381  2.7516  2.5359
  143OSM    C4F15754   0.036   2.192   5.737  0.6948  0.4058  0.4200
  143OSM    H4F15755  -0.068   2.157   5.722  1.0102 -0.0231 -0.9062
  143OSM    H4G15756   0.093   2.108   5.784  4.6295  0.6956 -3.2225
  143OSM    C5F15757   0.106   2.217   5.597 -0.0055  0.5824 -0.3958
  143OSM    H5F15758   0.117   2.137   5.522 -1.7501  0.7652 -0.8793
  143OSM    H5G15759   0.212   2.245   5.615  0.4617 -1.1608 -0.3055
  143OSM    C6F15760   0.029   2.324   5.528 -0.4409 -0.8455 -0.3255
  143OSM    H6F15761   0.048   2.422   5.576 -1.7078 -0.3306 -0.8195
  143OSM    H6G15762  -0.080   2.305   5.533 -1.1488  2.3126 -1.4211
  143OSM    C7F15763   0.069   2.340   5.383  0.5063  0.0091  0.8531
  143OSM    H7F15764   0.061   2.246   5.326 -0.2499  1.0927 -0.9190
  143OSM    H7G15765   0.174   2.376   5.394  1.1146 -1.4174 -0.0605
  143OSM    C8F15766  -0.011   2.452   5.317  0.2869 -0.2320  0.0823
  143OSM    H8F15767  -0.027   2.541   5.381  1.1954  1.0753 -1.4135
  143OSM    H8G15768  -0.112   2.407   5.302  1.1751 -1.9627 -1.0010
  143OSM    C9F15769   0.052   2.502   5.185 -0.0768 -0.3095  0.1583
  143OSM    H9F15770   0.149   2.553   5.191 -1.1862  1.8614  0.7314
  143OSM   C10F15771   0.006   2.495   5.055  0.0244 -0.0656  0.1511
  143OSM   H10F15772   0.060   2.541   4.970 -2.9319  3.0316 -0.2704
  143OSM   C11F15773  -0.120   2.422   5.027 -0.1232  0.2037  0.1931
  143OSM   H11F15774  -0.190   2.430   5.113  1.1888 -2.5514  1.6556
  143OSM   H11G15775  -0.105   2.314   5.009 -1.2887 -0.0523  0.7029
  143OSM   C12F15776  -0.177   2.491   4.904 -1.0108 -0.0522  0.2435
  143OSM   H12F15777  -0.189   2.599   4.928 -2.3992 -0.2216  0.4408
  143OSM   H12G15778  -0.281   2.452   4.895 -1.5227  1.3488 -0.1452
  143OSM   C13F15779  -0.105   2.451   4.783  0.1966 -1.0664  0.7901
  143OSM   H13F15780  -0.119   2.341   4.770 -0.7197 -0.8128 -0.6226
  143OSM   H13G15781   0.001   2.480   4.772  0.6559 -3.2029 -1.3430
  143OSM   C14F15782  -0.186   2.502   4.659  0.7323 -0.3618 -0.2706
  143OSM   H14F15783  -0.172   2.612   4.659  0.2087 -0.1468  3.7736
  143OSM   H14G15784  -0.293   2.472   4.665  0.4775  0.5427 -0.1089
  143OSM   C15F15785  -0.128   2.447   4.526  0.5137 -0.2878  0.2676
  143OSM   H15F15786  -0.125   2.338   4.546 -0.3894 -0.2890  0.4665
  143OSM   H15G15787  -0.027   2.492   4.515  0.2396  0.1771 -0.4330
  143OSM   C16F15788  -0.214   2.474   4.404 -0.0015  0.5584 -0.5845
  143OSM   H16F15789  -0.231   2.582   4.386 -0.9818  0.1595 -2.2117
  143OSM   H16G15790  -0.311   2.421   4.409  0.3922 -0.1667 -0.4668
  143OSM   C17F15791  -0.141   2.412   4.286 -0.8856 -0.2758 -0.5707
  143OSM   H17F15792  -0.203   2.362   4.209  1.1176 -2.3913 -0.8966
  143OSM   H17G15793  -0.075   2.327   4.313  0.4207  0.9607  0.2332
  143OSM   C18F15794  -0.063   2.514   4.210 -0.4114 -0.1765  0.1109
  143OSM   H18F15795  -0.130   2.584   4.157 -0.9891 -1.2175 -0.5591
  143OSM   H18G15796  -0.006   2.467   4.128 -1.8797 -0.6483 -0.6672
  143OSM   H18H15797   0.013   2.563   4.274  0.2037 -0.1993 -0.5911
  144OSM      N15798   6.113   1.928   6.216  0.0342  0.2941 -0.4989
  144OSM    C1515799   5.986   1.954   6.300  0.3008  0.9950  0.5010
  144OSM   H15A15800   5.974   2.060   6.320  1.2114  1.6403 -1.9373
  144OSM   H15B15801   5.983   1.890   6.386  1.4777  0.5886  0.2624
  144OSM   H15C15802   5.908   1.930   6.230  0.8844 -0.7290  0.4063
  144OSM    C1415803   6.238   1.990   6.279 -0.3604 -0.0426  0.7698
  144OSM   H14A15804   6.312   1.962   6.205 -1.6395 -1.0364 -0.1763
  144OSM   H14B15805   6.255   1.933   6.369  0.1557  1.4170  1.6154
  144OSM   H14C15806   6.247   2.097   6.288 -0.3849 -0.1185  1.7561
  144OSM    C1315807   6.131   1.780   6.218 -0.1388  0.0733  0.1717
  144OSM   H13A15808   6.143   1.740   6.318  0.8424  1.0342  0.4676
  144OSM   H13B15809   6.227   1.755   6.175 -0.3969  2.2066 -1.8687
  144OSM   H13C15810   6.052   1.726   6.169  1.6123 -0.4908 -2.2334
  144OSM    C1215811   6.088   1.973   6.070 -0.1948 -0.2076  0.0734
  144OSM   H12A15812   6.175   1.931   6.022  0.4329  1.1176  0.0132
  144OSM   H12B15813   6.086   2.081   6.076  1.9780  0.0347 -2.1251
  144OSM    C1115814   5.973   1.916   5.986  0.1574  0.1401 -0.2135
  144OSM   H11A15815   5.957   1.970   5.891 -2.3948 -0.9812 -0.4988
  144OSM   H11B15816   5.879   1.941   6.040 -0.9477  1.9407 -2.8209
  144OSM      P15817   6.067   1.719   5.839  0.2904  0.2557 -0.1799
  144OSM    O1315818   6.203   1.762   5.854 -0.1361 -0.4077 -0.7172
  144OSM    O1415819   6.048   1.572   5.828 -0.0046  0.0283 -0.0236
  144OSM    O1115820   5.998   1.799   5.724 -0.1802  0.7594  0.0925
  144OSM    O1215821   5.976   1.772   5.960 -1.0009 -0.3094  0.0736
  144OSM    C1S15822   5.862   1.793   5.689 -0.6582 -0.4081  0.2851
  144OSM    H1S15823   5.805   1.850   5.765 -0.4871 -0.2437  0.2887
  144OSM    H1T15824   5.829   1.687   5.699 -1.9445 -0.0327  0.1150
  144OSM     NF15825   5.689   1.826   5.509 -0.3718  0.2456  0.2819
  144OSM    HNF15826   5.666   1.736   5.474  2.7874  0.3964 -2.7764
  144OSM    C2S15827   5.830   1.838   5.542 -0.3693 -0.1711 -0.2128
  144OSM    H2S15828   5.861   1.943   5.528 -0.0225 -0.1251  0.7793
  144OSM    C3S15829   5.920   1.745   5.447  0.5968 -0.7337  0.2567
  144OSM    H3S15830   5.885   1.642   5.468 -0.4289 -0.4054  0.2221
  144OSM     O315831   6.062   1.753   5.473  0.2707  0.0276 -0.0497
  144OSM    HO315832   6.076   1.772   5.566  0.0383  3.4507 -0.5895
  144OSM    C4S15833   5.891   1.773   5.301 -1.0449  0.4001  0.1464
  144OSM    H4S15834   5.852   1.686   5.247 -0.2588 -0.4559  0.9052
  144OSM    C5S15835   5.927   1.876   5.222  0.3301  0.4259  0.3754
  144OSM    H5S15836   5.990   1.956   5.266  1.8916 -0.5813  0.0679
  144OSM    C6S15837   5.900   1.882   5.079 -0.0760  0.1076 -0.3520
  144OSM    H6S15838   5.931   1.797   5.014  0.0452  0.6163 -0.9730
  144OSM    H6T15839   5.972   1.959   5.042  1.3822 -0.8871  0.3138
  144OSM    C7S15840   5.762   1.931   5.038  0.1086 -0.1596 -0.1778
  144OSM    H7S15841   5.744   2.035   5.073  2.6377  0.0983  0.5696
  144OSM    H7T15842   5.679   1.868   5.078  1.1433 -0.6578  1.2854
  144OSM    C8S15843   5.745   1.934   4.887 -0.5526  0.6315 -0.4107
  144OSM    H8S15844   5.636   1.932   4.868 -0.5276  2.1162 -0.7818
  144OSM    H8T15845   5.784   1.842   4.837  0.1116  0.6466  0.0600
  144OSM    C9S15846   5.802   2.048   4.806  0.2591 -0.1433  0.0440
  144OSM    H9S15847   5.912   2.041   4.799  0.1602 -0.2134 -2.2897
  144OSM    H9T15848   5.774   2.142   4.859  1.3035 -0.2475  0.8021
  144OSM   C10S15849   5.740   2.063   4.666 -0.2750  0.1993  0.4140
  144OSM   H10S15850   5.630   2.045   4.672  0.0291 -2.5947 -0.6241
  144OSM   H10T15851   5.771   1.975   4.605 -0.7175  0.9286 -0.9156
  144OSM   C11S15852   5.785   2.187   4.599  0.4548 -0.4445 -0.2454
  144OSM   H11S15853   5.895   2.181   4.586  0.3088 -2.8880 -0.8361
  144OSM   H11T15854   5.765   2.284   4.650 -0.3640 -0.1705 -1.0506
  144OSM   C12S15855   5.721   2.205   4.466 -0.3745 -0.2978  0.6453
  144OSM   H12S15856   5.612   2.186   4.464 -0.3242 -0.8550 -3.0164
  144OSM   H12T15857   5.755   2.121   4.401  0.8120  0.7451 -0.1193
  144OSM   C13S15858   5.750   2.340   4.392 -0.5065 -1.0471 -0.0119
  144OSM   H13S15859   5.855   2.357   4.359 -0.8333  1.2222 -0.0596
  144OSM   H13T15860   5.715   2.422   4.458  0.7703  0.3449 -0.9855
  144OSM   C14S15861   5.681   2.347   4.247  0.0038 -0.7238  0.1981
  144OSM   H14S15862   5.584   2.400   4.256  1.0841  1.3870 -0.0257
  144OSM   H14T15863   5.656   2.247   4.206 -1.0288 -0.5679  0.4291
  144OSM   C15S15864   5.779   2.418   4.146 -0.3416  0.1881  0.0599
  144OSM   H15S15865   5.870   2.357   4.131 -1.0451 -0.8295 -0.1800
  144OSM   H15T15866   5.804   2.517   4.190 -1.9213  0.0646  1.3503
  144OSM   C16S15867   5.715   2.453   4.007  0.7595  0.4828 -0.1623
  144OSM   H16S15868   5.619   2.508   4.018 -0.9947 -2.4151  0.0546
  144OSM   H16T15869   5.689   2.356   3.960  0.6341  0.8517 -0.8730
  144OSM   C17S15870   5.801   2.544   3.917  0.9330 -0.5817 -0.1428
  144OSM   H17S15871   5.739   2.574   3.829 -0.2551 -1.0653  0.5007
  144OSM   H17T15872   5.890   2.491   3.876  1.3073  0.2851 -0.4850
  144OSM   C18S15873   5.848   2.680   3.970 -0.5151  1.0393 -0.3066
  144OSM   H18S15874   5.775   2.712   4.047  1.5637  0.9758  1.7951
  144OSM   H18T15875   5.854   2.753   3.887  0.5491 -1.6253 -2.7717
  144OSM   H18U15876   5.943   2.659   4.024 -1.7523 -2.0992  0.9078
  144OSM    C1F15877   5.600   1.920   5.547  0.6865 -0.4393 -0.3855
  144OSM     OF15878   5.635   2.021   5.608  0.5006 -0.2702 -0.6066
  144OSM    C2F15879   5.451   1.891   5.518 -0.7011 -0.0050  0.1262
  144OSM    H2F15880   5.401   1.884   5.617 -0.5640 -1.9962  0.1032
  144OSM    H2G15881   5.455   1.792   5.468 -0.2015 -0.3266  0.7902
  144OSM    C3F15882   5.387   1.996   5.422 -0.3985  0.0499  0.1235
  144OSM    H3F15883   5.382   2.095   5.471 -0.0430 -0.6953  1.7375
  144OSM    H3G15884   5.285   1.957   5.397  0.6533 -0.8355 -3.4158
  144OSM    C4F15885   5.451   2.014   5.285 -0.5191 -0.3144  0.2020
  144OSM    H4F15886   5.449   1.920   5.227 -0.5787  0.7970 -1.7009
  144OSM    H4G15887   5.555   2.051   5.298 -0.8486  0.3209  1.1432
  144OSM    C5F15888   5.375   2.116   5.200 -0.2546  0.4732 -0.6271
  144OSM    H5F15889   5.379   2.217   5.247 -2.4691  0.7866 -1.0025
  144OSM    H5G15890   5.267   2.094   5.190 -0.3036  0.9671 -1.1862
  144OSM    C6F15891   5.428   2.140   5.060  0.0970 -0.1725 -0.9943
  144OSM    H6F15892   5.423   2.047   4.999 -1.0656  0.7886 -2.4458
  144OSM    H6G15893   5.533   2.176   5.059  0.4151 -1.0715 -0.7966
  144OSM    C7F15894   5.344   2.244   4.998 -0.2647 -0.2198  0.2596
  144OSM    H7F15895   5.365   2.348   5.030  1.0227 -1.0696  2.3649
  144OSM    H7G15896   5.236   2.223   5.006 -0.1786 -1.8857 -1.8384
  144OSM    C8F15897   5.387   2.252   4.845  0.2078  0.0342  0.1039
  144OSM    H8F15898   5.386   2.154   4.794  0.7144  1.0836 -2.0493
  144OSM    H8G15899   5.488   2.300   4.844  1.0176 -1.5939  0.6726
  144OSM    C9F15900   5.276   2.334   4.785 -0.1588 -0.7113  0.6629
  144OSM    H9F15901   5.176   2.306   4.821 -2.0716  1.7634 -2.2730
  144OSM   C10F15902   5.287   2.439   4.700  0.4227  0.9433 -0.4048
  144OSM   H10F15903   5.199   2.492   4.661  0.3035 -0.5954 -2.3901
  144OSM   C11F15904   5.409   2.503   4.644  0.0725  0.5752  0.7114
  144OSM   H11F15905   5.503   2.459   4.682 -0.0203 -0.3757 -0.0957
  144OSM   H11G15906   5.422   2.608   4.676 -0.5297  0.9536 -0.2162
  144OSM   C12F15907   5.434   2.507   4.489  0.7153 -0.2639 -0.0595
  144OSM   H12F15908   5.466   2.407   4.452 -1.1991 -0.1315 -2.2993
  144OSM   H12G15909   5.518   2.576   4.467 -0.1600  0.3165 -1.7437
  144OSM   C13F15910   5.319   2.560   4.404  0.4312  0.0152 -0.5574
  144OSM   H13F15911   5.291   2.662   4.437  0.8881 -0.1916  0.5241
  144OSM   H13G15912   5.235   2.493   4.428  0.6431 -0.6359 -1.5754
  144OSM   C14F15913   5.354   2.562   4.250 -0.2322 -0.1786 -1.6325
  144OSM   H14F15914   5.390   2.463   4.214  2.2351 -0.4662  1.2952
  144OSM   H14G15915   5.434   2.638   4.235 -0.1772  0.4669  1.3418
  144OSM   C15F15916   5.230   2.598   4.167  0.8620  0.0972 -0.0849
  144OSM   H15F15917   5.198   2.695   4.209  0.1813 -0.4080  0.5826
  144OSM   H15G15918   5.145   2.532   4.191  0.8374 -0.0549 -0.5759
  144OSM   C16F15919   5.259   2.614   4.019 -0.3224 -0.3676 -0.5757
  144OSM   H16F15920   5.332   2.538   3.985 -1.6833 -1.2494 -1.6141
  144OSM   H16G15921   5.317   2.709   4.011 -0.1882 -0.4847 -1.0110
  144OSM   C17F15922   5.137   2.617   3.933  0.6098  0.4514 -0.3012
  144OSM   H17F15923   5.075   2.706   3.956  0.0213 -0.5138  2.2688
  144OSM   H17G15924   5.074   2.527   3.953  1.0505  0.3857  0.8464
  144OSM   C18F15925   5.178   2.626   3.783  0.4483 -0.1185  0.0214
  144OSM   H18F15926   5.237   2.720   3.776  1.3094 -0.3476  2.8739
  144OSM   H18G15927   5.086   2.620   3.722  0.4009 -0.4873  0.1308
  144OSM   H18H15928   5.242   2.544   3.744  2.9874  2.0931 -0.7771
  145OSM      N15929   1.547   3.390   6.842  0.1906  0.2984  0.1653
  145OSM    C1515930   1.487   3.356   6.976  0.9010  0.1549 -0.0998
  145OSM   H15A15931   1.382   3.381   6.988  0.8982 -0.9928  4.0991
  145OSM   H15B15932   1.533   3.420   7.050  1.5983 -0.6484  0.1839
  145OSM   H15C15933   1.503   3.252   7.001 -0.5597 -0.2032 -0.5733
  145OSM    C1415934   1.504   3.523   6.809  0.4098 -0.5369  0.9332
  145OSM   H14A15935   1.540   3.533   6.708  0.9545 -1.3878  1.0257
  145OSM   H14B15936   1.535   3.610   6.865  1.3000  1.2502 -2.1386
  145OSM   H14C15937   1.397   3.518   6.815  0.4430  0.1985  2.9751
  145OSM    C1315938   1.696   3.383   6.849 -0.0950 -0.7629  0.4213
  145OSM   H13A15939   1.725   3.452   6.927 -1.6812  0.1832  0.2138
  145OSM   H13B15940   1.736   3.417   6.755 -2.2534 -3.5667 -1.6700
  145OSM   H13C15941   1.737   3.288   6.881  1.3762 -0.4230 -0.4007
  145OSM    C1215942   1.492   3.290   6.743  0.3896  0.1738  0.4850
  145OSM   H12A15943   1.515   3.318   6.641  0.9392 -0.1433  0.5152
  145OSM   H12B15944   1.386   3.306   6.737  0.1596 -1.1766  0.5277
  145OSM    C1115945   1.514   3.141   6.759  0.1376 -0.0360  0.3464
  145OSM   H11A15946   1.441   3.087   6.694 -0.0865  1.0674 -0.3316
  145OSM   H11B15947   1.484   3.108   6.861 -1.8168  0.3541 -0.0558
  145OSM      P15948   1.704   3.114   6.574 -0.0292  0.1772  0.3265
  145OSM    O1315949   1.840   3.178   6.574 -0.0474  0.3575  0.3744
  145OSM    O1415950   1.703   2.979   6.511  0.3517 -0.2161  0.0753
  145OSM    O1115951   1.599   3.206   6.497 -0.3351 -0.3784 -0.3241
  145OSM    O1215952   1.649   3.108   6.730  0.4965 -0.1645  0.3923
  145OSM    C1S15953   1.643   3.286   6.389  0.1319 -0.1102 -0.4791
  145OSM    H1S15954   1.749   3.319   6.386 -0.2296  1.1450 -3.6052
  145OSM    H1T15955   1.586   3.381   6.383  1.4010  0.6017 -1.7432
  145OSM     NF15956   1.670   3.276   6.155  0.3418  0.7648  0.2330
  145OSM    HNF15957   1.647   3.363   6.112  0.0561  0.3000 -0.5770
  145OSM    C2S15958   1.586   3.230   6.257 -0.2769  0.2724  0.7505
  145OSM    H2S15959   1.583   3.119   6.263  1.7045  0.1629  0.2433
  145OSM    C3S15960   1.438   3.278   6.242  0.2236 -0.7164  0.3983
  145OSM    H3S15961   1.431   3.389   6.236 -0.6060 -0.6957  1.4169
  145OSM     O315962   1.357   3.238   6.355 -0.1748  0.1323 -0.0345
  145OSM    HO315963   1.428   3.228   6.419 -0.0545  0.6440 -0.0773
  145OSM    C4S15964   1.388   3.208   6.117 -0.5545 -0.1754  0.2474
  145OSM    H4S15965   1.420   3.255   6.023 -0.3085  1.9785  1.3458
  145OSM    C5S15966   1.326   3.087   6.108  0.9746 -0.0956 -0.6192
  145OSM    H5S15967   1.303   3.026   6.197  2.3238 -0.3739 -0.4468
  145OSM    C6S15968   1.282   3.012   5.983 -0.8377  0.1187 -0.0383
  145OSM    H6S15969   1.179   2.982   6.011  0.6211 -4.0311  1.5906
  145OSM    H6T15970   1.346   2.922   5.974 -1.5743 -0.2864 -1.4503
  145OSM    C7S15971   1.289   3.089   5.857  0.0898  0.1603 -0.3518
  145OSM    H7S15972   1.391   3.129   5.839 -0.1269 -0.5509 -3.8607
  145OSM    H7T15973   1.224   3.179   5.864 -0.4556 -0.1591 -1.2014
  145OSM    C8S15974   1.238   2.999   5.741  0.6534  0.6251 -0.4939
  145OSM    H8S15975   1.147   2.954   5.788  1.3348  0.1874  0.4510
  145OSM    H8T15976   1.305   2.911   5.731 -1.1196 -0.6634 -1.5657
  145OSM    C9S15977   1.224   3.073   5.606 -0.1138  0.2986 -0.6739
  145OSM    H9S15978   1.313   3.133   5.576 -0.8222  1.2150 -0.9958
  145OSM    H9T15979   1.145   3.149   5.621 -0.2382 -0.4070  3.3459
  145OSM   C10S15980   1.179   2.969   5.502  0.2293 -1.1267 -0.6215
  145OSM   H10S15981   1.085   2.915   5.527 -1.0842  0.4476 -1.8721
  145OSM   H10T15982   1.269   2.906   5.492 -0.1987 -1.7327 -0.7179
  145OSM   C11S15983   1.166   3.044   5.371  0.1936 -0.1717  0.6256
  145OSM   H11S15984   1.252   3.115   5.372 -0.4294  0.5979  1.5850
  145OSM   H11T15985   1.077   3.111   5.370  0.3649  0.3724  4.5883
  145OSM   C12S15986   1.173   2.949   5.248  0.6035 -0.2617 -0.9619
  145OSM   H12S15987   1.084   2.884   5.231 -0.5005  1.1769 -0.9071
  145OSM   H12T15988   1.261   2.885   5.268  0.4051 -0.5459 -0.9951
  145OSM   C13S15989   1.184   3.023   5.116 -0.0007  0.0004  0.3832
  145OSM   H13S15990   1.278   3.082   5.113 -0.2838  0.4925 -2.4753
  145OSM   H13T15991   1.096   3.090   5.105  0.3448  0.2292 -1.3961
  145OSM   C14S15992   1.199   2.925   4.997  0.1646 -0.2049 -1.3606
  145OSM   H14S15993   1.117   2.849   4.991 -0.8289  0.8777 -1.7972
  145OSM   H14T15994   1.290   2.867   5.026  0.6238  1.3160  0.3883
  145OSM   C15S15995   1.233   2.974   4.861  0.2332 -0.2682  0.9013
  145OSM   H15S15996   1.243   2.884   4.796  1.4860  0.6898 -0.2972
  145OSM   H15T15997   1.323   3.037   4.873 -0.5541  0.8588  1.0723
  145OSM   C16S15998   1.119   3.063   4.799 -0.4353  0.0415  0.0555
  145OSM   H16S15999   1.097   3.142   4.874 -1.2415  0.1190 -0.2495
  145OSM   H16T16000   1.028   3.001   4.782 -0.3164 -0.3318  0.7343
  145OSM   C17S16001   1.177   3.125   4.668 -0.2920  0.1663  0.6221
  145OSM   H17S16002   1.263   3.189   4.695  0.7090  0.1059 -2.1263
  145OSM   H17T16003   1.099   3.197   4.634  1.5560  1.7109 -0.5661
  145OSM   C18S16004   1.212   3.037   4.553 -0.8518  0.4239  0.4430
  145OSM   H18S16005   1.124   3.008   4.492 -0.2656  0.0325 -0.2341
  145OSM   H18T16006   1.248   2.940   4.593 -2.0712 -0.9073 -1.4862
  145OSM   H18U16007   1.286   3.066   4.475 -0.0503 -0.0500  1.0084
  145OSM    C1F16008   1.790   3.221   6.127  0.3007 -0.7070  0.2792
  145OSM     OF16009   1.816   3.113   6.172 -0.1133 -0.6382  0.2187
  145OSM    C2F16010   1.886   3.297   6.036  0.2497  0.2691 -0.5048
  145OSM    H2F16011   1.980   3.239   6.024 -1.0801 -2.2049  0.4015
  145OSM    H2G16012   1.905   3.399   6.076 -1.0547  0.5285 -0.5067
  145OSM    C3F16013   1.827   3.314   5.896  0.7212  0.0598  0.8536
  145OSM    H3F16014   1.901   3.359   5.828 -1.5150 -0.2898 -2.0006
  145OSM    H3G16015   1.743   3.387   5.893  1.0045  0.3795  0.6853
  145OSM    C4F16016   1.788   3.182   5.820 -0.2500  0.1451  0.0269
  145OSM    H4F16017   1.718   3.112   5.870  0.2753 -0.0702  0.4734
  145OSM    H4G16018   1.882   3.132   5.788 -0.7956 -0.4485 -0.6710
  145OSM    C5F16019   1.714   3.214   5.690  0.4390 -0.1470  0.9877
  145OSM    H5F16020   1.758   3.301   5.636  1.0868 -1.4895 -0.7542
  145OSM    H5G16021   1.607   3.237   5.711  0.8236  3.0808 -0.0843
  145OSM    C6F16022   1.709   3.091   5.591  0.8198 -0.4797 -0.2611
  145OSM    H6F16023   1.674   2.998   5.640  0.7598  0.2715  1.1851
  145OSM    H6G16024   1.812   3.076   5.553  0.8022 -0.4132 -0.3354
  145OSM    C7F16025   1.621   3.128   5.472 -0.1852 -0.6162  0.1745
  145OSM    H7F16026   1.677   3.204   5.413 -1.1962  0.9570  1.2063
  145OSM    H7G16027   1.530   3.178   5.510 -1.1910 -1.3284 -1.1841
  145OSM    C8F16028   1.575   3.001   5.394 -0.5532  0.0204 -0.5246
  145OSM    H8F16029   1.495   3.029   5.322 -1.0136  1.8694  0.6174
  145OSM    H8G16030   1.538   2.918   5.458  0.1896 -0.4664 -0.7062
  145OSM    C9F16031   1.687   2.939   5.309 -0.0099  0.6741  0.8860
  145OSM    H9F16032   1.778   2.929   5.371  0.5945  1.4371  0.1550
  145OSM   C10F16033   1.689   2.897   5.182 -0.5810  0.5123  0.0868
  145OSM   H10F16034   1.779   2.849   5.143 -1.6915  0.8210 -3.1424
  145OSM   C11F16035   1.577   2.899   5.087  0.0526 -0.2862  0.5849
  145OSM   H11F16036   1.583   2.987   5.020 -1.7415  0.2350  1.0509
  145OSM   H11G16037   1.474   2.904   5.128 -1.0336 -1.8950 -1.7662
  145OSM   C12F16038   1.558   2.766   5.006  0.0089 -0.2717  0.2498
  145OSM   H12F16039   1.485   2.782   4.924 -2.1211 -0.3045  2.0470
  145OSM   H12G16040   1.511   2.685   5.066  0.6135  0.0341  1.1556
  145OSM   C13F16041   1.687   2.700   4.950 -0.3645 -1.1172 -0.1401
  145OSM   H13F16042   1.746   2.671   5.040  0.7498  1.9741  0.2334
  145OSM   H13G16043   1.756   2.767   4.895  1.3844 -2.0272  0.8322
  145OSM   C14F16044   1.649   2.579   4.858 -0.4044  0.1688 -0.2758
  145OSM   H14F16045   1.600   2.604   4.761  1.7123 -2.8067 -2.2823
  145OSM   H14G16046   1.578   2.510   4.908  2.0675 -1.5497  1.0206
  145OSM   C15F16047   1.766   2.490   4.819  0.6251  0.0010 -0.4788
  145OSM   H15F16048   1.836   2.559   4.767  0.1973  0.9533  0.1834
  145OSM   H15G16049   1.734   2.414   4.745  0.3715  0.2189 -0.5950
  145OSM   C16F16050   1.833   2.419   4.941 -0.1602  0.1288  0.5147
  145OSM   H16F16051   1.756   2.369   5.003  1.4473  0.0663  2.5750
  145OSM   H16G16052   1.875   2.500   5.004  1.0652  2.1423 -2.6580
  145OSM   C17F16053   1.936   2.306   4.905 -0.0194 -0.7800 -0.2215
  145OSM   H17F16054   2.016   2.345   4.839 -0.6178 -0.1987 -0.6215
  145OSM   H17G16055   1.864   2.244   4.847 -1.5376 -1.6565  2.3983
  145OSM   C18F16056   2.001   2.217   5.012  1.0029 -0.6111  1.1336
  145OSM   H18F16057   2.057   2.132   4.968 -0.3317 -1.8030  1.6606
  145OSM   H18G16058   1.929   2.183   5.090 -1.6041  0.1708 -0.7768
  145OSM   H18H16059   2.069   2.293   5.055  1.3229  0.4956 -1.1927
  146OSM      N16060   3.854   5.056   6.339 -0.2240  0.2803  0.1523
  146OSM    C1516061   3.823   4.976   6.452  0.1107  0.0898  0.9507
  146OSM   H15A16062   3.903   4.918   6.496 -0.3397  0.8841  2.9668
  146OSM   H15B16063   3.753   4.902   6.418  1.3197  0.0922 -1.7467
  146OSM   H15C16064   3.777   5.034   6.531 -1.3714 -1.0759  0.9923
  146OSM    C1416065   3.900   4.969   6.224  0.3520 -0.4078 -0.4284
  146OSM   H14A16066   3.986   4.919   6.266  0.1539  0.0691  0.5606
  146OSM   H14B16067   3.919   5.017   6.129  1.3013  0.3788  0.1366
  146OSM   H14C16068   3.820   4.900   6.204 -0.6851  0.5874  0.1822
  146OSM    C1316069   3.732   5.130   6.303  0.3260  0.0813 -0.1047
  146OSM   H13A16070   3.754   5.193   6.218  0.3953  0.4301  0.1698
  146OSM   H13B16071   3.711   5.195   6.387 -2.5351 -1.8680  0.8422
  146OSM   H13C16072   3.646   5.067   6.288 -0.7055  1.4609 -0.1962
  146OSM    C1216073   3.960   5.161   6.372  0.1417  0.5472 -0.4199
  146OSM   H12A16074   4.036   5.118   6.435  0.1731 -0.4998 -1.1470
  146OSM   H12B16075   3.909   5.235   6.432 -1.6026 -0.7149 -0.2757
  146OSM    C1116076   4.044   5.231   6.260  0.9692  0.1894 -0.3579
  146OSM   H11A16077   4.107   5.155   6.209  1.8268 -0.2293  1.2550
  146OSM   H11B16078   4.112   5.307   6.306 -1.3520  1.7495  0.7178
  146OSM      P16079   3.903   5.443   6.188  0.4758 -0.0923  0.1997
  146OSM    O1316080   3.760   5.452   6.151 -0.1414 -0.0972 -0.0413
  146OSM    O1416081   3.938   5.487   6.326 -0.1099 -0.0009  0.1019
  146OSM    O1116082   3.989   5.521   6.084  0.3074 -0.1108  0.7253
  146OSM    O1216083   3.951   5.294   6.174 -0.6687 -0.4282 -0.0226
  146OSM    C1S16084   4.061   5.466   5.972  0.4405 -0.2054 -0.3522
  146OSM    H1S16085   3.985   5.445   5.894 -0.2954  2.3343 -0.4188
  146OSM    H1T16086   4.115   5.373   6.000 -0.4208 -0.8764 -0.8643
  146OSM     NF16087   4.207   5.517   5.781  0.9218  0.8780  1.0256
  146OSM    HNF16088   4.284   5.455   5.774 -0.5127 -0.9148  0.0601
  146OSM    C2S16089   4.168   5.564   5.917  0.5492 -0.8785 -0.1830
  146OSM    H2S16090   4.120   5.661   5.894  0.8598 -0.5429  0.5410
  146OSM    C3S16091   4.284   5.576   6.023 -0.0227  0.0836 -0.3169
  146OSM    H3S16092   4.350   5.487   6.025  0.2941  0.1770 -3.1350
  146OSM     O316093   4.243   5.602   6.156  0.6015 -1.0661 -0.4055
  146OSM    HO316094   4.147   5.599   6.148  0.5120 -1.0150  0.4964
  146OSM    C4S16095   4.371   5.690   5.973 -0.3923 -0.0547 -0.1102
  146OSM    H4S16096   4.472   5.660   5.938  0.9141  3.9452 -0.2186
  146OSM    C5S16097   4.360   5.826   5.991  1.3081 -0.0540 -0.4830
  146OSM    H5S16098   4.274   5.857   6.053  0.7884 -0.4133 -1.0083
  146OSM    C6S16099   4.449   5.938   5.944 -0.2909  0.0552 -0.0272
  146OSM    H6S16100   4.477   5.899   5.844 -3.7006 -1.9157 -0.3662
  146OSM    H6T16101   4.540   5.937   6.008  0.7920  0.6340 -1.5192
  146OSM    C7S16102   4.383   6.082   5.935 -0.1556  0.1185  0.3013
  146OSM    H7S16103   4.377   6.129   6.036 -2.6733  0.7610 -0.0810
  146OSM    H7T16104   4.278   6.076   5.899 -0.3975  2.1003  0.5401
  146OSM    C8S16105   4.439   6.172   5.823 -0.4579  0.2868 -0.8684
  146OSM    H8S16106   4.550   6.177   5.813 -0.5046  1.3878 -0.9854
  146OSM    H8T16107   4.422   6.275   5.861 -2.5759  0.8214 -3.0040
  146OSM    C9S16108   4.379   6.152   5.682 -0.1320  0.0335  0.2060
  146OSM    H9S16109   4.282   6.205   5.682  0.4858  1.3354 -2.2998
  146OSM    H9T16110   4.361   6.045   5.657 -0.0639 -0.0510  0.5234
  146OSM   C10S16111   4.461   6.212   5.565 -0.0355 -0.4435  0.1673
  146OSM   H10S16112   4.567   6.182   5.576  0.7252  2.0978  0.5591
  146OSM   H10T16113   4.470   6.323   5.571  1.6364 -0.5393 -0.2124
  146OSM   C11S16114   4.401   6.177   5.430 -0.0494 -0.3011  0.2117
  146OSM   H11S16115   4.440   6.258   5.365  2.3875 -0.5791  1.2285
  146OSM   H11T16116   4.293   6.166   5.451 -0.9809 -0.9283 -4.0467
  146OSM   C12S16117   4.457   6.049   5.371 -0.9395  0.6578 -0.1082
  146OSM   H12S16118   4.402   5.963   5.414 -1.6736  0.6835 -0.9518
  146OSM   H12T16119   4.565   6.042   5.394 -0.0170 -2.5631 -4.1593
  146OSM   C13S16120   4.451   6.043   5.216  0.0796  0.3835  0.1959
  146OSM   H13S16121   4.518   5.964   5.176 -0.0841 -0.1809  0.9950
  146OSM   H13T16122   4.492   6.138   5.176 -1.6982  1.4603  0.8415
  146OSM   C14S16123   4.312   6.015   5.154  0.3250  0.6533  0.7289
  146OSM   H14S16124   4.238   6.077   5.209  1.1981  0.9541  1.5960
  146OSM   H14T16125   4.284   5.914   5.190  1.0564 -1.1003 -3.0571
  146OSM   C15S16126   4.312   6.028   5.005 -0.1880 -0.0703 -0.4544
  146OSM   H15S16127   4.377   6.113   4.975  1.9419 -1.6556 -0.5699
  146OSM   H15T16128   4.207   6.035   4.968 -0.2037  3.4542 -0.0862
  146OSM   C16S16129   4.383   5.919   4.929  0.7141 -0.0675 -0.8302
  146OSM   H16S16130   4.379   5.820   4.981  0.3725  0.4979  0.2567
  146OSM   H16T16131   4.491   5.938   4.944  1.3306 -3.3670 -0.2099
  146OSM   C17S16132   4.342   5.920   4.779 -0.4782 -0.1722  0.2262
  146OSM   H17S16133   4.356   6.018   4.729 -3.3910 -0.4771 -1.3997
  146OSM   H17T16134   4.238   5.881   4.772  0.3516 -2.2786 -1.4415
  146OSM   C18S16135   4.426   5.817   4.696  0.5259 -0.4441  0.0141
  146OSM   H18S16136   4.413   5.718   4.745 -1.6376 -0.2138 -0.0330
  146OSM   H18T16137   4.534   5.842   4.700  0.9502 -2.2433  1.1088
  146OSM   H18U16138   4.399   5.800   4.589 -1.7045  0.6373  0.3527
  146OSM    C1F16139   4.129   5.521   5.674  0.1177 -0.1897 -0.1082
  146OSM     OF16140   4.014   5.568   5.683 -0.6780  0.0054 -0.0770
  146OSM    C2F16141   4.182   5.468   5.547 -0.3248 -0.3945 -0.4555
  146OSM    H2F16142   4.168   5.358   5.540 -1.4486 -0.1894 -1.9518
  146OSM    H2G16143   4.289   5.495   5.540 -0.8518  1.8279 -0.6659
  146OSM    C3F16144   4.110   5.533   5.424 -0.4404 -0.3917  0.0907
  146OSM    H3F16145   4.124   5.644   5.431 -0.8859 -0.2308 -1.2496
  146OSM    H3G16146   4.000   5.528   5.442 -0.5955  2.1239  0.2015
  146OSM    C4F16147   4.163   5.463   5.304 -0.1741  0.2134 -0.1421
  146OSM    H4F16148   4.121   5.361   5.289  2.7554 -1.0899 -0.1497
  146OSM    H4G16149   4.270   5.444   5.326 -0.6456  0.1694  2.4215
  146OSM    C5F16150   4.147   5.553   5.178  0.0267  0.0699  0.1025
  146OSM    H5F16151   4.204   5.647   5.188 -0.6386  0.7735 -2.1304
  146OSM    H5G16152   4.038   5.577   5.172 -0.0015 -0.3936 -1.7663
  146OSM    C6F16153   4.182   5.482   5.046  0.7134 -0.7693  0.3871
  146OSM    H6F16154   4.115   5.395   5.026 -2.0978  1.3358 -0.1048
  146OSM    H6G16155   4.286   5.447   5.037  1.2597  0.7985  0.3090
  146OSM    C7F16156   4.145   5.581   4.931 -0.0314 -0.1819 -0.2781
  146OSM    H7F16157   4.212   5.669   4.942  1.7988 -1.6088  0.5402
  146OSM    H7G16158   4.043   5.624   4.940 -0.5091 -1.6533  2.1398
  146OSM    C8F16159   4.145   5.524   4.786  0.2303 -0.3089  0.0737
  146OSM    H8F16160   4.135   5.613   4.719  0.5092  0.3137  0.8432
  146OSM    H8G16161   4.050   5.469   4.768  0.3304 -0.7019  0.7114
  146OSM    C9F16162   4.261   5.445   4.741 -0.3798 -0.4625  0.1473
  146OSM    H9F16163   4.345   5.510   4.713  1.1127 -2.1445  0.5107
  146OSM   C10F16164   4.270   5.312   4.733 -0.7579 -0.4086  0.6448
  146OSM   H10F16165   4.367   5.266   4.707 -0.6520  1.1826 -2.1497
  146OSM   C11F16166   4.163   5.204   4.781 -0.0273 -0.0118  0.1454
  146OSM   H11F16167   4.071   5.260   4.807  0.4459 -0.2943  2.7153
  146OSM   H11G16168   4.203   5.157   4.874  0.1195  1.1975  0.7176
  146OSM   C12F16169   4.117   5.101   4.671  0.3545  0.6999 -0.3748
  146OSM   H12F16170   4.044   5.037   4.724 -2.3593  2.8422 -1.3365
  146OSM   H12G16171   4.202   5.033   4.649 -0.1277 -0.6268  1.5966
  146OSM   C13F16172   4.075   5.171   4.549 -0.1730 -0.2922  0.3697
  146OSM   H13F16173   4.145   5.248   4.513 -1.4479  1.8218  2.1588
  146OSM   H13G16174   3.978   5.222   4.568 -1.2443 -0.7992 -3.0839
  146OSM   C14F16175   4.045   5.080   4.432 -0.1005  0.5473 -0.3466
  146OSM   H14F16176   4.032   5.145   4.342 -0.2108  1.8291  0.5593
  146OSM   H14G16177   4.124   5.010   4.399 -1.2550 -0.2264 -1.6211
  146OSM   C15F16178   3.906   5.007   4.439 -0.2455  0.3352  0.2886
  146OSM   H15F16179   3.823   5.079   4.457 -0.2942 -0.0480  1.7771
  146OSM   H15G16180   3.905   4.947   4.533 -0.9220 -2.3113 -1.2897
  146OSM   C16F16181   3.882   4.927   4.309 -0.3127 -0.0158  0.3427
  146OSM   H16F16182   3.792   4.864   4.319 -0.0228 -1.2432 -3.2485
  146OSM   H16G16183   3.969   4.868   4.271 -1.9314 -2.0561 -0.3578
  146OSM   C17F16184   3.836   5.027   4.195 -0.1594 -0.9108  0.8741
  146OSM   H17F16185   3.915   5.102   4.172  0.2943 -1.4447  0.6789
  146OSM   H17G16186   3.753   5.084   4.243  0.1388  1.3263 -1.0653
  146OSM   C18F16187   3.769   4.970   4.076  0.0253  0.3629 -1.2933
  146OSM   H18F16188   3.689   4.898   4.103  0.2893  0.8628  1.0294
  146OSM   H18G16189   3.841   4.906   4.020  0.1926 -1.2524  0.6757
  146OSM   H18H16190   3.715   5.042   4.011 -1.2426 -1.1000 -1.9151
  147OSM      N16191   2.568   3.064   1.291 -0.1909 -0.2564 -0.0626
  147OSM    C1516192   2.605   3.192   1.355 -0.8186  0.0156 -0.2471
  147OSM   H15A16193   2.531   3.224   1.426  0.8963  1.8055  0.8478
  147OSM   H15B16194   2.609   3.263   1.274  0.1839 -0.3750 -0.5595
  147OSM   H15C16195   2.699   3.183   1.407 -0.9832  1.6926  0.3980
  147OSM    C1416196   2.443   3.098   1.209 -1.0644  1.1049  0.1876
  147OSM   H14A16197   2.411   3.004   1.168 -1.1976  0.9022  0.7531
  147OSM   H14B16198   2.450   3.164   1.123 -0.4115 -1.6334 -2.0230
  147OSM   H14C16199   2.368   3.139   1.275  0.2580  1.2154  1.6788
  147OSM    C1316200   2.679   3.037   1.186 -0.1978  0.0229  0.0304
  147OSM   H13A16201   2.767   2.992   1.229 -1.6031 -2.6817  0.2863
  147OSM   H13B16202   2.698   3.120   1.119  0.1153 -0.2720 -0.2485
  147OSM   H13C16203   2.631   2.965   1.122 -0.6993 -1.8015  2.3167
  147OSM    C1216204   2.553   2.960   1.396 -0.1925 -0.1995 -0.1171
  147OSM   H12A16205   2.532   2.863   1.352 -0.1472 -0.4497  0.4019
  147OSM   H12B16206   2.463   2.984   1.451 -0.4464 -2.1950  0.4249
  147OSM    C1116207   2.663   2.943   1.506 -0.1532  0.1683 -0.3748
  147OSM   H11A16208   2.624   2.857   1.565 -2.4102  0.9014 -0.6752
  147OSM   H11B16209   2.661   3.027   1.579  0.4370 -1.1878  1.2643
  147OSM      P16210   2.925   2.973   1.504 -0.2731  0.1764 -0.0650
  147OSM    O1316211   3.037   2.884   1.465  0.1485 -0.4373 -0.4713
  147OSM    O1416212   2.939   3.114   1.454 -0.3305 -0.5618 -0.1973
  147OSM    O1116213   2.897   2.968   1.661  0.8031 -0.0899 -0.4862
  147OSM    O1216214   2.790   2.912   1.445  0.5204 -0.1791 -0.4686
  147OSM    C1S16215   2.992   3.031   1.744  0.4424 -0.5387  0.2663
  147OSM    H1S16216   2.996   3.141   1.728  2.0168  0.0536  3.6740
  147OSM    H1T16217   3.093   2.995   1.717  0.1685 -0.8975 -0.2862
  147OSM     NF16218   3.061   3.084   1.973 -0.4888  0.8452  0.3722
  147OSM    HNF16219   3.147   3.036   1.986 -1.0210 -0.7664 -1.4559
  147OSM    C2S16220   2.961   3.004   1.899  0.5468 -0.0602 -0.0991
  147OSM    H2S16221   2.860   3.049   1.907  0.0693 -0.9755 -0.7871
  147OSM    C3S16222   2.958   2.851   1.928  0.3560 -0.0477 -0.2993
  147OSM    H3S16223   3.060   2.810   1.914  0.1636 -0.0181 -2.0025
  147OSM     O316224   2.856   2.778   1.857 -0.0627 -0.6070 -0.1456
  147OSM    HO316225   2.854   2.826   1.774 -0.2424 -3.6133 -2.0098
  147OSM    C4S16226   2.923   2.846   2.082 -0.5737  0.6990  0.0407
  147OSM    H4S16227   2.817   2.828   2.104 -0.4611 -1.0427 -0.6724
  147OSM    C5S16228   3.020   2.849   2.177 -0.2993 -0.4012  0.4006
  147OSM    H5S16229   3.125   2.844   2.145 -0.3102  2.2414 -0.3415
  147OSM    C6S16230   2.996   2.834   2.320 -0.2095  0.1036 -0.2584
  147OSM    H6S16231   2.980   2.730   2.356  0.4075  0.1339  0.1292
  147OSM    H6T16232   2.912   2.894   2.362  0.4664  1.3472 -0.6323
  147OSM    C7S16233   3.116   2.870   2.414  0.2378 -0.8503  0.7365
  147OSM    H7S16234   3.154   2.972   2.393 -0.1905 -1.1883 -1.9796
  147OSM    H7T16235   3.184   2.784   2.396  0.4707 -0.8692  1.6631
  147OSM    C8S16236   3.089   2.880   2.565  0.3140  0.4604  0.2488
  147OSM    H8S16237   3.051   2.779   2.590 -0.3479  0.4501 -0.7408
  147OSM    H8T16238   3.005   2.951   2.582  2.2578  2.4554  2.0849
  147OSM    C9S16239   3.209   2.921   2.643 -0.0827  0.0933  0.2008
  147OSM    H9S16240   3.248   3.015   2.599 -0.5394  1.0586  1.7719
  147OSM    H9T16241   3.300   2.857   2.641  2.0230  2.8613  1.0081
  147OSM   C10S16242   3.185   2.959   2.791  0.1613 -0.3077 -0.3291
  147OSM   H10S16243   3.090   3.017   2.793  0.2359 -0.1085  2.6155
  147OSM   H10T16244   3.273   3.015   2.828 -0.0249  0.8644 -1.5933
  147OSM   C11S16245   3.152   2.839   2.884 -0.6819 -0.3918  0.5675
  147OSM   H11S16246   3.248   2.785   2.894  0.4475  1.5722  0.8484
  147OSM   H11T16247   3.075   2.768   2.848 -0.8711 -0.8131  1.7405
  147OSM   C12S16248   3.109   2.890   3.022  0.0536  0.1254  0.0624
  147OSM   H12S16249   3.178   2.954   3.082 -1.6915  1.9296  0.2862
  147OSM   H12T16250   3.103   2.795   3.079  0.4289  1.2570  2.0951
  147OSM   C13S16251   2.977   2.962   3.016 -0.1852  0.0734 -0.0920
  147OSM   H13S16252   2.912   2.895   2.955 -1.3514  0.6334  0.5318
  147OSM   H13T16253   2.982   3.058   2.960  0.5654  0.0502 -0.0737
  147OSM   C14S16254   2.910   2.965   3.158 -0.9317  0.1049 -0.4517
  147OSM   H14S16255   2.933   2.868   3.206 -0.5475  0.0703 -0.6996
  147OSM   H14T16256   2.802   2.951   3.137 -0.2117 -2.6684 -3.0374
  147OSM   C15S16257   2.958   3.082   3.246  1.3333  0.2220  0.6441
  147OSM   H15S16258   2.913   3.164   3.187  1.4100  0.1115  0.4328
  147OSM   H15T16259   3.069   3.090   3.257  1.3996 -0.6496  0.6712
  147OSM   C16S16260   2.899   3.073   3.394 -0.1102  0.7070  0.2833
  147OSM   H16S16261   2.959   2.998   3.449  2.2203  1.1500 -1.5165
  147OSM   H16T16262   2.795   3.034   3.399 -0.2668  1.1450  0.4985
  147OSM   C17S16263   2.905   3.214   3.473  0.4335  0.3072 -0.3463
  147OSM   H17S16264   2.838   3.285   3.420 -0.2057 -0.2516 -0.2991
  147OSM   H17T16265   3.011   3.247   3.467 -0.2636  2.9396  0.7745
  147OSM   C18S16266   2.852   3.183   3.614 -0.6682 -0.2041  0.0386
  147OSM   H18S16267   2.885   3.257   3.690 -0.6016 -1.5253  1.3166
  147OSM   H18T16268   2.900   3.090   3.651  0.5098  0.9485  1.5358
  147OSM   H18U16269   2.743   3.160   3.616 -0.6894 -0.4722 -2.1004
  147OSM    C1F16270   3.066   3.216   1.993  0.6911 -0.2016  0.2110
  147OSM     OF16271   2.975   3.289   1.954  0.2518 -0.1925  0.5274
  147OSM    C2F16272   3.182   3.272   2.065  0.7566 -0.0664  1.4971
  147OSM    H2F16273   3.239   3.333   1.992  0.4191  0.3626  1.5843
  147OSM    H2G16274   3.258   3.198   2.096  1.6154 -0.0252 -0.3953
  147OSM    C3F16275   3.133   3.363   2.182  0.5913 -0.2861 -0.1328
  147OSM    H3F16276   3.054   3.435   2.150  1.2397  0.5849  0.1643
  147OSM    H3G16277   3.223   3.414   2.222 -0.2826 -0.7458  2.6613
  147OSM    C4F16278   3.071   3.282   2.298 -0.5906 -0.5534 -1.0026
  147OSM    H4F16279   3.112   3.179   2.305 -0.8676 -0.6548 -0.8223
  147OSM    H4G16280   2.962   3.266   2.283 -0.9203  2.0497 -1.7941
  147OSM    C5F16281   3.062   3.371   2.422 -0.4261  0.5742  0.3614
  147OSM    H5F16282   2.999   3.463   2.412 -2.8188 -1.0019  0.0484
  147OSM    H5G16283   3.162   3.400   2.462  0.9851 -1.6441 -1.3717
  147OSM    C6F16284   3.001   3.294   2.543 -0.2311  0.8882  0.2903
  147OSM    H6F16285   3.066   3.207   2.566 -2.7765 -1.2822 -0.1770
  147OSM    H6G16286   2.906   3.243   2.513 -0.4234  1.5528 -0.2314
  147OSM    C7F16287   2.977   3.385   2.661 -0.5111 -0.7162  0.0584
  147OSM    H7F16288   2.887   3.448   2.644 -0.4210 -0.0671  1.8669
  147OSM    H7G16289   3.051   3.467   2.672 -0.2708 -1.1527  2.1075
  147OSM    C8F16290   2.941   3.316   2.789 -0.0811 -0.4639  0.5683
  147OSM    H8F16291   3.029   3.257   2.823 -0.0489 -0.3352  0.7096
  147OSM    H8G16292   2.867   3.239   2.761 -2.3065  1.0262  2.0150
  147OSM    C9F16293   2.881   3.407   2.891  0.3756 -0.8144 -0.3648
  147OSM    H9F16294   2.790   3.459   2.860  2.3779  2.6879 -0.9671
  147OSM   C10F16295   2.936   3.433   3.015  0.1836 -0.5415 -0.0990
  147OSM   H10F16296   2.886   3.516   3.065  1.3151  0.4760 -0.6169
  147OSM   C11F16297   3.068   3.386   3.072  0.8120  0.2688 -0.2264
  147OSM   H11F16298   3.123   3.321   3.000 -0.0621 -0.2866 -0.4024
  147OSM   H11G16299   3.052   3.316   3.157  0.9303  0.4220 -0.0768
  147OSM   C12F16300   3.161   3.492   3.121  0.0022 -0.1003 -0.4070
  147OSM   H12F16301   3.174   3.575   3.048 -1.1621  0.8632  0.4680
  147OSM   H12G16302   3.255   3.439   3.148 -0.4432 -0.2664  0.8565
  147OSM   C13F16303   3.115   3.576   3.243  0.7323 -0.3838 -0.1332
  147OSM   H13F16304   3.010   3.610   3.230  0.6083 -1.3794 -2.0377
  147OSM   H13G16305   3.172   3.670   3.258  0.2620 -0.2985  1.3245
  147OSM   C14F16306   3.135   3.504   3.379  0.1849 -0.6893  0.1275
  147OSM   H14F16307   3.229   3.445   3.385  2.0147  2.2151  2.9225
  147OSM   H14G16308   3.043   3.441   3.382 -0.7673  0.6552  0.0404
  147OSM   C15F16309   3.135   3.602   3.493  0.7672 -0.3137 -0.1378
  147OSM   H15F16310   3.040   3.659   3.490  1.3933  0.7373 -0.7540
  147OSM   H15G16311   3.217   3.676   3.488  0.3078  0.4921  2.6425
  147OSM   C16F16312   3.141   3.529   3.626 -1.1160  0.3371 -0.2826
  147OSM   H16F16313   3.202   3.437   3.607 -1.6963 -0.0417 -0.3319
  147OSM   H16G16314   3.040   3.492   3.650 -0.3897 -1.6105 -0.0458
  147OSM   C17F16315   3.204   3.606   3.749  0.4390 -0.0857  0.1686
  147OSM   H17F16316   3.145   3.700   3.745 -1.7776 -1.4504 -1.6741
  147OSM   H17G16317   3.314   3.620   3.738  0.4190  0.6483  0.7959
  147OSM   C18F16318   3.160   3.546   3.886 -0.1583 -0.1969  1.2234
  147OSM   H18F16319   3.219   3.456   3.915  2.0080  0.1886 -1.6187
  147OSM   H18G16320   3.053   3.517   3.879 -0.2112  0.3544 -0.8415
  147OSM   H18H16321   3.175   3.618   3.969 -2.0160  2.0833 -0.2943
  148OSM      N16322   3.636   5.027   2.082 -0.1499  0.0219 -0.2518
  148OSM    C1516323   3.696   5.117   1.979 -0.3552  0.1377 -0.5706
  148OSM   H15A16324   3.753   5.192   2.033 -0.1178  1.3068 -2.3675
  148OSM   H15B16325   3.631   5.167   1.910  0.4030 -0.5554 -1.8412
  148OSM   H15C16326   3.767   5.065   1.916 -0.0807 -1.9122  1.3089
  148OSM    C1416327   3.586   4.903   2.016 -0.2764 -1.0345  0.2321
  148OSM   H14A16328   3.494   4.925   1.965  1.0071  0.8208 -1.4064
  148OSM   H14B16329   3.564   4.827   2.090 -1.5507 -0.8417  0.0813
  148OSM   H14C16330   3.646   4.867   1.933 -1.0086 -1.2849 -0.1987
  148OSM    C1316331   3.744   5.006   2.178 -0.5130  0.0508  0.4670
  148OSM   H13A16332   3.834   4.960   2.138 -0.5179  0.4395  0.0027
  148OSM   H13B16333   3.706   4.933   2.248 -2.6384  0.1620 -0.4932
  148OSM   H13C16334   3.772   5.097   2.229 -0.9129  0.9783 -0.9116
  148OSM    C1216335   3.519   5.092   2.161 -0.6198 -0.5039  0.0622
  148OSM   H12A16336   3.439   5.115   2.093  0.5335 -0.0010 -1.1731
  148OSM   H12B16337   3.562   5.184   2.197  2.3931 -1.3454 -0.9941
  148OSM    C1116338   3.461   5.013   2.280  0.3511  0.7286  0.4723
  148OSM   H11A16339   3.400   5.082   2.342  2.5871  1.0765  2.3771
  148OSM   H11B16340   3.540   4.976   2.348  1.8457  1.0809 -1.0030
  148OSM      P16341   3.230   4.918   2.183 -0.5181  0.0991  0.3902
  148OSM    O1316342   3.218   5.062   2.154  0.5613 -0.4066 -0.2200
  148OSM    O1416343   3.198   4.815   2.076 -0.6690  0.1626 -0.5291
  148OSM    O1116344   3.148   4.875   2.313 -0.2906 -0.1255 -1.1549
  148OSM    O1216345   3.383   4.898   2.233 -0.2164  0.0611  0.0353
  148OSM    C1S16346   3.185   4.771   2.403 -0.2523  0.4888 -0.3176
  148OSM    H1S16347   3.244   4.690   2.356  1.7105  2.4796 -1.4323
  148OSM    H1T16348   3.086   4.726   2.426  0.3790 -1.4971 -1.2351
  148OSM     NF16349   3.299   4.699   2.620 -0.0823 -0.7602  0.1636
  148OSM    HNF16350   3.241   4.685   2.701  0.1411 -0.0585  0.4509
  148OSM    C2S16351   3.257   4.816   2.538 -0.0780 -0.2364  0.1897
  148OSM    H2S16352   3.350   4.868   2.510 -0.3931 -0.1338 -0.6846
  148OSM    C3S16353   3.161   4.917   2.610  0.2047  0.1779 -0.5179
  148OSM    H3S16354   3.088   4.846   2.656 -0.1931  0.3640 -0.8578
  148OSM     O316355   3.084   5.006   2.528  0.1825 -0.1298  0.4669
  148OSM    HO316356   3.087   4.972   2.439 -1.4354  0.4052  0.1686
  148OSM    C4S16357   3.232   4.984   2.726  0.4485 -0.0339 -0.2397
  148OSM    H4S16358   3.269   4.915   2.804  0.7216 -1.0531 -1.2376
  148OSM    C5S16359   3.250   5.114   2.746 -0.7273  0.0338  0.3052
  148OSM    H5S16360   3.207   5.187   2.677 -0.6205  0.9441  1.1858
  148OSM    C6S16361   3.314   5.165   2.878  0.0570  0.3455  0.5568
  148OSM    H6S16362   3.263   5.257   2.913 -0.6227 -0.3677  1.4727
  148OSM    H6T16363   3.416   5.204   2.856 -0.3555  1.5896  0.7292
  148OSM    C7S16364   3.296   5.074   3.003  0.3834  0.1476  0.1382
  148OSM    H7S16365   3.359   4.982   3.001  1.4051  0.8416 -0.3622
  148OSM    H7T16366   3.187   5.055   3.001  0.4441 -1.2372  3.2533
  148OSM    C8S16367   3.325   5.139   3.139 -0.6500 -0.6470  0.1308
  148OSM    H8S16368   3.264   5.232   3.136  0.5176  0.1185 -1.0471
  148OSM    H8T16369   3.425   5.181   3.163 -0.8059  0.2023 -0.6461
  148OSM    C9S16370   3.278   5.053   3.252 -0.0896  0.4963 -0.0731
  148OSM    H9S16371   3.313   4.952   3.223 -1.1800  0.1093 -0.0737
  148OSM    H9T16372   3.168   5.043   3.256 -0.1762  0.6898 -1.6336
  148OSM   C10S16373   3.330   5.075   3.392 -0.0462 -0.3916 -0.0602
  148OSM   H10S16374   3.438   5.098   3.380 -0.1663 -0.2249 -0.8454
  148OSM   H10T16375   3.323   4.982   3.452 -2.7357 -0.1251  0.1694
  148OSM   C11S16376   3.273   5.196   3.468 -0.5082 -0.7373 -0.2590
  148OSM   H11S16377   3.164   5.174   3.478 -0.9760  1.0365 -1.0955
  148OSM   H11T16378   3.284   5.294   3.417 -2.5345 -0.0922  0.4542
  148OSM   C12S16379   3.338   5.213   3.608 -0.2410  0.5955 -0.9165
  148OSM   H12S16380   3.270   5.287   3.657 -1.3009 -0.6201 -0.4710
  148OSM   H12T16381   3.438   5.261   3.608 -0.0870  0.2777 -1.4159
  148OSM   C13S16382   3.339   5.081   3.695  0.4864 -0.0642  0.5190
  148OSM   H13S16383   3.436   5.025   3.689  0.0631 -0.8256  0.5868
  148OSM   H13T16384   3.258   5.016   3.657  2.0463 -0.7256 -1.8838
  148OSM   C14S16385   3.309   5.120   3.840  0.3153  0.1814 -0.3783
  148OSM   H14S16386   3.204   5.157   3.845  0.9763  1.9930  3.8593
  148OSM   H14T16387   3.375   5.200   3.880  0.1705 -0.3656  0.9822
  148OSM   C15S16388   3.323   4.996   3.938 -0.4730 -0.2747 -0.7632
  148OSM   H15S16389   3.433   4.981   3.934 -0.2891  0.4698  0.6471
  148OSM   H15T16390   3.269   4.905   3.904 -1.4369 -0.3908  0.9494
  148OSM   C16S16391   3.269   5.039   4.075 -0.5810 -0.5260 -0.6920
  148OSM   H16S16392   3.159   5.026   4.084 -0.4580 -0.4109  1.7647
  148OSM   H16T16393   3.292   5.146   4.095  2.0308 -1.1788  0.2079
  148OSM   C17S16394   3.344   4.967   4.179 -0.3140  0.4421  0.0445
  148OSM   H17S16395   3.299   5.002   4.274  0.3840  1.0173  0.1712
  148OSM   H17T16396   3.452   4.993   4.189 -0.1433 -0.0982 -0.3299
  148OSM   C18S16397   3.333   4.813   4.170  0.3393 -0.4772 -0.2996
  148OSM   H18S16398   3.376   4.753   4.253 -2.7044 -2.2868  0.1022
  148OSM   H18T16399   3.394   4.768   4.088  1.7290  1.8129 -0.6026
  148OSM   H18U16400   3.225   4.791   4.160 -0.0112  0.6076  0.9803
  148OSM    C1F16401   3.391   4.617   2.571  0.4669  0.7685  0.3074
  148OSM     OF16402   3.472   4.657   2.489  0.0951 -0.2970  0.0873
  148OSM    C2F16403   3.390   4.480   2.626 -1.1774  0.4969  0.1775
  148OSM    H2F16404   3.380   4.413   2.537  3.9294  0.3738 -0.6236
  148OSM    H2G16405   3.306   4.464   2.697  0.3782 -1.6253  1.6878
  148OSM    C3F16406   3.519   4.438   2.700 -0.5045  0.1497  0.6142
  148OSM    H3F16407   3.556   4.519   2.767  0.4178 -0.9770  1.5041
  148OSM    H3G16408   3.609   4.409   2.641 -0.3458 -1.5922  1.6482
  148OSM    C4F16409   3.491   4.313   2.777 -0.3088  0.6796 -0.1846
  148OSM    H4F16410   3.443   4.247   2.702  0.2012  1.4611 -1.2151
  148OSM    H4G16411   3.417   4.346   2.853 -0.6984 -0.3411 -0.1004
  148OSM    C5F16412   3.610   4.240   2.839  0.3864 -0.3877  0.5164
  148OSM    H5F16413   3.694   4.308   2.862 -1.0202  0.5497  3.2761
  148OSM    H5G16414   3.644   4.168   2.761 -1.4124 -1.6042  0.7901
  148OSM    C6F16415   3.580   4.152   2.959  0.6650  0.2824 -0.1521
  148OSM    H6F16416   3.671   4.094   2.988  0.8143  1.0308  0.9393
  148OSM    H6G16417   3.501   4.079   2.933 -0.2179  0.9540  0.5808
  148OSM    C7F16418   3.536   4.216   3.090  0.5128 -0.8575  0.0152
  148OSM    H7F16419   3.428   4.241   3.079  0.1029 -2.2693  0.6574
  148OSM    H7G16420   3.591   4.313   3.081 -0.5964 -0.3194 -1.4722
  148OSM    C8F16421   3.553   4.136   3.223 -0.4270  0.6102 -0.0947
  148OSM    H8F16422   3.537   4.209   3.305  0.8184 -2.1669  2.8368
  148OSM    H8G16423   3.659   4.101   3.223 -1.6754 -3.8137  0.6486
  148OSM    C9F16424   3.474   4.009   3.260 -1.0270 -0.5054  0.3973
  148OSM    H9F16425   3.482   3.924   3.191 -2.4920  0.0642 -0.5269
  148OSM   C10F16426   3.399   3.981   3.368 -0.4854  0.2167 -0.5671
  148OSM   H10F16427   3.361   3.880   3.387 -0.8896 -0.1414 -2.9759
  148OSM   C11F16428   3.368   4.084   3.482  0.8191  0.0551 -0.0885
  148OSM   H11F16429   3.260   4.099   3.504  1.3000 -0.1849  2.8129
  148OSM   H11G16430   3.409   4.182   3.451 -1.4160  0.9238 -0.5212
  148OSM   C12F16431   3.410   4.038   3.619 -0.1453 -0.3916 -0.9602
  148OSM   H12F16432   3.374   3.935   3.642 -0.7673 -0.0911 -0.5567
  148OSM   H12G16433   3.365   4.107   3.694  1.1764 -2.2692  1.7719
  148OSM   C13F16434   3.561   4.040   3.643  0.4319 -0.5866 -0.2244
  148OSM   H13F16435   3.596   4.141   3.613  0.2017 -0.4092  0.0991
  148OSM   H13G16436   3.622   3.965   3.589 -1.6734 -3.1382  0.7225
  148OSM   C14F16437   3.588   4.010   3.798 -0.1161 -0.0651 -0.8016
  148OSM   H14F16438   3.564   3.904   3.818  0.7815 -0.3471 -1.1810
  148OSM   H14G16439   3.517   4.071   3.858 -0.8242  1.0305 -2.6596
  148OSM   C15F16440   3.729   4.043   3.851 -0.5235  0.1687 -0.5072
  148OSM   H15F16441   3.719   4.038   3.961  1.5222 -1.0337 -0.3166
  148OSM   H15G16442   3.768   4.142   3.820  1.1297 -0.1847  0.3338
  148OSM   C16F16443   3.837   3.933   3.808  0.5639 -0.3715 -0.2640
  148OSM   H16F16444   3.936   3.982   3.794  1.0429 -1.4632 -0.8498
  148OSM   H16G16445   3.801   3.882   3.716  1.4644  0.4436 -1.1028
  148OSM   C17F16446   3.863   3.829   3.919  0.5930 -0.1069  0.1244
  148OSM   H17F16447   3.763   3.795   3.951  0.9330 -1.2552 -0.0019
  148OSM   H17G16448   3.924   3.882   3.996  0.8443  0.3047 -0.3522
  148OSM   C18F16449   3.945   3.710   3.867 -0.2297 -0.0436  0.1339
  148OSM   H18F16450   4.048   3.751   3.851 -0.3613  0.7967  1.3424
  148OSM   H18G16451   3.911   3.663   3.772 -0.5190  1.5359 -0.5728
  148OSM   H18H16452   3.947   3.631   3.944 -1.3282 -0.2757 -0.0578
  149OSM      N16453   4.016   2.605   1.455 -0.6009  0.5050  0.4877
  149OSM    C1516454   3.949   2.479   1.487 -0.0215  0.7319 -0.1078
  149OSM   H15A16455   4.010   2.390   1.487  0.5814  1.0491 -3.2877
  149OSM   H15B16456   3.871   2.458   1.416 -1.1721  0.1234  1.2811
  149OSM   H15C16457   3.887   2.494   1.574 -1.4339  0.9968 -1.1300
  149OSM    C1416458   4.096   2.580   1.328  0.3630 -0.1478 -0.0031
  149OSM   H14A16459   4.028   2.533   1.258  1.5901  2.1231 -2.9137
  149OSM   H14B16460   4.185   2.523   1.347 -0.2465 -1.7479 -1.6737
  149OSM   H14C16461   4.122   2.671   1.277 -1.6309  0.2858 -0.3299
  149OSM    C1316462   3.914   2.712   1.415  0.6818 -0.0707 -0.4338
  149OSM   H13A16463   3.853   2.670   1.336  1.8117 -0.4142 -1.1393
  149OSM   H13B16464   3.964   2.805   1.391 -0.4085  0.6787  0.1375
  149OSM   H13C16465   3.856   2.732   1.504  1.4186  1.5312 -0.2733
  149OSM    C1216466   4.098   2.646   1.575 -0.0331  0.8246  0.9271
  149OSM   H12A16467   4.153   2.738   1.560  3.3943 -1.1110  0.5473
  149OSM   H12B16468   4.168   2.567   1.599  0.2860  0.6881 -0.3398
  149OSM    C1116469   4.018   2.656   1.702  0.0378 -0.1713 -0.1659
  149OSM   H11A16470   4.077   2.665   1.796 -1.2455  0.1275  0.6285
  149OSM   H11B16471   3.953   2.569   1.722  0.0833 -0.6532 -1.9885
  149OSM      P16472   3.961   2.909   1.744  0.4976 -0.2133 -0.0688
  149OSM    O1316473   4.106   2.915   1.762  0.2736 -0.0296  0.0686
  149OSM    O1416474   3.902   2.995   1.636  1.2252  0.0042  0.3017
  149OSM    O1116475   3.889   2.935   1.883 -0.4099  0.4029 -0.3000
  149OSM    O1216476   3.923   2.765   1.711 -0.7845  0.0428  0.0480
  149OSM    C1S16477   3.892   2.834   1.983  0.1776  0.0240  0.0506
  149OSM    H1S16478   3.889   2.731   1.941  1.4846 -0.0671  0.1523
  149OSM    H1T16479   3.796   2.843   2.039 -0.0752 -2.2393  0.0637
  149OSM     NF16480   3.982   2.739   2.200  0.2750 -0.0244  0.1331
  149OSM    HNF16481   3.935   2.763   2.285  0.1120  2.3601 -0.5413
  149OSM    C2S16482   4.004   2.840   2.092 -0.4132  0.3735  0.1098
  149OSM    H2S16483   4.099   2.817   2.039 -0.0240  2.2633 -0.0660
  149OSM    C3S16484   4.015   2.986   2.140  0.0251  0.0372 -0.6660
  149OSM    H3S16485   3.914   3.008   2.181  0.7352  1.0793  0.6118
  149OSM     O316486   4.033   3.095   2.043  0.6068 -0.3699 -0.1645
  149OSM    HO316487   4.003   3.053   1.962 -3.0815 -1.2247  1.4367
  149OSM    C4S16488   4.116   2.999   2.256  0.5703 -0.5906  0.2724
  149OSM    H4S16489   4.073   3.006   2.357  1.2521 -1.3501  0.6181
  149OSM    C5S16490   4.245   3.026   2.245 -0.3818  0.0982 -0.3495
  149OSM    H5S16491   4.286   3.032   2.143 -0.3846 -0.2803 -0.3750
  149OSM    C6S16492   4.351   3.037   2.354 -0.3663  0.3746  0.2632
  149OSM    H6S16493   4.294   3.047   2.450 -1.8071 -0.1078 -0.5059
  149OSM    H6T16494   4.414   3.126   2.331  0.0534 -0.2608 -1.1032
  149OSM    C7S16495   4.446   2.926   2.351  0.2156 -0.0072 -1.1755
  149OSM    H7S16496   4.482   2.913   2.246 -2.6678 -1.1968 -2.1184
  149OSM    H7T16497   4.396   2.833   2.385 -0.1805  0.4019 -0.6214
  149OSM    C8S16498   4.571   2.964   2.432  0.6102  0.1360  0.5553
  149OSM    H8S16499   4.550   2.947   2.540 -0.0678  0.6330  0.5079
  149OSM    H8T16500   4.604   3.068   2.412 -1.4383  0.5395 -1.1586
  149OSM    C9S16501   4.679   2.866   2.390 -0.3577  0.0897  0.0598
  149OSM    H9S16502   4.694   2.878   2.281  1.2070  2.9353  0.4970
  149OSM    H9T16503   4.662   2.757   2.405  1.2203 -0.4860 -1.8038
  149OSM   C10S16504   4.817   2.898   2.460  0.6075 -0.4876 -0.4444
  149OSM   H10S16505   4.847   3.004   2.440 -0.5600 -0.0726 -0.0762
  149OSM   H10T16506   4.908   2.839   2.438  1.7894  1.0696  0.0414
  149OSM   C11S16507   4.800   2.876   2.614 -0.4772 -0.2986  0.2645
  149OSM   H11S16508   4.703   2.900   2.660 -0.0243 -0.7950  1.5264
  149OSM   H11T16509   4.887   2.914   2.672  0.2097 -1.5017  0.0699
  149OSM   C12S16510   4.816   2.725   2.648  0.0099  0.6062 -0.7420
  149OSM   H12S16511   4.923   2.696   2.638  0.2314  1.4358 -0.8695
  149OSM   H12T16512   4.766   2.671   2.565 -0.1861  0.6652 -0.6621
  149OSM   C13S16513   4.768   2.694   2.797  0.2423  0.8933  0.6500
  149OSM   H13S16514   4.780   2.584   2.812 -0.2311  0.7214 -0.1580
  149OSM   H13T16515   4.660   2.718   2.807  0.3347  0.9333  1.5954
  149OSM   C14S16516   4.863   2.769   2.894 -0.0718  0.6625  0.6938
  149OSM   H14S16517   4.843   2.879   2.889  1.3680  0.8966 -0.4103
  149OSM   H14T16518   4.970   2.754   2.869 -0.0395  0.5742  0.8834
  149OSM   C15S16519   4.846   2.726   3.037 -0.6410 -0.5415  0.0396
  149OSM   H15S16520   4.915   2.780   3.105 -1.5332 -1.6624  1.9395
  149OSM   H15T16521   4.874   2.619   3.050 -1.6336 -0.9769 -1.2315
  149OSM   C16S16522   4.699   2.743   3.087 -1.0128  0.1014  1.2468
  149OSM   H16S16523   4.708   2.697   3.187  2.4940  0.7539  1.3805
  149OSM   H16T16524   4.635   2.680   3.021 -0.6079  1.0957 -0.1390
  149OSM   C17S16525   4.647   2.889   3.099 -0.2096  0.2917 -0.0926
  149OSM   H17S16526   4.636   2.950   3.007 -0.4921  0.1229 -0.1736
  149OSM   H17T16527   4.713   2.947   3.167  0.4338 -0.3218 -0.1876
  149OSM   C18S16528   4.504   2.889   3.152 -0.2702  1.1109 -0.1797
  149OSM   H18S16529   4.493   2.866   3.260  0.1396  0.4624 -0.2707
  149OSM   H18T16530   4.435   2.824   3.094  0.2144 -0.5820  1.0522
  149OSM   H18U16531   4.465   2.993   3.149 -3.7708 -0.0985 -2.8847
  149OSM    C1F16532   4.009   2.608   2.178 -0.1503  0.3884 -0.5723
  149OSM     OF16533   4.021   2.562   2.065  0.2636  0.3489  0.1307
  149OSM    C2F16534   4.011   2.516   2.303 -0.5156 -0.6388 -0.1423
  149OSM    H2F16535   3.932   2.554   2.372 -0.4684  0.0642 -0.4627
  149OSM    H2G16536   4.102   2.521   2.365  0.4873 -2.3419 -1.3875
  149OSM    C3F16537   3.985   2.373   2.257  0.2653  0.2056  0.2901
  149OSM    H3F16538   4.047   2.337   2.172  2.2878  0.0253  1.7570
  149OSM    H3G16539   3.885   2.366   2.210  1.0219  1.3148 -1.5794
  149OSM    C4F16540   4.004   2.278   2.375  0.0680 -0.6225  0.6131
  149OSM    H4F16541   3.958   2.314   2.470  2.2590 -2.1702  2.3891
  149OSM    H4G16542   4.111   2.259   2.397  0.0206  1.2929  2.9625
  149OSM    C5F16543   3.952   2.135   2.346  0.1115  0.2132 -0.6048
  149OSM    H5F16544   4.030   2.096   2.278  0.6185  0.4775 -0.1872
  149OSM    H5G16545   3.853   2.140   2.296  0.4310 -0.3111 -1.3037
  149OSM    C6F16546   3.939   2.062   2.482  0.5196  0.6626 -0.4134
  149OSM    H6F16547   3.878   2.116   2.557  3.3617  1.2198  1.6506
  149OSM    H6G16548   4.038   2.054   2.532 -0.3620  2.0137  1.7165
  149OSM    C7F16549   3.880   1.919   2.462  0.5254 -0.0463 -0.0209
  149OSM    H7F16550   3.952   1.845   2.420 -0.1196 -0.8054  0.2011
  149OSM    H7G16551   3.814   1.931   2.374  0.8453  1.8060 -0.0610
  149OSM    C8F16552   3.817   1.847   2.590 -0.7991 -0.3471  0.3111
  149OSM    H8F16553   3.814   1.741   2.559 -0.8497 -0.6697  1.3848
  149OSM    H8G16554   3.713   1.876   2.616 -0.7546  1.4280 -1.3144
  149OSM    C9F16555   3.900   1.876   2.716  0.9050 -0.0589 -0.1815
  149OSM    H9F16556   3.991   1.814   2.713  0.1602 -1.1904  0.0874
  149OSM   C10F16557   3.882   1.954   2.828 -0.0008  0.1063 -0.3207
  149OSM   H10F16558   3.956   1.948   2.909  0.5743 -1.6832 -0.9311
  149OSM   C11F16559   3.774   2.054   2.854  0.3722  0.5112  0.4413
  149OSM   H11F16560   3.694   2.052   2.778  1.4641 -0.4610 -0.7254
  149OSM   H11G16561   3.805   2.161   2.850 -3.3320  1.6855 -0.9120
  149OSM   C12F16562   3.687   2.023   2.977 -0.0266 -0.0061  0.4435
  149OSM   H12F16563   3.650   1.919   2.959  1.6250 -0.6337  0.5707
  149OSM   H12G16564   3.592   2.080   2.986 -2.6587 -3.8343 -0.4968
  149OSM   C13F16565   3.757   2.040   3.106  0.1188  0.8224  0.2404
  149OSM   H13F16566   3.850   1.980   3.103  0.5806  0.7951  5.6003
  149OSM   H13G16567   3.698   1.994   3.189  1.6885  0.0224  0.9537
  149OSM   C14F16568   3.788   2.182   3.146 -0.3015  0.4558 -0.2651
  149OSM   H14F16569   3.725   2.255   3.091 -1.1161 -0.7961 -1.0454
  149OSM   H14G16570   3.895   2.187   3.116  0.7206 -0.4182  2.9066
  149OSM   C15F16571   3.778   2.222   3.293  0.0171  0.0962  0.4520
  149OSM   H15F16572   3.858   2.292   3.325 -2.8233  3.2012  1.3168
  149OSM   H15G16573   3.790   2.128   3.352  1.3293 -0.1594 -0.1896
  149OSM   C16F16574   3.644   2.297   3.320 -0.1512  0.6604 -0.4332
  149OSM   H16F16575   3.560   2.228   3.296 -1.0471  1.0663  1.3442
  149OSM   H16G16576   3.638   2.379   3.246  3.3324  0.3778 -1.1764
  149OSM   C17F16577   3.641   2.348   3.473  0.4665  0.5954  0.2527
  149OSM   H17F16578   3.691   2.269   3.533 -1.5929 -1.7042 -0.8650
  149OSM   H17G16579   3.536   2.342   3.507  0.4395 -0.1703  0.0579
  149OSM   C18F16580   3.691   2.492   3.484 -0.2007  0.1821  0.2684
  149OSM   H18F16581   3.798   2.489   3.453  1.0235  0.6726  3.8601
  149OSM   H18G16582   3.678   2.531   3.587 -0.7989  1.3119 -0.2190
  149OSM   H18H16583   3.623   2.549   3.418  0.3393  1.9761  1.1800
  150OSM      N16584   1.778   5.062   1.858  0.7043 -0.6741 -0.1897
  150OSM    C1516585   1.913   5.111   1.887 -0.3878 -0.2333 -0.1994
  150OSM   H15A16586   1.944   5.069   1.982  1.7762  0.8254 -0.3899
  150OSM   H15B16587   1.917   5.218   1.895 -0.2417 -0.2210 -0.4327
  150OSM   H15C16588   1.981   5.084   1.808 -1.1461 -0.9316 -0.6383
  150OSM    C1416589   1.727   5.153   1.751 -0.7193 -0.2646  0.3491
  150OSM   H14A16590   1.633   5.120   1.709 -0.6777 -0.8224  0.6815
  150OSM   H14B16591   1.786   5.159   1.661 -0.1355 -2.0275  0.5892
  150OSM   H14C16592   1.712   5.247   1.804 -0.3287 -0.8232  1.4934
  150OSM    C1316593   1.777   4.921   1.807 -0.2960 -0.4153 -0.1041
  150OSM   H13A16594   1.833   4.910   1.716  1.2155  2.3097  0.3707
  150OSM   H13B16595   1.679   4.879   1.793 -0.7372  0.0314  1.4200
  150OSM   H13C16596   1.834   4.870   1.883  1.1333  0.9507 -0.2052
  150OSM    C1216597   1.675   5.069   1.970  0.3575 -0.0656 -0.4071
  150OSM   H12A16598   1.581   5.025   1.939 -0.8475  0.8440  1.7168
  150OSM   H12B16599   1.660   5.172   1.999 -0.4239  0.2317 -1.7422
  150OSM    C1116600   1.693   4.990   2.102  0.6057  0.0749 -0.4876
  150OSM   H11A16601   1.618   5.030   2.174 -0.4510  0.8666 -1.9677
  150OSM   H11B16602   1.794   5.015   2.142  0.1375  3.3726 -1.0774
  150OSM      P16603   1.544   4.778   2.076 -0.0996  0.0706  0.2615
  150OSM    O1316604   1.449   4.882   2.019  0.0447 -0.1308 -0.5275
  150OSM    O1416605   1.558   4.650   2.006 -0.7549  0.4318 -0.1191
  150OSM    O1116606   1.508   4.752   2.228 -0.3076 -0.1717  0.8702
  150OSM    O1216607   1.676   4.851   2.075 -0.2309  0.2791 -0.2336
  150OSM    C1S16608   1.617   4.735   2.324  0.3111  0.2245 -0.1671
  150OSM    H1S16609   1.682   4.825   2.316 -0.0289  0.4549 -0.3804
  150OSM    H1T16610   1.677   4.644   2.305  2.0519  1.1579  0.6512
  150OSM     NF16611   1.681   4.728   2.567 -1.0888 -0.1335 -0.1269
  150OSM    HNF16612   1.696   4.643   2.617 -0.2164 -0.0364 -0.2009
  150OSM    C2S16613   1.569   4.733   2.474 -0.7345  0.1746 -0.1374
  150OSM    H2S16614   1.522   4.833   2.487  2.6050  1.8853 -0.0826
  150OSM    C3S16615   1.468   4.617   2.477  0.0292  0.0921  0.0665
  150OSM    H3S16616   1.530   4.530   2.447  0.5221  0.7917 -1.0512
  150OSM     O316617   1.354   4.615   2.386  0.4792 -0.1274 -0.1638
  150OSM    HO316618   1.380   4.688   2.330  1.2252  1.5202  2.1626
  150OSM    C4S16619   1.426   4.590   2.616  0.2961 -0.1222 -0.6607
  150OSM    H4S16620   1.371   4.675   2.659 -0.0699 -0.7453  0.1361
  150OSM    C5S16621   1.439   4.471   2.682  0.0297  0.2677 -0.0481
  150OSM    H5S16622   1.477   4.384   2.626 -0.2487  1.9947 -3.1614
  150OSM    C6S16623   1.373   4.458   2.816 -0.7897 -0.1205 -0.1289
  150OSM    H6S16624   1.279   4.400   2.811 -0.1820 -1.5038  2.6059
  150OSM    H6T16625   1.347   4.559   2.855  0.5316  0.3699 -0.4337
  150OSM    C7S16626   1.485   4.407   2.920 -0.0090  0.4635  0.6354
  150OSM    H7S16627   1.573   4.475   2.911 -0.2751  0.9018  1.2489
  150OSM    H7T16628   1.528   4.306   2.907 -1.6544 -0.3949  1.5361
  150OSM    C8S16629   1.441   4.422   3.070 -0.0914  0.0581  0.0313
  150OSM    H8S16630   1.350   4.362   3.091  1.2244 -1.4330  1.7549
  150OSM    H8T16631   1.413   4.529   3.080 -0.6361  0.2019 -2.3516
  150OSM    C9S16632   1.546   4.371   3.166  0.1322  0.0966 -0.2306
  150OSM    H9S16633   1.649   4.406   3.142 -0.6643  1.4491 -1.8685
  150OSM    H9T16634   1.539   4.262   3.146  1.0888  0.1951 -1.2373
  150OSM   C10S16635   1.513   4.398   3.317  0.3228 -0.5605  0.9989
  150OSM   H10S16636   1.408   4.367   3.336  0.2671  0.0729  1.7815
  150OSM   H10T16637   1.530   4.501   3.354  0.5626  0.5247 -1.8832
  150OSM   C11S16638   1.589   4.306   3.407  0.6856 -0.7139  0.1073
  150OSM   H11S16639   1.582   4.339   3.513 -0.1406  1.2500 -0.5185
  150OSM   H11T16640   1.696   4.318   3.379  1.1629 -2.2012  1.1801
  150OSM   C12S16641   1.553   4.162   3.400 -0.0803  0.6538 -0.2253
  150OSM   H12S16642   1.565   4.120   3.298 -0.6080  0.2266 -0.1132
  150OSM   H12T16643   1.450   4.161   3.441 -0.8244 -0.3151 -2.0122
  150OSM   C13S16644   1.655   4.089   3.486 -0.6202  0.8063  0.0344
  150OSM   H13S16645   1.658   4.131   3.589  1.8425  2.6568 -0.7031
  150OSM   H13T16646   1.759   4.115   3.457  0.3425 -1.7202  0.9914
  150OSM   C14S16647   1.647   3.938   3.476 -0.4632  0.5861  0.3207
  150OSM   H14S16648   1.656   3.910   3.369 -1.5271 -0.3231  0.4574
  150OSM   H14T16649   1.553   3.896   3.516 -0.9231  0.3500 -0.9626
  150OSM   C15S16650   1.769   3.863   3.540  0.6625 -0.3879  0.0388
  150OSM   H15S16651   1.796   3.883   3.646  2.0683 -1.8114 -0.0217
  150OSM   H15T16652   1.858   3.914   3.497  0.8844 -1.8228 -1.2818
  150OSM   C16S16653   1.775   3.714   3.520 -0.1465  0.0750 -0.9310
  150OSM   H16S16654   1.863   3.686   3.581 -1.5245  1.5244  1.9429
  150OSM   H16T16655   1.809   3.700   3.415 -0.2417  0.9037 -1.0789
  150OSM   C17S16656   1.642   3.639   3.556 -0.0425  0.3440  0.3850
  150OSM   H17S16657   1.646   3.534   3.521  2.4522  1.4104 -3.1714
  150OSM   H17T16658   1.557   3.696   3.513 -0.3493 -0.9319 -0.7704
  150OSM   C18S16659   1.626   3.636   3.708 -0.3861  0.3706  0.2853
  150OSM   H18S16660   1.717   3.612   3.766 -2.0963 -2.8981  1.9567
  150OSM   H18T16661   1.564   3.544   3.718 -0.3098  0.3692  0.7692
  150OSM   H18U16662   1.570   3.722   3.750  1.3227  1.4783  0.3652
  150OSM    C1F16663   1.757   4.835   2.598  1.0338 -0.4772  0.0258
  150OSM     OF16664   1.749   4.933   2.529 -0.3700  0.2907 -0.5857
  150OSM    C2F16665   1.845   4.823   2.711 -0.4255 -0.5446 -0.6700
  150OSM    H2F16666   1.917   4.908   2.708 -1.7650  0.6465 -0.2340
  150OSM    H2G16667   1.908   4.733   2.699  0.5169  0.3343 -2.8987
  150OSM    C3F16668   1.768   4.816   2.844 -0.2474  0.4676 -0.1866
  150OSM    H3F16669   1.703   4.727   2.834  0.2146  0.0603  0.3640
  150OSM    H3G16670   1.714   4.910   2.873 -1.0090  0.7989 -2.5178
  150OSM    C4F16671   1.859   4.792   2.967 -0.2953  0.0540 -0.8556
  150OSM    H4F16672   1.929   4.877   2.981 -0.9571  0.3974  0.4705
  150OSM    H4G16673   1.906   4.693   2.948  1.5976  0.0636  2.9759
  150OSM    C5F16674   1.775   4.773   3.095  0.6750 -0.1306 -0.1213
  150OSM    H5F16675   1.712   4.687   3.066 -0.8301 -0.5389  3.7034
  150OSM    H5G16676   1.709   4.856   3.128  0.9134  0.6834 -1.6276
  150OSM    C6F16677   1.856   4.738   3.226 -1.0778  0.3866 -0.2227
  150OSM    H6F16678   1.905   4.832   3.261 -1.0712 -0.3170  1.8120
  150OSM    H6G16679   1.936   4.672   3.186  0.2596  1.7841  0.0440
  150OSM    C7F16680   1.772   4.661   3.332 -0.7358  0.5949  0.1460
  150OSM    H7F16681   1.791   4.552   3.326 -0.4932  0.1967  4.5834
  150OSM    H7G16682   1.664   4.664   3.308 -0.6195 -1.4252 -0.8188
  150OSM    C8F16683   1.790   4.717   3.474  0.1346  0.5280 -0.8301
  150OSM    H8F16684   1.701   4.681   3.530  0.1784  2.7119  0.7995
  150OSM    H8G16685   1.765   4.825   3.463 -1.9534  0.0339 -1.4526
  150OSM    C9F16686   1.919   4.681   3.543  0.0452 -0.5192 -0.7754
  150OSM    H9F16687   1.991   4.764   3.545 -1.7123  1.0978  1.8295
  150OSM   C10F16688   1.949   4.560   3.598 -0.5758 -0.8021  0.1062
  150OSM   H10F16689   2.050   4.560   3.641 -0.7533  0.9240  0.5751
  150OSM   C11F16690   1.885   4.427   3.596  0.1221 -0.5394 -0.0571
  150OSM   H11F16691   1.928   4.377   3.507  2.3426  1.9201 -0.4871
  150OSM   H11G16692   1.775   4.434   3.583  0.3038  2.0179 -0.7317
  150OSM   C12F16693   1.916   4.332   3.720 -0.0887  0.1184  0.7545
  150OSM   H12F16694   2.023   4.316   3.741  0.1317  1.5353  0.8065
  150OSM   H12G16695   1.887   4.232   3.681  2.5883 -0.2951 -0.3712
  150OSM   C13F16696   1.831   4.357   3.848 -0.3706 -0.4877 -0.0720
  150OSM   H13F16697   1.859   4.276   3.920  2.1183  1.0054  0.7731
  150OSM   H13G16698   1.722   4.345   3.832 -0.4151  1.5664 -1.6754
  150OSM   C14F16699   1.853   4.483   3.916 -0.4320 -0.4913  0.2751
  150OSM   H14F16700   1.938   4.538   3.871  0.4244 -1.8110  0.2518
  150OSM   H14G16701   1.883   4.466   4.022 -0.4752  0.3682  0.4309
  150OSM   C15F16702   1.724   4.567   3.909 -0.8514 -0.1669  0.3940
  150OSM   H15F16703   1.631   4.516   3.941 -0.4727 -0.8292  0.4631
  150OSM   H15G16704   1.716   4.589   3.800  0.4261  0.8305  0.4767
  150OSM   C16F16705   1.714   4.690   3.993  0.8669 -0.2928 -0.0046
  150OSM   H16F16706   1.796   4.758   4.023 -0.1726  0.9208  0.1600
  150OSM   H16G16707   1.676   4.654   4.091  0.8077 -0.0728  0.0552
  150OSM   C17F16708   1.602   4.782   3.924  0.4587 -0.1591  0.2510
  150OSM   H17F16709   1.633   4.808   3.820 -0.0970  3.8359  0.9058
  150OSM   H17G16710   1.593   4.875   3.985  1.1933 -0.6582  1.1389
  150OSM   C18F16711   1.458   4.726   3.922 -0.2733  0.4381 -0.1640
  150OSM   H18F16712   1.453   4.638   3.855  2.5304 -0.4199  0.6094
  150OSM   H18G16713   1.388   4.802   3.882 -0.1074  0.2594 -0.8045
  150OSM   H18H16714   1.426   4.702   4.026  0.9788 -0.5623  0.0175
  151OSM      N16715   0.045   4.809   1.743  0.2337 -0.1284  0.5510
  151OSM    C1516716   0.180   4.854   1.693  0.5366  0.2094  0.6406
  151OSM   H15A16717   0.259   4.811   1.752  1.9094  1.0488 -0.5006
  151OSM   H15B16718   0.195   4.961   1.701  2.7213 -0.0351  0.5338
  151OSM   H15C16719   0.187   4.825   1.589 -1.3707 -1.2911  0.8893
  151OSM    C1416720  -0.061   4.885   1.663  0.2173 -0.1909  0.2189
  151OSM   H14A16721  -0.154   4.862   1.712 -0.6065  1.2340 -0.5872
  151OSM   H14B16722  -0.070   4.862   1.558 -2.4786  0.5423  0.2062
  151OSM   H14C16723  -0.050   4.989   1.691 -0.7729 -0.4219  1.5617
  151OSM    C1316724   0.033   4.663   1.721  0.5877 -0.2024  0.0998
  151OSM   H13A16725   0.032   4.627   1.619 -3.2092 -1.6298  0.4666
  151OSM   H13B16726  -0.062   4.620   1.750  1.5025 -1.6074  1.1121
  151OSM   H13C16727   0.104   4.613   1.785  0.3325  0.8945  1.2761
  151OSM    C1216728   0.022   4.849   1.891 -0.0262 -0.3482 -0.2933
  151OSM   H12A16729   0.048   4.954   1.889  2.1358 -0.7921  1.2575
  151OSM   H12B16730   0.095   4.799   1.952 -1.6709 -1.2003  1.0758
  151OSM    C1116731  -0.112   4.843   1.968  0.4018  0.0036 -0.1945
  151OSM   H11A16732  -0.192   4.902   1.918 -0.2537  1.0084  1.9426
  151OSM   H11B16733  -0.100   4.890   2.068 -2.0253 -0.0982  0.1890
  151OSM      P16734  -0.294   4.652   2.016 -0.2896 -0.0063 -0.3705
  151OSM    O1316735  -0.394   4.741   1.954 -0.5884 -0.0073 -0.5049
  151OSM    O1416736  -0.302   4.508   1.988 -0.3012 -0.6661  0.1163
  151OSM    O1116737  -0.305   4.670   2.170  0.0080  0.0907 -0.2531
  151OSM    O1216738  -0.144   4.700   1.984  0.1842  0.0399  0.4702
  151OSM    C1S16739  -0.203   4.619   2.255 -0.0506  0.2729 -0.3912
  151OSM    H1S16740  -0.108   4.674   2.238 -0.9036  1.6634 -0.8257
  151OSM    H1T16741  -0.187   4.511   2.239  2.8919  0.6097 -0.2225
  151OSM     NF16742  -0.127   4.562   2.489  0.0995 -0.8202 -0.2528
  151OSM    HNF16743  -0.146   4.469   2.519 -2.0822  0.4042  2.5817
  151OSM    C2S16744  -0.236   4.624   2.408  0.3174  0.0113 -0.3652
  151OSM    H2S16745  -0.233   4.733   2.430  0.0345 -0.5691  3.0349
  151OSM    C3S16746  -0.379   4.561   2.441 -0.5141  0.4601 -0.7409
  151OSM    H3S16747  -0.377   4.452   2.422 -0.3062  0.4413 -0.6173
  151OSM     O316748  -0.485   4.618   2.368 -0.2264 -0.0446  0.4897
  151OSM    HO316749  -0.442   4.668   2.299  0.0290  0.1192  0.7668
  151OSM    C4S16750  -0.418   4.584   2.582  0.0224  0.7639 -0.3061
  151OSM    H4S16751  -0.434   4.690   2.610  1.4967  1.0077 -0.2993
  151OSM    C5S16752  -0.440   4.484   2.676 -0.2224 -0.2700  0.9876
  151OSM    H5S16753  -0.431   4.380   2.641 -1.1331 -0.0890  0.1733
  151OSM    C6S16754  -0.485   4.500   2.821  0.0762 -0.7277  0.9554
  151OSM    H6S16755  -0.411   4.447   2.886  0.3966  0.8182  1.8917
  151OSM    H6T16756  -0.587   4.456   2.834 -0.4790  0.6771  1.5330
  151OSM    C7S16757  -0.500   4.640   2.871  0.4614 -0.7483  0.4286
  151OSM    H7S16758  -0.576   4.688   2.806  1.5665 -1.4469 -1.4863
  151OSM    H7T16759  -0.399   4.687   2.864  0.9933 -2.0639 -3.0024
  151OSM    C8S16760  -0.536   4.638   3.025  0.6274  0.1785 -0.1725
  151OSM    H8S16761  -0.542   4.743   3.063  2.2295  0.6542 -1.0893
  151OSM    H8T16762  -0.457   4.583   3.080  0.1813 -0.7331 -0.4399
  151OSM    C9S16763  -0.679   4.575   3.064 -0.0064  0.4202  0.4189
  151OSM    H9S16764  -0.688   4.478   3.010 -0.4976  0.3948  0.5418
  151OSM    H9T16765  -0.757   4.643   3.023 -0.9482 -1.3004 -0.7870
  151OSM   C10S16766  -0.694   4.568   3.213  0.8094  0.4999  0.9127
  151OSM   H10S16767  -0.803   4.569   3.234  0.8095 -0.0602  0.9560
  151OSM   H10T16768  -0.654   4.658   3.265 -2.9826  1.7749  1.8800
  151OSM   C11S16769  -0.619   4.446   3.283 -0.1323 -0.2751  0.4755
  151OSM   H11S16770  -0.514   4.464   3.254  0.0583  0.9505  1.8320
  151OSM   H11T16771  -0.650   4.348   3.241 -1.2652  0.1318  0.3101
  151OSM   C12S16772  -0.639   4.439   3.433  0.4416  0.3067 -0.2932
  151OSM   H12S16773  -0.673   4.539   3.469  0.1961  0.1393 -0.0557
  151OSM   H12T16774  -0.542   4.415   3.480  0.4113  1.0842  0.1885
  151OSM   C13S16775  -0.749   4.342   3.480  0.2530 -0.9811  0.0987
  151OSM   H13S16776  -0.731   4.238   3.445 -2.2070 -0.6912 -2.3602
  151OSM   H13T16777  -0.849   4.368   3.439 -0.1508  2.0048  2.6525
  151OSM   C14S16778  -0.754   4.339   3.634 -0.2488 -0.1626 -0.4295
  151OSM   H14S16779  -0.651   4.325   3.675  0.1448  1.6341 -0.7111
  151OSM   H14T16780  -0.801   4.241   3.657 -1.4778  0.7316  1.0211
  151OSM   C15S16781  -0.832   4.455   3.702  0.4070  0.0696 -0.0467
  151OSM   H15S16782  -0.940   4.441   3.680 -0.6672  0.1944  4.1984
  151OSM   H15T16783  -0.806   4.559   3.674  2.8548 -1.1746 -2.8947
  151OSM   C16S16784  -0.828   4.458   3.857  0.0274 -0.0624 -0.7823
  151OSM   H16S16785  -0.895   4.542   3.888  1.9842  0.7476  1.5747
  151OSM   H16T16786  -0.726   4.483   3.892 -0.6143  0.6413  0.6846
  151OSM   C17S16787  -0.879   4.336   3.929 -0.1857  0.3486  0.2808
  151OSM   H17S16788  -0.892   4.347   4.039  2.4120 -1.0704  0.7976
  151OSM   H17T16789  -0.795   4.265   3.923 -0.0944  0.3022  1.6640
  151OSM   C18S16790  -1.008   4.278   3.871  0.2607  0.7211  0.2851
  151OSM   H18S16791  -1.073   4.362   3.838 -1.9098 -0.6675  0.8316
  151OSM   H18T16792  -1.067   4.218   3.943 -2.7620  0.9525 -1.8121
  151OSM   H18U16793  -0.991   4.214   3.783 -0.4548  0.1009  0.5903
  151OSM    C1F16794  -0.004   4.606   2.496 -0.3557 -0.1362 -0.1894
  151OSM     OF16795   0.035   4.712   2.450  0.5534  0.2001  0.3912
  151OSM    C2F16796   0.093   4.513   2.564 -0.0464  0.2649  0.2744
  151OSM    H2F16797   0.176   4.484   2.495  0.6274 -0.7944  1.4707
  151OSM    H2G16798   0.038   4.419   2.588  0.1750  0.5177  1.8293
  151OSM    C3F16799   0.151   4.569   2.703 -0.4626 -0.1293  0.0543
  151OSM    H3F16800   0.063   4.608   2.758  1.0980  1.8074  1.3305
  151OSM    H3G16801   0.212   4.660   2.683 -0.9405  0.0016 -0.8541
  151OSM    C4F16802   0.238   4.469   2.788 -0.8437 -0.2436  0.0062
  151OSM    H4F16803   0.327   4.451   2.723 -0.4942  1.7758 -0.1488
  151OSM    H4G16804   0.191   4.368   2.792  0.4460 -0.9372 -1.1136
  151OSM    C5F16805   0.281   4.522   2.925  0.5614  0.5612 -0.6264
  151OSM    H5F16806   0.335   4.619   2.917 -2.2238  2.3046  0.5181
  151OSM    H5G16807   0.348   4.443   2.966  0.0531 -0.7024 -2.0943
  151OSM    C6F16808   0.155   4.543   3.013  0.1786 -0.5557 -0.6625
  151OSM    H6F16809   0.093   4.625   2.972 -1.2458 -0.7544  0.9668
  151OSM    H6G16810   0.186   4.567   3.116 -0.8445  1.5016 -0.7830
  151OSM    C7F16811   0.065   4.417   3.016 -0.1766  0.0564  0.9466
  151OSM    H7F16812   0.134   4.330   3.010  2.7956  2.3228 -0.2830
  151OSM    H7G16813  -0.000   4.419   2.927 -1.9916  0.4807  2.2264
  151OSM    C8F16814  -0.033   4.416   3.138 -0.3598 -0.0834  0.0543
  151OSM    H8F16815   0.031   4.399   3.227 -1.5977  1.9865  1.4087
  151OSM    H8G16816  -0.103   4.330   3.136 -1.0223  0.3437  2.2805
  151OSM    C9F16817  -0.102   4.552   3.148 -0.0907  0.6490  0.2155
  151OSM    H9F16818  -0.127   4.583   3.046  2.6219  0.3469 -0.6340
  151OSM   C10F16819  -0.128   4.627   3.256  0.6102 -0.4268  0.3424
  151OSM   H10F16820  -0.188   4.716   3.234  0.0594 -1.0917 -0.9098
  151OSM   C11F16821  -0.116   4.578   3.397 -1.1124  0.0516 -0.5779
  151OSM   H11F16822  -0.124   4.661   3.471 -0.0638  0.1131 -0.5251
  151OSM   H11G16823  -0.020   4.526   3.413  0.1873  2.3525 -0.4496
  151OSM   C12F16824  -0.231   4.485   3.432  0.3366  0.2957  0.4840
  151OSM   H12F16825  -0.245   4.407   3.354  1.0542 -0.2220  0.8629
  151OSM   H12G16826  -0.326   4.542   3.433 -1.1128 -1.9879  0.6314
  151OSM   C13F16827  -0.202   4.410   3.564 -0.1328  0.0468 -0.2740
  151OSM   H13F16828  -0.101   4.364   3.565  0.3652  1.1149  1.4666
  151OSM   H13G16829  -0.271   4.326   3.586 -0.6280  0.3700 -0.5795
  151OSM   C14F16830  -0.195   4.512   3.683  0.3111 -0.0101 -0.5503
  151OSM   H14F16831  -0.288   4.572   3.693  0.1375 -0.6735  3.1318
  151OSM   H14G16832  -0.106   4.577   3.676  0.2793  0.0084 -0.7863
  151OSM   C15F16833  -0.175   4.445   3.821 -0.1010 -0.3022 -0.6850
  151OSM   H15F16834  -0.072   4.402   3.827  0.2349  0.1322 -2.4910
  151OSM   H15G16835  -0.249   4.369   3.850  0.4630  0.2981  2.7238
  151OSM   C16F16836  -0.180   4.547   3.936  1.3712  0.8437  0.1198
  151OSM   H16F16837  -0.277   4.600   3.941  0.6298 -0.4665  0.0760
  151OSM   H16G16838  -0.106   4.622   3.902  1.5914  0.7482  0.3864
  151OSM   C17F16839  -0.156   4.491   4.080  0.5933 -0.4462  0.1616
  151OSM   H17F16840  -0.049   4.465   4.064  0.9105  1.5410 -1.2787
  151OSM   H17G16841  -0.223   4.410   4.116 -0.6299  1.1412  1.6339
  151OSM   C18F16842  -0.158   4.602   4.184  0.3866  0.2474 -0.1229
  151OSM   H18F16843  -0.133   4.552   4.280 -0.0273 -1.2670 -0.7763
  151OSM   H18G16844  -0.259   4.647   4.192 -0.0411 -0.5483 -0.8935
  151OSM   H18H16845  -0.087   4.686   4.167  0.2996  0.6841  1.5175
  152OSM      N16846   4.887   4.770   1.685 -0.0961  0.3883  0.0610
  152OSM    C1516847   4.776   4.692   1.627 -0.6776 -0.3408 -0.1157
  152OSM   H15A16848   4.738   4.607   1.682 -2.9252 -0.5254 -1.8172
  152OSM   H15B16849   4.793   4.669   1.523 -1.7821 -0.7255 -0.2193
  152OSM   H15C16850   4.688   4.754   1.617 -0.0732  0.6741  0.5648
  152OSM    C1416851   5.007   4.685   1.693 -0.4121  0.2494  0.6050
  152OSM   H14A16852   5.101   4.730   1.722  0.0937 -2.0122  2.8586
  152OSM   H14B16853   5.018   4.631   1.601  0.8233  0.0366  0.8643
  152OSM   H14C16854   4.996   4.617   1.776 -0.2449 -1.2388 -0.5566
  152OSM    C1316855   4.930   4.877   1.589 -0.9554 -0.2891  0.3623
  152OSM   H13A16856   4.930   4.847   1.486  0.1279  3.0416 -0.7303
  152OSM   H13B16857   5.023   4.921   1.624 -0.5568  1.5131 -2.6488
  152OSM   H13C16858   4.866   4.964   1.596 -0.5832 -0.0873  1.6622
  152OSM    C1216859   4.863   4.820   1.823  0.9394 -0.7518  0.0157
  152OSM   H12A16860   4.951   4.876   1.848 -0.4059  1.2395  0.4724
  152OSM   H12B16861   4.846   4.738   1.892 -3.0033 -0.5013 -0.3806
  152OSM    C1116862   4.744   4.916   1.842  0.0823 -0.0797  0.7020
  152OSM   H11A16863   4.744   4.912   1.953  0.9109  0.5868  0.7370
  152OSM   H11B16864   4.647   4.879   1.804  1.1448 -1.3975 -0.8580
  152OSM      P16865   4.842   5.153   1.859 -0.2730 -0.2062 -0.0250
  152OSM    O1316866   4.978   5.106   1.904  0.6980 -0.1727 -0.1483
  152OSM    O1416867   4.842   5.286   1.791 -0.2530  0.5973  0.4963
  152OSM    O1116868   4.753   5.165   1.992 -0.4884  0.3235  0.2958
  152OSM    O1216869   4.767   5.041   1.781  0.2510  0.5036 -0.8761
  152OSM    C1S16870   4.803   5.136   2.123 -1.1276  0.2822 -0.2743
  152OSM    H1S16871   4.875   5.217   2.146 -0.3348  0.1824 -2.2347
  152OSM    H1T16872   4.860   5.041   2.125 -1.6440 -0.1183 -2.4138
  152OSM     NF16873   4.750   5.139   2.367  0.1395 -0.0343 -0.1453
  152OSM    HNF16874   4.704   5.096   2.444  0.2583  2.7636  1.6352
  152OSM    C2S16875   4.693   5.152   2.233  0.0180  0.1422  0.0946
  152OSM    H2S16876   4.653   5.254   2.222  1.7746  0.6848 -2.0632
  152OSM    C3S16877   4.576   5.052   2.209  0.2629 -0.6884 -0.1811
  152OSM    H3S16878   4.625   4.956   2.183  1.1018  0.1336 -1.8351
  152OSM     O316879   4.498   5.089   2.093  0.5383  0.0260  0.0338
  152OSM    HO316880   4.551   5.149   2.041  0.1254  0.3719  0.0072
  152OSM    C4S16881   4.485   5.039   2.325 -0.4079  0.4162 -0.2007
  152OSM    H4S16882   4.505   4.950   2.387 -0.9942  0.3969 -0.0250
  152OSM    C5S16883   4.401   5.124   2.373 -0.2788  0.2015  0.7972
  152OSM    H5S16884   4.398   5.222   2.324 -1.6128 -0.8003 -1.2160
  152OSM    C6S16885   4.325   5.108   2.501 -0.0919  0.4830 -0.1428
  152OSM    H6S16886   4.313   4.999   2.522  0.4690  0.2128 -1.1508
  152OSM    H6T16887   4.221   5.145   2.487 -0.4548  0.3593  1.8936
  152OSM    C7S16888   4.371   5.186   2.629 -0.1008 -0.7643  0.8463
  152OSM    H7S16889   4.346   5.295   2.630  2.8351  0.0010  0.0258
  152OSM    H7T16890   4.482   5.191   2.636 -0.1177 -0.8138  1.1645
  152OSM    C8S16891   4.314   5.117   2.755  0.1303 -0.1377 -0.0917
  152OSM    H8S16892   4.357   5.015   2.765 -0.5197 -0.5304 -1.2341
  152OSM    H8T16893   4.203   5.118   2.755  0.1090  1.2772  0.9474
  152OSM    C9S16894   4.367   5.195   2.879 -0.1988  0.4702  0.1107
  152OSM    H9S16895   4.352   5.303   2.854  1.3377  0.7215  0.2031
  152OSM    H9T16896   4.477   5.188   2.886 -0.2680 -1.2615 -0.1817
  152OSM   C10S16897   4.304   5.152   3.007 -0.1142  0.1028 -0.6907
  152OSM   H10S16898   4.316   5.043   3.022  0.6525  0.3346  0.4515
  152OSM   H10T16899   4.196   5.177   3.016 -0.7251 -2.5709  0.2937
  152OSM   C11S16900   4.386   5.211   3.122  0.0687 -0.2295  0.4119
  152OSM   H11S16901   4.380   5.321   3.112  2.3137  0.1060  1.9310
  152OSM   H11T16902   4.493   5.191   3.103 -0.1370  1.2641 -3.0561
  152OSM   C12S16903   4.342   5.160   3.262 -0.2999 -0.8637  0.0534
  152OSM   H12S16904   4.329   5.050   3.269  1.3053 -1.1982 -1.5629
  152OSM   H12T16905   4.243   5.204   3.287 -0.7652 -1.8915  0.0665
  152OSM   C13S16906   4.442   5.205   3.367 -0.8533  0.8692 -0.0986
  152OSM   H13S16907   4.431   5.313   3.393  0.4561  0.8671  0.5291
  152OSM   H13T16908   4.540   5.188   3.319 -0.6436  1.3340  0.1588
  152OSM   C14S16909   4.436   5.119   3.489 -0.6159 -0.7084  0.8823
  152OSM   H14S16910   4.418   5.012   3.467 -2.0388 -0.2832 -0.1865
  152OSM   H14T16911   4.355   5.156   3.555  1.0977  2.1295  1.5961
  152OSM   C15S16912   4.563   5.126   3.576  0.2904 -0.2424  0.2161
  152OSM   H15S16913   4.595   5.232   3.578  0.2463 -0.1458 -2.1426
  152OSM   H15T16914   4.646   5.075   3.521  0.9683  1.3417 -0.2793
  152OSM   C16S16915   4.546   5.072   3.726  0.1338 -0.6910  0.0357
  152OSM   H16S16916   4.549   4.962   3.717 -1.2444 -0.9057  1.7102
  152OSM   H16T16917   4.443   5.091   3.761 -0.7785 -0.8610 -2.3703
  152OSM   C17S16918   4.641   5.117   3.832  0.1688 -0.1071  0.0290
  152OSM   H17S16919   4.744   5.135   3.794  0.6191 -0.0001  1.2621
  152OSM   H17T16920   4.658   5.034   3.904  1.2048  1.1166  1.2399
  152OSM   C18S16921   4.601   5.232   3.920 -0.0322  0.0619 -0.6105
  152OSM   H18S16922   4.675   5.246   4.001  0.8718 -0.7344 -1.2797
  152OSM   H18T16923   4.503   5.216   3.971 -0.8178  1.7690 -1.5014
  152OSM   H18U16924   4.600   5.331   3.871  2.8346 -0.2325 -1.4476
  152OSM    C1F16925   4.837   5.226   2.409 -0.0348 -0.6734  0.4962
  152OSM     OF16926   4.852   5.331   2.353 -0.4067 -1.0232  0.5784
  152OSM    C2F16927   4.920   5.199   2.536 -0.1617  0.2530  0.4550
  152OSM    H2F16928   5.029   5.208   2.518 -0.3362  0.8830 -0.3272
  152OSM    H2G16929   4.893   5.094   2.560  0.6208 -0.2488 -0.7627
  152OSM    C3F16930   4.878   5.293   2.648 -0.0125 -0.1332  0.5266
  152OSM    H3F16931   4.770   5.273   2.662 -0.3378 -0.9578 -2.5232
  152OSM    H3G16932   4.898   5.398   2.616  0.2706 -0.3650 -0.0600
  152OSM    C4F16933   4.954   5.267   2.779 -0.0465  1.0493  0.3635
  152OSM    H4F16934   5.058   5.303   2.765 -0.2835  1.8566  0.6388
  152OSM    H4G16935   4.953   5.156   2.783 -1.1702  1.0843  1.8402
  152OSM    C5F16936   4.875   5.334   2.892 -0.5903 -0.5632 -0.2194
  152OSM    H5F16937   4.772   5.292   2.901 -1.1363  0.5806 -0.8750
  152OSM    H5G16938   4.869   5.443   2.873 -0.7342 -1.0511 -3.5364
  152OSM    C6F16939   4.948   5.296   3.024 -0.5442  0.1287  0.4887
  152OSM    H6F16940   5.057   5.312   3.012 -0.4622 -0.8696 -0.1874
  152OSM    H6G16941   4.932   5.189   3.047 -2.3325 -0.0802 -1.3696
  152OSM    C7F16942   4.906   5.380   3.144 -0.2832 -0.0854  0.2988
  152OSM    H7F16943   4.801   5.359   3.172 -0.1931 -2.1766 -0.7448
  152OSM    H7G16944   4.912   5.489   3.123  0.2787  0.0468  1.1100
  152OSM    C8F16945   4.987   5.350   3.271 -0.3354 -0.8568  0.3215
  152OSM    H8F16946   4.993   5.242   3.296 -1.1874 -1.5790 -2.3054
  152OSM    H8G16947   4.939   5.399   3.358  0.4894 -1.1984  0.9879
  152OSM    C9F16948   5.128   5.417   3.262  0.3996  0.4552 -0.4683
  152OSM    H9F16949   5.159   5.441   3.160 -2.0092 -0.5945 -1.5394
  152OSM   C10F16950   5.210   5.431   3.369  0.8537  0.0106 -0.2885
  152OSM   H10F16951   5.302   5.491   3.364  0.0301  1.3930  0.6924
  152OSM   C11F16952   5.178   5.392   3.513  0.2708 -0.1674 -0.1846
  152OSM   H11F16953   5.082   5.337   3.516 -1.0068  1.9939  0.5566
  152OSM   H11G16954   5.162   5.484   3.573 -0.5565  0.1418 -0.8504
  152OSM   C12F16955   5.284   5.311   3.586  0.2961 -0.7021  0.3222
  152OSM   H12F16956   5.245   5.291   3.688  1.6537 -2.6160  0.5233
  152OSM   H12G16957   5.382   5.362   3.598  0.3922 -1.0968  1.2997
  152OSM   C13F16958   5.285   5.158   3.544 -0.2810 -0.3309  0.0566
  152OSM   H13F16959   5.288   5.132   3.436  2.0059  1.5046 -0.4006
  152OSM   H13G16960   5.188   5.118   3.579  0.9895 -2.2603  1.5995
  152OSM   C14F16961   5.392   5.071   3.622 -0.2475 -0.0115 -0.2842
  152OSM   H14F16962   5.488   5.121   3.597 -1.1946  1.2811 -1.4480
  152OSM   H14G16963   5.375   4.964   3.597 -0.7739  0.1891 -0.7996
  152OSM   C15F16964   5.395   5.088   3.774  0.1244 -0.4883  0.4940
  152OSM   H15F16965   5.408   5.195   3.799 -1.9418 -0.1392  0.2804
  152OSM   H15G16966   5.474   5.023   3.816  0.2789 -0.1337  0.7515
  152OSM   C16F16967   5.262   5.049   3.834  0.9028 -0.4339 -0.0350
  152OSM   H16F16968   5.175   5.107   3.796  1.6559  1.3471  0.8905
  152OSM   H16G16969   5.265   5.068   3.944 -0.5763  3.4633 -0.5038
  152OSM   C17F16970   5.209   4.900   3.823 -0.4089 -0.6665 -0.2615
  152OSM   H17F16971   5.219   4.868   3.717  0.3892 -1.6092  0.0913
  152OSM   H17G16972   5.100   4.888   3.841 -0.3955 -0.1571  0.2144
  152OSM   C18F16973   5.268   4.803   3.926 -0.7356  0.0140  0.1948
  152OSM   H18F16974   5.252   4.836   4.031  1.0755 -0.2321  0.5776
  152OSM   H18G16975   5.378   4.814   3.918 -0.8242  0.4015 -0.5337
  152OSM   H18H16976   5.238   4.698   3.904 -1.1563  0.4504 -1.4434
  153OSM      N16977   3.215   5.055   1.529  0.4247  0.2968 -0.1579
  153OSM    C1516978   3.217   5.051   1.374 -0.0892  0.4727  0.4004
  153OSM   H15A16979   3.118   5.050   1.332 -0.5984 -1.1972  1.5685
  153OSM   H15B16980   3.281   4.970   1.340 -1.5688  0.6896 -3.4447
  153OSM   H15C16981   3.259   5.147   1.345 -1.0867  0.8440  0.1594
  153OSM    C1416982   3.130   5.175   1.573 -0.8430 -0.8347 -0.0192
  153OSM   H14A16983   3.186   5.266   1.557  1.1263 -1.6167  1.9246
  153OSM   H14B16984   3.112   5.161   1.679 -3.7671  1.2209 -0.1073
  153OSM   H14C16985   3.033   5.170   1.525 -1.8638  0.7964  1.7380
  153OSM    C1316986   3.146   4.933   1.576 -0.2781 -0.5851 -0.4573
  153OSM   H13A16987   3.044   4.922   1.541 -1.3690 -0.2453  2.3303
  153OSM   H13B16988   3.150   4.919   1.683 -2.2749 -0.9081 -0.3817
  153OSM   H13C16989   3.195   4.847   1.531 -0.1123 -0.3844 -0.6622
  153OSM    C1216990   3.364   5.073   1.575  0.8098  0.0093  0.2420
  153OSM   H12A16991   3.406   5.159   1.525  1.1047  0.4712  1.2516
  153OSM   H12B16992   3.413   4.990   1.526  0.1708  1.4322 -3.0453
  153OSM    C1116993   3.396   5.100   1.724  0.6906 -0.3167  0.4201
  153OSM   H11A16994   3.505   5.086   1.738  1.1868  0.0624 -2.4126
  153OSM   H11B16995   3.337   5.026   1.783 -0.1897 -1.2841 -1.5794
  153OSM      P16996   3.450   5.361   1.745 -0.1063 -0.3314 -0.0070
  153OSM    O1316997   3.588   5.322   1.774  0.4060 -0.4724  1.1180
  153OSM    O1416998   3.414   5.437   1.627  0.0581 -0.4451  0.2035
  153OSM    O1116999   3.401   5.454   1.861  0.1146  0.0585  0.3006
  153OSM    O1217000   3.361   5.237   1.757  0.4432 -0.6249 -0.0109
  153OSM    C1S17001   3.399   5.429   1.995  0.1342  0.6098 -0.3911
  153OSM    H1S17002   3.482   5.360   2.022 -0.6722  0.0319  0.6403
  153OSM    H1T17003   3.304   5.383   2.027  0.5059 -1.0762 -1.5878
  153OSM     NF17004   3.410   5.528   2.221  0.1046  0.5051 -0.2650
  153OSM    HNF17005   3.332   5.564   2.272 -0.5485 -0.0485 -0.8475
  153OSM    C2S17006   3.410   5.565   2.075  0.2469  0.3487 -0.8953
  153OSM    H2S17007   3.506   5.618   2.059  0.7674 -0.2410  0.1802
  153OSM    C3S17008   3.303   5.673   2.043  0.0770  1.2044  0.3105
  153OSM    H3S17009   3.202   5.630   2.061 -1.0085  3.1533 -0.7720
  153OSM     O317010   3.286   5.702   1.908  0.0091  0.3475  0.5018
  153OSM    HO317011   3.353   5.647   1.867 -0.6608 -1.1913  1.4084
  153OSM    C4S17012   3.316   5.798   2.131  0.0773  0.4741 -0.2412
  153OSM    H4S17013   3.268   5.787   2.229 -0.5166  1.2878 -0.4321
  153OSM    C5S17014   3.378   5.917   2.109  0.0652 -0.6212  0.0132
  153OSM    H5S17015   3.435   5.932   2.016 -1.8539  1.7916 -0.8874
  153OSM    C6S17016   3.378   6.021   2.224  0.2904  0.2162 -0.2530
  153OSM    H6S17017   3.294   5.995   2.291  2.9507 -0.8846  2.9341
  153OSM    H6T17018   3.368   6.123   2.180 -0.3162 -0.6363 -2.2331
  153OSM    C7S17019   3.506   6.033   2.315  0.2216 -0.4799  0.4521
  153OSM    H7S17020   3.486   6.132   2.360 -0.9689 -0.2091 -0.6076
  153OSM    H7T17021   3.600   6.030   2.256  0.7285  0.5509  1.2044
  153OSM    C8S17022   3.522   5.928   2.428 -1.0936  0.2560  0.3642
  153OSM    H8S17023   3.569   5.834   2.393 -0.8051  0.0210  1.3574
  153OSM    H8T17024   3.416   5.904   2.451 -0.6495 -0.2641  1.9811
  153OSM    C9S17025   3.596   5.982   2.555  0.4102  0.7990  0.4359
  153OSM    H9S17026   3.556   6.085   2.551 -0.0873  0.5723 -2.6987
  153OSM    H9T17027   3.705   5.984   2.537  0.4466 -0.9496  0.2459
  153OSM   C10S17028   3.569   5.910   2.687 -0.4082  0.1108 -0.0548
  153OSM   H10S17029   3.601   5.804   2.684  1.2598  0.6200 -1.6081
  153OSM   H10T17030   3.458   5.916   2.697 -0.3657  0.8554  0.0139
  153OSM   C11S17031   3.631   5.979   2.807  0.4544  1.1627  0.0362
  153OSM   H11S17032   3.734   5.985   2.766  0.1440 -1.6325 -1.3899
  153OSM   H11T17033   3.621   5.911   2.894  0.1090  1.2831  0.0913
  153OSM   C12S17034   3.567   6.114   2.831  0.1117  0.0325  0.2744
  153OSM   H12S17035   3.458   6.093   2.834  0.5015 -2.3946 -0.4822
  153OSM   H12T17036   3.584   6.195   2.756  1.3120  1.0587  1.5927
  153OSM   C13S17037   3.612   6.177   2.966  0.4878  0.0216 -0.2122
  153OSM   H13S17038   3.558   6.273   2.980 -2.3901 -1.4795 -0.2523
  153OSM   H13T17039   3.721   6.200   2.966  0.1832  1.7193 -1.9782
  153OSM   C14S17040   3.587   6.085   3.089 -0.4026  0.0772 -0.2644
  153OSM   H14S17041   3.665   6.008   3.102  2.5418  3.0777  1.4570
  153OSM   H14T17042   3.488   6.034   3.085 -0.0219 -0.7052  0.2253
  153OSM   C15S17043   3.594   6.163   3.223  0.1417 -0.0297  0.0240
  153OSM   H15S17044   3.528   6.251   3.207 -1.6706 -1.6459 -2.1734
  153OSM   H15T17045   3.697   6.198   3.242 -0.2523  0.6457  1.0234
  153OSM   C16S17046   3.535   6.072   3.334  0.0302 -0.5472  0.6753
  153OSM   H16S17047   3.589   5.975   3.330 -0.4558 -0.7888 -0.1388
  153OSM   H16T17048   3.429   6.058   3.304  0.6249 -0.6458 -1.4763
  153OSM   C17S17049   3.554   6.128   3.473 -0.1168 -0.5679 -0.0322
  153OSM   H17S17050   3.491   6.220   3.469  0.6573 -0.0316 -0.0860
  153OSM   H17T17051   3.663   6.145   3.486  0.1848 -1.4580 -1.2165
  153OSM   C18S17052   3.508   6.039   3.593 -0.3408 -0.1081  0.8499
  153OSM   H18S17053   3.577   5.953   3.613  0.6562  1.0020  2.4546
  153OSM   H18T17054   3.403   6.006   3.583 -0.2774 -0.9392  2.4969
  153OSM   H18U17055   3.500   6.114   3.674  1.6945  1.6847 -0.5118
  153OSM    C1F17056   3.481   5.432   2.278 -0.1178  0.4500  0.1950
  153OSM     OF17057   3.595   5.399   2.243  0.3786  0.7824  0.1224
  153OSM    C2F17058   3.411   5.386   2.406 -0.2483  0.5140  0.6787
  153OSM    H2F17059   3.372   5.284   2.384 -0.5726  0.8344 -0.2849
  153OSM    H2G17060   3.325   5.456   2.421 -1.0044 -0.3338  0.4135
  153OSM    C3F17061   3.509   5.370   2.523 -0.0352  0.4266 -0.2842
  153OSM    H3F17062   3.611   5.402   2.493 -0.1745 -1.9104 -3.8573
  153OSM    H3G17063   3.525   5.263   2.550 -1.6701  0.7582  2.3327
  153OSM    C4F17064   3.470   5.455   2.638  0.7117 -0.4622 -0.4777
  153OSM    H4F17065   3.370   5.423   2.674  2.3275 -2.6059  2.5982
  153OSM    H4G17066   3.464   5.562   2.609 -0.1506  0.2893  2.1385
  153OSM    C5F17067   3.566   5.442   2.755  0.1704  0.7335 -0.1830
  153OSM    H5F17068   3.666   5.485   2.733 -0.3041  1.5275 -0.8671
  153OSM    H5G17069   3.580   5.338   2.792  0.9527  0.8464 -0.1433
  153OSM    C6F17070   3.518   5.532   2.871  0.0893  0.0359  0.0212
  153OSM    H6F17071   3.446   5.468   2.926 -0.0273  0.1410 -0.0090
  153OSM    H6G17072   3.481   5.630   2.832  1.1496  1.1039  1.5990
  153OSM    C7F17073   3.634   5.569   2.965 -0.2339  0.4405  0.3718
  153OSM    H7F17074   3.705   5.638   2.914  1.8022 -0.8091  1.3949
  153OSM    H7G17075   3.687   5.477   2.996 -0.0088  0.7556  0.9216
  153OSM    C8F17076   3.588   5.648   3.093  0.5341  0.0650 -1.0192
  153OSM    H8F17077   3.547   5.736   3.039  0.4097  0.5037 -0.2313
  153OSM    H8G17078   3.672   5.685   3.156  0.2241 -0.9073  0.0030
  153OSM    C9F17079   3.494   5.553   3.165  0.1154  0.1851 -0.0485
  153OSM    H9F17080   3.394   5.544   3.120  0.4379  1.1103 -0.9799
  153OSM   C10F17081   3.524   5.484   3.276  0.6642 -0.6696 -0.7132
  153OSM   H10F17082   3.451   5.424   3.332  1.4253 -2.6485 -1.7255
  153OSM   C11F17083   3.660   5.487   3.350  0.4386  0.2744 -0.2059
  153OSM   H11F17084   3.707   5.588   3.356  1.4375 -0.1942  0.1408
  153OSM   H11G17085   3.736   5.422   3.302  2.2253  0.2197  2.4899
  153OSM   C12F17086   3.632   5.444   3.492  0.3645 -0.8869  0.3969
  153OSM   H12F17087   3.580   5.347   3.508 -1.4448 -0.6015 -2.8996
  153OSM   H12G17088   3.559   5.514   3.536  0.8922 -1.9044  3.0683
  153OSM   C13F17089   3.747   5.448   3.595  0.0142  0.6497 -0.1345
  153OSM   H13F17090   3.827   5.495   3.534  0.6531 -0.3341 -0.0565
  153OSM   H13G17091   3.792   5.350   3.621  1.5355  0.6009 -2.5975
  153OSM   C14F17092   3.728   5.542   3.716 -0.7996  0.3397 -1.0465
  153OSM   H14F17093   3.807   5.522   3.791 -1.9511 -0.0978  0.0962
  153OSM   H14G17094   3.636   5.504   3.765 -0.2909 -0.1396 -0.4500
  153OSM   C15F17095   3.709   5.689   3.686  0.1051 -0.2077  0.1783
  153OSM   H15F17096   3.635   5.699   3.604  1.1618 -1.8460 -1.0446
  153OSM   H15G17097   3.803   5.732   3.646 -0.6657  2.1538  0.7514
  153OSM   C16F17098   3.669   5.774   3.809 -0.3837 -0.9087  0.4998
  153OSM   H16F17099   3.690   5.882   3.796 -2.6375 -0.5184 -0.5022
  153OSM   H16G17100   3.730   5.736   3.894  0.3200  1.0581  0.9170
  153OSM   C17F17101   3.517   5.767   3.828 -0.2302 -0.0501 -0.2006
  153OSM   H17F17102   3.478   5.669   3.865  1.1347  0.2966  2.3988
  153OSM   H17G17103   3.466   5.795   3.733  1.6407 -0.2002 -1.2926
  153OSM   C18F17104   3.456   5.862   3.936  0.3554  0.0239 -0.0489
  153OSM   H18F17105   3.346   5.854   3.945  0.3511  0.1931  0.0711
  153OSM   H18G17106   3.470   5.971   3.922 -1.0344  0.6324  2.6032
  153OSM   H18H17107   3.507   5.846   4.034  2.2387 -0.0211 -0.9962
  154OSM      N17108   0.807   3.745   1.590 -0.6709 -0.2520 -0.5884
  154OSM    C1517109   0.815   3.597   1.561  0.1293 -0.1529  0.1006
  154OSM   H15A17110   0.917   3.562   1.567 -0.0112 -0.3675  2.4033
  154OSM   H15B17111   0.761   3.568   1.472 -1.1574 -1.3472  1.2003
  154OSM   H15C17112   0.766   3.540   1.639 -1.6377  1.1988  0.0241
  154OSM    C1417113   0.903   3.778   1.698 -0.5968 -0.2633 -0.1748
  154OSM   H14A17114   1.003   3.740   1.680 -0.5117 -0.0611 -0.1369
  154OSM   H14B17115   0.869   3.740   1.793  0.8738 -2.8951 -0.6107
  154OSM   H14C17116   0.915   3.884   1.719 -0.3189  0.0269 -1.6509
  154OSM    C1317117   0.839   3.837   1.471 -0.1038  0.5878  0.2698
  154OSM   H13A17118   0.808   3.936   1.500  0.7152  1.1780 -0.8236
  154OSM   H13B17119   0.779   3.813   1.385  0.4512  0.9873 -0.2304
  154OSM   H13C17120   0.945   3.829   1.451 -0.7000 -1.8548 -2.6600
  154OSM    C1217121   0.671   3.781   1.648 -0.2474 -0.1438 -0.9922
  154OSM   H12A17122   0.598   3.746   1.577 -2.0738  1.3977  0.0429
  154OSM   H12B17123   0.646   3.886   1.649 -1.3394 -0.3874  0.3595
  154OSM    C1117124   0.637   3.735   1.792 -0.4971 -0.2204 -0.4781
  154OSM   H11A17125   0.659   3.627   1.806 -0.7490 -0.2500 -0.2963
  154OSM   H11B17126   0.528   3.735   1.814 -0.9651 -1.3258 -2.5083
  154OSM      P17127   0.655   3.926   1.977 -0.3815  0.2422 -0.1376
  154OSM    O1317128   0.774   3.991   2.041 -0.2587 -0.0422  0.0530
  154OSM    O1417129   0.567   4.008   1.888  0.4124  0.3009  0.0689
  154OSM    O1117130   0.562   3.853   2.077  0.0878 -0.0983 -0.2828
  154OSM    O1217131   0.715   3.808   1.883  0.7850 -0.0353  0.0201
  154OSM    C1S17132   0.605   3.753   2.163 -0.3366  0.1796 -0.1380
  154OSM    H1S17133   0.715   3.734   2.161 -0.7137 -2.2796 -0.7764
  154OSM    H1T17134   0.550   3.659   2.145  1.1230 -0.6622 -0.3345
  154OSM     NF17135   0.648   3.684   2.404  0.0746 -0.8964 -0.5897
  154OSM    HNF17136   0.589   3.611   2.437  2.1082 -1.5181  1.9992
  154OSM    C2S17137   0.580   3.784   2.319 -0.1544  0.4577 -0.4639
  154OSM    H2S17138   0.625   3.885   2.332 -1.2942  1.1561 -1.6548
  154OSM    C3S17139   0.423   3.786   2.343  0.2809  0.0514 -0.4190
  154OSM    H3S17140   0.378   3.690   2.313  0.8069  0.3426 -2.2313
  154OSM     O317141   0.355   3.882   2.258  0.4419  0.5070  0.5452
  154OSM    HO317142   0.410   3.872   2.179 -0.6209  0.2909 -0.1938
  154OSM    C4S17143   0.394   3.820   2.485 -0.0637  0.5175 -0.0106
  154OSM    H4S17144   0.445   3.913   2.515 -0.5431  0.6984  0.2459
  154OSM    C5S17145   0.330   3.737   2.575 -0.3542 -1.0441  0.6503
  154OSM    H5S17146   0.328   3.632   2.542  3.0200 -0.3079 -2.5729
  154OSM    C6S17147   0.311   3.766   2.716 -0.9145  0.1486 -0.4304
  154OSM    H6S17148   0.405   3.786   2.771 -1.6478 -0.2485  1.0132
  154OSM    H6T17149   0.269   3.668   2.745 -1.2189  0.1428 -0.8858
  154OSM    C7S17150   0.214   3.884   2.743 -0.0769  0.0454 -0.4548
  154OSM    H7S17151   0.137   3.878   2.664 -1.0149 -1.1304  0.5072
  154OSM    H7T17152   0.272   3.979   2.747 -1.1302  0.6752  1.1425
  154OSM    C8S17153   0.145   3.856   2.878  0.5144  0.7871 -0.3053
  154OSM    H8S17154   0.137   3.748   2.901 -1.3828  1.1479  0.9243
  154OSM    H8T17155   0.039   3.883   2.861  0.4685  0.3133 -0.7663
  154OSM    C9S17156   0.197   3.929   3.003 -0.8114  0.2429 -0.2339
  154OSM    H9S17157   0.170   4.037   2.998 -1.8325 -0.0222 -0.8763
  154OSM    H9T17158   0.308   3.923   3.004 -0.6159  1.5349 -3.4787
  154OSM   C10S17159   0.144   3.866   3.138  0.3349  0.2000 -0.2952
  154OSM   H10S17160   0.166   3.758   3.131  2.4675  0.6965 -3.4877
  154OSM   H10T17161   0.034   3.874   3.134  0.2972 -0.8083 -2.2024
  154OSM   C11S17162   0.219   3.927   3.252 -0.0854 -0.1061  0.2844
  154OSM   H11S17163   0.199   4.035   3.271 -1.1047 -0.2458  0.0720
  154OSM   H11T17164   0.325   3.911   3.225  0.3760  1.9179  0.7107
  154OSM   C12S17165   0.199   3.862   3.388 -0.0018  0.0811  0.1076
  154OSM   H12S17166   0.221   3.753   3.381  0.4082  0.2651 -2.5208
  154OSM   H12T17167   0.089   3.859   3.400 -0.0933  0.1462 -0.6653
  154OSM   C13S17168   0.281   3.913   3.503  0.1057  0.5193 -0.2771
  154OSM   H13S17169   0.276   4.022   3.525  1.5041  0.3643  0.9221
  154OSM   H13T17170   0.390   3.900   3.489  0.0416  0.3294 -0.6169
  154OSM   C14S17171   0.244   3.849   3.641 -0.1506 -0.8175  0.2866
  154OSM   H14S17172   0.141   3.872   3.675 -0.3324 -1.4672  0.1817
  154OSM   H14T17173   0.301   3.913   3.712 -0.1158 -0.8420  0.2810
  154OSM   C15S17174   0.288   3.706   3.657 -0.2347  0.0122  0.2934
  154OSM   H15S17175   0.382   3.686   3.601 -0.9978 -1.5609 -0.4995
  154OSM   H15T17176   0.207   3.642   3.616  0.4473  0.2354 -1.5092
  154OSM   C16S17177   0.307   3.657   3.802  0.7171  0.2489  0.5694
  154OSM   H16S17178   0.207   3.666   3.850  0.7315  2.4229  0.2963
  154OSM   H16T17179   0.382   3.728   3.845  1.2570 -0.7602  1.3308
  154OSM   C17S17180   0.361   3.510   3.818 -0.2233 -0.4993 -0.3306
  154OSM   H17S17181   0.398   3.500   3.714 -1.6199  2.8716 -1.2602
  154OSM   H17T17182   0.280   3.439   3.845  0.4073 -1.4357 -0.8384
  154OSM   C18S17183   0.476   3.500   3.926 -0.0662 -0.0049  0.7298
  154OSM   H18S17184   0.434   3.517   4.027  1.2689 -1.7712  1.6127
  154OSM   H18T17185   0.561   3.570   3.910 -0.6527  0.5965  0.1497
  154OSM   H18U17186   0.516   3.397   3.924  1.5703  0.5415  2.6900
  154OSM    C1F17187   0.777   3.670   2.418 -0.6519  0.2185  0.0026
  154OSM     OF17188   0.856   3.753   2.365  0.1876  0.4035 -0.3399
  154OSM    C2F17189   0.827   3.556   2.510  0.0069  0.1354 -0.2301
  154OSM    H2F17190   0.917   3.596   2.562  0.0932  0.2672 -0.4794
  154OSM    H2G17191   0.859   3.472   2.445 -2.3105 -0.6081 -0.4843
  154OSM    C3F17192   0.729   3.510   2.616  0.9346 -0.7030 -0.2405
  154OSM    H3F17193   0.769   3.417   2.662 -0.6909 -2.7608 -2.7705
  154OSM    H3G17194   0.627   3.481   2.583  0.6108 -1.7025  1.5043
  154OSM    C4F17195   0.709   3.613   2.728  0.4842 -0.2372  0.0196
  154OSM    H4F17196   0.662   3.702   2.682 -2.6482 -1.2970  0.9074
  154OSM    H4G17197   0.814   3.633   2.756  1.1995 -0.6989 -2.1300
  154OSM    C5F17198   0.626   3.569   2.849  0.0340  0.4919  1.0794
  154OSM    H5F17199   0.691   3.488   2.890  1.2210  1.4684  1.1788
  154OSM    H5G17200   0.530   3.521   2.819  0.9047  0.1965 -1.4785
  154OSM    C6F17201   0.601   3.681   2.952  0.0102 -0.2949  0.7974
  154OSM    H6F17202   0.560   3.766   2.895 -0.1908 -0.6468  0.4162
  154OSM    H6G17203   0.700   3.715   2.989  0.8808 -0.2145 -1.4843
  154OSM    C7F17204   0.527   3.636   3.077  0.8381 -0.6557 -0.4244
  154OSM    H7F17205   0.555   3.529   3.091  0.7989 -0.8519 -1.6906
  154OSM    H7G17206   0.419   3.635   3.053  0.0454  1.4969  2.4978
  154OSM    C8F17207   0.556   3.729   3.199  0.2033  0.3242  0.0884
  154OSM    H8F17208   0.479   3.716   3.279  0.8177 -0.0113  0.6353
  154OSM    H8G17209   0.533   3.825   3.149 -0.3602 -0.1733 -0.6321
  154OSM    C9F17210   0.698   3.715   3.260 -0.4846 -0.6764 -0.2375
  154OSM    H9F17211   0.775   3.753   3.190  0.3583 -1.2125  0.3836
  154OSM   C10F17212   0.727   3.689   3.388  0.0288 -0.0970  0.6223
  154OSM   H10F17213   0.833   3.670   3.412  0.2043 -1.8042 -1.2841
  154OSM   C11F17214   0.628   3.653   3.494 -0.2927  0.6066 -0.5876
  154OSM   H11F17215   0.532   3.612   3.456 -0.5394 -1.0508  1.5873
  154OSM   H11G17216   0.612   3.741   3.559 -0.2584 -0.2040  0.5531
  154OSM   C12F17217   0.693   3.545   3.596 -0.1708 -0.0792  0.2274
  154OSM   H12F17218   0.734   3.466   3.529 -0.3150  1.0692 -1.2701
  154OSM   H12G17219   0.613   3.508   3.664  0.9228 -1.5463  0.7726
  154OSM   C13F17220   0.808   3.595   3.680  0.3640 -0.6857 -0.3996
  154OSM   H13F17221   0.771   3.638   3.776  2.3417 -0.7171  0.4458
  154OSM   H13G17222   0.873   3.668   3.628  3.4441 -1.8617  1.4451
  154OSM   C14F17223   0.907   3.480   3.713 -0.7389  0.1462 -0.3004
  154OSM   H14F17224   0.970   3.463   3.624 -0.3747 -0.1441  0.0107
  154OSM   H14G17225   0.863   3.381   3.735  2.9824 -1.2719  1.6336
  154OSM   C15F17226   1.011   3.512   3.827  0.4315 -0.4901 -0.3379
  154OSM   H15F17227   1.060   3.609   3.803 -0.9076  0.2433 -0.2135
  154OSM   H15G17228   1.089   3.433   3.833 -1.4553 -2.3722  0.8733
  154OSM   C16F17229   0.951   3.516   3.968  0.1780 -0.0025 -0.0508
  154OSM   H16F17230   0.882   3.431   3.988 -0.8458  0.7355 -0.3918
  154OSM   H16G17231   0.900   3.613   3.981  0.4551  0.1309  0.0407
  154OSM   C17F17232   1.065   3.500   4.084  0.2513  0.1663  0.0725
  154OSM   H17F17233   1.130   3.586   4.058 -0.1704  1.2028  2.2071
  154OSM   H17G17234   1.112   3.404   4.055  0.8183  0.2055  0.8436
  154OSM   C18F17235   1.020   3.498   4.223  0.2785  0.2630  0.2330
  154OSM   H18F17236   0.967   3.589   4.256  0.0043  0.1133  0.2069
  154OSM   H18G17237   1.112   3.488   4.285  1.7390 -0.2228 -1.9168
  154OSM   H18H17238   0.952   3.411   4.240 -0.5949  0.8107 -0.3778
  155OSM      N17239   3.888   0.690   2.004  0.4790 -0.3671  0.6021
  155OSM    C1517240   3.911   0.814   1.927 -0.0372  0.5210  0.2626
  155OSM   H15A17241   3.982   0.870   1.987 -1.1085  0.7719  1.3255
  155OSM   H15B17242   3.826   0.881   1.926 -1.1109 -0.7172  2.2852
  155OSM   H15C17243   3.966   0.793   1.837  0.3467 -0.6272  0.7440
  155OSM    C1417244   4.023   0.623   2.019  0.0391  0.4066  0.1233
  155OSM   H14A17245   4.064   0.579   1.929 -1.5153 -3.8397  1.2493
  155OSM   H14B17246   4.012   0.547   2.094 -0.1573  1.4368  1.1688
  155OSM   H14C17247   4.090   0.694   2.065 -0.1479  1.0149 -0.5261
  155OSM    C1317248   3.831   0.717   2.140 -0.4243  0.8326  0.3140
  155OSM   H13A17249   3.834   0.622   2.192  0.0489  0.5112 -0.2973
  155OSM   H13B17250   3.729   0.752   2.129 -0.0614  1.4927 -1.0920
  155OSM   H13C17251   3.892   0.787   2.196  0.8036  0.2934 -0.3262
  155OSM    C1217252   3.784   0.602   1.936  0.0290 -0.8082  0.5599
  155OSM   H12A17253   3.829   0.569   1.843 -1.0309 -0.7233  0.0100
  155OSM   H12B17254   3.701   0.668   1.916  0.2047 -0.8152 -0.2368
  155OSM    C1117255   3.736   0.478   2.015 -0.3713 -0.1255 -0.1447
  155OSM   H11A17256   3.659   0.432   1.950 -0.3218  2.0354 -1.8340
  155OSM   H11B17257   3.679   0.504   2.107  0.1101  1.8166 -0.3549
  155OSM      P17258   3.877   0.268   1.949  0.5517 -0.1178 -0.1421
  155OSM    O1317259   3.860   0.313   1.810  0.3178  0.8578 -0.5960
  155OSM    O1417260   3.997   0.193   1.987 -0.4664 -0.4527 -0.4071
  155OSM    O1117261   3.748   0.182   1.979 -0.1367 -0.0513  0.1327
  155OSM    O1217262   3.847   0.393   2.049 -0.7473 -1.0211  0.1083
  155OSM    C1S17263   3.754   0.088   2.086 -0.5623  0.1504  0.6165
  155OSM    H1S17264   3.850   0.034   2.097  0.1548  1.1195 -0.7114
  155OSM    H1T17265   3.695  -0.004   2.065 -1.4258  0.6718  0.6927
  155OSM     NF17266   3.751   0.071   2.327  0.1413  0.1217  0.0217
  155OSM    HNF17267   3.688   0.007   2.371 -3.5192  3.3476 -0.0720
  155OSM    C2S17268   3.695   0.145   2.218  0.5226  0.3820 -0.6839
  155OSM    H2S17269   3.744   0.243   2.236 -1.2960  0.9424  1.6451
  155OSM    C3S17270   3.536   0.157   2.199  0.0045 -0.0702  0.0123
  155OSM    H3S17271   3.497   0.054   2.186 -0.1357 -0.1032  0.6486
  155OSM     O317272   3.501   0.226   2.085  0.4101 -0.1268  0.6582
  155OSM    HO317273   3.580   0.228   2.030 -0.8676  0.5349 -1.2648
  155OSM    C4S17274   3.458   0.220   2.311  0.0183 -0.3282  0.5774
  155OSM    H4S17275   3.485   0.322   2.342  1.1721 -0.3493 -0.2737
  155OSM    C5S17276   3.364   0.150   2.385 -0.3543 -0.0614  0.6756
  155OSM    H5S17277   3.344   0.045   2.362 -1.3669  0.1343  0.6051
  155OSM    C6S17278   3.302   0.213   2.506 -0.0183  0.0143 -0.4096
  155OSM    H6S17279   3.192   0.221   2.491  0.1107  1.1882 -0.8623
  155OSM    H6T17280   3.347   0.311   2.532  2.9332 -1.0991 -0.8545
  155OSM    C7S17281   3.320   0.129   2.635  0.1281 -0.1221  0.1420
  155OSM    H7S17282   3.427   0.116   2.663  1.0559  1.7426 -2.2604
  155OSM    H7T17283   3.274   0.032   2.609  1.3444 -1.1633  1.7088
  155OSM    C8S17284   3.244   0.188   2.760  0.2389  0.0646  0.5713
  155OSM    H8S17285   3.134   0.168   2.759  0.1133  0.6110  1.8066
  155OSM    H8T17286   3.262   0.297   2.771 -1.5438  0.4518 -0.0020
  155OSM    C9S17287   3.290   0.123   2.895 -0.0394 -0.1793  0.3074
  155OSM    H9S17288   3.396   0.152   2.914 -0.0014  1.0179 -1.5330
  155OSM    H9T17289   3.288   0.012   2.897  2.4989 -0.2885 -0.1568
  155OSM   C10S17290   3.196   0.182   3.003 -0.6162  0.1275  0.4220
  155OSM   H10S17291   3.088   0.175   2.976 -0.0468 -0.6710 -1.8513
  155OSM   H10T17292   3.223   0.289   2.996  1.9010 -0.4621  0.0430
  155OSM   C11S17293   3.229   0.115   3.131  0.4792 -0.1036 -0.1766
  155OSM   H11S17294   3.339   0.125   3.142  0.6776 -2.2200  0.1655
  155OSM   H11T17295   3.200   0.008   3.129 -0.1577 -0.0024  1.6710
  155OSM   C12S17296   3.165   0.179   3.260  0.3654  0.0724 -0.2609
  155OSM   H12S17297   3.067   0.129   3.270 -0.9363  2.6280  0.6131
  155OSM   H12T17298   3.156   0.287   3.239 -1.0508 -0.2835 -1.6873
  155OSM   C13S17299   3.248   0.159   3.384  0.0625 -0.2583  0.1121
  155OSM   H13S17300   3.354   0.186   3.363 -0.7177  2.1675 -0.9845
  155OSM   H13T17301   3.247   0.049   3.400 -1.3993 -0.2202  0.4315
  155OSM   C14S17302   3.198   0.212   3.518 -0.2744  0.2278  0.0294
  155OSM   H14S17303   3.089   0.194   3.512 -0.1632 -0.1154 -1.4009
  155OSM   H14T17304   3.215   0.322   3.508  3.2308 -0.3473 -2.3644
  155OSM   C15S17305   3.248   0.149   3.648  0.1575 -0.8253 -0.1179
  155OSM   H15S17306   3.359   0.151   3.650  0.1518  0.9283  0.0536
  155OSM   H15T17307   3.215   0.044   3.655  1.2625 -1.1532  0.3734
  155OSM   C16S17308   3.200   0.205   3.786 -0.0813 -0.0641 -0.4075
  155OSM   H16S17309   3.089   0.212   3.781 -0.1603 -1.4561 -1.4014
  155OSM   H16T17310   3.236   0.308   3.807  0.1225 -0.2858  0.3635
  155OSM   C17S17311   3.234   0.116   3.909 -0.1798  0.6738  0.0842
  155OSM   H17S17312   3.343   0.123   3.930 -0.2293  0.1396  0.5461
  155OSM   H17T17313   3.213   0.010   3.882  2.0602 -0.1073  1.1997
  155OSM   C18S17314   3.141   0.157   4.024  0.1151  1.1310 -0.1885
  155OSM   H18S17315   3.181   0.095   4.107  0.8931  1.8180 -0.0382
  155OSM   H18T17316   3.033   0.135   4.008  0.1847  1.0245 -0.5324
  155OSM   H18U17317   3.157   0.265   4.047  1.0032  0.7949  0.8404
  155OSM    C1F17318   3.886   0.074   2.365  0.5385 -0.3481  0.0954
  155OSM     OF17319   3.960   0.150   2.306  0.2014 -0.5423 -0.2153
  155OSM    C2F17320   3.933  -0.010   2.481 -0.1227 -0.4071  0.0778
  155OSM    H2F17321   4.002  -0.088   2.442 -0.0930 -0.1785 -0.3326
  155OSM    H2G17322   3.848  -0.058   2.533 -2.4915  1.9062 -1.4245
  155OSM    C3F17323   4.012   0.071   2.588  0.0728 -0.2500 -0.0182
  155OSM    H3F17324   3.937   0.146   2.622  1.8992  0.9339  1.5344
  155OSM    H3G17325   4.100   0.110   2.532  1.3884 -3.1765 -0.1894
  155OSM    C4F17326   4.042  -0.011   2.710 -0.7133 -0.3349  0.4449
  155OSM    H4F17327   4.132  -0.070   2.682  0.5551  1.2265  1.0406
  155OSM    H4G17328   3.967  -0.088   2.739 -0.9298 -0.0720  0.5824
  155OSM    C5F17329   4.080   0.075   2.833 -0.0360  0.4217  0.2267
  155OSM    H5F17330   4.173   0.129   2.807 -0.2927  0.4374 -0.6748
  155OSM    H5G17331   4.093   0.009   2.922 -0.7202  2.2357  1.7235
  155OSM    C6F17332   3.980   0.180   2.881  0.0568  0.0214  0.0753
  155OSM    H6F17333   3.891   0.136   2.931  0.0518 -1.3590 -1.0815
  155OSM    H6G17334   3.956   0.258   2.805 -2.3504 -1.2224 -0.5713
  155OSM    C7F17335   4.043   0.260   2.999  0.8796  0.2819 -0.2086
  155OSM    H7F17336   3.985   0.354   3.000 -1.5660 -1.0853 -2.0128
  155OSM    H7G17337   4.147   0.283   2.967  1.1478  2.2402  1.8392
  155OSM    C8F17338   4.056   0.186   3.137  0.3520 -0.2798  0.0677
  155OSM    H8F17339   4.075   0.077   3.121  0.1495 -0.6690  2.1424
  155OSM    H8G17340   3.958   0.194   3.190  0.9538 -0.2982  1.2198
  155OSM    C9F17341   4.163   0.252   3.215 -1.0164  0.6114  0.2695
  155OSM    H9F17342   4.265   0.245   3.175 -1.2637  0.4450 -0.3636
  155OSM   C10F17343   4.146   0.301   3.340  0.3016 -0.3110  0.8989
  155OSM   H10F17344   4.237   0.344   3.384 -0.5554  1.5885  0.9275
  155OSM   C11F17345   4.021   0.334   3.422  0.0335 -0.2543 -0.2832
  155OSM   H11F17346   3.934   0.270   3.397  0.1231 -0.4940  0.0173
  155OSM   H11G17347   3.983   0.432   3.384 -2.9858 -1.5733 -0.9649
  155OSM   C12F17348   4.045   0.321   3.571  0.0117 -0.2430  0.1737
  155OSM   H12F17349   4.135   0.381   3.599 -0.3541 -0.5613  2.1877
  155OSM   H12G17350   4.051   0.215   3.605 -1.5210 -0.5716 -0.4943
  155OSM   C13F17351   3.925   0.376   3.650  0.0202 -0.1572  0.7360
  155OSM   H13F17352   3.837   0.334   3.598 -0.6172 -0.3425  1.9209
  155OSM   H13G17353   3.921   0.487   3.644 -0.8829 -0.2488 -0.6810
  155OSM   C14F17354   3.907   0.331   3.799  0.2191  0.4337  0.0485
  155OSM   H14F17355   3.880   0.223   3.801 -2.0204  0.9260  2.4837
  155OSM   H14G17356   3.812   0.368   3.843 -0.2861  0.4016 -0.9725
  155OSM   C15F17357   4.035   0.347   3.883 -0.3231  0.7244 -0.0302
  155OSM   H15F17358   4.073   0.450   3.900  0.6896  0.0140  2.4939
  155OSM   H15G17359   4.120   0.298   3.830  2.2093  2.0129  2.5603
  155OSM   C16F17360   4.016   0.270   4.011 -0.6938 -0.0035  0.3548
  155OSM   H16F17361   4.099   0.200   4.033 -1.7200 -0.8717  1.6422
  155OSM   H16G17362   3.928   0.205   3.994  0.4457 -2.2016  2.2854
  155OSM   C17F17363   4.016   0.347   4.146  0.1629  0.0927 -0.0520
  155OSM   H17F17364   4.117   0.392   4.159  0.9495 -1.2505 -1.2937
  155OSM   H17G17365   4.000   0.269   4.223  1.1876 -1.1510 -1.0599
  155OSM   C18F17366   3.914   0.466   4.146 -0.2648  0.9516  0.2609
  155OSM   H18F17367   3.949   0.536   4.066 -0.9024  0.9724  0.0010
  155OSM   H18G17368   3.917   0.506   4.250  0.7810  0.8683  0.2799
  155OSM   H18H17369   3.811   0.437   4.120  0.3525 -1.0644 -0.0653
  156OSM      N17370   6.668   6.210   2.075  0.2335  0.3778 -0.4806
  156OSM    C1517371   6.739   6.185   2.202 -0.0189  0.4155 -0.1616
  156OSM   H15A17372   6.770   6.277   2.251  0.9096  0.3693 -0.6376
  156OSM   H15B17373   6.821   6.119   2.180 -2.5441 -2.7224 -0.8376
  156OSM   H15C17374   6.680   6.132   2.275  0.3846 -0.4243 -0.4353
  156OSM    C1417375   6.631   6.079   2.027 -0.2832  0.4896  0.3957
  156OSM   H14A17376   6.591   6.021   2.109  2.4836 -1.5034  0.4588
  156OSM   H14B17377   6.712   6.024   1.982  0.4725  1.3768  0.6461
  156OSM   H14C17378   6.555   6.078   1.950 -2.2136  1.5715  2.1633
  156OSM    C1317379   6.542   6.280   2.109  0.0066  0.8005 -0.2056
  156OSM   H13A17380   6.493   6.322   2.022  1.6339 -0.6534 -1.9084
  156OSM   H13B17381   6.559   6.357   2.182 -2.6574  0.8952  0.4097
  156OSM   H13C17382   6.465   6.214   2.147  1.6612 -1.4742 -0.5971
  156OSM    C1217383   6.758   6.285   1.975  0.2361 -0.0504  0.1081
  156OSM   H12A17384   6.699   6.291   1.885  0.1463 -2.5870 -0.0987
  156OSM   H12B17385   6.851   6.230   1.969  1.5265  1.9500  0.8894
  156OSM    C1117386   6.797   6.425   2.018 -0.4037 -0.8031 -1.1645
  156OSM   H11A17387   6.845   6.429   2.118 -2.5908  2.9659 -0.0881
  156OSM   H11B17388   6.698   6.473   2.025 -0.9346 -2.0109  0.2255
  156OSM      P17389   7.032   6.458   1.895 -0.1850  0.3231  0.0755
  156OSM    O1317390   7.042   6.313   1.895 -0.4972  0.5309 -0.0018
  156OSM    O1417391   7.088   6.533   1.782 -0.0078  0.0450 -0.0470
  156OSM    O1117392   7.104   6.515   2.026  0.0156  0.1843 -0.2749
  156OSM    O1217393   6.874   6.487   1.908  0.3610  0.9452 -0.1750
  156OSM    C1S17394   7.060   6.641   2.081 -0.0645  0.1576  0.7447
  156OSM    H1S17395   6.964   6.675   2.036  0.5045 -1.6523 -2.1777
  156OSM    H1T17396   7.138   6.719   2.066 -1.0812  1.4965  2.1509
  156OSM     NF17397   6.991   6.757   2.291 -0.9939 -0.3908 -0.3185
  156OSM    HNF17398   7.070   6.816   2.306  0.6983 -2.0246 -2.2694
  156OSM    C2S17399   7.041   6.627   2.234  0.3657  0.0670 -0.1988
  156OSM    H2S17400   6.954   6.559   2.245 -1.7352  2.2699 -2.1355
  156OSM    C3S17401   7.165   6.559   2.300 -0.3591 -0.1294  0.2879
  156OSM    H3S17402   7.249   6.618   2.256 -0.8071 -0.8827 -1.6995
  156OSM     O317403   7.186   6.425   2.254 -0.2950 -0.1473 -0.5149
  156OSM    HO317404   7.136   6.427   2.172 -1.2388  3.4963 -0.0397
  156OSM    C4S17405   7.166   6.560   2.452 -0.1621  0.4076  0.4040
  156OSM    H4S17406   7.073   6.520   2.496  0.4284  1.7082  3.0722
  156OSM    C5S17407   7.243   6.632   2.532  0.7145  0.6148  0.1587
  156OSM    H5S17408   7.327   6.688   2.489  0.7563 -0.5355 -1.3310
  156OSM    C6S17409   7.215   6.657   2.680  0.1727  0.4165 -0.0733
  156OSM    H6S17410   7.160   6.752   2.693  0.9658  0.5734  2.6271
  156OSM    H6T17411   7.308   6.680   2.734  0.4321  0.1738 -0.4084
  156OSM    C7S17412   7.138   6.542   2.757  0.4950 -0.2008 -0.0218
  156OSM    H7S17413   7.201   6.451   2.766  1.3942  0.4588  0.5357
  156OSM    H7T17414   7.038   6.526   2.710  0.6322 -0.5035 -0.2074
  156OSM    C8S17415   7.107   6.576   2.902  0.0423 -0.2715 -0.0188
  156OSM    H8S17416   7.045   6.668   2.899  1.4481  0.7697  1.2993
  156OSM    H8T17417   7.204   6.594   2.954  1.5410 -3.9367 -1.1952
  156OSM    C9S17418   7.021   6.467   2.968  0.5067  0.0471  0.5506
  156OSM    H9S17419   7.046   6.364   2.934 -3.4154 -0.5085 -1.2449
  156OSM    H9T17420   6.915   6.493   2.946 -0.2876 -2.1754  1.5045
  156OSM   C10S17421   7.023   6.465   3.119  0.4376  0.5958 -0.2363
  156OSM   H10S17422   7.022   6.565   3.167 -0.3286 -0.1228  1.3371
  156OSM   H10T17423   7.123   6.423   3.145 -0.8815 -1.9119  1.1139
  156OSM   C11S17424   6.921   6.370   3.175 -0.3612  0.2235 -0.2278
  156OSM   H11S17425   6.939   6.270   3.131  2.2207  1.2381 -1.7328
  156OSM   H11T17426   6.826   6.407   3.131  0.0663  0.2421 -1.1566
  156OSM   C12S17427   6.907   6.365   3.325  0.2329 -0.2399 -0.0638
  156OSM   H12S17428   7.010   6.365   3.368 -0.0115  1.5471  0.5699
  156OSM   H12T17429   6.864   6.266   3.352 -0.2293  0.0658  0.3290
  156OSM   C13S17430   6.830   6.481   3.366  0.7068  0.1489  0.1434
  156OSM   H13S17431   6.726   6.477   3.326  0.5962 -1.5032  0.5472
  156OSM   H13T17432   6.874   6.581   3.347  0.4338  0.8304  2.6356
  156OSM   C14S17433   6.805   6.481   3.515 -0.5512 -0.2356  0.6515
  156OSM   H14S17434   6.767   6.582   3.540  3.2657  0.9419  2.4769
  156OSM   H14T17435   6.901   6.472   3.570 -0.9405 -1.6984  1.1335
  156OSM   C15S17436   6.706   6.371   3.557 -0.2215  0.1732 -0.2562
  156OSM   H15S17437   6.745   6.272   3.526 -0.5428 -0.7309  2.0405
  156OSM   H15T17438   6.605   6.386   3.514  0.7676  0.5176 -2.5780
  156OSM   C16S17439   6.689   6.372   3.709  0.6192 -0.6363 -0.2351
  156OSM   H16S17440   6.609   6.299   3.736 -0.5428  0.0034 -1.7802
  156OSM   H16T17441   6.650   6.471   3.741  0.3746  0.1983 -2.9284
  156OSM   C17S17442   6.820   6.331   3.784  0.1716 -0.3130 -0.2964
  156OSM   H17S17443   6.892   6.414   3.795  0.8826 -0.9356 -0.1853
  156OSM   H17T17444   6.875   6.278   3.703 -2.6278 -0.9468 -1.9380
  156OSM   C18S17445   6.799   6.251   3.908 -0.0085 -0.8451  0.5723
  156OSM   H18S17446   6.744   6.157   3.887  2.2205 -1.9799 -0.4217
  156OSM   H18T17447   6.740   6.306   3.985  1.2976  2.8325 -0.8326
  156OSM   H18U17448   6.898   6.221   3.947  1.5257  2.8712 -0.0237
  156OSM    C1F17449   6.861   6.790   2.298 -0.6549  0.1203 -0.0207
  156OSM     OF17450   6.777   6.707   2.257  0.0891 -0.3598 -0.7118
  156OSM    C2F17451   6.826   6.928   2.341  0.1228  0.9515 -0.2002
  156OSM    H2F17452   6.799   6.979   2.246  0.9317 -1.5406 -1.8737
  156OSM    H2G17453   6.914   6.981   2.382 -1.6559  4.6258 -0.7011
  156OSM    C3F17454   6.711   6.928   2.438 -0.2710 -0.1455  0.9911
  156OSM    H3F17455   6.615   6.892   2.394  0.0976  0.0494 -0.0111
  156OSM    H3G17456   6.680   7.034   2.451  0.5685  0.0440  1.4817
  156OSM    C4F17457   6.731   6.870   2.577  0.0207  0.0960 -0.1375
  156OSM    H4F17458   6.831   6.889   2.620 -0.3326 -0.1930  0.8480
  156OSM    H4G17459   6.723   6.759   2.567  2.2363 -0.1905  0.5938
  156OSM    C5F17460   6.617   6.930   2.662 -0.3184  0.3067 -0.2280
  156OSM    H5F17461   6.520   6.892   2.623 -0.7763 -0.3155  1.4358
  156OSM    H5G17462   6.619   7.040   2.654  0.2593  0.2702 -0.7074
  156OSM    C6F17463   6.622   6.902   2.815  0.4771  0.5167 -0.0353
  156OSM    H6F17464   6.635   6.795   2.841  1.9395  0.9966  1.3878
  156OSM    H6G17465   6.519   6.929   2.846  0.8400  0.5166  1.2242
  156OSM    C7F17466   6.723   6.985   2.887  0.8191  0.1141  0.4988
  156OSM    H7F17467   6.727   7.079   2.829 -1.2518 -3.1904 -5.9819
  156OSM    H7G17468   6.827   6.946   2.883  1.8008  2.6246 -2.1629
  156OSM    C8F17469   6.683   7.005   3.032 -0.6045 -0.4033  0.7271
  156OSM    H8F17470   6.583   7.052   3.040 -0.2103  0.2103  2.4173
  156OSM    H8G17471   6.755   7.081   3.068  0.1980  0.3011 -2.0925
  156OSM    C9F17472   6.694   6.867   3.097 -0.2721  0.0732  0.2769
  156OSM    H9F17473   6.614   6.793   3.078  0.2203 -0.5512  0.5927
  156OSM   C10F17474   6.794   6.821   3.176 -0.2347  0.0757  0.6190
  156OSM   H10F17475   6.792   6.722   3.223 -1.9232 -0.5118 -0.5687
  156OSM   C11F17476   6.918   6.890   3.207  0.0259 -0.3064  0.0711
  156OSM   H11F17477   6.940   6.969   3.132 -1.8174  1.3953  1.2303
  156OSM   H11G17478   7.000   6.815   3.199  0.3139  0.0900 -0.8384
  156OSM   C12F17479   6.928   6.957   3.342  0.6173  0.6439 -0.3534
  156OSM   H12F17480   6.860   7.045   3.342 -1.5522 -0.9130 -1.9820
  156OSM   H12G17481   7.028   7.001   3.360  0.0997  1.0553  1.8640
  156OSM   C13F17482   6.885   6.861   3.459 -0.3812 -0.6942  0.6519
  156OSM   H13F17483   6.936   6.764   3.447  1.0294  0.1779 -0.8223
  156OSM   H13G17484   6.774   6.856   3.446 -0.1817 -0.5847 -1.4969
  156OSM   C14F17485   6.910   6.921   3.601 -0.5118  0.2186  0.7075
  156OSM   H14F17486   6.836   7.002   3.619 -2.1888 -0.6871 -1.6392
  156OSM   H14G17487   7.015   6.958   3.593 -0.3141 -0.3665  0.5421
  156OSM   C15F17488   6.901   6.823   3.716  0.6080  0.0879 -0.1536
  156OSM   H15F17489   6.964   6.737   3.684  0.8131  0.7563 -1.6428
  156OSM   H15G17490   6.799   6.782   3.734 -0.3561  2.0024 -0.9630
  156OSM   C16F17491   6.960   6.882   3.844 -1.1141  0.1044  0.0508
  156OSM   H16F17492   6.895   6.966   3.876 -0.4442  0.1618  1.3167
  156OSM   H16G17493   7.054   6.932   3.812 -1.9245  1.7129  0.0654
  156OSM   C17F17494   6.988   6.776   3.947  0.1110  0.2075 -0.1347
  156OSM   H17F17495   7.073   6.804   4.013  1.0742 -1.6386 -0.5391
  156OSM   H17G17496   7.018   6.688   3.887  0.6953  1.2464 -1.4315
  156OSM   C18F17497   6.862   6.753   4.035  0.0682 -0.0697  0.5396
  156OSM   H18F17498   6.885   6.674   4.109  2.1587  0.2988  0.3510
  156OSM   H18G17499   6.769   6.722   3.984  0.4506 -1.4388  0.6459
  156OSM   H18H17500   6.844   6.846   4.092 -1.2440 -0.7589  1.2897
  157OSM      N17501   5.878   1.342   1.439 -0.6737 -0.5985 -0.0035
  157OSM    C1517502   5.853   1.230   1.339  0.0585  0.1142  0.1984
  157OSM   H15A17503   5.785   1.163   1.387  0.3766 -1.4173 -1.3864
  157OSM   H15B17504   5.949   1.184   1.317 -0.7285 -0.7132 -1.7178
  157OSM   H15C17505   5.803   1.274   1.254 -2.5738 -0.3076  1.4512
  157OSM    C1417506   5.934   1.453   1.362 -0.1407 -0.6261  0.3448
  157OSM   H14A17507   6.036   1.430   1.333 -0.1429 -2.1631  1.4154
  157OSM   H14B17508   5.945   1.539   1.427  1.1037  0.5483 -1.3078
  157OSM   H14C17509   5.878   1.485   1.276  2.7310  3.3468 -0.3429
  157OSM    C1317510   5.756   1.390   1.504 -0.0912  0.7888 -0.0409
  157OSM   H13A17511   5.713   1.320   1.574  0.7181  1.2347  0.9275
  157OSM   H13B17512   5.674   1.414   1.437 -1.8831  0.9128  2.0543
  157OSM   H13C17513   5.777   1.478   1.564  2.7751 -0.2371  0.5756
  157OSM    C1217514   5.979   1.303   1.551  0.0818  1.1474 -0.2099
  157OSM   H12A17515   6.073   1.280   1.502 -0.8014  2.8417 -2.9138
  157OSM   H12B17516   5.950   1.206   1.589 -0.8890  0.3823 -2.6639
  157OSM    C1117517   6.011   1.400   1.667  0.0480 -0.6092  0.0010
  157OSM   H11A17518   6.081   1.353   1.739  2.1093 -1.8101 -2.6363
  157OSM   H11B17519   5.920   1.423   1.727  0.4988  0.5633  0.2746
  157OSM      P17520   6.226   1.516   1.573 -0.1523 -0.1637 -0.0157
  157OSM    O1317521   6.269   1.388   1.515 -0.3119  0.6422  0.5686
  157OSM    O1417522   6.252   1.636   1.490  0.2601  0.0150 -0.7725
  157OSM    O1117523   6.309   1.533   1.705 -0.1218 -0.0658 -0.3216
  157OSM    O1217524   6.076   1.519   1.620 -0.6124  0.6273  0.0006
  157OSM    C1S17525   6.308   1.644   1.791 -0.4744  0.1564 -0.7596
  157OSM    H1S17526   6.218   1.708   1.782 -2.1868 -1.7171  1.7309
  157OSM    H1T17527   6.409   1.689   1.786 -0.3766 -0.1629 -2.0197
  157OSM     NF17528   6.266   1.739   2.019  0.3291  0.3235  1.1915
  157OSM    HNF17529   6.352   1.787   2.036  2.4287 -2.1408 -1.3783
  157OSM    C2S17530   6.285   1.614   1.947 -0.1788  0.6806  0.4220
  157OSM    H2S17531   6.195   1.550   1.960  0.0497  0.1586 -0.4645
  157OSM    C3S17532   6.410   1.542   1.987  0.3232 -0.1583  0.2485
  157OSM    H3S17533   6.501   1.603   1.972 -0.0013  1.4237  3.7257
  157OSM     O317534   6.428   1.423   1.917 -0.4888 -0.0146  0.1578
  157OSM    HO317535   6.392   1.452   1.833 -1.5016  0.9690  0.9012
  157OSM    C4S17536   6.410   1.512   2.138 -0.8221  0.4598 -0.5535
  157OSM    H4S17537   6.352   1.423   2.168 -2.3419  2.0265  1.4794
  157OSM    C5S17538   6.461   1.576   2.248  0.0452  0.0302 -0.0509
  157OSM    H5S17539   6.512   1.672   2.229 -3.5353  2.1892  0.1292
  157OSM    C6S17540   6.435   1.534   2.390 -0.0775  0.4762 -0.2987
  157OSM    H6S17541   6.529   1.489   2.430 -0.5720  0.1733  0.5315
  157OSM    H6T17542   6.358   1.454   2.387 -1.1517  1.4981 -0.8072
  157OSM    C7S17543   6.393   1.646   2.484 -0.2108  0.3576 -0.0283
  157OSM    H7S17544   6.309   1.699   2.434  0.0659 -1.0795 -2.1178
  157OSM    H7T17545   6.474   1.720   2.499 -0.9393  1.4605 -1.3423
  157OSM    C8S17546   6.349   1.588   2.618  0.3712  0.0844 -0.0281
  157OSM    H8S17547   6.281   1.504   2.593 -0.2846  0.0681  1.6364
  157OSM    H8T17548   6.291   1.658   2.682  0.6711  0.1849  0.1388
  157OSM    C9S17549   6.458   1.529   2.707  0.7483 -0.0972 -0.6397
  157OSM    H9S17550   6.510   1.611   2.761 -1.7779  0.4999  1.0692
  157OSM    H9T17551   6.533   1.479   2.644  0.0063 -3.3864  0.8930
  157OSM   C10S17552   6.401   1.438   2.821 -0.0240  0.7038  0.1164
  157OSM   H10S17553   6.493   1.391   2.863  0.0740  0.5541 -0.2656
  157OSM   H10T17554   6.338   1.363   2.769  2.4194 -1.7251  0.4270
  157OSM   C11S17555   6.329   1.514   2.933  0.4688 -0.7658 -0.4105
  157OSM   H11S17556   6.220   1.516   2.912  0.0993  0.7339  1.3724
  157OSM   H11T17557   6.373   1.616   2.939  0.6201 -0.8004 -0.9177
  157OSM   C12S17558   6.334   1.450   3.079  0.3079  0.1518  0.2214
  157OSM   H12S17559   6.315   1.343   3.055  1.5759  0.2110 -1.1973
  157OSM   H12T17560   6.250   1.492   3.137  0.0625 -1.0257  0.7610
  157OSM   C13S17561   6.461   1.452   3.150 -0.8947  0.0844  0.0993
  157OSM   H13S17562   6.489   1.557   3.171  1.9931  0.2703 -3.5614
  157OSM   H13T17563   6.540   1.421   3.078  0.1612 -0.5516  1.4699
  157OSM   C14S17564   6.477   1.350   3.263  0.2233 -0.9438  0.1656
  157OSM   H14S17565   6.585   1.322   3.259  1.1813  1.5472  3.8292
  157OSM   H14T17566   6.412   1.260   3.259 -0.0391 -0.8319  1.5412
  157OSM   C15S17567   6.458   1.413   3.405 -0.1430 -0.6112  0.0167
  157OSM   H15S17568   6.504   1.513   3.399 -0.9033 -0.2369  0.2545
  157OSM   H15T17569   6.500   1.351   3.487 -0.3513 -1.8176 -0.7562
  157OSM   C16S17570   6.315   1.450   3.436 -0.0521  0.6412  0.5508
  157OSM   H16S17571   6.262   1.353   3.450 -0.8597  0.5442 -2.5223
  157OSM   H16T17572   6.278   1.504   3.347  2.7888  1.3394 -0.2967
  157OSM   C17S17573   6.298   1.552   3.554 -0.1063  0.1844  0.1641
  157OSM   H17S17574   6.206   1.612   3.543  0.3893  1.0404  0.6626
  157OSM   H17T17575   6.374   1.633   3.551 -2.1605  2.1810 -0.4315
  157OSM   C18S17576   6.311   1.490   3.700  0.2804 -0.1053  0.3356
  157OSM   H18S17577   6.252   1.396   3.707  0.3129 -0.1512  0.0227
  157OSM   H18T17578   6.284   1.569   3.774 -2.5981  0.2804 -0.9584
  157OSM   H18U17579   6.417   1.458   3.711 -0.6399 -3.0445  1.5138
  157OSM    C1F17580   6.147   1.810   2.024 -0.1207  0.2181 -0.8555
  157OSM     OF17581   6.050   1.778   1.958  0.4796 -0.2679 -0.4427
  157OSM    C2F17582   6.134   1.921   2.127  0.1252  0.8223  0.7721
  157OSM    H2F17583   6.030   1.959   2.120  0.0066  0.3891  0.1404
  157OSM    H2G17584   6.187   2.008   2.084  1.1361  0.6373  1.5976
  157OSM    C3F17585   6.170   1.878   2.269  0.0196 -0.3443  0.0494
  157OSM    H3F17586   6.279   1.892   2.284 -0.2905  0.6513  1.6335
  157OSM    H3G17587   6.150   1.769   2.273  0.0322 -0.4908 -2.5074
  157OSM    C4F17588   6.097   1.957   2.373 -0.2874  0.2603  0.3378
  157OSM    H4F17589   5.994   1.917   2.376 -0.0380 -0.3588  1.3446
  157OSM    H4G17590   6.099   2.064   2.344 -2.1714  0.1100 -0.4853
  157OSM    C5F17591   6.163   1.948   2.510  0.6331  0.6998 -0.0288
  157OSM    H5F17592   6.272   1.972   2.501  1.1156 -0.9040  1.0869
  157OSM    H5G17593   6.160   1.844   2.548 -0.5144  0.7596  0.0763
  157OSM    C6F17594   6.116   2.044   2.616  0.8808 -0.0636 -0.0012
  157OSM    H6F17595   6.013   2.016   2.645  0.2178  1.0844 -1.1790
  157OSM    H6G17596   6.119   2.146   2.573 -0.9512  0.0620  0.1189
  157OSM    C7F17597   6.194   2.044   2.749  0.2016  0.3612  1.0111
  157OSM    H7F17598   6.301   2.062   2.727  0.1038 -1.3540 -1.1217
  157OSM    H7G17599   6.183   1.952   2.809 -2.0067  1.0781  1.8111
  157OSM    C8F17600   6.149   2.155   2.849 -0.2494  0.1149 -0.3757
  157OSM    H8F17601   6.132   2.119   2.952  0.0043 -0.6188 -0.5850
  157OSM    H8G17602   6.062   2.215   2.814  0.1447  0.5115 -0.6998
  157OSM    C9F17603   6.258   2.257   2.875 -0.3333  0.0102  0.6243
  157OSM    H9F17604   6.310   2.291   2.784 -0.1305 -1.5354  0.1347
  157OSM   C10F17605   6.286   2.323   2.991 -0.9165  0.4294  0.1164
  157OSM   H10F17606   6.366   2.398   3.001  0.5006 -1.1885  1.5360
  157OSM   C11F17607   6.224   2.291   3.122  0.2345 -0.4097  0.4128
  157OSM   H11F17608   6.119   2.256   3.107 -0.2219  1.2541 -0.5340
  157OSM   H11G17609   6.217   2.384   3.181 -4.0094  0.0906 -0.5068
  157OSM   C12F17610   6.301   2.181   3.193 -0.3439 -0.1222 -0.0839
  157OSM   H12F17611   6.404   2.217   3.215 -1.2875  2.9442 -0.1891
  157OSM   H12G17612   6.297   2.097   3.120 -1.0872  2.0541 -2.7322
  157OSM   C13F17613   6.244   2.144   3.330  0.9947  0.6738  0.6741
  157OSM   H13F17614   6.137   2.120   3.314  1.1940  0.3598 -0.2337
  157OSM   H13G17615   6.246   2.237   3.392  1.6966  1.2035 -0.1134
  157OSM   C14F17616   6.311   2.024   3.400  0.3582 -0.6193  0.6586
  157OSM   H14F17617   6.420   2.046   3.400  0.5138 -1.2794 -0.5534
  157OSM   H14G17618   6.292   1.937   3.334 -0.9511 -1.1593  1.6878
  157OSM   C15F17619   6.259   1.995   3.545  0.5358  0.1050  0.9511
  157OSM   H15F17620   6.227   1.889   3.551  1.2953 -0.0686  2.3431
  157OSM   H15G17621   6.176   2.068   3.555  1.1248  0.7349  1.3532
  157OSM   C16F17622   6.359   2.027   3.652  0.1398 -0.1574 -0.4499
  157OSM   H16F17623   6.385   2.133   3.631  0.9012 -0.3033 -0.3066
  157OSM   H16G17624   6.454   1.970   3.640  0.7130  1.0423 -2.1383
  157OSM   C17F17625   6.305   2.012   3.792 -0.1064  0.1725  0.6262
  157OSM   H17F17626   6.211   2.071   3.797 -0.6824 -0.8144  2.6870
  157OSM   H17G17627   6.382   2.054   3.861 -0.7938 -0.1936  1.6381
  157OSM   C18F17628   6.291   1.873   3.832  1.0408  0.2822  0.2702
  157OSM   H18F17629   6.227   1.865   3.922  0.2047 -1.3910 -0.4289
  157OSM   H18G17630   6.388   1.823   3.853 -0.0903 -1.3065  1.9693
  157OSM   H18H17631   6.227   1.816   3.760  0.3007  1.2859  0.1150
  158OSM      N17632   4.153   5.412   1.500 -0.3007  0.1946  1.1296
  158OSM    C1517633   4.215   5.534   1.436 -0.0118 -0.0595  0.2186
  158OSM   H15A17634   4.322   5.519   1.435 -0.1940 -1.4266 -0.1118
  158OSM   H15B17635   4.188   5.631   1.475  0.2833 -0.5170  1.6203
  158OSM   H15C17636   4.189   5.536   1.331  3.0985  1.5437 -0.6618
  158OSM    C1417637   4.003   5.431   1.518  0.7724  0.1413 -0.3376
  158OSM   H14A17638   3.951   5.337   1.528  0.2669  0.1169 -2.6173
  158OSM   H14B17639   3.954   5.484   1.438  2.1111 -1.4711 -2.3350
  158OSM   H14C17640   3.993   5.496   1.603  0.3669  0.6757 -0.7892
  158OSM    C1317641   4.168   5.288   1.409  0.3664 -0.7763  0.1417
  158OSM   H13A17642   4.266   5.274   1.367 -0.6693 -1.0199 -2.3630
  158OSM   H13B17643   4.107   5.290   1.320  0.8649 -1.3315 -0.2211
  158OSM   H13C17644   4.146   5.200   1.467 -1.6820 -0.1124  0.4546
  158OSM    C1217645   4.213   5.390   1.636  0.0935  0.2498 -0.2856
  158OSM   H12A17646   4.317   5.376   1.612 -0.4852  0.7331 -3.5778
  158OSM   H12B17647   4.182   5.301   1.688  2.6226  0.6138  2.0703
  158OSM    C1117648   4.205   5.500   1.745 -0.3993  0.3710 -0.2124
  158OSM   H11A17649   4.245   5.447   1.835  0.8979  0.4976 -0.6958
  158OSM   H11B17650   4.097   5.520   1.758 -0.5328 -0.3640 -0.1479
  158OSM      P17651   4.263   5.736   1.815  0.1835 -0.0836  0.3829
  158OSM    O1317652   4.372   5.831   1.791 -0.1996 -0.4882  0.1681
  158OSM    O1417653   4.127   5.794   1.817  0.1130 -0.4946  0.3800
  158OSM    O1117654   4.280   5.657   1.949  0.2447  0.1196 -0.1357
  158OSM    O1217655   4.275   5.624   1.710  0.3879 -0.0083 -0.1677
  158OSM    C1S17656   4.205   5.709   2.063 -0.3450  0.4014 -0.6542
  158OSM    H1S17657   4.098   5.682   2.050 -0.6758  1.0637  0.5174
  158OSM    H1T17658   4.224   5.817   2.075  2.1427 -0.1034  0.7615
  158OSM     NF17659   4.172   5.671   2.293  0.3566 -0.3076 -0.3668
  158OSM    HNF17660   4.205   5.744   2.352  0.1167 -0.7193  0.2901
  158OSM    C2S17661   4.257   5.629   2.189  0.2972 -0.6390 -0.1204
  158OSM    H2S17662   4.245   5.520   2.175 -0.6463 -0.5891  0.2004
  158OSM    C3S17663   4.403   5.666   2.205 -0.6454  0.5148 -0.3044
  158OSM    H3S17664   4.411   5.776   2.204 -1.2079  0.5546 -0.5747
  158OSM     O317665   4.493   5.615   2.107 -0.3940 -0.7071 -0.0022
  158OSM    HO317666   4.433   5.560   2.057  1.0262 -2.1791 -0.1691
  158OSM    C4S17667   4.450   5.631   2.342 -0.7163 -0.5664 -0.2616
  158OSM    H4S17668   4.410   5.699   2.419  0.1730  0.1877 -0.4503
  158OSM    C5S17669   4.522   5.527   2.393  0.1386 -0.0475 -0.3107
  158OSM    H5S17670   4.569   5.460   2.319 -1.4117 -2.3189  0.6473
  158OSM    C6S17671   4.567   5.500   2.536 -0.3166  0.4636  0.7461
  158OSM    H6S17672   4.674   5.473   2.544 -0.3650  0.4504  1.4297
  158OSM    H6T17673   4.511   5.419   2.589  0.4390  0.8418  2.1704
  158OSM    C7S17674   4.562   5.622   2.636  0.4320  0.1563 -0.2747
  158OSM    H7S17675   4.461   5.652   2.669  1.0138  2.4877 -0.4421
  158OSM    H7T17676   4.614   5.709   2.590 -0.5640 -0.9656 -3.7557
  158OSM    C8S17677   4.625   5.584   2.769  0.1867 -0.1318 -0.4523
  158OSM    H8S17678   4.731   5.557   2.749  0.0175  0.4523 -2.2615
  158OSM    H8T17679   4.567   5.495   2.802 -1.8670  0.2696 -2.7084
  158OSM    C9S17680   4.626   5.692   2.878 -0.3233 -0.5645  0.2467
  158OSM    H9S17681   4.519   5.722   2.885 -0.0183  0.2292  2.0777
  158OSM    H9T17682   4.677   5.779   2.831  0.3107 -1.1669 -0.1865
  158OSM   C10S17683   4.673   5.645   3.015 -0.8397 -0.8331  0.5626
  158OSM   H10S17684   4.782   5.667   3.018 -0.7106 -1.5660  2.2321
  158OSM   H10T17685   4.661   5.535   3.014  1.8140 -1.2806 -2.9479
  158OSM   C11S17686   4.596   5.711   3.126 -0.5861 -0.2262 -0.8735
  158OSM   H11S17687   4.492   5.676   3.113 -0.5229 -1.5482  1.4915
  158OSM   H11T17688   4.596   5.822   3.124 -0.0618 -0.1412  1.0878
  158OSM   C12S17689   4.643   5.669   3.264  0.2016 -0.2745  0.4495
  158OSM   H12S17690   4.736   5.727   3.285 -0.0761  0.8216 -1.2013
  158OSM   H12T17691   4.665   5.560   3.268  0.5694 -0.2281 -0.0766
  158OSM   C13S17692   4.532   5.696   3.370 -0.4041  0.0727 -0.0501
  158OSM   H13S17693   4.461   5.611   3.370 -1.1931  0.7059 -0.7232
  158OSM   H13T17694   4.479   5.791   3.348  0.1604  0.3967 -0.0348
  158OSM   C14S17695   4.599   5.715   3.502  0.1490  0.2395  0.1155
  158OSM   H14S17696   4.522   5.730   3.580  1.0822 -1.0014  1.3137
  158OSM   H14T17697   4.660   5.808   3.502 -1.6772  1.5078 -0.6649
  158OSM   C15S17698   4.690   5.598   3.537  0.5605 -0.0559 -0.0706
  158OSM   H15S17699   4.769   5.580   3.461 -0.6698 -1.8411 -1.0102
  158OSM   H15T17700   4.621   5.511   3.550 -1.6568  1.9681  3.4054
  158OSM   C16S17701   4.760   5.626   3.669  0.3698 -0.4890 -0.8809
  158OSM   H16S17702   4.698   5.630   3.761  0.6552  1.2357 -0.7270
  158OSM   H16T17703   4.812   5.724   3.680 -0.5905 -0.2479  2.6160
  158OSM   C17S17704   4.873   5.521   3.709 -0.0670  0.0193  0.6828
  158OSM   H17S17705   4.947   5.499   3.629 -0.6442  1.5161 -0.3155
  158OSM   H17T17706   4.818   5.429   3.737  1.6505 -0.4342  2.8149
  158OSM   C18S17707   4.949   5.579   3.831 -0.2209  0.6756  0.1195
  158OSM   H18S17708   4.874   5.618   3.903 -0.2691  1.1194 -0.1664
  158OSM   H18T17709   5.020   5.656   3.792  1.4256 -1.4003 -1.2383
  158OSM   H18U17710   5.011   5.509   3.890 -1.4557 -0.0782  0.5582
  158OSM    C1F17711   4.046   5.631   2.291  0.7479 -0.5256  0.6796
  158OSM     OF17712   4.013   5.532   2.235  0.6612  0.1560 -0.1815
  158OSM    C2F17713   3.943   5.719   2.354  0.6496  0.3208  0.1996
  158OSM    H2F17714   3.875   5.775   2.285 -1.1273  0.4159  1.9468
  158OSM    H2G17715   3.988   5.801   2.414 -0.3635 -0.3957  2.0044
  158OSM    C3F17716   3.861   5.652   2.463  0.2832  1.0059 -0.1786
  158OSM    H3F17717   3.824   5.550   2.440 -0.4159  0.8802  1.3663
  158OSM    H3G17718   3.767   5.709   2.482 -0.4136 -0.2234  0.1384
  158OSM    C4F17719   3.939   5.657   2.599  0.3875 -0.1666 -0.3374
  158OSM    H4F17720   3.874   5.620   2.680  0.1140  0.5014 -0.2416
  158OSM    H4G17721   3.971   5.761   2.625 -0.0925 -0.4202  1.3809
  158OSM    C5F17722   4.058   5.562   2.603  0.3808 -0.8800  0.0473
  158OSM    H5F17723   4.149   5.612   2.565 -1.6993  3.1142 -0.1811
  158OSM    H5G17724   4.043   5.478   2.532  1.1879 -0.1664 -0.9943
  158OSM    C6F17725   4.092   5.500   2.736 -0.4282 -0.6777 -0.1618
  158OSM    H6F17726   4.182   5.440   2.712  0.6032  0.7186  0.1018
  158OSM    H6G17727   4.006   5.441   2.774  0.7973 -1.0864  2.1729
  158OSM    C7F17728   4.130   5.609   2.843 -0.3383  0.2731  0.3713
  158OSM    H7F17729   4.037   5.655   2.882 -1.3495  0.6052 -2.2367
  158OSM    H7G17730   4.193   5.692   2.805 -0.4386 -0.0157 -0.4476
  158OSM    C8F17731   4.185   5.539   2.963  0.0623  0.1494  0.7607
  158OSM    H8F17732   4.221   5.618   3.032 -0.8345  0.0711  1.3411
  158OSM    H8G17733   4.275   5.487   2.925  0.5658  2.0669 -0.7803
  158OSM    C9F17734   4.087   5.441   3.027  0.2968 -1.2272  0.2309
  158OSM    H9F17735   4.053   5.353   2.972 -3.3479  0.4007 -0.4397
  158OSM   C10F17736   4.034   5.454   3.150  0.1763  0.8531  0.4692
  158OSM   H10F17737   3.944   5.393   3.166  0.1628  0.6655 -0.2700
  158OSM   C11F17738   4.058   5.556   3.257 -0.0282  0.1122 -0.8261
  158OSM   H11F17739   3.971   5.588   3.318 -1.0332 -0.2609 -2.0212
  158OSM   H11G17740   4.124   5.637   3.220 -0.3160  0.8613  0.2744
  158OSM   C12F17741   4.144   5.472   3.357  0.2892 -0.3997 -0.4430
  158OSM   H12F17742   4.244   5.449   3.316  0.8796  0.6238  0.3605
  158OSM   H12G17743   4.088   5.379   3.382  0.7483 -0.0030  2.4509
  158OSM   C13F17744   4.171   5.554   3.492  0.0060 -0.5571  0.2575
  158OSM   H13F17745   4.079   5.605   3.527  0.5272 -1.0456  2.4563
  158OSM   H13G17746   4.252   5.621   3.458 -1.0331 -0.0825 -1.4060
  158OSM   C14F17747   4.216   5.472   3.620  0.1340  0.6917  0.1625
  158OSM   H14F17748   4.302   5.406   3.599 -1.3165 -2.0116  2.0531
  158OSM   H14G17749   4.133   5.400   3.638  0.9936  0.1824  2.3851
  158OSM   C15F17750   4.237   5.551   3.754  0.4639  0.4763  0.4213
  158OSM   H15F17751   4.146   5.607   3.783  0.7902  1.2096  0.0682
  158OSM   H15G17752   4.309   5.635   3.748 -2.3474  3.4505  3.6413
  158OSM   C16F17753   4.294   5.454   3.862  0.0333 -0.4241 -0.1249
  158OSM   H16F17754   4.345   5.512   3.942  1.7621  1.3498 -2.4114
  158OSM   H16G17755   4.383   5.403   3.820  1.5792  1.3814  0.8019
  158OSM   C17F17756   4.198   5.354   3.923  0.7999  0.0314  0.7465
  158OSM   H17F17757   4.262   5.266   3.948  0.3087 -0.7130 -0.4718
  158OSM   H17G17758   4.131   5.319   3.841 -0.6669 -0.4119  2.0819
  158OSM   C18F17759   4.112   5.397   4.041 -0.2957 -0.7825  0.4326
  158OSM   H18F17760   4.039   5.468   3.997  0.8588 -0.6374 -1.3528
  158OSM   H18G17761   4.186   5.442   4.112  0.2534  0.6287 -0.9742
  158OSM   H18H17762   4.058   5.309   4.082 -0.2364 -0.7763  0.5257
  159OSM      N17763   6.605   1.545   1.294  0.7601 -0.3542  0.1455
  159OSM    C1517764   6.698   1.520   1.182  0.7525  0.2827 -0.0981
  159OSM   H15A17765   6.776   1.459   1.225  0.4987  0.8082  1.1594
  159OSM   H15B17766   6.738   1.610   1.137  0.4793 -0.4887 -1.9640
  159OSM   H15C17767   6.645   1.473   1.101 -1.1951  1.9375  0.1448
  159OSM    C1417768   6.493   1.630   1.243 -0.5212 -0.3871 -0.1609
  159OSM   H14A17769   6.422   1.631   1.324  0.7119 -1.1448  0.9605
  159OSM   H14B17770   6.450   1.583   1.156 -2.1992 -0.3826  0.6218
  159OSM   H14C17771   6.528   1.731   1.225  0.9077 -1.1245 -1.7582
  159OSM    C1317772   6.538   1.416   1.320  0.0541 -0.1369 -0.1095
  159OSM   H13A17773   6.586   1.355   1.395 -1.7086 -0.8044  0.5284
  159OSM   H13B17774   6.525   1.351   1.234  0.1824 -0.3668  0.0445
  159OSM   H13C17775   6.441   1.439   1.362  0.5508  0.1628  0.8969
  159OSM    C1217776   6.678   1.596   1.411 -0.4595  0.2350 -0.1845
  159OSM   H12A17777   6.719   1.693   1.389  1.8306 -0.7050 -0.4086
  159OSM   H12B17778   6.765   1.532   1.421 -0.6572  0.0477  0.3558
  159OSM    C1117779   6.595   1.598   1.548  0.6351 -0.0633  0.7986
  159OSM   H11A17780   6.548   1.499   1.564  0.6873  0.0095  1.4284
  159OSM   H11B17781   6.506   1.660   1.523 -0.3702 -0.8017  2.3317
  159OSM      P17782   6.792   1.583   1.696 -0.0572 -0.0476 -0.4407
  159OSM    O1317783   6.768   1.436   1.709  0.4858 -0.0613 -0.1828
  159OSM    O1417784   6.902   1.621   1.614 -0.3676  0.2291 -0.1088
  159OSM    O1117785   6.815   1.630   1.848  0.6253 -0.5771  0.0358
  159OSM    O1217786   6.668   1.659   1.647  0.1475  0.0056  0.0562
  159OSM    C1S17787   6.758   1.748   1.909 -0.3634  0.2474  0.4037
  159OSM    H1S17788   6.661   1.770   1.860  0.5256  1.5554 -0.8845
  159OSM    H1T17789   6.820   1.840   1.897 -0.7813  0.3533 -1.1555
  159OSM     NF17790   6.722   1.841   2.131 -0.7260  0.4332  0.8940
  159OSM    HNF17791   6.800   1.888   2.171  0.2925 -0.4459  0.0146
  159OSM    C2S17792   6.753   1.718   2.060 -0.2495 -0.6885  0.1589
  159OSM    H2S17793   6.662   1.657   2.082 -0.3618  0.0178  1.8778
  159OSM    C3S17794   6.871   1.627   2.112  0.4889 -0.1245  1.2221
  159OSM    H3S17795   6.969   1.674   2.092  0.1683 -0.1100 -0.4386
  159OSM     O317796   6.879   1.496   2.059  0.4741 -0.6691 -0.3799
  159OSM    HO317797   6.808   1.502   1.994 -0.2507 -0.0286  0.4534
  159OSM    C4S17798   6.862   1.616   2.262  0.2044 -0.0485 -0.1827
  159OSM    H4S17799   6.881   1.715   2.306 -0.3131 -0.0034 -0.0533
  159OSM    C5S17800   6.838   1.512   2.344  0.0645  0.8393  0.6712
  159OSM    H5S17801   6.833   1.414   2.295  1.1176  1.5156 -0.8516
  159OSM    C6S17802   6.802   1.516   2.489  0.0497  0.4011 -0.7355
  159OSM    H6S17803   6.721   1.443   2.510  2.0680 -0.9334  3.7732
  159OSM    H6T17804   6.767   1.614   2.526 -1.1325 -0.5936  0.9400
  159OSM    C7S17805   6.912   1.444   2.570 -0.1764 -0.2478 -0.3673
  159OSM    H7S17806   7.010   1.491   2.546  0.7097 -2.7019 -1.9025
  159OSM    H7T17807   6.932   1.339   2.542  0.5947 -0.3432  0.5020
  159OSM    C8S17808   6.876   1.440   2.719  0.0775  0.3553 -0.0894
  159OSM    H8S17809   6.947   1.367   2.764 -0.2492 -1.1970 -1.9918
  159OSM    H8T17810   6.782   1.382   2.717  0.3850 -0.1916  0.7869
  159OSM    C9S17811   6.852   1.577   2.798 -0.1918 -0.0573 -0.2165
  159OSM    H9S17812   6.758   1.631   2.773  0.1943  0.2630 -0.9763
  159OSM    H9T17813   6.945   1.635   2.784  0.2797 -0.1984  1.9591
  159OSM   C10S17814   6.844   1.534   2.947 -0.4441  0.7467 -0.1635
  159OSM   H10S17815   6.917   1.453   2.967  0.4515  1.7048  0.5349
  159OSM   H10T17816   6.750   1.477   2.964  1.3629 -1.9969  1.3742
  159OSM   C11S17817   6.865   1.637   3.053  0.4426  0.0757 -0.3133
  159OSM   H11S17818   6.793   1.720   3.035  0.4892  0.0800 -0.4806
  159OSM   H11T17819   6.969   1.674   3.045  0.3319  0.4188 -0.1992
  159OSM   C12S17820   6.834   1.590   3.196 -0.4079 -0.8339  0.6924
  159OSM   H12S17821   6.731   1.550   3.205 -0.1330 -1.4581  1.0862
  159OSM   H12T17822   6.833   1.678   3.264 -1.0767 -1.3619  1.3798
  159OSM   C13S17823   6.931   1.483   3.250  0.1443  0.3846  1.3665
  159OSM   H13S17824   7.032   1.529   3.262  0.6692 -0.2744 -0.1694
  159OSM   H13T17825   6.943   1.408   3.169 -1.0877  1.1097  0.4859
  159OSM   C14S17826   6.871   1.415   3.370  0.2577 -0.1552  0.1589
  159OSM   H14S17827   6.936   1.329   3.398  0.7217  0.4666  1.0262
  159OSM   H14T17828   6.771   1.379   3.339  0.9929 -0.6406 -1.7923
  159OSM   C15S17829   6.834   1.498   3.492  0.1349 -0.0212 -0.0379
  159OSM   H15S17830   6.747   1.565   3.474 -0.2397 -0.2258  0.9335
  159OSM   H15T17831   6.924   1.561   3.510  0.4801 -0.1800 -1.1613
  159OSM   C16S17832   6.804   1.410   3.615  0.2447 -0.0897  0.2420
  159OSM   H16S17833   6.766   1.311   3.583 -1.0947  0.3862  0.2983
  159OSM   H16T17834   6.725   1.466   3.669 -0.7013  0.5054 -1.6734
  159OSM   C17S17835   6.924   1.389   3.704  0.6565 -0.2312 -0.2813
  159OSM   H17S17836   6.965   1.491   3.722 -0.5945  0.0617  1.0324
  159OSM   H17T17837   6.999   1.333   3.643 -1.9473 -0.5170 -3.5073
  159OSM   C18S17838   6.880   1.321   3.836 -0.1731  0.1436 -0.1031
  159OSM   H18S17839   6.972   1.310   3.897  1.2544 -1.1095 -2.3069
  159OSM   H18T17840   6.836   1.219   3.826 -0.9201  0.5425 -1.0345
  159OSM   H18U17841   6.813   1.388   3.893 -0.8993 -2.0846  1.8116
  159OSM    C1F17842   6.613   1.908   2.120 -0.9236 -0.4036  0.6920
  159OSM     OF17843   6.517   1.858   2.058 -0.2564 -0.4711 -0.0080
  159OSM    C2F17844   6.623   2.051   2.180  0.5627  0.0190  0.1400
  159OSM    H2F17845   6.588   2.125   2.105  1.0673  0.2441  0.1236
  159OSM    H2G17846   6.729   2.070   2.205  0.5291 -1.0562  1.1795
  159OSM    C3F17847   6.544   2.071   2.306 -0.0605 -0.9491 -0.0155
  159OSM    H3F17848   6.438   2.038   2.302 -0.5323  0.4145  0.7687
  159OSM    H3G17849   6.539   2.181   2.319 -2.8670 -0.8222 -1.4354
  159OSM    C4F17850   6.617   2.018   2.435  0.4946 -0.2031 -0.1824
  159OSM    H4F17851   6.721   2.056   2.436  1.1035 -1.7873  0.0986
  159OSM    H4G17852   6.626   1.907   2.433  0.2414 -0.2145 -0.9710
  159OSM    C5F17853   6.554   2.043   2.570  0.3820 -0.8695 -0.5097
  159OSM    H5F17854   6.455   1.992   2.568 -0.2841  0.2506  1.4851
  159OSM    H5G17855   6.530   2.151   2.580 -1.7734 -1.4650  2.0195
  159OSM    C6F17856   6.635   1.984   2.687 -0.1410  0.0961  0.0680
  159OSM    H6F17857   6.720   2.045   2.724 -0.2422 -0.4934  1.3437
  159OSM    H6G17858   6.665   1.879   2.664 -2.9661 -0.9937  0.9075
  159OSM    C7F17859   6.538   1.970   2.810 -0.2096 -0.5476  0.2246
  159OSM    H7F17860   6.450   1.907   2.785 -1.2772  0.5252  1.1985
  159OSM    H7G17861   6.503   2.066   2.852 -0.9505 -1.0044  0.6771
  159OSM    C8F17862   6.612   1.899   2.922  0.5837  0.2062  0.6176
  159OSM    H8F17863   6.702   1.962   2.942  0.4614  0.3955  0.5733
  159OSM    H8G17864   6.654   1.803   2.884 -3.3472 -1.8111  0.8767
  159OSM    C9F17865   6.526   1.878   3.047  0.4255  0.9885 -0.8615
  159OSM    H9F17866   6.422   1.846   3.026  1.2069 -0.9261 -2.1523
  159OSM   C10F17867   6.565   1.912   3.175 -0.1508  0.5496  0.1034
  159OSM   H10F17868   6.495   1.890   3.257  0.5346  1.2653  0.9083
  159OSM   C11F17869   6.699   1.963   3.217 -0.3676  0.0585  0.1129
  159OSM   H11F17870   6.717   2.049   3.148 -0.2982 -0.3169 -0.3373
  159OSM   H11G17871   6.783   1.893   3.202  1.1573  1.2429  2.5496
  159OSM   C12F17872   6.711   2.008   3.364 -0.8434 -0.1783 -0.7134
  159OSM   H12F17873   6.623   2.074   3.376 -1.3926 -1.0530  0.2601
  159OSM   H12G17874   6.804   2.068   3.367 -0.4584 -0.7982 -0.0002
  159OSM   C13F17875   6.738   1.898   3.462 -0.5487 -0.0134 -0.2146
  159OSM   H13F17876   6.827   1.833   3.446 -0.0915  0.3856  0.5987
  159OSM   H13G17877   6.649   1.832   3.461 -1.4238  1.1015 -2.3089
  159OSM   C14F17878   6.756   1.956   3.614  0.1957  0.7913  0.7135
  159OSM   H14F17879   6.655   1.999   3.633  0.1328  1.5960 -1.1919
  159OSM   H14G17880   6.830   2.040   3.619  1.3927 -0.2115  0.2804
  159OSM   C15F17881   6.791   1.848   3.712 -0.7082 -0.2775 -0.2857
  159OSM   H15F17882   6.848   1.895   3.795  1.0042 -1.7536 -0.5613
  159OSM   H15G17883   6.849   1.772   3.655 -2.7446 -2.8430  0.8514
  159OSM   C16F17884   6.672   1.779   3.782  0.2956 -0.4919  1.1049
  159OSM   H16F17885   6.597   1.749   3.706 -0.2056  0.8703  1.0193
  159OSM   H16G17886   6.614   1.857   3.837 -0.3629  0.5151 -0.9176
  159OSM   C17F17887   6.724   1.669   3.865  0.2864 -0.3706  1.0949
  159OSM   H17F17888   6.789   1.721   3.938 -0.0671  0.1648  1.0322
  159OSM   H17G17889   6.794   1.607   3.804 -0.8309 -0.1298 -0.4901
  159OSM   C18F17890   6.616   1.594   3.939 -0.0722  0.1274  0.0446
  159OSM   H18F17891   6.592   1.663   4.023  1.8301  0.6296  0.2380
  159OSM   H18G17892   6.656   1.495   3.970  1.2043  1.0569  1.5402
  159OSM   H18H17893   6.519   1.581   3.887 -1.3634 -1.0683  2.5674
  160OSM      N17894   2.161   6.222   1.698  0.3963 -0.3557 -0.4094
  160OSM    C1517895   2.132   6.144   1.576  0.1095 -0.2775 -0.3526
  160OSM   H15A17896   2.099   6.204   1.491  0.2108 -1.1325 -1.0081
  160OSM   H15B17897   2.054   6.075   1.602  0.4365 -0.0493  1.3488
  160OSM   H15C17898   2.221   6.090   1.547  0.9846 -1.1356  3.4679
  160OSM    C1417899   2.239   6.346   1.658 -0.1284 -0.1934 -0.0302
  160OSM   H14A17900   2.335   6.322   1.616  0.5176  0.9288  0.7441
  160OSM   H14B17901   2.255   6.404   1.748 -1.9552 -0.7832  0.7167
  160OSM   H14C17902   2.181   6.400   1.585 -0.5169  0.2644  0.6115
  160OSM    C1317903   2.027   6.254   1.752 -0.4661 -0.1872 -0.2668
  160OSM   H13A17904   1.975   6.323   1.686  0.9758  1.8817  0.6530
  160OSM   H13B17905   2.021   6.311   1.843 -0.5073  0.3781 -0.6163
  160OSM   H13C17906   1.965   6.166   1.764  1.9101 -1.7763  1.0895
  160OSM    C1217907   2.242   6.141   1.794 -0.0550 -0.1627 -0.0844
  160OSM   H12A17908   2.343   6.148   1.758 -0.1780  0.2068 -0.3705
  160OSM   H12B17909   2.214   6.037   1.791  2.8079 -1.0002 -2.2506
  160OSM    C1117910   2.254   6.190   1.941  0.2744 -0.3848  0.4403
  160OSM   H11A17911   2.314   6.109   1.988 -1.0749 -1.6088  0.1545
  160OSM   H11B17912   2.155   6.192   1.992 -0.5300 -0.5151 -1.0577
  160OSM      P17913   2.473   6.345   1.974  0.0648 -0.0342  0.1904
  160OSM    O1317914   2.553   6.231   1.924  0.2935  0.3568 -0.4990
  160OSM    O1417915   2.497   6.477   1.916 -0.1971 -0.0924 -0.3156
  160OSM    O1117916   2.481   6.354   2.132 -0.7011 -0.1508 -0.2542
  160OSM    O1217917   2.312   6.323   1.955 -0.2557 -0.2618  0.0585
  160OSM    C1S17918   2.389   6.302   2.225  0.0263 -0.1579 -0.9092
  160OSM    H1S17919   2.365   6.199   2.190  2.3545 -1.8029  1.8307
  160OSM    H1T17920   2.304   6.372   2.220 -0.9553 -1.2622 -0.2767
  160OSM     NF17921   2.393   6.369   2.458  0.1440  0.4951 -0.1873
  160OSM    HNF17922   2.445   6.444   2.499  1.1813 -0.5130  0.3791
  160OSM    C2S17923   2.447   6.274   2.368  0.3964 -0.8537  0.0122
  160OSM    H2S17924   2.409   6.174   2.400  2.3129 -2.2595 -1.8140
  160OSM    C3S17925   2.606   6.254   2.356  0.5358 -0.3477 -0.4033
  160OSM    H3S17926   2.651   6.348   2.318  0.4334 -0.3816 -0.6133
  160OSM     O317927   2.633   6.148   2.263 -0.5733  0.1709  0.1555
  160OSM    HO317928   2.551   6.123   2.221 -0.0397 -0.2224 -0.6790
  160OSM    C4S17929   2.663   6.218   2.495 -0.0892  0.1418  0.8044
  160OSM    H4S17930   2.644   6.117   2.535 -0.5986  0.2251  0.7758
  160OSM    C5S17931   2.726   6.306   2.580  0.0626 -0.2262  0.1638
  160OSM    H5S17932   2.754   6.409   2.553  1.3627 -0.1312  1.7222
  160OSM    C6S17933   2.778   6.255   2.712 -0.0273  0.3836 -0.1848
  160OSM    H6S17934   2.886   6.277   2.720  0.0268 -0.1384  0.5900
  160OSM    H6T17935   2.761   6.146   2.719  1.4856  0.1186 -0.2735
  160OSM    C7S17936   2.703   6.319   2.833 -0.1980  0.4407  0.4322
  160OSM    H7S17937   2.595   6.303   2.812 -0.0354  1.1561 -1.1424
  160OSM    H7T17938   2.728   6.427   2.837 -0.1235  0.4920 -0.8450
  160OSM    C8S17939   2.731   6.231   2.963 -0.1708 -0.1791  1.0983
  160OSM    H8S17940   2.840   6.230   2.985  0.4329 -0.4789 -1.5312
  160OSM    H8T17941   2.710   6.129   2.925 -0.7233  0.7867 -1.4227
  160OSM    C9S17942   2.645   6.262   3.091  0.0264  0.3224 -0.3829
  160OSM    H9S17943   2.539   6.285   3.070  0.5586  2.1671 -1.3021
  160OSM    H9T17944   2.689   6.354   3.136 -0.3030 -0.3950  1.5366
  160OSM   C10S17945   2.666   6.143   3.194  0.0320 -0.4795 -0.0908
  160OSM   H10S17946   2.616   6.057   3.145 -0.2395  0.4666 -1.5322
  160OSM   H10T17947   2.606   6.162   3.286  1.0887  3.0136  0.0048
  160OSM   C11S17948   2.808   6.103   3.231 -0.3847  0.7008  0.3875
  160OSM   H11S17949   2.882   6.092   3.149 -0.2085  1.6713  0.4073
  160OSM   H11T17950   2.812   6.010   3.291  0.3419  1.4530  1.5292
  160OSM   C12S17951   2.882   6.202   3.329 -0.0189 -0.1561  0.4157
  160OSM   H12S17952   2.826   6.208   3.424 -0.3818  0.1772  0.1821
  160OSM   H12T17953   2.878   6.305   3.288 -2.1614 -0.9373 -1.5939
  160OSM   C13S17954   3.030   6.155   3.356  1.4780 -0.3534  0.4129
  160OSM   H13S17955   3.092   6.121   3.270  1.3843 -0.8550  0.5385
  160OSM   H13T17956   3.023   6.067   3.424  0.1418 -1.0908 -0.6293
  160OSM   C14S17957   3.109   6.264   3.410 -1.0451 -1.0681 -1.1073
  160OSM   H14S17958   3.084   6.358   3.356  0.6796  1.0611  1.5036
  160OSM   H14T17959   3.219   6.246   3.408 -0.4142  1.7931  0.6629
  160OSM   C15S17960   3.081   6.298   3.558  0.0588  0.1246  0.4968
  160OSM   H15S17961   2.970   6.302   3.566  0.0837 -0.9145  1.8708
  160OSM   H15T17962   3.117   6.400   3.587 -0.3031  0.7231 -1.0716
  160OSM   C16S17963   3.134   6.186   3.651 -0.4119 -0.6130 -0.4542
  160OSM   H16S17964   3.244   6.191   3.642 -0.2620  0.9689  1.5255
  160OSM   H16T17965   3.093   6.087   3.619  2.2953 -1.8046 -0.4685
  160OSM   C17S17966   3.097   6.217   3.797  0.0055  0.1027 -0.1893
  160OSM   H17S17967   2.987   6.205   3.807  0.2001 -1.6709  0.1931
  160OSM   H17T17968   3.114   6.323   3.826 -1.1022  0.6418 -1.4090
  160OSM   C18S17969   3.162   6.123   3.904  0.4275  0.2402 -0.0135
  160OSM   H18S17970   3.272   6.138   3.899  0.8798 -2.7492 -0.6419
  160OSM   H18T17971   3.142   6.017   3.880  2.4595 -0.0853 -0.4687
  160OSM   H18U17972   3.129   6.141   4.009  0.9321 -1.1309  0.4053
  160OSM    C1F17973   2.262   6.370   2.481  0.7109 -0.0355  0.8462
  160OSM     OF17974   2.202   6.263   2.464  0.5412 -0.2549  0.3213
  160OSM    C2F17975   2.197   6.495   2.522  0.5184 -0.0043 -0.0219
  160OSM    H2F17976   2.127   6.520   2.441  2.1769  1.5282 -1.0517
  160OSM    H2G17977   2.260   6.579   2.559 -0.1671 -0.0461  1.3096
  160OSM    C3F17978   2.110   6.461   2.645 -0.2930 -0.2278 -0.2369
  160OSM    H3F17979   2.042   6.376   2.623  0.0196  0.0450 -2.5286
  160OSM    H3G17980   2.053   6.553   2.669  1.2299  0.1914  2.0779
  160OSM    C4F17981   2.190   6.433   2.765 -0.2447 -0.5056 -0.4996
  160OSM    H4F17982   2.251   6.341   2.752 -1.2176 -1.6231  2.1104
  160OSM    H4G17983   2.114   6.404   2.840  0.4969 -0.9209  0.1023
  160OSM    C5F17984   2.267   6.552   2.831  0.2530 -0.6509  0.5167
  160OSM    H5F17985   2.191   6.632   2.845 -0.0168 -0.5365 -1.2995
  160OSM    H5G17986   2.351   6.566   2.759  0.1454 -0.9028  0.3381
  160OSM    C6F17987   2.318   6.506   2.968 -0.1254  0.1938 -0.3013
  160OSM    H6F17988   2.373   6.409   2.970 -1.7260 -0.7416  0.0971
  160OSM    H6G17989   2.236   6.486   3.040 -0.7670  3.6755  0.1192
  160OSM    C7F17990   2.409   6.617   3.029 -0.5198 -0.2997 -0.4902
  160OSM    H7F17991   2.375   6.709   2.979 -1.5279  0.7690  1.9935
  160OSM    H7G17992   2.509   6.595   2.986  0.3081  1.7591  0.2664
  160OSM    C8F17993   2.404   6.626   3.183  0.3392 -0.2429  0.0705
  160OSM    H8F17994   2.414   6.523   3.225 -0.1155  0.0178  0.8364
  160OSM    H8G17995   2.309   6.671   3.217  1.2854  0.5086  1.8570
  160OSM    C9F17996   2.522   6.705   3.234 -0.7655  0.6979  0.6821
  160OSM    H9F17997   2.578   6.751   3.151 -2.5888  0.0579 -1.0024
  160OSM   C10F17998   2.547   6.734   3.363  0.0689  0.0559 -0.1250
  160OSM   H10F17999   2.625   6.807   3.387 -0.7059  1.3514 -1.4060
  160OSM   C11F18000   2.466   6.689   3.472  0.0434  0.1535  0.8552
  160OSM   H11F18001   2.385   6.624   3.431 -1.8728  3.8082 -1.6914
  160OSM   H11G18002   2.417   6.782   3.509 -2.1227  0.0705 -1.4973
  160OSM   C12F18003   2.537   6.616   3.581 -0.2926  0.3464 -0.3294
  160OSM   H12F18004   2.482   6.621   3.677  1.9798  2.8288  0.9562
  160OSM   H12G18005   2.630   6.675   3.593 -0.1128  0.0705 -0.3570
  160OSM   C13F18006   2.575   6.473   3.547 -0.2898 -0.5494  0.4114
  160OSM   H13F18007   2.647   6.467   3.462  0.5945 -3.0437  1.2354
  160OSM   H13G18008   2.486   6.414   3.518 -0.7926  1.0197 -1.4093
  160OSM   C14F18009   2.655   6.405   3.659 -0.0890 -0.5209  0.0971
  160OSM   H14F18010   2.746   6.460   3.691 -0.3088  0.6173 -1.1184
  160OSM   H14G18011   2.687   6.304   3.626 -1.4300 -0.4256 -1.6556
  160OSM   C15F18012   2.565   6.391   3.784 -0.1543  0.2391  0.0911
  160OSM   H15F18013   2.463   6.375   3.743 -1.7127  2.1939  2.9356
  160OSM   H15G18014   2.553   6.481   3.848 -2.7709 -0.0678  0.1586
  160OSM   C16F18015   2.600   6.261   3.869  0.0571 -0.3279 -0.7998
  160OSM   H16F18016   2.521   6.258   3.947  0.6339  0.5212 -0.1639
  160OSM   H16G18017   2.697   6.280   3.920 -0.6867 -1.7734  1.2697
  160OSM   C17F18018   2.604   6.125   3.795  0.2463  0.1730  0.3785
  160OSM   H17F18019   2.697   6.124   3.736 -0.3215  0.1507 -0.5352
  160OSM   H17G18020   2.530   6.120   3.712  2.5320 -0.8824 -1.7169
  160OSM   C18F18021   2.573   6.018   3.900 -0.4645  0.9929  0.4690
  160OSM   H18F18022   2.479   6.054   3.946 -1.2000 -0.3283  0.0527
  160OSM   H18G18023   2.641   6.021   3.987  0.9813 -0.5924 -0.5483
  160OSM   H18H18024   2.564   5.913   3.865  0.5872  0.7406  0.9229
  161OSM      N18025   0.438   4.955   2.107  0.5749  0.5160  0.9003
  161OSM    C1518026   0.397   4.913   1.973 -0.5079  0.0794 -0.0822
  161OSM   H15A18027   0.347   4.999   1.931 -0.2248  0.7331  0.8739
  161OSM   H15B18028   0.334   4.825   1.967  1.3494 -1.4473  1.4975
  161OSM   H15C18029   0.481   4.910   1.906 -0.9150  3.9362 -1.0110
  161OSM    C1418030   0.475   4.829   2.176  0.2325  0.4781 -0.1932
  161OSM   H14A18031   0.425   4.738   2.149 -0.7641  0.5575  1.2181
  161OSM   H14B18032   0.485   4.843   2.283  0.5996  0.5717 -0.2397
  161OSM   H14C18033   0.573   4.799   2.142 -1.1375 -2.5605 -1.7515
  161OSM    C1318034   0.553   5.057   2.098 -0.4895 -0.3957 -0.3427
  161OSM   H13A18035   0.631   5.033   2.027 -2.7629 -2.2887 -2.3934
  161OSM   H13B18036   0.596   5.050   2.197 -0.8183  1.6980 -0.0081
  161OSM   H13C18037   0.512   5.154   2.073  0.4396 -0.7364 -3.7559
  161OSM    C1218038   0.319   5.018   2.180 -0.0022  0.1958  0.0182
  161OSM   H12A18039   0.344   5.044   2.282  0.4556 -1.1843  0.2889
  161OSM   H12B18040   0.252   4.934   2.191  1.0152 -0.4499  1.6764
  161OSM    C1118041   0.247   5.139   2.126  0.2397 -0.4050 -0.2981
  161OSM   H11A18042   0.328   5.212   2.102 -0.6556  0.2182 -1.5602
  161OSM   H11B18043   0.178   5.180   2.202  0.1601  1.6636 -1.3849
  161OSM      P18044   0.095   5.227   1.938  0.1014 -0.4845 -0.0746
  161OSM    O1318045   0.186   5.321   1.873  0.6660  0.4676  0.1591
  161OSM    O1418046  -0.002   5.155   1.854  0.0920 -0.5778 -0.3491
  161OSM    O1118047   0.018   5.307   2.054 -0.3284 -0.1999 -0.2668
  161OSM    O1218048   0.178   5.111   2.010 -0.2553  0.2607 -0.8081
  161OSM    C1S18049  -0.059   5.241   2.149  0.5989 -0.1191  0.5614
  161OSM    H1S18050  -0.024   5.139   2.176 -1.7927 -0.9073  0.9494
  161OSM    H1T18051  -0.159   5.228   2.103  1.2587  1.0047 -1.2924
  161OSM     NF18052  -0.147   5.231   2.371  0.3599 -0.2393 -0.4112
  161OSM    HNF18053  -0.246   5.236   2.384  0.5325  1.2705  0.6728
  161OSM    C2S18054  -0.081   5.321   2.281 -0.1747  0.2307  1.0064
  161OSM    H2S18055   0.022   5.352   2.311  0.2404  1.6184 -1.5345
  161OSM    C3S18056  -0.162   5.453   2.253  0.3990  0.1845  0.2111
  161OSM    H3S18057  -0.264   5.430   2.216  0.2784  2.8129 -1.3547
  161OSM     O318058  -0.113   5.530   2.140 -0.1779  0.1623  0.0172
  161OSM    HO318059  -0.070   5.464   2.085  0.7559  1.4197 -0.7912
  161OSM    C4S18060  -0.177   5.527   2.375  0.5811 -0.2157 -0.1097
  161OSM    H4S18061  -0.088   5.587   2.397 -0.2526  0.5644  1.3275
  161OSM    C5S18062  -0.280   5.532   2.459  0.3527  0.5770  0.2168
  161OSM    H5S18063  -0.368   5.478   2.421  1.4779 -1.0436 -0.2097
  161OSM    C6S18064  -0.275   5.615   2.585  0.5961  0.4871 -0.1717
  161OSM    H6S18065  -0.365   5.678   2.572  1.3494  1.2018 -2.3128
  161OSM    H6T18066  -0.191   5.687   2.590 -0.2790  1.4288  2.3378
  161OSM    C7S18067  -0.306   5.541   2.719 -0.0746  0.3674  0.4032
  161OSM    H7S18068  -0.410   5.503   2.712 -0.3109  1.2942 -2.7508
  161OSM    H7T18069  -0.297   5.613   2.803  0.5430  0.3733  0.3317
  161OSM    C8S18070  -0.215   5.423   2.750  0.5488 -0.3910  0.6607
  161OSM    H8S18071  -0.110   5.460   2.759  0.1660  0.6437  0.9293
  161OSM    H8T18072  -0.211   5.342   2.674  0.9661 -0.2132  0.4909
  161OSM    C9S18073  -0.263   5.349   2.870 -0.6850  0.0834  0.2255
  161OSM    H9S18074  -0.226   5.244   2.862 -0.5513 -0.0855  2.4126
  161OSM    H9T18075  -0.373   5.336   2.867 -1.0265  2.2538  1.5376
  161OSM   C10S18076  -0.238   5.410   3.007 -0.3671 -0.7540 -0.0444
  161OSM   H10S18077  -0.300   5.352   3.079 -0.7967  0.7924  0.8629
  161OSM   H10T18078  -0.255   5.519   3.011  0.5467 -0.6271  0.5566
  161OSM   C11S18079  -0.098   5.375   3.059  0.2982 -0.4280  0.5556
  161OSM   H11S18080  -0.016   5.435   3.015 -1.0903  0.4967 -0.8587
  161OSM   H11T18081  -0.061   5.274   3.029  1.3464  0.2018 -0.3466
  161OSM   C12S18082  -0.082   5.400   3.208  0.0236  0.0893 -0.5417
  161OSM   H12S18083  -0.141   5.315   3.249  0.4032  0.7492  1.5053
  161OSM   H12T18084  -0.131   5.495   3.236 -1.9151 -0.5379 -1.6670
  161OSM   C13S18085   0.069   5.395   3.249 -0.3511  0.1227 -0.1568
  161OSM   H13S18086   0.120   5.485   3.207  0.0147 -1.1038 -2.4944
  161OSM   H13T18087   0.104   5.305   3.194 -0.6695  0.3504 -0.7478
  161OSM   C14S18088   0.093   5.391   3.397 -0.0702 -0.5491  0.9967
  161OSM   H14S18089   0.018   5.452   3.452 -0.2752 -1.3708  1.6659
  161OSM   H14T18090   0.188   5.447   3.409 -0.5171  0.9910 -1.8715
  161OSM   C15S18091   0.100   5.245   3.443  0.3167  0.3545  0.1670
  161OSM   H15S18092   0.189   5.194   3.399 -0.7263 -1.6740  0.3208
  161OSM   H15T18093   0.009   5.194   3.405  1.9874 -1.8788 -1.1124
  161OSM   C16S18094   0.108   5.218   3.594  0.0427  0.0774 -0.2377
  161OSM   H16S18095   0.200   5.266   3.634  0.8881  1.1158 -3.1452
  161OSM   H16T18096   0.132   5.111   3.611  1.9443  0.2993 -1.1635
  161OSM   C17S18097  -0.019   5.249   3.686  0.7169  0.1458  1.3771
  161OSM   H17S18098   0.001   5.180   3.772  2.1823  2.4377  3.0012
  161OSM   H17T18099  -0.103   5.210   3.625  4.0721 -2.5782 -2.0564
  161OSM   C18S18100  -0.034   5.389   3.747 -0.4038  0.5253 -0.8692
  161OSM   H18S18101  -0.139   5.425   3.735  0.4923  3.1511 -1.6280
  161OSM   H18T18102   0.026   5.451   3.677 -1.2876 -1.3300 -3.4222
  161OSM   H18U18103  -0.000   5.393   3.853 -0.4224 -2.4792 -0.6856
  161OSM    C1F18104  -0.095   5.130   2.428 -1.1343  1.2588  0.5029
  161OSM     OF18105   0.019   5.094   2.400  0.3883 -0.2642 -0.2598
  161OSM    C2F18106  -0.178   5.040   2.515 -0.1604 -0.4889  0.6109
  161OSM    H2F18107  -0.215   4.958   2.450 -0.4175  0.0638  0.0492
  161OSM    H2G18108  -0.268   5.094   2.553 -1.5598 -1.0335 -1.7756
  161OSM    C3F18109  -0.097   4.981   2.636 -0.0596 -0.0015 -0.4896
  161OSM    H3F18110  -0.065   5.076   2.683  3.0276 -1.0291 -0.3253
  161OSM    H3G18111  -0.015   4.917   2.597  0.5498  1.0709 -0.9883
  161OSM    C4F18112  -0.187   4.914   2.741 -0.0380  0.1212  0.1076
  161OSM    H4F18113  -0.246   4.833   2.692  1.1867 -0.6677 -0.0962
  161OSM    H4G18114  -0.261   4.991   2.772 -2.6709 -1.0661 -2.6412
  161OSM    C5F18115  -0.117   4.844   2.857 -0.5687  0.2573  0.4445
  161OSM    H5F18116  -0.027   4.797   2.812 -1.8859 -0.2716 -1.7839
  161OSM    H5G18117  -0.173   4.753   2.884 -1.9292  0.9581  0.0640
  161OSM    C6F18118  -0.080   4.929   2.977 -0.2264 -0.6333  0.4309
  161OSM    H6F18119  -0.011   5.011   2.949 -1.2755  0.6561  1.4650
  161OSM    H6G18120  -0.023   4.858   3.040  0.2629 -1.3660 -0.7873
  161OSM    C7F18121  -0.203   4.974   3.056  0.1624  0.0876 -1.0149
  161OSM    H7F18122  -0.272   4.888   3.069 -0.9445  1.0557 -0.2209
  161OSM    H7G18123  -0.257   5.048   2.993  0.2814  1.2813  0.2330
  161OSM    C8F18124  -0.163   5.022   3.196 -0.1843  0.1830 -0.0571
  161OSM    H8F18125  -0.095   5.108   3.180 -0.9606  0.4087 -2.4799
  161OSM    H8G18126  -0.106   4.939   3.244  0.2024  1.7706  2.4519
  161OSM    C9F18127  -0.275   5.069   3.290 -0.6850 -0.2721  0.3719
  161OSM    H9F18128  -0.338   5.147   3.244  0.8156  1.9041  1.7818
  161OSM   C10F18129  -0.305   5.024   3.417  0.1070 -0.3708 -0.5098
  161OSM   H10F18130  -0.389   5.070   3.471  0.5135  0.8797 -0.9052
  161OSM   C11F18131  -0.221   4.932   3.498 -0.6093  0.3634  0.2049
  161OSM   H11F18132  -0.114   4.953   3.481 -0.6140  1.0362  0.9322
  161OSM   H11G18133  -0.241   4.832   3.454  3.4412 -0.3212 -0.4688
  161OSM   C12F18134  -0.239   4.941   3.651 -0.0936 -0.1653  0.7705
  161OSM   H12F18135  -0.223   5.047   3.680 -1.1440  0.7437 -1.6796
  161OSM   H12G18136  -0.159   4.872   3.685 -0.9418 -1.3111  0.4924
  161OSM   C13F18137  -0.378   4.900   3.702 -0.0047  0.3452  0.4705
  161OSM   H13F18138  -0.394   4.795   3.671 -0.5336 -0.2191  2.4645
  161OSM   H13G18139  -0.445   4.976   3.656  1.4080 -0.5609 -3.4378
  161OSM   C14F18140  -0.396   4.903   3.854 -0.2278  0.7194 -0.4579
  161OSM   H14F18141  -0.404   5.011   3.881  1.2997  0.4326  1.3031
  161OSM   H14G18142  -0.306   4.866   3.907 -0.4493  0.2743 -0.3888
  161OSM   C15F18143  -0.522   4.838   3.907 -0.1969 -0.5445  0.0114
  161OSM   H15F18144  -0.525   4.727   3.916 -1.2966 -0.4869  0.5090
  161OSM   H15G18145  -0.603   4.858   3.834  0.5574 -2.9750 -1.5983
  161OSM   C16F18146  -0.545   4.891   4.053  0.0597  0.2257  0.2347
  161OSM   H16F18147  -0.547   5.001   4.040  0.6487  0.2096 -0.0436
  161OSM   H16G18148  -0.469   4.845   4.120 -0.4072  0.1341  0.7087
  161OSM   C17F18149  -0.678   4.847   4.123 -0.3071 -0.5539  0.8107
  161OSM   H17F18150  -0.668   4.870   4.231  0.6051  1.5314  0.3350
  161OSM   H17G18151  -0.693   4.738   4.107 -0.5803 -0.5963  1.3315
  161OSM   C18F18152  -0.797   4.927   4.070 -0.2126 -0.2678  0.2710
  161OSM   H18F18153  -0.822   4.893   3.967  1.2568 -0.0134 -0.1879
  161OSM   H18G18154  -0.775   5.036   4.074 -0.6788 -0.1975  1.2667
  161OSM   H18H18155  -0.878   4.895   4.139  0.0310 -2.5444 -0.4219
  162OSM      N18156   0.817   0.395   1.925  0.4142  0.2226  0.5672
  162OSM    C1518157   0.876   0.308   1.822  0.7059  0.6050  0.1022
  162OSM   H15A18158   0.819   0.331   1.733  1.2584  0.8092 -0.2010
  162OSM   H15B18159   0.887   0.205   1.853 -0.2400  0.4130 -0.1494
  162OSM   H15C18160   0.974   0.345   1.798  0.1453  1.4223 -1.0570
  162OSM    C1418161   0.863   0.534   1.897  0.0503 -0.1703 -0.2384
  162OSM   H14A18162   0.812   0.559   1.805 -2.9923 -2.1010  0.7748
  162OSM   H14B18163   0.968   0.543   1.872 -0.4692 -1.4207 -3.2561
  162OSM   H14C18164   0.837   0.597   1.981  1.2465 -1.0114  0.7983
  162OSM    C1318165   0.670   0.397   1.917  0.9057  0.0231 -0.3282
  162OSM   H13A18166   0.626   0.469   1.984  2.3983  1.4243 -0.7714
  162OSM   H13B18167   0.620   0.305   1.942  0.1662  0.0866 -1.4879
  162OSM   H13C18168   0.638   0.426   1.818  3.2303  1.5935 -0.7164
  162OSM    C1218169   0.858   0.348   2.065  0.0688  0.0319  0.5616
  162OSM   H12A18170   0.814   0.404   2.146 -0.9935  1.1259 -0.7125
  162OSM   H12B18171   0.959   0.385   2.073 -0.0230  0.8499 -1.4675
  162OSM    C1118172   0.847   0.203   2.109 -0.2187 -0.8118  0.4212
  162OSM   H11A18173   0.877   0.199   2.216  2.6137 -0.4696 -0.2786
  162OSM   H11B18174   0.918   0.141   2.050 -0.3647 -1.7857  1.2482
  162OSM      P18175   0.663   0.025   2.021 -0.1252  0.3265  0.0306
  162OSM    O1318176   0.526  -0.006   2.065  0.0183 -0.1505  0.3302
  162OSM    O1418177   0.697   0.041   1.876  0.2334 -0.1405  0.2052
  162OSM    O1118178   0.768  -0.075   2.084 -0.0734  0.2960  0.1865
  162OSM    O1218179   0.712   0.157   2.096  0.0861  0.0525 -0.6261
  162OSM    C1S18180   0.782  -0.075   2.228  0.1518  0.2161 -0.8753
  162OSM    H1S18181   0.781   0.025   2.275 -2.0166  0.3979 -1.1994
  162OSM    H1T18182   0.885  -0.112   2.246  0.7492  2.6947  1.4566
  162OSM     NF18183   0.697  -0.156   2.449  0.2832  0.3349 -0.0701
  162OSM    HNF18184   0.747  -0.221   2.505 -1.3234 -0.3750  0.6176
  162OSM    C2S18185   0.694  -0.179   2.302  0.4362  0.2825  0.7022
  162OSM    H2S18186   0.588  -0.157   2.279  0.4727 -0.5643 -0.3653
  162OSM    C3S18187   0.730  -0.332   2.262  0.6192  0.0189  0.1753
  162OSM    H3S18188   0.827  -0.355   2.310 -1.3257 -0.7894  4.1739
  162OSM     O318189   0.746  -0.360   2.120 -0.3400 -0.5476  0.1022
  162OSM    HO318190   0.722  -0.276   2.079  1.4083 -0.2808 -0.4532
  162OSM    C4S18191   0.610  -0.416   2.320 -0.0136  0.3577 -0.1184
  162OSM    H4S18192   0.511  -0.389   2.280 -0.1793 -4.0353 -3.4248
  162OSM    C5S18193   0.635  -0.531   2.388 -0.7743  0.0501  0.0420
  162OSM    H5S18194   0.741  -0.536   2.417 -1.0549 -1.8501  0.8778
  162OSM    C6S18195   0.539  -0.634   2.437 -0.4729 -0.3998 -0.0951
  162OSM    H6S18196   0.589  -0.727   2.402 -0.4340 -0.0130 -1.0992
  162OSM    H6T18197   0.434  -0.633   2.401 -0.6888 -1.4421  0.4586
  162OSM    C7S18198   0.519  -0.631   2.590 -0.2856 -0.2827 -0.1513
  162OSM    H7S18199   0.500  -0.529   2.627  0.2983 -0.5935  1.0782
  162OSM    H7T18200   0.618  -0.660   2.633 -0.7192  1.2204  1.9849
  162OSM    C8S18201   0.406  -0.717   2.641  0.3397  0.3346 -0.8075
  162OSM    H8S18202   0.402  -0.821   2.603 -1.8754 -0.4045  1.2385
  162OSM    H8T18203   0.309  -0.673   2.611  0.4886  0.6207 -0.8782
  162OSM    C9S18204   0.401  -0.735   2.794 -0.0706  0.6897 -0.4118
  162OSM    H9S18205   0.300  -0.779   2.804  0.7240 -1.2534 -0.2877
  162OSM    H9T18206   0.395  -0.638   2.847 -2.1755 -0.4803  1.6784
  162OSM   C10S18207   0.514  -0.812   2.855 -0.7933  0.1203 -0.2828
  162OSM   H10S18208   0.610  -0.765   2.825 -1.6620  1.8829 -0.4301
  162OSM   H10T18209   0.507  -0.911   2.805  2.7978 -0.3209 -0.2299
  162OSM   C11S18210   0.508  -0.841   3.009 -0.2392  0.2241  0.4276
  162OSM   H11S18211   0.602  -0.887   3.046 -0.0674  0.5690  0.4216
  162OSM   H11T18212   0.435  -0.920   3.036 -0.5532  0.1977 -0.4469
  162OSM   C12S18213   0.466  -0.711   3.092 -0.2233 -0.3324 -0.0548
  162OSM   H12S18214   0.362  -0.686   3.062 -0.4969 -1.4115 -0.0781
  162OSM   H12T18215   0.516  -0.616   3.065 -2.3633  1.4934  2.0490
  162OSM   C13S18216   0.472  -0.724   3.245  0.5141 -0.8090 -0.1919
  162OSM   H13S18217   0.578  -0.732   3.276  0.8149  0.6716 -0.7811
  162OSM   H13T18218   0.418  -0.815   3.278  1.0359 -1.2301 -0.4656
  162OSM   C14S18219   0.418  -0.619   3.334 -0.1429  0.1807  0.1150
  162OSM   H14S18220   0.309  -0.621   3.317 -0.1426  0.8562  0.0443
  162OSM   H14T18221   0.447  -0.516   3.306 -0.4900  0.3998  0.5586
  162OSM   C15S18222   0.455  -0.627   3.485  0.0078  0.2119  0.2791
  162OSM   H15S18223   0.418  -0.530   3.525  1.3321  1.1061 -0.5919
  162OSM   H15T18224   0.566  -0.629   3.484  0.0618  1.5984 -1.2384
  162OSM   C16S18225   0.394  -0.738   3.563  0.3058  0.5489 -0.1133
  162OSM   H16S18226   0.452  -0.793   3.640 -0.7052  0.8093  0.8571
  162OSM   H16T18227   0.376  -0.819   3.489  1.1682  1.3892 -1.2800
  162OSM   C17S18228   0.250  -0.708   3.610  0.3010  0.0201 -0.0400
  162OSM   H17S18229   0.196  -0.651   3.532  0.1186  1.2747  0.9760
  162OSM   H17T18230   0.257  -0.632   3.691 -0.0172  0.5732 -0.5279
  162OSM   C18S18231   0.172  -0.822   3.668 -0.2072  0.3157  0.6223
  162OSM   H18S18232   0.074  -0.844   3.619 -0.6971 -0.6091  1.9506
  162OSM   H18T18233   0.151  -0.808   3.776 -0.9305  1.0446  0.4029
  162OSM   H18U18234   0.223  -0.920   3.661  0.0440  0.4411  0.7013
  162OSM    C1F18235   0.631  -0.057   2.510 -0.3326 -0.1858  0.1894
  162OSM     OF18236   0.547   0.005   2.446  0.4347  0.1876  0.2250
  162OSM    C2F18237   0.644  -0.048   2.657  0.2604 -0.0276  0.1138
  162OSM    H2F18238   0.699  -0.137   2.694  0.3181 -0.2478 -0.4938
  162OSM    H2G18239   0.540  -0.055   2.694 -0.6274  2.4108 -1.6242
  162OSM    C3F18240   0.704   0.087   2.697 -0.7899  0.1778 -0.1230
  162OSM    H3F18241   0.649   0.171   2.649 -0.3198  0.7667  0.3410
  162OSM    H3G18242   0.807   0.099   2.659 -0.5496 -1.0482  0.1022
  162OSM    C4F18243   0.689   0.116   2.847  0.1614 -0.5887 -0.0584
  162OSM    H4F18244   0.585   0.096   2.880 -1.2654 -0.6437 -4.0473
  162OSM    H4G18245   0.693   0.227   2.852  0.1752 -0.5433 -0.8944
  162OSM    C5F18246   0.788   0.048   2.934 -0.3946  0.0610  0.4923
  162OSM    H5F18247   0.886   0.084   2.896 -0.0236 -0.8889  0.5181
  162OSM    H5G18248   0.794  -0.063   2.923 -1.2582  0.1460 -1.1878
  162OSM    C6F18249   0.770   0.090   3.079 -0.3664 -0.4159 -0.5562
  162OSM    H6F18250   0.675   0.049   3.121 -0.4633  1.3262  1.0383
  162OSM    H6G18251   0.764   0.200   3.072 -3.2520 -0.4811 -0.4459
  162OSM    C7F18252   0.882   0.040   3.176 -0.4484  0.1967  0.0909
  162OSM    H7F18253   0.972   0.106   3.171 -0.7853  0.7939  1.3746
  162OSM    H7G18254   0.892  -0.065   3.143  0.7268  0.2975  0.0725
  162OSM    C8F18255   0.848   0.054   3.323 -0.5327 -0.0225 -0.3694
  162OSM    H8F18256   0.751   0.002   3.341 -0.0127 -0.6400  0.7684
  162OSM    H8G18257   0.811   0.158   3.330  0.7744  0.5111 -1.0656
  162OSM    C9F18258   0.960   0.033   3.425 -0.3084 -0.3844  0.3763
  162OSM    H9F18259   1.059   0.042   3.379 -1.8117  3.3167 -2.7075
  162OSM   C10F18260   0.937   0.011   3.555 -0.1173  0.3535  0.1558
  162OSM   H10F18261   1.013   0.026   3.633 -1.1294 -0.9318  1.4245
  162OSM   C11F18262   0.799  -0.008   3.619 -0.4256 -0.5911  0.2982
  162OSM   H11F18263   0.773  -0.115   3.610 -0.2364 -0.8814  2.6188
  162OSM   H11G18264   0.725   0.058   3.569  2.2251  1.7205 -0.8842
  162OSM   C12F18265   0.800   0.023   3.772  0.1636 -0.6887  0.3292
  162OSM   H12F18266   0.693   0.039   3.794 -0.1868  0.5507 -2.0214
  162OSM   H12G18267   0.858   0.114   3.798  0.5177 -0.8885  0.2599
  162OSM   C13F18268   0.851  -0.092   3.858 -0.8375 -0.4551  0.3052
  162OSM   H13F18269   0.956  -0.111   3.828 -0.2054  0.7870  1.5743
  162OSM   H13G18270   0.783  -0.178   3.841 -3.2692  0.6116  3.4838
  162OSM   C14F18271   0.850  -0.051   4.009 -0.0788  1.0634 -0.0133
  162OSM   H14F18272   0.745  -0.023   4.031 -0.4014 -0.1132  0.0040
  162OSM   H14G18273   0.922   0.031   4.025  1.6632 -0.2944 -0.5481
  162OSM   C15F18274   0.866  -0.165   4.114 -0.2375 -0.2369 -0.4921
  162OSM   H15F18275   0.964  -0.212   4.092 -0.1461  0.6651 -2.2118
  162OSM   H15G18276   0.786  -0.238   4.089  0.0172 -0.3945 -0.8461
  162OSM   C16F18277   0.854  -0.127   4.265  0.8914  0.3918  0.3208
  162OSM   H16F18278   0.912  -0.034   4.284  1.3189  0.4503 -1.1868
  162OSM   H16G18279   0.891  -0.209   4.330 -0.7349 -0.7357 -0.1162
  162OSM   C17F18280   0.703  -0.111   4.304  0.5304  0.2969 -0.0501
  162OSM   H17F18281   0.643  -0.201   4.277 -0.9166  1.9034 -2.4845
  162OSM   H17G18282   0.669  -0.022   4.247 -0.9882 -1.3491 -1.8587
  162OSM   C18F18283   0.684  -0.075   4.457  0.0913 -0.2790  0.8840
  162OSM   H18F18284   0.733   0.024   4.467  0.0131  0.0315 -1.2026
  162OSM   H18G18285   0.726  -0.153   4.525  2.5973  0.2096  0.0269
  162OSM   H18H18286   0.575  -0.081   4.475  0.2084 -0.9907  1.3911
  163OSM      N18287   0.188   1.183   1.977  0.3078 -0.1686 -0.2219
  163OSM    C1518288   0.160   1.289   1.877 -0.5583 -0.1620  0.0197
  163OSM   H15A18289   0.176   1.383   1.928  1.2387 -0.6798  0.4889
  163OSM   H15B18290   0.062   1.294   1.831  0.0036  3.0513 -1.1086
  163OSM   H15C18291   0.230   1.295   1.795 -0.2381 -0.7242  0.2517
  163OSM    C1418292   0.320   1.211   2.036  0.5502 -0.0037  0.7994
  163OSM   H14A18293   0.346   1.141   2.115  3.8557 -0.8597 -0.8965
  163OSM   H14B18294   0.320   1.313   2.072 -1.8978  0.2508  0.2910
  163OSM   H14C18295   0.397   1.203   1.962  0.2114 -0.7698  0.5152
  163OSM    C1318296   0.084   1.195   2.080  0.0733  0.4150  0.1385
  163OSM   H13A18297   0.109   1.122   2.156  1.8083  2.5386  1.7593
  163OSM   H13B18298  -0.017   1.183   2.046  0.3899  3.0719 -1.9958
  163OSM   H13C18299   0.081   1.296   2.118 -0.7462  0.0780  1.0044
  163OSM    C1218300   0.187   1.045   1.917  0.4021 -0.0777 -0.3958
  163OSM   H12A18301   0.084   1.028   1.888  0.0328  1.0457  0.1946
  163OSM   H12B18302   0.217   0.973   1.991  1.8653  0.9292  0.0354
  163OSM    C1118303   0.283   1.013   1.797  0.1609 -0.0462  0.0465
  163OSM   H11A18304   0.265   1.082   1.712 -4.0659  0.7070  1.3153
  163OSM   H11B18305   0.265   0.906   1.772  0.7099 -0.6216  1.9206
  163OSM      P18306   0.503   0.918   1.911 -0.2420 -0.0857 -0.1758
  163OSM    O1318307   0.532   0.808   1.818  0.3887 -0.2954  0.0086
  163OSM    O1418308   0.616   0.975   1.990 -0.2928  0.5362  0.3264
  163OSM    O1118309   0.387   0.879   2.011 -0.1370 -0.0912 -0.5968
  163OSM    O1218310   0.427   1.039   1.836 -0.1018  0.1530 -0.3365
  163OSM    C1S18311   0.394   0.741   2.074 -0.5902 -0.5780 -0.0001
  163OSM    H1S18312   0.440   0.671   2.000  2.4070  0.4192  0.7583
  163OSM    H1T18313   0.293   0.706   2.104  0.4811 -1.0786  3.5346
  163OSM     NF18314   0.472   0.611   2.271 -0.3022  0.4425  0.2264
  163OSM    HNF18315   0.390   0.580   2.318  0.4268 -0.0809  1.1976
  163OSM    C2S18316   0.469   0.738   2.214  0.5164 -0.7069 -0.2298
  163OSM    H2S18317   0.574   0.773   2.205  1.0314 -2.3722 -1.3546
  163OSM    C3S18318   0.405   0.853   2.309  0.3991  0.4269  0.0755
  163OSM    H3S18319   0.302   0.817   2.331 -0.1865  0.9361 -1.6838
  163OSM     O318320   0.383   0.982   2.256  0.0596 -0.1336 -0.2028
  163OSM    HO318321   0.374   0.974   2.161 -3.1978  2.7703 -0.3573
  163OSM    C4S18322   0.473   0.852   2.443  0.6454 -0.5569 -0.6179
  163OSM    H4S18323   0.425   0.789   2.519  1.0083 -0.2749 -0.1460
  163OSM    C5S18324   0.580   0.922   2.479  0.7228 -0.5447  0.4257
  163OSM    H5S18325   0.614   0.986   2.396 -0.4106  0.2404  0.5350
  163OSM    C6S18326   0.652   0.920   2.613  0.3319  0.4381 -0.0012
  163OSM    H6S18327   0.664   1.024   2.650  0.3272  1.2955 -2.2283
  163OSM    H6T18328   0.756   0.893   2.586  0.7359  0.1364  1.7566
  163OSM    C7S18329   0.606   0.832   2.727 -0.4610 -0.3792 -0.0469
  163OSM    H7S18330   0.588   0.727   2.694 -2.2169 -0.0090 -0.3404
  163OSM    H7T18331   0.501   0.865   2.743 -0.8160 -2.3935  2.3875
  163OSM    C8S18332   0.697   0.852   2.854 -0.0417 -0.0375 -0.8159
  163OSM    H8S18333   0.702   0.963   2.867 -1.9008  0.2767 -2.2992
  163OSM    H8T18334   0.798   0.825   2.815 -0.4469 -1.3950 -0.9761
  163OSM    C9S18335   0.649   0.776   2.981 -0.9660 -0.1428  0.1406
  163OSM    H9S18336   0.662   0.667   2.960  0.4937 -0.2980  1.6575
  163OSM    H9T18337   0.541   0.800   2.987 -0.9460  0.1585 -0.5957
  163OSM   C10S18338   0.728   0.826   3.107 -0.3113 -0.2612 -0.0445
  163OSM   H10S18339   0.724   0.937   3.104  0.2818 -0.1298  2.1262
  163OSM   H10T18340   0.836   0.804   3.121 -0.7201 -0.9812  2.4697
  163OSM   C11S18341   0.666   0.784   3.247  0.1724 -0.7319 -0.0632
  163OSM   H11S18342   0.669   0.673   3.250 -1.1151 -0.7600  2.7281
  163OSM   H11T18343   0.562   0.824   3.249 -0.1938 -1.6415  2.2460
  163OSM   C12S18344   0.741   0.843   3.366  0.7861 -0.0978  0.8969
  163OSM   H12S18345   0.737   0.954   3.357  0.5322 -0.0421  1.6320
  163OSM   H12T18346   0.848   0.818   3.355  0.8655  1.0278 -1.8711
  163OSM   C13S18347   0.686   0.790   3.504 -0.1689 -0.4458 -0.2098
  163OSM   H13S18348   0.671   0.681   3.514 -1.5630 -0.6206 -3.0734
  163OSM   H13T18349   0.583   0.827   3.524  0.3209  0.6338  0.4590
  163OSM   C14S18350   0.768   0.836   3.631  0.0462 -0.2072 -0.1357
  163OSM   H14S18351   0.755   0.946   3.635 -2.6044 -0.4949  1.9438
  163OSM   H14T18352   0.875   0.808   3.628 -0.0957 -0.8129  0.3320
  163OSM   C15S18353   0.718   0.764   3.763  0.9573  0.4701  0.1121
  163OSM   H15S18354   0.772   0.809   3.849 -1.0366  0.2723  1.5564
  163OSM   H15T18355   0.744   0.656   3.769  0.8539  0.3325 -1.5068
  163OSM   C16S18356   0.562   0.765   3.793  0.8806 -0.8447 -0.0659
  163OSM   H16S18357   0.499   0.704   3.725  0.0588 -1.5151  1.2651
  163OSM   H16T18358   0.522   0.866   3.771  2.3826 -0.4817 -1.3723
  163OSM   C17S18359   0.514   0.733   3.932 -0.3351  0.3098 -0.2904
  163OSM   H17S18360   0.560   0.639   3.969 -1.1580 -0.2426 -0.6465
  163OSM   H17T18361   0.404   0.720   3.926 -0.3300  0.3085 -0.3879
  163OSM   C18S18362   0.558   0.839   4.034  0.7530 -0.3187 -0.4878
  163OSM   H18S18363   0.664   0.871   4.023 -0.1462  2.9518 -0.8051
  163OSM   H18T18364   0.530   0.818   4.139  1.3059 -0.1526 -0.3068
  163OSM   H18U18365   0.500   0.931   4.011 -1.5632 -1.8712 -1.2532
  163OSM    C1F18366   0.568   0.527   2.238  0.0979 -0.4349  0.5364
  163OSM     OF18367   0.661   0.561   2.163  0.2752 -1.0006 -0.8541
  163OSM    C2F18368   0.575   0.394   2.298  0.0436  0.3322 -0.3626
  163OSM    H2F18369   0.588   0.316   2.220  0.1708  0.5122 -0.5186
  163OSM    H2G18370   0.478   0.366   2.345  1.4650 -3.1381  0.8364
  163OSM    C3F18371   0.696   0.403   2.388 -0.1646 -0.0811 -0.3796
  163OSM    H3F18372   0.783   0.426   2.323  1.6515  2.1851  2.6056
  163OSM    H3G18373   0.711   0.299   2.424 -1.6365  0.0929  0.8087
  163OSM    C4F18374   0.699   0.503   2.507  0.1019 -0.2823  0.0739
  163OSM    H4F18375   0.599   0.488   2.554 -0.6577  1.3696 -0.9052
  163OSM    H4G18376   0.710   0.606   2.467  2.3625 -1.3617 -2.4201
  163OSM    C5F18377   0.809   0.464   2.605  0.3750 -0.3419  1.4212
  163OSM    H5F18378   0.901   0.449   2.545  1.0716  0.1937  2.3246
  163OSM    H5G18379   0.781   0.362   2.638 -2.1420  0.0414  0.7327
  163OSM    C6F18380   0.823   0.567   2.717  0.3861  0.0281  0.6494
  163OSM    H6F18381   0.731   0.563   2.778 -0.2593  2.6983  0.0226
  163OSM    H6G18382   0.827   0.665   2.665  0.0379 -0.0601  0.4539
  163OSM    C7F18383   0.926   0.545   2.831  0.0440  0.6851  0.5260
  163OSM    H7F18384   0.908   0.618   2.912 -2.3115  1.6926 -0.8173
  163OSM    H7G18385   1.027   0.556   2.786  1.0824 -4.1910  1.0414
  163OSM    C8F18386   0.918   0.405   2.882  0.6612 -0.2600 -0.1226
  163OSM    H8F18387   0.912   0.316   2.816 -0.2612 -0.8391  0.7256
  163OSM    H8G18388   0.820   0.401   2.934  0.5844  1.2241 -0.0930
  163OSM    C9F18389   1.029   0.387   2.984  0.5353  0.3282 -0.0385
  163OSM    H9F18390   1.097   0.308   2.950 -0.9763 -0.4540 -1.4265
  163OSM   C10F18391   1.033   0.425   3.111  0.3496 -0.1114 -0.2824
  163OSM   H10F18392   1.118   0.384   3.167  0.0464 -0.1744  0.1338
  163OSM   C11F18393   0.928   0.512   3.171  0.5009 -0.4736 -0.2309
  163OSM   H11F18394   0.840   0.514   3.103  0.7956  0.0499 -0.6076
  163OSM   H11G18395   0.967   0.616   3.175  0.2632 -0.2925 -1.8971
  163OSM   C12F18396   0.875   0.470   3.310  0.1743  0.3931  0.2862
  163OSM   H12F18397   0.838   0.366   3.296  0.7442  0.2410 -0.1379
  163OSM   H12G18398   0.794   0.537   3.345  1.5953  1.3809  1.8210
  163OSM   C13F18399   0.985   0.469   3.412  0.2496 -0.8232 -0.2777
  163OSM   H13F18400   1.025   0.572   3.407 -0.4488 -0.5420 -0.1991
  163OSM   H13G18401   1.060   0.394   3.379 -0.2797 -1.0515 -0.9867
  163OSM   C14F18402   0.929   0.443   3.553  0.7112  0.0900  0.6843
  163OSM   H14F18403   0.870   0.349   3.554 -0.8341  0.9129 -2.1389
  163OSM   H14G18404   0.857   0.525   3.573  0.6512  0.8145 -2.1580
  163OSM   C15F18405   1.036   0.424   3.659 -0.3483  0.0808  0.6384
  163OSM   H15F18406   1.133   0.472   3.634  0.3151 -2.5114 -2.3449
  163OSM   H15G18407   1.049   0.314   3.664 -1.0954 -0.0052  0.7098
  163OSM   C16F18408   0.994   0.489   3.798  0.0728  0.0373  0.7414
  163OSM   H16F18409   0.980   0.599   3.790  0.9812  0.1362  0.3316
  163OSM   H16G18410   1.077   0.484   3.873  1.2056  2.2715 -0.2584
  163OSM   C17F18411   0.871   0.425   3.850  0.2324  0.8324 -0.3496
  163OSM   H17F18412   0.889   0.318   3.876  2.8217  1.5263  1.1191
  163OSM   H17G18413   0.787   0.424   3.778 -0.0270  0.5966 -0.0471
  163OSM   C18F18414   0.821   0.483   3.982  0.4284 -1.3480 -0.0101
  163OSM   H18F18415   0.814   0.594   3.977  0.3043 -1.3042  0.9080
  163OSM   H18G18416   0.882   0.448   4.068 -0.1585 -2.2614  0.0556
  163OSM   H18H18417   0.719   0.439   3.988  0.6556 -1.8790  0.0583
  164OSM      N18418   1.564   0.569   2.005  0.0984 -0.2087  0.0169
  164OSM    C1518419   1.553   0.699   1.922  1.0535 -0.8481  0.1843
  164OSM   H15A18420   1.596   0.685   1.824  1.4856 -1.0458  0.3989
  164OSM   H15B18421   1.597   0.783   1.974 -1.1291 -0.1097  0.9415
  164OSM   H15C18422   1.452   0.724   1.893  1.4428 -1.9054 -2.3073
  164OSM    C1418423   1.707   0.539   2.034  0.3963  0.2094  0.0211
  164OSM   H14A18424   1.749   0.506   1.940  0.1933 -0.8506  0.2934
  164OSM   H14B18425   1.721   0.467   2.113 -2.0790  1.0805  1.3764
  164OSM   H14C18426   1.754   0.630   2.069 -1.2932  0.9582  0.4613
  164OSM    C1318427   1.495   0.605   2.131 -0.1794 -0.2885  0.1087
  164OSM   H13A18428   1.400   0.655   2.117  0.5591  1.7692  1.7377
  164OSM   H13B18429   1.546   0.683   2.187 -1.8946 -0.0093  1.3457
  164OSM   H13C18430   1.489   0.517   2.193 -0.6254  1.8164  3.3408
  164OSM    C1218431   1.488   0.461   1.940 -0.5652 -0.0651 -0.2168
  164OSM   H12A18432   1.392   0.505   1.920 -0.7966  0.2219  1.4214
  164OSM   H12B18433   1.476   0.390   2.021  1.6622 -0.7819 -0.4366
  164OSM    C1118434   1.548   0.406   1.815 -0.0469 -0.4256 -0.1691
  164OSM   H11A18435   1.586   0.480   1.742  1.9397 -0.0307  1.2010
  164OSM   H11B18436   1.470   0.354   1.757 -1.3093  1.4654 -0.2683
  164OSM      P18437   1.656   0.168   1.893 -0.2016  0.3353  0.1152
  164OSM    O1318438   1.540   0.098   1.835 -0.8265  0.6415  0.0692
  164OSM    O1418439   1.784   0.107   1.864  0.2649  0.2148  0.1131
  164OSM    O1118440   1.636   0.183   2.048 -0.5165 -0.1275  0.5859
  164OSM    O1218441   1.663   0.319   1.853  0.4822 -0.2213  0.2041
  164OSM    C1S18442   1.743   0.170   2.138  0.6358 -0.3082  0.7195
  164OSM    H1S18443   1.830   0.233   2.111 -0.5127  1.8183  1.7936
  164OSM    H1T18444   1.773   0.063   2.149  2.4546  0.1660  0.6868
  164OSM     NF18445   1.832   0.243   2.355  0.0911  0.0404  0.5077
  164OSM    HNF18446   1.870   0.170   2.412 -0.4978  0.2464  1.1734
  164OSM    C2S18447   1.713   0.219   2.280 -0.0097 -0.2659 -0.1670
  164OSM    H2S18448   1.661   0.317   2.270 -0.2797 -0.5440 -1.8021
  164OSM    C3S18449   1.611   0.127   2.352  0.1176  0.0828 -0.0398
  164OSM    H3S18450   1.667   0.038   2.389  1.9806  0.8602 -0.9036
  164OSM     O318451   1.516   0.070   2.265  0.0246  0.1533  0.4172
  164OSM    HO318452   1.524   0.121   2.185 -0.9681 -1.8225 -1.0309
  164OSM    C4S18453   1.550   0.193   2.467  0.2159  0.1593  0.0440
  164OSM    H4S18454   1.601   0.158   2.558 -1.3644 -0.1282  0.8480
  164OSM    C5S18455   1.444   0.273   2.466 -0.3389 -0.4346  0.2745
  164OSM    H5S18456   1.383   0.292   2.376  0.2333 -0.2921 -0.0893
  164OSM    C6S18457   1.385   0.330   2.592  0.4440  0.0786  0.2501
  164OSM    H6S18458   1.286   0.283   2.610 -0.1853  0.7523 -1.2905
  164OSM    H6T18459   1.386   0.440   2.578 -1.8280 -0.1255 -2.2010
  164OSM    C7S18460   1.462   0.295   2.715  0.5957  0.2540  0.0501
  164OSM    H7S18461   1.563   0.341   2.709  0.9853 -0.6063 -0.1673
  164OSM    H7T18462   1.479   0.185   2.718 -0.4578  0.1024  1.6394
  164OSM    C8S18463   1.395   0.346   2.849 -0.4732  0.5638 -0.0088
  164OSM    H8S18464   1.296   0.294   2.855 -0.0047 -0.3145  0.3292
  164OSM    H8T18465   1.385   0.456   2.841  0.0160  0.5189 -1.6079
  164OSM    C9S18466   1.486   0.317   2.976 -0.1197  0.2672  0.2045
  164OSM    H9S18467   1.588   0.358   2.959  0.6119 -1.9000 -0.9640
  164OSM    H9T18468   1.510   0.210   2.992 -0.3770  0.3228  0.9639
  164OSM   C10S18469   1.426   0.364   3.107  0.7179  0.0768  0.4719
  164OSM   H10S18470   1.331   0.309   3.123  0.5647  0.7755  2.1720
  164OSM   H10T18471   1.409   0.474   3.112  0.4596  0.0911 -0.4811
  164OSM   C11S18472   1.520   0.328   3.227  0.5676 -0.1547  0.1822
  164OSM   H11S18473   1.616   0.384   3.218  1.1299 -1.1340 -0.0520
  164OSM   H11T18474   1.550   0.221   3.220 -2.5039 -1.0040 -2.0758
  164OSM   C12S18475   1.455   0.357   3.368 -0.6571  0.1900  0.2199
  164OSM   H12S18476   1.363   0.295   3.378 -0.4779 -0.3948 -1.3850
  164OSM   H12T18477   1.411   0.458   3.377  0.6781  0.7945  0.1460
  164OSM   C13S18478   1.558   0.336   3.480 -0.1493 -0.6709 -0.1177
  164OSM   H13S18479   1.632   0.419   3.471  2.0202 -2.6093 -1.3500
  164OSM   H13T18480   1.610   0.239   3.466 -0.1900 -0.9057  1.1652
  164OSM   C14S18481   1.486   0.352   3.612 -0.2658  0.2851 -0.4330
  164OSM   H14S18482   1.416   0.266   3.625 -1.9244  1.8722  1.8824
  164OSM   H14T18483   1.419   0.440   3.611  1.8907  2.1253  2.3821
  164OSM   C15S18484   1.580   0.361   3.728  0.0269  0.7212  0.4496
  164OSM   H15S18485   1.529   0.413   3.812  0.2463  2.1439 -0.2838
  164OSM   H15T18486   1.674   0.411   3.698  1.2436 -1.4929  0.3058
  164OSM   C16S18487   1.606   0.221   3.787 -0.5969  0.0865 -1.1056
  164OSM   H16S18488   1.662   0.167   3.708 -0.6571 -0.3324 -0.8636
  164OSM   H16T18489   1.508   0.172   3.799 -0.7819  0.0061 -2.7459
  164OSM   C17S18490   1.687   0.221   3.915  0.0322 -0.5913  0.2621
  164OSM   H17S18491   1.627   0.278   3.990 -2.2166  2.3245 -3.4251
  164OSM   H17T18492   1.782   0.272   3.891  0.2249 -1.1786 -0.2456
  164OSM   C18S18493   1.727   0.080   3.955 -0.3369 -0.3049  0.0802
  164OSM   H18S18494   1.786   0.035   3.872 -0.0416 -0.1511  0.2062
  164OSM   H18T18495   1.643   0.010   3.975 -0.3269 -0.0867  0.9051
  164OSM   H18U18496   1.796   0.088   4.042  0.0298  0.5045 -0.2799
  164OSM    C1F18497   1.910   0.352   2.344 -0.1888  0.3334  0.4168
  164OSM     OF18498   1.859   0.454   2.294 -0.0148  0.4791  0.2004
  164OSM    C2F18499   2.049   0.353   2.411  0.2251  0.0417  0.3311
  164OSM    H2F18500   2.128   0.298   2.356 -3.0863 -1.6793 -3.1457
  164OSM    H2G18501   2.037   0.300   2.508 -2.5554  0.0735  0.0776
  164OSM    C3F18502   2.109   0.494   2.449  0.0541 -0.4554  0.7503
  164OSM    H3F18503   2.049   0.545   2.526 -0.7689  0.4046 -0.4229
  164OSM    H3G18504   2.116   0.568   2.366  1.9947 -1.7881 -0.3678
  164OSM    C4F18505   2.253   0.485   2.508  0.6665  0.0014 -0.4895
  164OSM    H4F18506   2.285   0.585   2.545 -2.8014  0.8499  0.5924
  164OSM    H4G18507   2.328   0.465   2.429  0.8291 -0.9282 -0.1077
  164OSM    C5F18508   2.277   0.394   2.635  0.3035  0.1918 -0.3601
  164OSM    H5F18509   2.388   0.392   2.648  0.7979  0.9741 -3.4848
  164OSM    H5G18510   2.249   0.292   2.603 -0.9678  0.8036 -1.3025
  164OSM    C6F18511   2.216   0.432   2.764 -0.7193 -0.0014 -0.2478
  164OSM    H6F18512   2.119   0.379   2.781  0.4485 -1.2283  3.4494
  164OSM    H6G18513   2.200   0.540   2.748  1.5634  0.0687 -2.6855
  164OSM    C7F18514   2.315   0.400   2.886 -0.3671  0.4964 -0.9065
  164OSM    H7F18515   2.419   0.436   2.876  0.3191 -1.0920  0.1706
  164OSM    H7G18516   2.318   0.289   2.887  1.1460  0.4994  1.0098
  164OSM    C8F18517   2.239   0.450   3.020 -0.1670  0.3849 -1.2780
  164OSM    H8F18518   2.274   0.390   3.107 -0.3430  0.2841 -1.2773
  164OSM    H8G18519   2.130   0.430   3.018 -0.0007 -0.6732 -0.7280
  164OSM    C9F18520   2.273   0.591   3.033  0.5418 -0.4452  0.2201
  164OSM    H9F18521   2.210   0.655   2.970 -0.5561  0.5904  2.2622
  164OSM   C10F18522   2.366   0.648   3.112 -0.2760 -0.2065  0.5219
  164OSM   H10F18523   2.377   0.758   3.109 -0.0496 -0.1932  1.4659
  164OSM   C11F18524   2.467   0.569   3.190  0.3493  0.4933  0.0812
  164OSM   H11F18525   2.569   0.608   3.169  0.6353 -0.4654 -0.4030
  164OSM   H11G18526   2.455   0.462   3.161 -0.1899  0.8088 -0.8867
  164OSM   C12F18527   2.433   0.583   3.340  0.4839 -0.4460 -0.3010
  164OSM   H12F18528   2.331   0.554   3.372  1.2165 -0.1823  2.5620
  164OSM   H12G18529   2.441   0.690   3.366 -0.3872 -0.5950  0.6739
  164OSM   C13F18530   2.530   0.526   3.441 -0.2067 -0.0989  0.0209
  164OSM   H13F18531   2.631   0.558   3.406  0.5727 -0.4167  1.8834
  164OSM   H13G18532   2.534   0.415   3.436  4.2244 -0.2728  2.6341
  164OSM   C14F18533   2.541   0.587   3.584 -0.0915 -0.2404  1.1795
  164OSM   H14F18534   2.635   0.555   3.634 -0.3242  1.2564  2.6645
  164OSM   H14G18535   2.448   0.554   3.634  0.2055 -1.9958  0.6534
  164OSM   C15F18536   2.540   0.747   3.601  0.0771 -0.7094 -0.2365
  164OSM   H15F18537   2.439   0.786   3.577 -0.4283 -2.3252 -0.8646
  164OSM   H15G18538   2.613   0.789   3.529  0.2234  0.9161  0.8229
  164OSM   C16F18539   2.581   0.779   3.749 -0.0004 -0.5917 -0.0737
  164OSM   H16F18540   2.679   0.734   3.776  0.5651  0.3594 -0.4672
  164OSM   H16G18541   2.494   0.742   3.807  0.5005 -2.7988 -0.6287
  164OSM   C17F18542   2.596   0.930   3.768  0.6548 -0.0974  0.6236
  164OSM   H17F18543   2.502   0.988   3.762  1.1315  0.6788  0.5154
  164OSM   H17G18544   2.655   0.974   3.684 -1.7500  0.9634 -0.5856
  164OSM   C18F18545   2.656   0.966   3.903 -0.0491  0.2281  0.7374
  164OSM   H18F18546   2.595   0.915   3.981  0.4888  0.5186  1.3612
  164OSM   H18G18547   2.655   1.076   3.920 -0.3558  0.3464  0.0012
  164OSM   H18H18548   2.761   0.932   3.906 -0.4269 -1.2117 -0.9106
  165SAPS     N18549   2.432   1.680   6.450  0.2173 -0.2777 -0.8302
  165SAPS   HN118550   2.364   1.602   6.438 -1.0581  0.6173  0.3161
  165SAPS   HN218551   2.463   1.655   6.546 -0.9824 -0.7094 -0.5348
  165SAPS   HN318552   2.382   1.771   6.449 -1.2185 -1.0175  0.2043
  165SAPS   C1218553   2.554   1.671   6.367 -0.5039  0.1243  0.3827
  165SAPS  H12A18554   2.520   1.654   6.266 -3.2904  1.2390  1.0359
  165SAPS   C1318555   2.640   1.803   6.359  0.0800 -0.3415  0.2290
  165SAPS  O13A18556   2.598   1.910   6.418 -0.0961 -0.0996  0.3008
  165SAPS  O13B18557   2.762   1.789   6.326  0.3939 -0.9937  0.3456
  165SAPS   C1118558   2.636   1.552   6.407 -0.1028 -0.5423  0.2495
  165SAPS  H11A18559   2.689   1.583   6.499 -0.9134  1.3002  0.1248
  165SAPS  H11B18560   2.711   1.522   6.331 -0.6348 -1.8412  0.2019
  165SAPS     P18561   2.507   1.325   6.344  0.3030  0.0199  0.4571
  165SAPS   O1318562   2.577   1.202   6.382 -0.4359  0.3385 -0.7090
  165SAPS   O1418563   2.359   1.322   6.353  0.1253  0.2407 -0.1973
  165SAPS   O1218564   2.552   1.443   6.440  0.2684  0.1781 -0.5415
  165SAPS   O1118565   2.551   1.372   6.205 -0.4089  0.0780  0.5170
  165SAPS    C118566   2.465   1.396   6.095  0.4820  0.0187 -0.2182
  165SAPS    HA18567   2.387   1.316   6.093 -0.0650  0.5510 -1.3106
  165SAPS    HB18568   2.416   1.494   6.113 -2.6536 -0.8786 -2.7311
  165SAPS    C218569   2.516   1.401   5.951 -1.0720  0.7267  0.7912
  165SAPS    HS18570   2.571   1.307   5.931  1.3378  2.0336  0.9600
  165SAPS   O2118571   2.614   1.508   5.943 -0.3857  0.2261  0.3127
  165SAPS   C2118572   2.738   1.483   5.994 -0.3100 -0.4805 -0.5506
  165SAPS   O2218573   2.785   1.375   6.023  0.1654 -0.1938 -0.2257
  165SAPS   C2218574   2.800   1.626   6.019  0.1547 -0.9384 -0.3673
  165SAPS   H2R18575   2.725   1.692   6.067  0.7896 -0.5758  0.1466
  165SAPS   H2S18576   2.879   1.607   6.095  1.3807  0.2300 -1.2995
  165SAPS    C318577   2.401   1.411   5.851 -0.3087  0.3488  0.4042
  165SAPS    HX18578   2.357   1.513   5.855  0.2991  0.5875  2.3439
  165SAPS    HY18579   2.321   1.336   5.873  0.1632  0.1549  1.5185
  165SAPS   O3118580   2.458   1.378   5.719  0.2693  0.5811  0.0604
  165SAPS   C3118581   2.470   1.480   5.633 -0.5362 -0.0398 -0.3519
  165SAPS   O3218582   2.438   1.594   5.652 -0.2567 -0.1417 -0.1758
  165SAPS   C3218583   2.519   1.434   5.498 -0.1666  0.3801 -0.4605
  165SAPS   H2X18584   2.504   1.324   5.493  2.5387 -0.1100  0.4075
  165SAPS   H2Y18585   2.630   1.423   5.489 -0.0678  1.1219 -0.2630
  165SAPS   C2318586   2.865   1.691   5.898  0.2665  0.1416 -0.0388
  165SAPS   H3R18587   2.919   1.781   5.935  0.4060 -0.2496  0.7261
  165SAPS   H3S18588   2.783   1.726   5.832 -0.9301  0.5213  1.5955
  165SAPS   C2418589   2.969   1.609   5.815 -0.1671 -0.2431  0.3250
  165SAPS   H4R18590   3.041   1.569   5.890 -0.6683  0.9972  1.5173
  165SAPS   H4S18591   3.020   1.694   5.765  0.1972 -0.5588  0.1589
  165SAPS   C2518592   2.925   1.498   5.722  0.6391  0.5094  0.1084
  165SAPS   H5R18593   2.909   1.408   5.783 -2.3552  1.3927  0.7628
  165SAPS   C2618594   2.920   1.493   5.591  0.3424 -0.4874  0.7167
  165SAPS   H6R18595   2.893   1.398   5.543  2.4030 -0.6597 -0.2099
  165SAPS   C2718596   2.934   1.614   5.503 -0.5040 -0.3985  0.1797
  165SAPS   H7R18597   2.912   1.708   5.559 -0.5604 -0.5890  0.4849
  165SAPS   H7S18598   2.846   1.604   5.436 -1.0590  2.6479  0.3228
  165SAPS   C2818599   3.067   1.620   5.425 -0.1535  0.2364  0.6183
  165SAPS   H8R18600   3.147   1.671   5.480 -0.9449  3.9488 -1.2854
  165SAPS   C2918601   3.082   1.579   5.296 -0.0568  0.4267 -0.1751
  165SAPS   H9R18602   3.178   1.600   5.248  0.4156  1.2961  1.1065
  165SAPS  C21018603   2.966   1.545   5.202  0.8078  0.5008 -0.4788
  165SAPS  H10R18604   2.911   1.454   5.234  2.0038 -1.1614 -2.8393
  165SAPS  H10S18605   3.018   1.503   5.114  0.2720  2.8018 -2.0016
  165SAPS  C21118606   2.877   1.654   5.150 -0.6533 -0.0294  0.1399
  165SAPS  H11R18607   2.897   1.755   5.188 -3.4064  0.5103  0.3395
  165SAPS  C21218608   2.781   1.634   5.056  0.1296  0.0802  0.6545
  165SAPS  H12R18609   2.724   1.723   5.025  3.0711  2.2249  1.0382
  165SAPS  C21318610   2.750   1.500   4.990  0.3253  0.3643  0.4851
  165SAPS  H13R18611   2.704   1.437   5.069  1.8294  0.7260  1.6836
  165SAPS  H13S18612   2.842   1.443   4.966 -0.6274 -0.5535 -1.1983
  165SAPS  C21418613   2.670   1.504   4.863 -0.1410  0.6917  0.4597
  165SAPS  H14R18614   2.562   1.508   4.883 -0.4116  0.7289 -0.8645
  165SAPS  C21518615   2.720   1.508   4.740 -0.4778  0.4683 -0.3466
  165SAPS  H15R18616   2.642   1.530   4.665  1.6030  1.7172 -2.2589
  165SAPS  C21618617   2.866   1.496   4.693 -0.6553 -0.0686  0.6651
  165SAPS  H16R18618   2.881   1.399   4.640  0.9908  0.6449 -0.2347
  165SAPS  H16S18619   2.941   1.485   4.775  0.0057 -4.4312 -0.2870
  165SAPS  C21718620   2.914   1.612   4.600 -0.1892  0.3598 -0.1581
  165SAPS  H17R18621   3.023   1.629   4.593 -0.4191  2.0485  0.0909
  165SAPS  H17S18622   2.870   1.708   4.634 -2.7079 -1.5110  2.3318
  165SAPS  C21818623   2.864   1.582   4.455  0.7068  0.4229 -0.1104
  165SAPS  H18R18624   2.761   1.545   4.474  1.2682 -0.1445  2.1153
  165SAPS  H18S18625   2.919   1.497   4.410 -1.1469 -0.1874 -1.3429
  165SAPS  C21918626   2.881   1.717   4.377 -0.2195  0.0830  0.3701
  165SAPS  H19R18627   2.991   1.735   4.384 -0.0420 -0.8141 -0.0240
  165SAPS  H19S18628   2.825   1.800   4.426  0.3206 -0.4501  1.9426
  165SAPS  C22018629   2.838   1.696   4.234 -0.0982 -0.6973  0.4246
  165SAPS  H20R18630   2.855   1.789   4.176  1.5991 -1.2956 -0.1209
  165SAPS  H20S18631   2.729   1.674   4.243 -0.7148  1.7817 -0.2710
  165SAPS  H20T18632   2.904   1.617   4.192  1.2786  0.1774  0.8723
  165SAPS   C3318633   2.451   1.510   5.376 -0.7402 -0.2227  0.6608
  165SAPS   H3X18634   2.348   1.542   5.402 -1.6568 -1.1350 -1.5975
  165SAPS   H3Y18635   2.446   1.442   5.288 -0.1650 -0.1821  0.5897
  165SAPS   C3418636   2.532   1.634   5.326  0.2797 -0.2073  0.2672
  165SAPS   H4X18637   2.615   1.591   5.265  1.4013  1.4566  0.5567
  165SAPS   H4Y18638   2.585   1.669   5.417 -0.5542  0.9535  0.3116
  165SAPS   C3518639   2.457   1.742   5.254 -0.0670 -0.5474  0.3767
  165SAPS   H5X18640   2.537   1.809   5.215 -0.2305 -0.3968  0.3006
  165SAPS   H5Y18641   2.403   1.809   5.324 -0.4776  1.0586 -1.3984
  165SAPS   C3618642   2.355   1.699   5.152  0.6101 -0.1803 -0.1372
  165SAPS   H6X18643   2.285   1.628   5.199  1.0392  0.3375  1.3222
  165SAPS   H6Y18644   2.405   1.629   5.081  0.9315  0.5798 -0.6800
  165SAPS   C3718645   2.271   1.803   5.069 -0.2577  0.0569 -0.1713
  165SAPS   H7X18646   2.212   1.876   5.129 -0.2035  2.2732 -2.6601
  165SAPS   H7Y18647   2.199   1.753   5.000  1.2794  0.6633 -2.3023
  165SAPS   C3818648   2.354   1.903   4.996 -0.4911 -0.0489 -0.5218
  165SAPS   H8X18649   2.421   1.948   5.073 -0.8578  1.0800 -0.8415
  165SAPS   H8Y18650   2.283   1.976   4.952 -3.2363 -2.4093 -0.2934
  165SAPS   C3918651   2.430   1.862   4.866  1.0307  0.5540 -0.6385
  165SAPS   H9X18652   2.483   1.768   4.890  1.2191  0.8680  0.2170
  165SAPS   H9Y18653   2.501   1.938   4.826  2.0134 -0.0433 -0.0619
  165SAPS  C31018654   2.317   1.832   4.759 -0.1801  0.7998  0.4026
  165SAPS  H10X18655   2.257   1.922   4.733 -0.5113 -0.0009 -1.8358
  165SAPS  H10Y18656   2.237   1.766   4.799  0.8235 -0.4528  0.3996
  165SAPS  C31118657   2.386   1.767   4.639  0.1470  0.1675  0.7572
  165SAPS  H11X18658   2.420   1.667   4.672 -3.4751 -1.6028 -0.4503
  165SAPS  H11Y18659   2.466   1.837   4.604 -0.3602  0.7039  0.6537
  165SAPS  C31218660   2.285   1.746   4.527 -0.4065 -0.4152  0.7456
  165SAPS  H12X18661   2.245   1.843   4.494 -0.3064 -0.3003  0.9581
  165SAPS  H12Y18662   2.203   1.681   4.565 -2.6358  1.3514 -0.8210
  165SAPS  C31318663   2.366   1.680   4.405  0.2192  0.0529  0.3735
  165SAPS  H13X18664   2.417   1.591   4.447 -2.2189 -1.3121  0.6106
  165SAPS  H13Y18665   2.442   1.755   4.375 -0.3914  0.6065  0.1922
  165SAPS  C31418666   2.281   1.638   4.282 -0.0678 -0.2739 -0.2842
  165SAPS  H14X18667   2.238   1.733   4.243  1.3632  0.4694 -0.1167
  165SAPS  H14Y18668   2.199   1.571   4.313 -1.2504  1.6014  0.8615
  165SAPS  C31518669   2.366   1.569   4.176 -0.7681 -0.5530 -0.0743
  165SAPS  H15X18670   2.426   1.481   4.209  0.0707 -1.1221 -2.8461
  165SAPS  H15Y18671   2.441   1.639   4.135  0.6790 -1.0146  1.6569
  165SAPS  C31618672   2.282   1.536   4.049 -0.0612  0.3554  0.0436
  165SAPS  H16X18673   2.198   1.470   4.081 -1.0581  1.3324 -0.4782
  165SAPS  H16Y18674   2.352   1.477   3.987  0.8985  1.4859  0.0238
  165SAPS  C31718675   2.228   1.662   3.971 -0.0787  0.4411  0.0288
  165SAPS  H17X18676   2.317   1.699   3.916 -1.0705  0.0549 -1.9615
  165SAPS  H17Y18677   2.196   1.745   4.038  0.4483  1.2120 -0.6483
  165SAPS  C31818678   2.109   1.640   3.877 -0.0686 -0.0202  0.1479
  165SAPS  H18X18679   2.011   1.613   3.922  0.6551 -2.0353  0.5971
  165SAPS  H18Y18680   2.127   1.557   3.806  1.1503 -0.9705  1.5257
  165SAPS  H18Z18681   2.105   1.733   3.816  2.2493  1.9326  2.7185
  166SAPS     N18682   0.339   0.837   6.207  0.3387  0.1436  0.3196
  166SAPS   HN118683   0.322   0.940   6.207  1.4790  0.3808 -1.4611
  166SAPS   HN218684   0.418   0.820   6.142  0.4594 -0.4552  0.6179
  166SAPS   HN318685   0.252   0.789   6.175  1.1090 -0.2647 -1.2842
  166SAPS   C1218686   0.391   0.786   6.336  0.6498 -0.5719 -0.8292
  166SAPS  H12A18687   0.494   0.818   6.345 -0.2314  2.3334 -0.0481
  166SAPS   C1318688   0.316   0.828   6.462  0.2286  0.3083  0.3667
  166SAPS  O13A18689   0.200   0.885   6.442 -1.2755 -0.5642 -0.7262
  166SAPS  O13B18690   0.355   0.792   6.574  0.2392 -0.0085 -0.5938
  166SAPS   C1118691   0.407   0.632   6.334  0.5090 -0.4337 -0.1518
  166SAPS  H11A18692   0.307   0.584   6.334  0.0043  0.5354  1.4518
  166SAPS  H11B18693   0.453   0.616   6.434  1.5646  2.2560 -0.1104
  166SAPS     P18694   0.619   0.509   6.246  0.2186 -0.1798  0.0404
  166SAPS   O1318695   0.715   0.601   6.314 -0.3447  0.3504 -0.1443
  166SAPS   O1418696   0.604   0.374   6.305 -0.6879 -0.3231  0.3286
  166SAPS   O1218697   0.482   0.583   6.225 -0.0236 -0.5762 -0.0618
  166SAPS   O1118698   0.684   0.491   6.104  0.3839 -0.2303 -0.9082
  166SAPS    C118699   0.651   0.568   5.990  0.2201 -0.4163  0.5321
  166SAPS    HA18700   0.617   0.673   6.006 -1.2325 -0.8387  0.3391
  166SAPS    HB18701   0.744   0.561   5.928 -0.2964  0.8946 -0.4429
  166SAPS    C218702   0.538   0.515   5.898  0.2404 -0.0690  0.1031
  166SAPS    HS18703   0.453   0.497   5.967 -0.1698  4.1411  0.9276
  166SAPS   O2118704   0.583   0.389   5.837 -0.2006  0.0131 -0.3140
  166SAPS   C2118705   0.495   0.283   5.842  0.2406 -0.0100 -0.3033
  166SAPS   O2218706   0.378   0.292   5.883  0.3193  0.1844  0.1289
  166SAPS   C2218707   0.581   0.158   5.811 -0.3053 -0.5457 -0.3250
  166SAPS   H2R18708   0.677   0.194   5.767 -0.3237  0.8104  0.6929
  166SAPS   H2S18709   0.602   0.112   5.909 -2.3690 -0.3471  0.2461
  166SAPS    C318710   0.483   0.616   5.785  0.5450 -0.6313  0.5806
  166SAPS    HX18711   0.562   0.611   5.708 -0.6497 -3.1532 -0.6178
  166SAPS    HY18712   0.480   0.718   5.828 -2.2313 -0.3606 -0.0295
  166SAPS   O3118713   0.352   0.572   5.740  0.3993  0.5693 -0.3632
  166SAPS   C3118714   0.247   0.625   5.806 -0.1078  0.2273 -0.7533
  166SAPS   O3218715   0.251   0.709   5.895  0.2029  0.0518 -0.3011
  166SAPS   C3218716   0.125   0.571   5.744 -0.4440 -0.6664 -0.5846
  166SAPS   H2X18717   0.044   0.589   5.818  0.3846 -0.7339  0.3409
  166SAPS   H2Y18718   0.141   0.462   5.730  2.6383 -0.2575 -0.8982
  166SAPS   C2318719   0.499   0.048   5.730 -1.0115 -0.2367 -0.3047
  166SAPS   H3R18720   0.397   0.040   5.774 -0.2284 -2.4631  1.2764
  166SAPS   H3S18721   0.557  -0.046   5.740  0.4140  0.6253 -0.1313
  166SAPS   C2418722   0.501   0.085   5.575 -0.0068  0.6131  0.0893
  166SAPS   H4R18723   0.472  -0.000   5.510 -0.7402  0.4467  0.6253
  166SAPS   H4S18724   0.606   0.102   5.540 -0.7402 -0.8167 -3.1958
  166SAPS   C2518725   0.437   0.223   5.544  0.2380  0.2079 -0.2043
  166SAPS   H5R18726   0.497   0.314   5.555 -0.2302  0.5032 -0.0497
  166SAPS   C2618727   0.306   0.240   5.511 -0.3391 -0.0995  0.5607
  166SAPS   H6R18728   0.272   0.342   5.489  1.7872  0.1740 -1.8679
  166SAPS   C2718729   0.197   0.140   5.506 -0.3419 -0.6280 -0.3230
  166SAPS   H7R18730   0.227   0.042   5.549 -1.5158 -2.5519 -3.5100
  166SAPS   H7S18731   0.190   0.115   5.398  1.0940 -0.6347 -0.4321
  166SAPS   C2818732   0.074   0.204   5.563 -0.2811  0.2358 -0.5205
  166SAPS   H8R18733   0.087   0.278   5.644  1.0136 -1.3113  0.7649
  166SAPS   C2918734  -0.047   0.194   5.516  1.4956  0.2943  0.0325
  166SAPS   H9R18735  -0.138   0.228   5.568  2.3405 -1.2609  2.7235
  166SAPS  C21018736  -0.085   0.109   5.397 -0.4346  0.3136 -0.2643
  166SAPS  H10R18737  -0.180   0.057   5.419  0.1744 -1.8464 -2.3433
  166SAPS  H10S18738  -0.020   0.020   5.388 -1.2048 -0.3617  0.7479
  166SAPS  C21118739  -0.079   0.195   5.265  0.6000  0.0521  0.2817
  166SAPS  H11R18740  -0.046   0.299   5.274 -3.5371  1.5929 -0.2953
  166SAPS  C21218741  -0.103   0.156   5.139 -0.1225  0.2590 -0.7574
  166SAPS  H12R18742  -0.088   0.231   5.060 -0.8779  2.8396  1.3962
  166SAPS  C21318743  -0.156   0.019   5.097  0.6505 -0.4734 -0.2702
  166SAPS  H13R18744  -0.246   0.007   5.161  1.3808 -0.7682  0.7321
  166SAPS  H13S18745  -0.094  -0.067   5.131 -0.4816 -0.6810  1.3807
  166SAPS  C21418746  -0.203  -0.001   4.953  0.3209  0.5236  0.1139
  166SAPS  H14R18747  -0.311   0.008   4.939  0.3647 -0.5032 -1.0533
  166SAPS  C21518748  -0.128  -0.044   4.847 -0.4385 -0.2317  0.8496
  166SAPS  H15R18749  -0.179  -0.060   4.751 -0.8086  0.9389  0.8378
  166SAPS  C21618750   0.021  -0.068   4.853  0.2321  0.1403 -0.4930
  166SAPS  H16R18751   0.032  -0.177   4.872  0.5186  0.6134  2.5155
  166SAPS  H16S18752   0.053  -0.010   4.942 -3.1984 -0.5882  1.3792
  166SAPS  C21718753   0.090  -0.023   4.722  0.5055 -0.6157 -0.1160
  166SAPS  H17R18754   0.193  -0.046   4.755  0.3322 -1.1032  0.0969
  166SAPS  H17S18755   0.071   0.083   4.695  0.8955 -1.0622 -2.3251
  166SAPS  C21818756   0.068  -0.102   4.592 -0.3709 -0.0129  0.4198
  166SAPS  H18R18757  -0.035  -0.091   4.551 -1.1003 -0.6756  1.9992
  166SAPS  H18S18758   0.084  -0.209   4.616  2.7473  0.1587 -0.4047
  166SAPS  C21918759   0.171  -0.075   4.476  0.2000  0.0835  0.4094
  166SAPS  H19R18760   0.271  -0.116   4.498  0.3158  0.1773  0.0610
  166SAPS  H19S18761   0.190   0.034   4.465  0.7684 -0.2700 -4.2690
  166SAPS  C22018762   0.128  -0.138   4.347 -0.3884  1.0104  0.6364
  166SAPS  H20R18763   0.044  -0.076   4.308 -0.7530  0.5315  0.6443
  166SAPS  H20S18764   0.089  -0.239   4.371  1.5046  0.0923  0.0014
  166SAPS  H20T18765   0.208  -0.147   4.271 -1.5591  0.0209 -0.5284
  166SAPS   C3318766   0.083   0.629   5.600  0.2291  0.6326 -0.1515
  166SAPS   H3X18767  -0.005   0.577   5.558  0.6869  0.0162 -0.3736
  166SAPS   H3Y18768   0.171   0.618   5.532 -0.0009  2.4586 -0.8143
  166SAPS   C3418769   0.040   0.771   5.611 -0.2345 -0.0829 -0.1835
  166SAPS   H4X18770   0.134   0.820   5.644 -0.2177  0.5242 -1.0968
  166SAPS   H4Y18771  -0.037   0.790   5.689 -1.0861 -1.0900 -0.7529
  166SAPS   C3518772  -0.014   0.821   5.478  0.1351  0.1736  0.6587
  166SAPS   H5X18773   0.048   0.793   5.390 -2.8045 -1.6466 -0.9908
  166SAPS   H5Y18774  -0.018   0.931   5.489  1.5135  0.3529 -0.4269
  166SAPS   C3618775  -0.157   0.776   5.436  0.2690 -0.2087 -0.2419
  166SAPS   H6X18776  -0.215   0.786   5.530 -0.4691 -0.1621 -0.6949
  166SAPS   H6Y18777  -0.171   0.668   5.412  1.6150 -0.5952  0.6369
  166SAPS   C3718778  -0.215   0.854   5.324  0.0587  0.1392  0.1241
  166SAPS   H7X18779  -0.228   0.953   5.373 -3.2306  0.0822 -0.3572
  166SAPS   H7Y18780  -0.319   0.831   5.291  0.5270  0.0179 -1.3366
  166SAPS   C3818781  -0.135   0.862   5.200 -0.3452 -0.1227  0.8066
  166SAPS   H8X18782  -0.062   0.780   5.181 -0.6387 -0.6483  1.8476
  166SAPS   H8Y18783  -0.061   0.944   5.206 -1.6623  1.0091  2.8910
  166SAPS   C3918784  -0.215   0.884   5.067  0.4873  0.0037 -0.7304
  166SAPS   H9X18785  -0.268   0.978   5.093  1.8051  0.4712  0.3738
  166SAPS   H9Y18786  -0.286   0.802   5.043 -0.3427  0.1521  1.0624
  166SAPS  C31018787  -0.127   0.911   4.944 -0.1299 -0.2733 -0.8302
  166SAPS  H10X18788  -0.075   0.815   4.924  1.7775  0.4130  0.5482
  166SAPS  H10Y18789  -0.048   0.986   4.964 -1.8038  1.4514 -0.4254
  166SAPS  C31118790  -0.213   0.971   4.832 -0.5016 -0.2314 -0.0047
  166SAPS  H11X18791  -0.268   1.058   4.874 -0.5368  0.6648 -1.8326
  166SAPS  H11Y18792  -0.281   0.899   4.782  0.3930 -0.1162 -1.4344
  166SAPS  C31218793  -0.133   1.027   4.714 -0.1695 -0.6254  0.0006
  166SAPS  H12X18794  -0.064   0.953   4.668  1.9014  2.5343 -2.3602
  166SAPS  H12Y18795  -0.069   1.104   4.761 -1.1189 -0.7556  1.5979
  166SAPS  C31318796  -0.217   1.087   4.603  0.9540  0.6657 -0.1504
  166SAPS  H13X18797  -0.145   1.142   4.538  1.2718 -0.0876 -0.4489
  166SAPS  H13Y18798  -0.287   1.167   4.635  0.4048  0.3495 -0.5463
  166SAPS  C31418799  -0.305   0.978   4.527  0.3639  0.6418 -0.0735
  166SAPS  H14X18800  -0.376   0.935   4.600 -0.0195 -0.1872 -0.9103
  166SAPS  H14Y18801  -0.241   0.897   4.485  0.3225  0.2429  0.6329
  166SAPS  C31518802  -0.395   1.029   4.413 -0.2167  0.3430  0.1950
  166SAPS  H15X18803  -0.485   1.081   4.451 -1.1063  1.0981 -2.6500
  166SAPS  H15Y18804  -0.425   0.944   4.347  2.0785  0.9696 -1.8020
  166SAPS  C31618805  -0.323   1.128   4.322  0.0830  0.4892 -0.0535
  166SAPS  H16X18806  -0.223   1.088   4.295 -0.4930 -2.6668  1.9148
  166SAPS  H16Y18807  -0.300   1.219   4.381  0.9239 -0.8817  1.8398
  166SAPS  C31718808  -0.409   1.159   4.191  0.1275  0.4457 -0.0585
  166SAPS  H17X18809  -0.514   1.180   4.221  0.1122  0.1879  0.0642
  166SAPS  H17Y18810  -0.407   1.064   4.134 -5.1902  1.0991 -2.0055
  166SAPS  C31818811  -0.362   1.277   4.112  0.3489  0.5007 -0.1578
  166SAPS  H18X18812  -0.432   1.302   4.030  1.6026  1.8988 -0.8533
  166SAPS  H18Y18813  -0.260   1.255   4.074 -0.2499 -3.2042  0.0265
  166SAPS  H18Z18814  -0.356   1.365   4.180  0.1402 -0.3259  0.9651
  167SAPS     N18815   3.474   2.707   6.727  0.3146  0.6457  0.3359
  167SAPS   HN118816   3.446   2.628   6.788 -0.7091 -0.3908 -1.4131
  167SAPS   HN218817   3.411   2.720   6.645 -0.0193  2.8634  0.8566
  167SAPS   HN318818   3.567   2.674   6.696 -0.1980 -1.3840  0.8317
  167SAPS   C1218819   3.489   2.836   6.800  0.8391 -0.6696  0.0712
  167SAPS  H12A18820   3.399   2.851   6.857 -0.5135  0.0006 -2.0926
  167SAPS   C1318821   3.609   2.847   6.900  0.4029  0.5862 -0.9636
  167SAPS  O13A18822   3.662   2.740   6.934 -0.2243  0.1053  0.2183
  167SAPS  O13B18823   3.610   2.944   6.984 -0.4710 -0.8387 -0.2303
  167SAPS   C1118824   3.507   2.956   6.694  0.2962  0.5776 -0.3225
  167SAPS  H11A18825   3.529   3.039   6.764 -2.7169  0.3649  1.0565
  167SAPS  H11B18826   3.411   2.982   6.642  0.5039  2.3587  0.1191
  167SAPS     P18827   3.740   2.981   6.574  0.3196 -0.1707  0.2846
  167SAPS   O1318828   3.743   3.109   6.647 -0.5163 -0.1770  0.2200
  167SAPS   O1418829   3.840   2.891   6.609 -0.3977  0.2315 -0.3633
  167SAPS   O1218830   3.600   2.918   6.592 -0.5001  0.1724 -0.2400
  167SAPS   O1118831   3.729   3.011   6.421 -0.0614  0.3806  0.0704
  167SAPS    C118832   3.745   2.898   6.332 -0.1061 -0.6584  0.1764
  167SAPS    HA18833   3.710   2.803   6.379  0.0944 -0.2727  1.1342
  167SAPS    HB18834   3.686   2.922   6.241 -2.1306 -0.1500  1.5340
  167SAPS    C218835   3.889   2.890   6.293  0.0177  0.8251  0.3519
  167SAPS    HS18836   3.950   2.882   6.385  1.5851 -1.5156 -0.7819
  167SAPS   O2118837   3.925   3.008   6.219  0.4142  0.3531  0.6051
  167SAPS   C2118838   4.051   3.045   6.197 -1.2318 -0.0202 -0.1749
  167SAPS   O2218839   4.145   2.974   6.234  0.3097  0.3090  0.0355
  167SAPS   C2218840   4.061   3.164   6.102  0.3346  0.7641 -0.3653
  167SAPS   H2R18841   3.960   3.184   6.059 -0.1457 -0.1693  0.2841
  167SAPS   H2S18842   4.104   3.256   6.147  1.9337 -0.1880  0.1198
  167SAPS    C318843   3.927   2.762   6.217 -0.3299  0.0805 -0.0229
  167SAPS    HX18844   3.904   2.670   6.275  1.4178 -0.0926  0.4326
  167SAPS    HY18845   4.036   2.743   6.210 -0.8105 -2.5308 -1.5918
  167SAPS   O3118846   3.860   2.755   6.090 -0.3076 -0.5896  0.1907
  167SAPS   C3118847   3.860   2.644   6.021 -0.6017  0.4457 -0.8784
  167SAPS   O3218848   3.899   2.536   6.062  0.4486 -0.2075  0.1501
  167SAPS   C3218849   3.817   2.679   5.876  0.1671 -0.5021 -0.0314
  167SAPS   H2X18850   3.904   2.740   5.846  1.5058 -1.4403  1.7275
  167SAPS   H2Y18851   3.728   2.745   5.877  0.3860 -0.1778 -1.1073
  167SAPS   C2318852   4.166   3.131   5.990 -0.1938 -0.1972 -0.5490
  167SAPS   H3R18853   4.260   3.101   6.040  0.0483 -0.2763 -1.0401
  167SAPS   H3S18854   4.185   3.221   5.927 -1.8979  0.5086 -0.1249
  167SAPS   C2418855   4.116   3.017   5.900 -0.2693 -0.2468 -0.3248
  167SAPS   H4R18856   4.089   2.927   5.959  1.8205 -0.3824  0.4851
  167SAPS   H4S18857   4.209   2.989   5.845  1.6030  3.4322  0.6027
  167SAPS   C2518858   3.992   3.056   5.822 -0.8881 -0.1925  0.2942
  167SAPS   H5R18859   3.902   3.080   5.880 -1.2690  1.8118 -1.0328
  167SAPS   C2618860   3.987   3.084   5.690  1.3120  0.7844 -0.5334
  167SAPS   H6R18861   3.891   3.115   5.647  0.7925 -0.0190  0.0056
  167SAPS   C2718862   4.101   3.070   5.594 -0.0528 -0.6920  0.5058
  167SAPS   H7R18863   4.201   3.048   5.638  0.3762  2.1801  1.1520
  167SAPS   H7S18864   4.111   3.167   5.539  1.9368 -2.2200 -2.0877
  167SAPS   C2818865   4.052   2.964   5.499 -0.3543  0.2039  0.0279
  167SAPS   H8R18866   4.040   2.866   5.547  1.8055  0.7796  1.9454
  167SAPS   C2918867   4.062   2.973   5.363  0.2671 -0.2962 -0.4251
  167SAPS   H9R18868   4.029   2.888   5.301 -2.1385  1.7760 -2.2532
  167SAPS  C21018869   4.107   3.091   5.277 -0.8413  0.2739 -0.0349
  167SAPS  H10R18870   4.179   3.154   5.334 -0.3053 -0.4619  0.1185
  167SAPS  H10S18871   4.018   3.156   5.263 -0.1510  1.3653  0.4846
  167SAPS  C21118872   4.183   3.038   5.155  0.8816  0.7055  0.4470
  167SAPS  H11R18873   4.289   3.019   5.178  1.0846  0.1701 -0.8193
  167SAPS  C21218874   4.140   3.013   5.030 -0.5757 -0.2212  0.1065
  167SAPS  H12R18875   4.209   2.982   4.951 -0.4500 -1.4264  0.6663
  167SAPS  C21318876   4.002   3.040   4.986  0.0748 -0.1966  0.1392
  167SAPS  H13R18877   3.996   3.150   4.969  3.5587  0.4880  2.4064
  167SAPS  H13S18878   3.923   3.006   5.056  1.2097  0.8399  2.0004
  167SAPS  C21418879   3.983   2.962   4.856 -0.2582  0.3984 -0.2004
  167SAPS  H14R18880   3.955   2.857   4.873 -2.5501  0.8160 -0.9238
  167SAPS  C21518881   3.998   3.002   4.731 -0.2046 -0.3349  0.0408
  167SAPS  H15R18882   3.989   2.929   4.649 -0.5385  0.3372 -0.5296
  167SAPS  C21618883   4.049   3.134   4.676 -0.0243  0.0954  0.8722
  167SAPS  H16R18884   4.152   3.112   4.641 -1.0012 -0.4163 -1.9477
  167SAPS  H16S18885   4.064   3.195   4.767  2.5070  0.8034  0.0902
  167SAPS  C21718886   3.977   3.203   4.564 -0.2838 -0.1792  0.5038
  167SAPS  H17R18887   3.880   3.240   4.603 -1.8498  0.4930 -3.5792
  167SAPS  H17S18888   3.952   3.136   4.479 -1.5164  1.9824 -0.9193
  167SAPS  C21818889   4.057   3.327   4.515 -0.3256 -0.0131 -1.0751
  167SAPS  H18R18890   4.153   3.296   4.468 -0.1186 -0.3654 -0.4310
  167SAPS  H18S18891   4.074   3.388   4.606 -2.1132 -0.0268 -0.6862
  167SAPS  C21918892   3.975   3.429   4.427 -0.0129 -0.1238 -0.6548
  167SAPS  H19R18893   4.045   3.515   4.420 -1.2440  0.8098 -2.7173
  167SAPS  H19S18894   3.877   3.465   4.465  0.2920 -0.0149  0.0486
  167SAPS  C22018895   3.954   3.396   4.278 -0.2412  0.1795  0.0372
  167SAPS  H20R18896   3.870   3.324   4.270 -0.5997  0.6243 -0.3195
  167SAPS  H20S18897   4.046   3.349   4.239 -0.1378 -0.4116  0.9566
  167SAPS  H20T18898   3.935   3.483   4.210  1.7694  1.0215  0.4849
  167SAPS   C3318899   3.776   2.562   5.786  0.0870 -0.2053 -0.2671
  167SAPS   H3X18900   3.684   2.513   5.822 -0.3605  0.8849  0.1322
  167SAPS   H3Y18901   3.849   2.479   5.782 -1.0831 -1.1858 -2.8815
  167SAPS   C3418902   3.743   2.614   5.648 -0.5208  0.1055  0.5500
  167SAPS   H4X18903   3.822   2.679   5.604 -2.1902  0.9631 -1.3444
  167SAPS   H4Y18904   3.653   2.678   5.653  0.0144  0.9071  0.1518
  167SAPS   C3518905   3.714   2.501   5.549  0.0150  0.8159  1.0298
  167SAPS   H5X18906   3.636   2.440   5.599  0.4560 -0.5430  0.1222
  167SAPS   H5Y18907   3.801   2.433   5.537 -0.9676 -0.7386  2.3113
  167SAPS   C3618908   3.663   2.529   5.406 -0.6114 -0.3607  0.3515
  167SAPS   H6X18909   3.573   2.592   5.423 -1.1559 -0.5077 -1.7357
  167SAPS   H6Y18910   3.617   2.445   5.350 -1.7049  1.0486 -0.9209
  167SAPS   C3718911   3.752   2.611   5.304  0.0230  0.0344 -0.0586
  167SAPS   H7X18912   3.832   2.545   5.265 -0.3335 -1.2476  1.2702
  167SAPS   H7Y18913   3.787   2.704   5.355  0.7534  0.1948 -0.8414
  167SAPS   C3818914   3.681   2.655   5.178  0.3152 -0.1906  0.2037
  167SAPS   H8X18915   3.621   2.574   5.130 -0.5444 -0.3509  1.5071
  167SAPS   H8Y18916   3.756   2.694   5.106 -1.0197  2.6286  0.1949
  167SAPS   C3918917   3.589   2.769   5.209  0.0867  0.6002  0.3479
  167SAPS   H9X18918   3.638   2.859   5.252 -0.4635  0.8984  0.3589
  167SAPS   H9Y18919   3.507   2.730   5.273  0.1767 -1.2216 -0.5782
  167SAPS  C31018920   3.508   2.829   5.091  0.4544 -0.3571  0.4191
  167SAPS  H10X18921   3.438   2.907   5.129 -0.6211 -0.8837 -0.4360
  167SAPS  H10Y18922   3.446   2.760   5.029 -1.7082  1.8863 -0.0570
  167SAPS  C31118923   3.594   2.900   4.982 -0.4091  0.2450  0.1531
  167SAPS  H11X18924   3.655   2.825   4.929  2.2275  0.6694  2.3525
  167SAPS  H11Y18925   3.674   2.956   5.035  1.3096 -0.0781 -1.9686
  167SAPS  C31218926   3.525   2.998   4.893 -0.3613 -0.2478  0.1049
  167SAPS  H12X18927   3.518   3.098   4.941 -0.5981  0.5562 -1.5588
  167SAPS  H12Y18928   3.418   2.968   4.882 -0.6604  0.0569  1.8116
  167SAPS  C31318929   3.592   3.006   4.753  0.6554  0.2023 -0.5169
  167SAPS  H13X18930   3.551   2.935   4.679 -0.3933  1.3259 -1.0634
  167SAPS  H13Y18931   3.701   2.992   4.772  0.2141 -0.5340  1.7564
  167SAPS  C31418932   3.580   3.145   4.686 -0.2114  0.0873 -0.3069
  167SAPS  H14X18933   3.474   3.168   4.659 -0.3181  0.3364  0.3084
  167SAPS  H14Y18934   3.645   3.151   4.596 -0.7794 -1.0969 -0.8207
  167SAPS  C31518935   3.624   3.260   4.776  0.3321  0.2789 -0.5608
  167SAPS  H15X18936   3.714   3.216   4.825  0.7644  1.0577 -0.6347
  167SAPS  H15Y18937   3.543   3.276   4.850 -0.5180 -0.4656 -1.3022
  167SAPS  C31618938   3.657   3.393   4.706  1.0866 -0.2711 -0.7387
  167SAPS  H16X18939   3.564   3.446   4.674 -1.0006 -2.4218  1.4171
  167SAPS  H16Y18940   3.717   3.379   4.614  1.3787 -0.9473 -0.4506
  167SAPS  C31718941   3.722   3.488   4.812 -0.2359  0.1805 -0.4482
  167SAPS  H17X18942   3.829   3.462   4.823  0.1103  1.5402 -0.4619
  167SAPS  H17Y18943   3.676   3.474   4.913 -0.6978 -1.4861 -0.8560
  167SAPS  C31818944   3.727   3.635   4.778 -0.6669 -0.6545 -0.3951
  167SAPS  H18X18945   3.800   3.674   4.853 -0.4667  0.6829 -1.2561
  167SAPS  H18Y18946   3.625   3.676   4.797  0.0395  0.9338  0.1351
  167SAPS  H18Z18947   3.768   3.655   4.677 -2.0440 -0.5345 -0.9600
  168SAPS     N18948   5.170   2.406   6.531  0.4750 -0.5553  0.0824
  168SAPS   HN118949   5.224   2.439   6.449 -0.1174 -2.5986 -1.1990
  168SAPS   HN218950   5.193   2.305   6.537  0.8724 -0.4940 -0.3204
  168SAPS   HN318951   5.067   2.417   6.523  0.3969 -0.0109  1.6350
  168SAPS   C1218952   5.215   2.471   6.662  0.0937  0.7972  0.1875
  168SAPS  H12A18953   5.192   2.576   6.669 -1.2831  0.4734  1.1111
  168SAPS   C1318954   5.158   2.383   6.781  0.1981  0.0797  0.0134
  168SAPS  O13A18955   5.072   2.294   6.755  0.1505  0.0681  0.8175
  168SAPS  O13B18956   5.174   2.425   6.904 -1.3204 -0.3963  0.2872
  168SAPS   C1118957   5.373   2.444   6.667  0.9998 -0.2073 -0.8317
  168SAPS  H11A18958   5.381   2.334   6.675 -2.7122 -0.4640  1.0769
  168SAPS  H11B18959   5.408   2.489   6.762 -2.3306  2.3218 -0.6064
  168SAPS     P18960   5.527   2.429   6.462  0.3041 -0.2053 -0.1496
  168SAPS   O1318961   5.665   2.420   6.518 -0.0501 -0.3987 -0.6209
  168SAPS   O1418962   5.464   2.301   6.423  0.0001 -0.0554 -0.0895
  168SAPS   O1218963   5.438   2.512   6.563 -0.2736 -0.2441  1.0842
  168SAPS   O1118964   5.536   2.520   6.335  0.6746  0.3353  0.2094
  168SAPS    C118965   5.572   2.654   6.343  0.3331 -0.1597 -0.5029
  168SAPS    HA18966   5.621   2.677   6.441 -2.4335 -1.6942  1.3732
  168SAPS    HB18967   5.640   2.676   6.258 -2.1096  0.6789 -2.3480
  168SAPS    C218968   5.451   2.748   6.316 -0.0584 -0.0881  0.1130
  168SAPS    HS18969   5.388   2.729   6.406 -1.5107  0.8345 -0.6794
  168SAPS   O2118970   5.374   2.694   6.204 -0.2234 -0.8609  0.0117
  168SAPS   C2118971   5.255   2.753   6.183 -0.1555 -0.4005 -0.2986
  168SAPS   O2218972   5.203   2.835   6.261  0.0910  0.6103 -0.4439
  168SAPS   C2218973   5.206   2.726   6.045 -0.1050 -0.6026  0.2173
  168SAPS   H2R18974   5.290   2.722   5.972 -0.2596  1.3172 -0.1153
  168SAPS   H2S18975   5.169   2.622   6.029 -0.5591 -0.3999 -0.0624
  168SAPS    C318976   5.483   2.899   6.302  0.6671 -0.2923  0.2077
  168SAPS    HX18977   5.552   2.913   6.388  0.0797  2.4002  0.3443
  168SAPS    HY18978   5.394   2.965   6.307 -0.0365 -1.2245  0.0637
  168SAPS   O3118979   5.569   2.922   6.183 -0.2377 -0.4955 -0.0196
  168SAPS   C3118980   5.511   2.948   6.071 -0.4951  0.4388  0.0842
  168SAPS   O3218981   5.396   2.978   6.050  0.3755 -0.0109  0.1543
  168SAPS   C3218982   5.625   2.941   5.957 -0.2267 -0.2322  1.1883
  168SAPS   H2X18983   5.689   2.851   5.968 -1.4953 -1.2409  0.5518
  168SAPS   H2Y18984   5.680   3.036   5.977  0.1235 -0.3792  0.9378
  168SAPS   C2318985   5.109   2.830   5.980 -0.2944 -0.6964  0.1463
  168SAPS   H3R18986   5.171   2.922   5.979  0.2799 -1.0568  1.4147
  168SAPS   H3S18987   5.024   2.836   6.051  0.4767 -0.0579  1.0365
  168SAPS   C2418988   5.063   2.790   5.834 -0.0121 -0.4248 -0.1213
  168SAPS   H4R18989   5.001   2.699   5.848  2.2165 -2.3013 -1.6691
  168SAPS   H4S18990   5.154   2.748   5.787 -0.5741 -1.5679 -0.2183
  168SAPS   C2518991   5.007   2.908   5.757  0.4134 -0.1977 -0.4710
  168SAPS   H5R18992   5.083   2.957   5.695  4.3351 -0.9510  3.2617
  168SAPS   C2618993   4.874   2.923   5.731  0.2345 -0.2850 -0.3693
  168SAPS   H6R18994   4.853   3.001   5.656  3.3296  0.7218 -0.3435
  168SAPS   C2718995   4.746   2.850   5.786  0.2976  0.3057 -0.4717
  168SAPS   H7R18996   4.779   2.806   5.882  1.9661  0.9270 -0.7139
  168SAPS   H7S18997   4.721   2.774   5.710  1.1770  0.9989 -1.4958
  168SAPS   C2818998   4.633   2.943   5.821 -0.3519  0.4582 -0.7261
  168SAPS   H8R18999   4.654   3.049   5.841 -3.1960  0.8705  0.4181
  168SAPS   C2919000   4.509   2.918   5.803  0.6660  0.4865  0.0686
  168SAPS   H9R19001   4.435   2.996   5.826 -0.2999 -0.0959 -0.9397
  168SAPS  C21019002   4.444   2.788   5.761 -0.2248 -0.1360 -0.1652
  168SAPS  H10R19003   4.489   2.770   5.661  1.9379 -0.4180  0.8186
  168SAPS  H10S19004   4.336   2.798   5.734 -0.0817 -0.4052 -0.8738
  168SAPS  C21119005   4.467   2.669   5.848  0.4778  0.2590 -0.6163
  168SAPS  H11R19006   4.573   2.651   5.873  1.3002  4.0859 -0.5953
  168SAPS  C21219007   4.383   2.588   5.907  0.1420 -0.2267 -0.7960
  168SAPS  H12R19008   4.428   2.508   5.969 -1.5448  0.2333  1.1250
  168SAPS  C21319009   4.229   2.580   5.898  0.0047  0.1300 -0.1770
  168SAPS  H13R19010   4.202   2.676   5.851  1.2263  1.1955  1.1709
  168SAPS  H13S19011   4.193   2.580   6.003 -1.0726 -2.0053 -0.4948
  168SAPS  C21419012   4.160   2.460   5.832 -0.8375  0.3467  0.3109
  168SAPS  H14R19013   4.135   2.378   5.902 -0.1169 -1.5248 -1.5250
  168SAPS  C21519014   4.134   2.458   5.700  0.2238  0.3441 -0.4797
  168SAPS  H15R19015   4.080   2.368   5.667 -3.0421  1.9513  0.0874
  168SAPS  C21619016   4.155   2.558   5.588 -0.6849 -0.2651 -0.0073
  168SAPS  H16R19017   4.250   2.614   5.599  0.0491 -0.8929 -2.4418
  168SAPS  H16S19018   4.069   2.625   5.606 -0.2279 -0.5001  3.8052
  168SAPS  C21719019   4.165   2.492   5.454  0.1281 -0.1056 -0.0790
  168SAPS  H17R19020   4.094   2.408   5.437  2.4066 -2.3581  0.8750
  168SAPS  H17S19021   4.261   2.438   5.442 -0.7417 -1.2976 -2.0128
  168SAPS  C21819022   4.142   2.589   5.334 -0.5002 -0.2790 -0.0538
  168SAPS  H18R19023   4.215   2.673   5.346 -0.4073 -0.6161  2.2060
  168SAPS  H18S19024   4.043   2.635   5.351 -0.8498 -0.9300 -0.3161
  168SAPS  C21919025   4.134   2.525   5.194  0.4546  0.0559 -0.6897
  168SAPS  H19R19026   4.070   2.435   5.200  0.2685  0.2378  0.1557
  168SAPS  H19S19027   4.236   2.498   5.157  1.0261  0.6860  0.3584
  168SAPS  C22019028   4.058   2.626   5.098 -0.3346 -0.1982 -0.0016
  168SAPS  H20R19029   4.030   2.584   4.999 -2.1107  0.8750  0.0123
  168SAPS  H20S19030   4.131   2.709   5.079  0.2094 -0.8748 -0.9595
  168SAPS  H20T19031   3.967   2.666   5.147  0.7015  3.4611 -0.7364
  168SAPS   C3319032   5.571   2.931   5.816  0.3322  0.7160  0.4031
  168SAPS   H3X19033   5.460   2.932   5.811  0.3985  1.0112 -1.3413
  168SAPS   H3Y19034   5.598   2.833   5.772  1.5870  1.5314 -0.7306
  168SAPS   C3419035   5.634   3.030   5.714  0.3098  0.9074 -0.2783
  168SAPS   H4X19036   5.643   2.988   5.612 -1.6578 -0.5748  0.0897
  168SAPS   H4Y19037   5.741   3.027   5.744 -0.6353  0.8959  3.6422
  168SAPS   C3519038   5.579   3.171   5.709  0.0017  0.1868 -0.1055
  168SAPS   H5X19039   5.599   3.214   5.809  0.0591  1.2164 -0.5443
  168SAPS   H5Y19040   5.470   3.169   5.688 -0.0735 -0.7949  0.3542
  168SAPS   C3619041   5.652   3.252   5.596  0.7793 -0.4942 -0.4214
  168SAPS   H6X19042   5.761   3.263   5.617  0.6376  0.3211 -0.0865
  168SAPS   H6Y19043   5.600   3.350   5.589  1.1646 -0.2400  0.1518
  168SAPS   C3719044   5.634   3.194   5.454 -0.4969  0.0879  0.4684
  168SAPS   H7X19045   5.526   3.196   5.426 -0.2714 -0.7344 -0.5189
  168SAPS   H7Y19046   5.674   3.090   5.455  0.3848  0.4093 -0.1719
  168SAPS   C3819047   5.713   3.274   5.341  0.7815 -0.4424 -0.1912
  168SAPS   H8X19048   5.807   3.305   5.391  0.2988 -0.5357  0.7869
  168SAPS   H8Y19049   5.649   3.363   5.327  1.3027 -0.4095 -2.8412
  168SAPS   C3919050   5.720   3.204   5.216  0.0342  0.1447  0.2261
  168SAPS   H9X19051   5.616   3.192   5.177  0.1579 -0.5990  0.1175
  168SAPS   H9Y19052   5.768   3.104   5.220  1.2052  0.5354 -2.2577
  168SAPS  C31019053   5.790   3.294   5.108 -0.2852 -0.2300 -0.3007
  168SAPS  H10X19054   5.899   3.275   5.121  0.4649  3.4137 -0.2658
  168SAPS  H10Y19055   5.774   3.400   5.137 -0.7450 -0.1366 -0.8867
  168SAPS  C31119056   5.756   3.249   4.968 -0.2071 -0.5944  0.7717
  168SAPS  H11X19057   5.739   3.140   4.956 -1.7885 -0.5335  2.1497
  168SAPS  H11Y19058   5.839   3.276   4.899 -1.4532 -3.9095 -2.3881
  168SAPS  C31219059   5.633   3.325   4.921 -0.1346  0.0217  0.0378
  168SAPS  H12X19060   5.641   3.435   4.937  2.2537 -0.1642  0.4295
  168SAPS  H12Y19061   5.548   3.306   4.991  0.5042  1.1138  1.1340
  168SAPS  C31319062   5.606   3.294   4.778 -0.0127  0.0452  0.3359
  168SAPS  H13X19063   5.608   3.184   4.762  3.2088 -0.1611  1.4233
  168SAPS  H13Y19064   5.693   3.326   4.716 -1.3899 -0.0016 -1.7578
  168SAPS  C31419065   5.488   3.378   4.725  0.5766 -0.1876  0.0449
  168SAPS  H14X19066   5.506   3.485   4.749  5.5523 -0.5592 -0.9862
  168SAPS  H14Y19067   5.396   3.327   4.763  1.0478 -0.5357  0.7345
  168SAPS  C31519068   5.485   3.371   4.570  0.4208 -0.7254 -0.2969
  168SAPS  H15X19069   5.468   3.267   4.535 -0.7804 -0.0392 -1.9089
  168SAPS  H15Y19070   5.579   3.419   4.536  0.2962 -0.1374  0.1810
  168SAPS  C31619071   5.375   3.459   4.510 -0.4877 -0.0051 -0.2242
  168SAPS  H16X19072   5.400   3.560   4.549  0.9005 -0.2741 -0.3914
  168SAPS  H16Y19073   5.280   3.441   4.565 -0.1200  2.3620  1.3584
  168SAPS  C31719074   5.360   3.431   4.363 -0.3960  0.9046 -0.2199
  168SAPS  H17X19075   5.326   3.325   4.370  0.7887  0.5812  1.2415
  168SAPS  H17Y19076   5.454   3.439   4.305 -0.3754  0.9920 -0.1729
  168SAPS  C31819077   5.256   3.510   4.290  0.6840 -0.4232 -0.0165
  168SAPS  H18X19078   5.288   3.616   4.287  2.0443 -0.8343 -0.9740
  168SAPS  H18Y19079   5.159   3.518   4.343 -0.3127  1.5102 -1.9666
  168SAPS  H18Z19080   5.245   3.474   4.186 -0.9763  1.8695 -0.7114
  169SAPS     N19081   4.410   4.459   6.467  0.1602  0.0750 -0.0238
  169SAPS   HN119082   4.389   4.370   6.517  1.2429 -0.2582 -0.1421
  169SAPS   HN219083   4.325   4.517   6.454  0.6889  0.4700 -2.0051
  169SAPS   HN319084   4.449   4.432   6.374 -0.6656 -0.2568 -0.2890
  169SAPS   C1219085   4.520   4.530   6.533  0.4235 -0.9806 -0.3279
  169SAPS  H12A19086   4.480   4.576   6.622  2.3306  0.5738 -0.2003
  169SAPS   C1319087   4.643   4.447   6.559  0.0632  0.1905  0.0171
  169SAPS  O13A19088   4.669   4.341   6.498  0.5925  0.7776 -0.1640
  169SAPS  O13B19089   4.742   4.515   6.604  0.1076  0.0151  0.2519
  169SAPS   C1119090   4.549   4.664   6.447  0.6573 -0.4511 -0.3325
  169SAPS  H11A19091   4.584   4.626   6.349 -0.1812 -2.3837  0.0480
  169SAPS  H11B19092   4.627   4.728   6.493 -0.0387 -0.2756  0.6428
  169SAPS     P19093   4.421   4.884   6.376  0.4430  0.3465  0.2596
  169SAPS   O1319094   4.289   4.943   6.403  0.0294  0.1260 -0.2448
  169SAPS   O1419095   4.537   4.969   6.417  0.1437  0.5522 -0.4970
  169SAPS   O1219096   4.425   4.743   6.440 -0.2933  0.1578  0.1242
  169SAPS   O1119097   4.432   4.858   6.219 -0.1518  0.1344 -0.2644
  169SAPS    C119098   4.372   4.742   6.158 -0.5424 -0.6515 -0.5738
  169SAPS    HA19099   4.450   4.673   6.120  0.1083 -1.0747  1.4447
  169SAPS    HB19100   4.311   4.680   6.227  0.3017 -2.3977 -1.3249
  169SAPS    C219101   4.287   4.794   6.034 -0.3346 -0.3860  0.1524
  169SAPS    HS19102   4.214   4.723   5.988 -1.2461  0.9528 -0.5171
  169SAPS   O2119103   4.380   4.850   5.943  0.4529  0.1936 -0.2268
  169SAPS   C2119104   4.423   4.767   5.850 -0.1924 -1.0507  0.1595
  169SAPS   O2219105   4.393   4.646   5.847 -0.1379 -0.9004 -0.0850
  169SAPS   C2219106   4.512   4.842   5.752 -0.7238 -0.3056  0.4542
  169SAPS   H2R19107   4.601   4.875   5.810  0.4198 -1.4480 -0.5865
  169SAPS   H2S19108   4.531   4.775   5.666 -2.4322 -4.1948  2.8149
  169SAPS    C319109   4.200   4.919   6.098  1.0177 -0.5167 -0.1790
  169SAPS    HX19110   4.276   4.992   6.134  1.9012 -0.9236 -1.1511
  169SAPS    HY19111   4.146   4.870   6.181  0.8315 -1.0514 -0.6110
  169SAPS   O3119112   4.104   4.975   6.006 -0.8034 -0.4756 -0.2803
  169SAPS   C3119113   4.153   5.073   5.929  0.3305  0.0003 -0.2886
  169SAPS   O3219114   4.255   5.136   5.955  0.7658 -0.1329  0.1545
  169SAPS   C3219115   4.057   5.095   5.818  0.6843 -0.1783  0.3438
  169SAPS   H2X19116   4.060   5.004   5.754  2.3578  0.1254 -0.0586
  169SAPS   H2Y19117   4.106   5.183   5.772  2.0641 -0.5027  1.1307
  169SAPS   C2319118   4.449   4.975   5.701  0.6466  0.3087  0.0665
  169SAPS   H3R19119   4.522   5.029   5.637 -0.9178  1.8024 -0.5390
  169SAPS   H3S19120   4.430   5.052   5.778  1.0500  0.7237 -0.2420
  169SAPS   C2419121   4.327   4.938   5.600  1.1008  0.5768 -0.1568
  169SAPS   H4R19122   4.246   4.892   5.661  1.6321  0.0104  0.1307
  169SAPS   H4S19123   4.354   4.850   5.538  0.8681  0.8611 -0.6710
  169SAPS   C2519124   4.284   5.055   5.514 -0.1978 -0.3442  0.4588
  169SAPS   H5R19125   4.266   5.146   5.574  0.7816 -2.1387  3.7528
  169SAPS   C2619126   4.295   5.076   5.384 -0.7937  0.3856 -0.2334
  169SAPS   H6R19127   4.236   5.155   5.336  1.1128  1.5598 -0.7216
  169SAPS   C2719128   4.348   4.977   5.280 -0.6554 -0.2434  0.6367
  169SAPS   H7R19129   4.301   4.994   5.181 -0.6863 -2.2086  0.2738
  169SAPS   H7S19130   4.313   4.874   5.301 -0.0931 -0.4843  0.4046
  169SAPS   C2819131   4.500   4.989   5.271  0.5037 -0.4152 -0.0281
  169SAPS   H8R19132   4.555   5.013   5.363  1.9287  0.4651 -1.0727
  169SAPS   C2919133   4.575   4.999   5.160  0.2513 -0.2025  0.7155
  169SAPS   H9R19134   4.683   5.015   5.175  0.4331 -0.9645  0.2388
  169SAPS  C21019135   4.524   4.980   5.022  0.2826 -0.2426 -0.1245
  169SAPS  H10R19136   4.539   5.073   4.965  0.0786  0.4200  0.8745
  169SAPS  H10S19137   4.415   4.958   5.022 -0.1489  1.7079 -1.7895
  169SAPS  C21119138   4.595   4.879   4.944  0.3530  0.3113 -0.1415
  169SAPS  H11R19139   4.698   4.866   4.978 -0.0696 -0.3720  0.9462
  169SAPS  C21219140   4.552   4.814   4.834 -0.0115 -0.2464 -0.1076
  169SAPS  H12R19141   4.608   4.735   4.782 -0.5402 -0.2768 -0.6459
  169SAPS  C21319142   4.415   4.827   4.768  1.0683 -0.4290  0.2068
  169SAPS  H13R19143   4.433   4.802   4.662  0.4512  0.1763 -0.0449
  169SAPS  H13S19144   4.369   4.927   4.785  0.6496 -0.4697 -0.6194
  169SAPS  C21419145   4.317   4.726   4.820  0.2218  0.7591 -0.6142
  169SAPS  H14R19146   4.333   4.688   4.921 -0.3665  2.4839  0.1605
  169SAPS  C21519147   4.213   4.686   4.747  0.6328 -0.3069 -0.0631
  169SAPS  H15R19148   4.138   4.614   4.783 -1.2159  0.6963 -1.7360
  169SAPS  C21619149   4.175   4.739   4.613  0.8769  0.3805  0.1005
  169SAPS  H16R19150   4.229   4.833   4.587 -0.9640  1.5630  0.3411
  169SAPS  H16S19151   4.069   4.773   4.608  1.1610  1.3215  0.1173
  169SAPS  C21719152   4.198   4.624   4.505  0.6633 -0.0031  0.7943
  169SAPS  H17R19153   4.149   4.660   4.412 -0.0745  0.1411  1.2325
  169SAPS  H17S19154   4.157   4.524   4.529  0.8839 -0.4906 -0.7995
  169SAPS  C21819155   4.349   4.613   4.469  0.1626  0.4617 -0.3316
  169SAPS  H18R19156   4.392   4.545   4.546 -0.6569 -0.6979 -0.8581
  169SAPS  H18S19157   4.397   4.713   4.478 -0.4276  0.6844  0.4263
  169SAPS  C21919158   4.368   4.531   4.341  0.4351 -0.1198 -0.0859
  169SAPS  H19R19159   4.308   4.579   4.261 -1.8437 -1.9902  0.4240
  169SAPS  H19S19160   4.318   4.433   4.349  0.9380 -0.4332 -0.7082
  169SAPS  C22019161   4.517   4.512   4.304 -0.4244  0.8369  0.3407
  169SAPS  H20R19162   4.540   4.446   4.217  1.0619  0.7508  0.7665
  169SAPS  H20S19163   4.560   4.469   4.397 -3.7088 -0.2427  1.5125
  169SAPS  H20T19164   4.561   4.614   4.292 -0.0362  0.6608  0.2392
  169SAPS   C3319165   3.917   5.142   5.854  0.4798 -0.7431  0.6104
  169SAPS   H3X19166   3.908   5.206   5.944  0.6155  0.2582 -0.0623
  169SAPS   H3Y19167   3.857   5.051   5.878  0.4987 -0.9397 -0.0648
  169SAPS   C3419168   3.838   5.203   5.730  0.1600 -0.5000  0.1578
  169SAPS   H4X19169   3.866   5.308   5.708  1.2079 -0.9661 -0.9221
  169SAPS   H4Y19170   3.730   5.203   5.754 -0.3079 -1.0036 -1.7651
  169SAPS   C3519171   3.862   5.128   5.596 -0.1011  0.4167 -0.0006
  169SAPS   H5X19172   3.820   5.027   5.610  1.4748 -0.0838  1.4226
  169SAPS   H5Y19173   3.969   5.130   5.565 -0.2661 -1.8033 -0.9155
  169SAPS   C3619174   3.792   5.188   5.471 -1.3701  0.2196 -0.3877
  169SAPS   H6X19175   3.829   5.292   5.455  1.0092 -0.0066  2.7258
  169SAPS   H6Y19176   3.683   5.194   5.490 -1.2336  1.7353  0.0453
  169SAPS   C3719177   3.813   5.101   5.345 -0.3780  0.6833 -0.2440
  169SAPS   H7X19178   3.749   5.141   5.263 -1.6463  2.0787  1.3466
  169SAPS   H7Y19179   3.769   5.000   5.363 -2.1038  1.1144 -1.7352
  169SAPS   C3819180   3.959   5.086   5.302 -0.0584 -0.2769 -1.3694
  169SAPS   H8X19181   4.002   5.002   5.360 -0.0079 -0.6135 -1.8868
  169SAPS   H8Y19182   4.010   5.182   5.325 -0.2318 -0.2824 -0.9423
  169SAPS   C3919183   3.977   5.073   5.149  0.5886  0.2396  0.2796
  169SAPS   H9X19184   4.085   5.051   5.129  0.0800 -2.2618  0.0338
  169SAPS   H9Y19185   3.954   5.162   5.086  0.6234  0.5367  0.6837
  169SAPS  C31019186   3.916   4.941   5.096 -0.2682 -0.1557  0.5965
  169SAPS  H10X19187   3.806   4.954   5.090 -0.3473 -1.0143  0.0923
  169SAPS  H10Y19188   3.929   4.850   5.158  1.1723 -1.5711 -1.5960
  169SAPS  C31119189   3.966   4.909   4.959 -0.2245 -0.0050 -0.1947
  169SAPS  H11X19190   4.072   4.879   4.968 -0.2272  0.3745  1.5635
  169SAPS  H11Y19191   3.964   4.999   4.895  0.8291  0.0751 -0.1294
  169SAPS  C31219192   3.890   4.800   4.876 -0.1770  0.2024  0.0257
  169SAPS  H12X19193   3.866   4.709   4.935  0.5818  1.6706  2.8373
  169SAPS  H12Y19194   3.967   4.791   4.796 -2.0289  1.0798 -1.9413
  169SAPS  C31319195   3.764   4.849   4.807 -0.2609  0.2647 -0.5533
  169SAPS  H13X19196   3.777   4.953   4.772  1.1064 -0.2307 -1.6041
  169SAPS  H13Y19197   3.683   4.848   4.884 -0.2268 -0.3814 -0.5225
  169SAPS  C31419198   3.717   4.779   4.688 -0.1983  1.0818  0.6051
  169SAPS  H14X19199   3.739   4.672   4.708  1.3553  0.7588 -2.2545
  169SAPS  H14Y19200   3.764   4.816   4.595  1.8646  0.1293  1.2207
  169SAPS  C31519201   3.570   4.806   4.666 -0.5585  0.6370 -0.0612
  169SAPS  H15X19202   3.568   4.917   4.666  2.2277  0.7777  1.5393
  169SAPS  H15Y19203   3.517   4.783   4.761 -0.1703 -0.6713 -0.1474
  169SAPS  C31619204   3.502   4.748   4.538 -0.3463  0.1242  0.2347
  169SAPS  H16X19205   3.553   4.770   4.442  0.4336 -0.1988  0.5581
  169SAPS  H16Y19206   3.401   4.791   4.526  0.7215  2.0801 -3.4860
  169SAPS  C31719207   3.495   4.593   4.555  0.1630  0.0018 -0.1016
  169SAPS  H17X19208   3.598   4.552   4.550  0.2790  0.0235  1.5369
  169SAPS  H17Y19209   3.434   4.555   4.470 -1.9536 -1.2429  1.8619
  169SAPS  C31819210   3.425   4.540   4.688 -0.3744 -0.3460  0.0690
  169SAPS  H18X19211   3.471   4.442   4.712 -0.0163 -0.4639 -1.0121
  169SAPS  H18Y19212   3.317   4.529   4.663 -0.7904  0.7639  1.2536
  169SAPS  H18Z19213   3.427   4.603   4.779 -0.9063  0.3861 -0.4100
  170SAPS     N19214   5.368   3.920   6.475 -0.3354 -0.7338  0.3376
  170SAPS   HN119215   5.325   3.992   6.414  0.3895 -1.1702 -0.7300
  170SAPS   HN219216   5.460   3.963   6.499 -1.5374  1.5638  1.0038
  170SAPS   HN319217   5.401   3.834   6.426  1.3225  0.6969 -1.2223
  170SAPS   C1219218   5.281   3.890   6.594  0.5853  0.0651 -0.4582
  170SAPS  H12A19219   5.287   3.783   6.612 -0.4892 -0.1669 -1.3779
  170SAPS   C1319220   5.329   3.951   6.726 -0.4566 -0.7072 -0.0889
  170SAPS  O13A19221   5.424   4.030   6.725  0.3489 -0.2071  0.2720
  170SAPS  O13B19222   5.268   3.918   6.832 -0.0394  0.1018 -0.4726
  170SAPS   C1119223   5.135   3.937   6.576 -0.5708 -0.2515  0.9095
  170SAPS  H11A19224   5.138   4.048   6.577 -0.1193 -0.2616  0.8113
  170SAPS  H11B19225   5.075   3.910   6.666 -0.0031 -0.0088  1.3667
  170SAPS     P19226   4.912   3.868   6.441 -0.6563  0.0296 -0.3769
  170SAPS   O1319227   4.843   3.801   6.555 -0.3664  0.6384 -0.6058
  170SAPS   O1419228   4.850   3.996   6.408 -0.0105 -0.2311  0.2453
  170SAPS   O1219229   5.072   3.878   6.462  0.2125  0.3628  0.0840
  170SAPS   O1119230   4.896   3.762   6.321 -0.2332  0.5384 -0.3634
  170SAPS    C119231   4.995   3.668   6.279  0.1502 -0.6515  0.4169
  170SAPS    HA19232   5.072   3.659   6.359  1.8861 -2.7623 -1.3630
  170SAPS    HB19233   4.949   3.568   6.273  0.6542 -1.0330  2.3259
  170SAPS    C219234   5.080   3.721   6.156  0.3291 -0.4809  0.5538
  170SAPS    HS19235   5.121   3.817   6.196  2.5705 -1.0054 -0.3432
  170SAPS   O2119236   4.984   3.735   6.050 -0.8095  0.5551  0.4508
  170SAPS   C2119237   4.923   3.850   6.038 -0.2621  0.8896  0.4729
  170SAPS   O2219238   4.944   3.953   6.100 -0.2866 -0.4240  0.1204
  170SAPS   C2219239   4.800   3.829   5.944 -0.3703  0.2680 -0.2111
  170SAPS   H2R19240   4.789   3.720   5.922 -2.1253  0.7449 -1.9255
  170SAPS   H2S19241   4.712   3.863   6.002 -0.0208  0.5981  0.1318
  170SAPS    C319242   5.188   3.613   6.126  0.0107  0.1722 -0.3683
  170SAPS    HX19243   5.135   3.536   6.067  0.3306  0.3680 -0.9195
  170SAPS    HY19244   5.225   3.571   6.222  0.4354  3.0653  0.8329
  170SAPS   O3119245   5.302   3.673   6.052  0.2606 -0.3055 -0.6918
  170SAPS   C3119246   5.387   3.574   6.017  0.2899  0.5196  0.0204
  170SAPS   O3219247   5.368   3.455   6.028 -0.3527 -0.2333  0.2586
  170SAPS   C3219248   5.511   3.645   5.957 -0.1615  0.1569 -0.5145
  170SAPS   H2X19249   5.573   3.673   6.044  0.3237  2.0725 -1.4234
  170SAPS   H2Y19250   5.487   3.732   5.892 -0.3306  0.0509 -0.5948
  170SAPS   C2319251   4.800   3.901   5.812  0.4051  0.0190 -0.7762
  170SAPS   H3R19252   4.831   4.008   5.814  0.2774  0.0490  0.0981
  170SAPS   H3S19253   4.692   3.898   5.786  0.0577  3.4720 -0.2993
  170SAPS   C2419254   4.868   3.835   5.696  0.3109  0.0182  0.4190
  170SAPS   H4R19255   4.978   3.832   5.712  0.3536 -0.8438 -0.0031
  170SAPS   H4S19256   4.858   3.908   5.613 -0.7330  0.5499  0.9845
  170SAPS   C2519257   4.813   3.698   5.665 -0.1694  0.4062  0.2421
  170SAPS   H5R19258   4.826   3.625   5.746 -0.2782  0.0923 -0.0211
  170SAPS   C2619259   4.777   3.662   5.541 -0.3347  0.4982 -0.1430
  170SAPS   H6R19260   4.740   3.560   5.527 -1.8991  0.8148  1.2476
  170SAPS   C2719261   4.780   3.749   5.421 -0.5650 -0.2003  0.2474
  170SAPS   H7R19262   4.749   3.853   5.445  3.7933  1.2681  0.3413
  170SAPS   H7S19263   4.690   3.710   5.368 -0.9717  0.0631  0.7325
  170SAPS   C2819264   4.910   3.737   5.344  0.0379 -0.4902 -0.7143
  170SAPS   H8R19265   4.995   3.800   5.377  0.8181 -0.9387 -1.8192
  170SAPS   C2919266   4.935   3.653   5.238 -0.0924 -0.1748  0.0983
  170SAPS   H9R19267   5.025   3.669   5.177 -0.3676  0.1584 -0.2253
  170SAPS  C21019268   4.835   3.547   5.198 -0.3756  0.0619 -0.6836
  170SAPS  H10R19269   4.750   3.606   5.157 -0.6409  0.7174  0.7181
  170SAPS  H10S19270   4.819   3.483   5.288  2.9131 -1.1553 -0.8227
  170SAPS  C21119271   4.883   3.453   5.090  0.0471  0.3071  0.7221
  170SAPS  H11R19272   4.977   3.402   5.119 -0.1632 -0.2616  0.4083
  170SAPS  C21219273   4.843   3.447   4.963  0.4602 -0.6807  0.0365
  170SAPS  H12R19274   4.890   3.366   4.907 -1.1135 -2.5334  1.2468
  170SAPS  C21319275   4.736   3.533   4.893  0.0415 -0.4991 -0.7323
  170SAPS  H13R19276   4.748   3.637   4.929  0.8689 -1.2969  1.4990
  170SAPS  H13S19277   4.641   3.493   4.935 -0.0390  0.6269  0.1995
  170SAPS  C21419278   4.720   3.522   4.749 -0.4656 -0.0394 -0.2191
  170SAPS  H14R19279   4.783   3.443   4.705 -0.6899 -0.5259  0.3152
  170SAPS  C21519280   4.644   3.597   4.668 -0.4347 -0.0971  0.4291
  170SAPS  H15R19281   4.650   3.589   4.558 -1.5414 -0.9940  0.4097
  170SAPS  C21619282   4.555   3.715   4.707  0.4241  0.1981  0.5863
  170SAPS  H16R19283   4.566   3.743   4.814  0.1966  0.6698  0.4883
  170SAPS  H16S19284   4.448   3.688   4.701  0.2952  0.7966  0.0562
  170SAPS  C21719285   4.580   3.838   4.613 -0.4451 -0.7962  0.5572
  170SAPS  H17R19286   4.563   3.802   4.510 -1.1473 -0.0189  0.3921
  170SAPS  H17S19287   4.688   3.864   4.625 -0.6114  0.7766 -1.0099
  170SAPS  C21819288   4.506   3.966   4.643  0.2095  0.0289 -0.0876
  170SAPS  H18R19289   4.528   4.010   4.743  0.3431  0.9598 -0.5197
  170SAPS  H18S19290   4.396   3.951   4.636  0.1924 -0.1975  0.5783
  170SAPS  C21919291   4.539   4.072   4.531  0.6761 -0.0002 -0.2992
  170SAPS  H19R19292   4.526   4.013   4.437  0.3607 -4.6354  2.3147
  170SAPS  H19S19293   4.645   4.100   4.546 -0.1963  4.1231 -0.6712
  170SAPS  C22019294   4.453   4.204   4.538  0.5437 -0.1308  0.6856
  170SAPS  H20R19295   4.349   4.179   4.505  0.4374 -0.5898  1.3579
  170SAPS  H20S19296   4.501   4.284   4.477 -0.4711  0.2055  0.3001
  170SAPS  H20T19297   4.444   4.227   4.646 -0.2798 -0.5782  0.7251
  170SAPS   C3319298   5.607   3.569   5.868 -0.3383  0.2900 -0.1866
  170SAPS   H3X19299   5.564   3.549   5.768  0.4293  4.5343 -1.5947
  170SAPS   H3Y19300   5.628   3.480   5.930 -0.8538 -0.0218 -0.4611
  170SAPS   C3419301   5.736   3.652   5.840  0.7967 -0.3181 -0.4547
  170SAPS   H4X19302   5.798   3.631   5.930 -2.0624 -1.1704  1.4630
  170SAPS   H4Y19303   5.699   3.756   5.829  2.4593  0.2488 -0.8409
  170SAPS   C3519304   5.807   3.612   5.711  0.0560  0.6739  0.2831
  170SAPS   H5X19305   5.863   3.516   5.714  1.4218  1.4613  2.5596
  170SAPS   H5Y19306   5.887   3.688   5.704  0.2551  0.6385  1.7459
  170SAPS   C3619307   5.712   3.648   5.590  0.2088 -0.0886  0.1752
  170SAPS   H6X19308   5.645   3.735   5.606 -1.3264 -1.2618  0.3513
  170SAPS   H6Y19309   5.647   3.560   5.572 -0.8201  0.3237  1.7210
  170SAPS   C3719310   5.797   3.678   5.461 -0.3207 -0.0052  0.0917
  170SAPS   H7X19311   5.865   3.591   5.443 -1.3514 -0.7027 -0.5548
  170SAPS   H7Y19312   5.847   3.768   5.502 -0.7956  0.8063 -1.0769
  170SAPS   C3819313   5.715   3.697   5.340  1.3205 -0.2505 -0.1108
  170SAPS   H8X19314   5.651   3.788   5.338 -0.9452 -1.7492 -0.0998
  170SAPS   H8Y19315   5.645   3.610   5.339 -1.0799  1.5052  2.6188
  170SAPS   C3919316   5.797   3.703   5.211 -0.1835 -0.2148 -0.1380
  170SAPS   H9X19317   5.863   3.616   5.190  0.1402 -0.2133  0.8330
  170SAPS   H9Y19318   5.859   3.796   5.212  0.5799 -0.7044  1.4903
  170SAPS  C31019319   5.704   3.717   5.094 -0.0367 -0.2311 -0.4194
  170SAPS  H10X19320   5.631   3.795   5.123  1.4030  0.5953  1.1702
  170SAPS  H10Y19321   5.651   3.623   5.071 -1.1406  0.2215  0.1740
  170SAPS  C31119322   5.763   3.764   4.969 -0.4219 -0.7560 -0.6588
  170SAPS  H11X19323   5.860   3.717   4.941  1.0945  2.4121 -1.1775
  170SAPS  H11Y19324   5.784   3.873   4.974  0.5162 -0.8658 -1.7319
  170SAPS  C31219325   5.660   3.748   4.859 -0.1294 -0.1772 -0.1374
  170SAPS  H12X19326   5.566   3.801   4.881 -0.8943 -1.8919  0.9283
  170SAPS  H12Y19327   5.633   3.640   4.853  1.7974 -0.6728 -0.8301
  170SAPS  C31319328   5.708   3.792   4.720 -0.1836  0.0894 -0.0299
  170SAPS  H13X19329   5.805   3.746   4.691  0.4551  1.5870 -0.3709
  170SAPS  H13Y19330   5.719   3.902   4.709 -0.2612  0.1415  0.4016
  170SAPS  C31419331   5.613   3.756   4.612 -0.5863 -0.2466 -1.2364
  170SAPS  H14X19332   5.522   3.817   4.629  0.3193  0.7069  0.4934
  170SAPS  H14Y19333   5.589   3.648   4.601 -3.1449  0.3279 -2.0215
  170SAPS  C31519334   5.670   3.803   4.479  0.2507 -0.3739 -0.5355
  170SAPS  H15X19335   5.760   3.741   4.456  0.8227  0.0167  0.5623
  170SAPS  H15Y19336   5.697   3.910   4.477  0.1124 -0.3066  0.6428
  170SAPS  C31619337   5.565   3.779   4.363 -0.6225  0.2702 -0.2590
  170SAPS  H16X19338   5.492   3.862   4.369 -1.4469 -0.2026 -2.6558
  170SAPS  H16Y19339   5.517   3.679   4.362 -1.1384  0.5163 -0.4882
  170SAPS  C31719340   5.631   3.796   4.221  0.0144 -0.0752  0.2657
  170SAPS  H17X19341   5.713   3.727   4.195 -0.1010 -0.9003  1.9680
  170SAPS  H17Y19342   5.686   3.893   4.221  1.1955 -0.7366  0.2252
  170SAPS  C31819343   5.512   3.781   4.121  0.0321 -0.5209  0.6815
  170SAPS  H18X19344   5.435   3.703   4.141  0.9732 -1.9749 -1.0226
  170SAPS  H18Y19345   5.533   3.782   4.012 -0.9814  2.7810  0.4073
  170SAPS  H18Z19346   5.463   3.876   4.151 -1.3304 -0.8647 -0.3452
  171SAPS     N19347   6.026   2.591   6.759  0.7350 -0.1798 -0.3377
  171SAPS   HN119348   6.129   2.578   6.774  0.4390 -2.0070  0.4262
  171SAPS   HN219349   5.978   2.499   6.757 -1.3550  0.8414 -0.1890
  171SAPS   HN319350   6.005   2.634   6.667 -0.9822  0.2395  0.2269
  171SAPS   C1219351   5.978   2.679   6.866 -0.4828  0.3038 -0.2093
  171SAPS  H12A19352   5.871   2.682   6.847 -0.4114  3.3652 -0.6299
  171SAPS   C1319353   6.004   2.628   7.007  0.4254 -0.5977 -0.1003
  171SAPS  O13A19354   6.064   2.519   7.028  0.2986 -0.1649 -0.3491
  171SAPS  O13B19355   5.961   2.692   7.107  0.0916  0.0979  0.0971
  171SAPS   C1119356   6.041   2.813   6.846  0.3489  0.0386  0.9345
  171SAPS  H11A19357   6.151   2.813   6.860  0.4717 -0.8292  0.0877
  171SAPS  H11B19358   6.006   2.871   6.934 -0.6481  0.2317  0.4311
  171SAPS     P19359   6.047   3.025   6.700 -0.2439 -0.0216 -0.1841
  171SAPS   O1319360   5.949   3.098   6.617  0.2859  0.5047  0.0028
  171SAPS   O1419361   6.094   3.084   6.828  0.1634  1.0413  0.3696
  171SAPS   O1219362   6.003   2.872   6.720 -0.3204 -0.5233  0.0278
  171SAPS   O1119363   6.172   3.007   6.608 -0.1937 -0.2465  0.2805
  171SAPS    C119364   6.179   2.903   6.517  0.4469 -0.9232 -0.0489
  171SAPS    HA19365   6.181   2.802   6.564 -1.3983 -0.6170  0.7818
  171SAPS    HB19366   6.089   2.894   6.453  1.4999 -2.3718 -1.3887
  171SAPS    C219367   6.294   2.917   6.414  0.4925  0.5597  0.1124
  171SAPS    HS19368   6.385   2.918   6.478 -0.2068  0.8324  1.1349
  171SAPS   O2119369   6.279   3.042   6.347  0.2416 -0.8081  0.4022
  171SAPS   C2119370   6.391   3.116   6.328  0.6363  0.5904 -0.2762
  171SAPS   O2219371   6.499   3.091   6.376 -0.4258 -0.8586 -0.1378
  171SAPS   C2219372   6.352   3.227   6.233  0.6875  0.1061 -0.3958
  171SAPS   H2R19373   6.269   3.191   6.170  1.9485 -0.2467 -1.9007
  171SAPS   H2S19374   6.329   3.321   6.288  1.5582  1.2927 -1.9812
  171SAPS    C319375   6.296   2.804   6.309  0.9318  0.8109 -0.0581
  171SAPS    HX19376   6.295   2.714   6.374  0.1631  2.5883  2.5236
  171SAPS    HY19377   6.390   2.814   6.250  0.9919 -2.5789 -0.7485
  171SAPS   O3119378   6.178   2.802   6.220 -0.2818  0.3143 -0.6638
  171SAPS   C3119379   6.139   2.687   6.176 -0.6217  0.6700  0.2566
  171SAPS   O3219380   6.207   2.585   6.178  0.4943 -0.1147 -0.1646
  171SAPS   C3219381   5.992   2.710   6.124  0.4962 -0.4641 -0.1138
  171SAPS   H2X19382   5.964   2.815   6.146 -0.6059 -0.8773  0.5751
  171SAPS   H2Y19383   5.936   2.641   6.191 -0.6489  1.1511  0.6563
  171SAPS   C2319384   6.471   3.263   6.141  0.0158 -0.1942  0.4028
  171SAPS   H3R19385   6.569   3.278   6.192  0.1804 -0.3331  0.1303
  171SAPS   H3S19386   6.447   3.355   6.084  0.1568  0.5951  1.5782
  171SAPS   C2419387   6.499   3.155   6.039 -0.1836  0.0921 -0.1129
  171SAPS   H4R19388   6.505   3.060   6.095 -2.3381 -0.8170 -1.2952
  171SAPS   H4S19389   6.595   3.181   5.991  0.2086  0.4006  0.8110
  171SAPS   C2519390   6.396   3.145   5.929  0.1543 -0.2003 -0.1308
  171SAPS   H5R19391   6.295   3.113   5.960 -0.7137  1.3578 -1.2092
  171SAPS   C2619392   6.416   3.186   5.801  0.4776 -0.0194 -1.0488
  171SAPS   H6R19393   6.340   3.149   5.731  1.4297 -2.7132 -0.7690
  171SAPS   C2719394   6.543   3.233   5.741  0.5619 -0.7678 -0.0161
  171SAPS   H7R19395   6.548   3.183   5.642  1.0117 -0.3018 -0.2341
  171SAPS   H7S19396   6.633   3.192   5.792  0.6128 -0.4823  0.1258
  171SAPS   C2819397   6.561   3.388   5.736  0.4902  0.6161  0.0484
  171SAPS   H8R19398   6.576   3.414   5.842  1.9989 -0.1819  0.0581
  171SAPS   C2919399   6.570   3.470   5.628  0.6980  0.8701 -0.1280
  171SAPS   H9R19400   6.572   3.579   5.646 -1.8645  0.9356  0.1150
  171SAPS  C21019401   6.575   3.419   5.485 -0.0558  0.0567 -0.1847
  171SAPS  H10R19402   6.537   3.315   5.478  0.8985 -0.2776 -0.6009
  171SAPS  H10S19403   6.683   3.419   5.456 -0.0453  1.8663 -0.2627
  171SAPS  C21119404   6.487   3.515   5.399 -0.2278  0.5567 -0.0506
  171SAPS  H11R19405   6.393   3.553   5.441  0.2077  0.2151  1.3047
  171SAPS  C21219406   6.531   3.563   5.283  1.0252 -0.2626 -0.1849
  171SAPS  H12R19407   6.458   3.625   5.227  0.1486  0.0203  1.2097
  171SAPS  C21319408   6.660   3.535   5.203 -0.5302 -0.2240  0.6053
  171SAPS  H13R19409   6.643   3.474   5.111 -0.0379 -0.0283  0.3789
  171SAPS  H13S19410   6.728   3.466   5.257  1.0973  0.2532 -0.7660
  171SAPS  C21419411   6.721   3.665   5.159 -0.4162 -0.0482 -0.0501
  171SAPS  H14R19412   6.786   3.711   5.235 -1.8891 -0.6536  1.6718
  171SAPS  C21519413   6.698   3.726   5.045 -0.6283  0.5262  0.1012
  171SAPS  H15R19414   6.759   3.817   5.035  0.4704 -0.1634  0.2854
  171SAPS  C21619415   6.603   3.686   4.937  1.0311 -0.1649 -0.1578
  171SAPS  H16R19416   6.510   3.747   4.940  1.4592  0.4909  2.0792
  171SAPS  H16S19417   6.558   3.586   4.955  0.7190  0.3154  2.0525
  171SAPS  C21719418   6.674   3.684   4.805 -0.5377 -0.3657 -0.1202
  171SAPS  H17R19419   6.732   3.776   4.782 -0.9796 -0.4410 -1.6367
  171SAPS  H17S19420   6.605   3.678   4.718 -0.8707  0.1903  0.1007
  171SAPS  C21819421   6.774   3.567   4.801 -0.2438  0.2332 -0.4718
  171SAPS  H18R19422   6.726   3.469   4.822 -0.3630  0.5932  1.0403
  171SAPS  H18S19423   6.851   3.570   4.882 -1.6022 -0.5777  0.8952
  171SAPS  C21919424   6.853   3.561   4.667  0.3875 -0.9978 -0.9444
  171SAPS  H19R19425   6.902   3.658   4.646 -0.3050 -0.7826 -1.6565
  171SAPS  H19S19426   6.780   3.546   4.584  0.3083 -1.2748 -0.8256
  171SAPS  C22019427   6.961   3.452   4.667  0.3190 -0.2201 -0.6893
  171SAPS  H20R19428   7.012   3.450   4.568  0.1707 -0.0896 -0.7684
  171SAPS  H20S19429   6.910   3.355   4.689 -1.0293  0.9630  1.7799
  171SAPS  H20T19430   7.038   3.470   4.745  0.4985  2.6157 -1.4439
  171SAPS   C3319431   5.967   2.662   5.982 -0.4261 -0.6171  0.2228
  171SAPS   H3X19432   5.856   2.659   5.977 -0.4954 -0.7213  1.6266
  171SAPS   H3Y19433   6.001   2.557   5.967 -0.6878 -0.5768 -0.7073
  171SAPS   C3419434   6.012   2.766   5.874  0.0351  0.1457  0.1550
  171SAPS   H4X19435   6.119   2.782   5.898 -0.4256  1.7423  1.2787
  171SAPS   H4Y19436   5.960   2.861   5.896 -1.7451 -1.0928  1.6055
  171SAPS   C3519437   5.994   2.727   5.728 -0.0789  0.7630 -0.2396
  171SAPS   H5X19438   5.890   2.694   5.707 -0.1569  0.6752  0.2887
  171SAPS   H5Y19439   6.061   2.642   5.703  0.9675  1.2485  0.8325
  171SAPS   C3619440   6.033   2.838   5.630  0.5939  0.2539  0.3344
  171SAPS   H6X19441   6.133   2.876   5.663  1.0540 -0.7715  0.1738
  171SAPS   H6Y19442   5.951   2.913   5.633  0.5042  0.1572  2.8166
  171SAPS   C3719443   6.061   2.784   5.492 -0.5038 -0.1807  0.0750
  171SAPS   H7X19444   5.970   2.726   5.466 -0.9752 -0.6785  2.5938
  171SAPS   H7Y19445   6.149   2.716   5.490 -0.3316  0.0623 -1.1216
  171SAPS   C3819446   6.080   2.896   5.384  0.3006  0.2862  0.2445
  171SAPS   H8X19447   6.172   2.955   5.401 -0.0519  1.0256 -0.3716
  171SAPS   H8Y19448   5.988   2.958   5.379  1.6534  2.2867 -0.8728
  171SAPS   C3919449   6.086   2.837   5.241  0.0009 -0.4969 -0.2282
  171SAPS   H9X19450   6.012   2.754   5.235 -1.5532  0.8278  0.0070
  171SAPS   H9Y19451   6.191   2.807   5.220 -0.4020 -1.5885 -0.8042
  171SAPS  C31019452   6.036   2.937   5.134  0.6829 -0.3438  0.4364
  171SAPS  H10X19453   6.077   3.039   5.145 -2.0134  0.7124  1.4862
  171SAPS  H10Y19454   5.928   2.945   5.155  0.8656 -0.7987  1.6029
  171SAPS  C31119455   6.080   2.892   4.999  0.0615 -0.7948 -0.1494
  171SAPS  H11X19456   6.032   2.795   4.973  1.6238 -1.8372  0.7383
  171SAPS  H11Y19457   6.190   2.881   5.000  0.2722  0.8807 -1.0112
  171SAPS  C31219458   6.053   2.985   4.876 -0.1783  0.2532  0.0542
  171SAPS  H12X19459   6.071   3.092   4.900  0.9572  0.6564 -2.3389
  171SAPS  H12Y19460   5.943   2.978   4.862 -0.1020  1.0511 -1.0450
  171SAPS  C31319461   6.112   2.943   4.745 -0.8946 -0.1934 -0.5638
  171SAPS  H13X19462   6.048   2.864   4.700 -0.0609 -0.3135 -1.5852
  171SAPS  H13Y19463   6.219   2.912   4.753 -1.3652 -1.4315  1.8300
  171SAPS  C31419464   6.096   3.061   4.644  0.5660 -0.1938  0.1853
  171SAPS  H14X19465   6.123   3.009   4.549 -0.6011  0.0370 -0.2826
  171SAPS  H14Y19466   6.165   3.141   4.678  1.4386 -1.3078  1.1450
  171SAPS  C31519467   5.956   3.127   4.629  0.3939  0.3483  0.0874
  171SAPS  H15X19468   5.931   3.183   4.721  1.2003  2.8454 -1.1266
  171SAPS  H15Y19469   5.876   3.049   4.626 -0.0442  0.8152 -1.3513
  171SAPS  C31619470   5.949   3.220   4.508 -0.9842  0.6590 -0.4663
  171SAPS  H16X19471   5.848   3.253   4.477 -1.6494  0.7722  1.6695
  171SAPS  H16Y19472   5.988   3.155   4.427  0.8006 -0.6525  1.3282
  171SAPS  C31719473   6.030   3.353   4.532  0.6252  0.5813  0.0065
  171SAPS  H17X19474   6.138   3.335   4.551  1.0154 -0.7555 -2.9138
  171SAPS  H17Y19475   5.979   3.391   4.623 -0.2415 -0.4485 -0.0244
  171SAPS  C31819476   6.028   3.450   4.403 -0.7384 -0.4220 -0.5880
  171SAPS  H18X19477   6.088   3.540   4.428 -0.0805 -0.7637 -0.9182
  171SAPS  H18Y19478   5.929   3.481   4.365 -0.3117  0.8748 -0.6913
  171SAPS  H18Z19479   6.091   3.392   4.332 -0.5619  1.0298 -1.6418
  172SAPS     N19480   6.696   4.484   6.734  0.2007 -0.5262  0.5607
  172SAPS   HN119481   6.627   4.548   6.780  1.9848  2.1578 -0.2592
  172SAPS   HN219482   6.716   4.516   6.637 -0.8690 -0.4554  0.3441
  172SAPS   HN319483   6.645   4.393   6.732 -0.4938 -0.1425 -0.5938
  172SAPS   C1219484   6.815   4.477   6.830  0.2924 -0.5992 -0.3705
  172SAPS  H12A19485   6.842   4.579   6.851 -0.4010 -0.6531  0.8936
  172SAPS   C1319486   6.771   4.416   6.970 -0.1703 -0.2276  0.0450
  172SAPS  O13A19487   6.671   4.347   6.980  0.4893 -0.1601 -0.6609
  172SAPS  O13B19488   6.838   4.446   7.066 -0.3286 -0.2570 -0.4376
  172SAPS   C1119489   6.935   4.392   6.774 -0.5734 -0.3264 -0.5213
  172SAPS  H11A19490   6.893   4.291   6.752 -0.7647 -0.0929 -1.2753
  172SAPS  H11B19491   7.004   4.377   6.859  0.6660 -0.6409 -1.5492
  172SAPS     P19492   7.137   4.401   6.629  0.5235 -0.3828  0.1164
  172SAPS   O1319493   7.224   4.520   6.661 -0.2055 -0.0087 -0.2150
  172SAPS   O1419494   7.162   4.281   6.709 -0.3025  0.3336 -0.1877
  172SAPS   O1219495   6.988   4.452   6.657 -0.3797 -0.2205  0.5170
  172SAPS   O1119496   7.131   4.364   6.474 -0.0138 -0.1252 -0.4653
  172SAPS    C119497   7.117   4.461   6.371 -0.1978 -0.1899  0.6662
  172SAPS    HA19498   7.061   4.552   6.404 -1.3783 -0.2481 -1.0108
  172SAPS    HB19499   7.217   4.494   6.335 -0.7015 -0.4857 -1.1128
  172SAPS    C219500   7.029   4.404   6.259 -0.7745  0.4051 -0.1159
  172SAPS    HS19501   6.940   4.364   6.313  0.5675 -1.5616  0.7862
  172SAPS   O2119502   7.112   4.310   6.187 -0.0643 -0.1780 -0.2684
  172SAPS   C2119503   7.045   4.214   6.124  0.1596  0.2111  0.1188
  172SAPS   O2219504   6.926   4.211   6.112 -0.5467 -0.2242  0.2444
  172SAPS   C2219505   7.153   4.132   6.047 -0.3705  0.2961  0.3411
  172SAPS   H2R19506   7.221   4.187   5.979  2.0958 -0.6269  1.9251
  172SAPS   H2S19507   7.220   4.082   6.120 -1.9791  3.0672  4.0320
  172SAPS    C319508   6.977   4.513   6.165  0.1365 -0.6069 -1.2751
  172SAPS    HX19509   6.902   4.577   6.217  0.8124  0.5954 -1.7497
  172SAPS    HY19510   6.928   4.461   6.080  0.6402 -0.6779 -1.5214
  172SAPS   O3119511   7.084   4.603   6.125  0.5116 -0.0794 -0.0052
  172SAPS   C3119512   7.115   4.599   5.993  0.4331  0.5671  0.0277
  172SAPS   O3219513   7.072   4.519   5.916 -0.6482  0.4237  0.9115
  172SAPS   C3219514   7.196   4.719   5.952 -0.2676 -0.2570  0.1313
  172SAPS   H2X19515   7.255   4.741   6.044  2.1499 -2.3636 -0.8140
  172SAPS   H2Y19516   7.130   4.806   5.930  1.6393  1.0844 -0.6328
  172SAPS   C2319517   7.073   4.034   5.953 -0.8849 -0.0260  0.1545
  172SAPS   H3R19518   6.987   4.065   5.889 -0.7006  1.1549  0.4613
  172SAPS   H3S19519   7.027   3.963   6.024  1.2973 -0.5120  1.1605
  172SAPS   C2419520   7.165   3.974   5.845 -0.2643  0.1167 -0.2032
  172SAPS   H4R19521   7.195   4.065   5.787 -1.1805  0.3487 -0.3309
  172SAPS   H4S19522   7.116   3.904   5.774 -2.2494 -0.0279  1.2439
  172SAPS   C2519523   7.287   3.893   5.896  0.0566 -0.1042 -0.3801
  172SAPS   H5R19524   7.286   3.870   6.003 -0.4388 -1.3701 -0.6420
  172SAPS   C2619525   7.381   3.828   5.826 -0.4949  0.5982  0.2801
  172SAPS   H6R19526   7.465   3.780   5.879  0.9530  3.7836  1.0943
  172SAPS   C2719527   7.402   3.833   5.678  0.1733  0.1350  0.1751
  172SAPS   H7R19528   7.504   3.873   5.658 -1.0156  2.0269 -2.8657
  172SAPS   H7S19529   7.329   3.904   5.635 -0.6009 -0.5132  0.4010
  172SAPS   C2819530   7.397   3.698   5.606 -0.0649  0.0842  0.5575
  172SAPS   H8R19531   7.365   3.608   5.662  0.4366 -0.8684 -0.6511
  172SAPS   C2919532   7.425   3.680   5.477 -0.4111  0.6634  0.1876
  172SAPS   H9R19533   7.433   3.578   5.437  2.3680  0.5531  0.8340
  172SAPS  C21019534   7.464   3.791   5.385  0.2609 -0.0456  0.6945
  172SAPS  H10R19535   7.418   3.886   5.420 -0.7503  0.0518 -0.7983
  172SAPS  H10S19536   7.426   3.773   5.282 -0.5972  1.7835  0.6388
  172SAPS  C21119537   7.609   3.828   5.372 -0.3907 -0.2169 -0.2697
  172SAPS  H11R19538   7.667   3.780   5.452  1.6400  2.6271  0.1108
  172SAPS  C21219539   7.664   3.915   5.282 -1.1894 -0.2555  0.9133
  172SAPS  H12R19540   7.768   3.948   5.289 -1.1722  1.3620 -3.5406
  172SAPS  C21319541   7.584   3.986   5.172 -0.1522 -0.0301  0.0277
  172SAPS  H13R19542   7.513   4.062   5.212  1.8467  1.6791  0.5109
  172SAPS  H13S19543   7.510   3.921   5.121  0.2134 -1.8238  1.7008
  172SAPS  C21419544   7.671   4.049   5.063 -0.0569 -0.6155  0.0450
  172SAPS  H14R19545   7.692   4.156   5.072 -1.9788 -0.1067 -0.8691
  172SAPS  C21519546   7.705   3.981   4.951  1.3308 -0.4003  0.1865
  172SAPS  H15R19547   7.776   4.030   4.882  0.4221 -0.8296 -1.0841
  172SAPS  C21619548   7.675   3.838   4.908 -0.4135 -0.2496 -0.0417
  172SAPS  H16R19549   7.631   3.782   4.994  0.4519 -1.5598 -0.4257
  172SAPS  H16S19550   7.768   3.781   4.890 -0.8442 -1.3606  1.1056
  172SAPS  C21719551   7.574   3.815   4.783 -0.7716  0.5327 -0.1663
  172SAPS  H17R19552   7.471   3.853   4.801 -0.0284  2.5113  0.0872
  172SAPS  H17S19553   7.570   3.707   4.757  2.3116  0.8049 -2.1636
  172SAPS  C21819554   7.609   3.883   4.652 -0.3652 -0.1782 -0.1018
  172SAPS  H18R19555   7.719   3.888   4.636 -0.3152  1.0025  0.5369
  172SAPS  H18S19556   7.595   3.991   4.670 -0.5815 -0.0708 -0.8878
  172SAPS  C21919557   7.540   3.824   4.524 -0.2216  0.1362 -0.5015
  172SAPS  H19R19558   7.515   3.903   4.450 -0.6323 -1.5565 -2.2423
  172SAPS  H19S19559   7.440   3.789   4.558 -1.0533  0.3851 -2.5528
  172SAPS  C22019560   7.622   3.704   4.457 -0.2559 -0.1968 -0.0816
  172SAPS  H20R19561   7.572   3.678   4.361 -2.6140  2.4075  0.3054
  172SAPS  H20S19562   7.632   3.619   4.528 -0.2756 -0.8013 -0.7861
  172SAPS  H20T19563   7.722   3.746   4.436 -0.5409 -0.1715 -1.5317
  172SAPS   C3319564   7.295   4.690   5.837 -0.0895 -0.5797 -0.0033
  172SAPS   H3X19565   7.227   4.654   5.758 -1.7213  0.1167  1.0411
  172SAPS   H3Y19566   7.365   4.607   5.860 -0.7313 -1.0540  0.2387
  172SAPS   C3419567   7.376   4.813   5.774 -0.8717  0.9152  0.2179
  172SAPS   H4X19568   7.457   4.835   5.847  0.4435 -0.3556 -0.7930
  172SAPS   H4Y19569   7.306   4.898   5.759  1.0373  2.7101  0.8976
  172SAPS   C3519570   7.444   4.781   5.632  0.1787 -0.0196 -0.0241
  172SAPS   H5X19571   7.501   4.686   5.637  1.2279  0.5496 -0.6854
  172SAPS   H5Y19572   7.504   4.874   5.621  1.2799 -0.7725 -0.6215
  172SAPS   C3619573   7.348   4.758   5.515 -0.2982  0.2892 -0.2559
  172SAPS   H6X19574   7.257   4.821   5.528 -0.3037  0.1608  0.3410
  172SAPS   H6Y19575   7.308   4.655   5.513 -1.9301  0.8993 -0.6936
  172SAPS   C3719576   7.418   4.805   5.386  0.5896 -0.1120  0.1827
  172SAPS   H7X19577   7.512   4.748   5.370  1.1852  0.9374 -0.1547
  172SAPS   H7Y19578   7.450   4.912   5.385 -0.8785  0.3478 -0.6431
  172SAPS   C3819579   7.340   4.779   5.256  0.8579 -0.2595 -0.0914
  172SAPS   H8X19580   7.251   4.843   5.239  0.2364 -1.5412 -1.9919
  172SAPS   H8Y19581   7.306   4.673   5.255 -0.5762  0.1549  1.1634
  172SAPS   C3919582   7.420   4.808   5.130  0.4365  0.2419  0.0904
  172SAPS   H9X19583   7.516   4.754   5.148 -0.5535 -0.4381  4.1794
  172SAPS   H9Y19584   7.440   4.915   5.110  0.0811  0.3749  0.4424
  172SAPS  C31019585   7.351   4.761   5.003 -0.3744 -0.0074 -0.0272
  172SAPS  H10X19586   7.254   4.814   4.987 -2.0825 -3.0482 -0.5195
  172SAPS  H10Y19587   7.332   4.652   5.008  1.2296 -0.2441  2.5641
  172SAPS  C31119588   7.441   4.774   4.876  0.0793  0.0713 -0.4789
  172SAPS  H11X19589   7.537   4.720   4.891  0.9932  2.2814  2.3834
  172SAPS  H11Y19590   7.466   4.880   4.860  3.6782 -0.8435 -1.7961
  172SAPS  C31219591   7.380   4.711   4.744  0.0817  0.8494  0.8967
  172SAPS  H12X19592   7.296   4.772   4.704  0.1492  1.2533  1.3675
  172SAPS  H12Y19593   7.331   4.613   4.762 -2.1277  0.9189 -3.3725
  172SAPS  C31319594   7.482   4.687   4.630  0.3944  0.3439 -0.1579
  172SAPS  H13X19595   7.562   4.616   4.661  0.7704  0.4983 -0.7659
  172SAPS  H13Y19596   7.522   4.783   4.592 -2.9804  2.6117  1.5218
  172SAPS  C31419597   7.419   4.613   4.508  0.0097 -0.2825 -0.1412
  172SAPS  H14X19598   7.330   4.673   4.478  0.5082  1.4551  1.6280
  172SAPS  H14Y19599   7.386   4.514   4.545 -0.8514  0.1186  0.1901
  172SAPS  C31519600   7.504   4.608   4.385 -0.6961 -0.1355 -0.4537
  172SAPS  H15X19601   7.591   4.546   4.414 -1.3259 -0.5168  0.6474
  172SAPS  H15Y19602   7.540   4.710   4.358  2.1501 -0.9581 -0.0288
  172SAPS  C31619603   7.436   4.542   4.264  0.2486  0.3019 -0.0108
  172SAPS  H16X19604   7.404   4.441   4.296 -2.0521  0.9795 -0.0307
  172SAPS  H16Y19605   7.345   4.595   4.228 -2.2236 -2.5249  1.6068
  172SAPS  C31719606   7.529   4.527   4.144 -0.1848  0.1145 -0.3787
  172SAPS  H17X19607   7.629   4.506   4.187  0.0196  0.3017 -0.7519
  172SAPS  H17Y19608   7.525   4.624   4.089  1.2289 -0.2739 -1.2164
  172SAPS  C31819609   7.479   4.412   4.051  0.3165  0.2525 -0.0823
  172SAPS  H18X19610   7.382   4.444   4.007  1.3864  1.2726 -1.8154
  172SAPS  H18Y19611   7.454   4.318   4.103  0.7554 -1.2602 -2.4534
  172SAPS  H18Z19612   7.544   4.374   3.969  0.1453  0.3230 -0.2518
  173SAPS     N19613   5.638   6.507   1.927  0.0732 -0.0891  0.2268
  173SAPS   HN119614   5.585   6.597   1.922 -0.7250 -0.5136  0.9211
  173SAPS   HN219615   5.571   6.428   1.925 -0.4280  0.3303  0.2695
  173SAPS   HN319616   5.710   6.503   2.002  2.3700 -1.3762 -1.8980
  173SAPS   C1219617   5.713   6.511   1.798 -0.7589  0.9044  0.5981
  173SAPS  H12A19618   5.647   6.474   1.721  0.2648 -1.7302  0.8917
  173SAPS   C1319619   5.780   6.647   1.764  0.5199 -0.1773 -0.0665
  173SAPS  O13A19620   5.761   6.749   1.834 -0.4522  0.1444  0.5980
  173SAPS  O13B19621   5.814   6.665   1.642  0.7789 -0.0892  0.0042
  173SAPS   C1119622   5.832   6.402   1.808  0.2753 -0.8797 -0.0880
  173SAPS  H11A19623   5.903   6.427   1.889  0.1821  3.9214 -1.1661
  173SAPS  H11B19624   5.888   6.401   1.712 -1.2501  1.1830 -1.0737
  173SAPS     P19625   5.854   6.140   1.745  0.0260  0.0834 -0.4115
  173SAPS   O1319626   5.743   6.062   1.695 -0.4382  0.0865  0.3945
  173SAPS   O1419627   5.942   6.179   1.639  0.2108 -0.3296  0.3788
  173SAPS   O1219628   5.788   6.265   1.827 -0.5978  0.5495  0.0061
  173SAPS   O1119629   5.918   6.062   1.862 -0.6331  0.4966 -0.4631
  173SAPS    C119630   6.013   6.118   1.958  0.3454 -0.0399 -0.0092
  173SAPS    HA19631   6.106   6.141   1.902 -1.0519  3.3205 -1.1604
  173SAPS    HB19632   5.978   6.216   1.994  1.2564  0.5779 -0.7493
  173SAPS    C219633   6.047   6.017   2.069  0.3574  0.0434 -0.3153
  173SAPS    HS19634   6.088   5.924   2.024 -1.0657 -0.5429 -0.4361
  173SAPS   O2119635   5.934   5.988   2.157  0.4583  0.1262  0.4325
  173SAPS   C2119636   5.861   5.883   2.127  0.7715  0.3563  1.0874
  173SAPS   O2219637   5.882   5.814   2.027 -0.2885 -0.3541 -0.2222
  173SAPS   C2219638   5.743   5.871   2.218  0.6997 -0.3859 -0.4274
  173SAPS   H2R19639   5.726   5.964   2.277  2.4290 -0.7463  0.7303
  173SAPS   H2S19640   5.650   5.839   2.167  0.7122 -2.4743  0.7224
  173SAPS    C319641   6.159   6.074   2.161  0.6650 -0.0434 -0.0248
  173SAPS    HX19642   6.114   6.159   2.217 -1.6054 -0.6215 -0.8655
  173SAPS    HY19643   6.242   6.105   2.093  0.4711  2.7511  0.8816
  173SAPS   O3119644   6.217   5.979   2.252 -0.0432  0.2537  0.5872
  173SAPS   C3119645   6.317   6.031   2.315 -0.3787 -0.1982  0.3091
  173SAPS   O3219646   6.345   6.151   2.311  0.5125 -0.1630 -0.1483
  173SAPS   C3219647   6.391   5.922   2.390  0.4073  0.3453  0.3044
  173SAPS   H2X19648   6.495   5.907   2.352  1.1896 -2.4046  3.1495
  173SAPS   H2Y19649   6.345   5.824   2.363 -0.7853 -0.0555  3.4160
  173SAPS   C2319650   5.770   5.748   2.317  0.1446  0.2758  0.2517
  173SAPS   H3R19651   5.805   5.664   2.253  0.2862  1.6455 -1.5596
  173SAPS   H3S19652   5.664   5.723   2.340 -0.1941  0.8447 -0.6327
  173SAPS   C2419653   5.872   5.766   2.437  0.1207 -0.3094  0.0354
  173SAPS   H4R19654   5.852   5.865   2.483 -0.6773  0.8617 -2.5960
  173SAPS   H4S19655   5.972   5.772   2.387  0.3313  1.2471  0.5943
  173SAPS   C2519656   5.864   5.654   2.540 -0.1475  0.1898  0.1503
  173SAPS   H5R19657   5.888   5.555   2.499 -0.6461  0.2574 -0.3046
  173SAPS   C2619658   5.821   5.664   2.669 -0.3749 -0.0386 -0.4243
  173SAPS   H6R19659   5.816   5.578   2.736 -1.8549 -0.0096 -0.4517
  173SAPS   C2719660   5.773   5.798   2.741 -0.2326  0.3393 -0.3533
  173SAPS   H7R19661   5.714   5.867   2.677 -1.9004  0.6367  1.4225
  173SAPS   H7S19662   5.864   5.859   2.761 -0.6898 -0.1191  4.1326
  173SAPS   C2819663   5.713   5.790   2.880  0.1958 -0.8679 -0.0937
  173SAPS   H8R19664   5.603   5.781   2.880 -0.1214  2.0402 -0.3107
  173SAPS   C2919665   5.781   5.798   2.998 -0.2360 -0.6395 -0.7583
  173SAPS   H9R19666   5.724   5.789   3.092 -1.8030 -0.0893 -1.6366
  173SAPS  C21019667   5.929   5.813   3.014  0.5824  0.6456 -0.4858
  173SAPS  H10R19668   5.988   5.839   2.923 -0.9551  0.4313 -1.5747
  173SAPS  H10S19669   5.978   5.727   3.063 -0.3848  0.5960  0.4119
  173SAPS  C21119670   5.956   5.943   3.101 -0.2784 -0.1171 -0.0708
  173SAPS  H11R19671   5.946   6.033   3.039 -0.2651 -0.9253 -1.2679
  173SAPS  C21219672   5.978   5.954   3.238  0.8413  0.3538 -0.4004
  173SAPS  H12R19673   5.993   6.055   3.277 -0.3183  0.2338  0.4079
  173SAPS  C21319674   6.007   5.848   3.339  0.5788 -0.0374 -0.3076
  173SAPS  H13R19675   6.110   5.863   3.380  0.9502 -2.2420 -0.3413
  173SAPS  H13S19676   6.018   5.744   3.301 -1.4853 -0.7952  1.0344
  173SAPS  C21419677   5.904   5.852   3.456  0.3361  0.0481  0.4022
  173SAPS  H14R19678   5.811   5.795   3.440 -1.5843  3.2584 -0.9764
  173SAPS  C21519679   5.907   5.936   3.561 -0.4456 -0.2799  1.2071
  173SAPS  H15R19680   5.827   5.936   3.637 -1.2349  0.6771  0.3974
  173SAPS  C21619681   6.016   6.040   3.582 -0.6549 -0.4483  0.0006
  173SAPS  H16R19682   6.009   6.131   3.518 -1.3191 -1.1512 -0.9561
  173SAPS  H16S19683   6.115   5.997   3.554  0.1315  0.8564  0.6619
  173SAPS  C21719684   6.017   6.097   3.727 -0.6194 -0.0953  0.2348
  173SAPS  H17R19685   6.105   6.165   3.741 -0.5834 -0.5241  2.3138
  173SAPS  H17S19686   6.026   6.026   3.812 -1.4367  0.1472  0.5291
  173SAPS  C21819687   5.886   6.175   3.756  1.1189 -0.0102 -0.3656
  173SAPS  H18R19688   5.798   6.129   3.706  1.3900 -0.3972 -0.4860
  173SAPS  H18S19689   5.903   6.269   3.700  1.8448  0.6025  0.8299
  173SAPS  C21919690   5.852   6.193   3.906  0.5527  0.0313  0.2462
  173SAPS  H19R19691   5.881   6.100   3.959  0.6447 -0.2838 -0.3576
  173SAPS  H19S19692   5.741   6.203   3.913  0.4166 -0.7217 -0.7104
  173SAPS  C22019693   5.909   6.325   3.967  0.1523 -0.1490 -0.4578
  173SAPS  H20R19694   6.019   6.314   3.969  0.3775  1.8157  0.6860
  173SAPS  H20S19695   5.856   6.339   4.064  0.5946  2.1294 -0.4810
  173SAPS  H20T19696   5.881   6.416   3.909 -1.9997  0.0024  0.7171
  173SAPS   C3319697   6.391   5.931   2.540  0.0776 -0.6681 -0.3082
  173SAPS   H3X19698   6.370   6.038   2.566  2.6151  0.8177 -3.6734
  173SAPS   H3Y19699   6.493   5.904   2.572 -0.3366 -1.6240  0.2340
  173SAPS   C3419700   6.314   5.825   2.623 -0.2895 -0.4392 -0.0215
  173SAPS   H4X19701   6.321   5.728   2.571 -1.7623 -0.7654  0.3634
  173SAPS   H4Y19702   6.206   5.847   2.615 -0.0089  1.0662 -0.0348
  173SAPS   C3519703   6.352   5.823   2.775 -0.4414  0.1963  0.5450
  173SAPS   H5X19704   6.301   5.910   2.820 -2.6020 -0.9501  0.4457
  173SAPS   H5Y19705   6.459   5.829   2.802 -0.5180 -0.9794  1.1712
  173SAPS   C3619706   6.293   5.699   2.839  0.1446  0.0042 -0.9341
  173SAPS   H6X19707   6.330   5.607   2.790 -1.2706 -1.5301  0.7271
  173SAPS   H6Y19708   6.183   5.693   2.824  0.3235  1.5646 -3.4555
  173SAPS   C3719709   6.332   5.708   2.990  0.1128 -0.8132  1.0457
  173SAPS   H7X19710   6.247   5.762   3.037 -1.3524  0.1340 -2.3919
  173SAPS   H7Y19711   6.413   5.783   3.004 -2.1852  2.1108 -0.2209
  173SAPS   C3819712   6.355   5.569   3.048  0.1314  0.1901  0.5040
  173SAPS   H8X19713   6.413   5.504   2.980 -1.5738 -1.2146  0.3027
  173SAPS   H8Y19714   6.258   5.515   3.057  0.8942 -1.3913 -0.4945
  173SAPS   C3919715   6.399   5.582   3.197 -0.0751  0.7485  0.3890
  173SAPS   H9X19716   6.343   5.669   3.238 -0.1082  1.0503 -0.2869
  173SAPS   H9Y19717   6.504   5.617   3.197 -0.0069  0.7511 -2.1197
  173SAPS  C31019718   6.365   5.457   3.277  1.0429 -0.3372 -0.0160
  173SAPS  H10X19719   6.411   5.370   3.226 -0.4102 -0.3241 -1.4183
  173SAPS  H10Y19720   6.257   5.433   3.278  1.3725 -2.1367  1.8112
  173SAPS  C31119721   6.397   5.478   3.422 -0.0446  0.3189 -1.1708
  173SAPS  H11X19722   6.342   5.572   3.446 -0.2412 -0.1881  0.4473
  173SAPS  H11Y19723   6.504   5.508   3.430  0.4177 -0.7830 -2.8286
  173SAPS  C31219724   6.375   5.362   3.520  0.1825  0.4400 -0.3862
  173SAPS  H12X19725   6.446   5.284   3.485 -2.1012 -1.2650 -1.4844
  173SAPS  H12Y19726   6.272   5.320   3.514  1.0865 -1.7363 -2.5602
  173SAPS  C31319727   6.395   5.410   3.666 -0.6569  0.5363 -0.1718
  173SAPS  H13X19728   6.317   5.485   3.692  0.0625  2.0182 -2.0794
  173SAPS  H13Y19729   6.497   5.455   3.668 -0.1856 -0.2899 -2.6402
  173SAPS  C31419730   6.382   5.287   3.755 -0.4523 -0.0922 -0.0513
  173SAPS  H14X19731   6.465   5.220   3.724 -0.0045  0.9146 -1.0953
  173SAPS  H14Y19732   6.294   5.228   3.722  1.2087 -2.1363 -1.0151
  173SAPS  C31519733   6.385   5.324   3.905  1.1242  0.2630 -0.2656
  173SAPS  H15X19734   6.372   5.225   3.952  1.0345  0.6524  0.5440
  173SAPS  H15Y19735   6.300   5.387   3.939  1.3837  1.3348 -1.5100
  173SAPS  C31619736   6.520   5.372   3.956  0.3839  0.2124 -0.4517
  173SAPS  H16X19737   6.520   5.479   3.989  1.3434  0.1975 -0.3913
  173SAPS  H16Y19738   6.597   5.346   3.881 -0.1395 -0.6621 -0.6929
  173SAPS  C31719739   6.567   5.292   4.081  0.2412 -0.4702 -0.0632
  173SAPS  H17X19740   6.547   5.185   4.062 -1.9120 -0.5915  2.3700
  173SAPS  H17Y19741   6.516   5.315   4.177  0.9699 -0.6025  0.3680
  173SAPS  C31819742   6.718   5.304   4.100 -0.2423 -0.2810  0.4776
  173SAPS  H18X19743   6.752   5.410   4.103  0.7785 -0.5287 -1.2086
  173SAPS  H18Y19744   6.762   5.240   4.021 -1.0113 -0.8521  0.4975
  173SAPS  H18Z19745   6.733   5.262   4.201  5.0886  1.8719  0.9171
  174SAPS     N19746   2.017   2.527   2.134  0.4491 -0.0052  0.6996
  174SAPS   HN119747   2.023   2.568   2.230 -0.9120  1.8631  0.0438
  174SAPS   HN219748   1.935   2.463   2.137 -0.6274  0.9660 -2.8142
  174SAPS   HN319749   2.104   2.479   2.103  0.3786  0.9406 -1.1110
  174SAPS   C1219750   1.992   2.639   2.033 -0.2007  0.2524  0.3067
  174SAPS  H12A19751   2.069   2.714   2.050  1.0346 -0.8548 -0.2268
  174SAPS   C1319752   2.014   2.593   1.882 -0.1106 -0.6984 -0.9942
  174SAPS  O13A19753   2.045   2.480   1.852  0.1874 -0.6082 -0.0181
  174SAPS  O13B19754   1.996   2.677   1.799  0.2638  0.4264  0.3609
  174SAPS   C1119755   1.855   2.696   2.052 -0.2012  0.1608 -0.0726
  174SAPS  H11A19756   1.778   2.637   1.997  0.2859  1.4749 -2.2906
  174SAPS  H11B19757   1.849   2.789   1.991  0.3939 -0.6531 -1.4340
  174SAPS     P19758   1.833   2.864   2.258  0.3510  0.1747 -0.1108
  174SAPS   O1319759   1.955   2.857   2.340 -0.6409  0.4467  0.7190
  174SAPS   O1419760   1.812   2.969   2.157  0.5536 -0.0998  0.1689
  174SAPS   O1219761   1.821   2.719   2.186 -0.0376  0.9221 -0.2633
  174SAPS   O1119762   1.697   2.850   2.352 -0.2217 -0.4791  0.2485
  174SAPS    C119763   1.680   2.728   2.428  0.0907  0.4730 -0.3872
  174SAPS    HA19764   1.591   2.677   2.385  0.7522 -0.4607 -0.6852
  174SAPS    HB19765   1.764   2.656   2.414 -0.6179 -0.9242  1.9773
  174SAPS    C219766   1.671   2.751   2.581  0.3888 -0.0294  0.2163
  174SAPS    HS19767   1.669   2.647   2.622  1.0157  0.6803  2.1718
  174SAPS   O2119768   1.550   2.822   2.610  0.4888  0.2600  0.0333
  174SAPS   C2119769   1.494   2.791   2.727  0.5508  0.7422 -0.4271
  174SAPS   O2219770   1.535   2.702   2.803 -0.1365 -0.1952  0.1125
  174SAPS   C2219771   1.358   2.865   2.743 -0.7020  0.0605  0.2398
  174SAPS   H2R19772   1.366   2.965   2.694  0.1610 -1.4639 -3.0481
  174SAPS   H2S19773   1.284   2.801   2.691 -1.2021  0.8830 -0.0855
  174SAPS    C319774   1.804   2.825   2.638 -0.4037 -0.1974  0.0902
  174SAPS    HX19775   1.815   2.918   2.578 -0.8595 -1.3691 -1.9137
  174SAPS    HY19776   1.888   2.760   2.604  1.7256  2.4343  0.0014
  174SAPS   O3119777   1.815   2.832   2.784 -0.4768  0.3077  0.5877
  174SAPS   C3119778   1.775   2.950   2.842 -0.1898 -0.3806  0.5326
  174SAPS   O3219779   1.751   3.050   2.781  0.5168  0.0535 -0.3399
  174SAPS   C3219780   1.775   2.942   2.992 -1.2299  0.7816 -0.4585
  174SAPS   H2X19781   1.851   2.863   3.009 -0.9633  1.1316  0.0174
  174SAPS   H2Y19782   1.678   2.904   3.031 -0.1150  0.7450  2.5766
  174SAPS   C2319783   1.314   2.890   2.888 -0.4501  0.1491 -0.0244
  174SAPS   H3R19784   1.339   2.798   2.944  1.9986 -0.4341 -1.8969
  174SAPS   H3S19785   1.203   2.902   2.883 -0.7276  0.5712  3.9914
  174SAPS   C2419786   1.375   3.017   2.956 -0.8010 -0.0775  0.4489
  174SAPS   H4R19787   1.370   3.105   2.889  1.7909  0.0558  0.3415
  174SAPS   H4S19788   1.484   2.998   2.960 -0.5916  1.1942  1.2985
  174SAPS   C2519789   1.310   3.036   3.087 -0.0315  0.0442 -0.0382
  174SAPS   H5R19790   1.224   3.105   3.090 -0.7630 -0.8743  1.4710
  174SAPS   C2619791   1.342   2.969   3.201 -0.0896  0.4187 -0.3794
  174SAPS   H6R19792   1.283   2.985   3.292 -2.2077 -0.7178 -1.4828
  174SAPS   C2719793   1.437   2.854   3.213  0.0334  0.9433 -0.3508
  174SAPS   H7R19794   1.495   2.850   3.119  0.2379 -1.1047 -0.1851
  174SAPS   H7S19795   1.380   2.758   3.210 -0.9375  1.3706  2.1354
  174SAPS   C2819796   1.526   2.834   3.329 -0.3115 -0.8864 -0.5618
  174SAPS   H8R19797   1.623   2.882   3.311 -1.0971  0.5178 -1.2533
  174SAPS   C2919798   1.513   2.756   3.436 -0.1682  0.1478  0.1432
  174SAPS   H9R19799   1.596   2.737   3.506  2.0971 -1.4609 -2.7364
  174SAPS  C21019800   1.392   2.664   3.474  0.3149  0.3249 -0.7286
  174SAPS  H10R19801   1.439   2.579   3.528  3.7111  0.9423 -2.3979
  174SAPS  H10S19802   1.351   2.610   3.386 -1.0522  0.1895 -0.0401
  174SAPS  C21119803   1.300   2.757   3.553  0.2280 -0.2989  0.1512
  174SAPS  H11R19804   1.255   2.829   3.483 -0.5435 -2.7876 -2.0590
  174SAPS  C21219805   1.252   2.750   3.681  0.0423  0.4625  0.5193
  174SAPS  H12R19806   1.184   2.827   3.720 -0.8287 -0.0956  0.1349
  174SAPS  C21319807   1.285   2.637   3.776 -0.5059  0.0204 -0.0375
  174SAPS  H13R19808   1.269   2.674   3.880 -2.0580  0.1774 -0.3176
  174SAPS  H13S19809   1.393   2.611   3.777 -0.2960  0.7441  2.4873
  174SAPS  C21419810   1.201   2.516   3.760 -0.2550  0.7521  0.5490
  174SAPS  H14R19811   1.225   2.451   3.674 -0.7637 -0.7525  1.5118
  174SAPS  C21519812   1.114   2.466   3.849  0.6066  0.0979 -0.7832
  174SAPS  H15R19813   1.050   2.381   3.823 -1.2367  1.2520 -0.1970
  174SAPS  C21619814   1.075   2.526   3.981 -0.3020  0.2809  0.1290
  174SAPS  H16R19815   1.146   2.603   4.017 -0.6951  1.5047 -1.6338
  174SAPS  H16S19816   1.073   2.441   4.053 -0.1790  1.2635  1.3167
  174SAPS  C21719817   0.932   2.589   3.986 -0.7265 -0.1586 -0.7642
  174SAPS  H17R19818   0.863   2.510   3.950 -1.0180 -0.1841 -0.1553
  174SAPS  H17S19819   0.932   2.678   3.919 -0.7184  0.9849  0.7089
  174SAPS  C21819820   0.885   2.641   4.122 -0.3162 -0.5518 -0.6121
  174SAPS  H18R19821   0.967   2.708   4.155  0.0565  0.1943 -2.8809
  174SAPS  H18S19822   0.876   2.564   4.202 -1.2640  2.0615  1.9521
  174SAPS  C21919823   0.754   2.714   4.114 -0.6514  0.3625 -0.3831
  174SAPS  H19R19824   0.677   2.636   4.094  0.8329 -0.6266 -2.5975
  174SAPS  H19S19825   0.758   2.783   4.027  3.9368 -3.1237 -3.4174
  174SAPS  C22019826   0.723   2.786   4.248 -0.3535  0.0122 -0.0348
  174SAPS  H20R19827   0.617   2.818   4.250 -0.8052 -1.2182 -1.7612
  174SAPS  H20S19828   0.783   2.879   4.257  0.1495 -0.5417  4.5307
  174SAPS  H20T19829   0.753   2.715   4.328  1.7678 -0.1948 -0.9365
  174SAPS   C3319830   1.834   3.071   3.068  0.5527  0.1262  0.1715
  174SAPS   H3X19831   1.922   3.120   3.020  1.7371 -0.6160  1.4820
  174SAPS   H3Y19832   1.860   3.030   3.168 -1.7270  0.1058  0.8187
  174SAPS   C3419833   1.729   3.173   3.087  0.5009  0.1460  0.4872
  174SAPS   H4X19834   1.639   3.136   3.142 -1.3394  0.2744 -2.2717
  174SAPS   H4Y19835   1.679   3.203   2.993 -2.3656  0.9196  2.1036
  174SAPS   C3519836   1.776   3.302   3.153  0.7170 -0.0542 -0.3690
  174SAPS   H5X19837   1.822   3.364   3.073  0.7145  0.5517  0.0916
  174SAPS   H5Y19838   1.858   3.287   3.226  1.5636  0.6754 -1.1464
  174SAPS   C3619839   1.652   3.384   3.202 -0.1616 -0.0448  0.3868
  174SAPS   H6X19840   1.688   3.470   3.263 -0.9618  0.8368 -0.3381
  174SAPS   H6Y19841   1.598   3.324   3.278 -1.0815  0.9001  0.5060
  174SAPS   C3719842   1.554   3.428   3.094 -0.1197 -0.0897  0.1676
  174SAPS   H7X19843   1.523   3.339   3.035  1.3303  0.7810 -2.0605
  174SAPS   H7Y19844   1.612   3.482   3.016  2.2447 -1.4760  0.8651
  174SAPS   C3819845   1.431   3.509   3.137  0.7072 -0.1802  0.2150
  174SAPS   H8X19846   1.373   3.527   3.044 -1.7252  2.8506  2.1157
  174SAPS   H8Y19847   1.455   3.600   3.195  1.4691 -1.8184  2.6435
  174SAPS   C3919848   1.324   3.430   3.225  0.5659 -0.5494  0.0309
  174SAPS   H9X19849   1.369   3.376   3.311 -1.4973  1.8222  2.7963
  174SAPS   H9Y19850   1.259   3.363   3.165 -2.1320  1.4198  0.5521
  174SAPS  C31019851   1.214   3.522   3.294  0.4069  0.2064  0.3436
  174SAPS  H10X19852   1.142   3.459   3.350 -0.2676  0.6214 -0.0483
  174SAPS  H10Y19853   1.168   3.576   3.209 -2.1706 -1.3621  0.6478
  174SAPS  C31119854   1.270   3.629   3.389 -0.6088 -0.3905  0.4761
  174SAPS  H11X19855   1.321   3.698   3.319  0.3709 -0.7161  0.8560
  174SAPS  H11Y19856   1.346   3.579   3.453 -0.9205 -1.3130  0.1385
  174SAPS  C31219857   1.163   3.704   3.467  0.0420  0.1647  0.4960
  174SAPS  H12X19858   1.135   3.635   3.550  1.5806 -3.1403 -1.5090
  174SAPS  H12Y19859   1.073   3.730   3.409 -0.0061  0.5032  0.7159
  174SAPS  C31319860   1.227   3.828   3.536  0.1551 -0.1290 -0.7083
  174SAPS  H13X19861   1.288   3.887   3.464  1.0330  0.9418  0.8639
  174SAPS  H13Y19862   1.293   3.796   3.619 -1.3987 -1.0001  0.2421
  174SAPS  C31419863   1.126   3.918   3.608 -0.1560  0.3004 -0.2870
  174SAPS  H14X19864   1.066   3.869   3.689 -0.8936 -0.4956 -1.2887
  174SAPS  H14Y19865   1.056   3.947   3.527  0.9262  0.8125 -1.0537
  174SAPS  C31519866   1.177   4.050   3.664 -0.0661  0.2205  0.2877
  174SAPS  H15X19867   1.107   4.097   3.736 -0.2144  0.8113 -0.2305
  174SAPS  H15Y19868   1.194   4.123   3.582  1.6694  0.7117  1.0359
  174SAPS  C31619869   1.309   4.039   3.749  0.6281  0.3644  0.3850
  174SAPS  H16X19870   1.328   4.130   3.809 -3.0746  1.5756 -0.0174
  174SAPS  H16Y19871   1.400   4.015   3.688  0.6260  2.1137 -0.3559
  174SAPS  C31719872   1.290   3.931   3.856  0.0146 -0.3363  0.0517
  174SAPS  H17X19873   1.267   3.826   3.828 -0.0576  0.1577 -1.8662
  174SAPS  H17Y19874   1.200   3.955   3.915 -0.8359  0.7009 -1.6131
  174SAPS  C31819875   1.417   3.924   3.941 -0.2134 -0.1734 -0.0654
  174SAPS  H18X19876   1.460   4.017   3.982  1.8645 -0.8818 -0.5088
  174SAPS  H18Y19877   1.510   3.894   3.888 -0.9379 -0.7236 -1.0539
  174SAPS  H18Z19878   1.398   3.846   4.018 -0.6630  1.5632  1.6526
  175SAPS     N19879   0.912   2.827   2.121 -0.3969  0.1790 -0.1872
  175SAPS   HN119880   0.944   2.922   2.151  0.9159 -0.4845  0.6051
  175SAPS   HN219881   0.832   2.844   2.056 -0.5882 -1.0356 -0.2863
  175SAPS   HN319882   0.869   2.768   2.195  1.5462 -1.8901 -0.6141
  175SAPS   C1219883   1.019   2.752   2.051 -0.4469  0.5989 -0.0481
  175SAPS  H12A19884   0.987   2.649   2.047 -1.5074  0.6333  3.6238
  175SAPS   C1319885   1.063   2.789   1.908  0.4226  0.7736  0.8510
  175SAPS  O13A19886   1.037   2.905   1.871 -0.6462 -0.5173 -0.2454
  175SAPS  O13B19887   1.138   2.709   1.844 -0.4582 -0.2171  0.4941
  175SAPS   C1119888   1.145   2.750   2.144 -0.1984  0.1668 -0.0817
  175SAPS  H11A19889   1.181   2.853   2.163 -1.6309  0.6537  0.1476
  175SAPS  H11B19890   1.233   2.701   2.098 -0.0634  1.5899 -1.4202
  175SAPS     P19891   1.214   2.696   2.379  0.1962 -0.0281 -0.2612
  175SAPS   O1319892   1.324   2.607   2.335  0.6080 -0.5034 -0.2226
  175SAPS   O1419893   1.247   2.837   2.404 -1.0099  0.6802  0.7415
  175SAPS   O1219894   1.102   2.690   2.264 -0.6676  0.4063 -0.0322
  175SAPS   O1119895   1.133   2.633   2.503 -0.0563 -0.0885  0.4810
  175SAPS    C119896   0.993   2.670   2.527  0.0970  0.3878  0.5093
  175SAPS    HA19897   0.936   2.720   2.446 -2.3710  0.1466  2.0058
  175SAPS    HB19898   0.938   2.576   2.545  2.4548 -1.0816  0.5304
  175SAPS    C219899   0.974   2.754   2.652 -0.4221 -0.7495  0.2991
  175SAPS    HS19900   0.866   2.771   2.669 -0.7114  0.5737 -2.2835
  175SAPS   O2119901   1.042   2.883   2.634  0.1430 -0.3155 -0.4049
  175SAPS   C2119902   0.969   2.979   2.575 -0.7736  0.4281  0.0586
  175SAPS   O2219903   0.850   2.972   2.554  0.2152  0.4790 -0.1692
  175SAPS   C2219904   1.054   3.104   2.542  0.1649 -0.3176 -0.2240
  175SAPS   H2R19905   1.159   3.069   2.534 -0.3116 -2.8513  2.7651
  175SAPS   H2S19906   1.019   3.137   2.442 -0.9933  0.4430  0.4049
  175SAPS    C319907   1.041   2.675   2.771 -0.1513  0.1857  0.1202
  175SAPS    HX19908   1.147   2.677   2.736 -0.5582 -0.1070 -1.1878
  175SAPS    HY19909   1.010   2.569   2.765  0.3548  0.0812 -0.9639
  175SAPS   O3119910   1.028   2.739   2.900  0.1926  0.6739 -0.4519
  175SAPS   C3119911   0.910   2.737   2.963  0.6942 -1.0011  0.6908
  175SAPS   O3219912   0.800   2.715   2.911  0.0841 -0.5795 -0.4654
  175SAPS   C3219913   0.932   2.776   3.103  0.2517  0.2722  0.5547
  175SAPS   H2X19914   0.962   2.883   3.105  0.9414  0.0973  0.0035
  175SAPS   H2Y19915   1.022   2.723   3.139  1.1299  0.8114 -0.7445
  175SAPS   C2319916   1.033   3.224   2.629  0.5432  0.1274 -1.1375
  175SAPS   H3R19917   0.927   3.241   2.658  0.8301  1.1308 -0.6607
  175SAPS   H3S19918   1.060   3.315   2.572 -0.9563  1.2231 -0.1672
  175SAPS   C2419919   1.121   3.223   2.759  0.6404 -0.0308  0.0252
  175SAPS   H4R19920   1.221   3.183   2.731 -0.2402 -1.0702 -1.8025
  175SAPS   H4S19921   1.078   3.150   2.831 -1.8793  1.7740  0.5006
  175SAPS   C2519922   1.130   3.362   2.824  0.4285  0.6653  0.2200
  175SAPS   H5R19923   1.195   3.431   2.769  0.3521  0.2588 -0.3929
  175SAPS   C2619924   1.064   3.397   2.934 -0.3271  0.4302 -0.3846
  175SAPS   H6R19925   1.080   3.500   2.969  0.5079  0.2936 -0.3327
  175SAPS   C2719926   0.966   3.318   3.013  0.7397  0.1181 -0.0465
  175SAPS   H7R19927   1.012   3.224   3.051  1.0979  0.0850 -0.5468
  175SAPS   H7S19928   0.881   3.294   2.945 -0.2113  3.3079 -0.1769
  175SAPS   C2819929   0.904   3.410   3.114 -0.6551 -0.4828 -0.8081
  175SAPS   H8R19930   0.851   3.496   3.071  0.2260  0.2654 -0.4168
  175SAPS   C2919931   0.901   3.382   3.248 -0.1478  0.2192  0.5032
  175SAPS   H9R19932   0.842   3.451   3.310  0.8344  1.7662 -0.2136
  175SAPS  C21019933   0.948   3.252   3.304  0.0193  0.1522 -0.2960
  175SAPS  H10R19934   1.057   3.269   3.294  0.4299 -1.4386  1.0801
  175SAPS  H10S19935   0.916   3.166   3.241  1.2808  0.3143 -1.2045
  175SAPS  C21119936   0.937   3.224   3.449 -0.2094  0.3922  0.9718
  175SAPS  H11R19937   0.842   3.252   3.496 -1.1301 -0.9719 -0.0116
  175SAPS  C21219938   1.036   3.180   3.534 -0.3085 -0.1975  0.6803
  175SAPS  H12R19939   1.023   3.166   3.643 -0.3365 -0.2002  0.6765
  175SAPS  C21319940   1.180   3.153   3.494  0.0539 -0.2091 -0.0708
  175SAPS  H13R19941   1.192   3.158   3.384  0.7345  2.0526  0.0456
  175SAPS  H13S19942   1.221   3.053   3.518 -1.7574 -1.4710 -1.8437
  175SAPS  C21419943   1.269   3.260   3.556 -0.2125 -0.8016 -0.5223
  175SAPS  H14R19944   1.228   3.360   3.537  1.5314 -0.1921 -1.3543
  175SAPS  C21519945   1.368   3.252   3.640  0.2208  0.0595 -0.2202
  175SAPS  H15R19946   1.410   3.347   3.677 -0.0799  0.7772 -1.6605
  175SAPS  C21619947   1.419   3.126   3.701 -0.0666  0.1280  0.7727
  175SAPS  H16R19948   1.523   3.112   3.667 -0.9188  1.7410 -3.0114
  175SAPS  H16S19949   1.364   3.032   3.680 -0.2073 -0.0809  2.0210
  175SAPS  C21719950   1.420   3.133   3.853  0.0764 -0.1621  0.0850
  175SAPS  H17R19951   1.432   3.239   3.886 -2.3938 -0.0098  0.7168
  175SAPS  H17S19952   1.487   3.058   3.900 -0.0253 -0.0548  0.4117
  175SAPS  C21819953   1.281   3.096   3.906 -0.0666 -0.5743 -0.7605
  175SAPS  H18R19954   1.257   2.993   3.871 -1.5333  0.2901 -2.4763
  175SAPS  H18S19955   1.199   3.157   3.862 -0.5911 -0.8884 -0.2299
  175SAPS  C21919956   1.275   3.105   4.057 -0.1800  0.5513 -0.5493
  175SAPS  H19R19957   1.318   3.202   4.090  0.4845 -0.1901  0.8511
  175SAPS  H19S19958   1.339   3.027   4.104 -1.3509  0.6976  1.3756
  175SAPS  C22019959   1.131   3.083   4.113  0.5677 -0.4629  0.2097
  175SAPS  H20R19960   1.123   2.972   4.108 -0.0052 -0.6208  3.0195
  175SAPS  H20S19961   1.057   3.140   4.054 -0.6715 -2.0442  0.1521
  175SAPS  H20T19962   1.112   3.107   4.220  0.3655  1.1846 -0.1812
  175SAPS   C3319963   0.808   2.757   3.195  0.8576  0.2533 -0.0862
  175SAPS   H3X19964   0.782   2.650   3.208 -1.2512  0.7639  0.2404
  175SAPS   H3Y19965   0.715   2.802   3.154  0.8004 -2.0033 -2.6707
  175SAPS   C3419966   0.830   2.807   3.337 -0.3676 -0.0921  0.4807
  175SAPS   H4X19967   0.816   2.918   3.340  3.6275  0.6084 -0.9483
  175SAPS   H4Y19968   0.938   2.792   3.357 -0.0856 -0.9205 -1.4213
  175SAPS   C3519969   0.733   2.742   3.439 -0.0486  0.8000  0.3548
  175SAPS   H5X19970   0.730   2.636   3.408 -0.0378  1.1492 -0.8821
  175SAPS   H5Y19971   0.627   2.771   3.419  0.1451  2.1297  1.1431
  175SAPS   C3619972   0.758   2.782   3.581  0.7869 -0.1934  0.0313
  175SAPS   H6X19973   0.844   2.731   3.629  1.8282 -0.3773 -1.9441
  175SAPS   H6Y19974   0.672   2.737   3.635 -0.1577 -1.4676 -2.3555
  175SAPS   C3719975   0.785   2.930   3.603  0.5755  0.4884  0.5275
  175SAPS   H7X19976   0.705   2.994   3.561 -1.2588 -1.7689  0.3975
  175SAPS   H7Y19977   0.888   2.951   3.566  0.7816 -1.4858 -0.1638
  175SAPS   C3819978   0.777   2.953   3.754  0.6202 -0.6945 -0.2499
  175SAPS   H8X19979   0.853   2.891   3.806  0.1541 -3.1127 -2.2700
  175SAPS   H8Y19980   0.681   2.914   3.792 -0.3009  0.8932 -0.8209
  175SAPS   C3919981   0.777   3.096   3.806 -0.0154  0.1832 -0.3891
  175SAPS   H9X19982   0.693   3.145   3.751 -0.1816 -0.8487 -1.0765
  175SAPS   H9Y19983   0.871   3.154   3.803  0.2634 -0.3040 -2.0249
  175SAPS  C31019984   0.745   3.106   3.953 -0.2246  0.6372 -0.1770
  175SAPS  H10X19985   0.761   3.213   3.979 -1.6278  0.7455  0.3301
  175SAPS  H10Y19986   0.810   3.039   4.013  0.8536  0.7267 -1.2019
  175SAPS  C31119987   0.598   3.082   3.987 -0.0554 -0.0080  0.2076
  175SAPS  H11X19988   0.574   2.980   3.951 -0.2385 -1.1507  3.2817
  175SAPS  H11Y19989   0.532   3.152   3.931 -1.2214 -0.5617  0.8564
  175SAPS  C31219990   0.570   3.075   4.133  0.2409 -0.5317  0.0919
  175SAPS  H12X19991   0.653   3.040   4.198  1.7176  2.7527  0.2112
  175SAPS  H12Y19992   0.482   3.009   4.148  1.8174 -2.7731 -0.0358
  175SAPS  C31319993   0.545   3.222   4.180  0.5692 -0.4617 -0.6064
  175SAPS  H13X19994   0.456   3.267   4.131  1.9656 -0.1103 -2.9620
  175SAPS  H13Y19995   0.635   3.283   4.157  0.2781 -0.6511 -2.3879
  175SAPS  C31419996   0.515   3.212   4.335 -0.1064  0.0434 -1.0353
  175SAPS  H14X19997   0.606   3.158   4.370 -1.3990 -1.4833  0.1226
  175SAPS  H14Y19998   0.424   3.151   4.352 -0.2179  0.7071  1.0449
  175SAPS  C31519999   0.509   3.346   4.407 -0.9660 -0.0163  0.1417
  175SAPS  H15X20000   0.597   3.408   4.381  0.1447 -0.9458  1.5059
  175SAPS  H15Y20001   0.490   3.348   4.517  3.7048  2.1848  1.1707
  175SAPS  C31620002   0.389   3.425   4.351  0.0045  0.3109 -0.4358
  175SAPS  H16X20003   0.304   3.353   4.352 -0.1608  0.4854 -1.1634
  175SAPS  H16Y20004   0.395   3.444   4.242 -2.8718  1.1521 -0.5373
  175SAPS  C31720005   0.363   3.562   4.414  0.1302 -0.4643 -0.2029
  175SAPS  H17X20006   0.442   3.632   4.381 -0.8581 -0.5302 -2.9694
  175SAPS  H17Y20007   0.356   3.547   4.524 -3.8859  1.4309 -0.0018
  175SAPS  C31820008   0.230   3.631   4.381  0.1115 -0.3845  0.2958
  175SAPS  H18X20009   0.144   3.561   4.390  0.9306 -1.3062  1.1407
  175SAPS  H18Y20010   0.227   3.685   4.283 -2.8916  0.9510  0.9978
  175SAPS  H18Z20011   0.221   3.708   4.461  0.7046  0.3125 -0.2899
  176SAPS     N20012   0.492   3.196   2.058 -0.0037  0.4938  0.1269
  176SAPS   HN120013   0.559   3.258   2.008  0.9743  0.1374  0.9784
  176SAPS   HN220014   0.397   3.232   2.035 -0.1366  0.0672  0.0071
  176SAPS   HN320015   0.508   3.211   2.159  3.2443 -1.0396 -0.0638
  176SAPS   C1220016   0.507   3.058   2.011  0.2479 -0.3850 -0.0964
  176SAPS  H12A20017   0.503   3.050   1.903  0.9325  0.5547 -0.2010
  176SAPS   C1320018   0.636   2.982   2.066  0.6232 -0.0715  0.3051
  176SAPS  O13A20019   0.687   3.023   2.168 -0.3120 -0.0432 -0.7206
  176SAPS  O13B20020   0.668   2.872   2.011  0.6955  0.8270  0.0958
  176SAPS   C1120021   0.372   2.990   2.038 -0.3235  0.2053 -0.2235
  176SAPS  H11A20022   0.351   2.965   2.145 -1.3632  2.5193  0.1959
  176SAPS  H11B20023   0.381   2.904   1.969  0.8348  0.7534 -0.7851
  176SAPS     P20024   0.114   3.021   1.975 -0.2083 -0.4087 -0.3578
  176SAPS   O1320025   0.057   3.092   1.860 -0.6338 -0.5776  0.2074
  176SAPS   O1420026   0.102   2.876   1.969  0.0518 -0.2153 -0.3062
  176SAPS   O1220027   0.263   3.066   1.990 -0.2963  0.2154  0.3120
  176SAPS   O1120028   0.041   3.070   2.108 -0.3632 -0.1720  0.5145
  176SAPS    C120029  -0.106   3.072   2.104 -0.0171 -0.5140 -0.5352
  176SAPS    HA20030  -0.127   3.181   2.099  3.5478  0.3193 -0.4434
  176SAPS    HB20031  -0.153   3.029   2.014  0.7293 -0.0224 -1.1726
  176SAPS    C220032  -0.170   3.018   2.236 -0.3041  0.4208 -0.3805
  176SAPS    HS20033  -0.276   3.049   2.240 -0.5097  0.0712 -2.1823
  176SAPS   O2120034  -0.095   3.064   2.354 -0.4660  0.3529  0.0336
  176SAPS   C2120035  -0.141   3.175   2.406 -0.4514 -0.5954 -1.2584
  176SAPS   O2220036  -0.245   3.233   2.376  0.0631 -0.4173 -0.1509
  176SAPS   C2220037  -0.051   3.219   2.526 -0.1510 -0.1846  0.0812
  176SAPS   H2R20038   0.001   3.127   2.561 -0.0201 -0.5383 -1.0085
  176SAPS   H2S20039   0.017   3.297   2.487 -1.4525  1.2995  0.6859
  176SAPS    C320040  -0.158   2.862   2.247  0.2472  0.1292 -0.2674
  176SAPS    HX20041  -0.061   2.835   2.201  0.4824 -0.6364  0.6362
  176SAPS    HY20042  -0.241   2.819   2.187 -1.8298  2.1997  0.9553
  176SAPS   O3120043  -0.158   2.805   2.381  0.3458  1.1852  0.4992
  176SAPS   C3120044  -0.036   2.789   2.439 -0.6292  0.0891 -0.2717
  176SAPS   O3220045   0.075   2.792   2.380  0.0122  0.2781 -0.3697
  176SAPS   C3220046  -0.056   2.758   2.592 -1.0461 -0.3944  0.2362
  176SAPS   H2X20047  -0.125   2.671   2.600 -0.1507 -1.1717 -0.3304
  176SAPS   H2Y20048  -0.092   2.839   2.658  0.9758  0.9188 -0.1969
  176SAPS   C2320049  -0.141   3.269   2.644  0.0973  0.3630  0.9767
  176SAPS   H3R20050  -0.224   3.339   2.617 -1.6171 -0.8352  2.7953
  176SAPS   H3S20051  -0.069   3.315   2.716  0.5475 -0.9337  1.3864
  176SAPS   C2420052  -0.204   3.149   2.708  0.0374 -0.3025  0.1571
  176SAPS   H4R20053  -0.131   3.089   2.765 -0.3625 -1.9885 -1.0358
  176SAPS   H4S20054  -0.220   3.076   2.626  2.6672 -1.7777  0.8409
  176SAPS   C2520055  -0.326   3.182   2.784 -0.4977 -0.9112 -0.0937
  176SAPS   H5R20056  -0.415   3.158   2.725 -0.8371 -0.4658  0.2271
  176SAPS   C2620057  -0.334   3.229   2.907 -0.2456 -0.1276 -0.4889
  176SAPS   H6R20058  -0.432   3.261   2.944  0.3425  0.8598  0.2778
  176SAPS   C2720059  -0.206   3.269   2.985 -0.0248 -0.2663  0.5673
  176SAPS   H7R20060  -0.114   3.225   2.943  1.3642  3.7490 -1.0790
  176SAPS   H7S20061  -0.204   3.229   3.089 -0.3763 -2.2567 -0.1403
  176SAPS   C2820062  -0.190   3.417   2.981  0.2980 -1.3169 -0.1544
  176SAPS   H8R20063  -0.167   3.452   2.879  1.9245 -1.1273  0.2410
  176SAPS   C2920064  -0.192   3.504   3.083 -0.5101  0.2499 -0.1974
  176SAPS   H9R20065  -0.158   3.606   3.061 -1.0252  0.4069 -0.2769
  176SAPS  C21020066  -0.229   3.457   3.219 -0.1180 -0.1404 -0.0143
  176SAPS  H10R20067  -0.149   3.386   3.249 -0.1374 -1.5231 -2.8829
  176SAPS  H10S20068  -0.325   3.401   3.219  0.7525 -1.7329  1.2864
  176SAPS  C21120069  -0.234   3.576   3.315 -0.2838  1.3399  0.6402
  176SAPS  H11R20070  -0.250   3.673   3.266 -0.0554  0.7343 -0.6968
  176SAPS  C21220071  -0.214   3.577   3.443  0.3723  0.3995  0.0034
  176SAPS  H12R20072  -0.232   3.666   3.506 -3.2533 -1.5492  2.0134
  176SAPS  C21320073  -0.189   3.456   3.531  0.0553  0.5499  1.0615
  176SAPS  H13R20074  -0.140   3.378   3.468 -2.0778  0.0224 -0.0315
  176SAPS  H13S20075  -0.280   3.407   3.572  1.2665 -1.5285  1.4111
  176SAPS  C21420076  -0.091   3.488   3.643  0.1934 -0.3908 -0.5891
  176SAPS  H14R20077  -0.040   3.585   3.636 -2.3142  0.9530 -1.5130
  176SAPS  C21520078  -0.090   3.409   3.758 -0.2002 -0.2444 -0.6555
  176SAPS  H15R20079  -0.042   3.450   3.847  0.3967  0.4934 -1.3001
  176SAPS  C21620080  -0.167   3.281   3.768 -0.2162 -0.4328 -0.1968
  176SAPS  H16R20081  -0.102   3.192   3.756  0.5548 -0.2181  2.0912
  176SAPS  H16S20082  -0.242   3.273   3.686  1.2174 -1.0621 -1.4924
  176SAPS  C21720083  -0.252   3.262   3.902  0.2718 -0.7652  0.3068
  176SAPS  H17R20084  -0.190   3.253   3.994 -1.0088  2.9362  1.7118
  176SAPS  H17S20085  -0.328   3.182   3.893 -0.8593  0.4775 -2.2166
  176SAPS  C21820086  -0.336   3.390   3.931 -0.4262  0.1212  0.1315
  176SAPS  H18R20087  -0.398   3.418   3.844  1.0609 -0.3497 -1.1211
  176SAPS  H18S20088  -0.262   3.472   3.942 -0.6638  0.2030  1.2915
  176SAPS  C21920089  -0.424   3.369   4.047 -0.3357 -0.3160 -0.4601
  176SAPS  H19R20090  -0.369   3.376   4.143 -0.7664 -0.3767 -0.2056
  176SAPS  H19S20091  -0.474   3.270   4.052 -0.4623 -0.1854  2.2523
  176SAPS  C22020092  -0.533   3.471   4.060  0.5091  0.4582 -0.3415
  176SAPS  H20R20093  -0.626   3.444   4.006  1.0476  0.5984 -1.3447
  176SAPS  H20S20094  -0.495   3.566   4.017 -1.3014  1.2153 -0.3694
  176SAPS  H20T20095  -0.565   3.500   4.163  0.9016 -1.1550  0.2671
  176SAPS   C3320096   0.089   2.728   2.665  0.5014 -0.2576  0.6104
  176SAPS   H3X20097   0.143   2.669   2.588 -1.7258 -0.5664 -0.8307
  176SAPS   H3Y20098   0.079   2.668   2.757  2.1353  0.1481  1.0831
  176SAPS   C3420099   0.179   2.846   2.712 -0.0119  0.1541  0.1531
  176SAPS   H4X20100   0.173   2.926   2.635 -1.3504  0.9395  1.0125
  176SAPS   H4Y20101   0.279   2.805   2.735 -0.9206 -1.0789  2.2238
  176SAPS   C3520102   0.129   2.922   2.840  0.6816 -0.0653 -0.8051
  176SAPS   H5X20103   0.048   2.994   2.816  0.0970 -0.4146  0.0703
  176SAPS   H5Y20104   0.213   2.975   2.889 -1.6880 -0.7010  4.6558
  176SAPS   C3620105   0.072   2.835   2.952 -0.3365  0.4134 -0.4148
  176SAPS   H6X20106   0.145   2.753   2.972 -1.4777 -0.5885 -0.2098
  176SAPS   H6Y20107  -0.021   2.783   2.918 -0.0151 -0.8366  0.5218
  176SAPS   C3720108   0.049   2.917   3.080 -0.4665 -0.0442  0.1294
  176SAPS   H7X20109   0.009   3.018   3.057  1.0646  1.1941  2.5093
  176SAPS   H7Y20110   0.151   2.946   3.115 -0.5638  0.9071 -0.3538
  176SAPS   C3820111  -0.033   2.841   3.184 -0.3602  0.2138 -0.2004
  176SAPS   H8X20112   0.006   2.738   3.198 -0.6197  0.1887  0.3881
  176SAPS   H8Y20113  -0.141   2.834   3.158 -0.2193  1.9580 -1.5064
  176SAPS   C3920114  -0.025   2.916   3.312  0.2811  0.3088  0.1111
  176SAPS   H9X20115  -0.066   3.017   3.289 -4.9568 -2.1152 -2.7860
  176SAPS   H9Y20116   0.081   2.920   3.347  0.3749  2.4955 -0.2616
  176SAPS  C31020117  -0.115   2.842   3.415 -0.0025  0.1425  0.2876
  176SAPS  H10X20118  -0.066   2.743   3.425 -1.2905 -0.5117  0.2246
  176SAPS  H10Y20119  -0.215   2.822   3.372 -0.8216  1.1020  1.6823
  176SAPS  C31120120  -0.126   2.902   3.555  0.2005 -0.3825 -0.2400
  176SAPS  H11X20121  -0.134   3.012   3.555  0.8390 -0.3272  0.6709
  176SAPS  H11Y20122  -0.033   2.893   3.616 -1.4208  2.6693  3.0930
  176SAPS  C31220123  -0.245   2.852   3.645 -0.0533 -0.0936  0.3417
  176SAPS  H12X20124  -0.239   2.742   3.629  0.7188  0.2153 -1.7529
  176SAPS  H12Y20125  -0.344   2.876   3.602  0.7638  1.8529 -0.5508
  176SAPS  C31320126  -0.229   2.893   3.796  0.7423  0.0937  0.2145
  176SAPS  H13X20127  -0.219   3.004   3.800 -0.8470  0.2621  0.0209
  176SAPS  H13Y20128  -0.132   2.858   3.837 -0.1638 -0.4232  2.0143
  176SAPS  C31420129  -0.349   2.837   3.884 -0.1820  0.1320 -0.0463
  176SAPS  H14X20130  -0.317   2.854   3.989 -1.0701  0.7835  0.1301
  176SAPS  H14Y20131  -0.346   2.726   3.873 -0.4962  0.1437 -0.2827
  176SAPS  C31520132  -0.483   2.905   3.860 -0.8191  0.3334  0.1537
  176SAPS  H15X20133  -0.530   2.881   3.762  3.0212 -1.9958 -1.3458
  176SAPS  H15Y20134  -0.458   3.012   3.875  0.6973  0.2230 -1.2654
  176SAPS  C31620135  -0.580   2.869   3.977  0.0355  0.3135  0.3415
  176SAPS  H16X20136  -0.522   2.904   4.066  0.1136  0.2399  0.3199
  176SAPS  H16Y20137  -0.599   2.760   3.973 -0.1788  0.3766 -2.3515
  176SAPS  C31720138  -0.710   2.949   3.977  0.6645  0.4112 -0.0030
  176SAPS  H17X20139  -0.674   3.053   3.994  2.6102  0.3876 -3.1653
  176SAPS  H17Y20140  -0.767   2.907   4.063  1.8441 -2.5570 -0.5194
  176SAPS  C31820141  -0.809   2.953   3.859 -0.2914 -0.6229  0.5118
  176SAPS  H18X20142  -0.815   2.852   3.814  2.5914  0.2842 -2.2959
  176SAPS  H18Y20143  -0.776   3.016   3.773 -2.0897  0.6660  0.6927
  176SAPS  H18Z20144  -0.913   2.984   3.885 -0.1492  0.8401 -0.5181
  177SAPS     N20145   3.278   3.895   1.635  0.2581  0.3120 -0.0788
  177SAPS   HN120146   3.220   3.887   1.721 -0.7330  1.0899 -0.6549
  177SAPS   HN220147   3.246   3.813   1.580 -1.3497  0.2762  0.8581
  177SAPS   HN320148   3.380   3.886   1.657  0.2780  0.5046 -0.0936
  177SAPS   C1220149   3.260   4.032   1.571 -0.2552 -0.1965  0.4362
  177SAPS  H12A20150   3.335   4.051   1.496 -0.2140 -0.7167  0.3388
  177SAPS   C1320151   3.126   4.058   1.508  0.1461 -0.0079  0.0732
  177SAPS  O13A20152   3.048   3.958   1.493  0.0523  0.3201 -0.5335
  177SAPS  O13B20153   3.117   4.157   1.423  0.0965 -0.1502  0.2980
  177SAPS   C1120154   3.300   4.144   1.667  0.3000 -0.6186  0.2152
  177SAPS  H11A20155   3.280   4.248   1.633 -2.9461 -0.7382  1.3465
  177SAPS  H11B20156   3.410   4.135   1.668  0.6778  1.1465 -4.0925
  177SAPS     P20157   3.276   4.192   1.924  0.3393  0.2017  0.0459
  177SAPS   O1320158   3.372   4.303   1.892 -0.2066 -0.0447 -0.6711
  177SAPS   O1420159   3.142   4.222   1.979  0.6382  0.0977 -0.4536
  177SAPS   O1220160   3.255   4.109   1.794 -0.3603  0.0375 -0.2612
  177SAPS   O1120161   3.348   4.091   2.016 -0.1111 -0.3668  0.0994
  177SAPS    C120162   3.422   4.145   2.131 -0.5070 -0.6038  0.2660
  177SAPS    HA20163   3.529   4.152   2.102  0.7114 -0.2731  4.3066
  177SAPS    HB20164   3.382   4.244   2.162  0.4045 -0.9418  2.6713
  177SAPS    C220165   3.407   4.054   2.253  0.7506  0.6400  0.0015
  177SAPS    HS20166   3.453   3.955   2.231 -4.4967 -2.0266 -0.6413
  177SAPS   O2120167   3.263   4.039   2.266  0.2306 -0.1076  0.2182
  177SAPS   C2120168   3.234   3.920   2.321 -0.2549  0.5374  0.1966
  177SAPS   O2220169   3.312   3.831   2.333 -0.3109  0.2647 -0.3370
  177SAPS   C2220170   3.092   3.932   2.364  0.3928  0.2069  0.2517
  177SAPS   H2R20171   3.070   4.036   2.398  2.3331  1.0264 -0.8369
  177SAPS   H2S20172   3.031   3.895   2.279 -0.0408  3.3219 -0.9306
  177SAPS    C320173   3.474   4.117   2.383  0.0840  0.4211 -0.0184
  177SAPS    HX20174   3.456   4.058   2.475  0.6791  0.4951  0.1484
  177SAPS    HY20175   3.425   4.212   2.413  0.2465 -0.2016  2.4325
  177SAPS   O3120176   3.615   4.125   2.352  0.3150 -0.4216 -0.0338
  177SAPS   C3120177   3.664   4.245   2.319  0.1486  0.5228 -0.4778
  177SAPS   O3220178   3.602   4.340   2.286 -0.1123 -0.0094 -0.3824
  177SAPS   C3220179   3.822   4.244   2.323  0.6472 -0.0101 -0.6439
  177SAPS   H2X20180   3.860   4.327   2.259  0.2119  0.1186 -0.7412
  177SAPS   H2Y20181   3.852   4.149   2.274 -0.9566 -0.9317  0.0701
  177SAPS   C2320182   3.063   3.831   2.473 -0.1338  0.4837 -0.7687
  177SAPS   H3R20183   3.093   3.732   2.433  0.5774  1.0454 -1.6803
  177SAPS   H3S20184   2.955   3.837   2.499  0.2531  3.2340  0.5417
  177SAPS   C2420185   3.140   3.874   2.601  0.1233 -0.0856 -0.3340
  177SAPS   H4R20186   3.078   3.954   2.648 -0.8720 -0.5966 -0.7399
  177SAPS   H4S20187   3.239   3.916   2.574  0.5095  1.0322  2.4835
  177SAPS   C2520188   3.137   3.747   2.685  0.2721  0.2113  0.7474
  177SAPS   H5R20189   3.204   3.671   2.642 -0.8344  0.7755 -2.2085
  177SAPS   C2620190   3.061   3.722   2.796 -0.4476 -0.2524  0.7347
  177SAPS   H6R20191   3.068   3.626   2.849 -1.3167 -1.5792 -1.4047
  177SAPS   C2720192   2.957   3.813   2.852 -0.5511  0.3314  0.5830
  177SAPS   H7R20193   2.980   3.919   2.829  0.3503  0.2850  1.2299
  177SAPS   H7S20194   2.955   3.804   2.963  1.3928  0.9324  0.7128
  177SAPS   C2820195   2.826   3.793   2.782 -0.0099  0.3745  0.4571
  177SAPS   H8R20196   2.835   3.781   2.673 -0.5762  2.1247  0.1913
  177SAPS   C2920197   2.714   3.755   2.834  0.3619 -0.0935 -0.8045
  177SAPS   H9R20198   2.623   3.752   2.772 -0.3241  1.0391  0.0889
  177SAPS  C21020199   2.694   3.733   2.980  0.1648  0.4223 -0.1302
  177SAPS  H10R20200   2.676   3.831   3.029  3.4619  1.7123 -1.2193
  177SAPS  H10S20201   2.792   3.714   3.029  1.1395  0.4789 -1.9384
  177SAPS  C21120202   2.603   3.618   3.009  0.4595  0.0472  0.0961
  177SAPS  H11R20203   2.561   3.561   2.925 -1.8765  0.2375  1.0498
  177SAPS  C21220204   2.556   3.594   3.133  0.6173 -0.0249  0.1331
  177SAPS  H12R20205   2.483   3.512   3.140  0.0185  0.4779 -0.1128
  177SAPS  C21320206   2.601   3.665   3.257  0.2694 -0.7042  0.4389
  177SAPS  H13R20207   2.506   3.674   3.314 -0.4248 -2.3988 -0.3745
  177SAPS  H13S20208   2.624   3.773   3.245 -0.0078 -0.5127  1.5152
  177SAPS  C21420209   2.710   3.609   3.345  0.3924 -0.4289  0.2799
  177SAPS  H14R20210   2.798   3.577   3.287 -0.5218  0.0226 -1.4307
  177SAPS  C21520211   2.715   3.613   3.478 -0.1651  0.3567 -1.0898
  177SAPS  H15R20212   2.798   3.573   3.538 -0.9715  2.5888  1.7697
  177SAPS  C21620213   2.599   3.647   3.572  0.2545  0.3155 -0.6432
  177SAPS  H16R20214   2.500   3.671   3.528  0.3181  2.4230  0.2733
  177SAPS  H16S20215   2.618   3.727   3.646 -1.6458  0.2820 -0.0763
  177SAPS  C21720216   2.562   3.527   3.659 -0.6886 -0.7828  0.1645
  177SAPS  H17R20217   2.533   3.437   3.601 -1.5852 -0.4301  0.0579
  177SAPS  H17S20218   2.471   3.566   3.708  0.1578  4.6386 -1.8464
  177SAPS  C21820219   2.674   3.499   3.760 -0.0860 -0.1015 -0.6392
  177SAPS  H18R20220   2.689   3.599   3.807  0.2105 -0.2745 -0.3590
  177SAPS  H18S20221   2.775   3.473   3.722  0.1373  1.7280 -1.4404
  177SAPS  C21920222   2.638   3.405   3.868  0.6297  0.3396  0.2353
  177SAPS  H19R20223   2.627   3.308   3.814  2.9159  0.5764 -0.7943
  177SAPS  H19S20224   2.541   3.437   3.911 -0.9098 -2.3617 -0.9603
  177SAPS  C22020225   2.740   3.377   3.979 -0.8859 -0.1684 -0.0596
  177SAPS  H20R20226   2.778   3.470   4.027  2.4003 -2.0869  1.3647
  177SAPS  H20S20227   2.828   3.318   3.944 -2.5933 -2.2197 -1.1198
  177SAPS  H20T20228   2.706   3.313   4.062  0.8329 -0.8232  0.1768
  177SAPS   C3320229   3.879   4.243   2.467  0.0326  0.0775  0.6004
  177SAPS   H3X20230   3.977   4.195   2.448 -1.0539 -0.8052 -3.8807
  177SAPS   H3Y20231   3.830   4.169   2.534 -0.9649  0.2814  0.1173
  177SAPS   C3420232   3.905   4.374   2.529  0.1970 -0.0147 -0.8767
  177SAPS   H4X20233   3.818   4.444   2.528  0.7045  0.8496  2.5975
  177SAPS   H4Y20234   3.988   4.427   2.478  0.4976  0.2251 -0.1555
  177SAPS   C3520235   3.937   4.353   2.683 -0.8912 -0.2918 -0.2486
  177SAPS   H5X20236   4.043   4.322   2.679 -0.4787  0.7685  1.3188
  177SAPS   H5Y20237   3.886   4.264   2.727  0.1423 -0.7022  0.1390
  177SAPS   C3620238   3.907   4.477   2.767 -0.1191  0.5158 -0.7086
  177SAPS   H6X20239   3.798   4.495   2.755  0.1069  1.2100 -1.8909
  177SAPS   H6Y20240   3.959   4.565   2.724 -1.2628  1.2378 -0.6520
  177SAPS   C3720241   3.945   4.451   2.918 -0.2250  0.5974  0.7761
  177SAPS   H7X20242   4.052   4.422   2.927 -0.1636  0.8319  0.8071
  177SAPS   H7Y20243   3.890   4.358   2.944 -0.4734  0.3298 -0.6369
  177SAPS   C3820244   3.921   4.566   3.015  0.0775 -0.4660  0.2988
  177SAPS   H8X20245   3.816   4.601   3.002  0.3675  0.1055 -0.5520
  177SAPS   H8Y20246   3.992   4.649   2.996  0.6010 -0.4728  2.0533
  177SAPS   C3920247   3.942   4.518   3.162 -0.0505  0.0074  0.4745
  177SAPS   H9X20248   3.948   4.611   3.222 -0.8999 -0.0007  0.5807
  177SAPS   H9Y20249   4.043   4.474   3.166  0.6395  1.4212 -0.3704
  177SAPS  C31020250   3.824   4.440   3.226  0.3409 -0.1472  0.2365
  177SAPS  H10X20251   3.790   4.374   3.142  1.8145 -1.2245  0.4553
  177SAPS  H10Y20252   3.750   4.515   3.262  1.7335  0.2434  2.4568
  177SAPS  C31120253   3.872   4.359   3.339  1.0305 -0.0630  0.1160
  177SAPS  H11X20254   3.978   4.325   3.335  1.1672  0.4456 -1.2545
  177SAPS  H11Y20255   3.807   4.273   3.365 -1.2836  2.5780  4.1069
  177SAPS  C31220256   3.868   4.447   3.469  0.7465 -0.3687  0.0663
  177SAPS  H12X20257   3.764   4.445   3.507  1.4680 -0.8235  2.1745
  177SAPS  H12Y20258   3.892   4.554   3.448 -1.7519  0.1480 -0.4213
  177SAPS  C31320259   3.949   4.382   3.587  0.2320  0.1258 -0.3533
  177SAPS  H13X20260   4.057   4.380   3.562  0.7551  0.2917  1.6718
  177SAPS  H13Y20261   3.911   4.279   3.601 -0.3356  0.2748 -0.7736
  177SAPS  C31420262   3.942   4.469   3.718  0.0875  0.5910  1.0020
  177SAPS  H14X20263   3.840   4.459   3.760 -0.3470 -1.6659 -0.4699
  177SAPS  H14Y20264   3.965   4.574   3.687 -0.3627  0.2400 -0.5695
  177SAPS  C31520265   4.041   4.418   3.827 -0.3643 -0.2138 -0.8834
  177SAPS  H15X20266   4.145   4.455   3.826  0.2130 -1.7512 -0.3602
  177SAPS  H15Y20267   4.047   4.311   3.799  0.8098 -1.1708  2.4684
  177SAPS  C31620268   3.986   4.438   3.974 -0.0568 -0.5387 -0.3068
  177SAPS  H16X20269   3.885   4.393   3.981  0.0120 -0.8055 -0.9710
  177SAPS  H16Y20270   3.984   4.547   3.995 -0.0138 -0.3777 -1.1051
  177SAPS  C31720271   4.064   4.368   4.081 -0.2292  1.1394  0.2001
  177SAPS  H17X20272   4.034   4.412   4.179  0.1261 -1.9990  1.8589
  177SAPS  H17Y20273   4.170   4.399   4.067  0.4647 -1.0744  0.1760
  177SAPS  C31820274   4.060   4.212   4.065 -0.7230  0.3881 -0.0233
  177SAPS  H18X20275   4.111   4.191   3.969  1.7693  2.3582  0.7519
  177SAPS  H18Y20276   3.956   4.178   4.084 -0.8455  1.5257  1.5770
  177SAPS  H18Z20277   4.130   4.171   4.142  0.5364  1.0237 -0.7916
  178SAPS     N20278   5.071   6.293   2.042  0.6097  0.1433 -0.2517
  178SAPS   HN120279   5.077   6.264   2.141 -1.0230  2.7176  0.6955
  178SAPS   HN220280   4.977   6.330   2.016  0.6794  1.2540  0.9756
  178SAPS   HN320281   5.096   6.216   1.976  1.2188  1.0724 -1.1459
  178SAPS   C1220282   5.168   6.406   2.016  0.0415  0.0972  0.5377
  178SAPS  H12A20283   5.238   6.380   1.938 -1.4508  0.7640 -1.0806
  178SAPS   C1320284   5.099   6.542   1.954 -0.4666  0.5787  0.0972
  178SAPS  O13A20285   4.974   6.553   1.956  0.4306 -0.3958  0.3757
  178SAPS  O13B20286   5.178   6.632   1.918  0.1632  0.2417  1.2376
  178SAPS   C1120287   5.257   6.437   2.139 -0.3489 -0.5090 -0.2337
  178SAPS  H11A20288   5.187   6.476   2.216 -1.4898 -1.5014 -0.7197
  178SAPS  H11B20289   5.328   6.521   2.128 -0.6778 -0.1488  0.3523
  178SAPS     P20290   5.456   6.269   2.149 -0.1701  0.0859 -0.1826
  178SAPS   O1320291   5.474   6.127   2.189 -0.3326  0.1878 -0.1001
  178SAPS   O1420292   5.471   6.292   2.002  0.3599 -0.2257  0.6601
  178SAPS   O1220293   5.309   6.317   2.194  0.2618 -0.8774  0.3069
  178SAPS   O1120294   5.556   6.366   2.216  0.2882 -0.3339 -0.1551
  178SAPS    C120295   5.560   6.382   2.356  0.3746 -0.3690 -0.6230
  178SAPS    HA20296   5.609   6.477   2.386 -0.6457 -0.1331  0.3612
  178SAPS    HB20297   5.458   6.388   2.401  1.6708 -0.2014  2.5038
  178SAPS    C220298   5.634   6.273   2.435  0.4119 -0.4362 -0.9769
  178SAPS    HS20299   5.583   6.174   2.428  1.3921 -1.6754  4.3736
  178SAPS   O2120300   5.641   6.330   2.578 -0.0727  0.4304 -0.0289
  178SAPS   C2120301   5.620   6.228   2.670 -0.5297 -0.6293  0.0358
  178SAPS   O2220302   5.597   6.111   2.647 -0.4904  0.1571  0.6943
  178SAPS   C2220303   5.636   6.284   2.809  0.7129 -0.0723  0.1445
  178SAPS   H2R20304   5.730   6.341   2.807  0.8088 -0.1724  1.1576
  178SAPS   H2S20305   5.554   6.357   2.826  2.4713  1.7951  0.9861
  178SAPS    C320306   5.776   6.248   2.381  0.9727  0.0677 -1.6851
  178SAPS    HX20307   5.820   6.350   2.373 -0.8595  1.0316 -0.3152
  178SAPS    HY20308   5.765   6.201   2.281 -0.6950 -0.8745 -1.0910
  178SAPS   O3120309   5.844   6.153   2.464 -0.3147 -0.3372 -0.0298
  178SAPS   C3120310   5.971   6.179   2.467 -0.0394 -0.0460  0.2674
  178SAPS   O3220311   6.032   6.263   2.405 -0.5793 -0.8371  0.3732
  178SAPS   C3220312   6.038   6.076   2.559  0.2755  0.1562 -0.0843
  178SAPS   H2X20313   6.114   6.016   2.504 -0.6121 -0.9106 -0.1846
  178SAPS   H2Y20314   5.968   5.997   2.595 -0.1226  0.7774  0.5218
  178SAPS   C2320315   5.642   6.181   2.916  0.3011 -0.4394 -0.6153
  178SAPS   H3R20316   5.739   6.128   2.902  1.0212  0.5804  0.2990
  178SAPS   H3S20317   5.559   6.108   2.904 -0.5375  0.1936  0.9504
  178SAPS   C2420318   5.632   6.237   3.057  0.0983 -0.1598 -0.7643
  178SAPS   H4R20319   5.536   6.292   3.067 -0.1806 -0.6710 -0.5805
  178SAPS   H4S20320   5.709   6.315   3.076 -0.9401  0.6804  0.1269
  178SAPS   C2520321   5.645   6.124   3.158  0.4200  0.2702  0.4983
  178SAPS   H5R20322   5.690   6.032   3.117  1.1507  1.2315 -0.9398
  178SAPS   C2620323   5.616   6.128   3.289 -0.3537  0.8421  0.8660
  178SAPS   H6R20324   5.614   6.032   3.342 -1.3436  0.9148  0.9897
  178SAPS   C2720325   5.544   6.239   3.359  0.2689  0.2140 -0.5236
  178SAPS   H7R20326   5.528   6.329   3.295 -1.2043 -1.1642 -2.2026
  178SAPS   H7S20327   5.617   6.272   3.435  0.4239 -0.0444 -0.5606
  178SAPS   C2820328   5.411   6.195   3.418  0.0115 -0.2755 -0.2985
  178SAPS   H8R20329   5.353   6.134   3.347  1.1942 -6.1098  3.0416
  178SAPS   C2920330   5.342   6.244   3.527 -0.6070  0.3385  0.5252
  178SAPS   H9R20331   5.240   6.208   3.550 -0.1266 -0.1244  2.0482
  178SAPS  C21020332   5.412   6.347   3.615  0.6475 -0.3751 -0.4797
  178SAPS  H10R20333   5.522   6.340   3.609  0.8262  2.2162 -4.0560
  178SAPS  H10S20334   5.380   6.325   3.719 -2.9308  4.8384 -0.0634
  178SAPS  C21120335   5.367   6.487   3.585  0.3769  0.6395  1.4201
  178SAPS  H11R20336   5.258   6.496   3.590  0.4555  1.4820  1.7431
  178SAPS  C21220337   5.440   6.594   3.559 -0.1318  0.1169  0.0755
  178SAPS  H12R20338   5.386   6.689   3.545 -0.7159 -0.0299  1.2069
  178SAPS  C21320339   5.591   6.610   3.550  0.0120 -0.6883  0.1594
  178SAPS  H13R20340   5.646   6.513   3.545 -1.5093 -1.5886  0.2380
  178SAPS  H13S20341   5.630   6.639   3.650 -0.5149 -0.5585  0.3275
  178SAPS  C21420342   5.653   6.688   3.433 -0.3206 -0.2159  0.2379
  178SAPS  H14R20343   5.689   6.636   3.343  1.5727  2.2175 -0.5202
  178SAPS  C21520344   5.699   6.813   3.431  0.2644  0.3219 -0.3900
  178SAPS  H15R20345   5.755   6.852   3.344 -1.6891  1.4454 -1.2214
  178SAPS  C21620346   5.697   6.912   3.547 -0.7503  0.2963  0.9668
  178SAPS  H16R20347   5.759   7.003   3.532  0.1481 -0.6509 -1.7511
  178SAPS  H16S20348   5.713   6.874   3.650  0.4548  0.5987  0.9065
  178SAPS  C21720349   5.554   6.952   3.560  0.6639  0.4168  0.4797
  178SAPS  H17R20350   5.481   6.869   3.559 -1.5429  2.2412 -0.6744
  178SAPS  H17S20351   5.523   7.017   3.475  2.2082 -2.2206 -2.2919
  178SAPS  C21820352   5.531   7.040   3.681  0.0235  0.1601 -0.3232
  178SAPS  H18R20353   5.597   7.128   3.672  2.2016 -1.2377  1.0351
  178SAPS  H18S20354   5.575   6.986   3.768  0.7779  2.5923  0.8980
  178SAPS  C21920355   5.388   7.069   3.715  0.6288 -0.2872  0.2869
  178SAPS  H19R20356   5.328   7.144   3.660 -0.2104  0.9314  2.7018
  178SAPS  H19S20357   5.391   7.100   3.822 -0.3862 -1.8907  0.8132
  178SAPS  C22020358   5.295   6.945   3.712 -0.1311  0.1946  0.2843
  178SAPS  H20R20359   5.343   6.867   3.775  1.1152  0.3323 -0.4564
  178SAPS  H20S20360   5.295   6.920   3.604  0.6857  0.0650  0.3031
  178SAPS  H20T20361   5.193   6.953   3.756 -0.3223 -1.2142  0.1378
  178SAPS   C3320362   6.105   6.140   2.679  0.0650  0.0821  0.3074
  178SAPS   H3X20363   6.196   6.193   2.644  0.5928 -0.2478  1.1272
  178SAPS   H3Y20364   6.141   6.059   2.747 -0.7758  1.9318  3.1518
  178SAPS   C3420365   6.012   6.215   2.774 -0.0071 -0.1471 -0.6783
  178SAPS   H4X20366   5.927   6.156   2.812 -0.1564  0.3217 -0.2822
  178SAPS   H4Y20367   5.977   6.311   2.729 -1.2460 -0.3250 -0.1296
  178SAPS   C3520368   6.104   6.251   2.894  0.7756  0.1561 -0.1164
  178SAPS   H5X20369   6.195   6.309   2.867  0.5915  0.3272 -0.3764
  178SAPS   H5Y20370   6.135   6.159   2.947 -0.1553  1.4148  2.8235
  178SAPS   C3620371   6.034   6.334   3.004 -0.2690 -0.2509  0.3293
  178SAPS   H6X20372   5.929   6.297   3.008 -0.0681 -0.7490  1.0635
  178SAPS   H6Y20373   6.030   6.433   2.954 -0.7252 -0.1032  0.6502
  178SAPS   C3720374   6.094   6.324   3.145 -0.3306  0.1104  0.1688
  178SAPS   H7X20375   6.199   6.358   3.136  0.0526 -0.1711  2.8197
  178SAPS   H7Y20376   6.099   6.221   3.187  0.0238  0.5310  1.1990
  178SAPS   C3820377   6.015   6.419   3.237  0.8935  0.2817 -0.3395
  178SAPS   H8X20378   5.908   6.394   3.250  0.7966 -1.6795 -3.7609
  178SAPS   H8Y20379   6.009   6.519   3.189 -1.3893  0.8629  1.0391
  178SAPS   C3920380   6.078   6.445   3.380 -0.5761  0.5200  0.0341
  178SAPS   H9X20381   6.173   6.499   3.359  1.0647 -2.6431 -1.3101
  178SAPS   H9Y20382   6.100   6.348   3.429  0.7913  0.4028 -0.7714
  178SAPS  C31020383   5.987   6.530   3.478  0.2941  0.2377  1.0608
  178SAPS  H10X20384   5.883   6.491   3.476  0.8585 -1.3698 -0.9560
  178SAPS  H10Y20385   5.983   6.635   3.442  0.3881 -0.3383 -0.7262
  178SAPS  C31120386   6.049   6.536   3.613 -0.0133 -0.3094 -0.5567
  178SAPS  H11X20387   6.157   6.555   3.596  0.1810 -1.0076 -0.1875
  178SAPS  H11Y20388   6.043   6.435   3.660  0.5477 -0.2733 -0.3953
  178SAPS  C31220389   5.986   6.649   3.692 -1.0085  0.6700  0.2763
  178SAPS  H12X20390   5.881   6.624   3.719 -0.5120 -1.0110  0.7045
  178SAPS  H12Y20391   5.976   6.744   3.634  0.8837  0.0045 -1.2775
  178SAPS  C31320392   6.060   6.681   3.820 -0.1945 -0.0661  0.4261
  178SAPS  H13X20393   6.134   6.760   3.799  0.3157 -0.9909 -1.4461
  178SAPS  H13Y20394   6.114   6.588   3.849  2.5503  1.6774  1.2463
  178SAPS  C31420395   5.964   6.723   3.931  0.3500 -0.5571  0.5304
  178SAPS  H14X20396   5.907   6.632   3.959  1.4185 -1.0161  1.3059
  178SAPS  H14Y20397   5.887   6.794   3.895  0.0223 -1.0576  0.2414
  178SAPS  C31520398   6.036   6.787   4.046 -0.5102  0.0600  0.5162
  178SAPS  H15X20399   6.098   6.870   4.006 -0.3166 -1.1206 -1.8007
  178SAPS  H15Y20400   6.107   6.719   4.097  0.3800  2.4744  2.7284
  178SAPS  C31620401   5.942   6.817   4.164  0.3322 -0.4565 -0.1415
  178SAPS  H16X20402   5.922   6.727   4.226  2.7328 -0.6045  0.5360
  178SAPS  H16Y20403   5.844   6.844   4.118 -0.8773 -0.7456  2.1273
  178SAPS  C31720404   5.977   6.933   4.262  0.0748  0.0077 -0.4045
  178SAPS  H17X20405   5.905   6.927   4.345  1.2049 -2.1837  0.4979
  178SAPS  H17Y20406   5.959   7.032   4.214 -1.1599 -0.4902 -1.0106
  178SAPS  C31820407   6.120   6.927   4.317  0.9669 -0.1885 -0.7232
  178SAPS  H18X20408   6.135   6.848   4.393  5.6702  1.4900  0.4019
  178SAPS  H18Y20409   6.146   7.030   4.349  0.7600 -0.3324 -0.0914
  178SAPS  H18Z20410   6.192   6.903   4.235  1.3186 -1.7606  0.0147
  179SAPS     N20411   1.648   6.214   2.208 -0.2937 -0.6443 -0.4839
  179SAPS   HN120412   1.652   6.120   2.163  1.4252 -0.1117 -1.5184
  179SAPS   HN220413   1.721   6.222   2.282 -0.8383  0.5241 -0.0405
  179SAPS   HN320414   1.560   6.232   2.261  0.3407 -0.5420  0.5525
  179SAPS   C1220415   1.666   6.315   2.092 -0.2101  0.2971 -0.7802
  179SAPS  H12A20416   1.765   6.293   2.055 -0.8106 -1.7312 -1.3356
  179SAPS   C1320417   1.561   6.296   1.981 -0.0104  0.0968 -0.2905
  179SAPS  O13A20418   1.490   6.190   1.986  0.0977 -0.0021 -0.4434
  179SAPS  O13B20419   1.560   6.369   1.880  0.4763 -0.2518 -0.4045
  179SAPS   C1120420   1.649   6.462   2.146 -0.2873  0.4329  0.1820
  179SAPS  H11A20421   1.551   6.484   2.193 -0.8340  1.7920 -1.5027
  179SAPS  H11B20422   1.628   6.527   2.059  0.3237 -0.8656 -0.9637
  179SAPS     P20423   1.797   6.489   2.367 -0.0943  0.1860 -0.0707
  179SAPS   O1320424   1.828   6.344   2.383 -0.6005  0.6507 -0.4536
  179SAPS   O1420425   1.898   6.592   2.412 -0.2414  0.2222  0.1901
  179SAPS   O1220426   1.767   6.505   2.222 -0.4794  0.0154 -0.2889
  179SAPS   O1120427   1.661   6.511   2.448 -0.4836  0.2896  0.0782
  179SAPS    C120428   1.597   6.640   2.443 -0.2438 -0.4299 -0.4601
  179SAPS    HA20429   1.676   6.717   2.456  0.0743 -0.8444  0.1402
  179SAPS    HB20430   1.553   6.647   2.341  1.3031 -1.0462 -1.2058
  179SAPS    C220431   1.486   6.650   2.549 -0.0490  0.1092 -0.1490
  179SAPS    HS20432   1.459   6.757   2.557 -0.9950 -0.0588 -0.8601
  179SAPS   O2120433   1.522   6.594   2.671 -0.1591  0.1939  0.3678
  179SAPS   C2120434   1.635   6.640   2.722 -0.3848  0.2133  0.0593
  179SAPS   O2220435   1.698   6.738   2.690 -0.5051 -0.0384 -0.7883
  179SAPS   C2220436   1.668   6.543   2.837  0.5030  0.2546 -0.2080
  179SAPS   H2R20437   1.593   6.559   2.918 -1.5677  0.5233 -2.0955
  179SAPS   H2S20438   1.657   6.440   2.799 -2.7984 -0.2171  1.6382
  179SAPS    C320439   1.366   6.564   2.506 -0.8792 -0.5923 -0.6527
  179SAPS    HX20440   1.363   6.459   2.540 -0.8533 -0.2376  0.4846
  179SAPS    HY20441   1.369   6.545   2.396  3.2037 -0.7243 -0.6398
  179SAPS   O3120442   1.244   6.624   2.549 -0.4104  0.5193 -0.2771
  179SAPS   C3120443   1.189   6.715   2.465 -0.5294  0.9015 -0.4232
  179SAPS   O3220444   1.227   6.726   2.354 -0.0505 -0.6697  0.4562
  179SAPS   C3220445   1.063   6.775   2.528 -0.2633 -0.1439  0.0097
  179SAPS   H2X20446   1.028   6.700   2.602  1.6618  0.3900  1.5657
  179SAPS   H2Y20447   0.983   6.787   2.452 -0.5427 -0.0881  0.3099
  179SAPS   C2320448   1.812   6.556   2.894  0.2024  0.3991  0.2907
  179SAPS   H3R20449   1.815   6.654   2.947  3.3871  0.0826  0.8728
  179SAPS   H3S20450   1.890   6.542   2.816 -0.2245 -3.1502  0.3635
  179SAPS   C2420451   1.836   6.443   2.996 -0.0379 -0.2552 -0.6579
  179SAPS   H4R20452   1.945   6.430   3.018  0.0176  0.8355 -0.2227
  179SAPS   H4S20453   1.800   6.350   2.947 -2.0419  0.2316 -0.1931
  179SAPS   C2520454   1.780   6.463   3.133 -0.1918 -0.6808 -0.4974
  179SAPS   H5R20455   1.677   6.427   3.147 -0.1199  0.3641  4.7459
  179SAPS   C2620456   1.848   6.522   3.237 -0.1535 -0.6444 -0.0209
  179SAPS   H6R20457   1.792   6.533   3.331 -2.2416  1.0431 -1.3511
  179SAPS   C2720458   1.988   6.589   3.222 -0.3391  0.4000  0.0120
  179SAPS   H7R20459   1.971   6.697   3.203  1.5520  0.8169  0.5059
  179SAPS   H7S20460   2.054   6.549   3.142  0.4756  1.2028  0.2597
  179SAPS   C2820461   2.054   6.577   3.361  0.1149  0.0429  0.6049
  179SAPS   H8R20462   2.045   6.669   3.421 -0.0369  0.6244 -0.2764
  179SAPS   C2920463   2.125   6.477   3.408  0.1943 -0.1821 -0.5672
  179SAPS   H9R20464   2.150   6.486   3.515  1.5872 -0.7451 -0.8205
  179SAPS  C21020465   2.145   6.343   3.351  0.0386  0.0466 -0.2388
  179SAPS  H10R20466   2.125   6.333   3.242  0.4269  0.7502 -0.3805
  179SAPS  H10S20467   2.054   6.285   3.377 -0.6230  0.5787 -1.2950
  179SAPS  C21120468   2.280   6.284   3.396 -0.1855  0.2388  0.1452
  179SAPS  H11R20469   2.353   6.296   3.315 -1.3280 -0.5426 -1.0274
  179SAPS  C21220470   2.296   6.199   3.505  0.7400  0.4494 -0.7005
  179SAPS  H12R20471   2.398   6.164   3.530  0.1573  0.9014  2.8408
  179SAPS  C21320472   2.188   6.165   3.614  0.1591  0.2685 -0.4887
  179SAPS  H13R20473   2.185   6.055   3.623 -0.0655  0.4152  1.8888
  179SAPS  H13S20474   2.087   6.183   3.571  0.0029  0.7501  0.0617
  179SAPS  C21420475   2.209   6.222   3.752 -0.1937  0.0262  0.5650
  179SAPS  H14R20476   2.240   6.327   3.754 -1.0016  0.2657  1.2769
  179SAPS  C21520477   2.173   6.164   3.870  0.3236  0.3273  0.6625
  179SAPS  H15R20478   2.212   6.220   3.956  0.5301 -0.5787  1.1731
  179SAPS  C21620479   2.110   6.029   3.888  0.0969 -0.1406  1.0446
  179SAPS  H16R20480   2.082   5.983   3.791  0.1890  2.1836 -0.1688
  179SAPS  H16S20481   2.017   6.048   3.945 -0.1604  2.0667  0.0211
  179SAPS  C21720482   2.184   5.924   3.975  0.7703  0.4549 -0.4689
  179SAPS  H17R20483   2.232   5.967   4.065  0.1835 -0.3376  0.2363
  179SAPS  H17S20484   2.260   5.872   3.913  0.5157 -0.7708  0.2100
  179SAPS  C21820485   2.091   5.805   4.012 -0.3082 -0.4653  0.3671
  179SAPS  H18R20486   2.091   5.748   3.917 -1.1426 -0.4956  0.3743
  179SAPS  H18S20487   1.987   5.838   4.034 -1.0811 -1.3258 -1.7446
  179SAPS  C21920488   2.152   5.724   4.126 -0.1232  0.4315 -0.1699
  179SAPS  H19R20489   2.169   5.803   4.203  0.3713 -0.8690  1.1019
  179SAPS  H19S20490   2.250   5.682   4.096 -1.1233 -1.6415 -0.7311
  179SAPS  C22020491   2.057   5.621   4.183  0.5813 -0.1938  0.0458
  179SAPS  H20R20492   2.043   5.553   4.097  1.5927  1.4641 -1.4947
  179SAPS  H20S20493   1.961   5.673   4.207  0.0201 -1.0289 -0.3591
  179SAPS  H20T20494   2.106   5.569   4.268  0.6180 -1.8242 -0.9449
  179SAPS   C3320495   1.101   6.907   2.596 -0.5724  0.3767  0.3198
  179SAPS   H3X20496   1.009   6.945   2.644 -0.1548  0.5960  0.9579
  179SAPS   H3Y20497   1.136   6.977   2.517  0.5143 -1.3615 -0.8229
  179SAPS   C3420498   1.212   6.884   2.699 -0.7982 -0.1702 -0.3303
  179SAPS   H4X20499   1.252   6.981   2.735 -1.6082 -0.3060  1.0132
  179SAPS   H4Y20500   1.298   6.829   2.653 -2.5223 -1.1854 -2.5448
  179SAPS   C3520501   1.158   6.805   2.820  0.4190 -0.1739  0.3304
  179SAPS   H5X20502   1.152   6.697   2.794 -0.8445 -0.0900  0.1895
  179SAPS   H5Y20503   1.052   6.838   2.829 -0.0578 -1.6420  0.4370
  179SAPS   C3620504   1.231   6.832   2.956 -0.6552 -0.1576  0.1435
  179SAPS   H6X20505   1.177   6.779   3.038 -0.4122 -0.8043 -0.1098
  179SAPS   H6Y20506   1.234   6.943   2.962 -0.6466 -0.1792  0.5697
  179SAPS   C3720507   1.381   6.784   2.955  1.0881 -0.4454  0.0461
  179SAPS   H7X20508   1.431   6.855   2.886 -3.5109  3.0509 -0.1668
  179SAPS   H7Y20509   1.393   6.683   2.910  0.0091 -0.1806 -0.8905
  179SAPS   C3820510   1.449   6.803   3.094 -0.0428 -0.2418  0.4383
  179SAPS   H8X20511   1.414   6.897   3.142 -0.6426 -0.5343  0.5841
  179SAPS   H8Y20512   1.556   6.819   3.068 -0.7404  0.7345 -2.2193
  179SAPS   C3920513   1.442   6.683   3.189 -0.5750  0.6578 -0.1143
  179SAPS   H9X20514   1.502   6.599   3.147 -2.2801 -0.6769  0.0210
  179SAPS   H9Y20515   1.337   6.652   3.172  0.1521 -2.3108  0.3129
  179SAPS  C31020516   1.471   6.702   3.343 -0.3879 -0.2149 -0.4413
  179SAPS  H10X20517   1.576   6.738   3.346 -0.5598  0.3007 -0.4402
  179SAPS  H10Y20518   1.474   6.604   3.395  0.2970 -0.0242 -0.1139
  179SAPS  C31120519   1.384   6.798   3.422 -0.3164 -0.1285  0.5028
  179SAPS  H11X20520   1.279   6.763   3.429 -0.0858 -1.5072 -1.7905
  179SAPS  H11Y20521   1.378   6.900   3.377  2.5894 -0.2562 -0.3697
  179SAPS  C31220522   1.435   6.802   3.568 -0.3679 -0.0132 -1.2252
  179SAPS  H12X20523   1.516   6.878   3.579  0.0550 -0.5678 -0.4327
  179SAPS  H12Y20524   1.481   6.702   3.584  1.7243  1.2816  1.9528
  179SAPS  C31320525   1.319   6.817   3.669 -0.6780 -0.5393  0.1428
  179SAPS  H13X20526   1.234   6.746   3.663 -2.3935  1.5292 -1.1500
  179SAPS  H13Y20527   1.276   6.917   3.649  1.5835  0.0821 -2.1772
  179SAPS  C31420528   1.373   6.808   3.814  0.0149  0.0941  0.1230
  179SAPS  H14X20529   1.475   6.852   3.805 -1.5374  4.0435 -0.0271
  179SAPS  H14Y20530   1.375   6.710   3.867 -2.3219  0.5966  1.2537
  179SAPS  C31520531   1.272   6.894   3.905 -0.3666 -0.5350  0.2662
  179SAPS  H15X20532   1.172   6.848   3.900 -1.2813  1.2057  1.4165
  179SAPS  H15Y20533   1.258   6.995   3.860 -1.2484  0.8098  3.2731
  179SAPS  C31620534   1.312   6.902   4.052  0.1903 -0.1137  0.0677
  179SAPS  H16X20535   1.253   6.986   4.096 -3.0646 -2.8119  1.3440
  179SAPS  H16Y20536   1.417   6.936   4.060  0.5353 -1.3388  1.0803
  179SAPS  C31720537   1.289   6.778   4.125  0.7331  0.2127  0.0914
  179SAPS  H17X20538   1.337   6.695   4.069  1.4756  0.3452  0.5172
  179SAPS  H17Y20539   1.178   6.773   4.127  0.7374  0.0270 -0.0822
  179SAPS  C31820540   1.335   6.791   4.272  0.3506  0.0602  0.1813
  179SAPS  H18X20541   1.280   6.868   4.331 -1.2824 -3.3627  3.5007
  179SAPS  H18Y20542   1.436   6.838   4.263 -0.0330  0.4919 -3.4077
  179SAPS  H18Z20543   1.323   6.694   4.324  0.2277 -0.7794 -1.3506
  180SAPS     N20544   1.375   5.924   1.980  0.0865  0.3723 -0.3159
  180SAPS   HN120545   1.431   6.008   2.006  1.7303 -1.5332  3.0520
  180SAPS   HN220546   1.415   5.846   2.036 -0.3042  0.2914 -0.1422
  180SAPS   HN320547   1.385   5.886   1.884 -0.2514 -0.6561  0.0429
  180SAPS   C1220548   1.242   5.949   2.016  1.2466 -0.8790 -0.1219
  180SAPS  H12A20549   1.211   6.042   1.970  1.8434  0.2027  1.5702
  180SAPS   C1320550   1.142   5.842   1.963 -0.5343 -0.0330  0.6315
  180SAPS  O13A20551   1.188   5.734   1.912 -0.0905  0.1201  0.3114
  180SAPS  O13B20552   1.018   5.868   1.968 -0.0844  1.1161 -0.0945
  180SAPS   C1120553   1.232   5.971   2.170  0.2062  0.1394 -0.5862
  180SAPS  H11A20554   1.266   5.880   2.223  1.1556 -0.1733 -1.6892
  180SAPS  H11B20555   1.131   6.007   2.197  0.3526  0.3001 -0.2485
  180SAPS     P20556   1.285   6.224   2.238  0.1893 -0.1886  0.2053
  180SAPS   O1320557   1.405   6.279   2.296 -0.5335  0.1242 -0.9911
  180SAPS   O1420558   1.228   6.288   2.111 -0.1064  0.4701 -0.6554
  180SAPS   O1220559   1.319   6.076   2.210 -0.3476 -0.4626  0.2096
  180SAPS   O1120560   1.160   6.223   2.335  1.0417 -1.1043  0.5467
  180SAPS    C120561   1.174   6.165   2.467  0.5322 -0.1832 -0.1502
  180SAPS    HA20562   1.206   6.059   2.457  1.6259  0.1718 -0.5518
  180SAPS    HB20563   1.240   6.238   2.518 -2.0612  0.8858  1.9429
  180SAPS    C220564   1.051   6.175   2.564 -0.5360 -0.1271  0.5602
  180SAPS    HS20565   1.074   6.133   2.664  0.6358  0.9395  0.7654
  180SAPS   O2120566   0.937   6.107   2.511  0.1813 -0.1754  0.1060
  180SAPS   C2120567   0.919   5.982   2.549 -0.2316  0.3531 -1.1135
  180SAPS   O2220568   0.989   5.923   2.633  0.1833 -0.0208  0.0649
  180SAPS   C2220569   0.793   5.923   2.483 -0.1147  0.0681 -0.5426
  180SAPS   H2R20570   0.727   6.001   2.440  0.6612  0.5136 -0.9368
  180SAPS   H2S20571   0.825   5.857   2.400  0.8481 -0.3466  0.1270
  180SAPS    C320572   1.015   6.326   2.593  0.7250  0.2908 -0.3131
  180SAPS    HX20573   0.980   6.368   2.496  1.8474  1.9024 -0.0692
  180SAPS    HY20574   1.105   6.385   2.619 -0.1812  0.7801  1.9520
  180SAPS   O3120575   0.908   6.329   2.694  0.3373 -0.0881 -0.1294
  180SAPS   C3120576   0.849   6.445   2.704  0.2561 -0.3327  0.4519
  180SAPS   O3220577   0.858   6.538   2.627  0.1388 -0.0990  0.7231
  180SAPS   C3220578   0.767   6.428   2.832  0.2688  0.3421  0.4997
  180SAPS   H2X20579   0.834   6.388   2.910  0.4045 -0.0929  0.1627
  180SAPS   H2Y20580   0.682   6.359   2.812 -0.9542  1.9947 -0.2918
  180SAPS   C2320581   0.726   5.813   2.570 -0.4197  0.1226  0.2600
  180SAPS   H3R20582   0.675   5.862   2.655  0.3954  0.9485  0.2986
  180SAPS   H3S20583   0.786   5.730   2.612 -0.3071 -0.8920 -1.7919
  180SAPS   C2420584   0.619   5.744   2.489  0.4956  0.0025  0.4091
  180SAPS   H4R20585   0.602   5.807   2.398  1.9142  1.1292  0.8846
  180SAPS   H4S20586   0.526   5.747   2.549 -1.4514 -0.4747 -2.3928
  180SAPS   C2520587   0.631   5.603   2.439 -0.4432 -0.1820 -0.5104
  180SAPS   H5R20588   0.649   5.593   2.331  3.1575 -2.7803  0.1444
  180SAPS   C2620589   0.638   5.488   2.513  0.4636  0.7138  0.0851
  180SAPS   H6R20590   0.641   5.392   2.461 -3.6057  0.0081  0.8055
  180SAPS   C2720591   0.630   5.479   2.664  0.4470  0.2071  0.5533
  180SAPS   H7R20592   0.554   5.547   2.706  0.9898  1.0908  0.1333
  180SAPS   H7S20593   0.729   5.522   2.691 -0.3566  1.0132  2.2890
  180SAPS   C2820594   0.605   5.341   2.724  0.1803  0.4723  0.0330
  180SAPS   H8R20595   0.560   5.266   2.658  2.5162 -2.8557  1.9574
  180SAPS   C2920596   0.608   5.313   2.858 -0.1079 -0.2427 -0.9177
  180SAPS   H9R20597   0.597   5.208   2.887 -0.4690 -0.0353 -0.2839
  180SAPS  C21020598   0.651   5.405   2.970  0.0516 -0.0426  0.4483
  180SAPS  H10R20599   0.681   5.505   2.932 -0.3896 -0.3899 -0.8678
  180SAPS  H10S20600   0.744   5.363   3.013  1.4191 -2.5999 -4.2807
  180SAPS  C21120601   0.530   5.423   3.048  0.4596 -0.1388  0.0533
  180SAPS  H11R20602   0.459   5.487   2.993 -0.6753 -1.1176  0.3358
  180SAPS  C21220603   0.488   5.370   3.158  0.4732  0.5813 -0.8942
  180SAPS  H12R20604   0.389   5.400   3.194  0.1733  1.4835 -2.4097
  180SAPS  C21320605   0.554   5.270   3.247 -0.3957  0.7538  0.7860
  180SAPS  H13R20606   0.652   5.321   3.266 -0.9223  1.4608  1.7025
  180SAPS  H13S20607   0.572   5.178   3.188  2.0564  1.6386  0.0208
  180SAPS  C21420608   0.474   5.238   3.372 -0.6270  0.4435 -0.0957
  180SAPS  H14R20609   0.395   5.163   3.359 -3.1063  2.7675  0.6283
  180SAPS  C21520610   0.496   5.293   3.490 -0.3688 -0.7232  0.1567
  180SAPS  H15R20611   0.431   5.264   3.574 -1.8997  1.4513 -0.1778
  180SAPS  C21620612   0.584   5.409   3.526 -0.3691  0.0892  0.1263
  180SAPS  H16R20613   0.691   5.381   3.529 -0.2227  0.4149 -1.2880
  180SAPS  H16S20614   0.555   5.446   3.627 -1.3571  2.3023 -0.9020
  180SAPS  C21720615   0.561   5.533   3.441  0.5852 -0.6639 -0.4685
  180SAPS  H17R20616   0.452   5.548   3.432  0.2947 -1.5652  1.1349
  180SAPS  H17S20617   0.613   5.532   3.343 -1.4525  2.6722 -1.7092
  180SAPS  C21820618   0.621   5.660   3.510  0.5501  0.2608  0.2853
  180SAPS  H18R20619   0.728   5.638   3.531  0.1244 -1.0062  1.2580
  180SAPS  H18S20620   0.573   5.661   3.610 -0.6112 -0.8940 -0.2405
  180SAPS  C21920621   0.610   5.783   3.417 -0.8928 -0.5917  0.1953
  180SAPS  H19R20622   0.504   5.791   3.383 -0.9663  1.1783  0.7615
  180SAPS  H19S20623   0.682   5.762   3.336 -1.4127  4.2482 -1.8394
  180SAPS  C22020624   0.658   5.918   3.472  0.6725  0.1497 -0.6517
  180SAPS  H20R20625   0.668   5.992   3.390 -0.5798  2.0138  0.7812
  180SAPS  H20S20626   0.591   5.964   3.548  0.4556 -1.8680  0.4408
  180SAPS  H20T20627   0.755   5.890   3.519 -1.3959 -4.8460  1.3720
  180SAPS   C3320628   0.695   6.545   2.893  0.2231 -0.0903 -0.0661
  180SAPS   H3X20629   0.611   6.577   2.828  1.1628  2.3105 -0.2159
  180SAPS   H3Y20630   0.772   6.624   2.910  0.9536 -0.6097 -0.9228
  180SAPS   C3420631   0.628   6.527   3.029  0.2062  0.0142  0.3580
  180SAPS   H4X20632   0.703   6.472   3.090  3.2631  2.0744 -1.2378
  180SAPS   H4Y20633   0.533   6.470   3.018  0.0567 -0.4029  3.1520
  180SAPS   C3520634   0.594   6.662   3.089  0.2701  0.1694  0.3297
  180SAPS   H5X20635   0.527   6.718   3.020  0.1420  2.9011  2.4960
  180SAPS   H5Y20636   0.679   6.731   3.108 -0.1991  1.1274 -0.9559
  180SAPS   C3620637   0.522   6.638   3.221 -0.3507 -0.1973 -0.0387
  180SAPS   H6X20638   0.589   6.579   3.287 -0.4703  2.2563  2.5015
  180SAPS   H6Y20639   0.435   6.572   3.200  0.7218 -0.9937 -2.2536
  180SAPS   C3720640   0.470   6.767   3.285 -0.0568  0.0178  0.1969
  180SAPS   H7X20641   0.402   6.823   3.218 -1.6894 -1.1759  0.7811
  180SAPS   H7Y20642   0.548   6.844   3.297 -0.5241  1.2289 -3.3705
  180SAPS   C3820643   0.397   6.744   3.412 -0.5106  0.2853 -0.1299
  180SAPS   H8X20644   0.315   6.671   3.398 -0.7319  0.4549  0.2596
  180SAPS   H8Y20645   0.344   6.834   3.449 -1.8644 -0.9213  0.9686
  180SAPS   C3920646   0.492   6.689   3.525  0.4261  0.2018  0.3386
  180SAPS   H9X20647   0.556   6.776   3.549  2.4029 -0.8641 -0.8125
  180SAPS   H9Y20648   0.553   6.600   3.499  0.7427  0.6607 -0.5335
  180SAPS  C31020649   0.403   6.650   3.646 -0.3524  0.1286  0.8140
  180SAPS  H10X20650   0.317   6.582   3.632 -2.3250  2.1412  2.4689
  180SAPS  H10Y20651   0.364   6.744   3.689 -1.4356 -0.2265  0.6235
  180SAPS  C31120652   0.482   6.597   3.765 -0.4454  0.9133 -0.4954
  180SAPS  H11X20653   0.566   6.666   3.791  3.3749 -3.4905  0.1188
  180SAPS  H11Y20654   0.523   6.502   3.725  0.2612  2.1742 -3.0089
  180SAPS  C31220655   0.390   6.580   3.887  0.3138 -0.1406  0.2067
  180SAPS  H12X20656   0.316   6.504   3.854  1.4341 -0.9249 -0.5703
  180SAPS  H12Y20657   0.340   6.675   3.918  2.0885  1.2425 -0.9675
  180SAPS  C31320658   0.462   6.512   4.013 -0.5416 -0.7683  0.5285
  180SAPS  H13X20659   0.535   6.585   4.056 -0.5891  1.2165 -2.4045
  180SAPS  H13Y20660   0.534   6.433   3.984 -0.2543 -1.6057  3.3053
  180SAPS  C31420661   0.360   6.462   4.106  0.1642  0.2318  0.1648
  180SAPS  H14X20662   0.319   6.362   4.082  0.4152 -0.2880  1.7846
  180SAPS  H14Y20663   0.269   6.525   4.101  0.6813  1.0839  1.0439
  180SAPS  C31520664   0.396   6.451   4.259  0.3154  0.6640  0.3288
  180SAPS  H15X20665   0.319   6.397   4.317  1.2373  0.1375  1.0854
  180SAPS  H15Y20666   0.417   6.554   4.296  1.2726 -0.0935  1.9640
  180SAPS  C31620667   0.536   6.385   4.288  0.1016 -0.9060 -0.1841
  180SAPS  H16X20668   0.616   6.442   4.235 -0.3628 -0.0589  0.0077
  180SAPS  H16Y20669   0.533   6.283   4.245  2.4208 -0.2427 -2.2148
  180SAPS  C31720670   0.574   6.392   4.437  0.3521  0.3560  0.2266
  180SAPS  H17X20671   0.491   6.354   4.500  2.9834 -0.4447  3.4844
  180SAPS  H17Y20672   0.585   6.496   4.476 -0.1661  0.6076 -0.2706
  180SAPS  C31820673   0.708   6.326   4.478  0.0052 -0.3198 -0.8378
  180SAPS  H18X20674   0.721   6.223   4.438 -2.7691 -1.1613  0.1716
  180SAPS  H18Y20675   0.716   6.320   4.588 -1.4602 -0.4019 -0.7136
  180SAPS  H18Z20676   0.792   6.387   4.439  1.6708 -0.8664  1.6760
  181POPC     N20677   3.259   6.416   6.486 -0.3990  0.5279  0.3611
  181POPC   C1220678   3.346   6.541   6.482  0.2577 -0.4597  0.1684
  181POPC  H12A20679   3.433   6.531   6.419  1.1622 -4.9979  1.7497
  181POPC  H12B20680   3.384   6.565   6.580 -3.0519 -1.6700  1.9146
  181POPC   C1320681   3.333   6.310   6.568  0.2843 -0.5716 -0.4905
  181POPC  H13A20682   3.329   6.334   6.674  0.2471  0.4111 -0.7053
  181POPC  H13B20683   3.304   6.208   6.548 -0.5693 -0.6235  0.8725
  181POPC  H13C20684   3.438   6.308   6.543  0.6056  1.7604  0.3653
  181POPC   C1420685   3.122   6.445   6.541 -0.2242 -0.0258  0.2575
  181POPC  H14A20686   3.129   6.493   6.637 -1.0969  1.7702 -0.5258
  181POPC  H14B20687   3.075   6.523   6.483  2.2389 -0.3044 -2.3292
  181POPC  H14C20688   3.055   6.361   6.547 -1.4410  0.9818  1.2909
  181POPC   C1520689   3.243   6.355   6.345 -0.6876 -0.3282  0.1496
  181POPC  H15A20690   3.207   6.434   6.281  2.2842  0.8116 -0.2370
  181POPC  H15B20691   3.176   6.270   6.348  0.2843 -1.1680 -1.1499
  181POPC  H15C20692   3.340   6.318   6.315 -1.7124 -2.0977 -1.2500
  181POPC   C1120693   3.276   6.666   6.418  0.4435 -0.2010 -0.0795
  181POPC  H11A20694   3.188   6.694   6.479  1.4287  1.1712  0.7717
  181POPC  H11B20695   3.238   6.650   6.315  0.5931  2.7991 -0.7026
  181POPC     P20696   3.343   6.920   6.409  0.1231  0.0817  0.2253
  181POPC   O1320697   3.464   6.996   6.386 -0.5120  0.1151 -0.0798
  181POPC   O1420698   3.257   6.961   6.526  0.6211  0.2557  0.5706
  181POPC   O1220699   3.376   6.770   6.423  0.3328  0.8429  0.0874
  181POPC   O1120700   3.258   6.919   6.276 -0.1035 -0.3508  0.8555
  181POPC    C120701   3.179   7.037   6.244  0.4623  0.2474 -0.4751
  181POPC    HA20702   3.194   7.120   6.317 -1.4770  1.4531 -1.3655
  181POPC    HB20703   3.070   7.019   6.257  0.4572  0.6431  0.0714
  181POPC    C220704   3.218   7.107   6.117 -0.7944 -0.3954 -0.3105
  181POPC    HS20705   3.167   7.206   6.114 -1.9004 -0.9686 -1.6861
  181POPC   O2120706   3.177   7.030   5.998 -0.2016  0.1309  0.3968
  181POPC   C2120707   3.044   7.031   5.977 -0.3961  0.3204 -0.2745
  181POPC   O2220708   2.965   7.099   6.039 -0.2576 -0.1695  0.2130
  181POPC   C2220709   3.011   6.939   5.860  0.3718  0.6286  0.2714
  181POPC   H2R20710   2.922   6.877   5.885 -0.2209  0.6012 -1.7661
  181POPC   H2S20711   3.100   6.874   5.841  1.3226  1.7098  0.8918
  181POPC    C320712   3.376   7.142   6.103  0.2958  0.1537  0.7580
  181POPC    HX20713   3.440   7.051   6.102  0.4794  0.2758 -0.9239
  181POPC    HY20714   3.389   7.210   6.189  1.2122  3.5342 -1.8381
  181POPC   O3120715   3.401   7.224   5.979  0.3335 -0.0912 -0.0167
  181POPC   C3120716   3.528   7.251   5.966 -0.6020  0.1773  0.4880
  181POPC   O3220717   3.611   7.229   6.050  0.6585  0.0985  0.1910
  181POPC   C3220718   3.559   7.318   5.834 -0.6997  0.4268  0.7338
  181POPC   H2X20719   3.559   7.428   5.850  0.5486  0.4932  0.4211
  181POPC   H2Y20720   3.487   7.290   5.755  0.2006  1.7945 -0.6268
  181POPC   C2320721   2.954   7.012   5.740 -0.6559  0.2932 -0.4837
  181POPC   H3R20722   2.902   7.106   5.769 -1.8291 -0.5940  0.3805
  181POPC   H3S20723   2.875   6.949   5.693  0.1092 -0.6256 -0.5676
  181POPC   C2420724   3.041   7.051   5.620  0.0171 -0.5889 -0.1611
  181POPC   H4R20725   3.134   7.094   5.662  0.8305 -2.3155 -0.0730
  181POPC   H4S20726   2.989   7.126   5.558  2.2843  1.6436  0.4530
  181POPC   C2520727   3.065   6.927   5.537 -0.0594 -0.0941 -0.5598
  181POPC   H5R20728   3.078   6.835   5.598 -1.1841  1.2721  1.8643
  181POPC   H5S20729   3.158   6.934   5.478  1.5303 -1.4075  1.6360
  181POPC   C2620730   2.946   6.892   5.443  0.8985 -0.4276 -0.7100
  181POPC   H6R20731   2.937   6.962   5.358 -1.1885  0.2405  0.0008
  181POPC   H6S20732   2.855   6.903   5.506  0.5132 -2.4900 -0.8089
  181POPC   C2720733   2.955   6.747   5.393 -0.2603  0.3028  0.2866
  181POPC   H7R20734   2.952   6.672   5.475 -1.1742  1.1073  1.0062
  181POPC   H7S20735   3.048   6.746   5.333  0.0554  1.8866  0.7157
  181POPC   C2820736   2.829   6.729   5.308 -0.6534  0.8953  0.2004
  181POPC   H8R20737   2.838   6.816   5.239  1.8977  2.0841  1.8446
  181POPC   H8S20738   2.736   6.743   5.366  0.4237 -1.2438  2.6519
  181POPC   C2920739   2.814   6.602   5.221 -0.5438  0.4130  0.3800
  181POPC   H9120740   2.870   6.598   5.126  0.3888 -1.7903  0.9335
  181POPC  C21020741   2.778   6.479   5.265 -0.4377 -0.3297  0.1253
  181POPC  H10120742   2.768   6.393   5.197 -1.1733  0.7666 -1.2191
  181POPC  C21120743   2.709   6.464   5.399 -1.1681 -0.5388 -0.6494
  181POPC  H11R20744   2.666   6.557   5.442  2.3642  0.6009  0.8229
  181POPC  H11S20745   2.784   6.434   5.475 -3.2645  0.3812  1.9120
  181POPC  C21220746   2.598   6.361   5.395 -0.4122  1.1415  0.8121
  181POPC  H12R20747   2.622   6.268   5.339 -2.7471  0.5923  0.6278
  181POPC  H12S20748   2.515   6.409   5.340 -0.3304  0.2906 -0.0959
  181POPC  C21320749   2.565   6.312   5.531 -0.2737 -0.4690 -0.1610
  181POPC  H13R20750   2.526   6.399   5.588 -0.5544 -0.2746 -0.6503
  181POPC  H13S20751   2.652   6.285   5.595 -0.1841 -0.1956 -0.1660
  181POPC  C21420752   2.453   6.207   5.539 -0.5165 -0.1587  0.6182
  181POPC  H14R20753   2.416   6.208   5.434 -0.7174  1.4306  0.6795
  181POPC  H14S20754   2.370   6.244   5.603 -1.1582 -1.6200  0.6887
  181POPC  C21520755   2.491   6.062   5.577  0.4210 -0.8054 -0.0561
  181POPC  H15R20756   2.518   6.063   5.684 -0.9434  2.0231  0.3597
  181POPC  H15S20757   2.574   6.037   5.507  0.2534  0.2982 -0.6862
  181POPC  C21620758   2.375   5.956   5.556 -0.2199  0.0247  0.3112
  181POPC  H16R20759   2.285   6.009   5.595 -1.1565  0.4530 -2.2482
  181POPC  H16S20760   2.394   5.870   5.625  0.7564  1.1100  1.4474
  181POPC  C21720761   2.366   5.911   5.411  0.0483  0.5376 -0.8028
  181POPC  H17R20762   2.450   5.841   5.391 -2.1769 -1.8821 -2.1350
  181POPC  H17S20763   2.390   5.997   5.344  1.9761  0.5443 -0.1789
  181POPC  C21820764   2.229   5.830   5.385 -0.4575 -0.6794  0.2822
  181POPC  H18R20765   2.234   5.778   5.287  0.8348 -2.0221  1.0275
  181POPC  H18S20766   2.145   5.903   5.389 -0.8447 -1.1752  3.0245
  181POPC  H18T20767   2.222   5.763   5.473 -1.2243  0.6295  1.2634
  181POPC   C3320768   3.696   7.266   5.777 -0.1019 -0.1233 -0.1628
  181POPC   H3X20769   3.696   7.156   5.767 -0.3355 -0.2207  0.7757
  181POPC   H3Y20770   3.769   7.296   5.856  1.8880  1.1218 -2.3237
  181POPC   C3420771   3.732   7.331   5.648 -0.0159  0.8557  0.5206
  181POPC   H4X20772   3.758   7.440   5.644  2.8641  0.2358 -0.6706
  181POPC   H4Y20773   3.654   7.296   5.578  0.2377 -0.9014  1.0784
  181POPC   C3520774   3.857   7.257   5.596 -0.3376  0.5402  0.9049
  181POPC   H5X20775   3.828   7.153   5.570  0.8970  0.3776  0.1272
  181POPC   H5Y20776   3.928   7.250   5.681  0.2182  0.5491  0.4433
  181POPC   C3620777   3.935   7.306   5.473  0.2144 -0.8405 -0.0585
  181POPC   H6X20778   3.946   7.416   5.478 -1.7905 -0.4086 -2.6650
  181POPC   H6Y20779   3.863   7.302   5.388 -1.6731  1.4846  1.3216
  181POPC   C3720780   4.073   7.232   5.444  0.4074 -0.4922  0.2161
  181POPC   H7X20781   4.145   7.249   5.527  2.9224  0.4935 -2.0238
  181POPC   H7Y20782   4.117   7.301   5.369 -1.6288  1.5535  0.7948
  181POPC   C3820783   4.055   7.083   5.398  0.2198 -0.0680 -0.2470
  181POPC   H8X20784   3.983   7.095   5.315  2.0056  3.1619 -1.5067
  181POPC   H8Y20785   4.007   7.034   5.485 -3.4493  0.6269 -1.6989
  181POPC   C3920786   4.175   7.014   5.340  0.5036 -0.0059 -0.8704
  181POPC   H9X20787   4.177   6.906   5.368 -1.1284 -0.1517 -1.2590
  181POPC   H9Y20788   4.268   7.049   5.391  0.8775 -0.6099 -1.1163
  181POPC  C31020789   4.203   7.024   5.184 -0.0984 -0.3495  0.1329
  181POPC  H10X20790   4.300   6.973   5.165  0.3799  0.1860  1.0469
  181POPC  H10Y20791   4.228   7.124   5.142  2.0849 -1.7807 -2.2603
  181POPC  C31120792   4.094   6.963   5.098  0.4789  0.3589  0.6724
  181POPC  H11X20793   4.006   7.031   5.103 -1.1194 -1.4958 -0.7894
  181POPC  H11Y20794   4.052   6.874   5.149 -0.4863 -0.3068 -1.1987
  181POPC  C31220795   4.125   6.933   4.951  0.3372 -0.8960  0.7272
  181POPC  H12X20796   4.200   6.853   4.937  0.5700 -0.6637  0.6299
  181POPC  H12Y20797   4.161   7.022   4.894 -1.7210 -0.1590  0.4955
  181POPC  C31320798   3.996   6.886   4.883  0.5687  0.1233  0.7204
  181POPC  H13X20799   3.926   6.970   4.902  0.9914  0.1220  2.4596
  181POPC  H13Y20800   3.952   6.803   4.943  1.8183 -0.4087  0.9224
  181POPC  C31420801   4.007   6.842   4.737  0.0127  0.5353 -0.6034
  181POPC  H14X20802   3.928   6.767   4.714  0.9469 -2.2974  4.0693
  181POPC  H14Y20803   4.100   6.784   4.724 -1.2197 -1.4073 -1.1607
  181POPC  C31520804   3.998   6.957   4.636  0.3699  0.2974  0.1025
  181POPC  H15X20805   4.091   7.015   4.651 -0.2337  0.9759  1.4077
  181POPC  H15Y20806   3.901   7.010   4.649 -0.1733  0.3670 -3.3503
  181POPC  C31620807   3.987   6.906   4.493  0.7735 -0.1649 -0.0894
  181POPC  H16X20808   4.067   6.830   4.478  0.2570 -1.4330  2.8228
  181POPC  H16Y20809   3.999   6.985   4.416  2.3381  0.5275  0.8117
  181POPC  H16Z20810   3.889   6.858   4.473 -0.1093  2.1577 -1.6988
  182POPC     N20811   0.602   5.352   6.699  0.6899 -0.1239  0.1808
  182POPC   C1220812   0.709   5.388   6.597 -0.0975 -0.4033  0.5206
  182POPC  H12A20813   0.780   5.306   6.600 -0.5416 -0.7766  1.2713
  182POPC  H12B20814   0.759   5.476   6.634  0.9727 -0.1001 -1.5194
  182POPC   C1320815   0.513   5.472   6.721 -0.1634 -0.2219 -0.3668
  182POPC  H13A20816   0.432   5.455   6.791 -0.5587  0.6938 -0.5833
  182POPC  H13B20817   0.564   5.565   6.740 -0.1947  0.1251 -1.8667
  182POPC  H13C20818   0.470   5.488   6.623  0.2267  0.1739 -0.4782
  182POPC   C1420819   0.513   5.240   6.658 -0.2587  0.6257  0.0301
  182POPC  H14A20820   0.439   5.277   6.589 -1.8957  0.0876  1.4131
  182POPC  H14B20821   0.572   5.156   6.624 -4.4684 -1.8400 -1.9619
  182POPC  H14C20822   0.459   5.207   6.746 -0.5449  3.1543  0.8834
  182POPC   C1520823   0.670   5.304   6.827  0.4610 -0.2483  0.4028
  182POPC  H15A20824   0.600   5.296   6.909 -0.7010 -0.8276 -0.6228
  182POPC  H15B20825   0.741   5.381   6.855  0.7487 -0.1387 -0.5798
  182POPC  H15C20826   0.727   5.214   6.810 -1.4808 -1.1504 -1.8170
  182POPC   C1120827   0.657   5.414   6.457  0.4675 -0.2541 -0.5772
  182POPC  H11A20828   0.595   5.331   6.415 -1.7264  0.4935  0.9759
  182POPC  H11B20829   0.746   5.418   6.391  0.2425  0.0913 -0.8636
  182POPC     P20830   0.651   5.669   6.401 -0.0762  0.2531 -0.1420
  182POPC   O1320831   0.771   5.698   6.484 -0.1484 -0.5898 -0.0573
  182POPC   O1420832   0.549   5.776   6.389 -0.6961  0.1985  0.2172
  182POPC   O1220833   0.580   5.534   6.445  0.4162 -0.0558  0.0151
  182POPC   O1120834   0.706   5.647   6.259  0.0247 -0.2168 -0.1098
  182POPC    C120835   0.627   5.681   6.138 -0.4688  0.2119  0.0465
  182POPC    HA20836   0.698   5.693   6.053  0.6693 -0.9546  0.7878
  182POPC    HB20837   0.563   5.771   6.151  0.2653  1.4885 -3.8456
  182POPC    C220838   0.531   5.570   6.096 -0.4536 -0.1162 -0.0499
  182POPC    HS20839   0.466   5.556   6.185  1.7615  0.5013  1.7830
  182POPC   O2120840   0.609   5.448   6.086 -0.5297 -0.5745 -0.6215
  182POPC   C2120841   0.547   5.332   6.108 -0.2688  0.0577 -0.2624
  182POPC   O2220842   0.425   5.325   6.122 -0.1481  0.7906  0.0427
  182POPC   C2220843   0.653   5.214   6.107 -0.0932  0.2622  0.0897
  182POPC   H2R20844   0.654   5.173   6.210 -0.3907  0.6929  0.2669
  182POPC   H2S20845   0.746   5.266   6.074 -1.0256  1.4280 -0.8028
  182POPC    C320846   0.449   5.597   5.961  0.3126  0.1603 -0.4235
  182POPC    HX20847   0.391   5.688   5.989  2.4019  1.0335  1.3383
  182POPC    HY20848   0.380   5.511   5.953 -1.7956  1.6352  0.8076
  182POPC   O3120849   0.522   5.606   5.837 -0.0939  0.1950 -0.4790
  182POPC   C3120850   0.490   5.710   5.755  0.0639  0.2289  0.0360
  182POPC   O3220851   0.418   5.802   5.785 -0.5313 -0.3624  0.0525
  182POPC   C3220852   0.567   5.693   5.630 -0.6658 -0.6053  0.4452
  182POPC   H2X20853   0.531   5.599   5.584  0.9374  0.1010 -2.5281
  182POPC   H2Y20854   0.677   5.688   5.650 -0.1423  1.2366 -1.5906
  182POPC   C2320855   0.630   5.105   6.000  0.4850  0.7653 -0.3529
  182POPC   H3R20856   0.532   5.053   6.012  0.5404 -0.7224 -4.6700
  182POPC   H3S20857   0.711   5.035   6.031  0.0844  0.4850  0.0779
  182POPC   C2420858   0.646   5.151   5.853 -0.2502 -0.2762  0.2209
  182POPC   H4R20859   0.675   5.052   5.813  1.8923  0.8957 -1.3300
  182POPC   H4S20860   0.732   5.218   5.834 -0.5557  0.1323  0.2659
  182POPC   C2520861   0.524   5.213   5.783 -0.7133  0.0452  0.3818
  182POPC   H5R20862   0.499   5.318   5.807 -2.5076 -0.3877  0.5480
  182POPC   H5S20863   0.435   5.148   5.800 -2.1581  1.3768 -1.6030
  182POPC   C2620864   0.546   5.208   5.628 -0.2712  0.4135 -0.5074
  182POPC   H6R20865   0.582   5.106   5.602  1.9022  1.3925 -1.5787
  182POPC   H6S20866   0.622   5.284   5.601 -1.2969  2.3590  1.6934
  182POPC   C2720867   0.424   5.249   5.547 -1.0402 -0.0322 -0.4517
  182POPC   H7R20868   0.422   5.360   5.541 -1.2782 -0.0048  0.0717
  182POPC   H7S20869   0.333   5.228   5.608  0.6335 -0.4825  2.0205
  182POPC   C2820870   0.429   5.202   5.399  0.0308  0.8370 -0.5291
  182POPC   H8R20871   0.347   5.248   5.341 -1.4478 -0.8785  0.1000
  182POPC   H8S20872   0.401   5.095   5.410  0.4263  0.9754  3.4622
  182POPC   C2920873   0.559   5.224   5.324 -0.0581  0.0542 -0.1187
  182POPC   H9120874   0.631   5.142   5.343 -1.4963 -0.7402  2.3418
  182POPC  C21020875   0.581   5.320   5.230  0.4332 -0.7613  0.6224
  182POPC  H10120876   0.676   5.318   5.174  0.3727  2.1650  0.2658
  182POPC  C21120877   0.495   5.446   5.212  0.0124 -0.1220 -0.2124
  182POPC  H11R20878   0.569   5.528   5.216  0.1578 -0.0988 -2.2248
  182POPC  H11S20879   0.412   5.446   5.285 -0.9208 -1.8976 -1.1922
  182POPC  C21220880   0.433   5.452   5.070  0.0668  0.3222  0.4460
  182POPC  H12R20881   0.511   5.453   4.991 -0.7434  0.7752 -0.3719
  182POPC  H12S20882   0.379   5.549   5.070  0.8384  0.7662 -0.3859
  182POPC  C21320883   0.325   5.347   5.041 -0.1555 -0.3266 -0.3010
  182POPC  H13R20884   0.229   5.380   5.085 -1.1072 -0.6135 -2.0382
  182POPC  H13S20885   0.349   5.250   5.089  0.9201 -0.2648 -0.6762
  182POPC  C21420886   0.303   5.306   4.893 -0.4098 -0.4577 -0.8782
  182POPC  H14R20887   0.303   5.397   4.829 -0.0351 -0.3670 -0.7507
  182POPC  H14S20888   0.207   5.251   4.904  1.6182 -3.9021  1.9365
  182POPC  C21520889   0.405   5.216   4.836  0.2907  0.0197  0.6554
  182POPC  H15R20890   0.427   5.126   4.897  0.7626 -0.5715 -0.3583
  182POPC  H15S20891   0.509   5.255   4.824  0.6882 -1.3182 -0.4904
  182POPC  C21620892   0.360   5.177   4.698  0.1924 -0.5419 -0.1497
  182POPC  H16R20893   0.353   5.266   4.633  2.0166 -0.8002 -0.7723
  182POPC  H16S20894   0.261   5.128   4.709  0.1058 -0.2928  0.2033
  182POPC  C21720895   0.462   5.086   4.627 -0.4244  0.7254  0.2952
  182POPC  H17R20896   0.460   4.978   4.652 -1.5668  0.2463 -1.7136
  182POPC  H17S20897   0.567   5.111   4.655  1.0705 -2.5935 -1.7375
  182POPC  C21820898   0.474   5.099   4.468 -0.4208 -0.1833 -0.3163
  182POPC  H18R20899   0.371   5.102   4.428 -1.6040 -4.5426  1.7815
  182POPC  H18S20900   0.511   5.002   4.429  1.6747  1.3936 -2.5633
  182POPC  H18T20901   0.533   5.190   4.443 -1.6678  0.6878 -0.1741
  182POPC   C3320902   0.533   5.804   5.531  1.2462  0.5915  0.3466
  182POPC   H3X20903   0.570   5.901   5.569  0.3640  0.1743  2.4006
  182POPC   H3Y20904   0.426   5.831   5.516  1.7049  1.9610 -0.5972
  182POPC   C3420905   0.577   5.754   5.392 -0.2967 -0.1085  0.1936
  182POPC   H4X20906   0.515   5.813   5.322 -1.6971 -0.9992  0.6270
  182POPC   H4Y20907   0.534   5.652   5.390 -3.2417  1.0235  0.6684
  182POPC   C3520908   0.724   5.778   5.353 -0.6653 -0.8219 -0.1229
  182POPC   H5X20909   0.784   5.696   5.399  1.2496 -0.8320 -2.4493
  182POPC   H5Y20910   0.763   5.875   5.391 -1.2002 -0.3452 -0.7684
  182POPC   C3620911   0.757   5.778   5.206  0.1478 -0.2545 -0.2974
  182POPC   H6X20912   0.690   5.850   5.153 -1.3871 -1.6507 -0.3496
  182POPC   H6Y20913   0.731   5.674   5.176  1.7426 -1.3664  1.9319
  182POPC   C3720914   0.905   5.793   5.161  0.4638  0.1299  0.2597
  182POPC   H7X20915   0.959   5.715   5.220  0.4996 -0.0216  0.0313
  182POPC   H7Y20916   0.938   5.893   5.195  2.1100  0.1673 -1.2826
  182POPC   C3820917   0.921   5.775   5.009 -0.0971  0.0929  0.6320
  182POPC   H8X20918   0.878   5.866   4.962  0.0113 -0.4141 -0.4633
  182POPC   H8Y20919   0.857   5.689   4.980  0.3071  0.0700 -0.2019
  182POPC   C3920920   1.065   5.763   4.957 -0.7312 -0.2999  0.2642
  182POPC   H9X20921   1.120   5.714   5.041  1.0462  1.0008 -0.0718
  182POPC   H9Y20922   1.111   5.864   4.949  1.5336 -1.2926  0.0198
  182POPC  C31020923   1.071   5.686   4.828  0.4022 -0.7290  0.0219
  182POPC  H10X20924   0.991   5.612   4.807 -0.4155  0.0449  0.3391
  182POPC  H10Y20925   1.158   5.617   4.834  1.1245  0.1256 -0.3800
  182POPC  C31120926   1.094   5.775   4.703 -0.1833 -0.2444  0.2880
  182POPC  H11X20927   1.165   5.859   4.716 -0.3975  0.0544 -0.4327
  182POPC  H11Y20928   1.000   5.820   4.665  0.5977  0.1688 -1.1874
  182POPC  C31220929   1.161   5.696   4.587  0.4212 -0.1003  0.3457
  182POPC  H12X20930   1.268   5.689   4.617  0.7834 -0.8312 -1.0544
  182POPC  H12Y20931   1.174   5.760   4.497 -2.7487  1.1288  0.6119
  182POPC  C31320932   1.098   5.569   4.542 -0.4004 -0.3642  0.1096
  182POPC  H13X20933   0.999   5.587   4.493  0.2560 -1.1330 -1.6047
  182POPC  H13Y20934   1.103   5.497   4.626 -0.0845  0.3613  0.7172
  182POPC  C31420935   1.188   5.498   4.433  0.4501 -0.7295  0.7460
  182POPC  H14X20936   1.292   5.485   4.468 -0.2999 -1.6055  2.8466
  182POPC  H14Y20937   1.188   5.564   4.344  1.4985  0.5850  1.6904
  182POPC  C31520938   1.147   5.357   4.376  0.2903 -0.3025 -0.1108
  182POPC  H15X20939   1.201   5.336   4.281 -0.7436  2.1688 -1.3392
  182POPC  H15Y20940   1.043   5.371   4.341 -0.4240 -0.5622  1.7613
  182POPC  C31620941   1.163   5.245   4.477 -0.0768 -0.3878  0.3590
  182POPC  H16X20942   1.128   5.146   4.441  2.7855 -1.3993  0.0810
  182POPC  H16Y20943   1.114   5.277   4.571 -0.5702 -0.9481  0.2972
  182POPC  H16Z20944   1.270   5.240   4.505  0.5606  0.3523 -1.7683
  183POPC     N20945   0.568   3.649   6.959 -0.1079  0.8252  0.7494
  183POPC   C1220946   0.718   3.660   6.925 -0.0251  0.1355  0.9858
  183POPC  H12A20947   0.762   3.566   6.956 -1.0667 -0.2721  1.2489
  183POPC  H12B20948   0.759   3.743   6.981 -1.1140  0.9918  0.5557
  183POPC   C1320949   0.506   3.528   6.894 -0.3207  0.0542 -0.0762
  183POPC  H13A20950   0.398   3.525   6.903 -0.6280 -0.5150 -2.9350
  183POPC  H13B20951   0.537   3.526   6.790  0.8614 -0.6899  0.2802
  183POPC  H13C20952   0.540   3.440   6.945 -2.2307 -0.4558  0.3874
  183POPC   C1420953   0.537   3.635   7.110 -0.7902 -0.3059 -0.6289
  183POPC  H14A20954   0.585   3.554   7.163 -1.0134 -2.8876 -4.0450
  183POPC  H14B20955   0.560   3.725   7.165 -2.6127 -1.3543  2.0568
  183POPC  H14C20956   0.431   3.627   7.130 -0.3200 -0.3226  2.2036
  183POPC   C1520957   0.493   3.767   6.909  0.4684 -0.8026 -0.5919
  183POPC  H15A20958   0.521   3.858   6.960 -2.4216  0.0662 -0.3553
  183POPC  H15B20959   0.388   3.753   6.930 -0.0317  0.4807 -2.1130
  183POPC  H15C20960   0.509   3.780   6.803  1.0812  0.4297 -0.3637
  183POPC   C1120961   0.755   3.698   6.771 -0.7788  1.1963  0.6134
  183POPC  H11A20962   0.866   3.701   6.781 -0.5703 -2.5648  1.1387
  183POPC  H11B20963   0.722   3.801   6.749 -1.8089  0.6420 -0.5068
  183POPC     P20964   0.792   3.450   6.681  0.2763 -0.2500  0.0466
  183POPC   O1320965   0.695   3.342   6.706 -0.3841  0.4583  0.1193
  183POPC   O1420966   0.914   3.455   6.762 -0.2987  0.1069  0.3824
  183POPC   O1220967   0.716   3.598   6.675 -0.0646 -0.5518 -0.6910
  183POPC   O1120968   0.839   3.428   6.530 -0.0431 -0.1992 -0.9455
  183POPC    C120969   0.898   3.524   6.445 -0.6405  0.6229 -1.6769
  183POPC    HA20970   1.004   3.535   6.477 -0.7772 -0.2215 -0.8821
  183POPC    HB20971   0.846   3.622   6.457 -2.1322 -0.3581  0.7438
  183POPC    C220972   0.907   3.486   6.296  0.0303  0.1983 -0.3143
  183POPC    HS20973   0.925   3.583   6.245 -1.8569 -1.1804 -3.9483
  183POPC   O2120974   0.787   3.422   6.254  0.1755 -0.1936  0.1467
  183POPC   C2120975   0.688   3.510   6.221 -0.0890  0.9697  0.1565
  183POPC   O2220976   0.697   3.632   6.231 -0.0141  0.3545 -0.6440
  183POPC   C2220977   0.584   3.434   6.137  0.0659 -0.0241 -0.9656
  183POPC   H2R20978   0.499   3.499   6.109 -0.3354  0.3020  0.8550
  183POPC   H2S20979   0.546   3.345   6.191 -1.3380  0.5979 -0.8931
  183POPC    C320980   1.018   3.392   6.262 -0.6074  0.3614  0.2382
  183POPC    HX20981   0.996   3.287   6.293 -0.5467  0.4157  0.4653
  183POPC    HY20982   1.108   3.421   6.319 -0.4006  1.2896 -0.5421
  183POPC   O3120983   1.046   3.400   6.120  0.4139 -0.1156 -0.5288
  183POPC   C3120984   1.133   3.499   6.075  0.3146 -0.0300 -0.8572
  183POPC   O3220985   1.180   3.584   6.145  0.1747 -0.5194  0.2190
  183POPC   C3220986   1.163   3.470   5.930 -0.7289 -0.5490  0.1013
  183POPC   H2X20987   1.083   3.519   5.870 -0.0810  1.3150  0.7036
  183POPC   H2Y20988   1.143   3.362   5.914  0.9103 -1.1262  1.6702
  183POPC   C2320989   0.659   3.375   6.013  0.4605  0.3689  0.2069
  183POPC   H3R20990   0.590   3.303   5.963  0.5324  0.1209  0.4616
  183POPC   H3S20991   0.747   3.314   6.043 -0.9597 -1.4793  0.8345
  183POPC   C2420992   0.706   3.479   5.906 -0.0907 -0.6739 -0.3683
  183POPC   H4R20993   0.772   3.549   5.962  1.0806 -1.3115 -0.9323
  183POPC   H4S20994   0.619   3.532   5.860 -0.6860  0.8331  2.2742
  183POPC   C2520995   0.792   3.417   5.800 -0.4485 -0.9509 -0.0029
  183POPC   H5R20996   0.718   3.355   5.744 -1.9340  0.4847  0.3042
  183POPC   H5S20997   0.880   3.365   5.843  1.1960  0.9517 -0.8924
  183POPC   C2620998   0.850   3.518   5.699 -0.3207  0.2621  0.2139
  183POPC   H6R20999   0.919   3.590   5.747 -0.3673  0.9869 -0.7774
  183POPC   H6S21000   0.777   3.590   5.655  1.2658  1.7029 -0.1647
  183POPC   C2721001   0.920   3.433   5.590  0.3095  0.7189  0.4170
  183POPC   H7R21002   0.844   3.371   5.539  2.2012  0.9171 -2.9801
  183POPC   H7S21003   0.988   3.362   5.642 -1.3291 -0.1337  1.4898
  183POPC   C2821004   0.985   3.519   5.476  0.1836  1.2532 -0.2002
  183POPC   H8R21005   1.073   3.554   5.534  0.1190 -1.1109  1.5049
  183POPC   H8S21006   0.926   3.608   5.446 -0.9102  0.6438  0.0620
  183POPC   C2921007   1.037   3.439   5.364  0.4777  0.1467  1.4090
  183POPC   H9121008   1.139   3.401   5.376  0.8734  0.6861 -0.0930
  183POPC  C21021009   0.974   3.421   5.246  0.6824 -0.0938  1.0486
  183POPC  H10121010   1.016   3.348   5.175 -1.1443  0.1589 -0.3673
  183POPC  C21121011   0.842   3.475   5.206  0.3205  0.3280 -0.2075
  183POPC  H11R21012   0.840   3.576   5.251  4.1618  0.7199 -0.5568
  183POPC  H11S21013   0.754   3.412   5.228 -1.2519  2.1351 -1.0460
  183POPC  C21221014   0.852   3.511   5.055 -0.0384 -0.4309 -0.5166
  183POPC  H12R21015   0.942   3.572   5.031  0.0489  1.3510  3.4996
  183POPC  H12S21016   0.774   3.578   5.013  1.6635  0.9089 -1.6499
  183POPC  C21321017   0.854   3.393   4.966 -0.0888 -0.5252 -0.7985
  183POPC  H13R21018   0.774   3.321   4.995 -0.5108  0.6576  1.1807
  183POPC  H13S21019   0.941   3.327   4.982 -1.2471 -2.4263 -2.0028
  183POPC  C21421020   0.853   3.431   4.819  0.2167  0.1065 -0.4771
  183POPC  H14R21021   0.953   3.466   4.784  1.1470  1.1665  2.9149
  183POPC  H14S21022   0.771   3.506   4.807 -1.5197 -1.5738  0.4142
  183POPC  C21521023   0.811   3.305   4.742 -0.2359  0.1638 -0.1481
  183POPC  H15R21024   0.704   3.279   4.748 -0.1646 -0.6179 -1.7194
  183POPC  H15S21025   0.874   3.227   4.790  0.3561  1.5951  1.5053
  183POPC  C21621026   0.851   3.299   4.597 -0.1403 -0.4162 -0.2644
  183POPC  H16R21027   0.953   3.339   4.580 -0.7928  1.5931  0.3723
  183POPC  H16S21028   0.777   3.369   4.553  0.6114  2.4089  2.6172
  183POPC  C21721029   0.822   3.162   4.542 -0.2761  0.0830  0.2889
  183POPC  H17R21030   0.717   3.130   4.552  0.2812 -1.5384  1.3161
  183POPC  H17S21031   0.873   3.087   4.606 -0.0151 -0.9503 -1.0821
  183POPC  C21821032   0.879   3.133   4.395 -0.0065 -0.0297 -0.9324
  183POPC  H18R21033   0.988   3.154   4.391 -0.2432  1.0151 -3.0271
  183POPC  H18S21034   0.834   3.198   4.317 -2.0530 -0.7346 -0.4152
  183POPC  H18T21035   0.873   3.027   4.362  0.7849  0.1228 -1.5723
  183POPC   C3321036   1.305   3.517   5.897 -0.3217  0.2114  0.4418
  183POPC   H3X21037   1.382   3.482   5.969 -0.3219  1.2159  0.9393
  183POPC   H3Y21038   1.321   3.626   5.912  2.6440  0.2317 -1.8138
  183POPC   C3421039   1.330   3.479   5.747  0.4363  0.6744 -0.0548
  183POPC   H4X21040   1.247   3.516   5.683 -0.0932  0.8894  0.7329
  183POPC   H4Y21041   1.335   3.368   5.750 -3.3325  0.3344 -0.7912
  183POPC   C3521042   1.458   3.534   5.690 -0.0751 -0.4622 -0.5247
  183POPC   H5X21043   1.543   3.492   5.748 -0.1018 -0.3320 -0.3894
  183POPC   H5Y21044   1.453   3.644   5.705 -0.9880 -0.6305  0.6217
  183POPC   C3621045   1.498   3.485   5.552 -0.2859 -1.0214  0.7326
  183POPC   H6X21046   1.461   3.380   5.546  0.5393 -1.5388  3.1830
  183POPC   H6Y21047   1.607   3.476   5.530 -0.4232  0.1687 -0.4990
  183POPC   C3721048   1.446   3.582   5.447  0.1383 -1.1512  1.2913
  183POPC   H7X21049   1.480   3.686   5.467 -1.7321 -0.0262 -0.9488
  183POPC   H7Y21050   1.335   3.581   5.455  0.0098  1.9512  0.8430
  183POPC   C3821051   1.484   3.551   5.297  0.1422 -0.3495 -0.2318
  183POPC   H8X21052   1.591   3.523   5.299  1.1142  2.9583  1.0630
  183POPC   H8Y21053   1.487   3.650   5.246  1.3684  0.2584  0.9429
  183POPC   C3921054   1.393   3.444   5.244  0.0072 -0.7523  0.1242
  183POPC   H9X21055   1.298   3.488   5.209  0.1784  2.1586  2.8313
  183POPC   H9Y21056   1.371   3.366   5.320 -0.7874 -0.5738  0.0797
  183POPC  C31021057   1.458   3.352   5.140  0.5677  0.1824  0.1270
  183POPC  H10X21058   1.404   3.256   5.139  2.0531 -0.6870  0.5555
  183POPC  H10Y21059   1.556   3.315   5.176 -0.7293 -0.8409  2.8200
  183POPC  C31121060   1.481   3.411   4.990 -0.5479 -0.5536 -0.2001
  183POPC  H11X21061   1.540   3.503   5.009 -0.4293 -0.6084 -0.3053
  183POPC  H11Y21062   1.380   3.436   4.949  0.6160  0.5798 -2.5762
  183POPC  C31221063   1.558   3.310   4.901 -0.4864 -0.1176  0.8552
  183POPC  H12X21064   1.494   3.219   4.893 -2.4148  1.3328 -2.1323
  183POPC  H12Y21065   1.653   3.304   4.957 -0.7056  5.2915  2.3055
  183POPC  C31321066   1.589   3.379   4.762  0.1791  0.0756 -0.6219
  183POPC  H13X21067   1.694   3.350   4.742  0.2295 -0.5091  0.3994
  183POPC  H13Y21068   1.592   3.485   4.793  0.8524  0.0040 -0.4332
  183POPC  C31421069   1.489   3.359   4.649 -0.0043 -0.2742  0.6609
  183POPC  H14X21070   1.396   3.351   4.710  0.2379 -1.5236  0.8777
  183POPC  H14Y21071   1.509   3.264   4.595  3.0510  0.4417  0.3601
  183POPC  C31521072   1.487   3.473   4.551  0.1448  0.4232  0.1423
  183POPC  H15X21073   1.503   3.434   4.448  2.0010  1.0365  0.1539
  183POPC  H15Y21074   1.589   3.518   4.561  0.7236 -0.7517 -0.2349
  183POPC  C31621075   1.381   3.584   4.553 -0.3015 -0.3667 -0.4165
  183POPC  H16X21076   1.281   3.548   4.583  0.6599 -1.6537  1.4514
  183POPC  H16Y21077   1.398   3.632   4.454  0.5356 -1.5811 -0.8794
  183POPC  H16Z21078   1.418   3.659   4.627  0.1427  1.6150 -2.5040
  184POPC     N21079   2.470   3.138   6.636 -0.0475 -0.3592  0.2197
  184POPC   C1221080   2.459   3.265   6.548  0.9287  0.5282  0.0557
  184POPC  H12A21081   2.432   3.351   6.608 -1.9627  0.6437 -1.2546
  184POPC  H12B21082   2.370   3.246   6.489  0.9862  0.7481 -0.1027
  184POPC   C1321083   2.581   3.156   6.734 -0.5814 -0.1854  0.0982
  184POPC  H13A21084   2.676   3.161   6.682  0.5621  0.6025  2.1435
  184POPC  H13B21085   2.564   3.239   6.800 -2.2430 -0.6956  0.3602
  184POPC  H13C21086   2.586   3.064   6.791 -0.1706  0.9946  2.0202
  184POPC   C1421087   2.345   3.110   6.705 -0.1823  0.2960 -0.3400
  184POPC  H14A21088   2.346   3.014   6.755 -0.0210  0.5539  0.1519
  184POPC  H14B21089   2.322   3.188   6.776 -0.8238 -0.8997  0.8199
  184POPC  H14C21090   2.262   3.097   6.637  0.1301 -2.2303 -0.3419
  184POPC   C1521091   2.500   3.031   6.543  0.3037 -0.3553 -0.0938
  184POPC  H15A21092   2.423   3.012   6.470 -1.4456 -2.2165  2.0974
  184POPC  H15B21093   2.504   2.937   6.597  0.9195 -0.2968 -0.0249
  184POPC  H15C21094   2.597   3.037   6.494 -0.1213  0.0470 -0.9074
  184POPC   C1121095   2.573   3.307   6.457 -0.0214  0.4979  0.7430
  184POPC  H11A21096   2.538   3.401   6.411 -0.2565  0.5348  0.9943
  184POPC  H11B21097   2.567   3.226   6.381 -0.6662  1.5234 -0.3220
  184POPC     P21098   2.742   3.453   6.581  0.2579  0.2016  0.1307
  184POPC   O1321099   2.820   3.435   6.701 -0.5021 -0.9804 -0.2181
  184POPC   O1421100   2.621   3.534   6.602  0.1927  0.2202 -0.7966
  184POPC   O1221101   2.694   3.315   6.526  0.1281  0.3800 -0.2274
  184POPC   O1121102   2.831   3.513   6.460 -0.1573 -0.4755 -0.0465
  184POPC    C121103   2.799   3.519   6.323 -0.5236  0.3144 -0.5870
  184POPC    HA21104   2.862   3.600   6.281  2.3808 -0.7889  1.3776
  184POPC    HB21105   2.694   3.538   6.293 -0.3639  0.1391 -1.2780
  184POPC    C221106   2.850   3.399   6.243 -0.2629  0.4433 -0.3108
  184POPC    HS21107   2.806   3.306   6.284  0.1413 -0.4295 -1.7774
  184POPC   O2121108   2.997   3.398   6.247  0.0822 -0.5093 -0.0422
  184POPC   C2121109   3.055   3.284   6.210 -0.0172  0.3897 -0.7978
  184POPC   O2221110   2.991   3.180   6.186  0.1112 -0.1793 -0.1368
  184POPC   C2221111   3.207   3.295   6.193  0.1245 -0.2539 -0.2753
  184POPC   H2R21112   3.262   3.264   6.284 -0.2511 -0.7035 -0.1985
  184POPC   H2S21113   3.222   3.402   6.165  0.5197 -0.0236  0.7908
  184POPC    C321114   2.800   3.417   6.093  0.0848  0.1303 -0.2050
  184POPC    HX21115   2.808   3.314   6.053  0.8205 -0.7297  1.9930
  184POPC    HY21116   2.873   3.480   6.037  1.1853 -2.0509 -1.3584
  184POPC   O3121117   2.663   3.467   6.078 -0.4656 -0.1953 -0.4530
  184POPC   C3121118   2.557   3.380   6.078 -0.2699  0.4990 -0.3698
  184POPC   O3221119   2.569   3.255   6.074 -0.7132 -0.1812  0.3758
  184POPC   C3221120   2.418   3.445   6.098 -0.2359  0.0336  0.7099
  184POPC   H2X21121   2.436   3.552   6.073  2.8366  0.3135  3.5342
  184POPC   H2Y21122   2.383   3.415   6.199  1.1256 -1.5602  0.7388
  184POPC   C2321123   3.236   3.210   6.075 -0.4563 -0.3918  0.4271
  184POPC   H3R21124   3.178   3.239   5.985  0.1714  2.8146  0.9078
  184POPC   H3S21125   3.224   3.103   6.100 -3.4551 -0.0378  0.8656
  184POPC   C2421126   3.383   3.221   6.042 -0.2927  0.7154 -0.3711
  184POPC   H4R21127   3.415   3.127   5.993  1.0676  0.7455  0.4152
  184POPC   H4S21128   3.445   3.233   6.134 -2.4373 -0.4502  1.3093
  184POPC   C2521129   3.415   3.344   5.958 -0.2065  0.4015 -0.2848
  184POPC   H5R21130   3.386   3.436   6.012 -2.7956 -1.1868  1.2425
  184POPC   H5S21131   3.337   3.348   5.879 -0.7179  0.0612  0.1977
  184POPC   C2621132   3.561   3.343   5.906 -0.2402 -0.2470  0.0856
  184POPC   H6R21133   3.637   3.334   5.987 -0.4361  0.5857  0.3779
  184POPC   H6S21134   3.578   3.433   5.842  1.8341 -1.3903 -1.0638
  184POPC   C2721135   3.605   3.233   5.810 -0.5350  0.3163 -0.2188
  184POPC   H7R21136   3.611   3.138   5.866 -2.9727  1.0259  1.4071
  184POPC   H7S21137   3.703   3.257   5.764  0.5265 -1.7236  0.8733
  184POPC   C2821138   3.509   3.211   5.694 -0.3874  0.0161  0.0666
  184POPC   H8R21139   3.506   3.291   5.617 -0.0812 -0.3924 -0.3752
  184POPC   H8S21140   3.410   3.194   5.742  0.1528 -2.6456  0.4149
  184POPC   C2921141   3.527   3.082   5.616 -0.1498  1.0445  0.6457
  184POPC   H9121142   3.531   2.990   5.675 -0.2362 -1.2580 -2.6375
  184POPC  C21021143   3.555   3.068   5.482 -0.0898 -0.4306 -0.4772
  184POPC  H10121144   3.569   2.968   5.437 -1.3014 -0.0155 -1.8966
  184POPC  C21121145   3.532   3.170   5.380 -0.2129  0.2140  0.1820
  184POPC  H11R21146   3.473   3.255   5.424  1.0652  0.6674  1.0894
  184POPC  H11S21147   3.468   3.123   5.303  2.0819 -0.4234 -1.4215
  184POPC  C21221148   3.657   3.231   5.318 -0.0674 -0.2324  0.1529
  184POPC  H12R21149   3.719   3.151   5.271  0.5317  0.1171  0.3417
  184POPC  H12S21150   3.724   3.275   5.394  2.5785 -0.1106 -2.0733
  184POPC  C21321151   3.623   3.351   5.223  0.2099  0.3168  0.2885
  184POPC  H13R21152   3.556   3.322   5.139  2.8382 -2.3581 -1.1085
  184POPC  H13S21153   3.711   3.390   5.167  1.8776 -0.5792  2.1520
  184POPC  C21421154   3.569   3.476   5.300  0.2972 -0.3548  1.0312
  184POPC  H14R21155   3.469   3.453   5.342 -0.6110 -1.0582 -1.3502
  184POPC  H14S21156   3.546   3.554   5.225 -0.2742 -0.5934  0.9545
  184POPC  C21521157   3.652   3.530   5.411 -0.1880 -0.1635 -0.3348
  184POPC  H15R21158   3.759   3.542   5.384  0.0827  1.8198  1.3893
  184POPC  H15S21159   3.656   3.451   5.489  2.1810 -0.2700 -0.4925
  184POPC  C21621160   3.585   3.650   5.488  0.5350  0.1504  0.6935
  184POPC  H16R21161   3.496   3.602   5.535  0.2339 -0.2417 -0.2619
  184POPC  H16S21162   3.565   3.730   5.414 -1.0756 -2.5979 -2.0873
  184POPC  C21721163   3.688   3.710   5.588 -0.2709 -0.0217  0.2865
  184POPC  H17R21164   3.776   3.731   5.523 -0.0574 -0.2434  0.5024
  184POPC  H17S21165   3.708   3.621   5.650  2.2861 -1.2050 -2.0397
  184POPC  C21821166   3.630   3.826   5.672  0.0193 -0.4556  0.8440
  184POPC  H18R21167   3.611   3.916   5.610  2.1815  0.0792  0.8567
  184POPC  H18S21168   3.704   3.855   5.750  0.1210  1.6509  0.0246
  184POPC  H18T21169   3.539   3.781   5.716  1.8951 -2.3423  3.0753
  184POPC   C3321170   2.311   3.388   6.008  0.2175 -0.4589  0.3820
  184POPC   H3X21171   2.210   3.422   6.040 -0.4767 -1.1712 -0.9803
  184POPC   H3Y21172   2.302   3.278   6.018  0.9493 -0.7795 -1.8961
  184POPC   C3421173   2.318   3.426   5.860 -0.7602  0.5092 -0.2669
  184POPC   H4X21174   2.404   3.377   5.809 -0.3257  2.8710 -1.9524
  184POPC   H4Y21175   2.342   3.531   5.834 -0.7867  0.4716 -0.4441
  184POPC   C3521176   2.194   3.382   5.779 -0.1967  0.1434  0.7232
  184POPC   H5X21177   2.120   3.463   5.787  0.8826  0.9896  2.8773
  184POPC   H5Y21178   2.163   3.285   5.824 -2.3826  0.1963 -0.5614
  184POPC   C3621179   2.239   3.355   5.636  0.0332 -0.8117  0.1240
  184POPC   H6X21180   2.328   3.289   5.631  2.2229  1.9498  0.3671
  184POPC   H6Y21181   2.272   3.450   5.591  0.7209 -1.3928 -0.6238
  184POPC   C3721182   2.124   3.273   5.569 -0.4875 -0.5739  0.0995
  184POPC   H7X21183   2.024   3.321   5.559 -1.3045 -2.2214  0.0177
  184POPC   H7Y21184   2.108   3.189   5.640 -0.5758  0.4673  1.3526
  184POPC   C3821185   2.171   3.215   5.439 -0.0931 -0.0201  0.0705
  184POPC   H8X21186   2.257   3.146   5.454  1.4964  1.8959  0.1824
  184POPC   H8Y21187   2.216   3.296   5.377 -0.5591 -0.5254 -0.9609
  184POPC   C3921188   2.067   3.141   5.355 -1.1542 -0.0555  0.6494
  184POPC   H9X21189   1.970   3.194   5.363 -1.4210 -0.5682  0.8153
  184POPC   H9Y21190   2.055   3.039   5.396 -0.4868 -0.7195 -0.7714
  184POPC  C31021191   2.101   3.122   5.203 -0.1659  0.2071 -0.4996
  184POPC  H10X21192   2.072   3.019   5.175 -2.3491  1.0435 -1.5537
  184POPC  H10Y21193   2.211   3.126   5.216 -0.4792  3.8648  3.4205
  184POPC  C31121194   2.054   3.238   5.107 -0.9143  0.0298  0.6956
  184POPC  H11X21195   2.063   3.342   5.145  0.1698  0.7899 -1.5098
  184POPC  H11Y21196   1.947   3.218   5.084  0.0159 -2.8632 -1.6408
  184POPC  C31221197   2.138   3.238   4.976 -0.4241  0.6260  0.4223
  184POPC  H12X21198   2.244   3.225   5.008 -0.4387  0.8916  0.5778
  184POPC  H12Y21199   2.133   3.329   4.912  0.7963  0.2423 -0.2616
  184POPC  C31321200   2.105   3.120   4.890 -0.2904 -0.2352 -0.3863
  184POPC  H13X21201   2.081   3.030   4.951  0.9208  0.6105  1.4374
  184POPC  H13Y21202   2.182   3.081   4.820 -1.5502 -1.8866 -0.9084
  184POPC  C31421203   1.980   3.151   4.800 -0.6475  0.0435  0.4059
  184POPC  H14X21204   1.997   3.246   4.743 -1.5732  0.5693  0.9809
  184POPC  H14Y21205   1.893   3.171   4.865 -0.7771 -0.3869  0.3630
  184POPC  C31521206   1.937   3.032   4.708 -0.0009  0.0920 -0.7613
  184POPC  H15X21207   1.934   2.944   4.776 -0.7356  0.8594  0.2254
  184POPC  H15Y21208   2.020   3.015   4.636  1.5314  0.8392  0.7726
  184POPC  C31621209   1.810   3.046   4.631 -0.4473 -0.1445 -0.0542
  184POPC  H16X21210   1.777   2.953   4.579 -2.1709 -0.5784  1.7009
  184POPC  H16Y21211   1.825   3.123   4.552 -3.2377 -0.2800 -0.8245
  184POPC  H16Z21212   1.722   3.075   4.692 -0.3098 -1.7521  0.9622
  185POPC     N21213   3.298   0.480   1.877  0.6987  0.3555 -0.5346
  185POPC   C1221214   3.310   0.474   2.022 -0.1960 -0.5503  0.1678
  185POPC  H12A21215   3.376   0.393   2.052 -2.3903 -1.8993  1.6378
  185POPC  H12B21216   3.213   0.464   2.068 -0.6647  0.4161 -0.5697
  185POPC   C1321217   3.432   0.463   1.802 -0.8534  0.2659  0.0248
  185POPC  H13A21218   3.490   0.374   1.824 -2.1453 -0.2565  1.5369
  185POPC  H13B21219   3.405   0.444   1.699 -1.9973 -1.7566  0.6435
  185POPC  H13C21220   3.505   0.541   1.820 -1.6785  0.5555  2.3977
  185POPC   C1421221   3.215   0.364   1.824 -0.6606 -0.1820  0.2001
  185POPC  H14A21222   3.197   0.389   1.721 -0.6151  0.2590  0.2963
  185POPC  H14B21223   3.276   0.276   1.815 -1.2325 -0.5100 -0.5604
  185POPC  H14C21224   3.117   0.355   1.870 -0.1037  3.3879  2.4640
  185POPC   C1521225   3.236   0.603   1.821  0.6102 -0.0431  0.1022
  185POPC  H15A21226   3.194   0.599   1.722  1.7478  0.5917 -0.4262
  185POPC  H15B21227   3.300   0.690   1.817  2.3353 -1.2848 -3.3705
  185POPC  H15C21228   3.154   0.629   1.887  0.1374  1.2374 -0.9456
  185POPC   C1121229   3.358   0.605   2.095 -0.0113  0.3893 -0.2228
  185POPC  H11A21230   3.372   0.560   2.196  0.2038 -1.7044 -1.1389
  185POPC  H11B21231   3.270   0.673   2.102 -0.6309 -0.4887  0.9351
  185POPC     P21232   3.483   0.817   2.011 -0.3405 -0.4091 -0.0419
  185POPC   O1321233   3.349   0.859   1.979 -0.0638  0.2801 -0.3300
  185POPC   O1421234   3.576   0.826   1.899  0.7644  0.3249 -0.6031
  185POPC   O1221235   3.477   0.666   2.048  0.0290  0.2770 -0.2004
  185POPC   O1121236   3.528   0.886   2.142 -0.1596  0.1073 -0.4210
  185POPC    C121237   3.471   0.858   2.269 -0.0263  0.2822  0.1572
  185POPC    HA21238   3.560   0.847   2.336 -0.6291 -3.5057  0.5592
  185POPC    HB21239   3.420   0.760   2.277 -1.3838  0.8623 -0.9597
  185POPC    C221240   3.397   0.978   2.323  0.1241  0.6870 -0.1804
  185POPC    HS21241   3.416   1.062   2.253 -2.0247  1.8742  0.5602
  185POPC   O2121242   3.455   1.007   2.449 -0.1243 -0.1375 -0.2509
  185POPC   C2121243   3.401   1.113   2.515 -0.3229 -0.2868  0.6396
  185POPC   O2221244   3.319   1.190   2.462 -0.3779  0.4765 -0.5396
  185POPC   C2221245   3.450   1.112   2.663  0.4053 -0.0740  1.0128
  185POPC   H2R21246   3.550   1.065   2.664  0.7105  0.5014 -0.3793
  185POPC   H2S21247   3.377   1.050   2.719 -2.8641  2.3802 -0.1715
  185POPC    C321248   3.243   0.949   2.313 -0.5081 -0.2227 -0.1044
  185POPC    HX21249   3.222   0.931   2.205  1.0980  0.8416 -0.6367
  185POPC    HY21250   3.186   1.040   2.342 -0.4760 -0.6071  1.2259
  185POPC   O3121251   3.203   0.836   2.394 -0.1876  0.0445 -0.0374
  185POPC   C3121252   3.077   0.804   2.399  0.3159 -0.1831 -0.3829
  185POPC   O3221253   2.985   0.867   2.348  0.1283 -0.7492 -0.3773
  185POPC   C3221254   3.065   0.667   2.467  0.6278 -0.3736  0.0199
  185POPC   H2X21255   3.141   0.606   2.414  1.3316  1.0907 -0.6986
  185POPC   H2Y21256   2.967   0.619   2.446  2.6092 -4.2109 -1.4512
  185POPC   C2321257   3.450   1.261   2.705 -0.6149 -0.6374 -0.5223
  185POPC   H3R21258   3.471   1.251   2.814 -1.8841  2.0542  0.0550
  185POPC   H3S21259   3.358   1.321   2.689  0.0315  0.3929 -0.4141
  185POPC   C2421260   3.571   1.329   2.642  0.5203 -0.3669  1.2371
  185POPC   H4R21261   3.558   1.335   2.532 -1.1741 -0.2256  1.4215
  185POPC   H4S21262   3.664   1.273   2.666  0.4171 -1.6656 -1.0630
  185POPC   C2521263   3.608   1.463   2.698 -0.0316 -0.5302 -0.5563
  185POPC   H5R21264   3.524   1.534   2.683 -0.1429 -0.1630  1.5317
  185POPC   H5S21265   3.698   1.501   2.645  0.2636 -0.9968 -0.3957
  185POPC   C2621266   3.652   1.465   2.847  0.5780 -0.1365 -0.0860
  185POPC   H6R21267   3.740   1.398   2.853  2.6550  2.2885 -1.4252
  185POPC   H6S21268   3.576   1.414   2.911 -1.6584 -0.9187 -3.0979
  185POPC   C2721269   3.706   1.597   2.911  0.3808 -0.2178 -0.8577
  185POPC   H7R21270   3.633   1.681   2.912  1.1535  0.4737 -0.7094
  185POPC   H7S21271   3.784   1.625   2.836  1.1326 -0.8930 -0.3427
  185POPC   C2821272   3.777   1.592   3.046 -0.4001 -0.1580 -0.6471
  185POPC   H8R21273   3.812   1.694   3.074 -0.1718 -0.1739 -0.8696
  185POPC   H8S21274   3.872   1.537   3.030  0.4952  0.7290  1.2801
  185POPC   C2921275   3.708   1.537   3.165  1.0968  0.2426  0.5589
  185POPC   H9121276   3.692   1.429   3.158  3.0289 -0.0266 -0.4429
  185POPC  C21021277   3.683   1.604   3.277 -0.3999  0.1221  0.6466
  185POPC  H10121278   3.625   1.545   3.350  1.4587 -1.1744  1.1500
  185POPC  C21121279   3.714   1.746   3.316 -0.4656 -0.8718  0.1668
  185POPC  H11R21280   3.615   1.798   3.316  0.2335  0.8167 -3.5035
  185POPC  H11S21281   3.779   1.803   3.246 -0.3933 -0.9958  0.1325
  185POPC  C21221282   3.764   1.770   3.456  0.0736  0.6277  0.0943
  185POPC  H12R21283   3.793   1.877   3.457 -1.4255  1.1464 -2.2898
  185POPC  H12S21284   3.854   1.709   3.478 -0.2636 -0.6811 -1.8448
  185POPC  C21321285   3.650   1.752   3.559  0.2056 -0.0653  0.3670
  185POPC  H13R21286   3.599   1.654   3.552  0.8174 -0.5675  2.2890
  185POPC  H13S21287   3.574   1.831   3.542 -1.3856 -1.0704  2.3555
  185POPC  C21421288   3.706   1.764   3.704 -1.0587 -0.3464  0.6761
  185POPC  H14R21289   3.807   1.809   3.704 -1.1787 -0.0573 -0.2487
  185POPC  H14S21290   3.728   1.659   3.731 -1.6282 -0.9695 -1.1761
  185POPC  C21521291   3.610   1.833   3.804  0.7176 -0.4823  0.5476
  185POPC  H15R21292   3.512   1.782   3.792  0.8694 -0.6911  0.1708
  185POPC  H15S21293   3.606   1.940   3.774 -1.1414 -0.4216  0.8708
  185POPC  C21621294   3.639   1.815   3.946 -0.6529  0.0924 -0.3212
  185POPC  H16R21295   3.749   1.823   3.956 -0.6462 -1.2201  0.9372
  185POPC  H16S21296   3.609   1.712   3.974 -1.5384  0.5924  0.6498
  185POPC  C21721297   3.557   1.897   4.044 -0.5451 -0.4891  0.3869
  185POPC  H17R21298   3.449   1.915   4.024 -0.2236  1.1078 -0.0845
  185POPC  H17S21299   3.589   2.003   4.032 -0.0611 -0.8335 -1.6103
  185POPC  C21821300   3.576   1.869   4.195 -0.1454  0.4420  0.1856
  185POPC  H18R21301   3.678   1.886   4.236  0.2650 -0.8158 -0.2532
  185POPC  H18S21302   3.557   1.760   4.203 -2.4974  0.8836  1.3265
  185POPC  H18T21303   3.513   1.937   4.256 -1.0119  0.3334 -0.5844
  185POPC   C3321304   3.093   0.662   2.622 -0.6678  0.1482 -0.1894
  185POPC   H3X21305   3.007   0.701   2.680 -0.8317 -0.8817  0.2878
  185POPC   H3Y21306   3.188   0.715   2.645 -1.1301  0.5919  0.7907
  185POPC   C3421307   3.116   0.522   2.672  0.0836  0.5908 -0.3822
  185POPC   H4X21308   3.225   0.508   2.684 -0.0105 -0.1275 -0.2716
  185POPC   H4Y21309   3.088   0.450   2.592 -1.9569 -0.6043  1.2984
  185POPC   C3521310   3.039   0.487   2.797 -0.1243 -0.0664  0.1835
  185POPC   H5X21311   3.049   0.380   2.827  1.7620  0.1794  0.6026
  185POPC   H5Y21312   2.930   0.501   2.784 -0.2427 -0.7273  0.4273
  185POPC   C3621313   3.061   0.569   2.923  0.1406  0.1743  0.1462
  185POPC   H6X21314   3.011   0.665   2.899  0.3178  0.3945  0.6397
  185POPC   H6Y21315   3.168   0.585   2.951  0.3589 -2.4510  1.1632
  185POPC   C3721316   2.999   0.503   3.048 -0.6633 -0.8164 -0.4339
  185POPC   H7X21317   3.025   0.395   3.061 -1.0541 -0.8550  0.0544
  185POPC   H7Y21318   2.888   0.510   3.046 -0.5980  0.2357 -1.3378
  185POPC   C3821319   3.050   0.567   3.173  0.0569  0.4509 -0.6060
  185POPC   H8X21320   3.028   0.675   3.163  0.5603  0.4099 -2.5088
  185POPC   H8Y21321   3.161   0.559   3.175  0.0494 -1.4047 -3.1559
  185POPC   C3921322   2.979   0.523   3.305 -0.0492  0.6654 -0.5162
  185POPC   H9X21323   3.002   0.414   3.310  0.7618  0.8424 -0.2869
  185POPC   H9Y21324   2.870   0.541   3.303 -0.4334 -1.4209 -0.5040
  185POPC  C31021325   3.040   0.595   3.430 -0.2328  0.9369 -0.5020
  185POPC  H10X21326   3.021   0.705   3.430 -1.1465  0.7862 -0.6142
  185POPC  H10Y21327   3.150   0.577   3.434 -0.7452 -2.7691  0.0019
  185POPC  C31121328   2.974   0.538   3.558 -0.5862  0.5683  0.2121
  185POPC  H11X21329   2.987   0.429   3.571 -0.2921  0.3322 -1.7659
  185POPC  H11Y21330   2.867   0.570   3.555 -0.7896 -0.1325 -2.2518
  185POPC  C31221331   3.027   0.598   3.684 -0.8135 -0.2316  0.2967
  185POPC  H12X21332   3.033   0.709   3.687  2.1608 -0.3263  1.6622
  185POPC  H12Y21333   3.130   0.558   3.691 -1.5809 -2.6982 -1.2283
  185POPC  C31321334   2.963   0.546   3.814 -0.2971 -0.7275  0.7631
  185POPC  H13X21335   2.971   0.436   3.813  0.8306 -0.6966 -2.4170
  185POPC  H13Y21336   2.853   0.564   3.815 -0.2609 -0.4658  2.0398
  185POPC  C31421337   3.027   0.597   3.949  0.0974  0.4024  0.2482
  185POPC  H14X21338   3.049   0.705   3.929  0.3309  0.3071 -0.0195
  185POPC  H14Y21339   3.125   0.545   3.950  0.9534  1.7687 -2.2662
  185POPC  C31521340   2.942   0.571   4.070  0.1849 -1.1356 -0.2943
  185POPC  H15X21341   2.986   0.476   4.108  2.9551  0.4623  0.8220
  185POPC  H15Y21342   2.840   0.564   4.028 -0.1617  2.6405 -0.4291
  185POPC  C31621343   2.965   0.687   4.169 -0.1175  0.1417  0.1164
  185POPC  H16X21344   2.878   0.708   4.235  0.3834 -0.5242  1.0189
  185POPC  H16Y21345   2.984   0.782   4.115 -4.0043  0.7797 -0.3682
  185POPC  H16Z21346   3.054   0.669   4.235 -0.6001 -2.6590  0.1401
  186POPC     N21347   0.507   6.139   1.972  0.3309 -0.6184  0.1117
  186POPC   C1221348   0.430   6.035   2.043  0.8779 -0.1225  0.4919
  186POPC  H12A21349   0.409   5.955   1.973 -3.9714 -0.2973  1.7830
  186POPC  H12B21350   0.336   6.076   2.076  1.3338  0.0641  1.5960
  186POPC   C1321351   0.634   6.076   1.913 -0.4416 -0.7319  0.4382
  186POPC  H13A21352   0.699   6.062   1.998  1.5567 -1.7631 -1.1885
  186POPC  H13B21353   0.615   5.984   1.860 -1.5172 -1.2925  1.7400
  186POPC  H13C21354   0.682   6.143   1.844  0.1353 -1.0420  0.5340
  186POPC   C1421355   0.425   6.193   1.844 -0.4003  0.2585 -0.5791
  186POPC  H14A21356   0.500   6.222   1.772  1.8338 -0.7499  1.2015
  186POPC  H14B21357   0.377   6.104   1.806 -0.3012 -1.1791  2.3796
  186POPC  H14C21358   0.353   6.269   1.872 -0.7321 -1.3132  3.6536
  186POPC   C1521359   0.537   6.253   2.067  0.1225  0.1060 -0.6203
  186POPC  H15A21360   0.612   6.316   2.023 -0.6484 -0.2406 -2.5626
  186POPC  H15B21361   0.567   6.213   2.163 -3.9548  0.1246  0.8853
  186POPC  H15C21362   0.454   6.319   2.089 -0.5636 -0.7851 -0.4603
  186POPC   C1121363   0.494   5.967   2.160 -0.0103  0.2839  0.2898
  186POPC  H11A21364   0.423   5.907   2.222 -0.7811  0.0892 -0.7486
  186POPC  H11B21365   0.526   6.042   2.236 -0.7787  0.5121  0.4054
  186POPC     P21366   0.580   5.737   2.067 -0.2224  0.0606  0.4701
  186POPC   O1321367   0.706   5.664   2.075  0.0586  0.1037  0.0581
  186POPC   O1421368   0.524   5.748   1.932  0.5022 -0.2319  0.1144
  186POPC   O1221369   0.604   5.886   2.120  0.3729 -0.3097 -0.7376
  186POPC   O1121370   0.472   5.677   2.161 -0.2650 -0.1009  0.1196
  186POPC    C121371   0.337   5.645   2.129  0.0979 -0.5651 -0.2129
  186POPC    HA21372   0.337   5.580   2.039  1.9166  0.5100 -1.0460
  186POPC    HB21373   0.279   5.735   2.100 -3.0332 -1.8058  1.6774
  186POPC    C221374   0.264   5.581   2.247 -0.4718 -0.2208 -0.4100
  186POPC    HS21375   0.161   5.564   2.208 -0.2329  2.0484 -2.2458
  186POPC   O2121376   0.270   5.661   2.369 -0.0147 -0.0672 -0.6643
  186POPC   C2121377   0.185   5.765   2.374 -0.0361  0.4030 -0.1711
  186POPC   O2221378   0.108   5.799   2.285 -0.0448  0.2081  0.2481
  186POPC   C2221379   0.195   5.829   2.512  0.3186 -0.1588 -0.1067
  186POPC   H2R21380   0.123   5.913   2.519  0.6418  0.2024 -0.9733
  186POPC   H2S21381   0.298   5.873   2.513  1.3419 -2.4246 -0.2383
  186POPC    C321382   0.314   5.443   2.286  0.4812  0.8826 -1.2143
  186POPC    HX21383   0.425   5.439   2.282  0.5709 -0.6537  0.7910
  186POPC    HY21384   0.277   5.375   2.206 -1.2723 -1.0266  1.0495
  186POPC   O3121385   0.259   5.408   2.416 -0.0940  0.0776 -0.1203
  186POPC   C3121386   0.323   5.306   2.477 -0.7265  0.1911  0.0767
  186POPC   O3221387   0.411   5.236   2.422  0.3323 -0.7199  0.2447
  186POPC   C3221388   0.254   5.281   2.621 -0.1128 -1.7704  0.2757
  186POPC   H2X21389   0.146   5.283   2.593 -0.0961  1.4960  0.0566
  186POPC   H2Y21390   0.290   5.369   2.678  0.0280 -1.3987 -0.3691
  186POPC   C2321391   0.164   5.730   2.619  0.4020  0.1648  0.0303
  186POPC   H3R21392   0.201   5.629   2.589 -0.8968 -0.6130  0.9313
  186POPC   H3S21393   0.054   5.713   2.624  0.8633 -3.5113  0.8445
  186POPC   C2421394   0.223   5.773   2.749 -0.2944  0.3238 -0.0007
  186POPC   H4R21395   0.174   5.868   2.780  1.3071  1.9335 -2.0854
  186POPC   H4S21396   0.329   5.800   2.732 -0.3477 -0.1817 -1.2229
  186POPC   C2521397   0.210   5.658   2.850  0.5147  0.6267  0.6197
  186POPC   H5R21398   0.261   5.568   2.810 -4.3572 -2.1979 -0.0869
  186POPC   H5S21399   0.104   5.626   2.856  0.7646 -0.5271 -0.6391
  186POPC   C2621400   0.258   5.709   2.984  0.0070  0.1623 -0.1287
  186POPC   H6R21401   0.357   5.759   2.969 -0.2793  1.0197  0.7199
  186POPC   H6S21402   0.274   5.619   3.047 -0.3086 -0.2800 -0.6721
  186POPC   C2721403   0.161   5.793   3.056 -0.0514 -0.0019 -0.0807
  186POPC   H7R21404   0.064   5.739   3.059  1.1574 -2.3146 -0.3720
  186POPC   H7S21405   0.151   5.892   3.006  0.6912  0.3480  0.4364
  186POPC   C2821406   0.204   5.815   3.209 -0.3820 -0.1607  1.1781
  186POPC   H8R21407   0.302   5.867   3.205  0.3019 -1.2992  2.3826
  186POPC   H8S21408   0.218   5.715   3.255 -0.3206 -0.9858 -0.5511
  186POPC   C2921409   0.107   5.908   3.280 -1.2486  0.4983 -0.5551
  186POPC   H9121410   0.121   6.013   3.249  1.1024  0.1690 -0.7716
  186POPC  C21021411   0.020   5.877   3.376  0.3366 -0.9275 -0.1384
  186POPC  H10121412  -0.044   5.957   3.417  1.7843 -0.2700  0.9219
  186POPC  C21121413  -0.004   5.747   3.443 -0.2882 -0.0468 -0.0493
  186POPC  H11R21414   0.030   5.676   3.365 -0.3470 -2.1249  1.7456
  186POPC  H11S21415  -0.112   5.721   3.450 -0.1484 -0.5390  0.3256
  186POPC  C21221416   0.068   5.741   3.575  0.1974 -0.3515 -0.8027
  186POPC  H12R21417   0.031   5.653   3.633  1.7681 -1.2585 -1.1097
  186POPC  H12S21418   0.044   5.829   3.639  2.4402  1.9073 -2.8274
  186POPC  C21321419   0.218   5.722   3.560  0.2107  0.0464  0.3792
  186POPC  H13R21420   0.255   5.807   3.500 -2.4197  0.2677 -1.0708
  186POPC  H13S21421   0.237   5.628   3.504 -0.9414  0.5921 -0.9834
  186POPC  C21421422   0.292   5.708   3.701  0.5956  0.2126 -0.2247
  186POPC  H14R21423   0.242   5.777   3.772  1.6809  1.4772 -0.6547
  186POPC  H14S21424   0.396   5.744   3.688 -0.1672  1.8243 -2.3087
  186POPC  C21521425   0.300   5.567   3.762  0.2898 -0.1435  0.3005
  186POPC  H15R21426   0.332   5.499   3.681 -0.9627  0.2790 -0.5808
  186POPC  H15S21427   0.195   5.545   3.789  0.0386  2.2188  1.5481
  186POPC  C21621428   0.384   5.566   3.891  0.0131 -0.1556 -0.3334
  186POPC  H16R21429   0.361   5.664   3.936 -2.3261  0.4012 -2.4918
  186POPC  H16S21430   0.489   5.575   3.855 -0.2194 -1.3503 -1.4326
  186POPC  C21721431   0.357   5.450   3.996 -0.0143 -0.3009 -0.1638
  186POPC  H17R21432   0.249   5.462   4.015  0.2928  0.4627  1.2503
  186POPC  H17S21433   0.405   5.499   4.084  3.4018 -0.3084 -1.8231
  186POPC  C21821434   0.413   5.312   3.952 -0.0795  0.0167  0.0337
  186POPC  H18R21435   0.350   5.263   3.875 -1.4317 -1.5480  2.0104
  186POPC  H18S21436   0.519   5.318   3.920 -0.1898 -1.9194 -0.8097
  186POPC  H18T21437   0.396   5.241   4.036  0.5207  0.1811  0.3049
  186POPC   C3321438   0.285   5.141   2.682  0.4253  0.2386 -0.0167
  186POPC   H3X21439   0.396   5.126   2.683  0.9512  3.5128  0.4527
  186POPC   H3Y21440   0.231   5.060   2.628  1.1048 -0.3261  0.1225
  186POPC   C3421441   0.261   5.147   2.832  0.3011  0.4806 -0.6607
  186POPC   H4X21442   0.154   5.172   2.849  1.1648  2.6226  2.3025
  186POPC   H4Y21443   0.314   5.237   2.869 -1.9106  1.2434  0.8144
  186POPC   C3521444   0.301   5.022   2.907  0.1318  0.5074  0.0072
  186POPC   H5X21445   0.408   4.995   2.890  0.0099 -0.4343  0.6552
  186POPC   H5Y21446   0.223   4.952   2.870 -0.4216 -0.1635  2.2532
  186POPC   C3621447   0.268   5.023   3.055  0.7091 -1.1289 -0.3899
  186POPC   H6X21448   0.172   5.074   3.077  1.6438 -0.1963  1.7691
  186POPC   H6Y21449   0.352   5.089   3.083  1.4164 -1.1801 -2.2286
  186POPC   C3721450   0.282   4.890   3.110  0.3485  0.3704 -0.3349
  186POPC   H7X21451   0.378   4.848   3.074 -0.8756 -2.4586 -0.5869
  186POPC   H7Y21452   0.211   4.815   3.069  1.6963 -0.9269 -0.3574
  186POPC   C3821453   0.267   4.891   3.264  0.5191 -0.5415  0.0239
  186POPC   H8X21454   0.164   4.921   3.291 -0.4268 -2.4000 -1.3239
  186POPC   H8Y21455   0.329   4.970   3.311 -0.8729  1.3318 -1.1358
  186POPC   C3921456   0.302   4.757   3.330  0.1885 -0.6456  0.5990
  186POPC   H9X21457   0.379   4.697   3.277 -0.2464 -0.1199 -0.6799
  186POPC   H9Y21458   0.201   4.710   3.329 -0.7609  1.3218 -0.3099
  186POPC  C31021459   0.332   4.766   3.481  0.1814 -0.0329 -0.1509
  186POPC  H10X21460   0.429   4.820   3.495 -0.3889  0.7210  1.0673
  186POPC  H10Y21461   0.335   4.663   3.522 -2.6386  0.2403  0.9876
  186POPC  C31121462   0.213   4.831   3.552  0.0407 -0.1504 -0.3643
  186POPC  H11X21463   0.119   4.773   3.537  0.1558 -1.4924  3.0772
  186POPC  H11Y21464   0.207   4.936   3.515 -0.5787 -0.2965 -0.6982
  186POPC  C31221465   0.221   4.824   3.708  0.6264 -0.0645 -0.1324
  186POPC  H12X21466   0.234   4.716   3.732 -1.4772 -0.6740 -1.4178
  186POPC  H12Y21467   0.117   4.853   3.736  1.5330  1.9021  1.3476
  186POPC  C31321468   0.319   4.929   3.767 -0.4121  0.0667 -0.0193
  186POPC  H13X21469   0.326   5.021   3.705  1.5301  0.8615  1.2737
  186POPC  H13Y21470   0.413   4.870   3.766 -0.2814  0.2652 -1.4625
  186POPC  C31421471   0.274   4.954   3.911  0.7452 -0.4855  0.4076
  186POPC  H14X21472   0.173   5.000   3.901  1.3084  0.4299 -1.5097
  186POPC  H14Y21473   0.344   5.034   3.941 -0.7934  0.8830  0.4525
  186POPC  C31521474   0.298   4.840   4.013  0.1323 -0.0105 -0.1719
  186POPC  H15X21475   0.404   4.807   4.009  0.4864  0.9366  0.9354
  186POPC  H15Y21476   0.231   4.764   3.967  0.4877  0.5123 -1.6015
  186POPC  C31621477   0.249   4.880   4.153  0.2310 -0.7955  0.2164
  186POPC  H16X21478   0.326   4.955   4.182  2.2403 -1.1814 -3.4938
  186POPC  H16Y21479   0.251   4.790   4.219 -1.9768 -0.8206  0.3400
  186POPC  H16Z21480   0.148   4.926   4.161  1.1048  1.2177  0.1038
  187POPC     N21481   4.838   2.456   1.359 -0.2194 -0.1896 -0.0055
  187POPC   C1221482   4.716   2.423   1.448  0.5098  0.1263 -0.3707
  187POPC  H12A21483   4.678   2.326   1.419 -0.6446  0.9516 -1.7807
  187POPC  H12B21484   4.638   2.496   1.433 -1.1860 -1.3866  0.6892
  187POPC   C1321485   4.946   2.357   1.397 -0.3678  0.2450 -0.9855
  187POPC  H13A21486   5.007   2.396   1.477 -0.8182 -0.8166 -0.1023
  187POPC  H13B21487   4.905   2.270   1.445  2.4997 -0.1026  1.0795
  187POPC  H13C21488   5.023   2.327   1.327  1.8707  1.7081  0.6952
  187POPC   C1421489   4.799   2.451   1.213  0.7571 -0.4889  0.1188
  187POPC  H14A21490   4.759   2.353   1.189  0.7555 -0.2405 -0.9338
  187POPC  H14B21491   4.728   2.524   1.178  0.5489 -0.6560  0.1871
  187POPC  H14C21492   4.882   2.460   1.144  0.4850 -1.0727 -0.2906
  187POPC   C1521493   4.902   2.588   1.381 -0.0298 -0.2536  0.5395
  187POPC  H15A21494   4.897   2.618   1.484  0.9435  1.7231  0.0602
  187POPC  H15B21495   4.841   2.665   1.336 -0.0184  0.5784  1.8846
  187POPC  H15C21496   5.001   2.598   1.339 -0.9251  2.0738 -1.2365
  187POPC   C1121497   4.742   2.424   1.599  0.0317  0.3826 -0.4938
  187POPC  H11A21498   4.827   2.358   1.627 -0.6531 -1.8067 -3.2235
  187POPC  H11B21499   4.654   2.375   1.646 -0.3431  1.8706  0.4391
  187POPC     P21500   4.661   2.660   1.664 -0.0710  0.5395  0.0047
  187POPC   O1321501   4.526   2.611   1.629  0.3669  0.1460  0.2850
  187POPC   O1421502   4.705   2.781   1.592  0.0476 -0.5747 -0.3065
  187POPC   O1221503   4.766   2.551   1.655 -0.6055  0.3938 -0.4077
  187POPC   O1121504   4.656   2.685   1.817 -0.1748 -0.6715 -1.0600
  187POPC    C121505   4.763   2.665   1.910 -0.6396  0.2515  0.0942
  187POPC    HA21506   4.742   2.747   1.982 -0.4043  0.4724 -0.0876
  187POPC    HB21507   4.863   2.686   1.867 -1.2118  0.1535 -1.3406
  187POPC    C221508   4.744   2.528   1.990  0.3167 -0.6657  0.1347
  187POPC    HS21509   4.731   2.446   1.916  2.2827 -0.5752 -0.3702
  187POPC   O2121510   4.630   2.537   2.077  0.1204 -0.1951 -0.3957
  187POPC   C2121511   4.575   2.418   2.101  1.3020 -0.3092  0.3279
  187POPC   O2221512   4.603   2.311   2.050 -0.2510  0.0463  0.4678
  187POPC   C2221513   4.479   2.436   2.221 -0.8946 -0.5247 -0.7581
  187POPC   H2R21514   4.420   2.342   2.226  0.4184 -1.3934 -1.0129
  187POPC   H2S21515   4.421   2.529   2.200  0.3988  0.4732 -0.0448
  187POPC    C321516   4.873   2.498   2.077  0.0854  0.6348 -0.1361
  187POPC    HX21517   4.884   2.581   2.150 -1.6404  4.2766 -3.6211
  187POPC    HY21518   4.963   2.510   2.013  0.9458  0.3203  0.9864
  187POPC   O3121519   4.876   2.365   2.133 -0.5914  0.2764  0.4682
  187POPC   C3121520   4.893   2.269   2.039 -0.5044 -0.4750 -0.3914
  187POPC   O3221521   4.932   2.289   1.924  0.5629  0.4011 -0.2549
  187POPC   C3221522   4.853   2.140   2.101 -0.0704  0.9843  0.7859
  187POPC   H2X21523   4.743   2.122   2.096  0.1590 -0.3404 -0.0397
  187POPC   H2Y21524   4.873   2.140   2.210  0.0289  2.5815  0.7832
  187POPC   C2321525   4.565   2.453   2.352 -0.4290  0.3823  0.6141
  187POPC   H3R21526   4.643   2.532   2.336  2.4356 -2.6478 -1.8312
  187POPC   H3S21527   4.610   2.354   2.374  2.6806  1.5450  0.0983
  187POPC   C2421528   4.479   2.497   2.470 -0.2962 -0.4100 -0.2882
  187POPC   H4R21529   4.398   2.570   2.452  0.4981  0.5252 -0.1775
  187POPC   H4S21530   4.546   2.551   2.541 -0.0891  0.0568 -0.8308
  187POPC   C2521531   4.414   2.376   2.538  0.0809  0.0101 -1.5664
  187POPC   H5R21532   4.487   2.320   2.600 -1.3450 -0.6331 -0.3976
  187POPC   H5S21533   4.367   2.306   2.466 -3.3479  1.5684 -1.0279
  187POPC   C2621534   4.301   2.415   2.629  0.2793 -0.0185  0.4535
  187POPC   H6R21535   4.217   2.446   2.563  2.0351  2.4127 -0.7908
  187POPC   H6S21536   4.325   2.503   2.693  2.7149  0.3243 -0.8042
  187POPC   C2721537   4.255   2.292   2.710 -0.5246 -0.0989  0.5796
  187POPC   H7R21538   4.349   2.254   2.755  0.9713  1.6676 -0.8974
  187POPC   H7S21539   4.204   2.218   2.644 -2.2345  1.4658  0.0428
  187POPC   C2821540   4.146   2.327   2.816  1.0430  0.5306 -0.7119
  187POPC   H8R21541   4.198   2.354   2.910 -0.0131 -0.2212  0.1114
  187POPC   H8S21542   4.087   2.236   2.838 -0.6969  2.0943  1.5502
  187POPC   C2921543   4.047   2.446   2.797  0.3351  0.1616 -0.4215
  187POPC   H9121544   4.002   2.450   2.696  0.2981 -0.2776 -0.4232
  187POPC  C21021545   4.008   2.540   2.881  0.0488  0.1189 -0.2833
  187POPC  H10121546   3.935   2.612   2.842 -1.7872 -1.3474  0.2820
  187POPC  C21121547   4.063   2.561   3.017 -0.1437 -0.3260 -0.9729
  187POPC  H11R21548   4.110   2.661   3.021  2.5576 -1.5036  2.9583
  187POPC  H11S21549   4.152   2.498   3.040  0.6498  1.4355  1.2005
  187POPC  C21221550   3.963   2.549   3.135  0.1817  0.5559  0.3219
  187POPC  H12R21551   3.914   2.449   3.139  0.0060  0.6730  1.3423
  187POPC  H12S21552   3.883   2.622   3.114 -1.1413 -1.1998 -1.0467
  187POPC  C21321553   4.012   2.561   3.284  0.3129 -0.0786  0.3137
  187POPC  H13R21554   4.067   2.468   3.311 -1.5726 -1.9249 -1.7998
  187POPC  H13S21555   3.922   2.576   3.348  0.0513 -0.5145  0.0486
  187POPC  C21421556   4.093   2.686   3.314 -0.6857  0.0995  0.8582
  187POPC  H14R21557   4.060   2.772   3.252  0.9163  1.0971  1.2982
  187POPC  H14S21558   4.195   2.673   3.271 -1.5039  1.9601 -1.8715
  187POPC  C21521559   4.096   2.718   3.464  0.8612 -0.3435  0.7385
  187POPC  H15R21560   4.157   2.642   3.517  0.4131 -0.8128  0.5893
  187POPC  H15S21561   4.002   2.693   3.519  0.8920  0.9051  1.3839
  187POPC  C21621562   4.124   2.863   3.500  0.2878  0.3150  0.6149
  187POPC  H16R21563   4.131   2.879   3.609 -2.2198  0.3848  0.8171
  187POPC  H16S21564   4.050   2.933   3.456  0.3708  0.5323  0.8242
  187POPC  C21721565   4.265   2.903   3.459 -0.1467 -0.4924 -0.1432
  187POPC  H17R21566   4.287   3.009   3.485 -1.2771 -0.3829  0.4135
  187POPC  H17S21567   4.279   2.888   3.350 -2.6849 -0.5260 -0.5150
  187POPC  C21821568   4.376   2.830   3.526 -0.2996 -0.1904 -0.0735
  187POPC  H18R21569   4.376   2.720   3.512  4.8081 -0.4295 -0.0606
  187POPC  H18S21570   4.387   2.853   3.635 -1.3299  2.0553 -0.3918
  187POPC  H18T21571   4.470   2.873   3.486 -1.2957 -0.6262 -3.1628
  187POPC   C3321572   4.917   2.022   2.028 -0.0637 -0.0710 -0.0779
  187POPC   H3X21573   4.876   2.022   1.925  0.3463 -2.2389 -0.2786
  187POPC   H3Y21574   4.877   1.923   2.057  0.2020 -0.3001 -0.4674
  187POPC   C3421575   5.075   2.022   2.039 -0.3544  0.7534  0.2889
  187POPC   H4X21576   5.123   2.121   2.022  2.2736 -0.5620 -0.5366
  187POPC   H4Y21577   5.109   1.940   1.971 -1.5048  0.2494  0.3033
  187POPC   C3521578   5.124   1.975   2.175 -0.2687  0.1153  0.8323
  187POPC   H5X21579   5.090   1.869   2.171 -2.2748  0.7292 -2.3205
  187POPC   H5Y21580   5.076   2.038   2.253 -0.2358 -0.0662  0.9998
  187POPC   C3621581   5.274   1.979   2.198 -0.6337  0.0523  0.1918
  187POPC   H6X21582   5.300   2.086   2.215 -1.2624  0.0147  1.5614
  187POPC   H6Y21583   5.326   1.943   2.106 -1.2021 -0.1547 -0.0506
  187POPC   C3721584   5.322   1.891   2.314  0.2708  0.1420 -0.2030
  187POPC   H7X21585   5.432   1.882   2.298  0.6593  0.4853  1.9504
  187POPC   H7Y21586   5.280   1.789   2.301 -0.3083  0.3422  0.0573
  187POPC   C3821587   5.291   1.923   2.463 -0.6098 -0.6145 -0.7389
  187POPC   H8X21588   5.190   1.966   2.472 -0.3379 -0.4339  2.2797
  187POPC   H8Y21589   5.344   2.016   2.492  0.1206  0.7784 -5.5667
  187POPC   C3921590   5.307   1.812   2.557  0.1215 -0.4341 -0.2276
  187POPC   H9X21591   5.397   1.759   2.519 -0.7795  0.2274 -3.6298
  187POPC   H9Y21592   5.230   1.734   2.540 -0.7980  0.1725  1.0007
  187POPC  C31021593   5.303   1.865   2.699  0.7137  0.3503 -0.0047
  187POPC  H10X21594   5.379   1.945   2.710  0.6465  0.2645  1.1634
  187POPC  H10Y21595   5.323   1.778   2.764  0.0839  0.7586  0.7511
  187POPC  C31121596   5.166   1.922   2.732  0.5690 -0.5066  0.6636
  187POPC  H11X21597   5.082   1.865   2.686  1.0954  0.4814 -1.6680
  187POPC  H11Y21598   5.170   2.024   2.689  3.1053 -0.8599 -0.1050
  187POPC  C31221599   5.128   1.935   2.879 -0.3020 -0.3836  0.3393
  187POPC  H12X21600   5.123   1.831   2.918 -3.1059 -0.8484 -0.9918
  187POPC  H12Y21601   5.031   1.986   2.890 -0.5412 -0.9185  0.7456
  187POPC  C31321602   5.235   2.005   2.958 -0.1857 -0.7486 -0.3919
  187POPC  H13X21603   5.262   2.097   2.902 -0.0328 -0.3074  0.3906
  187POPC  H13Y21604   5.335   1.956   2.960 -0.1326 -0.6635  1.9547
  187POPC  C31421605   5.183   2.045   3.095 -0.9236  0.7441  0.2382
  187POPC  H14X21606   5.130   1.959   3.141  0.2362 -1.1818 -1.7665
  187POPC  H14Y21607   5.108   2.126   3.084  0.4550  1.9081 -1.0268
  187POPC  C31521608   5.299   2.071   3.188 -0.4912  0.5340 -0.4641
  187POPC  H15X21609   5.348   2.164   3.151  0.9619 -0.5663 -1.3933
  187POPC  H15Y21610   5.375   1.991   3.180 -0.3113  0.4343  1.5493
  187POPC  C31621611   5.255   2.075   3.331 -0.0633 -0.5869  0.2629
  187POPC  H16X21612   5.188   2.160   3.353 -1.0676 -1.0906 -0.7345
  187POPC  H16Y21613   5.342   2.099   3.396  0.1336  2.3984 -0.9655
  187POPC  H16Z21614   5.207   1.983   3.370 -0.2550 -0.2053  0.9245
  188POPC     N21615   6.076   4.775   1.656  0.2350 -0.0087 -0.0689
  188POPC   C1221616   5.964   4.806   1.756  0.2885  0.6857  0.6817
  188POPC  H12A21617   5.896   4.723   1.767  1.6322 -0.2254  2.6042
  188POPC  H12B21618   5.897   4.878   1.710 -1.3241 -1.4713 -0.5513
  188POPC   C1321619   6.149   4.898   1.619  0.5513  0.1968 -0.2917
  188POPC  H13A21620   6.076   4.962   1.572 -0.1624 -0.8951 -0.7049
  188POPC  H13B21621   6.183   4.951   1.706 -2.0308 -1.1560  1.6643
  188POPC  H13C21622   6.236   4.873   1.559 -0.7019  0.8795 -2.5346
  188POPC   C1421623   6.171   4.677   1.721 -0.6106 -0.2357  0.2527
  188POPC  H14A21624   6.215   4.731   1.804  0.0196  1.5877 -1.2153
  188POPC  H14B21625   6.129   4.591   1.772  1.9514 -0.6213  1.9520
  188POPC  H14C21626   6.248   4.641   1.654 -0.9525  1.5796 -1.1722
  188POPC   C1521627   6.011   4.721   1.528 -1.1741 -0.2505 -0.5916
  188POPC  H15A21628   5.971   4.623   1.545 -1.1667 -0.1765 -0.1300
  188POPC  H15B21629   6.088   4.707   1.453 -2.0256 -2.7912 -1.0779
  188POPC  H15C21630   5.928   4.779   1.490 -0.8089  0.9058  0.2984
  188POPC   C1121631   6.007   4.863   1.900 -0.0360 -0.1714 -0.1498
  188POPC  H11A21632   6.030   4.773   1.960  2.8879  0.3234 -0.3892
  188POPC  H11B21633   5.915   4.911   1.939  0.4537  0.7078 -0.0565
  188POPC     P21634   6.153   5.035   2.024  0.1596  0.2676 -0.0301
  188POPC   O1321635   6.059   5.141   2.044 -0.4901 -0.2712  0.4052
  188POPC   O1421636   6.296   5.080   2.006  0.3864  0.3964  0.1029
  188POPC   O1221637   6.112   4.957   1.892  0.3083  0.1216 -0.1136
  188POPC   O1121638   6.140   4.930   2.145  0.0200  0.1588 -0.0768
  188POPC    C121639   6.014   4.907   2.203  0.8052  0.2622 -0.2910
  188POPC    HA21640   6.010   4.800   2.233 -0.9682  0.4305  0.1892
  188POPC    HB21641   5.923   4.927   2.143  1.0874 -1.2610 -1.3015
  188POPC    C221642   6.000   4.976   2.340  0.2744 -0.8272  0.2913
  188POPC    HS21643   5.982   5.080   2.306  1.2366 -1.1412 -1.2773
  188POPC   O2121644   6.125   4.955   2.417  0.0866 -0.0854  0.2432
  188POPC   C2121645   6.164   5.057   2.481  0.4127 -0.7831  0.1582
  188POPC   O2221646   6.114   5.168   2.473  0.2056 -0.5499 -0.2466
  188POPC   C2221647   6.294   5.021   2.553  0.8735 -0.6219 -0.0916
  188POPC   H2R21648   6.367   5.104   2.540  0.4077 -0.4574 -2.1957
  188POPC   H2S21649   6.337   4.936   2.495  2.1162  1.0556 -1.7800
  188POPC    C321650   5.872   4.936   2.422 -0.7105 -0.0572  0.7314
  188POPC    HX21651   5.788   4.973   2.360 -0.2142  1.8796  1.1316
  188POPC    HY21652   5.870   5.003   2.511 -0.5741 -0.0406  0.7221
  188POPC   O3121653   5.855   4.798   2.461 -0.1829  0.5815 -0.1016
  188POPC   C3121654   5.899   4.774   2.580 -0.4479  0.3661  0.0537
  188POPC   O3221655   5.949   4.855   2.660  0.1467  0.9021  0.0987
  188POPC   C3221656   5.899   4.617   2.596  0.1277 -0.6549  0.3352
  188POPC   H2X21657   5.989   4.575   2.548 -0.6894 -1.4707 -0.5177
  188POPC   H2Y21658   5.805   4.576   2.553 -0.3919 -0.4365  1.2186
  188POPC   C2321659   6.290   4.974   2.704  0.0681 -0.4643 -0.6268
  188POPC   H3R21660   6.388   4.925   2.721  0.5834  1.1644  1.6015
  188POPC   H3S21661   6.204   4.904   2.708 -0.8337  0.6706  1.1903
  188POPC   C2421662   6.259   5.090   2.800 -0.6010 -0.4907  0.4076
  188POPC   H4R21663   6.175   5.150   2.759  0.0867  0.1473 -0.0957
  188POPC   H4S21664   6.347   5.156   2.812 -0.9272  0.2493 -1.0954
  188POPC   C2521665   6.219   5.030   2.937 -0.3728  0.8530  0.1369
  188POPC   H5R21666   6.278   4.936   2.942 -1.9090 -0.2214 -1.1525
  188POPC   H5S21667   6.111   5.007   2.939 -0.3526  0.7258 -0.1258
  188POPC   C2621668   6.259   5.116   3.052  0.5896  1.0466  0.4808
  188POPC   H6R21669   6.227   5.218   3.022  0.8660  0.8111 -0.6910
  188POPC   H6S21670   6.370   5.115   3.060  0.6826 -0.8389 -0.4676
  188POPC   C2721671   6.198   5.089   3.190  0.2371 -0.5596 -0.3286
  188POPC   H7R21672   6.088   5.096   3.202 -0.0504 -3.1891 -0.7194
  188POPC   H7S21673   6.239   5.151   3.272 -0.8220 -0.2169 -0.0470
  188POPC   C2821674   6.229   4.942   3.244  0.4687 -0.0345 -1.0709
  188POPC   H8R21675   6.338   4.931   3.227  0.3925 -2.0498 -0.5767
  188POPC   H8S21676   6.177   4.873   3.174 -0.8319 -0.7880  0.5720
  188POPC   C2921677   6.195   4.912   3.394  0.0353  0.7317  1.1423
  188POPC   H9121678   6.275   4.934   3.466 -0.8817  0.5050  2.2576
  188POPC  C21021679   6.075   4.860   3.432  0.3147  0.4623 -0.0253
  188POPC  H10121680   6.066   4.831   3.538 -1.5797  1.9216  0.2677
  188POPC  C21121681   5.954   4.821   3.348  0.3511  0.2195  0.0625
  188POPC  H11R21682   5.914   4.730   3.399 -1.4005  2.3157  2.6777
  188POPC  H11S21683   5.984   4.785   3.248  2.0568  1.4206  0.0904
  188POPC  C21221684   5.845   4.933   3.332 -0.4512 -0.0631 -0.5483
  188POPC  H12R21685   5.880   5.028   3.287 -0.6469  0.2385 -0.0748
  188POPC  H12S21686   5.812   4.958   3.435  1.4293  0.2860  0.0140
  188POPC  C21321687   5.718   4.879   3.257  0.0565 -0.3261  0.3528
  188POPC  H13R21688   5.687   4.783   3.305  0.4880  0.4540  2.3016
  188POPC  H13S21689   5.754   4.873   3.152 -1.1939  0.3024 -0.1379
  188POPC  C21421690   5.590   4.952   3.262 -0.1493 -0.4863 -0.1198
  188POPC  H14R21691   5.559   4.968   3.367  0.2683 -0.4131 -0.0048
  188POPC  H14S21692   5.520   4.884   3.209  1.4903 -0.8324 -2.0100
  188POPC  C21521693   5.594   5.083   3.180  0.7315  0.7625 -0.6079
  188POPC  H15R21694   5.591   5.054   3.073  3.9318 -0.2911 -0.4899
  188POPC  H15S21695   5.685   5.144   3.200  1.1339 -0.6036  2.1544
  188POPC  C21621696   5.462   5.158   3.202 -0.3547  0.1830  0.7420
  188POPC  H16R21697   5.462   5.198   3.306 -0.8994 -0.2143  0.8998
  188POPC  H16S21698   5.380   5.084   3.205  2.3159 -3.0971 -0.4343
  188POPC  C21721699   5.429   5.262   3.094 -0.0185  0.4883 -0.4290
  188POPC  H17R21700   5.323   5.295   3.087  0.6364  2.4217 -2.9636
  188POPC  H17S21701   5.451   5.210   2.999  1.8971  0.7278 -0.1485
  188POPC  C21821702   5.522   5.391   3.100 -0.3346 -0.2797 -0.4792
  188POPC  H18R21703   5.586   5.419   3.013  2.5890  0.8229  1.8553
  188POPC  H18S21704   5.590   5.370   3.185  0.2675  1.2869 -0.5541
  188POPC  H18T21705   5.458   5.478   3.125 -1.7799 -0.8937 -1.8660
  188POPC   C3321706   5.910   4.571   2.745 -0.0207  0.8435  0.2926
  188POPC   H3X21707   5.998   4.621   2.789  1.6219 -0.7779 -1.0024
  188POPC   H3Y21708   5.943   4.465   2.745  2.0088  1.4453  1.1096
  188POPC   C3421709   5.788   4.609   2.819 -0.8921 -0.5855  0.9078
  188POPC   H4X21710   5.692   4.596   2.764  0.5611 -2.7448 -1.3191
  188POPC   H4Y21711   5.802   4.708   2.867 -0.8582  0.5796 -1.3871
  188POPC   C3521712   5.752   4.512   2.935 -0.0762  0.3671  0.4371
  188POPC   H5X21713   5.704   4.421   2.893  0.8670  0.5857 -1.2045
  188POPC   H5Y21714   5.680   4.568   2.998  0.8067  1.3296  0.6218
  188POPC   C3621715   5.882   4.461   3.010  0.5391 -0.5661  0.2488
  188POPC   H6X21716   5.940   4.553   3.035  0.2798 -0.0548 -0.9862
  188POPC   H6Y21717   5.926   4.398   2.930  1.2115 -0.8122  0.8082
  188POPC   C3721718   5.841   4.393   3.138  0.2835 -0.4549 -0.3349
  188POPC   H7X21719   5.909   4.316   3.178  0.5743 -0.4577 -0.8234
  188POPC   H7Y21720   5.747   4.338   3.119  2.0820 -3.5300 -0.9945
  188POPC   C3821721   5.816   4.478   3.259  0.3470  0.5651  0.4063
  188POPC   H8X21722   5.743   4.555   3.225  1.3275  1.0252 -0.7217
  188POPC   H8Y21723   5.908   4.529   3.294  0.4744 -0.7364  2.1299
  188POPC   C3921724   5.763   4.400   3.377  0.0919  0.5207  0.0598
  188POPC   H9X21725   5.839   4.323   3.400  1.5347  1.6579 -0.7518
  188POPC   H9Y21726   5.668   4.345   3.360 -0.0168  0.3117  1.3030
  188POPC  C31021727   5.747   4.483   3.499 -0.5578 -0.1277 -0.7295
  188POPC  H10X21728   5.843   4.540   3.500 -0.6069 -0.0456 -0.6366
  188POPC  H10Y21729   5.746   4.415   3.587 -1.3931  1.9502  0.9502
  188POPC  C31121730   5.632   4.578   3.511  0.3238  0.2204 -0.5615
  188POPC  H11X21731   5.541   4.531   3.556  0.6796  1.0562  1.0996
  188POPC  H11Y21732   5.597   4.604   3.409 -2.0907  0.5238  0.2770
  188POPC  C31221733   5.655   4.699   3.595 -0.1735  0.0240  0.6113
  188POPC  H12X21734   5.563   4.761   3.599 -0.6389 -0.5436 -0.7606
  188POPC  H12Y21735   5.725   4.755   3.529 -1.2196 -2.3362 -2.7951
  188POPC  C31321736   5.702   4.674   3.738 -0.1629 -0.1107 -0.1149
  188POPC  H13X21737   5.799   4.619   3.735  0.2995  0.6875 -0.0854
  188POPC  H13Y21738   5.625   4.617   3.793 -1.6477  1.3817 -0.5771
  188POPC  C31421739   5.722   4.812   3.809  0.1964  0.1058 -0.2491
  188POPC  H14X21740   5.626   4.867   3.799  1.0552  2.3062  2.3995
  188POPC  H14Y21741   5.796   4.880   3.762 -0.8676  2.1644  0.9000
  188POPC  C31521742   5.760   4.803   3.960  0.2755  0.3064 -1.0702
  188POPC  H15X21743   5.763   4.905   4.005 -1.2841  0.1619 -0.5696
  188POPC  H15Y21744   5.856   4.752   3.983 -0.5930 -0.6612  0.6066
  188POPC  C31621745   5.661   4.715   4.042  0.0157 -0.9960  0.5901
  188POPC  H16X21746   5.675   4.723   4.152 -1.5042 -1.0017  0.8176
  188POPC  H16Y21747   5.677   4.612   4.005  1.8244 -0.7583  0.6112
  188POPC  H16Z21748   5.560   4.747   4.008  0.1842  2.1194  2.6464
  189SAPI   C1221749   2.518   6.022   6.525  0.6880 -0.4874 -0.4185
  189SAPI    H221750   2.535   6.120   6.475 -1.0138 -1.0412 -2.2456
  189SAPI    O221751   2.451   6.031   6.650 -0.1829 -0.4938  0.0389
  189SAPI   HO221752   2.519   6.049   6.716 -0.6113 -2.4762  1.1171
  189SAPI   C1321753   2.442   5.938   6.424 -0.1149 -0.8370  0.3003
  189SAPI    H321754   2.503   5.935   6.332  0.0712  2.2648  0.2120
  189SAPI    O321755   2.316   5.998   6.385 -0.9397  0.0433  0.5494
  189SAPI   HO321756   2.280   6.027   6.469  2.3588 -0.5177  2.3291
  189SAPI   C1421757   2.421   5.798   6.478  0.1134 -0.3714  0.4420
  189SAPI    H421758   2.358   5.802   6.569 -0.7198  0.0836 -0.1395
  189SAPI    O421759   2.366   5.717   6.379 -0.2329  0.2699  0.4510
  189SAPI   HO421760   2.274   5.725   6.405 -0.6174 -0.7571 -0.4735
  189SAPI   C1521761   2.551   5.725   6.529 -0.3277 -0.9053  0.5303
  189SAPI    H521762   2.602   5.693   6.435  1.1807  0.6707  0.7601
  189SAPI    O521763   2.520   5.619   6.618  0.0310 -0.4785 -0.0746
  189SAPI   HO521764   2.475   5.555   6.563  0.6170 -1.5764  0.6871
  189SAPI   C1621765   2.657   5.821   6.589  0.0528 -0.2761 -0.2207
  189SAPI    H621766   2.643   5.815   6.699  0.3926 -0.9009 -0.2075
  189SAPI    O621767   2.794   5.769   6.578  0.3794 -0.1238 -0.1757
  189SAPI   HO621768   2.855   5.842   6.568 -0.1868  0.3872  0.0481
  189SAPI   C1121769   2.652   5.968   6.542  1.0460  0.3940  0.1451
  189SAPI    H121770   2.691   5.966   6.438  2.1134  1.3730  0.5114
  189SAPI     P21771   2.874   6.112   6.576 -0.1053  0.0848  0.0674
  189SAPI   O1321772   2.953   5.992   6.548  0.2534 -0.3631  0.1560
  189SAPI   O1421773   2.927   6.197   6.680 -0.3275  0.5353 -0.0265
  189SAPI   O1221774   2.726   6.062   6.621  0.3759 -0.0297  0.1253
  189SAPI   O1121775   2.857   6.184   6.444  0.0789  0.0284  0.1154
  189SAPI    C121776   2.778   6.305   6.446 -0.5366 -0.6172  0.3087
  189SAPI    HA21777   2.681   6.286   6.497  0.3926 -1.3667  1.8758
  189SAPI    HB21778   2.834   6.382   6.503  0.1210 -0.0413 -1.0741
  189SAPI    C221779   2.760   6.371   6.313  0.7485 -0.0698  0.3416
  189SAPI    HS21780   2.702   6.465   6.325  1.9522  0.5375  1.8378
  189SAPI   O2121781   2.707   6.278   6.218 -0.1116  0.0129 -0.2671
  189SAPI   C2121782   2.576   6.267   6.211 -0.1124  0.1528 -0.4315
  189SAPI   O2221783   2.495   6.319   6.289 -0.0559 -0.0774  0.3611
  189SAPI   C2221784   2.544   6.164   6.105 -0.2136 -0.2908 -0.1484
  189SAPI   H2R21785   2.574   6.069   6.155 -0.6948  0.0721  0.8494
  189SAPI   H2S21786   2.436   6.160   6.081 -0.0842 -0.7082 -0.7060
  189SAPI    C321787   2.895   6.418   6.256 -0.3280 -0.9369  0.2102
  189SAPI    HX21788   2.969   6.335   6.264 -1.3683 -1.8591  0.6331
  189SAPI    HY21789   2.926   6.492   6.333 -2.4667  0.7760 -0.4890
  189SAPI   O3121790   2.887   6.476   6.118  0.0676 -0.2511 -0.0108
  189SAPI   C3121791   3.008   6.496   6.069 -0.0745 -0.8443 -0.4167
  189SAPI   O3221792   3.107   6.525   6.132 -1.0821  0.4079 -0.0578
  189SAPI   C3221793   3.001   6.477   5.922 -0.3206 -0.0836 -0.0621
  189SAPI   H2X21794   2.953   6.561   5.867 -0.7481 -0.3108 -0.0423
  189SAPI   H2Y21795   2.939   6.386   5.903 -1.3233  0.3208  1.1505
  189SAPI   C2321796   2.623   6.185   5.973  0.7800 -0.0878 -0.3052
  189SAPI   H3R21797   2.581   6.114   5.899 -0.2625  0.1074  0.0781
  189SAPI   H3S21798   2.726   6.149   5.993  0.0210 -1.8069  0.6787
  189SAPI   C2421799   2.626   6.331   5.915 -0.2480 -0.0628  0.3826
  189SAPI   H4R21800   2.679   6.326   5.818  1.2779 -0.1031  1.1828
  189SAPI   H4S21801   2.693   6.381   5.989 -1.8675  0.0044  1.8605
  189SAPI   C2521802   2.490   6.395   5.910 -0.3818 -1.1975  0.0874
  189SAPI   H5R21803   2.407   6.327   5.890  0.1810 -1.8160 -0.1942
  189SAPI   C2621804   2.474   6.527   5.927 -0.1340  0.2490  0.0734
  189SAPI   H6R21805   2.374   6.572   5.918  0.0773  0.5964 -0.5735
  189SAPI   C2721806   2.577   6.635   5.955  0.5800 -0.8132  0.2561
  189SAPI   H7R21807   2.640   6.609   6.043 -0.8587 -2.3485  0.8891
  189SAPI   H7S21808   2.514   6.721   5.988  0.0650 -0.9752 -0.2923
  189SAPI   C2821809   2.668   6.665   5.838 -0.9174  0.3464 -0.6807
  189SAPI   H8R21810   2.775   6.677   5.862 -0.5485 -2.7715 -0.2644
  189SAPI   C2921811   2.644   6.704   5.711  0.0962 -0.1258  0.2308
  189SAPI   H9R21812   2.732   6.729   5.650  0.7826  2.0578  1.9568
  189SAPI  C21021813   2.507   6.738   5.644  0.0167  0.6482  0.3169
  189SAPI  H10R21814   2.429   6.686   5.703 -0.1584  0.6706  0.1093
  189SAPI  H10S21815   2.504   6.691   5.543  0.4653  2.8160 -0.7713
  189SAPI  C21121816   2.451   6.878   5.640 -0.6089  0.7164 -0.0127
  189SAPI  H11R21817   2.374   6.886   5.718 -0.9422  0.3062 -0.3010
  189SAPI  C21221818   2.484   6.989   5.571  0.5228  0.9322  0.2078
  189SAPI  H12R21819   2.415   7.074   5.577 -1.2149 -0.2849 -1.2288
  189SAPI  C21321820   2.591   6.994   5.466 -0.7365 -0.5574 -0.6926
  189SAPI  H13R21821   2.666   6.915   5.491 -1.1317 -1.1078 -1.2408
  189SAPI  H13S21822   2.642   7.093   5.477 -0.5091 -0.7258 -0.1602
  189SAPI  C21421823   2.529   6.975   5.331  0.6885  0.4346  0.3986
  189SAPI  H14R21824   2.456   6.893   5.332  1.4552 -0.2695  0.3091
  189SAPI  C21521825   2.558   7.034   5.209 -0.5687  0.1559 -0.3450
  189SAPI  H15R21826   2.492   7.006   5.126 -2.6742  0.6959  1.0757
  189SAPI  C21621827   2.657   7.148   5.186 -0.9446  0.5899  0.1373
  189SAPI  H16R21828   2.726   7.162   5.272 -1.1150 -2.8029  0.9906
  189SAPI  H16S21829   2.597   7.241   5.173 -1.2208  0.7864  2.3555
  189SAPI  C21721830   2.741   7.146   5.060  0.1316 -0.8337  0.2736
  189SAPI  H17R21831   2.802   7.238   5.053 -0.6925 -0.1851  1.3832
  189SAPI  H17S21832   2.675   7.155   4.970  0.6626 -1.8806 -0.2466
  189SAPI  C21821833   2.834   7.026   5.036  0.2012  0.8558 -0.0160
  189SAPI  H18R21834   2.774   6.934   5.049  0.9789  0.5865  1.9575
  189SAPI  H18S21835   2.922   7.013   5.103 -0.3627  0.5787  0.6820
  189SAPI  C21921836   2.897   7.026   4.897  0.1728 -0.0497  0.4191
  189SAPI  H19R21837   2.949   7.124   4.897 -0.9588  0.5818 -0.2284
  189SAPI  H19S21838   2.826   7.024   4.811 -0.4694 -2.1575  0.9378
  189SAPI  C22021839   2.998   6.917   4.880 -0.9383  0.1348  0.0340
  189SAPI  H20R21840   3.083   6.913   4.952  0.1476 -2.9688 -1.2718
  189SAPI  H20S21841   3.055   6.936   4.786  1.7684  2.5419  2.0010
  189SAPI  H20T21842   2.949   6.820   4.858 -2.5005  0.6361  1.1752
  189SAPI   C3321843   3.141   6.458   5.854 -0.0258  0.4759 -0.2159
  189SAPI   H3X21844   3.198   6.392   5.922  0.2718  1.7897  0.8421
  189SAPI   H3Y21845   3.192   6.556   5.848  0.8678  0.0137 -0.4882
  189SAPI   C3421846   3.123   6.380   5.724 -1.3343  0.2518  0.2364
  189SAPI   H4X21847   3.051   6.425   5.651 -0.4048 -0.2575 -1.0413
  189SAPI   H4Y21848   3.088   6.279   5.751 -0.2542 -0.2236 -0.0979
  189SAPI   C3521849   3.262   6.354   5.661 -0.0094  0.6395 -0.5931
  189SAPI   H5X21850   3.318   6.298   5.739  0.4631  0.1987 -1.2306
  189SAPI   H5Y21851   3.319   6.447   5.639 -0.1860  0.9051  0.0681
  189SAPI   C3621852   3.258   6.266   5.537 -0.2924 -0.7573  0.1079
  189SAPI   H6X21853   3.202   6.171   5.536 -0.6555 -0.5886  1.8270
  189SAPI   H6Y21854   3.363   6.236   5.515 -0.3713 -1.7684  1.0091
  189SAPI   C3721855   3.202   6.325   5.405  0.3542 -0.1797  0.6679
  189SAPI   H7X21856   3.252   6.423   5.390 -2.1059  0.8556 -1.5984
  189SAPI   H7Y21857   3.098   6.359   5.422  1.0729  2.6368 -0.0056
  189SAPI   C3821858   3.219   6.241   5.277  0.4923  0.0320  0.3459
  189SAPI   H8X21859   3.201   6.136   5.309  0.0478  0.6732  2.3289
  189SAPI   H8Y21860   3.325   6.261   5.251  0.5488  0.5625  0.9591
  189SAPI   C3921861   3.132   6.287   5.161  0.9356 -0.2648  0.3422
  189SAPI   H9X21862   3.022   6.275   5.168  0.3973  2.8734 -1.1287
  189SAPI   H9Y21863   3.160   6.233   5.068 -0.2142  2.7180 -1.8840
  189SAPI  C31021864   3.153   6.440   5.136  0.1969  0.3916 -0.1449
  189SAPI  H10X21865   3.259   6.470   5.150  0.1592 -0.1872  1.5496
  189SAPI  H10Y21866   3.087   6.488   5.211  0.1483  2.7051 -1.5641
  189SAPI  C31121867   3.108   6.482   5.001 -1.0532  0.3335 -0.7784
  189SAPI  H11X21868   3.096   6.593   4.998  0.5450  0.5526 -0.1058
  189SAPI  H11Y21869   3.016   6.442   4.953 -1.1777 -0.3136 -0.0181
  189SAPI  C31221870   3.224   6.460   4.906  1.4710  0.0925 -0.0014
  189SAPI  H12X21871   3.248   6.351   4.912 -0.8840 -0.4100  3.0349
  189SAPI  H12Y21872   3.319   6.510   4.934  0.5718  0.9929  1.6126
  189SAPI  C31321873   3.187   6.498   4.761 -0.5857  0.3776  0.4465
  189SAPI  H13X21874   3.157   6.605   4.755 -2.2669 -0.0481  0.8191
  189SAPI  H13Y21875   3.095   6.443   4.735 -3.4824  4.7632  0.2788
  189SAPI  C31421876   3.304   6.481   4.664  0.1450 -0.2601  0.1377
  189SAPI  H14X21877   3.346   6.378   4.668 -0.0840 -0.3215  3.5990
  189SAPI  H14Y21878   3.383   6.554   4.690 -0.6575  0.8029 -0.3575
  189SAPI  C31521879   3.274   6.523   4.513 -0.0909  0.2036  0.1267
  189SAPI  H15X21880   3.371   6.514   4.460 -1.1363  0.1722 -1.8577
  189SAPI  H15Y21881   3.235   6.626   4.510  0.9023  0.6837  1.9283
  189SAPI  C31621882   3.169   6.437   4.445  0.1912  0.2686 -0.0907
  189SAPI  H16X21883   3.066   6.462   4.478 -0.3335 -1.9151  0.1026
  189SAPI  H16Y21884   3.191   6.329   4.462  0.0459  0.0655 -1.1027
  189SAPI  C31721885   3.145   6.464   4.294  0.5418  0.2450  0.4085
  189SAPI  H17X21886   3.148   6.574   4.276  0.3153 -0.0509 -1.6987
  189SAPI  H17Y21887   3.039   6.442   4.270 -0.7565  2.1786  3.7092
  189SAPI  C31821888   3.232   6.389   4.197  0.0106  0.1221 -0.3713
  189SAPI  H18X21889   3.326   6.447   4.183 -0.2521  0.8667  0.7195
  189SAPI  H18Y21890   3.184   6.382   4.098  0.3832  1.1720 -0.6476
  189SAPI  H18Z21891   3.259   6.290   4.239 -1.4659 -0.0445  0.2304
  190SAPI   C1221892   1.054   2.976   6.452 -0.1566  0.4335  0.0442
  190SAPI    H221893   1.043   2.969   6.341  0.1899 -2.0104  0.0986
  190SAPI    O221894   1.119   3.100   6.497  0.2656  0.5514  0.0568
  190SAPI   HO221895   1.198   3.107   6.444 -0.5757 -2.9088 -2.0072
  190SAPI   C1321896   0.914   2.950   6.513  0.3474 -0.2377 -0.0111
  190SAPI    H321897   0.888   2.847   6.481 -0.3203  0.3240 -1.3538
  190SAPI    O321898   0.814   3.044   6.463  0.0551  0.7798  0.8171
  190SAPI   HO321899   0.840   3.135   6.475 -0.0096  1.0190 -0.7190
  190SAPI   C1421900   0.926   2.965   6.660 -0.5336 -0.0046  0.2202
  190SAPI    H421901   0.949   3.072   6.679 -1.5083  0.2747 -0.1097
  190SAPI    O421902   0.804   2.943   6.728  0.1210  0.0841 -0.4345
  190SAPI   HO421903   0.750   2.874   6.688 -0.5820  0.7732 -0.6956
  190SAPI   C1521904   1.037   2.887   6.725 -0.1164  0.1418  0.3980
  190SAPI    H521905   0.996   2.784   6.734  0.7908 -0.4309 -1.4955
  190SAPI    O521906   1.071   2.932   6.862  0.1879 -0.2320 -0.5350
  190SAPI   HO521907   1.147   2.880   6.891 -1.2214 -0.9232  2.3047
  190SAPI   C1621908   1.168   2.864   6.641  0.5781  0.8217 -0.3315
  190SAPI    H621909   1.227   2.957   6.662 -1.2801  2.0665 -0.4008
  190SAPI    O621910   1.240   2.759   6.692 -0.4301  0.4938 -0.6044
  190SAPI   HO621911   1.289   2.725   6.617 -1.6207  0.3390 -1.3354
  190SAPI   C1121912   1.140   2.854   6.493 -0.2764  0.0211 -0.7354
  190SAPI    H121913   1.081   2.761   6.477 -1.1240  0.5387 -0.6325
  190SAPI     P21914   1.350   2.741   6.353  0.0351 -0.1475  0.1302
  190SAPI   O1321915   1.335   2.634   6.456 -0.4186 -0.1229 -0.3120
  190SAPI   O1421916   1.489   2.778   6.319  0.6233 -0.0143 -0.3518
  190SAPI   O1221917   1.255   2.870   6.411 -0.3933  0.2504  0.3939
  190SAPI   O1121918   1.264   2.690   6.228 -0.0310 -0.5893  1.1371
  190SAPI    C121919   1.128   2.649   6.212  0.4131  0.6562 -0.1693
  190SAPI    HA21920   1.062   2.692   6.291 -2.3133 -0.5530 -1.6806
  190SAPI    HB21921   1.087   2.701   6.123 -1.5827 -2.6227 -1.2996
  190SAPI    C221922   1.093   2.494   6.211  0.2761 -0.2209  0.0891
  190SAPI    HS21923   1.157   2.436   6.280  2.2082  0.2638 -1.2114
  190SAPI   O2121924   1.112   2.440   6.077  0.3476 -0.2120 -0.3592
  190SAPI   C2121925   1.116   2.304   6.068 -0.4588 -0.7006  0.4806
  190SAPI   O2221926   1.097   2.227   6.157 -0.2152  0.1063  0.1455
  190SAPI   C2221927   1.160   2.263   5.919  0.5673  0.0432 -0.1307
  190SAPI   H2R21928   1.169   2.351   5.851 -0.1062  0.1680 -0.0674
  190SAPI   H2S21929   1.256   2.208   5.930  0.5021 -0.0898 -0.2188
  190SAPI    C321930   0.944   2.477   6.256 -0.2455 -0.8687 -0.3909
  190SAPI    HX21931   0.945   2.505   6.364 -2.6373  0.5697 -0.6757
  190SAPI    HY21932   0.914   2.370   6.245 -0.7363 -0.5681 -2.2344
  190SAPI   O3121933   0.851   2.562   6.185 -0.1021  0.4858 -0.3657
  190SAPI   C3121934   0.752   2.619   6.262 -0.2879  0.4839 -0.0352
  190SAPI   O3221935   0.744   2.611   6.387 -0.0887  0.3170  1.1648
  190SAPI   C3221936   0.651   2.691   6.175  0.1398 -0.2198 -0.3367
  190SAPI   H2X21937   0.554   2.654   6.214  0.6046  0.7856  1.9983
  190SAPI   H2Y21938   0.669   2.651   6.073  2.6729  1.8358 -0.7933
  190SAPI   C2321939   1.038   2.175   5.868  0.4908 -0.1321  0.3868
  190SAPI   H3R21940   0.953   2.239   5.834 -0.3674 -1.2024  0.4612
  190SAPI   H3S21941   0.996   2.105   5.943 -1.8019  1.3162  0.5646
  190SAPI   C2421942   1.076   2.080   5.749 -0.3135  0.4098 -0.4471
  190SAPI   H4R21943   1.017   1.986   5.751 -0.7718  0.6870 -0.8834
  190SAPI   H4S21944   1.182   2.048   5.759  0.0751  1.0444 -2.1773
  190SAPI   C2521945   1.065   2.140   5.609  0.0308 -0.2684  0.3565
  190SAPI   H5R21946   1.104   2.243   5.600 -2.8520  0.9652  0.7523
  190SAPI   C2621947   1.011   2.091   5.498 -0.1751  0.1813  0.5043
  190SAPI   H6R21948   1.016   2.145   5.402  1.6703 -0.5737  0.1402
  190SAPI   C2721949   0.939   1.958   5.491  0.3119  0.2203 -0.3637
  190SAPI   H7R21950   0.833   1.973   5.517  0.4334  1.1336 -0.3772
  190SAPI   H7S21951   0.978   1.894   5.573  0.7604 -0.0426 -0.7747
  190SAPI   C2821952   0.945   1.890   5.355 -0.1352 -0.2645 -0.4588
  190SAPI   H8R21953   1.005   1.798   5.354 -0.6870 -0.7227  2.0856
  190SAPI   C2921954   0.890   1.936   5.240 -0.1299  1.0389 -0.2244
  190SAPI   H9R21955   0.898   1.871   5.151 -1.1556  0.2631  0.2238
  190SAPI  C21021956   0.812   2.058   5.219  0.0131  0.1202  0.0769
  190SAPI  H10R21957   0.783   2.107   5.314 -0.0397  1.2224 -0.4913
  190SAPI  H10S21958   0.708   2.039   5.184 -1.1362 -1.4287  3.8874
  190SAPI  C21121959   0.882   2.160   5.135  0.4231 -0.0473  0.0774
  190SAPI  H11R21960   0.948   2.229   5.188 -0.6566  1.4318 -0.4417
  190SAPI  C21221961   0.899   2.146   5.006  0.3718 -0.5502  0.9744
  190SAPI  H12R21962   0.961   2.226   4.962  1.0217 -0.6482  1.6739
  190SAPI  C21321963   0.845   2.047   4.905 -0.0631 -0.1837 -0.5278
  190SAPI  H13R21964   0.836   1.947   4.953  0.6413  0.1932  0.4359
  190SAPI  H13S21965   0.915   2.022   4.823  1.2073 -0.9536  0.7530
  190SAPI  C21421966   0.708   2.099   4.857 -0.1939 -0.6451  0.0632
  190SAPI  H14R21967   0.694   2.208   4.869 -0.2506 -0.5220 -1.0487
  190SAPI  C21521968   0.608   2.031   4.800 -0.0834 -0.1532 -0.2414
  190SAPI  H15R21969   0.518   2.075   4.755  0.5376 -1.1199 -2.5377
  190SAPI  C21621970   0.609   1.880   4.786  0.1770  0.5035  0.4035
  190SAPI  H16R21971   0.522   1.841   4.843 -0.8399  1.5451 -0.3705
  190SAPI  H16S21972   0.699   1.832   4.829  0.9447  1.0463 -0.5704
  190SAPI  C21721973   0.587   1.828   4.640  0.4172 -0.0538 -0.1126
  190SAPI  H17R21974   0.617   1.721   4.640  2.5004  0.4085  2.5223
  190SAPI  H17S21975   0.653   1.879   4.567  2.8353  0.4604  2.2994
  190SAPI  C21821976   0.438   1.840   4.594 -0.3461  0.8085  0.5246
  190SAPI  H18R21977   0.398   1.942   4.613  1.6231  2.1675 -1.9818
  190SAPI  H18S21978   0.384   1.778   4.669  2.5365 -0.7520  1.4306
  190SAPI  C21921979   0.401   1.789   4.458 -0.2795  0.5557  0.4101
  190SAPI  H19R21980   0.298   1.822   4.434 -0.4692 -1.0437 -1.2019
  190SAPI  H19S21981   0.378   1.681   4.472 -0.9162  0.8017  1.3950
  190SAPI  C22021982   0.493   1.807   4.336 -0.6834  0.7831  0.0530
  190SAPI  H20R21983   0.439   1.792   4.240 -0.0162  0.9213 -0.3497
  190SAPI  H20S21984   0.561   1.720   4.350 -3.2114 -1.8559 -2.4742
  190SAPI  H20T21985   0.544   1.905   4.330 -1.0971  1.0981  1.3955
  190SAPI   C3321986   0.675   2.841   6.193 -0.3812  1.1853  0.1237
  190SAPI   H3X21987   0.685   2.859   6.302  1.0186  0.8860  0.0745
  190SAPI   H3Y21988   0.584   2.897   6.162 -1.2400 -0.0070  0.4338
  190SAPI   C3421989   0.783   2.892   6.096 -0.3405  0.4057  0.5402
  190SAPI   H4X21990   0.878   2.850   6.133 -1.2706 -2.5485 -0.2007
  190SAPI   H4Y21991   0.775   3.002   6.113 -1.0257  0.4241  0.1618
  190SAPI   C3521992   0.756   2.868   5.946  0.4102 -0.3283  0.0851
  190SAPI   H5X21993   0.652   2.902   5.923  0.5481  0.0478  0.0123
  190SAPI   H5Y21994   0.763   2.759   5.923 -1.2369 -0.8405  1.7997
  190SAPI   C3621995   0.853   2.948   5.850  0.2454  0.4332 -0.2946
  190SAPI   H6X21996   0.959   2.914   5.849  0.3066  0.5917 -1.7131
  190SAPI   H6Y21997   0.839   3.052   5.886  0.3298  1.0069 -1.8419
  190SAPI   C3721998   0.832   2.934   5.702 -0.7553  0.0163  0.5846
  190SAPI   H7X21999   0.853   2.830   5.668 -1.1216 -0.1818  0.9515
  190SAPI   H7Y22000   0.912   2.983   5.643 -1.0492 -1.1342 -0.8244
  190SAPI   C3822001   0.699   2.980   5.653 -0.0084  0.4889  0.3743
  190SAPI   H8X22002   0.691   3.084   5.692 -1.0100 -0.1090  1.8541
  190SAPI   H8Y22003   0.615   2.925   5.701 -1.7067  0.8361 -2.0544
  190SAPI   C3922004   0.684   2.970   5.506  0.6327  0.1368  0.2384
  190SAPI   H9X22005   0.579   2.998   5.484  0.0753  0.1735  2.6221
  190SAPI   H9Y22006   0.697   2.865   5.473 -2.6080  0.1755 -1.5310
  190SAPI  C31022007   0.779   3.062   5.427 -0.0000  0.3149 -0.3290
  190SAPI  H10X22008   0.885   3.032   5.428 -0.5622 -1.7813 -0.1579
  190SAPI  H10Y22009   0.772   3.161   5.478 -1.3379  1.1171 -1.9391
  190SAPI  C31122010   0.743   3.073   5.278  0.6486  0.4057  0.0464
  190SAPI  H11X22011   0.809   3.151   5.234  0.8827  0.5765  0.6843
  190SAPI  H11Y22012   0.636   3.103   5.275  0.8975  1.2587 -0.6785
  190SAPI  C31222013   0.756   2.947   5.185  0.2488 -0.1471 -0.6722
  190SAPI  H12X22014   0.687   2.860   5.202  0.5023  0.1200  2.3952
  190SAPI  H12Y22015   0.861   2.915   5.200 -0.6160 -3.7719 -1.3179
  190SAPI  C31322016   0.741   2.995   5.042  0.0035 -0.5587 -0.0810
  190SAPI  H13X22017   0.831   3.047   5.006  0.1555 -2.0797 -2.0499
  190SAPI  H13Y22018   0.655   3.065   5.044  0.5605  0.1961  2.8391
  190SAPI  C31422019   0.711   2.882   4.946  0.4868 -0.5253 -0.5777
  190SAPI  H14X22020   0.643   2.816   5.003 -0.6571 -0.4720 -1.8313
  190SAPI  H14Y22021   0.803   2.823   4.926  0.3191 -1.4293  1.0790
  190SAPI  C31522022   0.629   2.935   4.825  0.0479 -0.8927 -0.4741
  190SAPI  H15X22023   0.684   3.013   4.769 -3.5347  2.4435  0.2891
  190SAPI  H15Y22024   0.540   2.986   4.867 -0.9019 -0.2547 -3.0708
  190SAPI  C31622025   0.565   2.834   4.738 -0.0991 -0.3723 -0.5067
  190SAPI  H16X22026   0.499   2.766   4.795  0.0335  0.6248  0.8710
  190SAPI  H16Y22027   0.645   2.772   4.691  0.8392  1.6301 -1.7063
  190SAPI  C31722028   0.486   2.899   4.621 -0.4062 -0.2902 -0.1516
  190SAPI  H17X22029   0.542   2.976   4.563 -2.8141  2.8717  1.4033
  190SAPI  H17Y22030   0.401   2.951   4.670 -1.6247  0.5928 -3.0010
  190SAPI  C31822031   0.424   2.796   4.534 -0.0436  0.2797 -0.0024
  190SAPI  H18X22032   0.359   2.842   4.457 -0.4861 -1.1295 -0.4953
  190SAPI  H18Y22033   0.360   2.736   4.601  1.2070 -0.4387  0.5918
  190SAPI  H18Z22034   0.491   2.736   4.470 -0.1718  1.6059 -1.4394
  191SAPI   C1222035   3.545   6.832   1.740 -0.1806  0.2977 -0.3042
  191SAPI    H222036   3.528   6.804   1.846 -0.5360  0.1060 -0.4093
  191SAPI    O222037   3.463   6.754   1.648  0.6094 -0.0688  0.4149
  191SAPI   HO222038   3.462   6.670   1.694  0.6015 -0.4486 -0.2667
  191SAPI   C1322039   3.514   6.977   1.723 -0.3022 -0.2683  0.2457
  191SAPI    H322040   3.581   7.041   1.785  1.7544  0.3011 -2.3987
  191SAPI    O322041   3.379   6.999   1.755 -0.0073 -0.6872  0.1775
  191SAPI   HO322042   3.317   6.960   1.693 -0.8581  0.2971  0.3602
  191SAPI   C1422043   3.548   7.018   1.579  0.2528 -0.9039 -0.0217
  191SAPI    H422044   3.473   6.974   1.510 -1.7984  1.9095  0.2410
  191SAPI    O422045   3.522   7.155   1.551 -0.4699 -0.4408 -0.3649
  191SAPI   HO422046   3.601   7.199   1.583  0.0705  0.3601 -2.6575
  191SAPI   C1522047   3.677   6.970   1.524  0.3641  0.9393  0.5515
  191SAPI    H522048   3.738   7.050   1.571  1.6864 -0.1158  0.6908
  191SAPI    O522049   3.677   6.974   1.380 -0.3354  0.1634 -0.6061
  191SAPI   HO522050   3.759   6.973   1.330 -1.2065  2.0661 -2.2105
  191SAPI   C1622051   3.743   6.844   1.586 -0.7080 -0.1212  0.6196
  191SAPI    H622052   3.713   6.765   1.514  1.6514  0.1600 -0.7702
  191SAPI    O622053   3.883   6.841   1.583 -0.3894  0.5488 -0.1279
  191SAPI   HO622054   3.908   6.820   1.674  0.1872 -0.3245 -0.4669
  191SAPI   C1122055   3.694   6.806   1.728 -0.3685 -0.2593 -0.1758
  191SAPI    H122056   3.746   6.872   1.800  1.4461 -3.1579  1.3424
  191SAPI     P22057   3.850   6.631   1.858 -0.1422 -0.2689  0.2841
  191SAPI   O1322058   3.968   6.722   1.826 -0.1118 -0.2747  0.4602
  191SAPI   O1422059   3.872   6.484   1.846  0.1688  0.2573 -0.0802
  191SAPI   O1222060   3.726   6.672   1.758 -0.0287  0.3124 -0.2903
  191SAPI   O1122061   3.791   6.669   2.000  0.3051 -0.2644  0.3421
  191SAPI    C122062   3.682   6.603   2.063 -0.1040 -0.1177  0.1319
  191SAPI    HA22063   3.585   6.657   2.049 -0.1676 -0.2383  0.1041
  191SAPI    HB22064   3.676   6.499   2.024 -1.1708  0.0958 -0.3251
  191SAPI    C222065   3.709   6.581   2.210  0.2782 -0.2819  0.0999
  191SAPI    HS22066   3.758   6.677   2.239  1.5326 -0.4187 -1.4062
  191SAPI   O2122067   3.796   6.474   2.224  0.0884  0.4538 -0.4611
  191SAPI   C2122068   3.889   6.481   2.315  0.6256 -0.1886  0.1096
  191SAPI   O2222069   3.906   6.577   2.391 -0.8600 -0.2300 -0.1623
  191SAPI   C2222070   3.975   6.355   2.303 -0.5404 -0.0333 -0.0413
  191SAPI   H2R22071   4.000   6.340   2.196  0.7453  1.2500  0.0590
  191SAPI   H2S22072   4.071   6.376   2.354  0.3702 -1.8271 -0.9324
  191SAPI    C322073   3.574   6.562   2.284 -0.1361  0.1897 -0.6355
  191SAPI    HX22074   3.525   6.473   2.239  1.3111 -1.2803  0.5821
  191SAPI    HY22075   3.509   6.648   2.258 -0.4330  0.2444  0.2544
  191SAPI   O3122076   3.597   6.553   2.422  0.1702 -0.1800 -0.6031
  191SAPI   C3122077   3.605   6.673   2.489  0.5473 -0.6222 -0.8563
  191SAPI   O3222078   3.579   6.782   2.439 -0.5863 -0.0527 -0.0025
  191SAPI   C3222079   3.648   6.650   2.632  0.9324  0.2270  0.8450
  191SAPI   H2X22080   3.756   6.622   2.636  1.1850  1.2264  2.1190
  191SAPI   H2Y22081   3.603   6.552   2.658 -1.6182  0.8896 -0.7872
  191SAPI   C2322082   3.919   6.226   2.371  0.2876 -0.3744  0.3569
  191SAPI   H3R22083   4.003   6.154   2.362  1.2171  0.6370  0.7557
  191SAPI   H3S22084   3.832   6.189   2.312  1.0436  0.0803 -1.1115
  191SAPI   C2422085   3.870   6.231   2.515 -0.0118  0.8136 -0.6685
  191SAPI   H4R22086   3.825   6.142   2.563  0.2542  1.8650  1.6513
  191SAPI   H4S22087   3.781   6.298   2.511 -0.8753 -0.1792  0.9659
  191SAPI   C2522088   3.976   6.282   2.608 -0.4984  0.3879 -0.4396
  191SAPI   H5R22089   3.997   6.390   2.603 -0.5353  0.8343  4.4814
  191SAPI   C2622090   4.056   6.206   2.690 -0.3330  0.0292 -0.0092
  191SAPI   H6R22091   4.131   6.254   2.754 -0.3028 -3.2293  2.7005
  191SAPI   C2722092   4.055   6.057   2.695  0.2083 -0.8292  0.9743
  191SAPI   H7R22093   4.023   6.025   2.593 -0.7030  2.8199 -0.0812
  191SAPI   H7S22094   3.966   6.015   2.747 -0.4217 -0.6590  0.0667
  191SAPI   C2822095   4.191   5.999   2.728 -0.2329 -0.3480  0.1870
  191SAPI   H8R22096   4.261   5.989   2.643 -0.8377 -1.0998 -0.2289
  191SAPI   C2922097   4.250   5.974   2.848  0.0484 -0.5039 -0.0713
  191SAPI   H9R22098   4.347   5.922   2.852 -0.8817 -2.3803 -0.7973
  191SAPI  C21022099   4.191   5.999   2.978 -0.2037  0.5692  0.1481
  191SAPI  H10R22100   4.081   5.989   2.966  0.1494 -1.1972 -2.4406
  191SAPI  H10S22101   4.205   6.108   2.996  0.4125  0.6234 -0.6198
  191SAPI  C21122102   4.234   5.921   3.091 -0.1443  0.0375  0.4068
  191SAPI  H11R22103   4.330   5.867   3.088 -0.8974 -1.3264  0.0667
  191SAPI  C21222104   4.166   5.923   3.207 -0.2315 -0.3839  0.2678
  191SAPI  H12R22105   4.199   5.863   3.293 -0.5397 -0.7850  0.1049
  191SAPI  C21322106   4.038   6.002   3.246 -0.9285 -0.6694 -0.1840
  191SAPI  H13R22107   3.997   6.061   3.162  0.0711 -0.1117 -0.2920
  191SAPI  H13S22108   4.071   6.080   3.318 -0.8533  1.7440 -2.7029
  191SAPI  C21422109   3.937   5.901   3.298  0.7963  0.1395 -0.5893
  191SAPI  H14R22110   3.908   5.825   3.223  0.1268  1.5047 -1.7710
  191SAPI  C21522111   3.894   5.882   3.429  0.4052 -0.7505  0.0627
  191SAPI  H15R22112   3.819   5.804   3.454  0.7188 -0.8004  0.8706
  191SAPI  C21622113   3.933   5.972   3.544  0.3260  0.4104 -0.5186
  191SAPI  H16R22114   3.845   5.989   3.610  0.6634 -3.0902  1.0292
  191SAPI  H16S22115   3.966   6.072   3.509 -1.4308  0.7673 -1.2679
  191SAPI  C21722116   4.036   5.917   3.643 -0.5340 -0.6360  0.8464
  191SAPI  H17R22117   4.137   5.910   3.596  0.3398  2.1744  2.0588
  191SAPI  H17S22118   4.006   5.812   3.666  0.6575 -1.6312 -1.7433
  191SAPI  C21822119   4.065   6.008   3.762  0.4501 -0.3923 -1.0073
  191SAPI  H18R22120   3.973   6.021   3.823  2.2428  0.0569  1.8066
  191SAPI  H18S22121   4.087   6.111   3.726  0.3529 -0.3323 -0.8983
  191SAPI  C21922122   4.179   5.969   3.865  0.3436  0.3536  0.0159
  191SAPI  H19R22123   4.278   5.988   3.818 -0.1659  1.3714 -0.6961
  191SAPI  H19S22124   4.160   5.862   3.886 -0.2279  0.3897 -0.3243
  191SAPI  C22022125   4.176   6.035   3.998  0.5331  0.0394 -0.3379
  191SAPI  H20R22126   4.077   6.018   4.045  0.8733  4.0836  2.3393
  191SAPI  H20S22127   4.190   6.144   3.986  0.2633 -0.0620 -1.6305
  191SAPI  H20T22128   4.256   5.986   4.058  0.7738 -0.1319 -0.7914
  191SAPI   C3322129   3.608   6.761   2.726  0.4897 -0.0058 -0.2292
  191SAPI   H3X22130   3.499   6.768   2.745  0.7170  0.5339  0.9682
  191SAPI   H3Y22131   3.639   6.860   2.687  0.6600  0.1138  0.2101
  191SAPI   C3422132   3.676   6.754   2.863 -0.2516  0.0345 -0.2911
  191SAPI   H4X22133   3.787   6.743   2.861 -0.2044 -0.3397  2.1717
  191SAPI   H4Y22134   3.636   6.659   2.905  0.4620  0.4043  1.2956
  191SAPI   C3522135   3.635   6.869   2.952 -0.8267 -0.3489  0.0883
  191SAPI   H5X22136   3.525   6.862   2.963 -0.6176 -2.1815  1.5429
  191SAPI   H5Y22137   3.659   6.974   2.924  0.4464 -0.6501 -0.0175
  191SAPI   C3622138   3.690   6.839   3.096 -0.1346 -0.3821 -0.1723
  191SAPI   H6X22139   3.801   6.837   3.093  0.0299  2.3938  1.4612
  191SAPI   H6Y22140   3.653   6.738   3.126  0.7426 -0.7586 -0.3366
  191SAPI   C3722141   3.659   6.943   3.202 -0.4047 -0.0539 -0.1268
  191SAPI   H7X22142   3.553   6.973   3.190 -0.4432 -0.9007 -2.2999
  191SAPI   H7Y22143   3.723   7.034   3.197 -0.3832  0.0109  1.0003
  191SAPI   C3822144   3.667   6.907   3.347  0.4387  1.4060 -0.1104
  191SAPI   H8X22145   3.613   6.810   3.358 -1.4765  2.5034  0.5167
  191SAPI   H8Y22146   3.612   6.984   3.404  2.3815  2.1041  0.9246
  191SAPI   C3922147   3.806   6.888   3.405  0.4035  0.0644 -0.0337
  191SAPI   H9X22148   3.858   6.987   3.410  1.7343 -0.4960 -1.8816
  191SAPI   H9Y22149   3.870   6.833   3.333 -0.4601 -0.5225 -0.3742
  191SAPI  C31022150   3.802   6.823   3.541  0.5952 -0.2358 -0.2055
  191SAPI  H10X22151   3.899   6.806   3.591  0.6674 -0.4434 -0.4167
  191SAPI  H10Y22152   3.741   6.730   3.544 -0.2781  0.3372  1.1838
  191SAPI  C31122153   3.719   6.900   3.644  0.2589 -0.4074 -0.7144
  191SAPI  H11X22154   3.616   6.919   3.606  0.1169  0.1439 -0.0737
  191SAPI  H11Y22155   3.779   6.993   3.654 -0.8437  0.3360 -0.7755
  191SAPI  C31222156   3.689   6.836   3.782 -0.9723  0.4829 -0.4112
  191SAPI  H12X22157   3.620   6.750   3.769  0.4763 -0.5980 -1.1157
  191SAPI  H12Y22158   3.643   6.908   3.854  0.6008 -0.7837  1.9731
  191SAPI  C31322159   3.827   6.793   3.845  0.1537  0.3218 -0.2249
  191SAPI  H13X22160   3.888   6.885   3.862  2.7951 -1.0340 -1.6283
  191SAPI  H13Y22161   3.888   6.729   3.778 -0.1671  0.7331 -0.9278
  191SAPI  C31422162   3.808   6.734   3.982 -1.0043  0.1099 -0.0737
  191SAPI  H14X22163   3.901   6.681   4.012  0.4486  1.4809 -1.9582
  191SAPI  H14Y22164   3.741   6.646   3.974 -0.5403 -0.6074  2.7078
  191SAPI  C31522165   3.751   6.824   4.091  0.1000 -0.0775 -0.7656
  191SAPI  H15X22166   3.654   6.870   4.064 -0.1394 -0.2089 -0.1457
  191SAPI  H15Y22167   3.831   6.901   4.089 -0.6413  0.6865 -1.7278
  191SAPI  C31622168   3.726   6.752   4.223  0.3546  0.1665 -0.0899
  191SAPI  H16X22169   3.759   6.810   4.311  1.3372 -2.4708  1.4135
  191SAPI  H16Y22170   3.783   6.656   4.221 -0.0874 -0.1521 -3.6082
  191SAPI  C31722171   3.577   6.699   4.245 -0.1960 -0.2472 -0.0722
  191SAPI  H17X22172   3.560   6.589   4.241  1.3500 -0.4766 -1.0935
  191SAPI  H17Y22173   3.511   6.747   4.170  0.5346  1.1837  0.1553
  191SAPI  C31822174   3.543   6.741   4.391  0.2467  0.1908  0.8810
  191SAPI  H18X22175   3.441   6.700   4.406 -0.0020  0.0127 -0.9755
  191SAPI  H18Y22176   3.537   6.851   4.399 -0.7700  0.1302  1.0548
  191SAPI  H18Z22177   3.621   6.687   4.449  0.2133  0.4086  1.1259
  192SAPI   C1222178   5.189   0.146   1.458  0.2587 -0.6783 -0.0720
  192SAPI    H222179   5.206   0.042   1.493  0.4627 -0.8926 -0.7962
  192SAPI    O222180   5.285   0.165   1.348  0.2344  0.0691  0.2901
  192SAPI   HO222181   5.367   0.154   1.397 -2.1592 -2.3548  4.3624
  192SAPI   C1322182   5.046   0.149   1.397 -0.8440  0.4809 -0.3645
  192SAPI    H322183   4.979   0.132   1.484  0.1453 -1.6971  0.0264
  192SAPI    O322184   5.026   0.039   1.302  0.1075 -0.1213 -0.2495
  192SAPI   HO322185   4.984  -0.038   1.340 -2.6428  0.8376 -1.0841
  192SAPI   C1422186   5.007   0.284   1.346  0.1849 -0.7952  0.5308
  192SAPI    H422187   5.063   0.305   1.252  0.5816  0.1496  0.9694
  192SAPI    O422188   4.870   0.283   1.303 -0.1779  0.1410 -0.0562
  192SAPI   HO422189   4.866   0.274   1.208 -0.7227 -1.5597  0.0988
  192SAPI   C1522190   5.033   0.398   1.441  0.3110 -0.5385 -0.7343
  192SAPI    H522191   4.954   0.379   1.517  1.1612  0.4864  0.4409
  192SAPI    O522192   5.002   0.527   1.381 -0.2608 -0.3282  0.6753
  192SAPI   HO522193   4.970   0.582   1.454 -1.1260  0.5441 -0.3208
  192SAPI   C1622194   5.162   0.400   1.518 -0.5773  0.1268  0.8351
  192SAPI    H622195   5.234   0.436   1.441 -1.5064 -1.2278 -0.7227
  192SAPI    O622196   5.170   0.486   1.634 -0.3439 -0.4424 -0.3288
  192SAPI   HO622197   5.240   0.452   1.691 -2.7193 -2.9027  1.3258
  192SAPI   C1122198   5.209   0.254   1.560 -0.1431  0.3596 -0.4848
  192SAPI    H122199   5.146   0.220   1.645  0.4459 -0.1553 -0.2513
  192SAPI     P22200   5.399   0.180   1.739  0.4632 -0.1091 -0.0326
  192SAPI   O1322201   5.549   0.182   1.759  1.0020 -0.1513  0.7080
  192SAPI   O1422202   5.344   0.039   1.741 -0.6798 -0.6297  0.4540
  192SAPI   O1222203   5.348   0.256   1.601  0.2426 -0.0261  0.0611
  192SAPI   O1122204   5.342   0.281   1.842  0.1554 -0.7788 -0.1160
  192SAPI    C122205   5.275   0.242   1.960  0.0228  0.5472  0.0937
  192SAPI    HA22206   5.304   0.140   1.994  0.4437  0.2289 -1.1808
  192SAPI    HB22207   5.314   0.310   2.038 -0.8605  2.1866 -0.8574
  192SAPI    C222208   5.123   0.263   1.972 -0.4903  1.0501  0.3880
  192SAPI    HS22209   5.086   0.218   1.877  2.9228  0.5480 -0.8707
  192SAPI   O2122210   5.090   0.400   2.000 -0.6282  0.8253 -0.3009
  192SAPI   C2122211   4.971   0.422   1.953  0.4826  0.4805  0.0729
  192SAPI   O2222212   4.898   0.353   1.882  0.5128  0.2283  0.2919
  192SAPI   C2222213   4.927   0.564   1.998  0.0956  0.6587  0.1411
  192SAPI   H2R22214   4.938   0.641   1.918  1.8309  1.2916  0.9370
  192SAPI   H2S22215   4.817   0.556   2.006  0.2498 -2.0919  0.3072
  192SAPI    C322216   5.081   0.163   2.082  0.0757  0.4014 -0.5070
  192SAPI    HX22217   5.104   0.059   2.050  0.3700  0.5377 -0.7417
  192SAPI    HY22218   4.970   0.166   2.085  0.0767  1.8629 -1.2116
  192SAPI   O3122219   5.151   0.185   2.208  0.9843 -0.0293  0.0298
  192SAPI   C3122220   5.087   0.259   2.296  0.3845  0.2926  0.5074
  192SAPI   O3222221   4.968   0.292   2.280  0.7152 -0.3339 -0.0602
  192SAPI   C3222222   5.190   0.313   2.398 -0.5205  0.1852  0.7403
  192SAPI   H2X22223   5.270   0.347   2.329 -0.4915 -1.6917 -0.2078
  192SAPI   H2Y22224   5.230   0.223   2.451 -1.5817  0.1870  1.5803
  192SAPI   C2322225   4.986   0.624   2.130 -0.0334  0.0148  0.1441
  192SAPI   H3R22226   5.097   0.628   2.117 -0.0191 -2.7990 -1.4153
  192SAPI   H3S22227   4.972   0.554   2.215 -1.4019 -0.4957 -0.4746
  192SAPI   C2422228   4.918   0.758   2.176  0.6174  0.4213 -0.3008
  192SAPI   H4R22229   4.929   0.833   2.095 -1.6785  1.9386  0.6911
  192SAPI   H4S22230   4.964   0.792   2.271  0.1666 -0.8595  0.4022
  192SAPI   C2522231   4.767   0.742   2.198 -0.2075 -0.2864 -0.0386
  192SAPI   H5R22232   4.706   0.711   2.111 -1.7414  4.8876 -1.1516
  192SAPI   C2622233   4.704   0.772   2.317  0.1031 -0.3720 -0.0493
  192SAPI   H6R22234   4.597   0.749   2.328 -0.1949  1.4953  1.4319
  192SAPI   C2722235   4.758   0.821   2.449 -0.2716 -0.0017 -0.5698
  192SAPI   H7R22236   4.858   0.773   2.453 -1.2673 -2.3647 -1.8238
  192SAPI   H7S22237   4.697   0.788   2.536 -0.6162  1.2912 -0.3051
  192SAPI   C2822238   4.763   0.973   2.463 -0.3528  0.4666  0.5325
  192SAPI   H8R22239   4.773   1.035   2.372  2.2211 -0.8821 -0.2199
  192SAPI   C2922240   4.778   1.038   2.578 -0.8564  0.3049  0.2550
  192SAPI   H9R22241   4.800   1.145   2.570  0.2090  0.1017  0.3331
  192SAPI  C21022242   4.770   0.989   2.722 -0.4234  0.2131 -0.1640
  192SAPI  H10R22243   4.731   0.885   2.726  1.7576 -0.6420  0.4104
  192SAPI  H10S22244   4.687   1.040   2.775  0.0846 -1.1207  2.0608
  192SAPI  C21122245   4.890   0.993   2.810 -0.4694  0.9286  0.4336
  192SAPI  H11R22246   4.945   0.898   2.822  0.4457  1.4400  0.3496
  192SAPI  C21222247   4.946   1.101   2.864 -0.1109  0.0010  0.2641
  192SAPI  H12R22248   5.027   1.077   2.933  1.9164 -1.4093 -2.3975
  192SAPI  C21322249   4.887   1.238   2.850 -0.9061 -0.1121  0.5409
  192SAPI  H13R22250   4.829   1.264   2.942 -0.2843  0.2582  0.8348
  192SAPI  H13S22251   4.827   1.250   2.757  0.3530 -1.5402 -0.5120
  192SAPI  C21422252   4.985   1.347   2.850 -0.3453 -0.0695  0.5569
  192SAPI  H14R22253   5.018   1.391   2.755 -0.4137 -0.1540  0.4936
  192SAPI  C21522254   5.050   1.406   2.953 -0.1285  0.4581 -0.3116
  192SAPI  H15R22255   5.115   1.490   2.926 -0.4761  0.7230 -0.3334
  192SAPI  C21622256   5.036   1.382   3.104  0.1981  0.4866 -0.1375
  192SAPI  H16R22257   5.124   1.327   3.145 -1.8054 -0.6904  2.9317
  192SAPI  H16S22258   4.947   1.319   3.124  1.6530 -2.0145 -0.9635
  192SAPI  C21722259   5.042   1.519   3.171 -0.3453 -0.0529 -0.2270
  192SAPI  H17R22260   4.954   1.584   3.154  2.6342  5.2913  2.0176
  192SAPI  H17S22261   5.139   1.571   3.152  0.4474 -1.8204 -1.2039
  192SAPI  C21822262   5.035   1.502   3.325 -1.2052 -0.4617 -0.9197
  192SAPI  H18R22263   5.120   1.438   3.357 -0.2362  1.0680 -0.3588
  192SAPI  H18S22264   4.940   1.452   3.354 -1.3971 -0.0482 -0.8274
  192SAPI  C21922265   5.056   1.631   3.404  0.0769 -0.3288 -0.0171
  192SAPI  H19R22266   5.152   1.675   3.369 -0.8068  1.0096 -0.8693
  192SAPI  H19S22267   5.069   1.608   3.512 -3.4395 -1.3387  0.3229
  192SAPI  C22022268   4.933   1.734   3.391  0.2030  0.7268 -0.4338
  192SAPI  H20R22269   4.870   1.701   3.305  0.4938  0.9550 -0.7377
  192SAPI  H20S22270   4.963   1.839   3.376 -1.0256  1.1845  0.1567
  192SAPI  H20T22271   4.875   1.711   3.483  0.5674 -1.4042 -0.6790
  192SAPI   C3322272   5.150   0.426   2.487 -0.2624 -0.9198  0.0491
  192SAPI   H3X22273   5.107   0.507   2.424  1.8239  0.3060  0.1257
  192SAPI   H3Y22274   5.241   0.465   2.537 -2.2953  1.3171  2.2436
  192SAPI   C3422275   5.043   0.381   2.591  0.2452  0.4819 -0.6908
  192SAPI   H4X22276   4.964   0.325   2.537 -0.6549  0.2262  0.8202
  192SAPI   H4Y22277   4.994   0.467   2.642  0.2995 -0.1269  0.4237
  192SAPI   C3522278   5.096   0.280   2.701  0.6733  0.0979  0.6409
  192SAPI   H5X22279   5.118   0.189   2.642 -1.7950 -0.9569  1.2466
  192SAPI   H5Y22280   5.019   0.249   2.775 -0.8057 -0.1595 -0.9369
  192SAPI   C3622281   5.228   0.329   2.770 -0.2009  0.3395  0.5194
  192SAPI   H6X22282   5.221   0.426   2.824  2.7270  2.2874 -2.2164
  192SAPI   H6Y22283   5.305   0.345   2.691 -1.4160  0.3694 -0.6926
  192SAPI   C3722284   5.271   0.225   2.875  0.2062 -0.2079  0.0400
  192SAPI   H7X22285   5.377   0.244   2.903  0.5808  0.0955 -1.5095
  192SAPI   H7Y22286   5.254   0.122   2.836 -0.6394  0.5900 -1.8038
  192SAPI   C3822287   5.198   0.248   3.011 -0.1358  0.3460 -0.1252
  192SAPI   H8X22288   5.243   0.181   3.088  0.7237  0.9858 -0.0590
  192SAPI   H8Y22289   5.106   0.188   2.995 -0.3207  0.3697  0.8171
  192SAPI   C3922290   5.167   0.381   3.066 -0.0487 -0.2539  0.6238
  192SAPI   H9X22291   5.093   0.435   3.004  2.4554  1.2088 -1.3192
  192SAPI   H9Y22292   5.258   0.445   3.059  0.1504 -0.6601 -1.0037
  192SAPI  C31022293   5.132   0.377   3.216  0.4268 -0.5682 -1.3057
  192SAPI  H10X22294   5.218   0.336   3.274 -0.1200  1.2284  0.9131
  192SAPI  H10Y22295   5.042   0.316   3.240 -0.3862  0.7981 -0.7682
  192SAPI  C31122296   5.110   0.512   3.281  0.2833  0.4965  0.3185
  192SAPI  H11X22297   5.039   0.552   3.206 -0.3033 -0.6759  0.2335
  192SAPI  H11Y22298   5.205   0.569   3.272  0.1771  0.4236 -1.9337
  192SAPI  C31222299   5.054   0.508   3.418  0.4474 -0.3792 -0.1340
  192SAPI  H12X22300   5.117   0.440   3.479  1.0788 -0.8865 -1.3276
  192SAPI  H12Y22301   4.951   0.469   3.430 -0.6228  2.2293 -0.0849
  192SAPI  C31322302   5.079   0.647   3.481 -0.5074  0.5110 -0.1658
  192SAPI  H13X22303   5.002   0.669   3.559 -1.0003  0.4568 -0.6305
  192SAPI  H13Y22304   5.084   0.721   3.398  1.4808 -2.0403 -2.4967
  192SAPI  C31422305   5.214   0.648   3.556  0.1054 -0.4682  0.7279
  192SAPI  H14X22306   5.296   0.635   3.482 -0.0731  0.9287  0.2547
  192SAPI  H14Y22307   5.210   0.563   3.627 -1.1697  0.0245  1.2705
  192SAPI  C31522308   5.239   0.785   3.625 -0.6864  0.1391 -0.2938
  192SAPI  H15X22309   5.237   0.876   3.561  1.0617 -0.5494 -1.4219
  192SAPI  H15Y22310   5.340   0.769   3.669 -0.8767 -0.3690 -0.0293
  192SAPI  C31622311   5.150   0.792   3.749 -0.2825  0.2763 -0.4269
  192SAPI  H16X22312   5.154   0.700   3.811 -0.3596 -0.3722 -1.3577
  192SAPI  H16Y22313   5.043   0.809   3.726 -0.5810  2.3828  2.1059
  192SAPI  C31722314   5.198   0.904   3.850  0.1007 -0.0295 -0.7622
  192SAPI  H17X22315   5.188   1.004   3.803  0.6151 -0.1003 -1.0225
  192SAPI  H17Y22316   5.306   0.894   3.871 -0.2922  1.9547  3.1957
  192SAPI  C31822317   5.129   0.888   3.985  0.3774 -0.2671 -1.1048
  192SAPI  H18X22318   5.019   0.902   3.981  0.1706 -0.2080  2.2872
  192SAPI  H18Y22319   5.176   0.966   4.049  1.9308 -1.7843 -0.3315
  192SAPI  H18Z22320   5.156   0.790   4.028 -2.1805  0.3964  2.4176
  193SOD    SOD22321   1.758   6.800   1.100 -0.0681  0.1812  0.6926
  194SOD    SOD22322   4.862   5.511   1.826  0.4443  0.2794 -0.1784
  195SOD    SOD22323   3.449   5.891   0.002  0.6721  0.0662  0.2675
  196SOD    SOD22324   6.645   2.475   7.644  0.3931  0.6304  0.2540
  197SOD    SOD22325   4.068   2.196   8.553  0.2481 -0.1503 -0.3593
  198SOD    SOD22326   1.138   0.941   7.941 -0.0465 -0.1453 -0.0197
  199SOD    SOD22327   1.980   5.142   7.122 -0.4548  0.0022  0.5044
  200SOD    SOD22328   0.416   3.037   6.989  0.5656 -0.1829 -0.1655
  201SOD    SOD22329   4.431   4.241   6.942 -0.1112  0.0633  0.6424
  202SOD    SOD22330   6.105   3.822   1.649 -0.3443  0.3204  0.0851
  203SOD    SOD22331   6.099   3.269   7.529  0.0694  0.3008  0.1428
  204SOD    SOD22332   6.382   5.633   0.567  0.0726  0.4820  0.0366
  205SOD    SOD22333   4.778   1.567   1.504  0.1850 -0.3628  0.3119
  206SOD    SOD22334   2.032   4.019   1.169  0.5420  0.5847 -0.2296
  207SOD    SOD22335   4.185   0.325   6.656  0.4708  0.1174 -0.1593
  208SOD    SOD22336   2.233   2.458   7.086  0.1431 -0.2693 -0.1102
  209SOD    SOD22337   1.659   3.359   0.807 -0.0694 -0.6316  0.3930
  210SOD    SOD22338   2.446   1.841   7.658  0.2480  0.3615 -0.5215
  211SOD    SOD22339   0.790   4.608   0.829 -0.2571 -0.3284  0.0815
  212SOD    SOD22340   0.915   0.728   6.308  0.4264 -0.2357 -0.3426
  213SOD    SOD22341   2.691   2.092   1.797  0.2751 -0.0354 -0.4935
  214SOD    SOD22342   3.601   5.520   6.625  0.0858  0.3518  0.3712
  215SOD    SOD22343   5.264   5.522   1.398 -0.4042 -0.2248  0.3418
  216SOD    SOD22344   3.501   0.270   1.284  0.2353 -0.0067 -0.3964
  217SOD    SOD22345   0.986   1.788   0.016 -0.6065  0.0303 -0.4409
  218SOD    SOD22346   3.692   2.574   7.337  0.2592  0.2709  0.2400
  219SOD    SOD22347   2.497   2.075   8.660  0.1125  0.0744 -0.0714
  220SOD    SOD22348   3.044   5.562   1.433 -0.3253  0.0626 -0.3059
  221SOD    SOD22349   0.999   4.422   1.773  0.1944  0.1537  0.1627
  222SOD    SOD22350   1.480   2.330   8.285 -0.2513  0.2917  0.2162
  223SOD    SOD22351   1.267   6.751   1.924  0.0569 -0.4273  0.2585
  224SOD    SOD22352   4.887   2.724   0.746  0.3888  0.0185 -0.0304
  225SOD    SOD22353   5.517   3.135   6.822  0.2173  0.1497  0.2969
  226SOD    SOD22354   6.315   6.464   7.559 -0.3288 -0.5223  0.1289
  227SOD    SOD22355   2.445   6.382   7.041 -0.5329 -0.1657  0.2389
  228SOD    SOD22356   6.747   4.174   7.432 -0.4782  0.2194  0.1843
  229SOD    SOD22357   5.444   4.776   7.693  0.4755  0.0564  0.5204
  230CLA    CLA22358   4.430   1.968   0.147  0.1389 -0.1207 -0.0288
  231CLA    CLA22359   5.457   4.353   1.188  0.0711  0.4676 -0.0012
  232CLA    CLA22360   5.422   2.559   7.945  0.0489 -0.3756 -0.3296
  233CLA    CLA22361   6.068   0.910   7.197 -0.0671 -0.0077  0.0399
  234CLA    CLA22362   1.191   2.322   8.585 -0.6762 -0.3390 -0.0095
  235CLA    CLA22363   1.792   1.327   1.237  0.1557 -0.1652  0.0891
  236CLA    CLA22364   1.970   2.388   8.297  0.0037 -0.1977 -0.1629
  237CLA    CLA22365   1.421   3.505   0.330  0.2495 -0.0981  0.0352
  238CLA    CLA22366   5.948   2.470   7.753 -0.0646  0.1090 -0.0054
  239CLA    CLA22367   0.259   1.630   0.375  0.0144  0.2547 -0.2471
  240CLA    CLA22368   1.697   4.356   0.954 -0.1390 -0.2945  0.2436
  241CLA    CLA22369   1.111   0.620   6.959 -0.2483 -0.1278  0.1964
  242CLA    CLA22370   3.359   0.644   0.037 -0.1905 -0.2468  0.1199
  243CLA    CLA22371   2.220   2.817   1.142 -0.5442  0.0072 -0.2795
  244CLA    CLA22372   0.432   4.487   1.126  0.2353 -0.0968  0.2958
  245CLA    CLA22373   3.495   1.265   0.292 -0.0710 -0.4122 -0.3988
  246CLA    CLA22374   4.623   4.919   8.539 -0.1713 -0.0498  0.4279
  247TIP3   OH222375   0.977   6.230   8.042 -0.7661  0.7659 -0.5896
  247TIP3    H122376   1.064   6.247   8.006  0.1309  1.2788  1.6216
  247TIP3    H222377   0.923   6.207   7.967  1.7068 -1.4633 -1.8260
  248TIP3   OH222378   6.099   3.744   0.107  0.0132 -0.2210 -0.3058
  248TIP3    H122379   6.112   3.711   0.017  1.8004 -0.0802 -0.1417
  248TIP3    H222380   6.088   3.664   0.159 -0.3672 -0.3354 -0.5558
  249TIP3   OH222381   5.670   5.269   6.438  0.0407 -0.2867 -0.0425
  249TIP3    H122382   5.706   5.357   6.449 -0.0278  0.3406 -3.7697
  249TIP3    H222383   5.718   5.232   6.364 -3.3439 -1.3978 -1.8954
  250TIP3   OH222384   2.240   1.666   7.247 -0.5033  0.0380  0.6456
  250TIP3    H122385   2.213   1.575   7.256 -1.3458  0.2192 -0.0357
  250TIP3    H222386   2.160   1.717   7.259  0.0200  0.7145  1.3794
  251TIP3   OH222387   5.751   5.512   6.516 -0.4441  0.1193 -0.4324
  251TIP3    H122388   5.817   5.535   6.451 -0.3012 -0.7705 -0.6090
  251TIP3    H222389   5.746   5.589   6.573 -0.3692  0.8053 -1.3178
  252TIP3   OH222390   2.212   6.767   8.222  0.0590  0.7461  0.1557
  252TIP3    H122391   2.118   6.748   8.228 -0.0649  1.1337 -0.4695
  252TIP3    H222392   2.222   6.852   8.264 -0.0594  1.2516 -0.8291
  253TIP3   OH222393   4.635   3.010   7.351 -0.1695 -0.2961 -0.2897
  253TIP3    H122394   4.723   3.041   7.331 -0.0656 -0.1518  0.3533
  253TIP3    H222395   4.631   2.923   7.311 -0.2577  0.2792 -1.5862
  254TIP3   OH222396   2.268   6.065   0.619 -0.0048 -0.2643 -0.0877
  254TIP3    H122397   2.324   6.042   0.693 -0.1348 -0.6304 -0.1034
  254TIP3    H222398   2.259   6.160   0.625 -0.3638 -0.3380  0.6138
  255TIP3   OH222399   0.367   1.126   8.032  0.5629 -0.2311  0.4584
  255TIP3    H122400   0.272   1.121   8.029  0.6537 -2.5281 -0.1177
  255TIP3    H222401   0.391   1.090   8.117  0.9405  0.9416  0.8787
  256TIP3   OH222402   0.197   2.998   0.752  0.2225 -0.1467  0.1198
  256TIP3    H122403   0.273   2.957   0.792 -0.6489 -1.6551  0.2823
  256TIP3    H222404   0.126   2.986   0.815 -0.8672 -1.4339 -1.2669
  257TIP3   OH222405   1.036   5.323   6.823  0.0454 -0.5743  0.3839
  257TIP3    H122406   1.109   5.268   6.793  0.1931 -0.2241  0.0875
  257TIP3    H222407   1.032   5.394   6.759  0.0360 -0.0904  0.9116
  258TIP3   OH222408   3.893   3.949   7.845 -0.1299  0.3016 -0.9499
  258TIP3    H122409   3.899   4.032   7.796  0.0188  1.6469  1.2237
  258TIP3    H222410   3.865   3.885   7.779  3.6941  1.1087 -3.7315
  259TIP3   OH222411   5.912   0.500   8.129  0.2003  0.4236 -0.1550
  259TIP3    H122412   5.952   0.473   8.211 -0.6693 -0.1542  0.0955
  259TIP3    H222413   5.845   0.563   8.155 -0.4964 -0.2255 -0.3532
  260TIP3   OH222414   2.117   1.862   7.980  0.0333  0.1507 -0.3742
  260TIP3    H122415   2.096   1.791   8.040 -0.4455  0.1486 -0.5367
  260TIP3    H222416   2.065   1.936   8.011 -1.4521 -0.2760 -1.6784
  261TIP3   OH222417   1.922   4.623   0.797 -0.3618 -0.0926  0.0347
  261TIP3    H122418   1.895   4.635   0.706  1.3367 -1.2774 -0.6696
  261TIP3    H222419   1.857   4.563   0.833 -1.5646  1.0835 -0.1032
  262TIP3   OH222420   1.625   0.410   8.571  0.3152  0.1538  0.4962
  262TIP3    H122421   1.615   0.319   8.595 -1.8111  0.6980  1.9175
  262TIP3    H222422   1.717   0.430   8.590  0.8803 -1.7235 -0.1012
  263TIP3   OH222423   0.348   2.285   0.957 -0.5944 -0.3396  0.1141
  263TIP3    H122424   0.407   2.352   0.991 -2.3256  2.0038 -1.2015
  263TIP3    H222425   0.385   2.262   0.872 -0.8796  0.2306 -0.1733
  264TIP3   OH222426   2.495   1.640   0.239  0.4293 -0.0637 -0.6571
  264TIP3    H122427   2.500   1.572   0.171 -1.6460 -1.1837  0.2273
  264TIP3    H222428   2.586   1.657   0.262  1.0279 -2.7203 -0.7518
  265TIP3   OH222429   5.381   0.439   7.354  0.7293  0.2547  0.2321
  265TIP3    H122430   5.385   0.436   7.449 -0.7702  1.3184  0.3702
  265TIP3    H222431   5.287   0.431   7.333  0.8502  1.6140 -1.0483
  266TIP3   OH222432   5.202   5.597   8.316 -0.0721 -0.5562 -0.7093
  266TIP3    H122433   5.140   5.534   8.353  0.2408  0.1331  1.1151
  266TIP3    H222434   5.149   5.675   8.300  0.6307  1.1609  3.7636
  267TIP3   OH222435   6.164   1.611   6.999  0.1735 -0.1454 -0.2896
  267TIP3    H122436   6.216   1.530   7.005 -1.1138 -0.8943  1.3365
  267TIP3    H222437   6.178   1.655   7.082 -2.5307 -0.8816  0.6611
  268TIP3   OH222438   5.034   1.206   0.205  0.0548 -0.7920  0.2952
  268TIP3    H122439   5.113   1.153   0.215  0.7818  0.4867  2.0843
  268TIP3    H222440   4.962   1.143   0.204  1.1027 -2.1006 -2.8853
  269TIP3   OH222441   2.582   0.632   0.898  0.5071 -0.0404 -0.0426
  269TIP3    H122442   2.567   0.710   0.844  1.8234  0.2021 -0.1027
  269TIP3    H222443   2.602   0.667   0.985  1.4626 -0.2876 -0.1563
  270TIP3   OH222444   2.413   5.206   7.033 -0.6471 -0.2610 -0.3838
  270TIP3    H122445   2.416   5.300   7.049  1.0065  0.1266 -2.3939
  270TIP3    H222446   2.348   5.196   6.963 -0.2920 -0.4876 -0.6878
  271TIP3   OH222447   1.897   3.161   1.337  0.2981 -0.4317 -0.0652
  271TIP3    H122448   1.892   3.257   1.341 -0.9253 -0.4032 -1.3751
  271TIP3    H222449   1.835   3.131   1.404 -1.0829 -0.2434 -1.1963
  272TIP3   OH222450   4.416   6.057   6.894 -0.1762 -0.0503 -0.1596
  272TIP3    H122451   4.359   5.993   6.851  0.0673 -1.8692  1.9950
  272TIP3    H222452   4.505   6.031   6.870  0.0563 -2.0234  2.3850
  273TIP3   OH222453   2.064   3.503   6.282 -0.6832  0.1116  0.3270
  273TIP3    H122454   2.078   3.569   6.215 -1.6313  1.3183  1.2755
  273TIP3    H222455   2.103   3.423   6.245 -0.4345  0.9283 -1.2782
  274TIP3   OH222456   3.687   3.455   7.942 -0.0827  0.0910  0.3152
  274TIP3    H122457   3.687   3.363   7.965  1.6100 -0.3244 -1.1204
  274TIP3    H222458   3.624   3.462   7.871  0.7095 -0.2357 -0.4376
  275TIP3   OH222459   2.223   3.063   6.361 -0.2137 -0.4979  0.4510
  275TIP3    H122460   2.212   2.968   6.372 -1.2357 -0.6215 -1.2147
  275TIP3    H222461   2.284   3.071   6.287  0.0060  0.1507  0.6986
  276TIP3   OH222462   5.980   2.811   8.307  0.3714 -0.4171  0.2170
  276TIP3    H122463   5.983   2.748   8.235  1.2621 -0.1501  0.0106
  276TIP3    H222464   6.061   2.861   8.299 -1.0419  1.8929 -0.6498
  277TIP3   OH222465   6.758   3.241   0.052 -0.1288 -0.2628 -0.2496
  277TIP3    H122466   6.818   3.210  -0.016 -0.6744 -0.5366 -0.6166
  277TIP3    H222467   6.742   3.164   0.106 -2.3665 -1.0116 -1.8086
  278TIP3   OH222468   0.303   3.397   1.994  0.3679 -0.2120  0.0855
  278TIP3    H122469   0.277   3.376   1.905 -2.1030  0.6766  0.5013
  278TIP3    H222470   0.221   3.421   2.038  1.5079 -0.5380  2.5781
  279TIP3   OH222471   2.317   3.741   2.002  0.6567  0.2287 -0.0322
  279TIP3    H122472   2.407   3.723   2.026  0.5914  0.5078  0.4353
  279TIP3    H222473   2.294   3.820   2.052  0.3284  0.4693 -0.5565
  280TIP3   OH222474   6.715   4.184   6.266 -0.0970 -0.2161 -0.1097
  280TIP3    H122475   6.763   4.171   6.348 -0.4166 -1.0904 -0.0500
  280TIP3    H222476   6.782   4.203   6.201  0.0599  2.1847  0.6490
  281TIP3   OH222477   5.717   1.723   8.633  0.2003 -0.0178 -0.0225
  281TIP3    H122478   5.780   1.760   8.693 -0.1196 -0.6242  0.7065
  281TIP3    H222479   5.680   1.798   8.586 -0.6869  0.6408  1.6528
  282TIP3   OH222480   6.333   2.958   0.149 -0.4481  0.1799  0.0700
  282TIP3    H122481   6.299   3.012   0.220 -2.0961  1.5652 -1.6655
  282TIP3    H222482   6.268   2.966   0.080  1.0876 -1.1062 -1.6189
  283TIP3   OH222483   1.111   0.440   7.766 -0.2976  0.2198  0.4058
  283TIP3    H122484   1.087   0.347   7.770  0.5186  0.0488  1.6839
  283TIP3    H222485   1.049   0.483   7.824  0.5896  0.1783  1.4075
  284TIP3   OH222486   4.279   0.377   0.194  0.5528  0.3389 -0.1654
  284TIP3    H122487   4.357   0.380   0.139 -1.4195  3.2246 -3.1516
  284TIP3    H222488   4.226   0.305   0.158  0.1228  0.9478 -0.7577
  285TIP3   OH222489   6.837   1.943   0.232  0.2730 -0.2154 -0.5202
  285TIP3    H122490   6.904   1.935   0.165 -0.0290  1.3711 -1.0595
  285TIP3    H222491   6.827   2.038   0.245 -0.3941 -0.4564  1.0369
  286TIP3   OH222492   0.745   0.699   1.665 -0.4050  0.1622 -0.3060
  286TIP3    H122493   0.817   0.752   1.697  0.7340 -1.5757  0.1831
  286TIP3    H222494   0.666   0.742   1.698  0.5248  0.8827  1.0747
  287TIP3   OH222495   4.599   6.409   7.255  0.4177  0.3724 -0.0206
  287TIP3    H122496   4.549   6.361   7.190  0.8440 -0.4276  0.2309
  287TIP3    H222497   4.573   6.500   7.243 -0.7136  0.0393 -0.2260
  288TIP3   OH222498   2.873   0.237   2.028 -0.5176  0.0687  0.7649
  288TIP3    H122499   2.901   0.150   1.998 -0.4075 -0.4302  2.2624
  288TIP3    H222500   2.780   0.227   2.047 -1.5567  1.3649 -2.8473
  289TIP3   OH222501   2.468   4.187   0.775 -0.0029  0.0592 -0.1105
  289TIP3    H122502   2.378   4.220   0.782  0.0582  0.0658  0.8023
  289TIP3    H222503   2.471   4.142   0.691 -1.4936 -1.7875  0.7692
  290TIP3   OH222504   0.376   3.355   8.031 -0.0786 -0.1860 -0.0903
  290TIP3    H122505   0.440   3.425   8.043  0.5613 -1.0237  1.8099
  290TIP3    H222506   0.365   3.348   7.936  0.2293  2.0905 -0.3536
  291TIP3   OH222507   2.355   5.742   6.998  0.6141 -0.2812  0.2311
  291TIP3    H122508   2.283   5.763   7.057  1.1580  1.5724  0.3212
  291TIP3    H222509   2.315   5.690   6.928 -1.0590  1.4546 -0.2113
  292TIP3   OH222510   2.636   5.455   6.120 -0.4179  0.1443  0.7803
  292TIP3    H122511   2.694   5.497   6.183  0.9969  0.5451 -0.6990
  292TIP3    H222512   2.632   5.517   6.047 -0.9193 -0.8597 -0.0792
  293TIP3   OH222513   2.858   6.368   6.873  0.2233  0.4706  0.5551
  293TIP3    H122514   2.951   6.376   6.893  0.7169 -1.7561 -0.4533
  293TIP3    H222515   2.855   6.308   6.799 -2.0770 -0.6572  1.4524
  294TIP3   OH222516   0.512   0.360   6.611  0.6376  0.1897  0.6815
  294TIP3    H122517   0.571   0.294   6.574 -1.2281 -0.7806 -0.7484
  294TIP3    H222518   0.434   0.310   6.636 -1.5044  1.9292 -1.8873
  295TIP3   OH222519   1.344   0.492   7.514  0.1462  0.0464  0.3251
  295TIP3    H122520   1.312   0.478   7.425 -1.3559 -0.2958  0.9061
  295TIP3    H222521   1.288   0.561   7.549  2.2912  1.9641  0.2242
  296TIP3   OH222522   0.602   2.984   0.665 -0.7315 -0.3360  0.3659
  296TIP3    H122523   0.533   3.023   0.612 -1.0710 -1.5251 -0.1034
  296TIP3    H222524   0.624   3.051   0.730  0.1838  1.4790 -1.6803
  297TIP3   OH222525   6.578   5.677   8.373  0.4173 -0.0379  0.5627
  297TIP3    H122526   6.550   5.738   8.441  1.0328  0.2998  0.5181
  297TIP3    H222527   6.511   5.609   8.373  0.4721 -0.1087  1.5956
  298TIP3   OH222528   3.412   4.453   0.494 -0.1103 -0.3492 -0.3048
  298TIP3    H122529   3.330   4.408   0.474 -0.6438 -1.0119  2.7961
  298TIP3    H222530   3.386   4.542   0.516  0.1614 -0.2168 -0.5168
  299TIP3   OH222531   0.375   4.987   0.230 -0.2173 -0.9381  0.0646
  299TIP3    H122532   0.428   4.950   0.301  1.0431 -2.2986 -1.4830
  299TIP3    H222533   0.331   5.062   0.269 -0.2424 -2.1075  2.4990
  300TIP3   OH222534   5.547   3.985   0.076  0.3046 -0.1825  0.4167
  300TIP3    H122535   5.642   3.976   0.077  0.2785 -0.5848  1.9828
  300TIP3    H222536   5.527   4.037   0.154 -0.7506  0.1006 -0.0214
  301TIP3   OH222537   2.478   1.338   0.601 -0.1570 -0.0806  0.4830
  301TIP3    H122538   2.496   1.418   0.650 -1.7065  0.1542  0.7438
  301TIP3    H222539   2.389   1.351   0.567  0.1510 -1.0477 -0.7666
  302TIP3   OH222540   6.283   1.171   1.846  0.5430  0.0942 -0.3875
  302TIP3    H122541   6.333   1.249   1.869 -0.3778  0.5310  0.1891
  302TIP3    H222542   6.197   1.186   1.884  0.3344 -1.1849 -0.3090
  303TIP3   OH222543   1.823   2.823   1.387  0.2156 -0.2332  0.8134
  303TIP3    H122544   1.758   2.878   1.430  1.3080  0.3416  1.8030
  303TIP3    H222545   1.864   2.773   1.459 -0.5457 -2.1591 -0.0127
  304TIP3   OH222546   4.470   1.940   1.718 -0.2608  0.1847 -0.3683
  304TIP3    H122547   4.460   1.939   1.623  2.1303  0.5518 -0.7045
  304TIP3    H222548   4.477   1.848   1.743 -0.1808  0.1114 -0.6597
  305TIP3   OH222549   0.245   1.141   0.673  0.3382  0.4870 -0.1112
  305TIP3    H122550   0.253   1.049   0.698  0.6848  0.7152  0.6541
  305TIP3    H222551   0.260   1.189   0.754 -2.3845  1.1538  0.0827
  306TIP3   OH222552   0.065   1.036   1.133  0.3525  0.3698 -0.0741
  306TIP3    H122553   0.025   0.950   1.142  0.8649  0.1553  0.2514
  306TIP3    H222554  -0.008   1.097   1.127 -0.0199 -0.1414 -0.8816
  307TIP3   OH222555   6.432   6.095   6.892  0.5781 -0.2921 -0.3246
  307TIP3    H122556   6.467   6.102   6.803  0.0979  0.7322 -0.4564
  307TIP3    H222557   6.338   6.114   6.881  0.6550  0.6402  0.4892
  308TIP3   OH222558   1.652   6.715   0.376  0.4749  0.6834 -0.5973
  308TIP3    H122559   1.565   6.675   0.370  0.0421  0.8870  2.4862
  308TIP3    H222560   1.635   6.802   0.413  1.9978  0.4474  0.7528
  309TIP3   OH222561   0.674   6.134   0.560 -0.5042 -0.3456  0.1419
  309TIP3    H122562   0.716   6.065   0.509  0.1109  0.2047 -0.1151
  309TIP3    H222563   0.618   6.088   0.622 -1.7990 -1.0104 -1.4774
  310TIP3   OH222564   6.194   5.250   8.037 -0.2895  0.1410 -0.2862
  310TIP3    H122565   6.157   5.219   8.120  0.4782 -0.3055 -0.1009
  310TIP3    H222566   6.156   5.194   7.970  0.5514 -0.7618 -0.0263
  311TIP3   OH222567   0.530   3.026   0.284 -0.0450 -0.2252 -0.2817
  311TIP3    H122568   0.486   2.944   0.259 -2.1061  0.3753  1.0923
  311TIP3    H222569   0.502   3.042   0.374 -1.9158  3.2629 -1.2654
  312TIP3   OH222570   4.126   4.988   6.619 -0.1703  0.6905 -0.3532
  312TIP3    H122571   4.203   5.012   6.671  0.0322 -1.1242  0.2321
  312TIP3    H222572   4.158   4.986   6.529  0.2615  0.7262 -0.2041
  313TIP3   OH222573   6.694   2.740   1.622  0.7782 -0.4606 -0.1346
  313TIP3    H122574   6.683   2.829   1.657 -2.8259 -0.9246  0.2612
  313TIP3    H222575   6.727   2.689   1.695  3.6716  0.5555 -0.5699
  314TIP3   OH222576   0.589   5.376   7.724  0.7372 -0.6101  0.6722
  314TIP3    H122577   0.621   5.416   7.805 -0.9568 -2.1612  2.2018
  314TIP3    H222578   0.551   5.449   7.675  2.4488  0.4856  0.8770
  315TIP3   OH222579   4.421   2.387   8.467  0.1049 -0.3647 -0.2347
  315TIP3    H122580   4.365   2.363   8.541 -1.0184 -1.5013 -1.4068
  315TIP3    H222581   4.510   2.379   8.500 -0.3592 -1.7299  0.7455
  316TIP3   OH222582   4.301   3.940   1.771 -0.3391 -0.2017 -0.2458
  316TIP3    H122583   4.324   3.954   1.863  0.5785  0.3854 -0.5510
  316TIP3    H222584   4.372   3.885   1.737 -0.4306 -0.0342 -0.7173
  317TIP3   OH222585   6.523   2.501   7.450  0.4957 -0.3479 -0.4973
  317TIP3    H122586   6.430   2.482   7.439  0.3157 -0.4383  0.9242
  317TIP3    H222587   6.552   2.533   7.365 -0.8801 -0.1550 -0.9098
  318TIP3   OH222588   4.103   0.990   6.965  0.1772 -0.2370  0.2379
  318TIP3    H122589   4.177   0.929   6.960 -0.4463 -0.9457 -0.9247
  318TIP3    H222590   4.034   0.947   6.914 -0.4082  1.2858 -0.2922
  319TIP3   OH222591   6.146   6.354   1.629 -0.1396 -0.0764  0.4873
  319TIP3    H122592   6.095   6.273   1.639  0.1336 -0.2397  0.5781
  319TIP3    H222593   6.194   6.361   1.711  0.0846  0.0072  0.3476
  320TIP3   OH222594   3.706   4.588   7.858 -0.3542  0.6282  0.0247
  320TIP3    H122595   3.778   4.551   7.908 -0.6844  0.7508  0.6046
  320TIP3    H222596   3.748   4.633   7.785  0.0900 -0.2376 -0.2670
  321TIP3   OH222597   0.798   1.875   0.634  0.5512  0.0983 -0.4708
  321TIP3    H122598   0.884   1.864   0.592  0.8007  0.7040 -0.1234
  321TIP3    H222599   0.741   1.904   0.563  0.6675 -0.1413 -0.6659
  322TIP3   OH222600   2.937   1.328   7.678 -0.5267  0.7159  0.4670
  322TIP3    H122601   3.026   1.360   7.691  0.2148 -0.2127 -1.9120
  322TIP3    H222602   2.942   1.234   7.693 -0.5802  0.3103 -1.7393
  323TIP3   OH222603   1.806   5.976   7.808 -0.1242 -0.5692 -0.3049
  323TIP3    H122604   1.875   5.973   7.874 -0.2659 -1.3917 -0.1763
  323TIP3    H222605   1.811   6.064   7.771  0.6837 -0.4669  0.0303
  324TIP3   OH222606   2.916   2.653   1.186  0.2317 -0.0152  0.4402
  324TIP3    H122607   2.832   2.689   1.212  0.5277  0.1774  1.1483
  324TIP3    H222608   2.959   2.630   1.268  1.9424  2.2818  0.3128
  325TIP3   OH222609   0.905   6.083   8.474 -0.4758  0.1670 -0.6991
  325TIP3    H122610   0.997   6.110   8.476 -0.1946 -0.7718  0.7470
  325TIP3    H222611   0.907   5.989   8.459 -0.9975 -0.3714  1.9713
  326TIP3   OH222612   0.816   2.753   7.749 -0.0086  0.0479 -0.2119
  326TIP3    H122613   0.771   2.835   7.771  0.1785 -0.0756  0.6875
  326TIP3    H222614   0.879   2.778   7.682  0.3210  0.7245  0.3294
  327TIP3   OH222615   1.933   4.793   2.032  0.1060 -0.8397  0.5612
  327TIP3    H122616   1.845   4.830   2.042 -0.4645 -1.9274 -0.2486
  327TIP3    H222617   1.987   4.842   2.095 -0.7950  0.7101  0.1795
  328TIP3   OH222618   2.528   0.079   8.154  0.0191  0.0263  0.0221
  328TIP3    H122619   2.606   0.061   8.207  1.0210  0.8141 -1.1268
  328TIP3    H222620   2.479   0.144   8.205  0.8243  0.5640  0.1364
  329TIP3   OH222621   3.748   2.418   1.694  0.5354  0.1126  0.2295
  329TIP3    H122622   3.755   2.323   1.703  0.0597  0.0849  0.3142
  329TIP3    H222623   3.729   2.450   1.782  2.1639  0.4351  0.4969
  330TIP3   OH222624   1.731   5.913   1.195 -0.2351 -0.5366 -0.0200
  330TIP3    H122625   1.740   5.933   1.288 -0.4512 -0.6731  0.0318
  330TIP3    H222626   1.802   5.850   1.177  1.8314  1.8340 -0.6762
  331TIP3   OH222627   1.735   3.130   0.817  0.6063  0.8736  0.6526
  331TIP3    H122628   1.752   3.052   0.765  0.2829  0.9623  0.4094
  331TIP3    H222629   1.821   3.168   0.833  0.8816 -0.0894  1.6492
  332TIP3   OH222630   1.411   1.876   0.714  0.2478 -0.7875 -0.3319
  332TIP3    H122631   1.332   1.913   0.755 -0.9308 -1.2951 -2.0502
  332TIP3    H222632   1.458   1.952   0.680 -0.7396 -0.6077 -1.3730
  333TIP3   OH222633   5.912   0.437   0.721  0.2270 -0.2125 -0.1768
  333TIP3    H122634   5.840   0.464   0.664  0.7582  0.1375 -0.6991
  333TIP3    H222635   5.982   0.413   0.661  0.3772 -1.0626  0.3182
  334TIP3   OH222636   3.600   5.257   0.165 -0.3686 -0.7879 -0.7565
  334TIP3    H122637   3.620   5.164   0.161  0.9588 -0.4966 -1.3747
  334TIP3    H222638   3.575   5.280   0.075 -0.0362 -0.4180 -0.7589
  335TIP3   OH222639   5.302   3.141   0.856 -0.2097  0.0111 -0.0543
  335TIP3    H122640   5.341   3.200   0.920  0.0706  1.9260 -1.8796
  335TIP3    H222641   5.377   3.092   0.821 -0.2527 -0.4279  0.4489
  336TIP3   OH222642   1.168   3.047   0.845  0.5056 -0.4310  0.0303
  336TIP3    H122643   1.245   3.002   0.879  1.8464  0.9827 -0.9784
  336TIP3    H222644   1.185   3.140   0.864 -1.1048 -0.1142  0.0600
  337TIP3   OH222645   5.498   6.732   8.634  0.6890  0.3101  0.1717
  337TIP3    H122646   5.480   6.718   8.541  1.5748  0.5195 -0.0384
  337TIP3    H222647   5.464   6.819   8.653  0.0157  0.0506  0.1825
  338TIP3   OH222648   1.273   1.321   6.009 -0.3273 -0.2945  0.2077
  338TIP3    H122649   1.292   1.231   5.983 -0.0578 -0.0077 -0.6453
  338TIP3    H222650   1.220   1.356   5.937  2.1560  1.1633 -1.0642
  339TIP3   OH222651   5.480   0.185   0.383 -0.4051 -0.3749 -0.4349
  339TIP3    H122652   5.426   0.108   0.400  0.8985 -1.0591  0.7477
  339TIP3    H222653   5.452   0.249   0.448 -1.0466 -0.0654 -1.0069
  340TIP3   OH222654   6.147   2.104   1.479 -0.1891 -0.1658 -0.4870
  340TIP3    H122655   6.061   2.089   1.440  0.5019 -0.2112 -2.0805
  340TIP3    H222656   6.185   2.017   1.488 -1.7020 -0.6237  3.8760
  341TIP3   OH222657   1.864   0.529   1.676 -0.5293 -0.3828  0.1212
  341TIP3    H122658   1.872   0.450   1.729  1.1009 -1.0975 -1.1079
  341TIP3    H222659   1.931   0.588   1.709  1.0235 -1.1266 -1.5397
  342TIP3   OH222660   3.284   2.669   2.099  0.2727 -0.2526  0.1222
  342TIP3    H122661   3.362   2.721   2.115 -0.0817  0.6999 -1.1371
  342TIP3    H222662   3.317   2.580   2.084  0.9682 -0.1866  1.1543
  343TIP3   OH222663   2.919   4.139   8.315  0.0539 -0.2039 -0.1148
  343TIP3    H122664   2.935   4.146   8.409  0.8401 -0.4885 -0.2172
  343TIP3    H222665   2.903   4.228   8.286 -0.5980 -0.1620  0.3536
  344TIP3   OH222666   0.844   5.942   0.784  0.0354  0.4870 -0.2631
  344TIP3    H122667   0.770   5.974   0.835 -1.3723  0.0977 -1.9574
  344TIP3    H222668   0.917   5.938   0.846 -0.0986  5.1375  0.5692
  345TIP3   OH222669   2.387   2.454   6.521 -0.1182 -0.0773 -0.1771
  345TIP3    H122670   2.301   2.485   6.494  0.3514  1.2153 -0.2762
  345TIP3    H222671   2.446   2.528   6.504  0.8167 -0.5141  0.9648
  346TIP3   OH222672   2.807   4.670   7.111 -0.3873  0.3734  0.4773
  346TIP3    H122673   2.736   4.726   7.140 -0.4892 -0.0797  1.1209
  346TIP3    H222674   2.771   4.582   7.113  0.5769 -0.0220  2.1261
  347TIP3   OH222675   3.630   6.509   7.845  0.4433  0.3040  0.2260
  347TIP3    H122676   3.621   6.423   7.803  2.8552 -1.4202  2.9157
  347TIP3    H222677   3.547   6.521   7.892  0.1561 -0.6601 -0.0091
  348TIP3   OH222678   0.210   5.368   6.695  0.2411  0.3351  0.5369
  348TIP3    H122679   0.243   5.408   6.615  0.7665 -2.1520 -0.6030
  348TIP3    H222680   0.121   5.338   6.672  1.4935 -3.2428 -0.3643
  349TIP3   OH222681   4.682   6.007   7.034  0.0203 -0.0002  0.0069
  349TIP3    H122682   4.711   5.926   6.991 -1.8980 -0.2496 -0.9448
  349TIP3    H222683   4.623   5.977   7.103 -0.6720  0.5738 -0.3288
  350TIP3   OH222684   4.239   2.828   7.772  0.1474  0.3117 -0.0145
  350TIP3    H122685   4.276   2.891   7.710 -0.8323 -0.4284 -1.4370
  350TIP3    H222686   4.182   2.880   7.829  1.4621  1.0815  0.6268
  351TIP3   OH222687   6.358   5.924   0.163  0.2228  0.0220 -0.2204
  351TIP3    H122688   6.440   5.970   0.145  0.7862  0.1877  2.3402
  351TIP3    H222689   6.298   5.993   0.192  0.1433 -0.4487  0.7778
  352TIP3   OH222690   2.177   0.558   0.687  0.2979 -0.5316 -0.3915
  352TIP3    H122691   2.214   0.526   0.769 -1.7231 -1.5795  0.1766
  352TIP3    H222692   2.116   0.489   0.659 -2.1003  1.5107 -0.6287
  353TIP3   OH222693   2.923   0.601   7.453 -0.8425 -0.3315  0.2815
  353TIP3    H122694   2.879   0.685   7.463 -1.6369 -0.7126  0.1100
  353TIP3    H222695   2.994   0.603   7.517  0.2239  1.1365 -0.8942
  354TIP3   OH222696   4.906   5.370   7.615 -0.2384 -0.1810 -0.2694
  354TIP3    H122697   4.985   5.409   7.577 -0.4284 -0.1064 -0.5932
  354TIP3    H222698   4.834   5.422   7.579 -0.3550  0.7669  1.2485
  355TIP3   OH222699   6.167   0.774   0.496  0.8659 -0.7250 -0.3398
  355TIP3    H122700   6.261   0.790   0.495  0.7446  0.0403  0.0294
  355TIP3    H222701   6.134   0.828   0.568  0.1811 -1.1871 -0.2993
  356TIP3   OH222702   4.446   5.218   0.895  0.0224  0.1336  0.6126
  356TIP3    H122703   4.358   5.253   0.902 -0.0809 -0.3394  2.0916
  356TIP3    H222704   4.484   5.230   0.983  0.6993 -1.5017  0.5791
  357TIP3   OH222705   4.701   2.459   0.590  0.8354 -0.8643 -0.3157
  357TIP3    H122706   4.647   2.515   0.534  0.4119  1.8877  2.5926
  357TIP3    H222707   4.659   2.373   0.585 -0.7985 -0.0368 -2.0184
  358TIP3   OH222708   0.758   0.265   8.211 -0.0696  0.1381  0.0644
  358TIP3    H122709   0.845   0.292   8.239 -0.1129  2.0799 -1.4674
  358TIP3    H222710   0.769   0.236   8.120 -0.9388 -0.0604  0.0078
  359TIP3   OH222711   0.312   1.743   0.936  0.3056  0.4245 -0.3601
  359TIP3    H122712   0.393   1.754   0.887  0.4325  0.3825 -0.1605
  359TIP3    H222713   0.307   1.821   0.992  0.8431 -0.1681  0.5397
  360TIP3   OH222714   3.664   3.638   6.977 -0.6619  0.4256 -0.4734
  360TIP3    H122715   3.721   3.636   7.054 -2.5712  1.4781  1.0552
  360TIP3    H222716   3.712   3.588   6.911  2.0908  1.3874  0.6315
  361TIP3   OH222717   2.274   0.737   2.242  0.4299 -0.3169 -0.3758
  361TIP3    H122718   2.339   0.751   2.173 -1.5666  2.8667 -1.8315
  361TIP3    H222719   2.320   0.759   2.323  1.4978  0.8361 -1.2558
  362TIP3   OH222720   6.447   1.018   6.379 -0.5823 -0.2464  0.0782
  362TIP3    H122721   6.447   0.959   6.304 -0.5035  0.4190 -0.4542
  362TIP3    H222722   6.494   1.096   6.349 -1.1016  0.2866  0.6121
  363TIP3   OH222723   5.064   0.441   7.399  0.1690  0.0929 -0.0619
  363TIP3    H122724   5.079   0.522   7.448 -2.0664  0.1708  0.6118
  363TIP3    H222725   4.994   0.463   7.337  1.9056 -0.4165 -2.3702
  364TIP3   OH222726   2.883   0.964   7.085  0.0838  0.2767  0.1102
  364TIP3    H122727   2.837   0.883   7.062  1.4825 -0.4072 -0.4110
  364TIP3    H222728   2.850   1.029   7.024  0.3026 -0.3761 -0.7259
  365TIP3   OH222729   2.007   5.580   1.952  0.2784 -0.2413  0.1955
  365TIP3    H122730   1.937   5.639   1.981 -2.7311 -2.8659 -1.1373
  365TIP3    H222731   2.020   5.521   2.026  1.1793  0.2566  0.4503
  366TIP3   OH222732   4.959   3.077   7.737 -0.2547 -0.5131 -0.4965
  366TIP3    H122733   5.037   3.022   7.737 -0.1775 -0.4572  1.2575
  366TIP3    H222734   4.893   3.026   7.784 -0.9643 -0.1496 -1.0829
  367TIP3   OH222735   6.564   1.442   0.193  0.5691  0.3703 -0.1504
  367TIP3    H122736   6.521   1.521   0.159  0.5459  1.1154  1.5034
  367TIP3    H222737   6.599   1.469   0.278 -0.4243 -1.6864  0.9913
  368TIP3   OH222738   5.156   5.592   7.549 -0.1700  0.1122  0.2081
  368TIP3    H122739   5.180   5.669   7.600 -0.1174 -0.0089  0.3668
  368TIP3    H222740   5.209   5.521   7.586  0.8411  0.2761 -0.8436
  369TIP3   OH222741   0.285   4.804   1.180  0.0300 -0.0558  0.4998
  369TIP3    H122742   0.329   4.855   1.248  0.2772 -0.4170  0.6162
  369TIP3    H222743   0.314   4.714   1.196 -0.8681 -0.3257  0.6718
  370TIP3   OH222744   5.483   4.838   6.624  0.2875 -0.4337 -0.4208
  370TIP3    H122745   5.502   4.915   6.678 -0.4554  0.9487 -2.0113
  370TIP3    H222746   5.402   4.802   6.660  1.0201 -0.9461  0.7831
  371TIP3   OH222747   1.872   2.630   0.714 -0.5170  0.0864  0.0969
  371TIP3    H122748   1.798   2.570   0.703 -2.0855  1.9203  0.0823
  371TIP3    H222749   1.899   2.619   0.804 -1.0918 -0.3375  0.2205
  372TIP3   OH222750   6.808   4.354   7.316 -0.2275  0.0500 -0.0717
  372TIP3    H122751   6.871   4.405   7.366 -0.9029  0.0440  0.8292
  372TIP3    H222752   6.809   4.391   7.229  1.0886 -0.0232 -0.1003
  373TIP3   OH222753   5.965   0.124   7.678  0.3953  0.7472 -0.3243
  373TIP3    H122754   6.017   0.173   7.741  0.1972  3.3024 -1.9823
  373TIP3    H222755   6.029   0.076   7.626  0.7320  0.3892  0.4233
  374TIP3   OH222756   2.259   6.302   8.496 -0.1493 -0.3786  0.2547
  374TIP3    H122757   2.303   6.380   8.461  0.3803 -1.5012 -1.6783
  374TIP3    H222758   2.188   6.284   8.435 -1.5858 -0.2601  1.8079
  375TIP3   OH222759   2.148   2.497   1.587  0.5711 -0.6630  0.2864
  375TIP3    H122760   2.125   2.562   1.653  0.2048 -0.9522  0.4516
  375TIP3    H222761   2.098   2.522   1.509 -0.8062 -1.6192  0.8180
  376TIP3   OH222762   6.837   2.199   0.130  0.5926  0.0016  0.1077
  376TIP3    H122763   6.759   2.222   0.180  1.3053  1.0041  0.8268
  376TIP3    H222764   6.814   2.217   0.039 -0.1664 -0.1835  0.2579
  377TIP3   OH222765   4.221   2.136   1.187  0.0964 -0.0846 -0.6035
  377TIP3    H122766   4.233   2.047   1.219 -0.7586 -0.2873 -0.8110
  377TIP3    H222767   4.140   2.132   1.136  0.4498  0.6448 -1.2372
  378TIP3   OH222768   0.930   4.629   7.360 -0.3770 -0.0353 -0.5557
  378TIP3    H122769   0.964   4.644   7.272 -0.5685  0.0615 -0.6128
  378TIP3    H222770   1.006   4.643   7.417  0.1838 -1.8003 -0.8164
  379TIP3   OH222771   0.246   6.595   6.374 -0.1437  0.0485 -0.2818
  379TIP3    H122772   0.196   6.515   6.389 -0.0305 -0.1727 -1.0259
  379TIP3    H222773   0.269   6.626   6.461  2.6963 -2.5486  0.0493
  380TIP3   OH222774   0.668   5.856   1.534 -0.5833  0.0995  0.3926
  380TIP3    H122775   0.761   5.866   1.554 -0.7982 -0.1315  1.6270
  380TIP3    H222776   0.640   5.783   1.590 -1.0849 -1.1912 -1.4273
  381TIP3   OH222777   5.364   0.812   6.309  0.1763 -0.4634  0.4339
  381TIP3    H122778   5.349   0.757   6.232  0.5215 -1.1648  0.8609
  381TIP3    H222779   5.456   0.838   6.302  0.8641 -2.3345  1.7269
  382TIP3   OH222780   2.685   1.457   7.770 -0.0855 -0.5195  0.2156
  382TIP3    H122781   2.762   1.420   7.727 -0.5457 -0.6519 -0.5060
  382TIP3    H222782   2.611   1.417   7.724 -0.5957 -1.2358  1.6023
  383TIP3   OH222783   0.842   1.432   7.515 -0.0164  0.1830 -0.1306
  383TIP3    H122784   0.814   1.414   7.605  0.4456 -1.5534 -0.3111
  383TIP3    H222785   0.922   1.484   7.526  0.0646 -0.0556  0.4695
  384TIP3   OH222786   3.309   2.972   0.141 -0.2316 -0.0097  0.3784
  384TIP3    H122787   3.401   2.983   0.118  0.6777 -0.9060  3.1397
  384TIP3    H222788   3.283   3.058   0.176 -0.6466  0.4029 -0.8950
  385TIP3   OH222789   3.769   5.888   1.795  0.0601  0.1809  0.2541
  385TIP3    H122790   3.728   5.954   1.850 -1.4624 -0.2202 -0.3406
  385TIP3    H222791   3.862   5.892   1.817 -0.5269 -0.2541  3.1136
  386TIP3   OH222792   5.268   1.752   8.668  0.4491  0.8105  0.1771
  386TIP3    H122793   5.182   1.715   8.689  0.5500  0.5947  0.2054
  386TIP3    H222794   5.309   1.689   8.609  1.3938 -0.0970  1.7203
  387TIP3   OH222795   0.027   5.691   8.657 -0.7642 -0.5148 -0.0122
  387TIP3    H122796   0.121   5.695   8.672 -0.7271 -2.1894  0.3945
  387TIP3    H222797  -0.011   5.737   8.732 -0.3038 -0.0878 -0.0299
  388TIP3   OH222798   6.585   5.287   7.260 -0.4556  0.0417  0.4853
  388TIP3    H122799   6.606   5.246   7.343  1.5055 -0.2233 -0.0937
  388TIP3    H222800   6.525   5.359   7.283 -2.4065 -1.8555  1.7304
  389TIP3   OH222801   1.204   0.716   2.055  0.0039 -0.3019  0.0716
  389TIP3    H122802   1.161   0.784   2.003 -0.5864 -0.4232  0.3837
  389TIP3    H222803   1.246   0.763   2.126 -0.4325 -0.2621  0.3059
  390TIP3   OH222804   5.329   3.326   1.660 -0.0256  0.0473  0.1176
  390TIP3    H122805   5.367   3.282   1.584  0.1406  0.5512 -0.0897
  390TIP3    H222806   5.281   3.400   1.624 -0.4975 -0.0968  0.4507
  391TIP3   OH222807   1.438   2.156   7.586 -0.1773  0.1848  0.3152
  391TIP3    H122808   1.419   2.068   7.555 -0.5744  0.5919 -0.6456
  391TIP3    H222809   1.363   2.208   7.557  0.3666  0.9678  0.2843
  392TIP3   OH222810   5.136   2.736   0.386  0.3358 -0.3203  0.0974
  392TIP3    H122811   5.041   2.723   0.388  0.3659 -0.6668 -0.5485
  392TIP3    H222812   5.158   2.765   0.475 -0.8265  3.0363 -0.5672
  393TIP3   OH222813   2.449   6.650   6.269 -0.3740 -0.4611  0.4232
  393TIP3    H122814   2.403   6.573   6.236  1.2784 -1.5151  0.4606
  393TIP3    H222815   2.499   6.618   6.344  3.1894 -0.2963 -1.6365
  394TIP3   OH222816   1.232   2.880   8.350  0.7798  0.4999  0.3789
  394TIP3    H122817   1.312   2.827   8.342  0.4617 -0.0601  0.8678
  394TIP3    H222818   1.163   2.826   8.311  1.0679  2.1041 -2.7051
  395TIP3   OH222819   5.459   1.681   1.951  0.1869  0.2307 -0.0945
  395TIP3    H122820   5.507   1.692   1.868  1.6099  0.8666  0.7579
  395TIP3    H222821   5.490   1.754   2.005  1.8586 -1.9779  2.1548
  396TIP3   OH222822   2.430   5.272   8.316 -0.1298  0.5866 -0.1051
  396TIP3    H122823   2.479   5.212   8.259  1.8510  2.6112 -0.6700
  396TIP3    H222824   2.338   5.251   8.298  0.4462 -0.0299 -2.7936
  397TIP3   OH222825   0.014   0.694   6.519 -0.3764 -0.0089  0.1726
  397TIP3    H122826   0.064   0.764   6.478  0.8571 -1.6139 -1.2204
  397TIP3    H222827   0.053   0.683   6.606  0.6289 -0.1622 -0.2946
  398TIP3   OH222828   3.384   3.510   0.062 -0.4144  0.4047  0.2062
  398TIP3    H122829   3.385   3.478  -0.029 -0.7397  0.4084  0.1972
  398TIP3    H222830   3.475   3.510   0.089 -0.3131  0.4135 -0.1276
  399TIP3   OH222831   1.513   2.124   0.605  0.3566  0.5967 -0.6246
  399TIP3    H122832   1.529   2.182   0.680  0.1162 -0.0572 -0.0530
  399TIP3    H222833   1.598   2.117   0.562  0.8088 -0.0522  0.3483
  400TIP3   OH222834   0.659   0.709   7.899  0.4288  0.3055  0.2655
  400TIP3    H122835   0.642   0.621   7.932  3.5138 -0.5387 -0.0819
  400TIP3    H222836   0.664   0.699   7.804  1.0111  0.8115  0.2397
  401TIP3   OH222837   6.460   0.803   0.452 -0.2298  0.3094 -0.8824
  401TIP3    H122838   6.481   0.750   0.375  0.8260 -0.0233 -0.3859
  401TIP3    H222839   6.531   0.867   0.457 -1.5017  1.8382 -1.4908
  402TIP3   OH222840   2.092   1.389   7.255  0.2163 -0.3895  0.5479
  402TIP3    H122841   2.094   1.295   7.238 -0.0206 -0.7284  2.1988
  402TIP3    H222842   2.047   1.397   7.339  0.6809  1.1603  0.6758
  403TIP3   OH222843   3.280   5.910   1.710 -0.4496  0.4552 -0.1761
  403TIP3    H122844   3.229   5.990   1.724 -0.1619  0.5152  0.6295
  403TIP3    H222845   3.284   5.869   1.797 -0.2610 -0.2345 -0.4998
  404TIP3   OH222846   0.986   4.019   8.383  0.5487  0.1223  0.3666
  404TIP3    H122847   0.971   3.932   8.421  0.1465 -0.0486 -0.1668
  404TIP3    H222848   0.899   4.059   8.383  0.6116  0.2530 -0.0447
  405TIP3   OH222849   5.772   6.687   8.492  0.4749  0.2327  0.4240
  405TIP3    H122850   5.700   6.624   8.484 -0.0980  0.9177 -0.0240
  405TIP3    H222851   5.805   6.697   8.403 -0.1882  1.3984  0.2844
  406TIP3   OH222852   4.817   4.933   6.410 -0.0751 -0.0699  0.1148
  406TIP3    H122853   4.831   5.026   6.423  2.7666 -0.4784  0.5037
  406TIP3    H222854   4.723   4.920   6.427 -0.1895  2.4053  1.8595
  407TIP3   OH222855   6.815   0.500   6.029  0.6736  0.2336  0.4012
  407TIP3    H122856   6.770   0.565   5.975  2.1634  0.8708 -0.1334
  407TIP3    H222857   6.747   0.464   6.086 -0.6005  0.7689 -0.7286
  408TIP3   OH222858   6.491   3.829   8.421  0.3014 -0.1659 -0.3720
  408TIP3    H122859   6.455   3.839   8.509 -0.5015  0.3700 -0.7451
  408TIP3    H222860   6.423   3.785   8.372  0.3006  0.5003 -0.9911
  409TIP3   OH222861   1.761   1.166   7.270 -0.4763 -0.5873 -0.3461
  409TIP3    H122862   1.732   1.075   7.263 -1.2400 -0.2306 -2.5573
  409TIP3    H222863   1.691   1.209   7.319 -0.7740 -0.9108 -0.4841
  410TIP3   OH222864   0.991   0.613   6.505 -0.2993 -0.1661  0.2198
  410TIP3    H122865   1.080   0.578   6.508 -0.6943 -1.2621 -0.3242
  410TIP3    H222866   0.982   0.662   6.587  0.4796 -0.8841  0.7555
  411TIP3   OH222867   3.292   5.587   8.450 -0.3012  0.2852 -0.1843
  411TIP3    H122868   3.247   5.585   8.535 -2.1011 -0.6959 -1.0921
  411TIP3    H222869   3.229   5.630   8.392 -0.1106 -1.2095 -1.5323
  412TIP3   OH222870   0.374   4.141   6.382  0.0178 -0.5909 -0.0320
  412TIP3    H122871   0.324   4.221   6.401  0.8627 -0.2473  0.8145
  412TIP3    H222872   0.460   4.157   6.420  0.4015 -1.6616 -0.4170
  413TIP3   OH222873   0.013   3.059   8.041  0.3653 -0.4863  0.1750
  413TIP3    H122874  -0.081   3.075   8.041  0.3205 -0.7292 -0.5205
  413TIP3    H222875   0.051   3.138   8.079 -0.0940 -0.2405  0.1274
  414TIP3   OH222876   2.682   2.003   7.106  0.3041  0.6686 -0.0759
  414TIP3    H122877   2.672   1.918   7.150  1.6769 -0.1890 -1.3348
  414TIP3    H222878   2.772   2.002   7.073 -0.6721  1.1972 -3.0173
  415TIP3   OH222879   2.122   1.384   6.562 -0.3098  0.0625 -0.3083
  415TIP3    H122880   2.164   1.433   6.491  1.2882  1.6452  1.6172
  415TIP3    H222881   2.188   1.319   6.588 -1.1217 -0.9191 -0.6310
  416TIP3   OH222882   1.991   4.293   7.468 -0.0702 -0.3995 -0.0418
  416TIP3    H122883   2.037   4.350   7.530  1.4802 -0.9002 -0.6842
  416TIP3    H222884   1.950   4.354   7.406  0.9012  0.0689 -0.2595
  417TIP3   OH222885   5.431   2.467   7.625  0.0722 -1.0448 -0.5148
  417TIP3    H122886   5.407   2.455   7.717  1.5711 -1.2479 -0.1089
  417TIP3    H222887   5.349   2.489   7.581 -1.1764 -3.5644  0.3671
  418TIP3   OH222888   2.065   0.638   8.244  0.2313  0.6074 -0.4108
  418TIP3    H122889   1.990   0.697   8.240  1.6127  2.3944 -1.6334
  418TIP3    H222890   2.056   0.583   8.167 -0.1990  0.3002 -0.1478
  419TIP3   OH222891   1.648   2.409   6.233  0.7843 -0.0234  0.0447
  419TIP3    H122892   1.647   2.359   6.152  0.3685  0.5080 -0.2836
  419TIP3    H222893   1.709   2.362   6.290  0.1066 -1.1151 -0.1158
  420TIP3   OH222894   6.204   6.167   0.471  0.1679 -0.0167  0.1235
  420TIP3    H122895   6.194   6.146   0.563  0.7105  0.7732  0.3736
  420TIP3    H222896   6.276   6.229   0.468 -1.1800  1.6099 -0.5779
  421TIP3   OH222897   3.213   4.617   7.450 -0.0772 -0.1873 -0.0317
  421TIP3    H122898   3.219   4.599   7.356  0.9363 -0.1798  0.0193
  421TIP3    H222899   3.285   4.567   7.489 -0.2842  0.0696  0.6983
  422TIP3   OH222900   0.764   6.657   0.025 -0.1305 -0.0763 -0.7633
  422TIP3    H122901   0.731   6.746   0.013  1.5695  0.8087  0.6110
  422TIP3    H222902   0.819   6.642  -0.052 -2.0693 -0.8114 -2.0706
  423TIP3   OH222903   0.020   3.368   7.102 -0.2361 -0.4910 -0.0799
  423TIP3    H122904   0.051   3.296   7.047  0.0907 -0.9475  0.6967
  423TIP3    H222905  -0.001   3.438   7.039  1.3960 -0.5191 -0.7081
  424TIP3   OH222906   6.552   4.056   8.648  0.0141 -0.2408  0.4850
  424TIP3    H122907   6.514   4.144   8.652  1.2168  0.3015  0.4407
  424TIP3    H222908   6.594   4.052   8.562 -3.4275 -2.3583 -1.3420
  425TIP3   OH222909   4.312   5.808   6.344  0.4927 -0.6330 -0.4479
  425TIP3    H122910   4.237   5.784   6.398 -1.1572  1.1411 -1.8582
  425TIP3    H222911   4.295   5.767   6.259  1.5285 -0.8295 -0.5785
  426TIP3   OH222912   6.633   1.020   1.344  0.3549  0.2032 -0.2318
  426TIP3    H122913   6.703   0.961   1.314  1.2179 -0.8469  3.3224
  426TIP3    H222914   6.678   1.086   1.396 -0.8874  2.6640 -2.1118
  427TIP3   OH222915   2.411   1.838   0.045 -0.4080 -0.4333 -0.1412
  427TIP3    H122916   2.441   1.785   0.118 -2.6733 -1.1028  0.3801
  427TIP3    H222917   2.384   1.775  -0.021  1.3687  0.1638 -1.5265
  428TIP3   OH222918   2.134   3.961   7.689 -0.7754 -0.6835  0.0612
  428TIP3    H122919   2.128   4.022   7.764  1.0083 -1.0542  0.5551
  428TIP3    H222920   2.165   4.016   7.617 -1.5365 -0.5280 -0.1550
  429TIP3   OH222921   4.399   6.276   7.100  0.3905  0.2902 -0.2148
  429TIP3    H122922   4.335   6.324   7.048  0.0902 -0.5951 -0.6816
  429TIP3    H222923   4.424   6.201   7.046  0.7786 -0.1398  0.5313
  430TIP3   OH222924   5.052   6.462   7.195 -0.0439 -0.5200 -0.1019
  430TIP3    H122925   4.977   6.521   7.196  0.6313  0.3594  0.0600
  430TIP3    H222926   5.122   6.511   7.238  0.7817 -1.0957 -0.7481
  431TIP3   OH222927   3.274   4.071   0.591  0.0540  0.0703  0.1102
  431TIP3    H122928   3.366   4.046   0.598 -0.0266 -0.6358 -1.1765
  431TIP3    H222929   3.232   4.034   0.669  0.5630 -0.9882 -0.1079
  432TIP3   OH222930   2.399   0.829   0.459  0.3859  0.4249 -0.4301
  432TIP3    H122931   2.317   0.779   0.466  0.3488  0.5904  0.5717
  432TIP3    H222932   2.371   0.920   0.454  0.4724  0.3946 -1.6618
  433TIP3   OH222933   5.374   6.806   0.801  0.4728 -0.0589  0.0268
  433TIP3    H122934   5.359   6.726   0.750 -1.7839  0.5575 -0.3717
  433TIP3    H222935   5.368   6.778   0.892 -2.2316 -0.1005 -0.0997
  434TIP3   OH222936   4.940   4.876   8.285 -0.3798  0.1616  0.4025
  434TIP3    H122937   4.929   4.787   8.251  2.0396  0.0962 -0.4066
  434TIP3    H222938   4.938   4.866   8.380  0.4416 -0.8957  0.3348
  435TIP3   OH222939   3.599   1.478   8.246 -0.0920  0.5928  0.2316
  435TIP3    H122940   3.563   1.522   8.169  0.1544  2.2339  1.0132
  435TIP3    H222941   3.594   1.544   8.316 -1.8741 -1.3304  2.0987
  436TIP3   OH222942   1.136   4.374   7.906  0.2311  0.1391  0.0066
  436TIP3    H122943   1.213   4.403   7.954  0.1203  0.0639  0.2303
  436TIP3    H222944   1.141   4.278   7.908  0.2793  0.1369 -0.2171
  437TIP3   OH222945   6.841   1.037   0.295  0.4289  0.1986  0.0794
  437TIP3    H122946   6.750   1.049   0.270  1.1054  0.0587 -2.8796
  437TIP3    H222947   6.859   1.108   0.356 -1.0227  1.8082 -1.2540
  438TIP3   OH222948   4.181   2.790   0.777 -0.0264  0.1166  0.0460
  438TIP3    H122949   4.154   2.881   0.766 -1.1684 -0.0271  1.4078
  438TIP3    H222950   4.269   2.795   0.814 -0.2503  0.6704  0.4982
  439TIP3   OH222951   5.340   1.374   5.442 -0.5410  0.6146  0.4573
  439TIP3    H122952   5.340   1.314   5.517 -1.0350 -1.8537 -1.3801
  439TIP3    H222953   5.254   1.362   5.401  0.3242  0.5468 -1.4581
  440TIP3   OH222954   4.278   4.151   0.031 -0.4857  0.0093 -0.0630
  440TIP3    H122955   4.359   4.144   0.082 -1.8404 -0.2171  2.1812
  440TIP3    H222956   4.298   4.216  -0.036  0.6987  2.3386  2.3324
  441TIP3   OH222957   1.914   2.277   0.752 -0.0172  0.1471 -0.1483
  441TIP3    H122958   1.821   2.280   0.771  0.1661  1.2284  0.6448
  441TIP3    H222959   1.933   2.184   0.738 -0.5034 -0.6414  3.4739
  442TIP3   OH222960   3.060   2.480   2.187 -0.1048  0.3958  0.4308
  442TIP3    H122961   3.106   2.564   2.183  2.0639 -0.4797  3.5233
  442TIP3    H222962   3.117   2.419   2.142 -1.5728  0.4225 -1.6089
  443TIP3   OH222963   0.201   1.639   1.860  0.2416  0.3352 -0.1302
  443TIP3    H122964   0.241   1.572   1.804 -0.3346 -0.6871  0.6476
  443TIP3    H222965   0.107   1.629   1.847  0.0804 -0.1383  1.2299
  444TIP3   OH222966   1.302   5.871   7.253 -0.6001 -0.0071 -0.2068
  444TIP3    H122967   1.345   5.956   7.256 -1.8052  0.6585 -1.0490
  444TIP3    H222968   1.215   5.889   7.218 -1.5252 -1.3359  1.2664
  445TIP3   OH222969   2.181   2.745   0.714 -0.0318 -0.2961 -0.1945
  445TIP3    H122970   2.199   2.704   0.629  1.5465  0.3931 -0.2108
  445TIP3    H222971   2.149   2.673   0.769 -1.4916 -0.6692 -1.4671
  446TIP3   OH222972   2.959   2.904   7.653  0.1960 -0.1487 -0.6991
  446TIP3    H122973   3.008   2.822   7.639 -1.0244 -0.8916 -0.7804
  446TIP3    H222974   2.999   2.966   7.592  1.1149 -0.6957 -0.6735
  447TIP3   OH222975   2.426   2.281   7.531  0.0194 -0.2659  0.5867
  447TIP3    H122976   2.367   2.268   7.605 -0.0717  0.2636  0.6146
  447TIP3    H222977   2.451   2.374   7.536  1.6711 -0.7104  1.1747
  448TIP3   OH222978   4.796   1.284   7.624 -0.0366  0.0480  0.3058
  448TIP3    H122979   4.862   1.297   7.556 -2.1011 -0.5731 -1.9360
  448TIP3    H222980   4.789   1.189   7.633 -0.4900  0.1100  0.6365
  449TIP3   OH222981   1.774   0.520   6.973  0.0222  0.2892 -0.2268
  449TIP3    H122982   1.795   0.555   6.886 -0.3790 -1.0588 -0.8856
  449TIP3    H222983   1.717   0.445   6.956  1.6132 -1.2891  1.0887
  450TIP3   OH222984   6.756   4.158   0.193  0.2154  0.1833 -0.6473
  450TIP3    H122985   6.702   4.161   0.114 -1.3518 -1.0051  0.3173
  450TIP3    H222986   6.725   4.081   0.240 -2.3312  3.2104  3.4335
  451TIP3   OH222987   3.792   1.919   6.875 -0.0218 -0.1237 -0.0993
  451TIP3    H122988   3.714   1.922   6.820 -0.2037 -0.2253  0.1537
  451TIP3    H222989   3.820   1.827   6.872 -0.0119 -0.1225 -0.0505
  452TIP3   OH222990   2.900   4.073   8.566 -0.5618 -0.5896 -0.0626
  452TIP3    H122991   2.811   4.041   8.552  0.1442 -1.9114 -1.9626
  452TIP3    H222992   2.955   3.996   8.556  0.9135  0.4818 -0.5436
  453TIP3   OH222993   5.913   6.214   0.142 -0.0450 -0.6981 -0.0094
  453TIP3    H122994   5.914   6.264   0.223  0.5090 -0.8634  0.0901
  453TIP3    H222995   5.850   6.260   0.086  0.2672 -0.0357  0.1698
  454TIP3   OH222996   2.106   1.959   0.025 -0.1538 -0.1466 -0.1378
  454TIP3    H122997   2.124   1.999   0.110  1.5481 -1.6549  0.2704
  454TIP3    H222998   2.012   1.967   0.014 -0.2591  1.0780  1.3744
  455TIP3   OH222999   0.124   2.978   7.166  0.2446  0.4771  0.6323
  455TIP3    H123000   0.143   2.990   7.073 -0.6583 -1.4631  0.1525
  455TIP3    H223001   0.177   3.045   7.210  0.0879  1.9496 -1.2948
  456TIP3   OH223002   4.050   3.149   0.253 -0.0229 -0.0689  0.2604
  456TIP3    H123003   4.082   3.091   0.322  2.3600  0.2145 -0.4920
  456TIP3    H223004   4.082   3.236   0.279  0.5450  0.1018 -0.9506
  457TIP3   OH223005   6.484   4.623   0.336 -0.1074  0.1526  0.4854
  457TIP3    H123006   6.470   4.714   0.309  1.8913  0.4331  0.1895
  457TIP3    H223007   6.580   4.614   0.340 -0.2304 -2.1604 -0.2668
  458TIP3   OH223008   2.204   1.927   6.931 -0.4190  0.5193  0.7871
  458TIP3    H123009   2.212   1.956   6.840  0.7502  1.3741  1.1343
  458TIP3    H223010   2.115   1.951   6.956 -0.5138  0.9388  0.0784
  459TIP3   OH223011   5.067   1.983   1.081  0.3317 -1.1317 -0.0281
  459TIP3    H123012   5.056   1.908   1.140 -0.8690 -1.0687 -0.1378
  459TIP3    H223013   5.066   1.946   0.993  1.5608 -1.1657 -0.0385
  460TIP3   OH223014   5.110   2.965   8.489  0.3603 -0.3221 -0.1658
  460TIP3    H123015   5.142   3.050   8.456  0.0534 -0.4373 -0.7780
  460TIP3    H223016   5.147   2.958   8.577  0.6739  0.2923 -0.2410
  461TIP3   OH223017   6.339   6.613   7.921  0.0302 -0.1065  0.1166
  461TIP3    H123018   6.418   6.592   7.971 -0.9936 -1.9541  1.0520
  461TIP3    H223019   6.312   6.699   7.954 -0.0401 -0.8170  2.0473
  462TIP3   OH223020   3.177   6.797   0.330  0.1311  0.6391  0.0823
  462TIP3    H123021   3.180   6.882   0.286  1.5877  1.2688  1.2946
  462TIP3    H223022   3.243   6.804   0.400 -1.2093 -0.7345  1.5608
  463TIP3   OH223023   5.147   2.093   0.355 -0.1913  0.0381  0.6036
  463TIP3    H123024   5.205   2.037   0.303 -0.3814  0.6416 -0.2832
  463TIP3    H223025   5.081   2.124   0.292 -0.5203  0.6579  1.2404
  464TIP3   OH223026   5.393   3.088   8.294  0.3148 -0.1465  0.0539
  464TIP3    H123027   5.389   3.028   8.369 -1.7030  0.9975  0.9565
  464TIP3    H223028   5.347   3.166   8.325  1.0192  1.0452 -1.8050
  465TIP3   OH223029   4.329   0.808   0.783  0.0108  0.0437  0.4632
  465TIP3    H123030   4.347   0.902   0.785 -1.6277  0.3794  2.0561
  465TIP3    H223031   4.261   0.795   0.849  0.9140 -2.4288  1.0204
  466TIP3   OH223032   0.130   3.370   7.370 -0.3564 -0.5466  0.1337
  466TIP3    H123033   0.078   3.397   7.295 -2.4260 -2.7613  0.6599
  466TIP3    H223034   0.066   3.353   7.439  1.2140 -1.5632  1.4108
  467TIP3   OH223035   4.057   3.032   0.753  0.1021  0.1867 -0.4093
  467TIP3    H123036   3.986   3.076   0.707 -0.1866  0.4715  0.2884
  467TIP3    H223037   4.089   3.097   0.816  0.9065  0.0227 -0.6313
  468TIP3   OH223038   5.307   6.385   6.564 -0.0471 -0.3866 -0.1690
  468TIP3    H123039   5.314   6.457   6.501  1.4875 -1.1532 -0.9496
  468TIP3    H223040   5.303   6.307   6.509 -0.6381 -0.9588  0.6787
  469TIP3   OH223041   2.286   1.144   8.161 -0.8137 -0.4381 -0.2162
  469TIP3    H123042   2.379   1.148   8.137 -0.6286 -0.8094  0.4191
  469TIP3    H223043   2.285   1.158   8.256 -1.5580  1.4399 -0.4599
  470TIP3   OH223044   1.420   3.610   7.278 -0.1313  1.1532 -0.0822
  470TIP3    H123045   1.408   3.673   7.207 -0.1775  0.6170 -0.5534
  470TIP3    H223046   1.332   3.590   7.308 -0.2143  0.1762 -0.9403
  471TIP3   OH223047   1.826   4.512   7.690  0.0357 -0.0994 -0.1436
  471TIP3    H123048   1.755   4.477   7.742 -0.1970  0.2710 -0.2079
  471TIP3    H223049   1.799   4.499   7.599  0.2527 -0.3685 -0.1694
  472TIP3   OH223050   6.489   1.357   5.941 -0.1363  0.1577 -0.0867
  472TIP3    H123051   6.425   1.291   5.969  1.4188 -1.3666  0.0971
  472TIP3    H223052   6.445   1.407   5.874 -1.9479  0.0083  0.9318
  473TIP3   OH223053   3.398   1.315   6.888 -0.5209  0.2572 -0.2569
  473TIP3    H123054   3.400   1.399   6.933  0.8987  0.6849 -1.0604
  473TIP3    H223055   3.331   1.326   6.820 -0.2659  0.7756 -0.4266
  474TIP3   OH223056   0.686   0.757   7.048  0.1372 -0.4959  0.1294
  474TIP3    H123057   0.653   0.669   7.063 -0.6722 -0.0129  1.3224
  474TIP3    H223058   0.692   0.765   6.953 -1.2862 -1.2976 -0.0452
  475TIP3   OH223059   5.975   4.422   2.341  0.3501 -0.4195  0.4127
  475TIP3    H123060   5.935   4.441   2.257 -0.2149 -1.1379  0.5067
  475TIP3    H223061   6.023   4.501   2.364 -3.2587  1.6525  1.6073
  476TIP3   OH223062   0.851   0.475   1.391  0.8062 -0.1542  0.0265
  476TIP3    H123063   0.776   0.462   1.450  0.5178  0.8973 -0.0936
  476TIP3    H223064   0.904   0.542   1.433  0.9627  0.0992 -0.5573
  477TIP3   OH223065   6.636   2.995   1.779 -0.4483  0.6751  0.7537
  477TIP3    H123066   6.574   3.049   1.828  0.7290  1.9138  0.9387
  477TIP3    H223067   6.709   3.053   1.759 -0.1513 -0.2271 -1.0864
  478TIP3   OH223068   2.489   1.078   0.990 -0.2126  0.3748  0.6073
  478TIP3    H123069   2.529   1.113   1.069  0.4111  0.5546  0.2195
  478TIP3    H223070   2.441   1.001   1.019  0.5258  0.0799  1.0732
  479TIP3   OH223071   5.388   4.901   0.726 -0.1102  0.2598 -0.1479
  479TIP3    H123072   5.474   4.861   0.718  1.7389  3.6700  0.6952
  479TIP3    H223073   5.360   4.918   0.636  0.6715  0.2131 -0.4035
  480TIP3   OH223074   5.621   5.877   1.156  0.4587 -0.1047 -0.5319
  480TIP3    H123075   5.652   5.919   1.236  0.0628 -2.1227  0.7656
  480TIP3    H223076   5.693   5.819   1.130  0.5798  0.5229 -1.6534
  481TIP3   OH223077   3.369   1.169   1.179  0.0749 -0.0168 -0.6891
  481TIP3    H123078   3.358   1.111   1.104  1.0628 -0.5095 -0.4590
  481TIP3    H223079   3.459   1.157   1.207  0.4175  1.8719 -0.8220
  482TIP3   OH223080   5.913   2.705   6.518  0.2533 -1.1199 -0.2291
  482TIP3    H123081   5.892   2.649   6.443 -0.2912 -0.7940 -0.3313
  482TIP3    H223082   5.861   2.784   6.502 -0.6507 -1.4386  0.9933
  483TIP3   OH223083   6.747   2.458   6.249  0.2757  0.1248 -0.5305
  483TIP3    H123084   6.706   2.432   6.332 -2.0504 -1.0489 -1.9295
  483TIP3    H223085   6.791   2.379   6.218  1.0171  0.5191 -0.5027
  484TIP3   OH223086   0.953   5.380   7.528 -0.0533  0.8315  0.2107
  484TIP3    H123087   0.896   5.457   7.529 -1.4915 -0.1452 -1.4227
  484TIP3    H223088   1.000   5.386   7.445 -1.0875 -0.6182 -0.5324
  485TIP3   OH223089   5.263   5.475   5.982 -0.4806 -0.6605  0.6084
  485TIP3    H123090   5.301   5.390   5.961  0.8698 -1.4756  5.2509
  485TIP3    H223091   5.338   5.533   5.991 -1.2384  0.5160 -0.2944
  486TIP3   OH223092   5.401   0.704   1.941 -0.0588 -0.3330 -0.0823
  486TIP3    H123093   5.313   0.672   1.923 -0.3979  0.0532  0.7910
  486TIP3    H223094   5.436   0.730   1.856 -1.0491  0.1465 -0.3511
  487TIP3   OH223095   1.198   2.015   0.401  0.1636 -0.5025 -0.2688
  487TIP3    H123096   1.160   2.062   0.474 -1.8322 -2.0693 -0.2012
  487TIP3    H223097   1.270   2.070   0.371 -0.3536  1.2160  1.4709
  488TIP3   OH223098   2.614   0.635   7.361 -0.4090  0.7668  0.1025
  488TIP3    H123099   2.680   0.616   7.294  0.2475  0.8451  0.7082
  488TIP3    H223100   2.595   0.728   7.350 -1.0398  0.5637 -0.6077
  489TIP3   OH223101   3.682   1.044   8.013  0.3308 -0.0751 -0.5705
  489TIP3    H123102   3.669   1.045   8.107  1.3234  0.1326 -0.4266
  489TIP3    H223103   3.776   1.029   8.001 -0.0870 -2.2321 -1.5655
  490TIP3   OH223104   1.494   5.828   0.976 -0.3650 -0.0119 -0.4855
  490TIP3    H123105   1.549   5.874   1.040 -0.9199 -1.5686  1.2001
  490TIP3    H223106   1.553   5.811   0.902 -0.0953  3.1480 -1.1413
  491TIP3   OH223107   6.406   2.217   1.590 -0.5664 -0.3318 -0.1471
  491TIP3    H123108   6.324   2.219   1.639 -0.6661 -1.8623 -0.2296
  491TIP3    H223109   6.469   2.177   1.649 -0.0237  0.2175 -0.3358
  492TIP3   OH223110   4.296   5.993   1.596 -0.4179 -0.4767 -0.0476
  492TIP3    H123111   4.307   5.926   1.664  0.7263 -0.0776  0.1877
  492TIP3    H223112   4.264   5.945   1.520  2.2366 -1.7059 -0.5177
  493TIP3   OH223113   5.374   3.766   8.244 -0.2819  0.7785  0.4795
  493TIP3    H123114   5.286   3.732   8.258 -0.7334  2.1393  1.2002
  493TIP3    H223115   5.392   3.819   8.322  0.8410  1.1865 -0.0275
  494TIP3   OH223116   5.045   6.660   1.378 -0.0875 -0.0366 -0.5811
  494TIP3    H123117   5.033   6.660   1.473 -1.9201  0.1665 -0.7761
  494TIP3    H223118   4.964   6.623   1.343 -0.9470  2.9660 -2.1765
  495TIP3   OH223119   1.009   0.879   1.662  0.4303 -0.1818  0.2904
  495TIP3    H123120   1.015   0.893   1.757  0.3142 -1.1548  0.4509
  495TIP3    H223121   0.959   0.954   1.630  1.8569  1.0121  0.7715
  496TIP3   OH223122   4.861   2.691   8.380 -0.4962  0.5888  0.0779
  496TIP3    H123123   4.918   2.652   8.447 -0.3355 -0.3212 -0.5789
  496TIP3    H223124   4.788   2.729   8.430 -0.4262 -0.1688  0.7648
  497TIP3   OH223125   3.220   3.005   6.399 -0.5067 -0.9923 -0.0447
  497TIP3    H123126   3.151   3.066   6.428 -0.4585 -0.9447 -0.0308
  497TIP3    H223127   3.172   2.928   6.368 -0.6130 -0.5626 -0.9833
  498TIP3   OH223128   2.195   0.654   6.610  0.3428 -0.6485 -0.2906
  498TIP3    H123129   2.284   0.672   6.639  0.3874  0.7689 -1.2047
  498TIP3    H223130   2.205   0.628   6.518 -0.3562  2.4392 -1.3542
  499TIP3   OH223131   6.057   0.649   0.078  0.5751  0.1738  0.2122
  499TIP3    H123132   6.003   0.722   0.109 -1.4518 -0.2890 -1.9741
  499TIP3    H223133   6.118   0.633   0.150  0.6568  3.5113  1.0838
  500TIP3   OH223134   3.228   6.026   6.563 -0.1307  0.7570  0.5457
  500TIP3    H123135   3.299   5.969   6.533  1.1511  2.0347  1.0409
  500TIP3    H223136   3.149   5.991   6.521  0.6972 -1.0058  0.3884
  501TIP3   OH223137   6.696   4.035   7.242  0.1276 -0.3191 -0.2688
  501TIP3    H123138   6.684   3.946   7.276 -1.0938  0.2215  0.8450
  501TIP3    H223139   6.646   4.037   7.161 -0.5401 -0.4162  0.1369
  502TIP3   OH223140   0.832   0.902   7.808 -0.2256 -0.1686  0.2760
  502TIP3    H123141   0.770   0.838   7.844  0.2933  0.4438  2.3959
  502TIP3    H223142   0.788   0.986   7.817 -0.3711 -0.0454 -1.2904
  503TIP3   OH223143   1.665   1.077   1.115 -0.5935 -0.4809 -0.2245
  503TIP3    H123144   1.682   1.159   1.162 -1.0032 -0.0881 -0.7457
  503TIP3    H223145   1.720   1.013   1.158 -0.7132 -0.0579  0.5845
  504TIP3   OH223146   2.566   0.992   7.496  0.4420  0.0397  0.2612
  504TIP3    H123147   2.475   1.016   7.480  0.4495 -0.1501 -0.0797
  504TIP3    H223148   2.615   1.035   7.426  0.4392 -1.0669 -0.4415
  505TIP3   OH223149   1.519   2.758   8.318 -0.0609 -0.9533  0.4474
  505TIP3    H123150   1.530   2.664   8.305  0.9563 -0.6451 -1.1980
  505TIP3    H223151   1.590   2.783   8.377  0.1127 -1.1076  0.3037
  506TIP3   OH223152   5.564   1.142   7.572 -0.4602 -0.5061 -0.1939
  506TIP3    H123153   5.472   1.148   7.598 -0.4108  0.2562 -0.1837
  506TIP3    H223154   5.598   1.230   7.584  0.2374 -0.7501 -0.3467
  507TIP3   OH223155   3.496   5.404   6.796  0.1484  0.3915  0.3908
  507TIP3    H123156   3.476   5.389   6.889 -1.7197  1.8299  0.2831
  507TIP3    H223157   3.481   5.318   6.755 -1.3106  0.2604  1.1065
  508TIP3   OH223158   0.919   0.285   7.193  0.1297 -0.5626 -0.0191
  508TIP3    H123159   0.884   0.197   7.180 -2.1355  0.4872 -1.7758
  508TIP3    H223160   0.868   0.340   7.133 -0.6858  2.4610  3.1078
  509TIP3   OH223161   0.935   6.110   0.358  0.0421  0.2189  0.1196
  509TIP3    H123162   0.948   6.109   0.263 -0.0713  1.6756  0.0586
  509TIP3    H223163   0.872   6.041   0.374 -3.0096  2.3897 -1.4291
  510TIP3   OH223164   1.171   6.035   1.629  0.1999  0.2778  0.4166
  510TIP3    H123165   1.234   6.089   1.678  0.0590 -0.1855  1.1165
  510TIP3    H223166   1.225   5.983   1.570  0.2530  2.3169 -1.4564
  511TIP3   OH223167   0.572   6.247   0.814 -0.5202  0.2657 -0.7312
  511TIP3    H123168   0.551   6.320   0.872 -2.9328 -0.4573 -0.5936
  511TIP3    H223169   0.603   6.288   0.734 -3.2608  1.5874 -1.2215
  512TIP3   OH223170   5.801   2.936   6.455  0.3060 -0.3349 -0.6415
  512TIP3    H123171   5.840   3.002   6.513 -2.2129  0.2245  0.5523
  512TIP3    H223172   5.797   2.979   6.369  0.9687  0.0999 -0.4674
  513TIP3   OH223173   6.494   2.268   8.602  0.5437 -0.4411 -0.5471
  513TIP3    H123174   6.533   2.342   8.648 -0.8302 -0.4742  0.7939
  513TIP3    H223175   6.407   2.259   8.642 -0.8973 -0.3052 -3.3950
  514TIP3   OH223176   6.688   1.513   7.797  0.2366  0.6388 -0.0867
  514TIP3    H123177   6.693   1.601   7.835 -1.0743  0.5421  0.3793
  514TIP3    H223178   6.681   1.455   7.873 -3.3281  0.5066 -0.3499
  515TIP3   OH223179   6.339   1.221   8.073  0.3990  0.5065 -0.6297
  515TIP3    H123180   6.267   1.172   8.032  0.1407  0.3009  0.0537
  515TIP3    H223181   6.401   1.153   8.100  1.0845  0.7154 -1.6448
  516TIP3   OH223182   2.139   0.371   1.595 -0.1845  0.4121  0.4764
  516TIP3    H123183   2.214   0.399   1.647 -0.4243  0.8260  0.6145
  516TIP3    H223184   2.069   0.359   1.659  0.1582 -1.4749  0.5368
  517TIP3   OH223185   4.981   2.196   0.108 -0.0672 -0.4441 -0.2748
  517TIP3    H123186   4.940   2.263   0.162 -0.3805 -0.2638 -0.7303
  517TIP3    H223187   4.909   2.137   0.084  0.0027 -0.3331 -0.7719
  518TIP3   OH223188   5.809   4.215   7.426  0.2869 -0.4495 -0.9167
  518TIP3    H123189   5.879   4.276   7.402 -0.1499 -0.1342 -1.4029
  518TIP3    H223190   5.749   4.216   7.351 -1.0948  0.5451  0.1496
  519TIP3   OH223191   3.053   2.471   5.995 -0.2473  0.4406 -0.3176
  519TIP3    H123192   3.040   2.532   5.922 -2.1326  0.2406 -0.2018
  519TIP3    H223193   3.024   2.520   6.072 -3.3632 -0.9957 -0.4065
  520TIP3   OH223194   1.112   0.079   1.560 -0.2583  0.3774 -0.1539
  520TIP3    H123195   1.147   0.022   1.491  2.7574  1.3030  0.4574
  520TIP3    H223196   1.063   0.020   1.617 -1.3041 -0.7110 -2.0710
  521TIP3   OH223197   2.527   0.453   7.543  0.4525 -0.0653  0.2794
  521TIP3    H123198   2.559   0.512   7.474  1.2226 -2.0681 -1.1946
  521TIP3    H223199   2.566   0.486   7.623  3.6570 -0.4227 -0.9614
  522TIP3   OH223200   2.435   2.276   8.252 -0.2097  0.3740 -0.2585
  522TIP3    H123201   2.377   2.205   8.223 -1.2911  1.2835 -0.4160
  522TIP3    H223202   2.385   2.356   8.234  0.3528  1.1106  1.3082
  523TIP3   OH223203   5.433   4.136   0.314  0.0307 -0.3429 -0.1571
  523TIP3    H123204   5.339   4.146   0.328 -0.2371  1.9173 -2.8144
  523TIP3    H223205   5.461   4.221   0.281  2.4878 -1.7879 -2.0774
  524TIP3   OH223206   4.059   5.212   1.856 -0.2720 -0.1907 -0.0898
  524TIP3    H123207   4.005   5.291   1.867  1.4686  0.9857  0.2953
  524TIP3    H223208   4.010   5.159   1.793 -0.7447  1.8744 -1.5557
  525TIP3   OH223209   4.889   3.394   6.498 -0.2341  0.1489  0.3236
  525TIP3    H123210   4.881   3.312   6.449  0.5564  0.1274  0.2062
  525TIP3    H223211   4.812   3.445   6.474 -1.2235 -0.9337  1.1317
  526TIP3   OH223212   2.884   6.895   8.224 -0.4337 -0.2765  0.3552
  526TIP3    H123213   2.871   6.801   8.239 -0.5183 -0.2248  0.6052
  526TIP3    H223214   2.857   6.937   8.306 -0.1612 -0.0533  0.3327
  527TIP3   OH223215   0.039   3.371   7.646 -0.2970 -0.1979  0.1305
  527TIP3    H123216  -0.033   3.375   7.709  0.4026 -0.1265  0.9349
  527TIP3    H223217   0.042   3.279   7.619 -0.3879 -0.2948  0.4502
  528TIP3   OH223218   3.470   4.859   7.510 -0.2836 -0.0815  0.0688
  528TIP3    H123219   3.514   4.940   7.536 -1.1688  0.5923 -0.4706
  528TIP3    H223220   3.383   4.865   7.549 -0.6867 -0.3124 -0.7588
  529TIP3   OH223221   3.203   5.020   6.241 -0.6283  0.3256  0.3242
  529TIP3    H123222   3.123   4.972   6.260 -0.1393 -0.7730 -0.2880
  529TIP3    H223223   3.268   4.984   6.301  0.2180 -1.1881 -1.4111
  530TIP3   OH223224   0.886   2.386   1.209 -0.0732  0.0426 -0.3432
  530TIP3    H123225   0.816   2.379   1.144 -0.7802  1.1145  0.2683
  530TIP3    H223226   0.885   2.478   1.236  1.0460 -0.1027  0.2722
  531TIP3   OH223227   6.189   6.062   1.589 -0.0260 -0.2907 -0.0113
  531TIP3    H123228   6.097   6.064   1.615 -0.0672 -0.7577 -0.1147
  531TIP3    H223229   6.237   6.061   1.672 -0.1352 -0.8774  0.0491
  532TIP3   OH223230   4.500   0.284   0.048  0.3889  0.1635 -0.3069
  532TIP3    H123231   4.487   0.320  -0.039 -1.8136  0.4699  0.0817
  532TIP3    H223232   4.594   0.294   0.065  1.0523 -0.7808 -2.9701
  533TIP3   OH223233   3.762   1.034   6.707  0.1762  0.6429 -0.3776
  533TIP3    H123234   3.783   0.994   6.622 -0.2312 -0.6114  0.1018
  533TIP3    H223235   3.804   0.977   6.771  1.8845  2.4787  0.2310
  534TIP3   OH223236   4.106   6.559   0.158 -0.1617  0.4251  0.4645
  534TIP3    H123237   4.028   6.613   0.144  1.3065  2.0948 -2.2140
  534TIP3    H223238   4.151   6.599   0.233  0.4863  2.5642 -0.9784
  535TIP3   OH223239   3.832   3.160   0.643  0.1534  0.3788 -0.0474
  535TIP3    H123240   3.739   3.146   0.629  0.0748  1.4600 -0.7281
  535TIP3    H223241   3.847   3.251   0.616  1.6279 -0.1437 -1.1213
  536TIP3   OH223242   2.755   2.072   1.206 -0.5742  0.5801  0.1377
  536TIP3    H123243   2.850   2.082   1.212 -0.5099 -0.4635  0.9241
  536TIP3    H223244   2.720   2.147   1.254 -0.2212  2.3539 -2.1501
  537TIP3   OH223245   3.762   6.104   8.052 -0.3844  0.0891  0.4036
  537TIP3    H123246   3.805   6.031   8.097  2.8383  2.5327  1.6240
  537TIP3    H223247   3.713   6.149   8.120  0.5956  1.0813  0.4696
  538TIP3   OH223248   5.745   1.765   6.334  0.3195 -0.0064  0.4572
  538TIP3    H123249   5.752   1.680   6.290  0.7799  0.5712 -0.6024
  538TIP3    H223250   5.700   1.821   6.271  0.0624  0.5643  1.1368
  539TIP3   OH223251   5.693   3.545   7.446  0.3652 -0.4368 -0.1571
  539TIP3    H123252   5.765   3.566   7.505  0.8091 -1.9880 -0.1041
  539TIP3    H223253   5.620   3.525   7.504  0.4936 -0.9153 -0.1612
  540TIP3   OH223254   5.343   0.640   8.423  0.0348  0.1974 -0.4895
  540TIP3    H123255   5.343   0.592   8.340 -1.1968  0.3511 -0.5872
  540TIP3    H223256   5.325   0.573   8.489 -2.7012  0.6100 -0.7174
  541TIP3   OH223257   4.015   1.031   1.150 -0.1768 -0.8061  0.4576
  541TIP3    H123258   4.089   1.082   1.119 -0.0570 -1.5455 -0.5356
  541TIP3    H223259   3.994   1.067   1.236  0.7295  0.0268  0.3362
  542TIP3   OH223260   4.722   2.090   7.244  0.3548 -0.2311 -0.1425
  542TIP3    H123261   4.649   2.144   7.214  0.7888  1.6132  1.9087
  542TIP3    H223262   4.781   2.086   7.169 -0.1213  1.3672 -0.6376
  543TIP3   OH223263   1.406   5.034   8.032  0.4545  0.5488  0.0477
  543TIP3    H123264   1.406   4.956   8.086 -0.9827  1.0993  0.8762
  543TIP3    H223265   1.474   5.090   8.070 -0.7262  1.0448  1.5104
  544TIP3   OH223266   3.771   4.673   6.602  0.5433  0.6549 -0.2156
  544TIP3    H123267   3.703   4.731   6.569  0.1208  0.1389 -0.2570
  544TIP3    H223268   3.823   4.728   6.661  0.5875  1.2655 -0.8079
  545TIP3   OH223269   6.062   0.041   8.174 -0.0185 -0.4365 -0.2633
  545TIP3    H123270   6.119   0.116   8.190 -0.6291  0.3912 -1.7839
  545TIP3    H223271   6.121  -0.035   8.180  0.9670  0.2937 -0.4600
  546TIP3   OH223272   6.101   5.392   1.914  0.5373 -0.1623  0.0052
  546TIP3    H123273   6.103   5.308   1.961  0.1761  0.5232  1.3118
  546TIP3    H223274   6.191   5.404   1.885  0.5148 -1.1775 -0.5347
  547TIP3   OH223275   5.956   0.018   0.296  0.4588  0.1870 -0.1756
  547TIP3    H123276   5.863   0.037   0.308  0.1583 -1.3854  0.2010
  547TIP3    H223277   5.981  -0.029   0.376  1.1811 -0.7983 -0.9659
  548TIP3   OH223278   5.217   2.873   0.084  0.3795  0.3915 -0.5620
  548TIP3    H123279   5.264   2.934   0.141  1.8801 -0.8793 -0.3594
  548TIP3    H223280   5.276   2.798   0.076 -0.9518 -0.5874 -1.6528
  549TIP3   OH223281   3.228   3.703   0.923  0.1331  0.1168  0.5826
  549TIP3    H123282   3.306   3.746   0.957  0.0529  0.7692 -0.0264
  549TIP3    H223283   3.156   3.739   0.975  0.0580  0.7908  0.0292
  550TIP3   OH223284   1.454   5.688   2.107  0.0611 -0.3155  0.0215
  550TIP3    H123285   1.543   5.666   2.077  0.0648 -0.1417 -0.0977
  550TIP3    H223286   1.423   5.609   2.150  0.3125 -0.3464  0.1501
  551TIP3   OH223287   2.194   0.242   1.345  0.5717  0.1498 -0.7276
  551TIP3    H123288   2.169   0.332   1.368  1.4291 -0.5180  3.6034
  551TIP3    H223289   2.278   0.229   1.387  0.9858 -2.4327 -2.1807
  552TIP3   OH223290   6.752   0.764   1.718 -0.1373 -0.1284  0.6206
  552TIP3    H123291   6.794   0.808   1.793  2.3127 -0.8239 -0.2551
  552TIP3    H223292   6.699   0.832   1.677  1.8061  1.4591  0.5894
  553TIP3   OH223293   0.728   4.700   7.971  0.4594 -0.9242 -0.6970
  553TIP3    H123294   0.730   4.779   8.025  1.3361 -2.7460  2.1944
  553TIP3    H223295   0.637   4.694   7.941 -0.5801 -0.6517  2.0846
  554TIP3   OH223296   1.489   6.179   8.061  0.6032  0.3675 -0.6186
  554TIP3    H123297   1.420   6.114   8.069  1.4103 -0.2531  2.0975
  554TIP3    H223298   1.560   6.134   8.014  1.1527 -0.7837  1.2245
  555TIP3   OH223299   2.568   2.034   7.714 -0.4320  0.1240 -0.1279
  555TIP3    H123300   2.562   2.124   7.680 -0.4927  0.1390 -0.0775
  555TIP3    H223301   2.600   2.045   7.804 -0.9017  0.1259  0.0406
  556TIP3   OH223302   3.605   4.966   7.050 -0.0672 -0.0045 -0.3094
  556TIP3    H123303   3.572   4.908   7.118  0.9195 -0.5578 -0.2817
  556TIP3    H223304   3.593   4.918   6.968  1.2116 -0.4866 -0.2363
  557TIP3   OH223305   2.216   2.771   2.617  0.3603  0.3063 -0.6197
  557TIP3    H123306   2.147   2.717   2.654 -0.0904  0.2284 -1.5265
  557TIP3    H223307   2.290   2.712   2.606  1.1238  0.7311  1.7550
  558TIP3   OH223308   4.134   4.522   8.433 -0.0307 -0.4568 -0.5827
  558TIP3    H123309   4.061   4.575   8.402  0.4770  0.5612 -0.1014
  558TIP3    H223310   4.200   4.586   8.459  1.4848 -1.3477 -2.0661
  559TIP3   OH223311   6.748   2.422   0.859  0.9189  0.1581 -0.1170
  559TIP3    H123312   6.822   2.369   0.888 -0.2347 -0.9731  0.8850
  559TIP3    H223313   6.784   2.510   0.849  2.2615 -0.2402  0.9638
  560TIP3   OH223314   2.900   3.432   0.598  0.5811  0.0720  0.4468
  560TIP3    H123315   2.847   3.353   0.593  0.2189  0.1997  1.8496
  560TIP3    H223316   2.836   3.504   0.595  0.7121  0.2429  1.3020
  561TIP3   OH223317   3.102   5.272   1.869  0.0062  0.6304 -0.1837
  561TIP3    H123318   3.085   5.360   1.838  1.8505  1.1777  0.2296
  561TIP3    H223319   3.191   5.253   1.841 -1.1002 -2.0510 -2.3219
  562TIP3   OH223320   0.004   6.139   0.484 -0.3535 -0.3092  0.3927
  562TIP3    H123321   0.033   6.226   0.460  0.1497 -0.4736  0.4054
  562TIP3    H223322  -0.089   6.149   0.504 -0.2454  0.2620  0.6060
  563TIP3   OH223323   6.219   5.182   0.583 -0.1724  0.2914 -0.3076
  563TIP3    H123324   6.171   5.219   0.657  1.0813 -1.1672  1.3244
  563TIP3    H223325   6.185   5.093   0.575  0.9413 -0.1561 -0.2925
  564TIP3   OH223326   4.147   4.987   0.782 -0.6877 -0.3490 -0.1568
  564TIP3    H123327   4.161   4.898   0.751 -3.2986 -1.2589  1.0380
  564TIP3    H223328   4.054   5.003   0.770 -0.5433  1.7111  0.9406
  565TIP3   OH223329   4.574   3.186   7.636 -0.3060  0.8041  0.3694
  565TIP3    H123330   4.596   3.245   7.709  1.7938 -2.2996  2.5018
  565TIP3    H223331   4.655   3.182   7.585 -0.4900 -0.0538  0.1437
  566TIP3   OH223332   0.187   0.656   1.396 -0.0853 -0.4651 -0.3682
  566TIP3    H123333   0.280   0.672   1.409 -0.3530 -0.1220  1.4610
  566TIP3    H223334   0.182   0.565   1.367  0.8018 -0.5823 -0.1833
  567TIP3   OH223335   2.279   3.712   7.381 -0.3162 -0.3215  0.2336
  567TIP3    H123336   2.330   3.724   7.461 -1.3993  0.7335  0.8014
  567TIP3    H223337   2.322   3.769   7.317  1.8559 -2.7515 -0.6468
  568TIP3   OH223338   6.120   4.442   0.669  0.4922 -0.8745 -0.3426
  568TIP3    H123339   6.061   4.432   0.744 -0.5193 -0.9003 -1.1169
  568TIP3    H223340   6.207   4.453   0.708 -0.3232  1.9855  0.9597
  569TIP3   OH223341   6.460   4.972   7.908  0.0634  0.6824  0.0603
  569TIP3    H123342   6.393   4.909   7.882  1.1188  0.1320 -1.4694
  569TIP3    H223343   6.425   5.057   7.882 -0.9629  0.6652  1.2866
  570TIP3   OH223344   2.174   4.304   0.342  0.7548  0.5849 -0.4313
  570TIP3    H123345   2.243   4.336   0.284  0.0314  1.1889 -0.9754
  570TIP3    H223346   2.128   4.382   0.372  0.7029  0.2311  0.4303
  571TIP3   OH223347   1.877   6.512   1.937  0.5047 -0.1775 -0.0905
  571TIP3    H123348   1.964   6.485   1.966  0.0650 -2.9866 -1.0903
  571TIP3    H223349   1.831   6.535   2.018  1.2438 -1.6405  0.7917
  572TIP3   OH223350   5.966   2.890   0.991 -0.1336 -0.0789 -0.0684
  572TIP3    H123351   5.910   2.815   1.013 -0.8156  0.4667  0.1049
  572TIP3    H223352   6.016   2.907   1.071 -0.1755 -0.1915 -0.0183
  573TIP3   OH223353   4.783   0.972   0.597  0.2617 -0.4119  0.2208
  573TIP3    H123354   4.850   1.041   0.596 -0.7056  0.5374 -0.4275
  573TIP3    H223355   4.763   0.960   0.690  0.1494  0.4710  0.3164
  574TIP3   OH223356   1.486   6.727   1.793  0.0079 -0.2173  0.6131
  574TIP3    H123357   1.505   6.820   1.792  0.1904 -0.2345  1.6077
  574TIP3    H223358   1.568   6.685   1.768 -0.6327 -0.0726 -2.0444
  575TIP3   OH223359   6.500   3.496   0.538  0.7976  0.3460  0.2347
  575TIP3    H123360   6.512   3.543   0.455 -4.9698 -0.4879 -1.5001
  575TIP3    H223361   6.489   3.565   0.603 -0.1977  1.2234 -0.8287
  576TIP3   OH223362   2.514   3.392   1.044 -0.1653 -0.0170  0.0519
  576TIP3    H123363   2.419   3.403   1.054 -0.1985 -0.4302  0.1997
  576TIP3    H223364   2.551   3.465   1.093 -0.4015 -0.0554  0.2945
  577TIP3   OH223365   4.696   5.674   1.862  0.9557 -0.5980  0.4087
  577TIP3    H123366   4.627   5.689   1.926  0.6624 -0.6320  0.1050
  577TIP3    H223367   4.678   5.738   1.793  1.8421  0.1029  0.8088
  578TIP3   OH223368   3.501   5.592   0.974  0.4135  0.2921  0.1599
  578TIP3    H123369   3.443   5.662   1.003 -1.3591 -1.4576  1.0317
  578TIP3    H223370   3.533   5.553   1.055  0.6898 -0.4618 -0.3051
  579TIP3   OH223371   4.246   0.705   8.662  0.4874  0.5334 -0.4131
  579TIP3    H123372   4.194   0.633   8.626  0.3914  1.8026 -3.0429
  579TIP3    H223373   4.182   0.762   8.705  0.3484 -0.1057  0.2504
  580TIP3   OH223374   0.002   2.475   8.059  0.0481 -0.3392 -0.1185
  580TIP3    H123375  -0.064   2.406   8.066 -0.7987  0.2868 -1.5556
  580TIP3    H223376   0.085   2.431   8.078 -0.6685 -1.3246  0.8617
  581TIP3   OH223377   1.659   1.283   7.014 -0.8052 -0.1248  0.6533
  581TIP3    H123378   1.708   1.240   7.084 -0.9067  0.6356  1.1941
  581TIP3    H223379   1.569   1.255   7.027 -0.7409 -0.4041  0.5048
  582TIP3   OH223380   3.522   1.430   0.818 -0.5963  0.1889 -0.6475
  582TIP3    H123381   3.573   1.435   0.899 -2.1422  1.0122  0.3140
  582TIP3    H223382   3.571   1.484   0.756 -0.0955  0.6466  0.1287
  583TIP3   OH223383   1.253   1.607   8.310 -0.2991 -0.0494  0.1876
  583TIP3    H123384   1.236   1.534   8.369  0.0689  0.5568  1.0584
  583TIP3    H223385   1.348   1.612   8.304 -0.2433  1.4289  1.5373
  584TIP3   OH223386   6.458   5.230   2.331  0.0809  0.7396 -0.0077
  584TIP3    H123387   6.442   5.261   2.242 -1.4239  2.5015  0.8180
  584TIP3    H223388   6.443   5.136   2.326  1.9870  0.4637 -1.9984
  585TIP3   OH223389   2.460   5.976   0.822 -0.1252  0.0592  0.2102
  585TIP3    H123390   2.547   5.944   0.796  0.1351  0.7530  0.1870
  585TIP3    H223391   2.474   6.016   0.908  0.2396  2.7608 -0.9908
  586TIP3   OH223392   1.907   1.833   0.494 -0.5537 -0.1824  1.0062
  586TIP3    H123393   1.873   1.759   0.544 -0.5737 -1.1323 -0.3753
  586TIP3    H223394   1.849   1.839   0.418  0.8982 -0.2948 -0.1336
  587TIP3   OH223395   2.531   1.008   6.554  0.5667 -0.2956 -0.4965
  587TIP3    H123396   2.490   0.958   6.484 -0.1898 -0.6632  0.1982
  587TIP3    H223397   2.573   1.081   6.509 -0.2816 -0.2804 -1.2936
  588TIP3   OH223398   5.473   1.296   6.278 -0.0590  0.2687  0.2781
  588TIP3    H123399   5.386   1.332   6.299  0.2403  0.7781  0.6619
  588TIP3    H223400   5.478   1.215   6.329  0.4334  1.2037  1.8062
  589TIP3   OH223401   1.460   3.171   0.810  0.7032  0.1569 -0.2865
  589TIP3    H123402   1.515   3.110   0.859  2.6402  0.2900 -2.1297
  589TIP3    H223403   1.403   3.211   0.875  2.6692 -0.1385  1.7084
  590TIP3   OH223404   3.503   5.890   6.500  0.2618 -0.0663  0.3709
  590TIP3    H123405   3.531   5.930   6.582 -2.2858  2.0366  0.3098
  590TIP3    H223406   3.574   5.908   6.439  1.3607 -0.0294  1.6196
  591TIP3   OH223407   6.085   2.060   0.672 -0.6046 -0.0522 -0.0345
  591TIP3    H123408   6.145   2.114   0.723 -1.6776 -0.4332  1.7131
  591TIP3    H223409   6.136   1.983   0.648  0.4085  0.8949 -1.0137
  592TIP3   OH223410   3.061   5.278   6.798  0.0656  0.5088  0.1996
  592TIP3    H123411   3.088   5.305   6.710  0.0522  0.2583  0.1182
  592TIP3    H223412   2.975   5.319   6.811 -0.9541 -1.2231 -0.7693
  593TIP3   OH223413   0.166   5.094   8.632 -0.2466  0.6810 -0.5086
  593TIP3    H123414   0.179   5.102   8.538  0.5490  1.6896 -0.3392
  593TIP3    H223415   0.220   5.164   8.669  1.1814 -1.0322  0.8208
  594TIP3   OH223416   1.780   4.309   1.551  0.2821  0.6669  0.2859
  594TIP3    H123417   1.855   4.356   1.513 -0.5434  1.8601  0.0594
  594TIP3    H223418   1.719   4.298   1.478 -0.1821  0.5938  0.6749
  595TIP3   OH223419   4.262   6.746   7.241 -0.0055 -0.5951  0.2632
  595TIP3    H123420   4.196   6.699   7.294  1.1981 -0.1067  2.3100
  595TIP3    H223421   4.221   6.754   7.155 -2.3017 -1.0100  1.2184
  596TIP3   OH223422   4.735   4.799   6.709 -0.6109  0.3138 -0.0505
  596TIP3    H123423   4.759   4.717   6.664  0.6167  1.3910 -1.4697
  596TIP3    H223424   4.817   4.831   6.745 -1.1731  0.6987  0.9136
  597TIP3   OH223425   2.892   5.000   0.755  0.1414 -0.1987 -0.0878
  597TIP3    H123426   2.851   5.009   0.669  1.5284 -0.7273 -0.8265
  597TIP3    H223427   2.980   4.969   0.737 -0.0358 -1.8533  1.6291
  598TIP3   OH223428   4.187   0.123   0.705 -0.1279 -0.3429  0.0225
  598TIP3    H123429   4.166   0.205   0.661 -0.1370 -0.0991  0.4767
  598TIP3    H223430   4.283   0.122   0.708 -0.1338  0.6311  1.8053
  599TIP3   OH223431   2.447   2.745   2.009  0.2951  0.5325  0.0696
  599TIP3    H123432   2.492   2.779   2.086  0.2639 -1.6782  1.1385
  599TIP3    H223433   2.360   2.720   2.041 -0.0170  0.3364 -0.8813
  600TIP3   OH223434   4.341   4.769   7.822  0.1564 -0.0213  0.4054
  600TIP3    H123435   4.366   4.705   7.888  0.7223 -0.8247 -0.5633
  600TIP3    H223436   4.250   4.790   7.842  0.0567 -0.8978  0.9187
  601TIP3   OH223437   3.424   5.383   7.084  0.0069  0.3529 -0.3005
  601TIP3    H123438   3.418   5.478   7.081  0.8093  0.3747 -1.7296
  601TIP3    H223439   3.388   5.360   7.170 -1.3967  1.8375 -0.4397
  602TIP3   OH223440   6.432   3.549   1.506 -0.2179 -0.4997 -0.0244
  602TIP3    H123441   6.524   3.573   1.497 -0.2771 -0.8057 -1.9009
  602TIP3    H223442   6.433   3.457   1.530 -0.0502 -0.4050  0.3478
  603TIP3   OH223443   0.167   0.636   1.747 -0.1922 -0.6075 -0.5403
  603TIP3    H123444   0.243   0.590   1.711  0.1925 -0.5327  0.1589
  603TIP3    H223445   0.093   0.576   1.733 -0.0837 -0.5042 -1.5930
  604TIP3   OH223446   5.487   1.605   0.136  0.3338 -0.4940 -0.9893
  604TIP3    H123447   5.405   1.650   0.115 -0.1178 -0.2807  1.0963
  604TIP3    H223448   5.552   1.646   0.079 -0.5259  1.1362 -0.8495
  605TIP3   OH223449   4.947   2.882   1.580 -0.5644 -0.4555 -0.0600
  605TIP3    H123450   4.945   2.956   1.640 -0.0592  0.8812 -1.6313
  605TIP3    H223451   4.859   2.844   1.586 -1.2025  0.9562 -0.0618
  606TIP3   OH223452   5.382   3.573   1.992  0.9391 -0.2500 -0.1313
  606TIP3    H123453   5.307   3.633   1.988  1.4646  0.5695  1.3793
  606TIP3    H223454   5.428   3.587   1.909 -0.0437 -0.0394 -0.6506
  607TIP3   OH223455   3.330   4.036   8.272 -0.1351  0.3156 -0.4451
  607TIP3    H123456   3.285   3.956   8.299  0.7747 -0.0202  0.1291
  607TIP3    H223457   3.417   4.006   8.243  0.3494  1.1207  0.1372
  608TIP3   OH223458   1.579   0.200   7.823 -0.3843 -0.1499 -0.1847
  608TIP3    H123459   1.524   0.237   7.893  0.2379  0.5581 -0.0556
  608TIP3    H223460   1.516   0.176   7.754 -0.9550 -0.3750  0.4079
  609TIP3   OH223461   0.250   6.343   6.438 -0.1663 -0.4627 -0.5981
  609TIP3    H123462   0.256   6.327   6.344 -2.5073 -2.5297 -0.4871
  609TIP3    H223463   0.322   6.293   6.476  0.6914  0.2542 -1.2239
  610TIP3   OH223464   6.846   6.454   0.511  0.0030 -0.1879  0.5119
  610TIP3    H123465   6.859   6.519   0.442 -0.2043  1.1301  1.6729
  610TIP3    H223466   6.934   6.433   0.541  0.0232  0.6050  1.0496
  611TIP3   OH223467   2.497   5.988   7.099  0.7137 -0.5629 -0.1110
  611TIP3    H123468   2.565   6.005   7.034  0.7020 -0.2156 -0.0344
  611TIP3    H223469   2.458   5.905   7.072 -0.8682  0.6760 -1.9005
  612TIP3   OH223470   2.628   5.208   7.416 -0.4154  0.2638  0.2796
  612TIP3    H123471   2.664   5.151   7.348 -0.7608 -0.4273  0.6584
  612TIP3    H223472   2.675   5.291   7.406  2.9941 -1.2266  2.1658
  613TIP3   OH223473   5.477   1.918   1.015 -0.9014 -0.7512 -0.7345
  613TIP3    H123474   5.389   1.899   0.981 -1.0865 -3.4633  0.9530
  613TIP3    H223475   5.460   1.960   1.100 -0.6825 -2.6529  0.3059
  614TIP3   OH223476   5.139   6.741   0.119  0.1506 -0.2793  0.5371
  614TIP3    H123477   5.179   6.655   0.105  0.3984 -0.2942  1.2874
  614TIP3    H223478   5.133   6.779   0.032 -1.1805 -1.5895  0.0297
  615TIP3   OH223479   4.439   0.729   1.475  0.3833  0.3795 -0.6704
  615TIP3    H123480   4.394   0.648   1.499 -0.0923  0.0311 -2.5269
  615TIP3    H223481   4.370   0.784   1.436  0.5447  1.9984  1.1855
  616TIP3   OH223482   3.576   1.295   1.403 -0.2061  0.3161  0.6002
  616TIP3    H123483   3.485   1.272   1.420 -0.2756  0.0666 -0.1148
  616TIP3    H223484   3.603   1.344   1.482 -0.9367  0.3548  0.8319
  617TIP3   OH223485   5.694   1.847   1.397  0.3226 -0.1600  0.4832
  617TIP3    H123486   5.769   1.880   1.446  0.8680 -1.1755  0.3613
  617TIP3    H223487   5.623   1.843   1.461 -0.0206  2.0339  0.3036
  618TIP3   OH223488   6.576   6.002   0.423 -0.2488  0.2350 -0.0677
  618TIP3    H123489   6.632   6.018   0.347 -1.8314 -3.1305 -2.1505
  618TIP3    H223490   6.504   6.064   0.412 -0.4348 -0.1803 -1.2947
  619TIP3   OH223491   2.595   5.826   8.151 -0.1594  0.0854 -0.1323
  619TIP3    H123492   2.620   5.755   8.209 -2.4083 -1.2068 -0.6559
  619TIP3    H223493   2.583   5.902   8.209  0.5674 -0.3878  0.6552
  620TIP3   OH223494   2.554   1.101   8.061  0.3088 -0.1921 -0.3663
  620TIP3    H123495   2.578   1.192   8.047  0.9861 -0.4201 -0.7086
  620TIP3    H223496   2.594   1.053   7.988  1.1147 -0.9474  0.5458
  621TIP3   OH223497   2.910   6.484   1.121  0.2478 -0.2154  0.2271
  621TIP3    H123498   2.852   6.415   1.087 -0.1612  0.4494 -0.4561
  621TIP3    H223499   2.933   6.536   1.044  0.8423  0.2035  0.6804
  622TIP3   OH223500   5.816   6.640   1.022 -0.3052  0.3991  0.2741
  622TIP3    H123501   5.755   6.709   0.996 -1.3675 -1.2302 -1.8701
  622TIP3    H223502   5.814   6.642   1.118 -1.2466  2.4889  0.2646
  623TIP3   OH223503   6.626   3.017   8.322  0.3455  0.2586 -0.3773
  623TIP3    H123504   6.574   3.006   8.243  0.5419  3.2707 -1.0446
  623TIP3    H223505   6.562   3.026   8.393  0.1474 -1.2054 -0.3367
  624TIP3   OH223506   5.973   2.372   8.523 -0.0810  0.3389 -0.2890
  624TIP3    H123507   5.905   2.306   8.514 -0.4586  0.7221 -0.3212
  624TIP3    H223508   5.993   2.374   8.616  0.9199 -0.7791 -0.4561
  625TIP3   OH223509   5.899   3.689   1.610 -0.1540  0.0845  0.0474
  625TIP3    H123510   5.856   3.675   1.525  0.5611  0.7475 -0.4332
  625TIP3    H223511   5.859   3.624   1.668 -0.1031 -0.8981 -0.9877
  626TIP3   OH223512   2.656   4.094   0.462 -0.5114 -0.6881  0.1131
  626TIP3    H123513   2.685   4.012   0.422  1.1211  0.1710 -0.5503
  626TIP3    H223514   2.629   4.149   0.388  0.7912  0.2503  0.2935
  627TIP3   OH223515   2.020   3.630   7.449  0.1890  0.4105  0.1139
  627TIP3    H123516   2.103   3.664   7.417 -0.6151 -0.2117 -3.0361
  627TIP3    H223517   2.023   3.537   7.429 -1.1918  0.3607  0.0311
  628TIP3   OH223518   4.193   4.035   7.284 -0.4333 -0.0301  0.0201
  628TIP3    H123519   4.147   3.961   7.245 -0.4193 -1.4694  2.5244
  628TIP3    H223520   4.129   4.076   7.342  0.2908  0.3228  0.5968
  629TIP3   OH223521   5.596   5.674   7.842 -0.5529  0.1505 -0.2657
  629TIP3    H123522   5.520   5.705   7.890 -0.0658 -1.7075  1.9331
  629TIP3    H223523   5.572   5.585   7.815  0.5716 -0.2129 -0.1161
  630TIP3   OH223524   3.690   0.860   7.805  0.6742  0.2088  0.3219
  630TIP3    H123525   3.620   0.909   7.761  0.1858  0.3736  1.2611
  630TIP3    H223526   3.720   0.917   7.875  1.2629 -0.1521  0.3686
  631TIP3   OH223527   3.578   4.167   7.502  0.0202 -0.6041 -0.1601
  631TIP3    H123528   3.596   4.249   7.457  0.0362 -0.6517 -0.2414
  631TIP3    H223529   3.492   4.179   7.542  0.0464 -0.5288 -0.1261
  632TIP3   OH223530   1.696   2.218   8.191  0.8990  0.1935 -0.0910
  632TIP3    H123531   1.782   2.246   8.160 -0.2740  0.3159 -3.6983
  632TIP3    H223532   1.710   2.131   8.228  2.7840  0.8969  0.9507
  633TIP3   OH223533   5.438   6.887   6.442 -0.4211  0.5569 -0.2882
  633TIP3    H123534   5.519   6.838   6.426 -1.4463 -1.6106  0.6666
  633TIP3    H223535   5.461   6.949   6.511  0.1689 -0.8248  0.7982
  634TIP3   OH223536   4.557   3.501   7.643  0.0017 -0.2564 -0.3879
  634TIP3    H123537   4.648   3.501   7.615 -0.2701 -0.6612 -1.3139
  634TIP3    H223538   4.512   3.554   7.577 -0.5002 -0.4081 -0.1727
  635TIP3   OH223539   1.002   5.872   7.140  0.3354 -0.0747  0.2346
  635TIP3    H123540   0.961   5.952   7.174 -2.4594 -0.4572 -1.8981
  635TIP3    H223541   0.943   5.802   7.165  1.1790 -1.0793 -0.4962
  636TIP3   OH223542   6.421   5.120   8.350  0.3683 -0.0493 -0.3278
  636TIP3    H123543   6.454   5.200   8.391 -0.2386  1.0348 -1.8770
  636TIP3    H223544   6.469   5.114   8.268 -2.5852  1.1820 -2.3256
  637TIP3   OH223545   3.199   1.997   6.901 -0.1927  0.2613  0.0888
  637TIP3    H123546   3.178   1.941   6.826  0.7511 -0.1066  0.0790
  637TIP3    H223547   3.208   2.085   6.863 -1.5244  0.4073  0.0794
  638TIP3   OH223548   1.190   0.482   1.094 -0.5135 -0.0275 -0.2942
  638TIP3    H123549   1.229   0.558   1.137 -1.4778 -0.3362  1.1957
  638TIP3    H223550   1.098   0.484   1.120 -0.6490 -1.4540 -0.5901
  639TIP3   OH223551   4.596   0.457   7.466  0.2250 -0.1143 -1.0868
  639TIP3    H123552   4.657   0.473   7.537  0.7386  1.6133 -1.8516
  639TIP3    H223553   4.515   0.429   7.509  0.5925  0.6706  0.1667
  640TIP3   OH223554   5.910   2.365   1.432 -0.0948 -0.6706  0.2052
  640TIP3    H123555   5.858   2.285   1.432 -0.4582 -0.4441 -0.6433
  640TIP3    H223556   5.848   2.434   1.407  0.7976 -0.5429 -1.8649
  641TIP3   OH223557   6.426   5.645   1.632 -0.2761  0.2666 -0.3925
  641TIP3    H123558   6.475   5.708   1.686  1.2474  0.9899 -2.5170
  641TIP3    H223559   6.394   5.697   1.558 -0.1490 -1.1762 -1.5032
  642TIP3   OH223560   2.083   4.947   8.446  0.1063 -0.3493  0.3203
  642TIP3    H123561   1.993   4.966   8.422  0.4383  1.1600  0.1537
  642TIP3    H223562   2.079   4.863   8.491 -1.2395 -0.7566 -0.4943
  643TIP3   OH223563   0.187   3.324   8.416 -0.0046  0.4380  0.5954
  643TIP3    H123564   0.208   3.416   8.430  0.5171  0.3588  0.3549
  643TIP3    H223565   0.157   3.321   8.325  2.1574  0.0109 -0.1515
  644TIP3   OH223566   0.563   3.128   6.798 -0.3433  0.3970 -0.1787
  644TIP3    H123567   0.619   3.061   6.758  1.0464  0.7564  1.0488
  644TIP3    H223568   0.595   3.211   6.763  1.7172  0.8327  2.3878
  645TIP3   OH223569   3.463   0.895   8.550  0.6187  0.0818  0.6097
  645TIP3    H123570   3.541   0.901   8.606  0.0233  0.9353  1.3714
  645TIP3    H223571   3.408   0.829   8.592  0.3620  0.4103  0.7923
  646TIP3   OH223572   1.495   1.914   0.364  0.3046  0.0933  0.3099
  646TIP3    H123573   1.440   1.955   0.431 -0.9064 -0.3876 -0.3636
  646TIP3    H223574   1.435   1.861   0.312  1.4033 -0.4187 -0.4918
  647TIP3   OH223575   1.982   1.188   7.435 -0.2059 -0.2789  0.2742
  647TIP3    H123576   1.902   1.200   7.383 -0.0562 -1.1948 -0.1914
  647TIP3    H223577   1.953   1.141   7.513 -0.1853 -0.2870  0.2770
  648TIP3   OH223578   4.844   4.063   6.848  0.2331 -0.5434 -0.3669
  648TIP3    H123579   4.797   3.982   6.830  0.7214 -0.9632  0.2064
  648TIP3    H223580   4.884   4.087   6.764 -0.4021 -0.5581 -0.6865
  649TIP3   OH223581   6.396   2.405   0.590  0.5462  0.2426 -0.1384
  649TIP3    H123582   6.314   2.433   0.631  0.4492 -0.0101 -0.1610
  649TIP3    H223583   6.372   2.329   0.537  0.6531  0.6293 -0.7484
  650TIP3   OH223584   3.714   4.374   1.552 -0.0566 -0.4345  0.1919
  650TIP3    H123585   3.732   4.282   1.532 -2.3033 -0.7599 -0.6016
  650TIP3    H223586   3.705   4.416   1.467 -1.8696 -0.1243  0.4949
  651TIP3   OH223587   6.032   4.511   8.652  0.0303  0.0321  0.5186
  651TIP3    H123588   5.990   4.441   8.703  1.1749 -0.0796  1.3509
  651TIP3    H223589   6.030   4.478   8.562 -0.7258 -0.4206  0.6831
  652TIP3   OH223590   5.862   5.747   7.885 -0.8828  0.2331 -0.2640
  652TIP3    H123591   5.775   5.706   7.886 -0.9335  0.2858 -1.2518
  652TIP3    H223592   5.853   5.821   7.825 -0.6325  1.3770  1.0518
  653TIP3   OH223593   0.226   2.241   7.773 -0.1332 -0.1757  0.5439
  653TIP3    H123594   0.195   2.278   7.690  1.6649  0.8623  0.2634
  653TIP3    H223595   0.148   2.204   7.814 -1.0455 -0.8751 -1.6787
  654TIP3   OH223596   0.210   4.528   0.314  0.1719 -0.9726  0.1180
  654TIP3    H123597   0.244   4.557   0.230  0.1080  0.1257  0.4571
  654TIP3    H223598   0.149   4.597   0.341 -0.2796 -1.6090  0.7724
  655TIP3   OH223599   2.146   6.715   1.545  0.4242 -0.8774  0.5575
  655TIP3    H123600   2.095   6.774   1.489  1.8619 -2.5329 -2.8306
  655TIP3    H223601   2.188   6.772   1.609 -1.7013  1.1299  0.3012
  656TIP3   OH223602   4.777   5.871   6.286  0.1764 -0.0216 -0.2025
  656TIP3    H123603   4.781   5.834   6.198 -0.0220 -2.6505  0.8048
  656TIP3    H223604   4.868   5.878   6.314  0.1917 -1.8883  0.3614
  657TIP3   OH223605   2.755   3.891   7.216  0.1905 -0.9185 -0.6335
  657TIP3    H123606   2.727   3.820   7.158 -0.2901 -0.4328 -0.9926
  657TIP3    H223607   2.790   3.958   7.158 -0.9410 -0.1287 -0.4315
  658TIP3   OH223608   2.227   0.262   8.056  0.0372 -0.5679  0.0015
  658TIP3    H123609   2.219   0.247   8.150  0.4765  1.9574  0.5096
  658TIP3    H223610   2.238   0.357   8.048  2.4680 -0.9386 -2.4200
  659TIP3   OH223611   5.732   2.966   7.890  0.6995 -0.1715 -0.4819
  659TIP3    H123612   5.794   2.956   7.817 -0.1096  2.1017 -1.5664
  659TIP3    H223613   5.660   2.907   7.868  1.0842 -0.5332 -0.7938
  660TIP3   OH223614   6.292   3.885   0.261  0.7114  0.5133  0.4087
  660TIP3    H123615   6.238   3.855   0.188  0.9943  0.5826  0.1685
  660TIP3    H223616   6.381   3.890   0.225  0.8375  0.6366  0.7312
  661TIP3   OH223617   6.483   6.079   8.375 -0.3705  0.4125  0.3371
  661TIP3    H123618   6.524   6.023   8.440  0.7157 -0.5019 -1.0686
  661TIP3    H223619   6.548   6.147   8.357 -0.7902  0.8459  0.4271
  662TIP3   OH223620   3.339   4.709   0.211 -0.4214 -0.2021 -0.2291
  662TIP3    H123621   3.337   4.747   0.124 -0.3173 -0.6300 -0.4220
  662TIP3    H223622   3.268   4.644   0.210 -1.6766  1.0800  0.6135
  663TIP3   OH223623   0.688   2.804   1.461  0.1505 -0.2894 -0.7368
  663TIP3    H123624   0.736   2.886   1.453 -1.8735  1.0455 -0.1048
  663TIP3    H223625   0.650   2.807   1.548 -1.4361 -1.0165 -1.3572
  664TIP3   OH223626   0.815   5.013   8.451 -0.2069  0.5124  0.9423
  664TIP3    H123627   0.833   5.095   8.405  1.0705  0.6384  1.6136
  664TIP3    H223628   0.893   4.997   8.504 -0.7764 -0.7081  1.4733
  665TIP3   OH223629   0.817   0.026   1.042  0.4422  0.0307 -0.3315
  665TIP3    H123630   0.801   0.074   1.124 -1.0099 -0.1118 -0.5000
  665TIP3    H223631   0.911   0.033   1.028  0.4310  1.8433  0.2559
  666TIP3   OH223632   5.610   4.062   6.888 -0.1911 -0.0994 -0.5074
  666TIP3    H123633   5.574   4.049   6.976 -0.6159 -0.0016 -0.6650
  666TIP3    H223634   5.542   4.030   6.830 -0.0233  0.0951 -0.8102
  667TIP3   OH223635   5.128   4.978   2.217  0.3922  0.3210  0.6347
  667TIP3    H123636   5.111   4.957   2.309  0.2758  0.5447  0.6625
  667TIP3    H223637   5.219   5.006   2.215 -0.2740  2.6567  1.0809
  668TIP3   OH223638   5.796   1.028   1.592  0.0556  0.7103  0.1635
  668TIP3    H123639   5.829   0.971   1.661 -0.7060  2.1220  1.7867
  668TIP3    H223640   5.789   1.114   1.634  0.7830  1.9349 -2.0627
  669TIP3   OH223641   4.256   0.348   1.675 -0.6844  0.0881 -0.0360
  669TIP3    H123642   4.315   0.294   1.622 -0.3338 -0.9140  1.3063
  669TIP3    H223643   4.314   0.409   1.721 -0.5499 -1.3864  1.8541
  670TIP3   OH223644   1.224   4.348   1.799 -0.4166  0.4340 -0.3174
  670TIP3    H123645   1.243   4.389   1.884 -0.7433 -0.8312  0.3963
  670TIP3    H223646   1.310   4.327   1.763 -0.3039 -1.0955  0.7760
  671TIP3   OH223647   6.872   1.643   0.530  0.6172  0.0513  0.0302
  671TIP3    H123648   6.931   1.662   0.457  0.8952  0.4977  0.3679
  671TIP3    H223649   6.927   1.600   0.596  0.0256 -1.9189 -0.6717
  672TIP3   OH223650   6.822   2.491   6.681 -0.1162  0.4168 -0.1123
  672TIP3    H123651   6.845   2.432   6.609 -0.3485 -0.1030  0.2292
  672TIP3    H223652   6.746   2.450   6.722  0.6435  0.1385  1.0785
  673TIP3   OH223653   0.245   0.959   6.984 -0.2069  0.2720 -0.0816
  673TIP3    H123654   0.181   0.927   7.048 -1.2049  0.8479 -0.7574
  673TIP3    H223655   0.248   1.054   6.998 -1.1433  0.5393 -1.4657
  674TIP3   OH223656   4.526   3.569   0.130  0.7898 -0.0906 -0.0567
  674TIP3    H123657   4.441   3.612   0.140  0.7237 -0.2970  0.3160
  674TIP3    H223658   4.555   3.592   0.042  0.4718  0.2044 -0.0864
  675TIP3   OH223659   1.962   3.996   8.235  0.5479  0.5453 -0.0148
  675TIP3    H123660   1.928   3.932   8.172 -1.3779 -1.0083  2.4070
  675TIP3    H223661   1.886   4.051   8.255  0.6670  0.0316  2.0083
  676TIP3   OH223662   5.563   0.645   6.197  0.1120  0.3484 -0.3873
  676TIP3    H123663   5.493   0.652   6.133  1.7719 -0.2793 -2.3954
  676TIP3    H223664   5.606   0.730   6.195 -1.3399  1.2247  1.8784
  677TIP3   OH223665   3.202   0.474   6.366  0.0151  0.5445 -0.2251
  677TIP3    H123666   3.166   0.469   6.277 -0.0967 -0.9800 -0.1211
  677TIP3    H223667   3.293   0.500   6.353  0.2287 -0.4714 -0.8609
  678TIP3   OH223668   4.485   3.581   1.209 -0.0831  0.2179 -0.2553
  678TIP3    H123669   4.533   3.664   1.204 -0.3458  0.3125 -1.6486
  678TIP3    H223670   4.402   3.603   1.250  0.8884  0.1102  1.9123
  679TIP3   OH223671   3.370   3.595   7.691  0.3032 -0.2892 -0.2642
  679TIP3    H123672   3.398   3.506   7.669 -0.3432 -0.6753  0.4497
  679TIP3    H223673   3.414   3.650   7.626  0.0980 -1.1968 -1.2042
  680TIP3   OH223674   0.038   1.428   0.893  0.4424  0.6082  0.0668
  680TIP3    H123675   0.097   1.495   0.857  0.0812  0.4557 -0.8254
  680TIP3    H223676  -0.043   1.439   0.845  0.6994 -1.1365 -0.8276
  681TIP3   OH223677   2.732   0.761   8.021  0.7021 -0.4879  0.3467
  681TIP3    H123678   2.768   0.817   7.952 -1.0800  1.7507  1.1004
  681TIP3    H223679   2.762   0.802   8.102  0.2679 -1.3145  0.9312
  682TIP3   OH223680   3.700   5.525   8.589  0.3283  0.0013 -0.1441
  682TIP3    H123681   3.649   5.525   8.507 -0.0485 -0.2787  0.0884
  682TIP3    H223682   3.642   5.484   8.653  0.5443  0.4098  0.3181
  683TIP3   OH223683   6.724   4.554   6.439 -0.3490  0.3164  0.1051
  683TIP3    H123684   6.635   4.566   6.471  0.1028  1.9925  0.8103
  683TIP3    H223685   6.727   4.602   6.357 -0.1091  0.2010  0.0449
  684TIP3   OH223686   0.130   4.360   0.539  0.6338 -0.1253  0.1602
  684TIP3    H123687   0.143   4.373   0.633  0.8888 -2.0163  0.4231
  684TIP3    H223688   0.206   4.400   0.499  0.6428  0.4897  0.7692
  685TIP3   OH223689   3.418   0.344   0.171 -0.7041  0.6495  0.5616
  685TIP3    H123690   3.475   0.357   0.246  1.6185  1.4363 -1.2112
  685TIP3    H223691   3.386   0.431   0.149 -0.8047  0.5393  0.2562
  686TIP3   OH223692   4.297   4.671   0.618  0.0244  0.0563  0.1349
  686TIP3    H123693   4.269   4.586   0.583 -0.2185  0.2726 -0.1980
  686TIP3    H223694   4.365   4.649   0.681 -0.7277 -0.4610  0.7915
  687TIP3   OH223695   4.033   0.728   7.317 -0.3648  0.0583 -0.0028
  687TIP3    H123696   3.948   0.698   7.283 -0.5461  0.0770  0.4266
  687TIP3    H223697   4.042   0.817   7.284 -1.4418  0.7936  1.5648
  688TIP3   OH223698   1.595   6.373   0.557  0.1075  0.2188  0.0351
  688TIP3    H123699   1.622   6.388   0.648 -0.7032  1.3922  0.1073
  688TIP3    H223700   1.512   6.420   0.549 -2.0837 -3.3909 -0.1514
  689TIP3   OH223701   6.483   3.966   7.562  0.1243 -0.2181 -0.0512
  689TIP3    H123702   6.403   3.916   7.542 -0.8596  1.0181  0.6506
  689TIP3    H223703   6.460   4.057   7.541 -0.0308  0.7870  3.7845
  690TIP3   OH223704   6.273   5.826   1.471 -0.4157 -0.8855  0.6561
  690TIP3    H123705   6.226   5.812   1.389 -0.6258 -2.0615  0.9503
  690TIP3    H223706   6.229   5.901   1.511 -0.9089 -0.8776  0.1138
  691TIP3   OH223707   4.846   0.397   0.010  0.0796  1.0202  0.1478
  691TIP3    H123708   4.780   0.463  -0.010 -0.8868  0.2803  0.8099
  691TIP3    H223709   4.930   0.442  -0.002 -0.5007  1.6218 -1.8971
  692TIP3   OH223710   0.133   5.146   1.054  0.2067  0.0988 -0.2404
  692TIP3    H123711   0.061   5.136   1.115  1.3421 -0.2991  1.0886
  692TIP3    H223712   0.191   5.211   1.095  1.7061 -1.2348 -0.1427
  693TIP3   OH223713   0.572   6.340   1.373 -0.2686  0.3130  0.1277
  693TIP3    H123714   0.550   6.422   1.417  0.2823 -0.8745  2.8626
  693TIP3    H223715   0.555   6.273   1.439 -0.6036 -1.7939 -1.9710
  694TIP3   OH223716   2.440   2.422   7.185 -0.0913  0.0229  0.7152
  694TIP3    H123717   2.475   2.464   7.264  1.1833 -1.2007  0.8523
  694TIP3    H223718   2.514   2.371   7.151 -1.5826 -2.2836  0.6985
  695TIP3   OH223719   0.527   1.613   2.254 -0.0087 -0.2332  0.2781
  695TIP3    H123720   0.469   1.615   2.178  1.6410 -1.4544 -1.0974
  695TIP3    H223721   0.606   1.658   2.225 -0.0452  1.0264  1.9691
  696TIP3   OH223722   6.625   6.550   8.037 -0.2574 -0.1587 -0.6332
  696TIP3    H123723   6.566   6.538   8.112 -2.0338  0.7140 -1.8062
  696TIP3    H223724   6.691   6.482   8.047 -0.2806  0.1066  1.8583
  697TIP3   OH223725   5.967   0.317   6.254  0.4880 -0.0900 -0.5936
  697TIP3    H123726   6.031   0.280   6.193  0.4634 -0.3207 -0.4813
  697TIP3    H223727   5.996   0.407   6.267 -0.1575  0.3040 -1.8177
  698TIP3   OH223728   4.937   2.818   1.155  0.7386  0.7019 -0.0156
  698TIP3    H123729   4.999   2.828   1.227 -0.8844 -0.2128  1.6184
  698TIP3    H223730   4.852   2.842   1.193 -0.5881 -2.2469 -0.7973
  699TIP3   OH223731   3.492   1.085   6.601  0.4672  0.0377 -0.1342
  699TIP3    H123732   3.545   1.021   6.647 -0.3878 -2.0991 -1.9092
  699TIP3    H223733   3.496   1.057   6.509 -0.3381  2.2855 -0.9206
  700TIP3   OH223734   4.539   3.921   1.944  0.2718  0.0201 -0.7480
  700TIP3    H123735   4.605   3.985   1.917  1.4738 -0.4537  0.9829
  700TIP3    H223736   4.527   3.936   2.038 -0.6964 -1.1791 -0.6558
  701TIP3   OH223737   3.199   6.848   1.470  0.5267  0.5212 -0.2146
  701TIP3    H123738   3.147   6.877   1.545  0.5414 -1.9819  0.8791
  701TIP3    H223739   3.288   6.840   1.505  0.7359  0.3303 -0.7757
  702TIP3   OH223740   2.229   4.772   1.495 -0.1474  0.2605  0.1259
  702TIP3    H123741   2.309   4.826   1.492  0.9094 -1.1397  1.5916
  702TIP3    H223742   2.212   4.751   1.403  2.5332 -1.2686 -0.1323
  703TIP3   OH223743   3.741   3.236   6.259 -0.3502 -0.6770 -0.6786
  703TIP3    H123744   3.655   3.194   6.270  0.9174 -3.1977  0.2856
  703TIP3    H223745   3.803   3.175   6.298  1.8877  1.2503 -1.0071
  704TIP3   OH223746   5.205   2.368   1.900 -0.3129 -0.0049  0.5117
  704TIP3    H123747   5.129   2.329   1.941  0.3524 -1.7680  0.1572
  704TIP3    H223748   5.177   2.389   1.811 -0.3046 -0.9814  0.2686
  705TIP3   OH223749   5.915   3.905   0.941  0.3683 -0.0128 -0.0267
  705TIP3    H123750   5.884   3.870   1.025  0.5334  1.1836  0.5540
  705TIP3    H223751   5.849   3.875   0.878 -0.0090 -0.5441  0.6000
  706TIP3   OH223752   2.203   4.753   0.689  0.3090  0.4865  1.2310
  706TIP3    H123753   2.230   4.844   0.682  0.1152  0.6223  2.1493
  706TIP3    H223754   2.122   4.755   0.740  1.4346 -0.3430  3.1607
  707TIP3   OH223755   4.730   1.969   0.667  0.3738  0.2527  0.3445
  707TIP3    H123756   4.749   1.883   0.705  1.8919  0.3632 -0.0654
  707TIP3    H223757   4.812   1.993   0.624 -0.4286  1.3701 -0.5848
  708TIP3   OH223758   1.249   2.508   7.224  0.0432  0.0172 -0.6269
  708TIP3    H123759   1.208   2.425   7.248 -1.7658  0.9419 -0.3222
  708TIP3    H223760   1.222   2.521   7.133  0.0654  0.4218 -0.5741
  709TIP3   OH223761   3.042   1.466   7.992 -0.5302 -0.0108  0.2359
  709TIP3    H123762   2.999   1.521   8.058 -1.2067  0.9686 -0.9923
  709TIP3    H223763   2.970   1.423   7.946 -0.1739  0.7090 -1.0436
  710TIP3   OH223764   1.452   6.703   8.465 -0.1788 -0.0297 -0.2137
  710TIP3    H123765   1.418   6.714   8.554  0.9976  1.6837  0.0805
  710TIP3    H223766   1.480   6.791   8.439  1.1407 -0.8045 -1.6093
  711TIP3   OH223767   2.448   5.697   0.217 -0.1019  0.4217  0.1360
  711TIP3    H123768   2.496   5.686   0.299 -2.6629  1.1110  1.8655
  711TIP3    H223769   2.453   5.611   0.174  2.8900  0.5769 -0.0150
  712TIP3   OH223770   0.912   6.258   2.231 -0.2063 -0.2989 -0.1170
  712TIP3    H123771   0.864   6.176   2.243 -0.7516  0.2667  2.0267
  712TIP3    H223772   1.003   6.237   2.255 -0.6550  0.0374  2.0762
  713TIP3   OH223773   6.502   2.608   8.051  0.0579 -0.2337  0.1559
  713TIP3    H123774   6.450   2.615   8.131 -1.1959  1.8475 -0.7714
  713TIP3    H223775   6.536   2.696   8.036  0.2759 -0.5713 -1.5873
  714TIP3   OH223776   4.486   6.061   0.465 -0.2016 -0.2151  0.0790
  714TIP3    H123777   4.567   6.109   0.477 -0.0800 -0.0120 -1.3669
  714TIP3    H223778   4.495   5.984   0.521  0.6935  0.1359  0.4389
  715TIP3   OH223779   2.319   0.493   0.903  0.5061  0.3755 -0.1000
  715TIP3    H123780   2.405   0.534   0.907  1.4321 -1.4488 -0.1199
  715TIP3    H223781   2.313   0.441   0.984 -0.2512 -0.0941 -0.4436
  716TIP3   OH223782   6.681   0.436   0.671  0.0194 -0.1727 -0.5092
  716TIP3    H123783   6.601   0.471   0.631 -0.2155  0.0621  0.1523
  716TIP3    H223784   6.697   0.354   0.625 -0.7835 -0.3777 -0.4313
  717TIP3   OH223785   3.611   0.053   8.302  0.0335 -0.6278 -0.7872
  717TIP3    H123786   3.570   0.119   8.246  1.7183 -0.1808 -1.5296
  717TIP3    H223787   3.697   0.038   8.264  1.5299  0.1480  1.9973
  718TIP3   OH223788   6.730   4.348   1.126  0.2729  0.0272  0.0492
  718TIP3    H123789   6.684   4.422   1.166  0.3655 -0.7031  1.5470
  718TIP3    H223790   6.815   4.346   1.170  1.2959  0.5757 -1.7974
  719TIP3   OH223791   3.462   2.770   0.732 -0.0358  0.0267  0.4626
  719TIP3    H123792   3.429   2.706   0.795  0.3171 -2.2877 -1.5724
  719TIP3    H223793   3.398   2.842   0.735 -0.7975 -0.6703  2.3518
  720TIP3   OH223794   0.175   2.532   7.785  0.0947 -0.1096 -0.2479
  720TIP3    H123795   0.173   2.452   7.837  1.8103 -0.3742 -0.5468
  720TIP3    H223796   0.259   2.530   7.741  0.8236  2.5340  0.8225
  721TIP3   OH223797   3.240   5.715   1.527  0.7150 -0.1896  0.2964
  721TIP3    H123798   3.236   5.788   1.589 -1.1921  0.1197 -0.1165
  721TIP3    H223799   3.333   5.706   1.506  1.0097  2.3545  0.1047
  722TIP3   OH223800   5.798   1.352   0.679 -0.4549 -0.2570  0.6170
  722TIP3    H123801   5.721   1.316   0.634  0.2537 -1.7200  0.5277
  722TIP3    H223802   5.791   1.320   0.769 -1.2420  1.6887  1.3116
  723TIP3   OH223803   0.489   0.278   8.308  0.0506 -0.1013  0.0327
  723TIP3    H123804   0.578   0.295   8.276  0.0421  0.7386  0.4121
  723TIP3    H223805   0.472   0.351   8.367 -0.6297 -0.6430  0.5075
  724TIP3   OH223806   0.152   6.159   2.337  0.4843  0.3360  0.1087
  724TIP3    H123807   0.208   6.233   2.312  0.7421  0.2253  0.3476
  724TIP3    H223808   0.087   6.197   2.396 -0.5070  0.7174 -1.1994
  725TIP3   OH223809   1.871   1.861   1.388 -0.2204  0.0402  0.0782
  725TIP3    H123810   1.951   1.855   1.335  0.1685  2.5665  0.2620
  725TIP3    H223811   1.876   1.786   1.447  2.2815  0.3711  0.4072
  726TIP3   OH223812   1.617   5.832   7.536  0.6202  0.1865 -0.6531
  726TIP3    H123813   1.672   5.755   7.549 -2.5143 -2.3729 -1.2604
  726TIP3    H223814   1.606   5.839   7.441 -0.6073  0.2218 -0.5257
  727TIP3   OH223815   2.652   5.222   0.997  0.5087 -0.3416 -0.1901
  727TIP3    H123816   2.744   5.218   1.023  0.0442 -0.2568  1.5703
  727TIP3    H223817   2.614   5.291   1.052 -0.4391  0.2298 -1.5011
  728TIP3   OH223818   3.151   3.821   0.308  0.2475 -0.0430 -0.4735
  728TIP3    H123819   3.069   3.811   0.357  1.0193 -0.2779  0.8215
  728TIP3    H223820   3.177   3.912   0.323  0.9768 -0.3746  0.3966
  729TIP3   OH223821   3.240   0.623   7.648  0.5257  0.4159  0.0568
  729TIP3    H123822   3.166   0.570   7.678  0.1339  0.1315 -1.3225
  729TIP3    H223823   3.209   0.713   7.657  0.1828  0.3141 -0.0687
  730TIP3   OH223824   0.804   1.159   1.906  0.4605  0.5284 -0.9483
  730TIP3    H123825   0.749   1.226   1.946  1.9307  1.9339 -1.2201
  730TIP3    H223826   0.759   1.077   1.926  0.1225  1.3163  1.9103
  731TIP3   OH223827   1.294   3.237   1.019 -0.0898 -0.2786 -0.1792
  731TIP3    H123828   1.206   3.270   1.006  0.3972  0.7904 -0.9373
  731TIP3    H223829   1.294   3.203   1.108 -1.7623 -2.0047 -0.7632
  732TIP3   OH223830   6.629   6.216   8.658 -0.3181 -0.2373 -0.2165
  732TIP3    H123831   6.612   6.245   8.568 -0.3533 -0.6629 -0.3498
  732TIP3    H223832   6.686   6.284   8.695  1.2456 -0.9954 -1.1512
  733TIP3   OH223833   4.863   6.243   7.042  0.3719 -0.0716 -0.0196
  733TIP3    H123834   4.822   6.309   6.987 -0.7530  0.7541  1.7244
  733TIP3    H223835   4.817   6.162   7.022  2.4288 -0.6763 -2.9209
  734TIP3   OH223836   3.311   3.826   1.949 -0.5980 -0.4017 -0.2579
  734TIP3    H123837   3.279   3.787   2.030 -0.3740  0.4248  0.2444
  734TIP3    H223838   3.357   3.905   1.977  2.8701 -2.0448 -0.8070
  735TIP3   OH223839   4.755   5.925   0.780  0.4844 -0.0842 -0.2121
  735TIP3    H123840   4.784   5.930   0.689  2.6211  0.8434  0.4614
  735TIP3    H223841   4.679   5.982   0.784  1.4506  1.3259 -1.0644
  736TIP3   OH223842   4.855   6.648   7.204 -0.3664  0.1046 -0.2734
  736TIP3    H123843   4.904   6.729   7.214  0.7748 -0.7728  2.0293
  736TIP3    H223844   4.811   6.635   7.288 -1.3603 -1.1478 -0.9438
  737TIP3   OH223845   2.343   6.803   8.559 -0.2019 -0.3017  0.4215
  737TIP3    H123846   2.294   6.822   8.640 -0.4707  0.5853  0.0677
  737TIP3    H223847   2.315   6.872   8.498 -0.1437 -1.0700 -0.4890
  738TIP3   OH223848   4.069   2.928   0.401 -0.2911 -0.6975  0.0000
  738TIP3    H123849   4.040   2.918   0.492  1.7655 -2.5446  0.5641
  738TIP3    H223850   3.998   2.892   0.349 -1.9251  1.2832  0.7669
  739TIP3   OH223851   6.392   6.344   0.406  0.1910 -0.5998 -0.1257
  739TIP3    H123852   6.366   6.433   0.433 -0.0608 -0.0886 -1.9270
  739TIP3    H223853   6.416   6.353   0.313 -0.2257 -2.5012 -0.4554
  740TIP3   OH223854   6.636   6.285   0.512  0.1803 -0.0501 -0.0448
  740TIP3    H123855   6.548   6.317   0.493  0.9710  2.3538  0.0310
  740TIP3    H223856   6.693   6.360   0.495  1.9353 -0.6715  2.5167
  741TIP3   OH223857   0.010   6.006   7.829  0.1251  0.0560  0.0454
  741TIP3    H123858   0.076   6.070   7.801 -0.0552 -0.1427 -0.8669
  741TIP3    H223859  -0.054   6.004   7.757 -1.0567  0.4827  1.0670
  742TIP3   OH223860   3.669   6.749   7.759  0.0913  0.4006 -0.5870
  742TIP3    H123861   3.637   6.665   7.790  1.4446 -0.4807 -1.4557
  742TIP3    H223862   3.745   6.768   7.813  0.7794  0.2298 -1.4663
  743TIP3   OH223863   1.220   4.895   2.593  0.6952  0.0736 -0.4507
  743TIP3    H123864   1.137   4.941   2.576  0.2305  0.2285  1.9389
  743TIP3    H223865   1.193   4.814   2.635  1.7367 -0.4610 -0.7868
  744TIP3   OH223866   5.279   2.185   1.085  0.1661 -0.3047 -0.4024
  744TIP3    H123867   5.288   2.233   1.003  0.9724 -0.9059 -0.6707
  744TIP3    H223868   5.206   2.126   1.071 -1.3330  1.3114  0.1790
  745TIP3   OH223869   5.137   6.199   7.183  0.2386  0.0754  0.1019
  745TIP3    H123870   5.117   6.293   7.174  0.8853  0.3119  1.0301
  745TIP3    H223871   5.082   6.157   7.117 -1.3083  0.9426  0.7737
  746TIP3   OH223872   0.471   6.023   8.525  0.0157  0.1250  0.0315
  746TIP3    H123873   0.381   5.997   8.506 -0.1984 -0.0413  1.1779
  746TIP3    H223874   0.514   5.942   8.555  1.0205 -0.1651 -1.9968
  747TIP3   OH223875   1.587   1.016   7.849 -0.9019  0.2647  0.1709
  747TIP3    H123876   1.586   0.963   7.769 -2.4478 -0.0986  0.4054
  747TIP3    H223877   1.566   0.954   7.919  0.6884  0.5293  0.9216
  748TIP3   OH223878   5.506   2.989   0.749  0.0268 -0.4773  0.0182
  748TIP3    H123879   5.528   2.911   0.698 -0.4515  0.0397 -0.9978
  748TIP3    H223880   5.590   3.019   0.785  0.4183 -0.6600 -0.7339
  749TIP3   OH223881   6.349   2.607   1.354  0.3338 -0.6788  0.4372
  749TIP3    H123882   6.285   2.676   1.364  0.4021 -0.4669 -0.4779
  749TIP3    H223883   6.298   2.526   1.357  0.2040 -0.5744  1.0959
  750TIP3   OH223884   6.089   5.859   0.606 -0.0866 -0.2335  0.4528
  750TIP3    H123885   6.179   5.888   0.588  0.0104 -0.4252  0.6279
  750TIP3    H223886   6.075   5.787   0.544 -0.1844 -0.0833  0.2992
  751TIP3   OH223887   5.522   2.840   7.791 -0.7326  0.3281  0.5803
  751TIP3    H123888   5.466   2.849   7.713 -0.7049 -1.7793  0.2528
  751TIP3    H223889   5.490   2.761   7.834  1.4658 -0.4960  0.8221
  752TIP3   OH223890   5.706   4.371   6.609  0.0501  0.3296 -0.6153
  752TIP3    H123891   5.621   4.327   6.612  0.4446 -0.3923  0.4663
  752TIP3    H223892   5.769   4.302   6.588  1.0710 -0.3965  3.7755
  753TIP3   OH223893   4.859   3.678   0.972 -0.7869 -0.3154  0.6761
  753TIP3    H123894   4.784   3.620   0.963 -0.9239  0.0025 -0.3467
  753TIP3    H223895   4.837   3.754   0.919  1.3810 -1.3874 -2.0021
  754TIP3   OH223896   3.111   2.227   0.598  0.0583 -0.0130  0.0379
  754TIP3    H123897   3.132   2.315   0.628 -0.1769 -0.7167  2.4627
  754TIP3    H223898   3.020   2.213   0.625  0.5489 -1.5069  1.0314
  755TIP3   OH223899   0.084   0.428   0.658  0.1326 -0.1291  0.2339
  755TIP3    H123900  -0.010   0.441   0.668  0.4634  1.1053  2.2412
  755TIP3    H223901   0.101   0.451   0.566 -1.4215  0.2346  0.0063
  756TIP3   OH223902   1.643   5.172   2.462 -0.3698 -0.1006  0.2578
  756TIP3    H123903   1.565   5.130   2.426 -2.0179  1.7982  1.4392
  756TIP3    H223904   1.698   5.098   2.490 -2.8359 -1.5615  1.6728
  757TIP3   OH223905   3.639   2.830   8.230  0.1202 -0.5658 -0.1741
  757TIP3    H123906   3.632   2.794   8.141 -0.0432  0.0465 -0.4176
  757TIP3    H223907   3.608   2.760   8.287  1.2364 -1.3608 -0.5051
  758TIP3   OH223908   3.404   4.176   0.928  0.3639 -0.2151  0.2667
  758TIP3    H123909   3.325   4.128   0.904  0.2097  0.1188  0.1004
  758TIP3    H223910   3.392   4.196   1.021  1.1132 -1.7978  0.7357
  759TIP3   OH223911   5.909   3.402   8.602 -0.0353 -0.4377 -0.1710
  759TIP3    H123912   5.935   3.375   8.690  0.2873 -0.2377 -0.2009
  759TIP3    H223913   5.823   3.443   8.614  0.5893  0.8153  0.2746
  760TIP3   OH223914   4.843   1.948   1.366  0.0360 -0.3522  0.3331
  760TIP3    H123915   4.797   2.006   1.427 -0.7259  0.9950 -1.4077
  760TIP3    H223916   4.936   1.960   1.388 -0.1838  0.6000  0.8244
  761TIP3   OH223917   1.324   0.890   1.778 -0.0575  0.3786  0.1047
  761TIP3    H123918   1.375   0.961   1.816 -2.7048  2.4263  0.1419
  761TIP3    H223919   1.353   0.885   1.687  0.0009  1.7458  0.0297
  762TIP3   OH223920   3.730   2.287   0.602  0.2513  0.4349 -0.0217
  762TIP3    H123921   3.738   2.215   0.665 -1.4091 -0.3265 -0.6241
  762TIP3    H223922   3.663   2.344   0.640 -0.9116 -0.1337 -1.1563
  763TIP3   OH223923   4.010   2.380   0.287  0.3965 -0.3355  0.3043
  763TIP3    H123924   3.955   2.344   0.217  0.1715  0.7574 -0.0973
  763TIP3    H223925   3.962   2.456   0.319  1.6577  0.6543 -0.0622
  764TIP3   OH223926   0.432   5.213   7.041  0.3527 -0.2478 -0.0594
  764TIP3    H123927   0.438   5.123   7.008  1.0641 -0.2960  0.1882
  764TIP3    H223928   0.339   5.224   7.064  0.3262 -1.0429  0.2538
  765TIP3   OH223929   2.693   3.990   0.125 -0.0563 -0.3363 -0.6351
  765TIP3    H123930   2.599   3.977   0.141 -0.0849 -0.9398 -1.2410
  765TIP3    H223931   2.702   3.982   0.030  0.6822 -0.7676 -0.5322
  766TIP3   OH223932   3.793   2.534   8.466  0.0125  0.1719 -0.0986
  766TIP3    H123933   3.829   2.553   8.552 -2.3919 -0.9103  1.2400
  766TIP3    H223934   3.711   2.582   8.462 -1.8503 -2.7312 -0.1099
  767TIP3   OH223935   4.304   0.136   7.022  0.2517 -0.0730  0.5403
  767TIP3    H123936   4.320   0.222   6.983  1.0272 -0.2793  0.3940
  767TIP3    H223937   4.234   0.151   7.086 -1.9977  0.0499 -1.7685
  768TIP3   OH223938   1.479   0.662   7.312 -0.0852  0.0109 -0.7634
  768TIP3    H123939   1.504   0.651   7.403 -0.1837 -2.7852 -0.9893
  768TIP3    H223940   1.385   0.683   7.315  0.3290  1.8967 -0.2030
  769TIP3   OH223941   4.256   6.039   7.243 -0.0676 -0.3498  0.5260
  769TIP3    H123942   4.285   6.118   7.196  2.9246 -1.4631  0.3125
  769TIP3    H223943   4.213   5.986   7.176  1.0210 -0.3856 -0.1737
  770TIP3   OH223944   4.001   4.374   1.125 -0.1900  0.2685 -0.4187
  770TIP3    H123945   4.044   4.445   1.173 -1.7193  2.3238 -1.9257
  770TIP3    H223946   4.051   4.367   1.043 -0.0703 -0.4082 -0.2938
  771TIP3   OH223947   5.512   4.609   0.999 -0.0558  0.2368  0.2326
  771TIP3    H123948   5.500   4.516   1.019  1.0446  0.1618  0.6229
  771TIP3    H223949   5.502   4.654   1.083  0.8845  0.2999  0.3282
  772TIP3   OH223950   0.378   0.256   7.756 -0.0712  0.6781 -0.3351
  772TIP3    H123951   0.335   0.341   7.751  0.3563  0.8160 -3.3232
  772TIP3    H223952   0.328   0.200   7.697  0.6563 -0.6831  0.2900
  773TIP3   OH223953   0.547   4.642   6.694  0.5263 -0.0765 -0.2984
  773TIP3    H123954   0.467   4.595   6.670  0.4569 -0.6981  1.0290
  773TIP3    H223955   0.592   4.582   6.754  1.4439  0.7335 -0.1613
  774TIP3   OH223956   3.207   1.610   0.352  0.0626  0.2952 -0.5407
  774TIP3    H123957   3.282   1.582   0.405 -1.3417 -2.8166  0.0250
  774TIP3    H223958   3.194   1.539   0.289 -1.7408  1.2976 -1.3723
  775TIP3   OH223959   0.917   1.141   1.626 -0.0997  0.4283  0.1786
  775TIP3    H123960   0.866   1.140   1.707 -0.1936  0.3299  0.1178
  775TIP3    H223961   0.855   1.118   1.558 -0.1494  1.0766  0.0003
  776TIP3   OH223962   3.486   4.644   2.219  0.0681  0.2824 -0.1973
  776TIP3    H123963   3.481   4.623   2.312  1.5096 -0.5751 -0.2807
  776TIP3    H223964   3.457   4.735   2.213 -0.9757  0.0480  0.9427
  777TIP3   OH223965   6.679   1.062   1.887  0.2414  0.2349  0.5563
  777TIP3    H123966   6.669   1.154   1.908 -1.2524 -0.2033  1.9207
  777TIP3    H223967   6.718   1.023   1.966  1.2469 -0.2429 -0.1530
  778TIP3   OH223968   4.180   1.554   8.463  0.5438 -0.3635 -0.2644
  778TIP3    H123969   4.209   1.626   8.407 -2.5606  0.5439 -0.8585
  778TIP3    H223970   4.259   1.528   8.511  2.3169  1.7427 -1.8472
  779TIP3   OH223971   0.009   2.774   8.165  0.3699  0.7677  0.5464
  779TIP3    H123972  -0.045   2.738   8.095 -1.7414  0.0405  2.4194
  779TIP3    H223973   0.019   2.867   8.143 -0.8566  0.6997 -0.3660
  780TIP3   OH223974   6.741   6.683   7.558 -0.0449  0.3699  0.3400
  780TIP3    H123975   6.730   6.778   7.560 -2.9326  0.1292  0.3031
  780TIP3    H223976   6.752   6.659   7.650 -1.6055  0.5878  0.6128
  781TIP3   OH223977   1.174   5.162   7.470  0.3826 -0.0079  0.4421
  781TIP3    H123978   1.138   5.231   7.414  0.3158 -0.5379 -0.1836
  781TIP3    H223979   1.126   5.083   7.445 -1.1041  0.0872  2.6749
  782TIP3   OH223980   5.622   4.392   6.937 -0.0088 -0.1500  0.1197
  782TIP3    H123981   5.597   4.303   6.912  0.0206  0.3115 -1.7262
  782TIP3    H223982   5.627   4.439   6.854  1.3227  1.2379  0.9365
  783TIP3   OH223983   3.854   0.291   8.555 -0.3651 -0.8378  0.0196
  783TIP3    H123984   3.834   0.262   8.466 -0.9930 -0.1696 -0.0668
  783TIP3    H223985   3.769   0.313   8.593 -0.0770 -0.9007  0.7066
  784TIP3   OH223986   6.393   3.013   1.278  0.2741 -0.4800 -0.8085
  784TIP3    H123987   6.393   2.966   1.195  2.2559  0.2898 -1.3164
  784TIP3    H223988   6.474   3.065   1.276 -0.8187  1.4198  0.5567
  785TIP3   OH223989   1.356   1.590   1.062  0.3708  0.0199  0.4665
  785TIP3    H123990   1.451   1.589   1.072  0.4619  2.1267  0.2470
  785TIP3    H223991   1.323   1.564   1.148  1.1343  0.2023  0.8242
  786TIP3   OH223992   6.458   4.833   8.155 -0.0463  0.1489  0.3433
  786TIP3    H123993   6.455   4.876   8.070 -1.8211 -0.3318  0.1245
  786TIP3    H223994   6.546   4.794   8.159 -0.1426 -0.3749 -1.5483
  787TIP3   OH223995   5.754   3.988   7.576  0.2848  0.4437  0.0671
  787TIP3    H123996   5.751   4.069   7.525 -1.4781  0.8884  0.8124
  787TIP3    H223997   5.665   3.976   7.608  0.0964 -2.6684 -1.2787
  788TIP3   OH223998   6.101   0.603   7.201 -0.1103 -0.5934 -0.6652
  788TIP3    H123999   6.119   0.691   7.170  1.6217 -0.8070 -0.3570
  788TIP3    H224000   6.096   0.550   7.121 -2.4051 -0.0725 -0.9455
  789TIP3   OH224001   2.633   5.739   1.813  0.2422 -0.1782  0.2966
  789TIP3    H124002   2.538   5.729   1.809  0.3084 -1.1224  0.8674
  789TIP3    H224003   2.646   5.834   1.816 -0.7123 -0.0475  0.7882
  790TIP3   OH224004   0.037   3.090   0.973  0.3251  0.4249  0.2822
  790TIP3    H124005  -0.024   3.119   0.906  1.8842 -1.9941 -2.3807
  790TIP3    H224006  -0.000   3.008   1.006  0.9670  0.1381  0.3059
  791TIP3   OH224007   5.029   1.491   1.902 -0.5633 -0.4249 -0.3170
  791TIP3    H124008   5.082   1.411   1.901  1.9123  1.0846 -2.4052
  791TIP3    H224009   5.072   1.548   1.965 -1.9966 -0.4737  0.7583
  792TIP3   OH224010   3.085   2.199   7.293  0.2341  0.6116 -0.0484
  792TIP3    H124011   3.163   2.172   7.244 -0.2448  1.3730 -1.2802
  792TIP3    H224012   3.061   2.283   7.255 -1.1064  0.4660  0.4262
  793TIP3   OH224013   1.765   4.503   7.996 -0.0040 -0.4698  0.1339
  793TIP3    H124014   1.721   4.442   7.937  0.3640  0.0438 -0.6885
  793TIP3    H224015   1.813   4.446   8.057 -0.3873 -1.0070 -0.0584
  794TIP3   OH224016   1.412   6.349   6.779 -0.2282 -0.1350  0.1136
  794TIP3    H124017   1.420   6.409   6.853  2.1085 -0.0094 -0.1569
  794TIP3    H224018   1.318   6.340   6.765 -0.6809  1.6832  1.5892
  795TIP3   OH224019   6.351   0.657   0.802  0.2331  0.0232  0.8085
  795TIP3    H124020   6.403   0.642   0.723  0.4259 -0.0959  0.9586
  795TIP3    H224021   6.372   0.747   0.828 -0.3654  0.3086  0.3259
  796TIP3   OH224022   3.483   6.774   1.330 -0.4431 -0.5801 -0.1645
  796TIP3    H124023   3.523   6.784   1.416 -0.2958 -1.4378 -0.1205
  796TIP3    H224024   3.513   6.688   1.300 -1.7432 -0.9784 -0.3928
  797TIP3   OH224025   6.807   2.531   7.784 -0.3183  0.1466 -0.2937
  797TIP3    H124026   6.786   2.513   7.876 -1.1245  2.0614 -0.0427
  797TIP3    H224027   6.902   2.530   7.781 -0.2891 -1.0841  0.2824
  798TIP3   OH224028   6.318   0.751   6.745  0.9714  0.1993  0.6794
  798TIP3    H124029   6.294   0.676   6.800 -0.9241 -0.5677 -1.0573
  798TIP3    H224030   6.410   0.735   6.721  1.3803 -0.1913  2.3983
  799TIP3   OH224031   1.145   6.608   6.721  0.5388  0.2262 -0.0340
  799TIP3    H124032   1.229   6.639   6.689  0.9453 -0.2619  0.5334
  799TIP3    H224033   1.153   6.512   6.720 -0.4475  0.1345 -1.1337
  800TIP3   OH224034   6.475   3.653   0.305 -0.4512  0.0403 -0.1095
  800TIP3    H124035   6.391   3.666   0.260 -0.9379 -0.6990  0.5532
  800TIP3    H224036   6.541   3.679   0.241 -0.9799 -3.3219 -2.2502
  801TIP3   OH224037   0.483   3.903   0.581 -0.1469 -0.1283 -0.8075
  801TIP3    H124038   0.546   3.836   0.606 -0.0552  1.0524  2.6473
  801TIP3    H224039   0.398   3.863   0.597 -0.1324  0.0705 -0.2336
  802TIP3   OH224040   2.435   0.345   7.134  0.2270  0.2783 -0.4040
  802TIP3    H124041   2.473   0.357   7.221 -0.0791 -1.1720 -0.0519
  802TIP3    H224042   2.494   0.285   7.089  0.3045  0.9044 -1.1647
  803TIP3   OH224043   6.631   1.602   5.745  0.3081 -0.2759 -0.0472
  803TIP3    H124044   6.562   1.542   5.718 -0.1881  0.6771 -0.9549
  803TIP3    H224045   6.586   1.669   5.797  0.4931  0.4835 -0.8468
  804TIP3   OH224046   5.353   0.183   7.750  0.0101 -0.2841  0.3345
  804TIP3    H124047   5.348   0.261   7.693  0.4759  0.4339  1.2574
  804TIP3    H224048   5.318   0.112   7.696 -0.1004  0.4970 -0.6489
  805TIP3   OH224049   5.503   3.620   1.756  0.3092  0.3949 -0.2243
  805TIP3    H124050   5.521   3.580   1.671 -0.4277 -1.4727  0.4508
  805TIP3    H224051   5.582   3.604   1.808 -0.2453 -0.8608  0.2658
  806TIP3   OH224052   1.722   1.590   1.418  0.5694 -0.4085  0.1578
  806TIP3    H124053   1.754   1.521   1.360  0.9089  0.5584 -0.8299
  806TIP3    H224054   1.738   1.672   1.370  3.0630  0.6666  2.5011
  807TIP3   OH224055   6.192   0.905   8.242 -0.2385  0.1867 -0.1578
  807TIP3    H124056   6.129   0.847   8.286 -0.9048  0.8367 -0.2343
  807TIP3    H224057   6.218   0.968   8.309 -0.2982  0.4145 -0.3458
  808TIP3   OH224058   2.076   1.266   8.021 -0.6073  0.3331  0.4324
  808TIP3    H124059   2.145   1.226   8.074 -1.3353 -0.2376  0.9718
  808TIP3    H224060   2.104   1.253   7.931 -1.5166 -2.7992  0.4839
  809TIP3   OH224061   2.870   0.935   1.367 -0.0632 -0.3898 -0.2455
  809TIP3    H124062   2.795   0.878   1.383  0.1959 -0.5668  0.3523
  809TIP3    H224063   2.849   0.979   1.284 -1.0778 -0.0231  0.1817
  810TIP3   OH224064   3.692   0.257   7.099 -0.3328 -0.0262  0.0156
  810TIP3    H124065   3.750   0.210   7.159 -1.3375 -0.5217  0.6254
  810TIP3    H224066   3.751   0.297   7.035  0.6318 -1.0527  0.2331
  811TIP3   OH224067   2.349   2.456   0.025  0.2060  0.3402 -0.3443
  811TIP3    H124068   2.263   2.429  -0.008  1.2260 -0.3502 -2.5852
  811TIP3    H224069   2.351   2.422   0.115 -1.4865 -0.4560 -0.5577
  812TIP3   OH224070   0.924   6.858   1.762 -0.0504 -0.2792  0.1453
  812TIP3    H124071   0.843   6.879   1.809 -0.8478 -2.8611  0.0484
  812TIP3    H224072   0.967   6.792   1.816  1.4843  0.2869 -0.3431
  813TIP3   OH224073   2.255   5.886   8.428 -0.1440 -0.5420 -0.4948
  813TIP3    H124074   2.347   5.908   8.444 -0.3590  1.8349 -2.0068
  813TIP3    H224075   2.259   5.820   8.359  0.4323 -0.5408 -0.4696
  814TIP3   OH224076   6.314   6.485   6.782 -0.0139  0.0675  0.2263
  814TIP3    H124077   6.366   6.452   6.709 -1.2444  0.6718 -0.9747
  814TIP3    H224078   6.234   6.433   6.779 -0.0677  0.0871  1.1680
  815TIP3   OH224079   2.711   1.821   1.001 -0.1371  0.3322 -0.4510
  815TIP3    H124080   2.620   1.806   1.027  0.5577 -1.2866  1.2743
  815TIP3    H224081   2.742   1.890   1.060  0.0814  0.0337 -0.2129
  816TIP3   OH224082   3.822   2.084   0.290 -0.5332  0.2261  0.1054
  816TIP3    H124083   3.798   2.174   0.312 -2.7338  0.0748 -1.3453
  816TIP3    H224084   3.810   2.035   0.372 -1.3378  0.9054  0.3995
  817TIP3   OH224085   0.226   4.530   7.642 -0.4110 -0.1133  0.0682
  817TIP3    H124086   0.184   4.534   7.556 -0.6303  1.6160  0.2134
  817TIP3    H224087   0.318   4.552   7.624 -0.3382 -0.2965  0.2123
  818TIP3   OH224088   3.717   4.809   8.204 -0.2123 -0.0420 -0.6833
  818TIP3    H124089   3.799   4.822   8.253 -0.9706  1.6470  0.2280
  818TIP3    H224090   3.701   4.715   8.208 -0.4482  0.0477  2.7445
  819TIP3   OH224091   2.177   1.819   0.550 -0.0491 -0.2886  0.4191
  819TIP3    H124092   2.213   1.784   0.469  1.7350  1.3162  0.4439
  819TIP3    H224093   2.083   1.830   0.532  0.0999 -1.0590 -0.9783
  820TIP3   OH224094   3.225   0.991   7.861  0.5653 -0.1814  0.7195
  820TIP3    H124095   3.255   1.027   7.944 -2.2051 -1.0698  2.2666
  820TIP3    H224096   3.165   0.921   7.886 -2.1019  0.9222 -1.9268
  821TIP3   OH224097   6.201   1.329   6.983 -0.6145 -0.0618  0.3174
  821TIP3    H124098   6.279   1.350   7.034 -0.0550  0.0666 -0.5646
  821TIP3    H224099   6.140   1.292   7.046  0.2877 -0.4775  0.9680
  822TIP3   OH224100   4.967   4.195   6.273  0.3378  0.1993 -0.4923
  822TIP3    H124101   4.946   4.101   6.273 -1.3931  0.5433 -0.9324
  822TIP3    H224102   4.920   4.230   6.198  3.0798  1.0352 -1.9514
  823TIP3   OH224103   1.558   1.823   7.427  0.8394  0.0533 -0.2944
  823TIP3    H124104   1.642   1.837   7.471  0.4495  0.5339  0.3002
  823TIP3    H224105   1.503   1.780   7.492  0.1959  0.9475 -0.2333
  824TIP3   OH224106   4.190   1.568   7.049  0.0904  0.5292  0.2531
  824TIP3    H124107   4.191   1.645   7.106 -0.4412 -0.1405  1.1943
  824TIP3    H224108   4.277   1.568   7.009  0.4281  1.1098  0.9449
  825TIP3   OH224109   6.169   0.889   0.259 -0.0449 -0.2446  0.3185
  825TIP3    H124110   6.233   0.834   0.213  0.1027  1.3984 -1.5473
  825TIP3    H224111   6.176   0.861   0.350  2.3744 -1.0366 -0.0251
  826TIP3   OH224112   4.822   6.802   8.623  0.2498  0.1541  0.4719
  826TIP3    H124113   4.802   6.864   8.693 -0.6721  0.2445  0.1395
  826TIP3    H224114   4.768   6.725   8.642 -1.2386  0.7898 -0.9834
  827TIP3   OH224115   2.620   5.426   7.956 -0.0165 -0.1072  0.0042
  827TIP3    H124116   2.692   5.469   7.910  1.5784 -1.0501  1.4412
  827TIP3    H224117   2.547   5.428   7.895  0.7070  2.3760 -0.9052
  828TIP3   OH224118   0.213   2.764   1.732  0.4917 -0.2670 -0.5907
  828TIP3    H124119   0.171   2.801   1.810 -0.0208  0.0863 -1.0306
  828TIP3    H224120   0.300   2.738   1.763  0.3083 -0.1041  0.0945
  829TIP3   OH224121   3.510   2.896   1.720 -0.1231  0.2553 -0.2968
  829TIP3    H124122   3.550   2.814   1.748  0.2147  0.0308 -1.3944
  829TIP3    H224123   3.575   2.963   1.739  0.2513  0.0594 -0.8853
  830TIP3   OH224124   0.295   6.886   6.854  0.2717  0.3982 -0.4276
  830TIP3    H124125   0.236   6.891   6.929 -0.5328  3.6541 -1.0753
  830TIP3    H224126   0.381   6.906   6.889 -0.0270  1.4607 -0.2611
  831TIP3   OH224127   1.588   1.370   0.698 -0.3791 -0.1208  0.1238
  831TIP3    H124128   1.618   1.337   0.783 -0.6149 -0.6445  0.0125
  831TIP3    H224129   1.668   1.386   0.648 -0.2396 -2.4244 -0.5167
  832TIP3   OH224130   0.796   1.793   1.100  0.4268  0.5401  0.1758
  832TIP3    H124131   0.835   1.750   1.024  0.8210  1.7210 -0.3034
  832TIP3    H224132   0.712   1.825   1.069 -0.3163 -0.7104  0.8089
  833TIP3   OH224133   2.704   3.145   8.665  0.2410 -0.1664  0.0987
  833TIP3    H124134   2.663   3.071   8.710  2.4278 -0.7630  1.2510
  833TIP3    H224135   2.634   3.181   8.611 -1.5869 -1.5021  1.4250
  834TIP3   OH224136   1.507   6.057   7.638 -0.3212 -0.4962 -0.0476
  834TIP3    H124137   1.442   6.034   7.704  1.7851 -0.5506  2.1434
  834TIP3    H224138   1.540   5.972   7.608  0.7388 -0.4703  0.9938
  835TIP3   OH224139   6.506   6.379   0.166  0.0610  0.4306  0.5463
  835TIP3    H124140   6.494   6.305   0.106 -0.8163  1.7027 -0.9567
  835TIP3    H224141   6.594   6.411   0.147 -0.0978  0.6356  0.1225
  836TIP3   OH224142   2.995   4.488   1.869 -0.1934  0.0165 -0.2823
  836TIP3    H124143   3.084   4.487   1.834  0.6429 -3.1338  1.5368
  836TIP3    H224144   3.005   4.512   1.961 -1.7309  2.9121 -0.7452
  837TIP3   OH224145   1.830   6.384   8.228 -0.4780  0.3821 -0.0607
  837TIP3    H124146   1.775   6.359   8.303 -0.2630 -0.3909 -0.1451
  837TIP3    H224147   1.773   6.436   8.172 -0.8487  0.3721  0.3050
  838TIP3   OH224148   0.063   2.766   7.860 -0.0982 -0.0819  0.0026
  838TIP3    H124149   0.066   2.673   7.838  1.8711 -0.3986  1.3066
  838TIP3    H224150  -0.004   2.802   7.803 -1.2657 -2.3845 -0.1980
  839TIP3   OH224151   4.810   5.966   8.389  0.0966 -0.5291  0.3912
  839TIP3    H124152   4.838   6.021   8.462 -1.3958 -0.6488  1.0854
  839TIP3    H224153   4.764   6.025   8.329  1.1362 -0.4703 -0.3862
  840TIP3   OH224154   1.371   6.536   6.966 -0.3954 -0.1716  0.3941
  840TIP3    H124155   1.370   6.630   6.951  2.4068 -0.2485 -0.9255
  840TIP3    H224156   1.329   6.524   7.051  0.3510  2.4016  1.2055
  841TIP3   OH224157   2.669   3.965   6.764  0.0082 -0.4263 -0.0106
  841TIP3    H124158   2.641   3.910   6.692  1.1599 -1.0102 -0.0426
  841TIP3    H224159   2.763   3.946   6.774 -0.1857 -0.6393  1.8559
  842TIP3   OH224160   0.984   0.918   0.460 -0.1114 -0.7287  0.0417
  842TIP3    H124161   0.921   0.967   0.406 -0.7956  0.6261  1.9915
  842TIP3    H224162   0.932   0.887   0.534  1.0513 -1.5886  0.5149
  843TIP3   OH224163   0.029   0.348   6.317 -0.1974 -0.1899 -0.6713
  843TIP3    H124164  -0.060   0.373   6.292  0.0165  1.9035  0.3796
  843TIP3    H224165   0.080   0.359   6.237 -0.8561 -1.4301 -1.2907
  844TIP3   OH224166   4.910   5.199   8.461  0.4749  0.2650  0.0380
  844TIP3    H124167   4.829   5.190   8.411 -0.9578  2.1533  1.8301
  844TIP3    H224168   4.882   5.194   8.553  2.3690  1.0522  0.7060
  845TIP3   OH224169   3.588   1.462   1.675 -0.3805 -0.1025  0.7090
  845TIP3    H124170   3.654   1.421   1.731 -0.9136  0.3016  1.6566
  845TIP3    H224171   3.506   1.452   1.724 -0.7742  0.7223  0.2403
  846TIP3   OH224172   1.790   1.550   0.090  0.2245  0.3410 -0.3563
  846TIP3    H124173   1.735   1.473   0.107  0.6446  0.2692  0.8125
  846TIP3    H224174   1.762   1.614   0.155  1.5331  0.2766  0.3187
  847TIP3   OH224175   6.170   0.181   0.207  0.0508  0.2277 -0.5422
  847TIP3    H124176   6.090   0.129   0.211  0.5932 -0.5864  2.5455
  847TIP3    H224177   6.230   0.138   0.268  1.8352  2.4153 -0.6136
  848TIP3   OH224178   6.696   5.989   7.660 -0.0192 -0.1025  0.0879
  848TIP3    H124179   6.606   5.955   7.656 -0.7046  1.1524  2.7354
  848TIP3    H224180   6.696   6.063   7.600 -0.3515 -0.8592 -0.8829
  849TIP3   OH224181   5.800   2.422   6.740  0.0845  0.0886  0.1402
  849TIP3    H124182   5.747   2.437   6.661  0.7972  0.4460 -0.2834
  849TIP3    H224183   5.738   2.387   6.804 -0.9869  1.8810  0.1465
  850TIP3   OH224184   2.925   0.343   1.659 -0.3421 -0.0316  0.4111
  850TIP3    H124185   3.001   0.348   1.602 -0.6475  0.0382  0.0103
  850TIP3    H224186   2.944   0.270   1.718  0.1013  0.0843  0.4175
  851TIP3   OH224187   2.032   2.614   2.393  0.3548 -0.2342 -0.5484
  851TIP3    H124188   2.009   2.592   2.483 -2.5501 -1.0547 -1.3844
  851TIP3    H224189   2.032   2.710   2.391  1.4064 -0.1854  0.4832
  852TIP3   OH224190   1.698   1.952   0.897 -0.0947 -0.3697  0.4563
  852TIP3    H124191   1.734   2.017   0.958  1.1404 -0.8984  0.3120
  852TIP3    H224192   1.633   1.904   0.950 -0.6831  0.6415  0.6956
  853TIP3   OH224193   5.966   4.311   7.691  0.4325 -0.8800 -0.3222
  853TIP3    H124194   5.979   4.403   7.670  1.8173 -0.7713  0.8740
  853TIP3    H224195   5.908   4.278   7.622 -1.0762  1.1582 -0.1058
  854TIP3   OH224196   1.917   0.057   0.322 -0.2952 -0.2794 -0.2104
  854TIP3    H124197   1.862   0.065   0.400  1.0143 -1.0535  0.8528
  854TIP3    H224198   1.988  -0.001   0.350  2.1838  2.2392 -0.8172
  855TIP3   OH224199   0.763   2.289   0.968 -0.1679  0.5771 -0.1700
  855TIP3    H124200   0.803   2.210   1.005 -1.5601  0.3723  1.0012
  855TIP3    H224201   0.782   2.284   0.874  1.1792 -0.2776  0.1194
  856TIP3   OH224202   5.994   4.150   8.671  0.1727  0.3975  0.0666
  856TIP3    H124203   6.074   4.147   8.723  0.9677 -0.1758 -1.1420
  856TIP3    H224204   6.024   4.154   8.581 -1.1632  0.1388 -0.4152
  857TIP3   OH224205   0.713   4.171   8.369  0.0726  0.5181  0.4146
  857TIP3    H124206   0.728   4.228   8.294  1.8600 -1.7459 -1.0815
  857TIP3    H224207   0.649   4.107   8.337  0.5433 -0.2258  0.9481
  858TIP3   OH224208   1.103   1.847   1.485  0.7729  0.1319 -0.4070
  858TIP3    H124209   1.046   1.788   1.435  1.0383 -0.1545 -0.3792
  858TIP3    H224210   1.190   1.831   1.449  0.6639  1.4810 -1.3082
  859TIP3   OH224211   2.794   0.811   0.066  0.0733  0.7194  0.9455
  859TIP3    H124212   2.700   0.807   0.048  0.4252 -0.7331 -1.0282
  859TIP3    H224213   2.828   0.869  -0.002  0.8244 -0.5746  0.1615
  860TIP3   OH224214   4.058   6.352   8.558 -0.0767 -0.5755  0.2179
  860TIP3    H124215   4.111   6.341   8.637  0.8862 -1.4838 -0.5335
  860TIP3    H224216   3.994   6.420   8.582  0.8046 -0.1350  1.4550
  861TIP3   OH224217   0.183   3.456   2.300 -0.2028 -0.2825  0.1613
  861TIP3    H124218   0.099   3.413   2.282 -0.3976 -0.1409  0.7031
  861TIP3    H224219   0.184   3.532   2.243  0.1491 -0.9944 -0.8218
  862TIP3   OH224220   0.683   5.493   8.417 -0.0784  0.2980  0.1187
  862TIP3    H124221   0.601   5.466   8.460 -0.5329 -0.5103 -1.2118
  862TIP3    H224222   0.655   5.533   8.335  0.8752 -1.2684 -1.0299
  863TIP3   OH224223   1.403   4.769   8.191  0.5681 -1.0379 -0.5522
  863TIP3    H124224   1.424   4.678   8.173 -2.9140 -2.2618  0.8725
  863TIP3    H224225   1.406   4.776   8.287 -0.4438  0.0023 -0.5759
  864TIP3   OH224226   1.418   1.902   1.771 -0.0469  0.4510  0.4876
  864TIP3    H124227   1.405   1.841   1.699 -2.7933  0.9093  0.5081
  864TIP3    H224228   1.354   1.876   1.837  1.8021  0.5877  2.4434
  865TIP3   OH224229   5.010   4.009   8.411 -0.2819 -0.1948  0.0812
  865TIP3    H124230   5.081   4.007   8.476  1.9093  2.5077 -2.0205
  865TIP3    H224231   4.950   4.077   8.442 -0.0018  0.0965 -0.0213
  866TIP3   OH224232   5.497   2.187   8.365 -0.1919 -0.5560 -0.3809
  866TIP3    H124233   5.430   2.133   8.324  0.0401  0.4585 -2.2229
  866TIP3    H224234   5.464   2.277   8.358  0.1321 -0.2879  1.1830
  867TIP3   OH224235   4.347   4.363   6.748  0.1757  0.0798 -0.4580
  867TIP3    H124236   4.275   4.426   6.741  0.2521  0.2962  0.5832
  867TIP3    H224237   4.323   4.293   6.687 -1.5203 -0.4389  0.7417
  868TIP3   OH224238   2.193   1.511   1.390  1.2341  0.1881 -0.5378
  868TIP3    H124239   2.120   1.565   1.360 -0.2462 -0.7102  1.2996
  868TIP3    H224240   2.174   1.492   1.482  2.6593 -1.8765 -0.5923
  869TIP3   OH224241   0.012   1.225   0.523  0.3883  0.2988 -0.0136
  869TIP3    H124242  -0.033   1.150   0.561  0.6059  1.4366  2.7333
  869TIP3    H224243   0.092   1.234   0.574  1.1154  1.5201 -1.2835
  870TIP3   OH224244   6.126   5.221   7.766  0.5333 -0.3054 -0.0010
  870TIP3    H124245   6.066   5.288   7.732  0.6923 -0.6975 -1.1081
  870TIP3    H224246   6.212   5.263   7.762  0.7786 -0.8838 -1.6763
  871TIP3   OH224247   4.010   1.358   6.928  0.1722  0.8046 -0.3918
  871TIP3    H124248   4.064   1.431   6.960 -0.8013  1.1489  0.5194
  871TIP3    H224249   4.073   1.287   6.913  0.7893  0.8291  1.7585
  872TIP3   OH224250   1.238   4.785   1.334  0.4171  0.1950 -0.0138
  872TIP3    H124251   1.289   4.751   1.407  1.0378 -0.2923 -0.6670
  872TIP3    H224252   1.186   4.711   1.304  0.7252  0.1912 -0.5447
  873TIP3   OH224253   0.598   3.138   7.632  0.6447  0.1920 -0.4536
  873TIP3    H124254   0.503   3.137   7.635  0.4240  2.3701 -3.0837
  873TIP3    H224255   0.622   3.230   7.643  2.3694 -0.1474 -0.9265
  874TIP3   OH224256   3.571   0.317   6.481 -0.3736 -0.1041 -0.0309
  874TIP3    H124257   3.655   0.277   6.503 -0.6810 -0.0524  1.3559
  874TIP3    H224258   3.517   0.244   6.448 -0.4234 -0.5501  0.9967
  875TIP3   OH224259   5.733   0.618   5.847 -0.0741  0.9933  0.2537
  875TIP3    H124260   5.656   0.672   5.862 -0.7080  0.4468 -0.8587
  875TIP3    H224261   5.806   0.680   5.842 -0.7859  1.7669 -0.9983
  876TIP3   OH224262   3.867   4.349   7.503 -0.9405  0.7494 -0.0369
  876TIP3    H124263   3.801   4.418   7.497 -1.9754 -0.3342 -1.9415
  876TIP3    H224264   3.951   4.396   7.501 -1.5877  2.1105  1.9972
  877TIP3   OH224265   4.774   1.154   8.661 -0.2996  0.4690 -0.2864
  877TIP3    H124266   4.779   1.207   8.582  0.5480 -0.0976 -0.6268
  877TIP3    H224267   4.704   1.194   8.712 -0.1153  1.5132 -0.8190
  878TIP3   OH224268   0.014   6.057   8.508 -0.2816  0.9283 -0.3709
  878TIP3    H124269   0.022   6.151   8.492  0.0027  0.9559 -0.0713
  878TIP3    H224270  -0.018   6.051   8.598  2.0120  0.6980  0.4838
  879TIP3   OH224271   0.360   1.784   7.423 -0.0667  0.0185 -0.2772
  879TIP3    H124272   0.310   1.863   7.403 -0.2381 -0.2289 -0.8464
  879TIP3    H224273   0.337   1.723   7.353 -0.5804 -0.8356  0.6263
  880TIP3   OH224274   6.245   0.307   1.510 -0.0050  0.2143 -0.0480
  880TIP3    H124275   6.267   0.349   1.594 -0.3035  0.6902 -0.2059
  880TIP3    H224276   6.246   0.379   1.447  0.5554 -0.1981 -0.5171
  881TIP3   OH224277   2.491   2.560   8.120  0.8393 -0.4026 -0.1528
  881TIP3    H124278   2.425   2.594   8.180  0.0068 -2.5449  0.2257
  881TIP3    H224279   2.510   2.633   8.062 -0.6210  0.7841  0.7870
  882TIP3   OH224280   2.681   3.695   7.061 -1.0248 -0.3141 -0.2821
  882TIP3    H124281   2.747   3.653   7.006  0.1027  0.3105  0.5624
  882TIP3    H224282   2.682   3.646   7.143  0.7305  1.5854  0.9453
  883TIP3   OH224283   2.522   2.294   1.318  0.4649 -0.2883 -0.1559
  883TIP3    H124284   2.487   2.230   1.256 -2.3080 -0.5556  1.4763
  883TIP3    H224285   2.511   2.378   1.275 -4.5946 -0.0886  0.8977
  884TIP3   OH224286   3.281   6.478   8.535 -0.7492 -0.5733 -0.1264
  884TIP3    H124287   3.200   6.528   8.536  1.5657  3.6003 -0.9450
  884TIP3    H224288   3.290   6.449   8.444 -1.0802 -0.7189 -0.1166
  885TIP3   OH224289   2.039   1.429   1.604 -0.1315  0.0250 -0.0458
  885TIP3    H124290   2.004   1.453   1.689  1.5254  1.0918  0.3873
  885TIP3    H224291   2.001   1.343   1.585 -2.1110  0.6462  0.8038
  886TIP3   OH224292   2.147   3.059   1.314 -0.6390  0.3272  0.8019
  886TIP3    H124293   2.147   2.985   1.254 -0.6196  1.1180 -0.2056
  886TIP3    H224294   2.058   3.065   1.347 -0.8628  0.3923  0.1922
  887TIP3   OH224295   0.944   4.369   2.148  0.3254 -0.3256  0.1971
  887TIP3    H124296   0.939   4.293   2.090  0.7304  0.5837 -1.0810
  887TIP3    H224297   1.037   4.377   2.170  0.5291  0.6450 -0.8988
  888TIP3   OH224298   6.316   3.709   8.209  0.3279  0.0113 -0.3264
  888TIP3    H124299   6.294   3.708   8.116  1.5871 -1.1600 -0.6443
  888TIP3    H224300   6.311   3.617   8.235 -2.4930  0.5229  1.4358
  889TIP3   OH224301   4.827   0.925   0.886  0.2608  0.2774  0.8825
  889TIP3    H124302   4.874   0.842   0.872 -1.5611 -0.8040  0.8110
  889TIP3    H224303   4.831   0.939   0.980  0.5205  0.0873  0.9042
  890TIP3   OH224304   5.412   3.466   0.179  0.1948  0.1021 -0.3076
  890TIP3    H124305   5.462   3.546   0.192  1.6687 -1.0314  1.4999
  890TIP3    H224306   5.323   3.488   0.207  0.2085  1.4809 -1.2627
  891TIP3   OH224307   6.375   2.888   7.116  0.2021  0.0237  0.0707
  891TIP3    H124308   6.355   2.800   7.084  1.5642  0.3654 -1.9063
  891TIP3    H224309   6.293   2.919   7.155 -0.2415 -2.1782  1.0477
  892TIP3   OH224310   2.298   4.292   7.076 -0.1802  0.1208 -0.0865
  892TIP3    H124311   2.281   4.205   7.110  1.1613 -1.0001 -2.0745
  892TIP3    H224312   2.371   4.325   7.128  0.5713 -0.7611 -0.5564
  893TIP3   OH224313   2.449   0.228   6.285 -0.3152 -0.2563 -0.3941
  893TIP3    H124314   2.486   0.266   6.204  2.9457 -1.1513  0.5190
  893TIP3    H224315   2.474   0.290   6.353 -1.0912 -0.6070  0.2170
  894TIP3   OH224316   6.303   5.748   6.148  0.2599 -0.2108 -0.3688
  894TIP3    H124317   6.279   5.810   6.217  0.4035 -1.1321  0.5288
  894TIP3    H224318   6.382   5.785   6.109  0.7037 -0.1324  0.5751
  895TIP3   OH224319   1.804   4.269   0.668  0.2898  0.1352 -0.6257
  895TIP3    H124320   1.759   4.282   0.752 -0.3964 -0.1844 -0.9353
  895TIP3    H224321   1.896   4.258   0.692 -0.1367 -2.0032  0.3149
  896TIP3   OH224322   3.665   1.763   7.563  0.5864 -0.1482 -0.1298
  896TIP3    H124323   3.685   1.856   7.572  1.4351 -0.3650  0.3564
  896TIP3    H224324   3.725   1.732   7.495 -0.4508 -0.1258 -1.0797
  897TIP3   OH224325   4.359   5.055   8.067 -0.1874 -0.2411 -0.2253
  897TIP3    H124326   4.369   4.969   8.107 -3.7250 -0.8019 -0.2456
  897TIP3    H224327   4.421   5.055   7.994  1.3240 -1.9412  0.9998
  898TIP3   OH224328   0.526   5.134   8.490 -0.6437 -0.1823  0.0844
  898TIP3    H124329   0.550   5.109   8.401 -2.3593  0.5976 -0.6516
  898TIP3    H224330   0.497   5.052   8.530  2.1451 -0.9677  0.7116
  899TIP3   OH224331   2.375   4.950   6.111  0.0011  0.2428  0.3203
  899TIP3    H124332   2.305   4.890   6.085  0.6030  0.5181 -2.1080
  899TIP3    H224333   2.347   4.984   6.196 -2.6484  0.1260 -0.4438
  900TIP3   OH224334   6.879   3.485   0.059  0.1939  0.5392  0.5321
  900TIP3    H124335   6.859   3.395   0.036  2.2160  0.4611 -1.1292
  900TIP3    H224336   6.823   3.538   0.001  2.4100  0.3117 -1.9744
  901TIP3   OH224337   2.523   6.149   1.660  0.1009  0.0502 -0.4857
  901TIP3    H124338   2.583   6.188   1.597  2.1577 -1.3083  0.5087
  901TIP3    H224339   2.556   6.177   1.745 -1.8701  0.8386  0.0642
  902TIP3   OH224340   1.293   0.170   8.576 -0.1846 -0.4261 -0.3865
  902TIP3    H124341   1.352   0.152   8.503 -0.3323 -0.5631 -0.4725
  902TIP3    H224342   1.214   0.120   8.556  0.5559 -2.2337  0.9417
  903TIP3   OH224343   0.634   4.898   6.705  0.3511 -0.1856  0.4575
  903TIP3    H124344   0.712   4.878   6.654 -0.2884  0.0529 -0.6531
  903TIP3    H224345   0.594   4.813   6.721  0.3757 -0.2375  0.2525
  904TIP3   OH224346   2.843   1.172   1.174 -0.4832  0.6851 -0.0370
  904TIP3    H124347   2.916   1.116   1.149  0.3020  1.3821  0.6091
  904TIP3    H224348   2.855   1.251   1.121 -1.2669  0.4656 -0.5485
  905TIP3   OH224349   3.910   0.440   7.830  0.2858  0.1963  0.1044
  905TIP3    H124350   3.898   0.534   7.815 -0.3846  0.4009  1.7114
  905TIP3    H224351   4.002   0.431   7.853  0.9182  0.1012 -2.2437
  906TIP3   OH224352   0.163   5.431   0.087 -0.0473 -0.3861  0.1279
  906TIP3    H124353   0.083   5.451   0.136 -0.4832  0.3767 -0.8644
  906TIP3    H224354   0.231   5.482   0.131 -0.0969 -1.0116  0.9584
  907TIP3   OH224355   4.927   6.830   6.250 -0.0216 -0.6881 -0.2539
  907TIP3    H124356   4.844   6.857   6.210 -0.0633 -1.7948 -0.9586
  907TIP3    H224357   4.985   6.813   6.175  0.6410 -0.5508  0.2208
  908TIP3   OH224358   3.255   5.629   1.189 -0.1525 -0.1799  0.2762
  908TIP3    H124359   3.287   5.664   1.271  0.5542 -0.0470 -0.0557
  908TIP3    H224360   3.257   5.702   1.128  0.3989 -0.5451 -0.1568
  909TIP3   OH224361   4.937   4.801   7.948 -0.1382 -0.3302  0.7297
  909TIP3    H124362   4.893   4.795   7.862  2.1094 -0.9360 -0.4544
  909TIP3    H224363   4.957   4.894   7.958  0.3741 -0.3745  0.1627
  910TIP3   OH224364   2.988   5.268   0.270 -0.3878 -0.4959  0.3398
  910TIP3    H124365   3.002   5.212   0.194 -0.9036  1.6136 -1.3877
  910TIP3    H224366   2.931   5.338   0.239 -1.5314 -0.1326  2.9677
  911TIP3   OH224367   0.090   0.872   6.752  0.2056 -0.8926 -0.3313
  911TIP3    H124368   0.135   0.897   6.833  0.7995  1.5622 -1.3497
  911TIP3    H224369   0.161   0.847   6.692  0.1780  1.2860 -1.3696
  912TIP3   OH224370   0.407   1.274   1.329  0.1453 -0.3690  0.4212
  912TIP3    H124371   0.482   1.290   1.387  2.2350 -1.5591 -1.7885
  912TIP3    H224372   0.407   1.349   1.269 -0.5505 -0.3179  0.4736
  913TIP3   OH224373   0.807   2.755   8.163 -0.0606  0.4617 -0.2520
  913TIP3    H124374   0.716   2.771   8.187  0.4296  1.0239  1.3790
  913TIP3    H224375   0.836   2.836   8.122 -0.2250  0.3470 -0.6038
  914TIP3   OH224376   6.584   6.845   7.806 -0.0427 -0.4485 -0.4423
  914TIP3    H124377   6.620   6.756   7.808  0.5541 -0.2053  0.8710
  914TIP3    H224378   6.521   6.847   7.879  1.7889  0.9104  1.2068
  915TIP3   OH224379   3.468   2.691   1.293  0.0244  0.4116  0.4534
  915TIP3    H124380   3.554   2.652   1.276 -0.9043 -1.2912 -0.7367
  915TIP3    H224381   3.459   2.760   1.227  0.6758  0.9320  0.9091
  916TIP3   OH224382   4.470   4.338   0.902 -0.3858 -0.3211 -0.4219
  916TIP3    H124383   4.439   4.263   0.951 -1.3920  0.4084  0.1003
  916TIP3    H224384   4.551   4.309   0.861 -0.0200 -1.2432  0.9151
  917TIP3   OH224385   0.226   5.946   0.960 -0.4479 -0.5976  0.4676
  917TIP3    H124386   0.302   5.894   0.987  0.1684 -0.9986 -1.7851
  917TIP3    H224387   0.262   6.033   0.944  0.1634 -1.3001 -2.7792
  918TIP3   OH224388   4.314   5.237   7.761 -0.4607 -0.2771 -0.1574
  918TIP3    H124389   4.338   5.248   7.669 -2.8415  2.1236 -0.6306
  918TIP3    H224390   4.331   5.323   7.800 -0.4967 -0.9474  1.3923
  919TIP3   OH224391   6.087   6.066   7.190  0.3588  0.4487  0.3512
  919TIP3    H124392   6.139   6.131   7.143 -0.0262  0.7709  0.3560
  919TIP3    H224393   6.119   5.982   7.159  0.0275  0.6549 -0.5843
  920TIP3   OH224394   3.271   5.100   0.141  0.4326  0.0941  0.1193
  920TIP3    H124395   3.322   5.079   0.063  0.1471  1.3557 -0.4411
  920TIP3    H224396   3.223   5.020   0.160  0.6427 -0.2949 -0.9055
  921TIP3   OH224397   2.646   2.778   2.485  0.2201  0.0544 -0.1141
  921TIP3    H124398   2.594   2.708   2.523  1.9552 -0.6823  1.0485
  921TIP3    H224399   2.683   2.824   2.560  2.6987 -0.6190 -0.8324
  922TIP3   OH224400   2.997   3.805   6.125  0.3902 -0.2088  0.6496
  922TIP3    H124401   3.051   3.726   6.120  0.7880  0.0886  0.0593
  922TIP3    H224402   3.045   3.870   6.074 -0.6723 -0.0229 -0.1512
  923TIP3   OH224403   6.881   1.216   6.150  0.2064  0.2200  0.5689
  923TIP3    H124404   6.933   1.252   6.078 -0.6289  0.4668  0.0692
  923TIP3    H224405   6.874   1.288   6.213 -0.3267  0.5014  0.1944
  924TIP3   OH224406   5.506   6.660   8.068  0.5015 -0.5779  0.1148
  924TIP3    H124407   5.430   6.668   8.010  1.1999 -0.4402 -0.8151
  924TIP3    H224408   5.558   6.738   8.050  0.5990 -0.3873  1.1599
  925TIP3   OH224409   1.491   4.463   7.280 -0.1099 -0.0522 -0.2309
  925TIP3    H124410   1.487   4.500   7.191 -2.5327  0.5754  0.0548
  925TIP3    H224411   1.491   4.368   7.266 -0.7262  0.0333 -0.9240
  926TIP3   OH224412   1.364   5.333   7.731 -0.2452 -0.2531 -0.1009
  926TIP3    H124413   1.341   5.246   7.702 -1.2283  0.0661 -0.3109
  926TIP3    H224414   1.286   5.386   7.714 -1.0344 -0.0818  3.2750
  927TIP3   OH224415   5.847   2.765   7.573 -0.2008  0.1073 -0.3425
  927TIP3    H124416   5.860   2.710   7.650  1.8565 -1.0567 -1.4552
  927TIP3    H224417   5.870   2.709   7.499  0.7707  2.0904 -1.6141
  928TIP3   OH224418   1.658   1.332   0.956 -0.2555  0.1830  0.0559
  928TIP3    H124419   1.701   1.362   1.035 -0.9057 -0.1011  0.5256
  928TIP3    H224420   1.591   1.270   0.986 -0.7730  0.3667 -0.6769
  929TIP3   OH224421   6.107   1.885   7.816 -0.3493 -0.3116 -0.7470
  929TIP3    H124422   6.044   1.835   7.764  1.2877  0.1722 -3.3219
  929TIP3    H224423   6.084   1.977   7.799 -0.1849 -0.1438 -0.0847
  930TIP3   OH224424   3.180   2.317   6.266  0.2176 -0.4897 -0.5680
  930TIP3    H124425   3.253   2.323   6.203 -0.8983 -1.1547 -1.9849
  930TIP3    H224426   3.103   2.302   6.211 -0.8779 -0.6107  0.9588
  931TIP3   OH224427   3.915   4.702   8.389 -0.1356 -0.1937 -0.0308
  931TIP3    H124428   3.976   4.755   8.339  0.2383  0.8298  1.4467
  931TIP3    H224429   3.899   4.752   8.469  1.2787 -2.8475  2.0741
  932TIP3   OH224430   5.937   6.803   7.941  0.4158  0.4218 -0.4000
  932TIP3    H124431   5.903   6.860   7.872 -1.4209 -1.8766 -1.5016
  932TIP3    H224432   5.929   6.715   7.906  3.1365 -0.5943  1.2598
  933TIP3   OH224433   6.806   6.332   7.715 -0.3054 -0.0121 -0.7213
  933TIP3    H124434   6.812   6.417   7.757 -0.4798  0.4482 -1.6160
  933TIP3    H224435   6.895   6.297   7.718 -0.0671  0.5505 -1.0654
  934TIP3   OH224436   0.652   6.167   0.220  0.7221 -0.2828  0.2033
  934TIP3    H124437   0.709   6.223   0.273 -0.9122  0.1075  1.6444
  934TIP3    H224438   0.711   6.126   0.156  2.5283  0.4275  1.3357
  935TIP3   OH224439   2.459   6.273   7.513 -0.8133  0.6191 -0.0188
  935TIP3    H124440   2.508   6.328   7.574 -0.4259  1.1609 -0.8015
  935TIP3    H224441   2.525   6.226   7.463 -1.0841  0.9968 -0.7541
  936TIP3   OH224442   6.018   0.754   8.455  0.3651 -0.5405  0.2998
  936TIP3    H124443   5.962   0.681   8.482  0.1251 -1.0547 -1.4463
  936TIP3    H224444   6.104   0.734   8.494 -0.0315 -1.0312  0.9487
  937TIP3   OH224445   2.601   0.078   5.920 -0.1545 -0.0751  0.3203
  937TIP3    H124446   2.573   0.067   5.829  0.4280 -0.9587  0.2392
  937TIP3    H224447   2.541   0.024   5.971 -1.8840  2.0850  0.7480
  938TIP3   OH224448   5.524   6.461   7.887  0.4301 -0.2184 -0.4710
  938TIP3    H124449   5.510   6.520   7.962 -1.9474 -0.9376 -0.2470
  938TIP3    H224450   5.443   6.410   7.882  2.3647 -3.5412 -0.6323
  939TIP3   OH224451   6.607   3.020   0.132  0.5993  0.2176  0.5786
  939TIP3    H124452   6.658   2.943   0.159  0.4685  0.9246  3.0458
  939TIP3    H224453   6.520   2.985   0.112  0.8899 -0.4506  0.4500
  940TIP3   OH224454   4.732   1.315   7.985 -0.0023  0.4193  0.1279
  940TIP3    H124455   4.785   1.326   8.064  0.5822 -0.1201 -0.1845
  940TIP3    H224456   4.648   1.354   8.008  0.3019  0.6634  0.8691
  941TIP3   OH224457   3.026   1.515   0.836 -0.4609  0.0092  0.1541
  941TIP3    H124458   3.048   1.606   0.858  2.7624 -0.4111 -0.8009
  941TIP3    H224459   3.085   1.493   0.764 -2.1019 -2.4665 -0.5718
  942TIP3   OH224460   0.738   5.673   6.959  0.0449  0.4929  0.5156
  942TIP3    H124461   0.703   5.760   6.941 -0.6580  0.1317  0.0839
  942TIP3    H224462   0.786   5.649   6.879  1.7249  1.1753  1.2740
  943TIP3   OH224463   0.668   0.727   7.616  0.0349  0.4750  0.0729
  943TIP3    H124464   0.738   0.786   7.587  0.2454 -0.0153 -0.4496
  943TIP3    H224465   0.666   0.658   7.549 -1.9587  1.2722 -0.7668
  944TIP3   OH224466   1.172   4.168   2.437 -0.5519  0.7092 -0.0627
  944TIP3    H124467   1.115   4.098   2.406 -1.2944  1.6605 -0.9167
  944TIP3    H224468   1.155   4.241   2.377 -0.8190  2.0746  1.5868
  945TIP3   OH224469   1.302   1.130   7.927  0.0788 -0.0189  0.3287
  945TIP3    H124470   1.365   1.162   7.992  0.6361 -0.5247  0.0571
  945TIP3    H224471   1.217   1.158   7.959  0.0931 -1.9915  2.3889
  946TIP3   OH224472   4.684   0.567   0.954  0.1879  0.1116 -0.4062
  946TIP3    H124473   4.749   0.604   0.895  1.0318 -1.2492 -0.3747
  946TIP3    H224474   4.604   0.563   0.902  0.5060  0.4230 -0.9308
  947TIP3   OH224475   1.420   3.953   0.681 -0.3631  0.1661 -0.1582
  947TIP3    H124476   1.466   3.928   0.762 -0.0854  0.7671 -0.1267
  947TIP3    H224477   1.339   3.992   0.712  0.1164  1.1616 -0.1366
  948TIP3   OH224478   1.021   3.515   1.196 -0.1566 -0.2826 -0.4997
  948TIP3    H124479   0.939   3.494   1.241 -0.5789  0.7409 -0.7654
  948TIP3    H224480   1.085   3.525   1.267 -0.0477 -1.8557 -0.3277
  949TIP3   OH224481   6.843   4.645   8.635 -0.0749  0.1287 -0.0419
  949TIP3    H124482   6.761   4.596   8.631  0.0674 -0.1201  0.0232
  949TIP3    H224483   6.817   4.736   8.648 -0.3343  0.0231  0.1863
  950TIP3   OH224484   5.570   3.660   8.097  0.2579  0.6908 -0.5983
  950TIP3    H124485   5.650   3.707   8.120  0.8372 -0.9635  0.9809
  950TIP3    H224486   5.505   3.692   8.159  1.1721 -1.9170  1.8996
  951TIP3   OH224487   1.138   4.291   8.646  0.5097  0.2332 -0.6423
  951TIP3    H124488   1.155   4.199   8.667  0.6203  0.2123 -0.8264
  951TIP3    H224489   1.055   4.291   8.598  0.1849  0.2950 -0.0885
  952TIP3   OH224490   4.064   1.898   7.555  0.2636  0.0968  0.1465
  952TIP3    H124491   4.127   1.871   7.488  1.1455 -2.2336  1.8134
  952TIP3    H224492   4.077   1.837   7.627 -4.6295 -1.2073  0.2449
  953TIP3   OH224493   3.203   0.217   7.509 -0.8138 -0.3347 -0.0943
  953TIP3    H124494   3.164   0.198   7.595 -0.4413 -0.8628 -0.0342
  953TIP3    H224495   3.265   0.287   7.525 -1.4871  0.2768 -0.1258
  954TIP3   OH224496   4.892   6.665   0.222  0.7560 -0.9343  0.1477
  954TIP3    H124497   4.855   6.665   0.133 -1.4153  0.5891  0.9509
  954TIP3    H224498   4.985   6.684   0.209  0.3015  0.3328 -1.7863
  955TIP3   OH224499   1.776   3.289   8.293  0.7805  0.8857 -0.5364
  955TIP3    H124500   1.755   3.299   8.386  0.7523 -0.1428 -0.4129
  955TIP3    H224501   1.785   3.378   8.260  0.2352  1.2702  0.3259
  956TIP3   OH224502   2.937   3.068   0.887  0.1403  0.4204 -0.4036
  956TIP3    H124503   2.877   3.129   0.928  0.9332  0.8791  0.0986
  956TIP3    H224504   2.968   3.012   0.959 -0.1190 -0.1961 -0.7560
  957TIP3   OH224505   0.541   4.644   7.268  0.7899  0.2228 -0.5732
  957TIP3    H124506   0.553   4.577   7.201  1.9569 -1.0136  0.7823
  957TIP3    H224507   0.586   4.721   7.234 -0.7828  0.4572 -2.2765
  958TIP3   OH224508   4.945   5.247   6.683  0.3141  0.0667  0.1099
  958TIP3    H124509   4.924   5.213   6.596  0.4161  0.0340  0.0987
  958TIP3    H224510   4.859   5.266   6.722  0.2024 -1.1018  0.4764
  959TIP3   OH224511   6.403   2.599   0.232  0.2739  0.4593  0.0193
  959TIP3    H124512   6.353   2.657   0.291 -0.5638 -0.3734  0.1435
  959TIP3    H224513   6.479   2.572   0.285 -1.1511 -1.3570  1.2674
  960TIP3   OH224514   0.437   1.014   7.779  0.0963  0.0596  0.0530
  960TIP3    H124515   0.409   1.051   7.863 -0.8103  1.3607 -0.7892
  960TIP3    H224516   0.486   1.084   7.737  2.1295 -1.1866  0.2082
  961TIP3   OH224517   3.601   6.522   8.418 -0.4034  0.1080  0.6737
  961TIP3    H124518   3.630   6.520   8.327  0.4819  2.8588  0.7998
  961TIP3    H224519   3.547   6.601   8.425 -2.9296 -1.5712  1.9371
  962TIP3   OH224520   2.556   2.688   6.557 -0.8680  0.0706 -0.2525
  962TIP3    H124521   2.478   2.723   6.514 -1.3493 -0.2052  0.3801
  962TIP3    H224522   2.611   2.656   6.486 -0.7899  1.3401 -0.7913
  963TIP3   OH224523   1.672   3.447   0.568 -0.0717  0.1708  0.1887
  963TIP3    H124524   1.603   3.491   0.519  0.6470 -1.0156 -2.0021
  963TIP3    H224525   1.680   3.361   0.528  0.5240 -0.9318  2.4775
  964TIP3   OH224526   2.163   3.250   2.036 -0.5062 -0.5012 -0.3955
  964TIP3    H124527   2.078   3.258   2.079  1.2095  1.7618  2.9877
  964TIP3    H224528   2.193   3.161   2.056 -1.1884 -0.6057  0.1783
  965TIP3   OH224529   3.784   3.715   0.976  0.2029  0.0719 -0.2063
  965TIP3    H124530   3.857   3.726   1.037 -0.9207 -0.6961  1.3117
  965TIP3    H224531   3.736   3.798   0.980  1.1178  0.7052 -1.4560
  966TIP3   OH224532   6.332   1.386   0.031  0.0168  0.3617 -0.4427
  966TIP3    H124533   6.400   1.358   0.092 -0.9113  0.6461  0.7495
  966TIP3    H224534   6.297   1.466   0.069 -1.8152 -0.4355 -0.3541
  967TIP3   OH224535   0.226   2.794   0.559  0.4538 -0.0422  0.3403
  967TIP3    H124536   0.188   2.873   0.521  1.5465 -0.0122 -0.7525
  967TIP3    H224537   0.244   2.818   0.650 -1.8386  0.0154  0.8546
  968TIP3   OH224538   1.452   4.764   7.693  0.6215  0.3981 -0.5279
  968TIP3    H124539   1.456   4.672   7.665  0.5295 -0.1643  1.1856
  968TIP3    H224540   1.438   4.759   7.788 -1.7465  2.1829 -0.6870
  969TIP3   OH224541   6.547   4.259   7.468 -0.0876 -0.0406  0.1760
  969TIP3    H124542   6.476   4.311   7.506 -0.1195 -0.2869  0.4537
  969TIP3    H224543   6.539   4.274   7.373  0.4935  1.2233  0.3013
  970TIP3   OH224544   4.271   5.595   0.776  0.0467 -0.3800 -0.4219
  970TIP3    H124545   4.355   5.637   0.797  0.3473 -0.2586 -1.7707
  970TIP3    H224546   4.206   5.664   0.789  0.3762  0.0884 -1.2232
  971TIP3   OH224547   2.242   0.831   0.827 -0.0676 -0.1403  0.1692
  971TIP3    H124548   2.235   0.746   0.783 -1.5021  0.7449 -1.4262
  971TIP3    H224549   2.237   0.895   0.757  0.7053  1.3055  1.3732
  972TIP3   OH224550   3.363   6.868   7.778 -0.1315  0.0757 -0.3476
  972TIP3    H124551   3.440   6.851   7.724 -1.1985 -2.1380 -1.3322
  972TIP3    H224552   3.395   6.866   7.868  0.8170 -2.0987 -0.6714
  973TIP3   OH224553   3.793   4.236   8.559  0.5226  0.5182 -0.1062
  973TIP3    H124554   3.759   4.324   8.543 -0.5205  0.2932  0.8157
  973TIP3    H224555   3.879   4.236   8.516  0.6212  2.0390  0.0422
  974TIP3   OH224556   3.488   3.068   6.355 -0.0642  0.2364  0.1005
  974TIP3    H124557   3.396   3.048   6.373  0.5688 -1.0687  2.1507
  974TIP3    H224558   3.535   2.989   6.377  1.7207  1.3458  0.4426
  975TIP3   OH224559   0.276   6.220   0.149 -0.2168 -0.2596 -0.1886
  975TIP3    H124560   0.311   6.141   0.191 -1.0268 -0.4144  0.2024
  975TIP3    H224561   0.245   6.190   0.064  0.2923 -0.1813 -0.4086
  976TIP3   OH224562   5.639   6.090   7.506  0.4413 -0.0111 -0.3890
  976TIP3    H124563   5.546   6.068   7.505  0.4328  0.0293 -0.7504
  976TIP3    H224564   5.645   6.168   7.562 -0.2376  2.0983 -3.0296
  977TIP3   OH224565   4.624   3.837   1.150  0.1776  0.5486  0.5633
  977TIP3    H124566   4.668   3.822   1.066  0.2811  0.9634  0.5409
  977TIP3    H224567   4.680   3.794   1.215  1.0028  1.6792  0.6223
  978TIP3   OH224568   3.082   1.044   6.756  0.0053  0.3135 -0.5112
  978TIP3    H124569   3.111   0.984   6.826 -2.2855  1.4259  1.5621
  978TIP3    H224570   3.020   0.992   6.705  0.7697 -0.1368 -1.0053
  979TIP3   OH224571   0.882   1.454   1.134 -0.2037 -0.9833  0.1265
  979TIP3    H124572   0.935   1.533   1.121 -0.3647 -0.4568  2.1886
  979TIP3    H224573   0.944   1.389   1.167 -0.2079 -1.4884 -0.8535
  980TIP3   OH224574   5.133   0.613   6.433  0.4146 -0.1013 -0.4209
  980TIP3    H124575   5.121   0.519   6.427 -0.3219 -0.2662  2.3836
  980TIP3    H224576   5.093   0.647   6.353  0.4684 -2.1281 -1.3650
  981TIP3   OH224577   3.396   4.782   1.830  0.2853 -0.7779  0.3567
  981TIP3    H124578   3.318   4.773   1.884  1.4271 -3.0701  1.7889
  981TIP3    H224579   3.450   4.707   1.853  0.6940 -2.2283 -4.3525
  982TIP3   OH224580   2.718   2.726   7.260  0.4361  0.5558 -0.0547
  982TIP3    H124581   2.805   2.763   7.273  0.3575  0.5136  0.6799
  982TIP3    H224582   2.733   2.632   7.249  0.6775  0.8290 -2.4306
  983TIP3   OH224583   5.025   1.613   8.642  0.1389  0.3952 -0.0366
  983TIP3    H124584   5.000   1.614   8.550  0.4043 -0.2874 -0.1201
  983TIP3    H224585   4.962   1.555   8.684 -0.5594  1.4403  0.3894
  984TIP3   OH224586   2.951   0.027   7.471  0.3453 -0.0751 -0.0148
  984TIP3    H124587   2.974   0.101   7.414 -2.3583 -0.3237 -1.5867
  984TIP3    H224588   2.944  -0.048   7.412  3.3121 -1.7854  1.5885
  985TIP3   OH224589   1.215   1.384   8.465 -0.4704  0.1276 -0.3533
  985TIP3    H124590   1.270   1.325   8.515 -0.9123 -0.9314 -1.0896
  985TIP3    H224591   1.135   1.334   8.446 -0.9451  1.0219 -0.8103
  986TIP3   OH224592   2.986   4.653   1.644 -0.1990 -0.0790  0.3637
  986TIP3    H124593   3.001   4.715   1.716 -1.1338  1.2784 -0.5531
  986TIP3    H224594   2.964   4.571   1.688  1.2103  0.1601  1.6267
  987TIP3   OH224595   6.160   2.015   8.083  0.2442 -0.2262 -0.2181
  987TIP3    H124596   6.160   2.077   8.156 -1.4189  0.5282 -0.8004
  987TIP3    H224597   6.203   2.061   8.011 -1.1721  0.3840 -0.7123
  988TIP3   OH224598   5.761   0.941   7.500  0.8493  0.3962 -0.1990
  988TIP3    H124599   5.712   1.012   7.542  0.5247  0.3063 -0.4205
  988TIP3    H224600   5.753   0.867   7.560  2.4589  0.9589  0.7796
  989TIP3   OH224601   2.669   2.076   0.133 -0.0839 -0.0897  0.2085
  989TIP3    H124602   2.629   2.052   0.216 -0.4762  1.6835  0.5719
  989TIP3    H224603   2.745   2.128   0.157 -0.2026  0.4464 -0.5427
  990TIP3   OH224604   2.732   1.442   1.410  0.2231  0.8724 -0.0041
  990TIP3    H124605   2.728   1.477   1.321 -0.0370 -0.1555 -0.4139
  990TIP3    H224606   2.642   1.446   1.441 -0.2523 -1.4217 -0.8816
  991TIP3   OH224607   5.005   0.617   0.362  0.1742 -0.6821  0.2689
  991TIP3    H124608   4.957   0.538   0.387  1.4442 -2.6434 -2.8713
  991TIP3    H224609   5.001   0.618   0.266  1.4678  2.3041  0.1322
  992TIP3   OH224610   6.426   0.322   0.360  0.2798 -0.1385 -0.0961
  992TIP3    H124611   6.405   0.233   0.388 -0.5664 -0.0746 -0.4901
  992TIP3    H224612   6.413   0.321   0.265  2.2086 -0.1093 -0.3840
  993TIP3   OH224613   0.475   3.742   7.719  0.4231 -0.4435 -0.5404
  993TIP3    H124614   0.429   3.659   7.708 -1.9361  0.7464 -0.2910
  993TIP3    H224615   0.534   3.747   7.644 -0.1265 -1.8907 -1.0954
  994TIP3   OH224616   4.928   2.329   7.820  0.0742  0.2070  0.3195
  994TIP3    H124617   4.865   2.367   7.758  1.0237 -1.0465 -1.5174
  994TIP3    H224618   5.006   2.384   7.810  0.8312 -1.0278 -0.9980
  995TIP3   OH224619   6.803   3.859   6.385 -0.2162 -0.7178 -0.6825
  995TIP3    H124620   6.748   3.927   6.346  0.9544 -0.5235 -2.1046
  995TIP3    H224621   6.889   3.901   6.394  0.0634 -1.4556  0.1135
  996TIP3   OH224622   2.721   1.030   6.836  0.0749 -0.3755  0.1727
  996TIP3    H124623   2.698   1.101   6.776 -0.2093 -0.4130  0.2369
  996TIP3    H224624   2.643   0.974   6.837  1.3726 -2.4265 -2.3703
  997TIP3   OH224625   6.801   5.847   0.172  0.6320 -0.3005  0.0093
  997TIP3    H124626   6.816   5.810   0.259  3.6333  1.0325  0.1515
  997TIP3    H224627   6.767   5.935   0.189 -0.1274 -0.5385 -0.2261
  998TIP3   OH224628   5.961   5.787   8.476 -0.1569  0.0502  0.6563
  998TIP3    H124629   5.945   5.835   8.558 -0.3976 -0.3058  0.8163
  998TIP3    H224630   6.023   5.843   8.428  1.3928 -0.5758  1.8392
  999TIP3   OH224631   6.178   0.851   7.966  0.0838 -0.2607 -0.7569
  999TIP3    H124632   6.146   0.873   8.053 -1.5233 -0.7668 -1.1815
  999TIP3    H224633   6.167   0.931   7.915 -1.1016 -0.5901 -1.0459
 1000TIP3   OH224634   0.851   1.395   0.113 -0.0603  0.1192  0.0296
 1000TIP3    H124635   0.846   1.358   0.201  1.2037  1.5575  0.7707
 1000TIP3    H224636   0.783   1.350   0.063  0.0735 -1.6864  1.3730
 1001TIP3   OH224637   1.274   5.088   7.776 -0.0286 -0.0282  0.1687
 1001TIP3    H124638   1.200   5.036   7.810  0.0963 -0.9381 -0.8830
 1001TIP3    H224639   1.348   5.064   7.833  0.1888 -1.5577 -0.7027
 1002TIP3   OH224640   1.769   5.094   0.381 -0.4890  0.3514  0.1858
 1002TIP3    H124641   1.743   5.179   0.418 -0.8579  0.0536  0.6284
 1002TIP3    H224642   1.686   5.052   0.359 -0.5018 -0.9994  2.4742
 1003TIP3   OH224643   2.516   1.305   7.612 -0.0460  0.0958 -0.2154
 1003TIP3    H124644   2.538   1.213   7.600 -0.8100 -0.2768  1.1257
 1003TIP3    H224645   2.445   1.321   7.550  1.3229  0.3159 -1.8169
 1004TIP3   OH224646   0.201   0.696   8.341 -0.4517  0.0730  0.0255
 1004TIP3    H124647   0.117   0.742   8.344  0.0052  0.9079  0.4498
 1004TIP3    H224648   0.179   0.605   8.360 -1.1575  0.4355  1.0832
 1005TIP3   OH224649   5.730   6.331   7.358  0.0187 -1.0942 -0.5799
 1005TIP3    H124650   5.712   6.238   7.366  0.9434 -1.1409  1.4877
 1005TIP3    H224651   5.646   6.370   7.333 -0.6377 -2.3469 -0.4124
 1006TIP3   OH224652   2.696   6.285   8.607 -0.1317  0.6139 -0.5553
 1006TIP3    H124653   2.777   6.336   8.602 -0.3666  0.9120 -2.0329
 1006TIP3    H224654   2.655   6.312   8.689  0.9024  1.0053 -0.1514
 1007TIP3   OH224655   5.898   3.292   7.395  0.5311  0.0534 -0.5381
 1007TIP3    H124656   5.822   3.279   7.451  0.1578  2.1809 -0.4935
 1007TIP3    H224657   5.870   3.261   7.309 -0.0402 -0.0853 -0.3031
 1008TIP3   OH224658   5.519   0.594   7.700 -0.5724  0.8131 -0.3310
 1008TIP3    H124659   5.513   0.589   7.796 -0.8251 -2.9890 -0.4030
 1008TIP3    H224660   5.610   0.569   7.681 -1.0771 -0.4907 -1.1132
 1009TIP3   OH224661   1.168   2.368   1.295  0.2487 -0.3915 -0.1589
 1009TIP3    H124662   1.157   2.273   1.296  0.4076 -0.4766 -1.8922
 1009TIP3    H224663   1.082   2.403   1.271  0.6373 -0.2570 -1.4623
 1010TIP3   OH224664   0.244   5.789   7.919 -0.1518  0.3419  0.1881
 1010TIP3    H124665   0.155   5.803   7.886  0.4382  0.3791 -1.5290
 1010TIP3    H224666   0.251   5.845   7.996 -2.1201 -0.9045  1.3513
 1011TIP3   OH224667   6.038   0.134   6.003  0.1165  0.1504  0.2865
 1011TIP3    H124668   6.087   0.212   6.029  1.6324 -0.9303  0.8257
 1011TIP3    H224669   6.055   0.071   6.073 -1.5086 -0.5144  0.1344
 1012TIP3   OH224670   5.224   6.248   1.295  0.5918 -0.4416  0.2357
 1012TIP3    H124671   5.130   6.231   1.297  0.3798 -0.1311 -2.4755
 1012TIP3    H224672   5.241   6.276   1.205  3.3928 -1.0447  0.4821
 1013TIP3   OH224673   5.656   3.271   7.782 -0.3653  0.0013  0.3677
 1013TIP3    H124674   5.684   3.207   7.848  0.7156 -0.4927 -0.5228
 1013TIP3    H224675   5.659   3.355   7.827 -2.6581 -0.6075  1.8182
 1014TIP3   OH224676   6.751   3.221   7.287 -0.5953 -0.0705 -0.0225
 1014TIP3    H124677   6.768   3.297   7.232 -1.7488  0.4789  0.3555
 1014TIP3    H224678   6.697   3.164   7.232 -0.6626 -0.1178  0.0944
 1015TIP3   OH224679   1.369   4.304   6.916  0.8761  0.3570  0.2291
 1015TIP3    H124680   1.401   4.309   7.006  2.0087 -0.4593 -0.1104
 1015TIP3    H224681   1.402   4.382   6.874 -0.1017  1.0132  0.6382
 1016TIP3   OH224682   5.436   4.105   7.904 -0.6702  0.6684 -0.4060
 1016TIP3    H124683   5.497   4.039   7.938 -0.1836  1.2912 -0.0520
 1016TIP3    H224684   5.365   4.054   7.865  0.1222 -0.0760 -0.9170
 1017TIP3   OH224685   0.228   2.502   1.181 -0.4514 -0.2782 -0.5584
 1017TIP3    H124686   0.246   2.410   1.203  0.0250  0.4521  2.6403
 1017TIP3    H224687   0.145   2.522   1.224 -1.0848  0.5801 -2.0842
 1018TIP3   OH224688   3.156   3.633   8.498  0.1642 -0.2216  0.4545
 1018TIP3    H124689   3.174   3.719   8.460  2.4046 -0.1766  1.4693
 1018TIP3    H224690   3.161   3.647   8.592 -1.5554 -1.0892  0.7151
 1019TIP3   OH224691   0.259   3.133   7.356 -0.0514 -0.2925  0.5083
 1019TIP3    H124692   0.214   3.218   7.351  2.0046  0.8489  0.4827
 1019TIP3    H224693   0.278   3.121   7.449  0.9772  0.0137  0.3459
 1020TIP3   OH224694   5.708   0.664   0.144 -0.3654  0.1383 -0.5755
 1020TIP3    H124695   5.794   0.702   0.164  0.0625  1.0097 -3.5553
 1020TIP3    H224696   5.664   0.660   0.229  2.7324 -0.7976  1.1806
 1021TIP3   OH224697   2.493   4.185   6.368 -0.2553  0.0927 -0.2256
 1021TIP3    H124698   2.552   4.179   6.292 -1.1913 -0.4392 -0.9360
 1021TIP3    H224699   2.405   4.182   6.330 -0.7421  0.2375  0.8630
 1022TIP3   OH224700   4.018   4.194   0.353 -0.4001 -0.6498  0.3200
 1022TIP3    H124701   4.008   4.145   0.271 -1.6237  0.4498 -0.2071
 1022TIP3    H224702   3.941   4.250   0.358  0.3727  0.3673  1.5058
 1023TIP3   OH224703   5.795   0.770   0.580  0.0273 -0.7060  0.0452
 1023TIP3    H124704   5.870   0.746   0.634  1.1708 -0.3970 -1.3445
 1023TIP3    H224705   5.812   0.861   0.555  0.7528 -1.5036 -2.6735
 1024TIP3   OH224706   6.655   1.590   7.034 -0.7148  0.4103  0.1651
 1024TIP3    H124707   6.707   1.533   7.091 -0.4947 -2.4092 -2.5947
 1024TIP3    H224708   6.718   1.625   6.971 -1.4498  0.5021 -0.5456
 1025TIP3   OH224709   5.286   5.355   2.422  0.4254 -0.3261 -0.0310
 1025TIP3    H124710   5.251   5.359   2.511 -1.1265 -0.6172 -0.6090
 1025TIP3    H224711   5.372   5.397   2.429 -0.1055  0.6159  1.3854
 1026TIP3   OH224712   0.108   1.383   0.267  0.4384  0.3183  0.6600
 1026TIP3    H124713   0.079   1.329   0.340 -0.5840  0.5976  0.4680
 1026TIP3    H224714   0.165   1.449   0.308  1.2651 -0.5492  0.9611
 1027TIP3   OH224715   2.627   6.793   7.974 -0.0303  0.2911 -0.1590
 1027TIP3    H124716   2.672   6.835   7.900 -0.3992 -0.6213 -0.9355
 1027TIP3    H224717   2.591   6.865   8.024 -2.2300  0.9401 -2.4500
 1028TIP3   OH224718   3.501   6.496   1.275  0.0601 -0.0856  0.3031
 1028TIP3    H124719   3.544   6.418   1.310  0.2171 -0.6025 -0.9978
 1028TIP3    H224720   3.438   6.463   1.211  1.1239  0.8903 -1.3280
 1029TIP3   OH224721   4.786   5.771   7.832  0.1665 -0.0604  0.3002
 1029TIP3    H124722   4.814   5.680   7.842  0.3267 -0.1824 -1.1073
 1029TIP3    H224723   4.833   5.803   7.755 -3.2687 -0.2294 -2.1165
 1030TIP3   OH224724   4.397   5.349   7.526 -0.6887 -0.3993 -0.2123
 1030TIP3    H124725   4.428   5.440   7.531  2.7108 -1.4542  0.4326
 1030TIP3    H224726   4.439   5.314   7.447 -0.0182 -2.0028  0.8049
 1031TIP3   OH224727   2.371   6.756   7.596  0.0113 -0.3084  0.0839
 1031TIP3    H124728   2.418   6.693   7.541 -0.7775 -0.4867 -0.4147
 1031TIP3    H224729   2.385   6.840   7.553  0.1243 -0.3144  0.1085
 1032TIP3   OH224730   0.928   1.064   2.473  0.9157 -0.0488 -0.1686
 1032TIP3    H124731   0.867   1.137   2.463  1.2219  0.4548  1.3681
 1032TIP3    H224732   0.899   1.000   2.408 -1.3046  0.1350  0.5521
 1033TIP3   OH224733   2.397   6.848   1.037  0.1189 -0.7014  0.5349
 1033TIP3    H124734   2.331   6.791   1.076  0.0718 -1.1589 -0.2042
 1033TIP3    H224735   2.433   6.797   0.965  0.2024  0.1314 -0.0219
 1034TIP3   OH224736   6.788   1.231   0.992 -0.0193 -0.3282 -0.7832
 1034TIP3    H124737   6.696   1.259   0.992 -0.7908 -2.3401  2.1669
 1034TIP3    H224738   6.836   1.307   0.958 -2.7340  0.6739 -2.7725
 1035TIP3   OH224739   6.417   5.228   0.054 -0.6720 -0.5059  0.0344
 1035TIP3    H124740   6.420   5.264   0.142  0.0273 -0.2369 -0.0968
 1035TIP3    H224741   6.484   5.159   0.054  0.8513  0.8973 -0.8895
 1036TIP3   OH224742   3.837   0.869   6.925 -0.0561  0.3395 -0.0668
 1036TIP3    H124743   3.808   0.799   6.984  0.5568  0.1538  0.0288
 1036TIP3    H224744   3.816   0.950   6.972  0.8618  0.1895  0.6460
 1037TIP3   OH224745   5.912   3.348   6.706 -0.4952 -0.1254  0.5131
 1037TIP3    H124746   5.903   3.266   6.659  0.2318  0.8890 -1.5158
 1037TIP3    H224747   6.006   3.363   6.710 -0.2652 -1.3800  4.6634
 1038TIP3   OH224748   6.355   5.395   0.658  0.0529 -0.0598  0.3892
 1038TIP3    H124749   6.408   5.357   0.728  1.0089  0.4180 -0.0560
 1038TIP3    H224750   6.339   5.322   0.598 -0.0044 -0.2631  0.6480
 1039TIP3   OH224751   2.431   3.952   7.479  0.2964  0.5390  0.3350
 1039TIP3    H124752   2.358   4.013   7.486 -0.2172  0.2499 -1.8215
 1039TIP3    H224753   2.501   4.003   7.438 -0.6295 -0.5921 -2.9016
 1040TIP3   OH224754   5.777   2.973   1.390 -0.3080  0.4656 -0.1308
 1040TIP3    H124755   5.783   2.931   1.476 -0.6291  0.9375  0.1273
 1040TIP3    H224756   5.867   2.973   1.357 -0.4151 -1.2044 -0.5232
 1041TIP3   OH224757   5.345   5.705   2.563  0.3328  0.0217 -0.5491
 1041TIP3    H124758   5.378   5.791   2.539  1.6724 -0.4641 -0.5124
 1041TIP3    H224759   5.382   5.645   2.498  0.9035 -0.7643  0.4563
 1042TIP3   OH224760   6.453   5.390   6.890 -0.2178 -0.0300 -0.1948
 1042TIP3    H124761   6.414   5.452   6.829 -0.5096 -2.2732 -2.4771
 1042TIP3    H224762   6.397   5.394   6.968 -0.0331  2.6861 -0.0994
 1043TIP3   OH224763   6.435   0.785   7.810  0.0620  0.2494  0.7977
 1043TIP3    H124764   6.426   0.835   7.729  0.2047 -0.7499  0.1598
 1043TIP3    H224765   6.367   0.821   7.868  0.3316  1.3592  0.4529
 1044TIP3   OH224766   4.295   6.438   8.411  0.3488 -0.8520  0.0177
 1044TIP3    H124767   4.223   6.414   8.352 -0.8622  0.9710  0.6667
 1044TIP3    H224768   4.259   6.423   8.499  1.2137 -1.0833  0.3360
 1045TIP3   OH224769   0.465   6.704   1.200 -0.0315  0.2850 -0.7574
 1045TIP3    H124770   0.462   6.799   1.184 -1.4871  0.9270  2.3500
 1045TIP3    H224771   0.388   6.670   1.154  0.4122  0.6212 -1.7668
 1046TIP3   OH224772   2.235   1.063   8.584 -0.1570  0.1216  0.1499
 1046TIP3    H124773   2.200   0.982   8.622 -0.2509  0.3332  0.5231
 1046TIP3    H224774   2.164   1.095   8.529  0.3095 -0.6556 -0.9302
 1047TIP3   OH224775   5.570   4.819   7.285 -0.0602  0.5274 -0.3891
 1047TIP3    H124776   5.583   4.845   7.194  0.6842 -0.7378 -0.6791
 1047TIP3    H224777   5.499   4.755   7.282  0.2433  0.1721 -0.1584
 1048TIP3   OH224778   6.715   0.988   6.713  0.0402 -0.0744  0.4224
 1048TIP3    H124779   6.678   1.029   6.792 -1.1014 -2.4224  1.1918
 1048TIP3    H224780   6.788   0.935   6.745  1.4168  1.1364 -0.5413
 1049TIP3   OH224781   5.736   0.061   1.189  0.2690 -0.2245 -0.1894
 1049TIP3    H124782   5.665   0.038   1.250  0.5420  0.5712  0.4606
 1049TIP3    H224783   5.705   0.032   1.104 -1.6634  1.6595 -0.2284
 1050TIP3   OH224784   3.580   5.811   7.221  0.5336 -0.5185 -0.0834
 1050TIP3    H124785   3.544   5.817   7.309  1.5279  0.6951  0.2589
 1050TIP3    H224786   3.675   5.806   7.234  0.6801 -0.5273 -1.0751
 1051TIP3   OH224787   1.638   1.264   8.394  0.7000  0.5490  0.2325
 1051TIP3    H124788   1.694   1.204   8.444 -0.0736 -0.6642 -0.3152
 1051TIP3    H224789   1.697   1.303   8.329  0.7285 -1.6201 -1.1289
 1052TIP3   OH224790   2.265   2.778   6.772 -0.4222  0.3636  0.0668
 1052TIP3    H124791   2.286   2.762   6.680 -0.5814  1.1657 -0.1091
 1052TIP3    H224792   2.187   2.726   6.788 -0.0596 -0.2421 -0.0877
 1053TIP3   OH224793   5.769   5.006   6.902  0.4106  0.1730  0.0790
 1053TIP3    H124794   5.675   5.004   6.882  0.5805 -1.8713 -0.7607
 1053TIP3    H224795   5.772   5.007   6.997 -0.4374  1.8325  0.1247
 1054TIP3   OH224796   4.639   5.893   1.280 -0.6712  0.4703  0.8597
 1054TIP3    H124797   4.638   5.918   1.187 -1.3984  0.4189  0.8439
 1054TIP3    H224798   4.713   5.833   1.288 -1.4782 -0.6748  0.0027
 1055TIP3   OH224799   2.299   2.440   6.864  0.2410 -0.0039 -0.2820
 1055TIP3    H124800   2.330   2.362   6.818  0.1192  0.1362 -0.6050
 1055TIP3    H224801   2.225   2.470   6.812 -1.7056 -1.4236  1.4743
 1056TIP3   OH224802   4.328   0.461   1.387 -0.5022 -0.2681 -0.0776
 1056TIP3    H124803   4.330   0.368   1.411 -0.8534  0.1868  1.8528
 1056TIP3    H224804   4.419   0.481   1.364 -0.7141 -1.4557 -2.2038
 1057TIP3   OH224805   3.461   4.811   7.232 -0.3629  0.0977  0.1256
 1057TIP3    H124806   3.393   4.749   7.208  0.1796 -0.3082 -0.3798
 1057TIP3    H224807   3.459   4.813   7.328  0.2749 -1.4588  0.1997
 1058TIP3   OH224808   3.471   6.452   7.019 -0.3669 -0.4009  0.0142
 1058TIP3    H124809   3.453   6.498   7.101 -1.2303 -0.6637 -0.0206
 1058TIP3    H224810   3.554   6.407   7.036 -0.3479 -0.1577  0.6183
 1059TIP3   OH224811   4.183   1.459   0.672 -0.4176  0.7396 -0.1232
 1059TIP3    H124812   4.151   1.491   0.588 -2.3884  1.2105  0.7546
 1059TIP3    H224813   4.255   1.518   0.694  1.0666 -0.2163 -2.0597
 1060TIP3   OH224814   2.704   3.849   6.516 -0.0823 -0.6178 -0.3782
 1060TIP3    H124815   2.767   3.798   6.567  0.3663 -0.1939 -0.4982
 1060TIP3    H224816   2.712   3.814   6.427  1.1341  0.4698 -0.7317
 1061TIP3   OH224817   4.760   6.566   6.969  0.0233 -0.2324  0.1973
 1061TIP3    H124818   4.768   6.570   7.064  0.2251  0.5997  0.1510
 1061TIP3    H224819   4.828   6.625   6.937 -1.9879  1.9186 -0.3871
 1062TIP3   OH224820   0.116   4.892   1.009  0.1005 -0.0221  0.2138
 1062TIP3    H124821   0.172   4.840   1.066 -0.0215  0.3169  0.6473
 1062TIP3    H224822   0.141   4.982   1.026 -0.9955  0.1744  0.8745
 1063TIP3   OH224823   4.415   5.780   6.772  0.2145  0.0280 -0.4256
 1063TIP3    H124824   4.485   5.835   6.736 -0.6392  0.4364 -1.5195
 1063TIP3    H224825   4.456   5.735   6.846  1.5382  0.4979 -0.8391
 1064TIP3   OH224826   4.087   2.470   7.899 -0.2439 -0.0774 -0.1254
 1064TIP3    H124827   4.072   2.565   7.902  1.9852  0.3239  1.9803
 1064TIP3    H224828   4.110   2.447   7.989  0.5843 -2.3740 -0.8524
 1065TIP3   OH224829   4.527   6.071   0.152  0.7176  0.1372 -0.0036
 1065TIP3    H124830   4.466   5.998   0.142 -0.9949  1.5573 -0.4675
 1065TIP3    H224831   4.516   6.098   0.243  0.1786  0.7922 -0.2607
 1066TIP3   OH224832   0.712   5.487   0.859 -0.6115  0.1027  0.1710
 1066TIP3    H124833   0.675   5.566   0.818 -0.3687  0.4316  0.5758
 1066TIP3    H224834   0.717   5.509   0.952  0.6333  0.0672  0.1187
 1067TIP3   OH224835   0.264   2.310   0.675  0.1403 -0.5753 -0.5292
 1067TIP3    H124836   0.222   2.315   0.588  0.2686  1.5261 -0.5290
 1067TIP3    H224837   0.338   2.370   0.669  1.6271 -2.2269  0.3277
 1068TIP3   OH224838   5.397   1.821   0.393  0.5757 -0.2995  0.7991
 1068TIP3    H124839   5.378   1.882   0.322  0.2758 -0.6191  0.5998
 1068TIP3    H224840   5.446   1.750   0.352  2.7350  0.7600  1.4017
 1069TIP3   OH224841   2.500   3.684   7.592 -0.3699  0.0004  0.8690
 1069TIP3    H124842   2.478   3.777   7.601 -0.2916  0.2178 -0.8735
 1069TIP3    H224843   2.595   3.682   7.582 -0.5728  0.0052 -1.5504
 1070TIP3   OH224844   2.347   0.595   7.033  0.2491  0.3196  0.3619
 1070TIP3    H124845   2.253   0.584   7.046 -0.0400  0.2101 -1.5467
 1070TIP3    H224846   2.387   0.526   7.086 -0.8658 -0.8971 -0.3351
 1071TIP3   OH224847   2.355   2.703   1.463  0.1881 -0.1132 -0.0266
 1071TIP3    H124848   2.299   2.685   1.388  1.0073 -1.4481 -0.3353
 1071TIP3    H224849   2.294   2.707   1.537 -0.4956  0.1662 -0.5919
 1072TIP3   OH224850   3.417   5.655   7.067  0.0729 -0.3859 -0.3151
 1072TIP3    H124851   3.460   5.718   7.125 -0.4648 -1.9451  1.9310
 1072TIP3    H224852   3.338   5.700   7.037 -0.6104 -0.1299  1.7198
 1073TIP3   OH224853   3.857   5.921   1.018 -0.3511 -0.9530  0.1805
 1073TIP3    H124854   3.817   6.008   1.019 -1.5268 -1.4739 -0.0435
 1073TIP3    H224855   3.847   5.891   0.928 -0.0152 -1.3494  0.2736
 1074TIP3   OH224856   3.584   6.844   7.248 -0.4487  0.4846 -0.1772
 1074TIP3    H124857   3.501   6.893   7.248 -0.5478  0.3173 -0.0671
 1074TIP3    H224858   3.578   6.787   7.325 -0.0857  0.7163  0.0250
 1075TIP3   OH224859   3.641   0.454   6.712 -0.0334  0.0490  0.6757
 1075TIP3    H124860   3.655   0.544   6.683 -0.7364 -0.1501 -0.3337
 1075TIP3    H224861   3.587   0.415   6.644  0.5779 -1.2576  0.9090
 1076TIP3   OH224862   1.988   6.229   1.147  0.4393  0.3304 -0.0990
 1076TIP3    H124863   2.077   6.244   1.178 -0.6330 -0.8425  4.1915
 1076TIP3    H224864   1.990   6.140   1.111  0.8247 -0.1085  0.9711
 1077TIP3   OH224865   1.125   5.566   0.247 -0.4688 -0.2372  0.0677
 1077TIP3    H124866   1.119   5.653   0.287 -1.2395 -0.3451  0.2045
 1077TIP3    H224867   1.124   5.505   0.321 -0.9081 -0.3970 -0.0651
 1078TIP3   OH224868   4.054   4.615   7.997 -0.2842 -0.1294  0.2062
 1078TIP3    H124869   4.076   4.641   8.086 -0.0122  0.6631 -0.0803
 1078TIP3    H224870   4.072   4.693   7.944  1.5334 -1.1733 -0.8459
 1079TIP3   OH224871   6.138   4.641   2.369 -0.3591  0.2910  0.2848
 1079TIP3    H124872   6.131   4.732   2.341  1.3127  0.0432 -1.1308
 1079TIP3    H224873   6.232   4.626   2.377 -0.6488 -0.9811  1.6950
 1080TIP3   OH224874   4.907   5.390   1.137 -0.0260  0.2525 -0.1527
 1080TIP3    H124875   4.880   5.404   1.046 -0.1053 -0.6190 -0.2757
 1080TIP3    H224876   4.998   5.420   1.140 -0.0918  0.4891 -0.4672
 1081TIP3   OH224877   1.392   4.460   2.057 -0.0679  0.8597 -0.1038
 1081TIP3    H124878   1.447   4.537   2.045  2.3056 -0.3980  1.8408
 1081TIP3    H224879   1.453   4.387   2.067 -2.0688 -0.7321  1.6218
 1082TIP3   OH224880   2.656   3.548   7.312  0.7594  0.4122 -0.0168
 1082TIP3    H124881   2.691   3.494   7.383  0.1658 -0.1305 -0.1352
 1082TIP3    H224882   2.563   3.558   7.333  0.7826  1.0794 -0.1983
 1083TIP3   OH224883   4.104   1.193   0.454  0.1183 -0.4597  0.2903
 1083TIP3    H124884   4.138   1.115   0.497 -2.3140 -1.8566 -0.1229
 1083TIP3    H224885   4.126   1.182   0.362  0.0876 -0.4945  0.2869
 1084TIP3   OH224886   6.764   6.287   6.518  0.1864  0.4645 -0.0185
 1084TIP3    H124887   6.738   6.303   6.427 -0.0203 -1.3327 -0.3065
 1084TIP3    H224888   6.830   6.218   6.513 -0.2356 -0.0712  1.2204
 1085TIP3   OH224889   2.933   0.392   6.792 -0.1834  0.1222 -0.4563
 1085TIP3    H124890   2.905   0.302   6.776 -3.9834  0.7017  1.6766
 1085TIP3    H224891   2.990   0.414   6.718 -0.1558 -3.5449 -1.7065
 1086TIP3   OH224892   0.015   0.251   2.011  0.1863  0.1816 -0.2344
 1086TIP3    H124893  -0.054   0.188   1.990  1.1606 -0.7152 -0.8803
 1086TIP3    H224894   0.095   0.199   2.009  0.9312  1.2987  0.0151
 1087TIP3   OH224895   4.636   3.371   7.149 -0.0525 -0.1937 -0.0549
 1087TIP3    H124896   4.582   3.346   7.074  1.0458 -2.8636 -0.0640
 1087TIP3    H224897   4.591   3.333   7.225 -0.2076  0.9546  0.4567
 1088TIP3   OH224898   1.915   2.544   7.527 -0.2349  0.1255  0.3540
 1088TIP3    H124899   1.979   2.479   7.555  0.3242  0.3203 -0.4559
 1088TIP3    H224900   1.830   2.505   7.550  0.1059 -0.7363  0.2032
 1089TIP3   OH224901   2.284   5.364   0.463  0.1992 -0.5327  0.2378
 1089TIP3    H124902   2.283   5.417   0.384  0.3574 -1.2491 -0.2534
 1089TIP3    H224903   2.217   5.297   0.448 -0.4236 -0.1204  1.1024
 1090TIP3   OH224904   3.119   6.489   7.901  0.1801  0.1664  0.7265
 1090TIP3    H124905   3.087   6.450   7.819  1.4230  0.3420  0.1444
 1090TIP3    H224906   3.051   6.467   7.965 -0.7306 -0.1338 -0.2995
 1091TIP3   OH224907   1.317   6.157   7.254 -0.3191 -0.5306  0.3027
 1091TIP3    H124908   1.254   6.181   7.322  0.3820  0.1152  0.7432
 1091TIP3    H224909   1.379   6.230   7.253 -0.5083 -0.3574 -1.2728
 1092TIP3   OH224910   6.537   4.539   1.181 -0.0275 -0.5426 -0.3185
 1092TIP3    H124911   6.468   4.497   1.129 -0.8024 -0.5744  0.7064
 1092TIP3    H224912   6.509   4.529   1.271 -0.1026  1.9439  0.0052
 1093TIP3   OH224913   3.636   6.234   6.445  0.5065 -0.5024 -0.2709
 1093TIP3    H124914   3.626   6.145   6.412  1.2728  0.3697 -3.1023
 1093TIP3    H224915   3.573   6.286   6.395  1.4683  0.8608 -0.1193
 1094TIP3   OH224916   0.005   3.315   1.132  0.3468  0.8495  0.4089
 1094TIP3    H124917  -0.030   3.361   1.055 -0.4136  0.8167  0.7191
 1094TIP3    H224918   0.054   3.241   1.096 -0.7029  0.3408 -0.0495
 1095TIP3   OH224919   2.542   4.858   6.836  0.0335 -0.1173  0.0380
 1095TIP3    H124920   2.512   4.779   6.791  0.5064  0.6754 -1.7213
 1095TIP3    H224921   2.626   4.878   6.796  0.2170  0.9457  0.9137
 1096TIP3   OH224922   2.888   5.789   0.364  0.0980  0.1162 -0.1542
 1096TIP3    H124923   2.852   5.871   0.398  0.1643  0.1117 -0.0731
 1096TIP3    H224924   2.895   5.732   0.440  2.0748  0.7576  0.2058
 1097TIP3   OH224925   2.487   2.174   6.953 -0.3995 -0.0607  0.4977
 1097TIP3    H124926   2.469   2.171   6.859 -1.1574 -0.6731  0.6607
 1097TIP3    H224927   2.583   2.170   6.958 -0.2505  1.6035 -0.3026
 1098TIP3   OH224928   1.298   5.275   1.507  0.4233 -0.3362 -0.0088
 1098TIP3    H124929   1.314   5.355   1.459  0.1856 -0.9499 -1.1442
 1098TIP3    H224930   1.309   5.205   1.443 -0.5351 -1.1399  0.6636
 1099TIP3   OH224931   5.134   5.198   0.787  0.6347 -0.1337 -0.5987
 1099TIP3    H124932   5.173   5.115   0.817  0.4268  0.1174  0.3914
 1099TIP3    H224933   5.208   5.259   0.786  1.1551 -0.7201 -2.9944
 1100TIP3   OH224934   3.701   5.642   8.074 -0.2036 -0.1831  0.0352
 1100TIP3    H124935   3.719   5.662   8.166  0.2393  0.5279 -0.1944
 1100TIP3    H224936   3.765   5.574   8.052 -0.9233 -1.0432  0.4904
 1101TIP3   OH224937   4.346   2.008   0.462  0.2072  0.3395 -0.5170
 1101TIP3    H124938   4.285   2.081   0.449  0.1022  0.4071  0.2837
 1101TIP3    H224939   4.394   2.002   0.380  1.6332  2.6099  0.0618
 1102TIP3   OH224940   6.779   1.163   6.492 -0.4503  0.1694  0.1496
 1102TIP3    H124941   6.751   1.124   6.410  0.5881 -0.5191  0.0996
 1102TIP3    H224942   6.760   1.096   6.558  1.5565 -0.6047  0.0312
 1103TIP3   OH224943   0.929   5.278   1.370  0.1581  0.0166  0.3307
 1103TIP3    H124944   0.953   5.223   1.444 -0.4468 -0.5309  0.1406
 1103TIP3    H224945   0.967   5.363   1.389  2.3958 -0.8176 -0.0556
 1104TIP3   OH224946   2.740   1.694   8.613 -0.3237  0.3239  0.1331
 1104TIP3    H124947   2.733   1.704   8.708 -1.4254  0.4167  0.0576
 1104TIP3    H224948   2.820   1.643   8.600 -0.1052  0.3927  1.1011
 1105TIP3   OH224949   4.582   3.657   7.889  0.2044  0.2709 -0.2062
 1105TIP3    H124950   4.489   3.641   7.905 -0.1194 -0.3311 -2.3604
 1105TIP3    H224951   4.598   3.622   7.801  2.9165 -1.3614  0.7980
 1106TIP3   OH224952   1.579   5.933   7.946  0.0550 -0.3572 -0.0690
 1106TIP3    H124953   1.657   5.959   7.897 -0.5877  2.8448  0.3569
 1106TIP3    H224954   1.561   5.843   7.918  1.2012  0.4002 -3.7328
 1107TIP3   OH224955   3.380   3.055   7.604 -0.3685 -0.0932  0.7097
 1107TIP3    H124956   3.419   3.014   7.681  0.8702  0.8958  0.6448
 1107TIP3    H224957   3.399   3.148   7.615  0.6129 -0.0268 -1.2099
 1108TIP3   OH224958   2.459   1.506   7.939  0.2447  0.0597 -0.0780
 1108TIP3    H124959   2.481   1.593   7.974 -0.5919  0.3048 -0.1405
 1108TIP3    H224960   2.527   1.490   7.873 -1.3952  2.1736 -2.5010
 1109TIP3   OH224961   1.832   6.612   0.195 -0.8266  0.0742 -0.9399
 1109TIP3    H124962   1.798   6.670   0.264  0.2086  1.0317 -1.1934
 1109TIP3    H224963   1.841   6.527   0.238  0.3058  0.7783  0.3109
 1110TIP3   OH224964   0.863   5.314   0.223  0.0213  0.7503  0.1834
 1110TIP3    H124965   0.779   5.311   0.268  0.4337  1.5793  1.0474
 1110TIP3    H224966   0.841   5.303   0.130 -1.0625  1.2723  0.3656
 1111TIP3   OH224967   3.569   3.945   8.205 -0.3281 -0.1016  0.0394
 1111TIP3    H124968   3.632   4.001   8.160 -1.6393  1.4681  0.0915
 1111TIP3    H224969   3.617   3.910   8.280 -0.0353  2.6564  1.2334
 1112TIP3   OH224970   6.778   0.142   0.946 -0.1337  0.0355  0.3181
 1112TIP3    H124971   6.687   0.159   0.971  0.1880  2.4046  0.0893
 1112TIP3    H224972   6.773   0.067   0.887 -1.9167  0.0311  0.4174
 1113TIP3   OH224973   5.192   6.831   6.591  0.3663  0.1877 -0.0342
 1113TIP3    H124974   5.250   6.897   6.628 -0.6666  1.5424 -0.7730
 1113TIP3    H224975   5.125   6.817   6.658 -0.0930  0.8000 -0.3539
 1114TIP3   OH224976   3.277   3.214   0.693 -0.5865 -0.0621  0.3636
 1114TIP3    H124977   3.232   3.236   0.612  2.4128  2.8301 -0.7352
 1114TIP3    H224978   3.263   3.290   0.750 -1.7612 -1.5868  2.2495
 1115TIP3   OH224979   4.458   4.707   6.824 -0.2326 -0.0271  0.2251
 1115TIP3    H124980   4.506   4.654   6.888  2.0258  0.4211 -0.9726
 1115TIP3    H224981   4.520   4.777   6.800 -2.0531  1.4641 -0.3689
 1116TIP3   OH224982   4.232   0.173   2.277  0.5787 -0.0768 -0.0477
 1116TIP3    H124983   4.138   0.151   2.279  0.3116  0.8537 -1.5648
 1116TIP3    H224984   4.241   0.239   2.346  0.2228 -0.4739  0.3991
 1117TIP3   OH224985   4.240   3.334   0.289 -0.5496 -0.6078 -0.4006
 1117TIP3    H124986   4.247   3.310   0.381  1.3041  1.8996  0.2209
 1117TIP3    H224987   4.313   3.290   0.246 -0.0217  0.0403 -0.1882
 1118TIP3   OH224988   2.594   0.809   6.941  0.3499 -0.2293 -0.4377
 1118TIP3    H124989   2.652   0.740   6.909  1.8963  0.4877  0.6824
 1118TIP3    H224990   2.506   0.779   6.919  0.9600 -2.6154  0.1209
 1119TIP3   OH224991   1.334   1.090   5.688  0.4678 -0.3627 -0.0808
 1119TIP3    H124992   1.329   1.064   5.780  1.1777 -0.8765 -0.1835
 1119TIP3    H224993   1.244   1.115   5.666  0.2954 -0.2067  0.7562
 1120TIP3   OH224994   6.647   2.076   0.981 -0.0499 -0.1301 -0.6945
 1120TIP3    H124995   6.558   2.044   0.964  0.0328 -0.2825 -0.8459
 1120TIP3    H224996   6.636   2.168   1.005 -0.0275  0.6142 -3.2940
 1121TIP3   OH224997   2.704   3.695   8.482 -0.6283 -0.7108 -0.2354
 1121TIP3    H124998   2.793   3.678   8.512 -0.4466 -0.4011 -0.5789
 1121TIP3    H224999   2.672   3.611   8.450  0.5287 -0.3422 -2.6297
 1122TIP3   OH225000   3.165   5.166   0.890  0.3429 -0.4427 -0.0340
 1122TIP3    H125001   3.106   5.118   0.949  0.9702 -1.6199 -0.3413
 1122TIP3    H225002   3.166   5.255   0.925  0.4863 -1.0381  1.5760
 1123TIP3   OH225003   0.523   3.021   1.282  0.5507 -0.2474 -0.0063
 1123TIP3    H125004   0.567   2.939   1.260  1.9470  0.4464  0.0294
 1123TIP3    H225005   0.437   3.015   1.242  0.8423 -1.4981 -0.4735
 1124TIP3   OH225006   2.951   5.882   0.657  0.0019  0.4690  0.3648
 1124TIP3    H125007   2.931   5.963   0.610 -0.0948  0.5060  0.4671
 1124TIP3    H225008   3.035   5.853   0.622 -0.3943  0.1292 -0.3225
 1125TIP3   OH225009   1.926   4.523   6.879  0.7343 -0.4243 -0.2753
 1125TIP3    H125010   1.878   4.441   6.886  1.1186 -0.5418  1.2859
 1125TIP3    H225011   2.013   4.502   6.912  0.7691  0.6542  0.3476
 1126TIP3   OH225012   0.020   5.465   6.311 -0.2863 -0.1244 -0.3850
 1126TIP3    H125013   0.104   5.470   6.357  0.6558  2.5050 -2.1577
 1126TIP3    H225014   0.002   5.372   6.306  0.9963 -0.6763  2.6244
 1127TIP3   OH225015   0.402   6.154   6.611 -0.6676  0.2754  0.4355
 1127TIP3    H125016   0.396   6.060   6.621 -0.6600  0.2272  0.0316
 1127TIP3    H225017   0.470   6.167   6.545  0.5225  0.6330  1.6888
 1128TIP3   OH225018   2.246   1.737   0.281 -0.1871  0.7907  0.0384
 1128TIP3    H125019   2.200   1.674   0.225  0.9122  1.5766 -1.8325
 1128TIP3    H225020   2.337   1.708   0.279 -0.3067 -0.1360  2.8552
 1129TIP3   OH225021   0.575   0.559   1.205 -0.4852 -0.5279  0.2428
 1129TIP3    H125022   0.551   0.619   1.134  0.1285 -0.3790  0.1543
 1129TIP3    H225023   0.585   0.474   1.162  0.6307 -0.2909  0.0061
 1130TIP3   OH225024   4.861   2.925   0.877 -0.2069 -0.1571  0.4335
 1130TIP3    H125025   4.928   2.992   0.864  0.0610 -0.6228 -0.7463
 1130TIP3    H225026   4.873   2.896   0.967  0.0691  0.9457  0.7619
 1131TIP3   OH225027   6.125   5.210   1.114 -0.5558 -0.2889  0.4216
 1131TIP3    H125028   6.047   5.250   1.076  0.0227  1.4445  0.9672
 1131TIP3    H225029   6.092   5.155   1.185 -1.2511  1.1796  1.2734
 1132TIP3   OH225030   0.046   2.071   1.223 -0.4851 -0.3055  0.1794
 1132TIP3    H125031  -0.034   2.055   1.173 -0.7493 -0.5320  0.6776
 1132TIP3    H225032   0.017   2.087   1.312 -0.0120  0.1579  0.2595
 1133TIP3   OH225033   1.788   5.220   7.240  0.3139  0.1215  0.3997
 1133TIP3    H125034   1.808   5.310   7.266  0.3718 -0.0461  0.9394
 1133TIP3    H225035   1.752   5.180   7.319  0.2364 -0.3153  0.1437
 1134TIP3   OH225036   5.554   6.444   1.204 -0.8125 -0.0682  0.5212
 1134TIP3    H125037   5.618   6.514   1.218 -1.7501  1.2423 -1.2714
 1134TIP3    H225038   5.607   6.365   1.192  0.5661  1.0902 -1.5656
 1135TIP3   OH225039   6.866   1.032   1.700 -0.0667 -0.1500  0.2869
 1135TIP3    H125040   6.873   1.108   1.643 -0.4695 -0.7137 -0.5240
 1135TIP3    H225041   6.798   1.056   1.764  0.0867  0.3190  0.2754
 1136TIP3   OH225042   6.502   0.542   7.937 -0.3149 -0.6914 -0.4343
 1136TIP3    H125043   6.471   0.624   7.898 -0.9912  0.3762  2.1356
 1136TIP3    H225044   6.595   0.557   7.953 -0.2225 -0.8227 -0.8208
 1137TIP3   OH225045   4.167   5.600   8.390  0.0816 -0.3483 -0.0169
 1137TIP3    H125046   4.093   5.543   8.365  0.2157 -0.0071 -1.2682
 1137TIP3    H225047   4.137   5.644   8.470 -0.7682 -0.7768 -0.0823
 1138TIP3   OH225048   3.943   6.645   1.409 -0.0059  0.0481 -0.0075
 1138TIP3    H125049   3.903   6.721   1.452 -1.4112 -0.8310  0.3014
 1138TIP3    H225050   4.019   6.681   1.364 -1.4756  1.9547 -1.1535
 1139TIP3   OH225051   6.775   1.365   6.737 -0.6214 -0.1682 -0.2479
 1139TIP3    H125052   6.707   1.324   6.790  0.5502 -0.6284  0.9797
 1139TIP3    H225053   6.762   1.330   6.649 -2.5167  0.4746 -0.2634
 1140TIP3   OH225054   6.256   3.120   0.353  0.5333  0.2336  0.2001
 1140TIP3    H125055   6.164   3.099   0.340  1.0943 -3.2633  0.9956
 1140TIP3    H225056   6.265   3.210   0.321 -3.1221  0.7194  0.1903
 1141TIP3   OH225057   0.330   2.692   8.656  0.3184 -0.2623 -0.5120
 1141TIP3    H125058   0.273   2.618   8.635 -0.7032  0.4887 -0.4673
 1141TIP3    H225059   0.358   2.726   8.571  2.4475 -1.8830 -0.5527
 1142TIP3   OH225060   3.550   1.665   8.425  0.6854  0.0739  0.0799
 1142TIP3    H125061   3.463   1.705   8.422  1.2063  1.2902  0.6298
 1142TIP3    H225062   3.561   1.638   8.516  1.5089  1.4200  0.4110
 1143TIP3   OH225063   1.427   2.814   1.362 -0.2487 -0.0204  0.0044
 1143TIP3    H125064   1.467   2.730   1.339 -0.2170  0.2865 -1.0958
 1143TIP3    H225065   1.379   2.796   1.444 -1.7724 -1.5926 -1.1557
 1144TIP3   OH225066   5.022   4.300   2.373 -0.7207 -0.0570 -0.0884
 1144TIP3    H125067   5.039   4.208   2.352  0.7104  0.2181 -0.2243
 1144TIP3    H225068   4.954   4.327   2.311 -2.7255 -1.5717  1.3254
 1145TIP3   OH225069   6.643   0.239   6.909 -0.4211  0.3896 -0.0074
 1145TIP3    H125070   6.691   0.301   6.854 -0.8726  1.2253  0.5248
 1145TIP3    H225071   6.601   0.293   6.976 -0.6599 -0.5129  0.5923
 1146TIP3   OH225072   1.857   3.571   8.238  0.0415 -0.3583  0.2079
 1146TIP3    H125073   1.849   3.644   8.177 -0.8871 -1.1281 -0.6172
 1146TIP3    H225074   1.934   3.522   8.208 -0.8852 -1.1913 -0.8660
 1147TIP3   OH225075   4.979   2.518   0.656 -0.1765  0.0864  0.2723
 1147TIP3    H125076   5.031   2.447   0.618 -0.5466  0.6278 -1.3306
 1147TIP3    H225077   4.893   2.478   0.672 -0.0749 -0.1004  0.3547
 1148TIP3   OH225078   2.390   0.257   8.318  0.0044  0.5071 -0.4637
 1148TIP3    H125079   2.434   0.266   8.403 -2.2322 -1.3511  1.0087
 1148TIP3    H225080   2.335   0.336   8.311 -0.4064  0.2908  0.2276
 1149TIP3   OH225081   0.501   0.021   1.659  0.3322 -0.6295 -0.2001
 1149TIP3    H125082   0.459  -0.064   1.672  1.2978 -1.4898 -2.2181
 1149TIP3    H225083   0.566   0.026   1.729 -1.8257 -0.0307  1.9203
 1150TIP3   OH225084   6.063   2.698   1.365 -0.6564  0.5918  0.0522
 1150TIP3    H125085   6.012   2.681   1.444 -1.9470  0.5507 -0.7681
 1150TIP3    H225086   6.062   2.615   1.318 -3.6123  1.6535 -2.0500
 1151TIP3   OH225087   5.218   2.500   1.040  0.3462  0.3621 -0.4082
 1151TIP3    H125088   5.204   2.426   0.981 -0.5257  1.0446 -1.0725
 1151TIP3    H225089   5.283   2.554   0.996  1.4523 -0.2910  0.3646
 1152TIP3   OH225090   6.636   2.860   6.835 -0.7188 -0.9136 -0.2180
 1152TIP3    H125091   6.573   2.930   6.821 -2.4168 -2.4209 -0.5372
 1152TIP3    H225092   6.685   2.854   6.753 -0.6334 -0.1905 -0.2235
 1153TIP3   OH225093   5.639   0.610   0.410 -0.1275  0.1759  0.0496
 1153TIP3    H125094   5.701   0.657   0.466  0.4837 -0.7015  0.1419
 1153TIP3    H225095   5.557   0.608   0.459 -0.2390  1.3613 -0.0737
 1154TIP3   OH225096   1.522   3.708   0.097 -0.0985 -0.0630  0.5122
 1154TIP3    H125097   1.586   3.670   0.038  0.4018 -0.1479  1.0968
 1154TIP3    H225098   1.493   3.635   0.152 -0.1253  0.1326  0.7585
 1155TIP3   OH225099   2.200   2.718   7.825  0.1170 -0.0570  0.3615
 1155TIP3    H125100   2.191   2.765   7.908  1.8941 -1.1407  1.2300
 1155TIP3    H225101   2.276   2.661   7.838  2.0369  1.4951 -2.8424
 1156TIP3   OH225102   6.485   0.176   0.956 -0.2792  0.2934 -0.2887
 1156TIP3    H125103   6.437   0.171   1.039 -2.4710  0.7614 -1.4478
 1156TIP3    H225104   6.506   0.085   0.935 -1.5499 -0.0280 -0.2265
 1157TIP3   OH225105   0.404   2.862   1.492 -0.1158 -0.2053 -0.6982
 1157TIP3    H125106   0.400   2.768   1.476  1.3364 -0.0724 -2.0576
 1157TIP3    H225107   0.444   2.898   1.413 -0.8252  1.5909 -0.2878
 1158TIP3   OH225108   2.102   2.581   0.208 -0.3537 -0.3213  0.7426
 1158TIP3    H125109   2.163   2.653   0.216  0.2396 -0.7053 -0.1647
 1158TIP3    H225110   2.038   2.596   0.278 -0.6609  1.4651  0.1192
 1159TIP3   OH225111   0.784   3.236   2.283 -0.3129 -0.1335  0.4599
 1159TIP3    H125112   0.739   3.155   2.262  3.0262 -2.1429  0.2470
 1159TIP3    H225113   0.774   3.246   2.378 -0.1949 -1.2295  0.5992
 1160TIP3   OH225114   3.495   6.078   6.954 -0.2038  0.6901  0.6268
 1160TIP3    H125115   3.570   6.129   6.984 -0.5321  0.6633  1.5097
 1160TIP3    H225116   3.507   6.071   6.859  0.7983  0.8624  0.7318
 1161TIP3   OH225117   0.709   3.105   1.097 -0.0955 -0.1602 -0.1304
 1161TIP3    H125118   0.791   3.104   1.147  1.1447  0.3777 -2.0532
 1161TIP3    H225119   0.641   3.116   1.163  1.3914 -0.2804  1.5029
 1162TIP3   OH225120   6.358   6.746   0.902  0.1847 -0.2175  0.7042
 1162TIP3    H125121   6.392   6.669   0.948 -0.7905 -2.4127 -1.9581
 1162TIP3    H225122   6.267   6.754   0.931 -0.6543 -2.0425 -1.1417
 1163TIP3   OH225123   0.498   5.395   1.669 -0.2333  0.9321  0.1455
 1163TIP3    H125124   0.519   5.476   1.623 -0.0894  0.2582 -1.0222
 1163TIP3    H225125   0.554   5.329   1.628 -1.5890 -0.0949 -0.1549
 1164TIP3   OH225126   2.758   5.144   8.679 -0.1332  0.3655  0.5020
 1164TIP3    H125127   2.781   5.059   8.717  0.9567  0.3145 -0.2109
 1164TIP3    H225128   2.740   5.125   8.587  1.6206  1.0817 -0.0402
 1165TIP3   OH225129   5.399   2.082   6.225  0.5826  0.5045 -0.3430
 1165TIP3    H125130   5.428   2.154   6.280  1.6679  0.0311 -0.2543
 1165TIP3    H225131   5.307   2.070   6.247  1.0843  0.0144  1.7457
 1166TIP3   OH225132   2.330   4.989   0.785  0.0011 -0.2361 -0.2039
 1166TIP3    H125133   2.396   4.964   0.850  0.1363 -0.3648 -0.3876
 1166TIP3    H225134   2.380   5.036   0.717 -0.1808  0.1310 -0.0839
 1167TIP3   OH225135   1.640   0.153   8.662  0.1014  0.4468  0.0246
 1167TIP3    H125136   1.648   0.188   8.750  1.1891 -0.3322  0.2499
 1167TIP3    H225137   1.626   0.059   8.674  0.2563  0.3319 -0.6391
 1168TIP3   OH225138   4.119   4.486   6.394  0.7296  0.0092  0.0119
 1168TIP3    H125139   4.024   4.485   6.382  0.5713 -2.5831  0.7738
 1168TIP3    H225140   4.154   4.479   6.305  0.2704  1.6640 -0.3318
 1169TIP3   OH225141   6.740   1.669   8.361 -0.5141  0.0430 -0.6808
 1169TIP3    H125142   6.739   1.763   8.382 -1.3268 -0.4644  1.8317
 1169TIP3    H225143   6.688   1.662   8.281 -1.2812  1.6247 -0.3536
 1170TIP3   OH225144   6.319   6.611   0.438  0.0375 -0.5042 -0.0436
 1170TIP3    H125145   6.244   6.655   0.399 -1.5431 -2.2140  0.9155
 1170TIP3    H225146   6.349   6.670   0.507 -0.3505  0.2438 -0.5047
 1171TIP3   OH225147   6.231   3.954   8.291 -0.4994 -0.5743  0.8302
 1171TIP3    H125148   6.237   3.999   8.207  0.4595  0.9791  1.6794
 1171TIP3    H225149   6.279   3.872   8.277  1.1325  0.4244  0.3092
 1172TIP3   OH225150   5.900   2.559   0.304 -0.0196 -0.0485 -0.6473
 1172TIP3    H125151   5.952   2.617   0.359  0.2169 -0.6271 -0.2523
 1172TIP3    H225152   5.813   2.599   0.302 -0.3702 -0.6428  1.1383
 1173TIP3   OH225153   0.074   2.459   1.839  0.1552 -0.3138 -0.3254
 1173TIP3    H125154   0.058   2.449   1.745  1.5979  0.4019 -0.6756
 1173TIP3    H225155   0.165   2.431   1.850  0.2463  0.3667  0.7249
 1174TIP3   OH225156   4.726   2.581   0.835 -0.1514  0.6490  0.5707
 1174TIP3    H125157   4.649   2.573   0.892  0.5139 -0.8863  1.3026
 1174TIP3    H225158   4.698   2.539   0.753 -0.2219  0.4293  0.7057
 1175TIP3   OH225159   3.458   6.759   8.419 -0.3850  0.0029  0.7802
 1175TIP3    H125160   3.394   6.816   8.461 -2.0024 -0.8897 -0.3596
 1175TIP3    H225161   3.514   6.819   8.370 -1.7627  0.6954 -0.0183
 1176TIP3   OH225162   1.590   6.486   0.794  0.3447 -0.2862  0.3847
 1176TIP3    H125163   1.530   6.444   0.855 -0.5751  0.4498  0.0042
 1176TIP3    H225164   1.663   6.516   0.849 -0.5484  0.5112  1.1651
 1177TIP3   OH225165   5.293   2.982   0.516 -0.4062  0.0800 -0.3227
 1177TIP3    H125166   5.384   2.967   0.541  0.2554  1.6906 -1.5717
 1177TIP3    H225167   5.293   2.977   0.421 -1.7393 -0.4073 -0.3180
 1178TIP3   OH225168   4.114   5.463   6.951  0.0920 -0.5345  0.3366
 1178TIP3    H125169   4.185   5.409   6.915 -2.0377 -3.2017 -0.2370
 1178TIP3    H225170   4.099   5.530   6.884  1.9135  0.0043  0.4082
 1179TIP3   OH225171   2.621   6.731   0.501 -0.2908 -0.1903 -0.1034
 1179TIP3    H125172   2.600   6.822   0.519 -0.4798 -0.5203  1.5253
 1179TIP3    H225173   2.568   6.708   0.425 -0.7630  0.8688 -0.1053
 1180TIP3   OH225174   6.780   0.815   1.207  0.6778 -0.0512  0.9783
 1180TIP3    H125175   6.783   0.769   1.290  0.9256 -0.4451  0.7574
 1180TIP3    H225176   6.695   0.792   1.169  1.0756 -0.8943  0.5608
 1181TIP3   OH225177   1.217   6.043   0.404 -0.2974  0.0850  0.7668
 1181TIP3    H125178   1.296   6.073   0.447 -0.0934 -0.9157  1.1283
 1181TIP3    H225179   1.145   6.083   0.454 -0.0388  0.1286  1.1039
 1182TIP3   OH225180   4.622   5.142   0.714  0.0074  0.3964 -0.0022
 1182TIP3    H125181   4.597   5.185   0.632  0.7534  2.7255  0.8959
 1182TIP3    H225182   4.567   5.182   0.780  2.3987  1.9182  1.2398
 1183TIP3   OH225183   3.210   4.948   0.706 -0.0518 -0.3809 -0.2154
 1183TIP3    H125184   3.228   4.999   0.627 -0.0187  0.5767  0.3890
 1183TIP3    H225185   3.207   5.014   0.776 -0.0818 -1.2100  0.5745
 1184TIP3   OH225186   3.197   1.275   6.317 -0.2263  0.4314 -0.2778
 1184TIP3    H125187   3.194   1.368   6.336  0.7467 -0.1221  3.4151
 1184TIP3    H225188   3.120   1.258   6.263 -0.1793  3.3654 -1.4206
 1185TIP3   OH225189   6.167   6.144   7.996 -0.0228 -0.2098  0.1435
 1185TIP3    H125190   6.076   6.116   7.981  0.4365 -1.3684 -0.5958
 1185TIP3    H225191   6.186   6.115   8.085 -0.1424 -0.6339  0.0340
 1186TIP3   OH225192   5.806   4.319   7.099  0.4170 -0.3890  0.0093
 1186TIP3    H125193   5.735   4.354   7.046  0.4880  0.5457  0.5121
 1186TIP3    H225194   5.836   4.241   7.051 -0.5450 -0.4581 -0.5038
 1187TIP3   OH225195   6.807   3.909   7.921  0.2535 -0.0724  0.3558
 1187TIP3    H125196   6.866   3.934   7.850 -0.0308 -1.6694 -0.4872
 1187TIP3    H225197   6.818   3.977   7.987  1.6582  0.6345 -0.5733
 1188TIP3   OH225198   5.294   5.924   6.700  0.3120 -0.2522 -0.6705
 1188TIP3    H125199   5.361   5.893   6.639  0.2241 -0.1563 -0.8173
 1188TIP3    H225200   5.228   5.854   6.700  0.2898 -0.2311 -0.7210
 1189TIP3   OH225201   2.183   0.235   2.061 -0.1967 -0.5174  0.1375
 1189TIP3    H125202   2.217   0.189   1.984  0.4923 -0.1567  0.2173
 1189TIP3    H225203   2.167   0.166   2.125 -0.5495 -0.7944 -0.2417
 1190TIP3   OH225204   5.162   0.069   6.344  0.3586  0.3776  0.2354
 1190TIP3    H125205   5.242   0.040   6.389  0.2384  1.4453  1.1801
 1190TIP3    H225206   5.108  -0.010   6.338  1.5402 -0.3982 -0.5702
 1191TIP3   OH225207   6.190   4.745   0.414  0.1141  0.4252  0.1589
 1191TIP3    H125208   6.275   4.718   0.378  1.2705  0.4937  2.6745
 1191TIP3    H225209   6.138   4.665   0.412  0.6879  0.0487 -0.1942
 1192TIP3   OH225210   1.222   4.322   0.624  0.3118  0.1476  0.0750
 1192TIP3    H125211   1.317   4.315   0.631  0.4327  2.0500  0.8864
 1192TIP3    H225212   1.188   4.259   0.688  0.9906 -0.5624 -0.2410
 1193TIP3   OH225213   4.017   3.834   1.176  0.2532  1.0216  0.0444
 1193TIP3    H125214   4.044   3.832   1.268 -0.9296 -1.0479  0.3995
 1193TIP3    H225215   4.020   3.927   1.153  3.5579  1.3513  1.2276
 1194TIP3   OH225216   5.647   3.149   7.161  0.2753 -0.0722 -0.0607
 1194TIP3    H125217   5.684   3.104   7.237 -1.5318 -0.6580  0.5193
 1194TIP3    H225218   5.660   3.089   7.088  0.9370 -0.0268  0.0124
 1195TIP3   OH225219   5.528   2.460   6.078  0.3166  0.1794  0.7527
 1195TIP3    H125220   5.604   2.408   6.053 -1.0408 -2.2625  1.3417
 1195TIP3    H225221   5.550   2.493   6.165  0.2760 -1.5466  1.4627
 1196TIP3   OH225222   2.383   1.033   1.318 -0.5726 -0.0004  1.0246
 1196TIP3    H125223   2.454   1.095   1.299 -0.8318  1.2714  3.7180
 1196TIP3    H225224   2.379   0.977   1.241  1.2662  1.8490 -0.5447
 1197TIP3   OH225225   2.575   6.603   7.473 -0.4946  0.0812  0.1385
 1197TIP3    H125226   2.663   6.609   7.435  0.4391  1.0910  2.2948
 1197TIP3    H225227   2.580   6.529   7.533 -0.2736  1.6731  2.1811
 1198TIP3   OH225228   1.215   1.728   1.932 -0.0233 -0.6093 -0.0380
 1198TIP3    H125229   1.143   1.764   1.983  0.8087 -1.1972  1.6616
 1198TIP3    H225230   1.177   1.656   1.883 -0.3518 -2.0156  2.1254
 1199TIP3   OH225231   0.724   4.531   8.438  0.0848  0.1488 -0.0998
 1199TIP3    H125232   0.688   4.482   8.364  0.9755 -0.4536 -0.1527
 1199TIP3    H225233   0.656   4.594   8.460 -0.4264 -0.0334 -1.0781
 1200TIP3   OH225234   3.416   0.777   1.570 -0.0982  0.3177  0.0891
 1200TIP3    H125235   3.475   0.781   1.494 -0.2302  2.4541  0.0354
 1200TIP3    H225236   3.331   0.756   1.532  0.4111 -2.0558  0.0862
 1201TIP3   OH225237   2.031   4.490   8.452  0.4329 -0.0355 -0.1229
 1201TIP3    H125238   1.942   4.456   8.440 -0.7100  2.9723 -1.0336
 1201TIP3    H225239   2.066   4.497   8.363 -0.0364  2.5455 -0.1930
 1202TIP3   OH225240   1.223   6.121   6.487 -0.5332  0.6884 -0.0156
 1202TIP3    H125241   1.153   6.075   6.440  0.1430 -0.5153  0.1207
 1202TIP3    H225242   1.249   6.062   6.557  0.7410  1.0170 -0.1706
 1203TIP3   OH225243   0.487   5.520   1.075 -0.1736 -0.3769  0.0111
 1203TIP3    H125244   0.472   5.608   1.040 -0.0178 -0.3874 -0.0883
 1203TIP3    H225245   0.558   5.531   1.138  1.1192 -0.7097 -1.3221
 1204TIP3   OH225246   3.153   5.376   6.538  0.3297  0.5082  0.1053
 1204TIP3    H125247   3.237   5.335   6.519 -1.0421 -1.7640 -1.5231
 1204TIP3    H225248   3.151   5.454   6.483  1.2108  0.3456 -0.1683
 1205TIP3   OH225249   0.843   1.886   6.589  0.0334  0.0048 -0.6918
 1205TIP3    H125250   0.895   1.924   6.517 -0.5046  2.9930  0.3498
 1205TIP3    H225251   0.844   1.954   6.656 -3.5353 -0.6615  0.1864
 1206TIP3   OH225252   1.415   6.575   0.358 -0.1299  0.7244  0.0575
 1206TIP3    H125253   1.323   6.591   0.334 -0.8041 -0.1467  1.9416
 1206TIP3    H225254   1.418   6.589   0.452  1.6921  0.7054  0.0286
 1207TIP3   OH225255   1.356   2.857   1.639  0.1026 -0.4921  0.2168
 1207TIP3    H125256   1.369   2.769   1.673  1.4741 -0.1138  0.7515
 1207TIP3    H225257   1.337   2.910   1.717  0.1152 -0.1777  0.0096
 1208TIP3   OH225258   6.088   4.742   7.039  0.0278 -0.3075  0.7803
 1208TIP3    H125259   6.082   4.824   7.089 -2.5220  0.2075 -0.2299
 1208TIP3    H225260   6.084   4.769   6.948  1.6085 -1.4501  0.3376
 1209TIP3   OH225261   1.412   4.118   8.486 -0.2615 -0.7329  0.7575
 1209TIP3    H125262   1.362   4.199   8.474  0.1884 -0.3262  1.5174
 1209TIP3    H225263   1.387   4.063   8.413  0.7702  0.7936 -0.8304
 1210TIP3   OH225264   5.003   4.330   7.660  0.1382 -0.3384 -0.5968
 1210TIP3    H125265   4.986   4.420   7.634  0.6493 -0.3236 -0.8891
 1210TIP3    H225266   5.037   4.336   7.750  1.8332 -0.0824 -1.2190
 1211TIP3   OH225267   5.818   1.968   1.644 -0.1433 -0.1492  0.1681
 1211TIP3    H125268   5.834   1.879   1.675 -0.5620 -0.0382  0.7154
 1211TIP3    H225269   5.903   1.998   1.612 -0.7070 -2.0408 -3.5376
 1212TIP3   OH225270   2.934   4.512   8.020 -0.0686  0.1098  0.2566
 1212TIP3    H125271   3.026   4.498   7.995  0.4680  1.3411  1.3864
 1212TIP3    H225272   2.917   4.603   7.994 -0.4963  0.3634  1.3942
 1213TIP3   OH225273   4.106   0.349   8.299 -0.7607  0.8092 -0.5539
 1213TIP3    H125274   4.181   0.339   8.240  1.3153  1.7304  1.7551
 1213TIP3    H225275   4.065   0.431   8.273  0.1465  1.2147 -0.7639
 1214TIP3   OH225276   5.499   5.174   7.145  0.4736 -0.1528 -0.5145
 1214TIP3    H125277   5.577   5.119   7.143 -0.8143 -2.0651 -0.9889
 1214TIP3    H225278   5.426   5.112   7.145 -1.0973  1.5546 -2.1931
 1215TIP3   OH225279   1.481   6.220   6.461  0.3848  0.3846  0.1217
 1215TIP3    H125280   1.530   6.152   6.415 -0.0617  0.1377  0.0008
 1215TIP3    H225281   1.392   6.185   6.468  0.0302  1.1521 -0.3804
 1216TIP3   OH225282   0.704   2.014   0.850 -0.7092  0.5061 -0.2711
 1216TIP3    H125283   0.637   2.076   0.821 -0.1970  1.0207 -0.3754
 1216TIP3    H225284   0.730   1.968   0.770 -1.0389  0.2069 -0.2061
 1217TIP3   OH225285   2.123   2.429   7.289 -0.2521  0.4420  0.3300
 1217TIP3    H125286   2.116   2.493   7.360  0.3475  0.3629  0.4675
 1217TIP3    H225287   2.119   2.344   7.333  0.1033  0.3921  0.2741
 1218TIP3   OH225288   5.512   5.149   8.192 -0.6420  0.0259  0.1803
 1218TIP3    H125289   5.606   5.145   8.177 -0.6744  0.4625 -0.2014
 1218TIP3    H225290   5.494   5.083   8.258 -0.1201 -0.3101 -0.0101
 1219TIP3   OH225291   6.832   1.074   7.388  0.6398  0.2999  0.6076
 1219TIP3    H125292   6.912   1.070   7.440  0.3314  0.4537  1.1019
 1219TIP3    H225293   6.805   1.166   7.391  1.7336  0.7522 -1.5630
 1220TIP3   OH225294   0.981   0.247   0.115 -0.2879 -0.1483  0.8722
 1220TIP3    H125295   1.017   0.176   0.168 -0.8709  0.5865  2.3174
 1220TIP3    H225296   0.941   0.306   0.179 -1.1191  0.7267 -0.4103
 1221TIP3   OH225297   1.940   3.285   0.769  0.2833  0.2054 -0.4598
 1221TIP3    H125298   2.019   3.256   0.814  0.0352 -0.6403 -0.5580
 1221TIP3    H225299   1.967   3.362   0.720  1.6430 -1.3598 -2.3237
 1222TIP3   OH225300   1.425   0.700   7.852  0.2113 -0.2710 -0.3593
 1222TIP3    H125301   1.368   0.625   7.835 -1.7422  1.5524 -2.3178
 1222TIP3    H225302   1.498   0.688   7.791  1.7169 -2.2053  1.6313
 1223TIP3   OH225303   2.695   6.735   2.176  0.5355  0.5753 -0.5508
 1223TIP3    H125304   2.697   6.793   2.101  1.4758 -0.9368 -1.7540
 1223TIP3    H225305   2.759   6.771   2.237 -1.5913  2.9063  0.4747
 1224TIP3   OH225306   5.139   0.541   6.994  0.4103 -0.1606  0.3931
 1224TIP3    H125307   5.089   0.475   7.043  0.7625 -0.5862  0.1902
 1224TIP3    H225308   5.074   0.608   6.971  0.6348  1.1972  3.3267
 1225TIP3   OH225309   4.055   3.800   7.242  0.4684 -0.2092  0.1763
 1225TIP3    H125310   4.032   3.719   7.287  1.3076 -0.7578 -0.3400
 1225TIP3    H225311   4.019   3.789   7.154 -2.2507  1.3721  0.9701
 1226TIP3   OH225312   3.470   5.700   1.391  0.0417  0.1381  0.4715
 1226TIP3    H125313   3.509   5.762   1.329 -1.4871  0.0257 -0.6756
 1226TIP3    H225314   3.539   5.637   1.409  0.7242  0.5317 -0.6450
 1227TIP3   OH225315   2.663   6.053   6.901  0.2720 -0.4703  0.6643
 1227TIP3    H125316   2.758   6.042   6.902  0.5360  1.3321  0.1307
 1227TIP3    H225317   2.650   6.148   6.895 -1.5658 -0.6892  0.4718
 1228TIP3   OH225318   2.698   2.688   1.327  0.3731  0.1223  0.3917
 1228TIP3    H125319   2.652   2.641   1.397 -0.3424 -0.6379 -0.5740
 1228TIP3    H225320   2.722   2.771   1.368  0.7422 -0.6393  1.8149
 1229TIP3   OH225321   0.253   0.218   8.662  0.8248  0.4467  0.3560
 1229TIP3    H125322   0.302   0.166   8.727 -1.3257 -1.0490  0.8838
 1229TIP3    H225323   0.233   0.156   8.592 -0.3767  0.9723  0.2117
 1230TIP3   OH225324   6.351   0.297   7.696  0.0751 -0.2103 -0.8505
 1230TIP3    H125325   6.286   0.367   7.687 -0.8249 -0.8840  0.1668
 1230TIP3    H225326   6.315   0.239   7.764  1.0418 -1.3934 -1.3103
 1231TIP3   OH225327   3.906   1.779   2.177 -0.0695 -0.0198 -0.2139
 1231TIP3    H125328   3.822   1.750   2.212 -0.1911  0.2926 -0.2467
 1231TIP3    H225329   3.887   1.862   2.134  0.5543  0.8568  1.1455
 1232TIP3   OH225330   6.115   0.375   0.403 -0.1656  0.2848  0.5310
 1232TIP3    H125331   6.027   0.338   0.404 -0.1869  0.3407  0.7798
 1232TIP3    H225332   6.167   0.310   0.356 -0.3557  0.2896  0.3116
 1233TIP3   OH225333   4.169   2.462   8.150  0.5846  0.0569 -0.1703
 1233TIP3    H125334   4.142   2.523   8.219  0.7167 -0.4135  0.3042
 1233TIP3    H225335   4.262   2.481   8.137  0.1551  1.4379 -1.5606
 1234TIP3   OH225336   3.178   3.216   1.467 -0.1177  0.1560 -0.3568
 1234TIP3    H125337   3.200   3.184   1.554 -0.6865  0.7331  0.0145
 1234TIP3    H225338   3.085   3.194   1.456 -0.3549  1.0791 -0.3411
 1235TIP3   OH225339   4.369   5.077   1.226  0.6261  0.1394 -0.4384
 1235TIP3    H125340   4.421   5.156   1.212  0.1786  0.2782 -1.3908
 1235TIP3    H225341   4.433   5.006   1.231  0.9827  0.4683 -0.3146
 1236TIP3   OH225342   5.435   5.548   8.191  0.4234 -0.1796  0.0010
 1236TIP3    H125343   5.366   5.559   8.256 -1.0278 -0.5164 -1.4060
 1236TIP3    H225344   5.421   5.620   8.129  2.2530  0.5876  0.4370
 1237TIP3   OH225345   5.650   0.865   2.350 -0.0241 -0.4379 -0.3834
 1237TIP3    H125346   5.591   0.793   2.326  1.3385 -1.8162  0.1735
 1237TIP3    H225347   5.729   0.821   2.381  0.7318  1.3241  0.3305
 1238TIP3   OH225348   1.860   6.867   7.591 -0.0303 -0.3303 -0.0497
 1238TIP3    H125349   1.934   6.816   7.624  0.1324 -0.4591 -0.6173
 1238TIP3    H225350   1.879   6.957   7.618  1.4633  0.0288 -2.1260
 1239TIP3   OH225351   5.242   2.508   0.042  0.0096 -0.0172  0.4487
 1239TIP3    H125352   5.223   2.415   0.028  1.8504 -0.2448 -0.8838
 1239TIP3    H225353   5.325   2.523  -0.004 -0.4730  2.4033  0.2268
 1240TIP3   OH225354   6.862   5.115   0.385 -0.6160  0.5964  0.3366
 1240TIP3    H125355   6.808   5.186   0.348 -2.1852 -0.0361  1.3058
 1240TIP3    H225356   6.849   5.042   0.325 -0.7487  0.4792  0.5067
 1241TIP3   OH225357   0.691   3.034   7.384 -0.6373 -0.1225 -0.2257
 1241TIP3    H125358   0.641   3.044   7.466 -1.3176  0.2974 -0.6752
 1241TIP3    H225359   0.775   3.075   7.402 -0.4863 -0.7230  0.5077
 1242TIP3   OH225360   0.633   1.566   1.131  0.6530  0.2322  0.3578
 1242TIP3    H125361   0.708   1.507   1.124 -0.7946 -1.6227 -0.3270
 1242TIP3    H225362   0.667   1.652   1.104  2.7643 -0.3123  1.1359
 1243TIP3   OH225363   1.557   2.473   7.963  0.0812 -0.8142  0.2909
 1243TIP3    H125364   1.475   2.523   7.968 -0.6924 -2.0538  0.2424
 1243TIP3    H225365   1.532   2.383   7.981  1.2893 -1.3716 -0.6739
 1244TIP3   OH225366   2.883   5.434   1.546 -0.4001  0.1377  0.1668
 1244TIP3    H125367   2.867   5.470   1.633 -0.7505 -1.7472  0.9320
 1244TIP3    H225368   2.852   5.343   1.551  1.1656 -0.5517 -1.3818
 1245TIP3   OH225369   5.252   4.951   1.354 -0.4275 -0.1383 -0.0866
 1245TIP3    H125370   5.188   5.021   1.338 -0.3287 -0.1163 -0.3876
 1245TIP3    H225371   5.245   4.933   1.448  1.0313  1.7265  0.4434
 1246TIP3   OH225372   2.281   1.655   1.646 -0.7240  0.0626 -0.1652
 1246TIP3    H125373   2.192   1.620   1.647 -0.5727 -0.7005 -3.4212
 1246TIP3    H225374   2.271   1.744   1.614 -0.3291 -0.1324 -0.8578
 1247TIP3   OH225375   5.680   5.704   1.867 -0.1684  0.0575  0.7001
 1247TIP3    H125376   5.710   5.704   1.776  0.0270  1.9192  0.7121
 1247TIP3    H225377   5.755   5.739   1.916 -0.4849 -0.3591  1.4932
 1248TIP3   OH225378   6.076   1.448   0.199  0.0795  0.3838 -0.0005
 1248TIP3    H125379   6.012   1.444   0.270  0.0533  0.5137 -0.0165
 1248TIP3    H225380   6.029   1.491   0.127  0.2285  0.6048  0.0333
 1249TIP3   OH225381   0.078   3.454   1.688  0.1654  0.5706 -0.5954
 1249TIP3    H125382   0.058   3.475   1.597 -0.2447  1.3849 -0.3234
 1249TIP3    H225383   0.110   3.536   1.725  0.7909  0.1238 -0.1284
 1250TIP3   OH225384   0.989   4.947   1.346  0.3350 -0.0787  0.8323
 1250TIP3    H125385   0.966   4.979   1.259  0.5899 -0.1655  0.7309
 1250TIP3    H225386   1.070   4.898   1.332 -0.1217 -0.8885  0.9655
 1251TIP3   OH225387   3.435   3.014   1.492 -0.4232  0.3836  0.1225
 1251TIP3    H125388   3.464   2.955   1.562 -2.1205  0.4454  0.9250
 1251TIP3    H225389   3.515   3.034   1.443  0.4905 -1.1415  0.9161
 1252TIP3   OH225390   5.913   2.153   7.811  0.4181 -0.2171  0.1926
 1252TIP3    H125391   5.849   2.140   7.741  0.0199 -0.1010  0.5315
 1252TIP3    H225392   5.935   2.246   7.807 -1.1791  0.2684  1.5406
 1253TIP3   OH225393   1.142   0.172   7.371  0.3484  0.2780 -0.0542
 1253TIP3    H125394   1.053   0.206   7.365  0.5719  0.8574 -0.0848
 1253TIP3    H225395   1.157   0.129   7.286  0.5571  1.3057 -0.5468
 1254TIP3   OH225396   1.043   2.840   0.735  0.0521 -0.0606 -0.7121
 1254TIP3    H125397   0.980   2.873   0.671  1.0852 -0.3907 -1.9457
 1254TIP3    H225398   1.088   2.917   0.767 -1.0469  0.1934  0.2865
 1255TIP3   OH225399   5.242   2.234   0.043 -0.1588 -0.1285  0.4590
 1255TIP3    H125400   5.146   2.238   0.046 -0.1167  1.2268  0.1901
 1255TIP3    H225401   5.261   2.176  -0.031 -0.7587 -1.1849  1.0944
 1256TIP3   OH225402   6.704   5.127   8.176  0.2528  0.4949 -0.7953
 1256TIP3    H125403   6.744   5.190   8.236 -1.4404  0.1152  0.8694
 1256TIP3    H225404   6.722   5.042   8.216  0.3114  0.1255 -1.6034
 1257TIP3   OH225405   5.633   4.176   0.728  0.1796  0.3622 -0.2243
 1257TIP3    H125406   5.559   4.211   0.779 -0.4266  0.8368 -1.4078
 1257TIP3    H225407   5.592   4.122   0.660  1.0325 -1.4769  0.6281
 1258TIP3   OH225408   6.186   4.271   6.944  0.6775 -0.4448 -0.2703
 1258TIP3    H125409   6.193   4.340   7.009  0.9076 -1.1141  0.4301
 1258TIP3    H225410   6.128   4.307   6.876  0.1661  0.1354  0.4614
 1259TIP3   OH225411   1.557   0.337   1.244  0.5141 -0.2154 -0.5982
 1259TIP3    H125412   1.508   0.327   1.326  1.1438  2.2744  0.1597
 1259TIP3    H225413   1.495   0.313   1.176 -0.7145 -0.2413  0.4841
 1260TIP3   OH225414   4.523   1.066   1.245  0.3744 -0.4962 -0.3632
 1260TIP3    H125415   4.433   1.086   1.220  0.6148  1.3050  0.0399
 1260TIP3    H225416   4.577   1.118   1.185  1.0396  0.6102  1.1138
 1261TIP3   OH225417   3.193   6.179   1.735  0.2292 -0.1293  0.0314
 1261TIP3    H125418   3.285   6.192   1.758  0.2617 -0.5801  0.1495
 1261TIP3    H225419   3.145   6.227   1.802  0.3703 -0.1017  0.1137
 1262TIP3   OH225420   4.536   2.618   0.413  0.0346  0.2061 -0.2013
 1262TIP3    H125421   4.462   2.558   0.410 -0.3708  0.2559  3.6718
 1262TIP3    H225422   4.500   2.698   0.452  1.8638  0.6635  0.6310
 1263TIP3   OH225423   5.811   2.299   0.384 -0.1979 -0.2559 -0.0971
 1263TIP3    H125424   5.810   2.382   0.337 -0.0808 -1.1500 -1.7530
 1263TIP3    H225425   5.900   2.291   0.419  0.8941 -1.1800 -2.8358
 1264TIP3   OH225426   3.578   2.437   7.783  0.3695 -0.1501 -0.2498
 1264TIP3    H125427   3.542   2.373   7.844  0.9196 -0.0202  0.2178
 1264TIP3    H225428   3.659   2.396   7.750 -0.2625 -0.5166 -1.4261
 1265TIP3   OH225429   5.507   4.386   0.171  0.5555 -0.0439 -0.6332
 1265TIP3    H125430   5.548   4.398   0.257  1.6760  0.8137 -1.2662
 1265TIP3    H225431   5.437   4.450   0.169  1.6699  1.2104 -1.0268
 1266TIP3   OH225432   5.503   0.382   8.628 -0.1793 -0.3039 -0.0284
 1266TIP3    H125433   5.547   0.448   8.576 -2.5122  0.3005 -1.3431
 1266TIP3    H225434   5.493   0.422   8.714 -0.7436  0.7072 -0.5497
 1267TIP3   OH225435   5.990   4.445   1.843 -0.2610  0.1817 -0.2447
 1267TIP3    H125436   5.927   4.459   1.914 -0.5872 -0.3996 -0.4112
 1267TIP3    H225437   5.954   4.371   1.794 -0.4328  1.0295 -1.4537
 1268TIP3   OH225438   2.402   6.892   6.111 -0.1781  0.1552  0.1909
 1268TIP3    H125439   2.396   6.809   6.158  2.2440 -0.0578  0.2429
 1268TIP3    H225440   2.404   6.959   6.179 -3.0151  0.4330  0.1367
 1269TIP3   OH225441   1.209   5.787   2.602  0.1443  0.4925  0.3205
 1269TIP3    H125442   1.201   5.720   2.670  0.8742 -0.5522 -0.5996
 1269TIP3    H225443   1.133   5.844   2.615 -0.4164 -0.4323  1.1988
 1270TIP3   OH225444   0.359   6.843   8.130  0.5309  0.8190  0.0157
 1270TIP3    H125445   0.396   6.892   8.057  3.2812 -0.2726  0.5236
 1270TIP3    H225446   0.431   6.838   8.193 -0.5916 -1.3228  1.2250
 1271TIP3   OH225447   4.115   6.098   7.761  0.3451 -0.5491 -0.1925
 1271TIP3    H125448   4.129   6.057   7.676 -1.3204 -0.9184 -0.3158
 1271TIP3    H225449   4.197   6.082   7.809  0.5901 -2.0392 -1.0364
 1272TIP3   OH225450   4.820   4.955   1.215  0.0045  0.0659  0.0848
 1272TIP3    H125451   4.780   5.009   1.147  0.7393  0.3557 -0.1277
 1272TIP3    H225452   4.895   5.006   1.246 -0.1090 -0.2255  0.8578
 1273TIP3   OH225453   1.621   5.928   0.401  0.9478  0.5733 -0.3313
 1273TIP3    H125454   1.622   5.838   0.432 -0.4787  1.5772  3.1373
 1273TIP3    H225455   1.576   5.924   0.316  0.1677 -1.8677  0.1209
 1274TIP3   OH225456   4.730   4.191   7.323 -0.6346 -0.0618  0.6099
 1274TIP3    H125457   4.747   4.201   7.417 -0.6752 -0.5352  0.6683
 1274TIP3    H225458   4.793   4.125   7.294 -1.5297 -0.9275  0.5826
 1275TIP3   OH225459   2.545   4.241   0.247  0.9042 -0.1130 -0.0689
 1275TIP3    H125460   2.611   4.302   0.216 -0.5604  1.4733 -0.1788
 1275TIP3    H225461   2.487   4.294   0.302 -1.2315 -1.0513 -1.2995
 1276TIP3   OH225462   1.482   5.327   8.324 -0.6587 -1.0269 -0.5198
 1276TIP3    H125463   1.417   5.261   8.347 -0.8371 -0.7449 -0.2103
 1276TIP3    H225464   1.463   5.401   8.381 -0.2139 -0.8524 -0.5915
 1277TIP3   OH225465   6.443   0.109   7.107 -0.1060 -0.0603  0.2215
 1277TIP3    H125466   6.519   0.061   7.076  1.9895  2.6417  0.8485
 1277TIP3    H225467   6.421   0.067   7.190 -0.9748 -2.4532 -1.1246
 1278TIP3   OH225468   6.112   5.633   8.283 -0.0094 -0.0842 -0.2149
 1278TIP3    H125469   6.140   5.545   8.309 -1.2991 -0.9550 -1.6027
 1278TIP3    H225470   6.040   5.654   8.343  1.4540  0.8580  1.3181
 1279TIP3   OH225471   1.779   6.178   2.602 -0.6241  0.0802  0.2161
 1279TIP3    H125472   1.818   6.234   2.535 -0.6170  1.5776  1.4194
 1279TIP3    H225473   1.852   6.125   2.634 -0.2241  0.6593  0.2921
 1280TIP3   OH225474   0.430   2.056   7.857  0.0150  0.3879  0.6902
 1280TIP3    H125475   0.393   1.994   7.794 -1.6992  0.3124  1.7310
 1280TIP3    H225476   0.372   2.131   7.855  0.5524  0.8373  1.4040
 1281TIP3   OH225477   5.338   4.655   7.500 -0.2527 -0.6340  0.2239
 1281TIP3    H125478   5.374   4.622   7.418 -0.5533  0.6380 -0.4381
 1281TIP3    H225479   5.262   4.598   7.517 -0.4397 -0.6391 -0.5984
 1282TIP3   OH225480   0.543   6.742   7.448  0.4013  0.3575 -0.3090
 1282TIP3    H125481   0.525   6.755   7.355 -0.8565  0.0342 -0.1275
 1282TIP3    H225482   0.603   6.667   7.450  0.1476  0.1342 -0.8335
 1283TIP3   OH225483   4.826   4.793   0.643  0.0723 -0.6588  0.2301
 1283TIP3    H125484   4.836   4.701   0.618  1.4083 -0.7910  1.1429
 1283TIP3    H225485   4.842   4.794   0.738 -0.0398  0.5031  0.2500
 1284TIP3   OH225486   2.019   1.704   7.742 -0.2453 -0.1570  0.0111
 1284TIP3    H125487   2.005   1.614   7.772 -2.9585  0.5598  1.2285
 1284TIP3    H225488   2.058   1.748   7.817 -1.2323  0.2159  0.3208
 1285TIP3   OH225489   4.496   0.421   8.496 -0.3191 -0.3544 -0.0804
 1285TIP3    H125490   4.557   0.489   8.527  2.1839 -2.6757  0.4347
 1285TIP3    H225491   4.537   0.386   8.418 -1.5919 -1.2759 -0.3593
 1286TIP3   OH225492   1.284   5.779   0.383  0.0227  0.2234  0.3553
 1286TIP3    H125493   1.251   5.869   0.386  0.5884  0.4540 -0.1154
 1286TIP3    H225494   1.334   5.768   0.464  0.9664  0.7396 -0.1466
 1287TIP3   OH225495   6.514   6.790   7.374 -0.1631  0.4683 -0.2010
 1287TIP3    H125496   6.588   6.764   7.319 -1.2548  0.6150 -1.8329
 1287TIP3    H225497   6.548   6.861   7.428  1.2063 -0.2955 -0.0093
 1288TIP3   OH225498   3.906   0.765   8.647 -0.4885 -0.5639  0.4526
 1288TIP3    H125499   3.870   0.713   8.719  0.4551  0.5497  1.7880
 1288TIP3    H225500   3.906   0.855   8.681 -0.4721  0.0693 -1.1436
 1289TIP3   OH225501   3.740   6.422   7.116  0.2021 -0.5370 -0.1352
 1289TIP3    H125502   3.698   6.478   7.181  0.0705  0.4088 -1.0209
 1289TIP3    H225503   3.764   6.343   7.165 -0.8219 -0.2782  0.8259
 1290TIP3   OH225504   2.936   5.579   0.180  0.4184  0.2233 -1.0661
 1290TIP3    H125505   2.855   5.530   0.170  1.3287 -1.2162 -1.5634
 1290TIP3    H225506   2.918   5.640   0.252 -0.6769 -0.9778 -0.2790
 1291TIP3   OH225507   0.615   0.800   8.158 -0.4569 -0.1452 -0.4399
 1291TIP3    H125508   0.613   0.774   8.066 -1.8691 -0.7188 -0.2800
 1291TIP3    H225509   0.680   0.742   8.198 -2.2483 -2.3004 -0.4473
 1292TIP3   OH225510   0.369   4.638   1.882 -0.3498 -0.5994  0.2182
 1292TIP3    H125511   0.354   4.559   1.830 -0.6961 -0.4350  0.0665
 1292TIP3    H225512   0.451   4.621   1.928 -0.5237 -1.1289  0.3373
 1293TIP3   OH225513   3.810   5.199   0.370  0.4122  0.5426 -0.3087
 1293TIP3    H125514   3.823   5.115   0.413  1.6756  1.1214  0.4894
 1293TIP3    H225515   3.887   5.210   0.314 -0.0227  0.9205 -0.8520
 1294TIP3   OH225516   2.582   1.187   1.227  0.0797 -0.4948  0.3862
 1294TIP3    H125517   2.677   1.175   1.220  0.1254  0.4938 -1.1384
 1294TIP3    H225518   2.571   1.280   1.247 -0.5893 -0.3949 -0.4020
 1295TIP3   OH225519   3.678   5.538   1.551  0.4965 -0.3771 -0.1670
 1295TIP3    H125520   3.719   5.452   1.542  1.4086 -0.2323  1.8601
 1295TIP3    H225521   3.588   5.520   1.576  1.1056 -0.8232  1.8901
 1296TIP3   OH225522   3.207   5.874   7.891  0.1253 -0.1957 -0.6537
 1296TIP3    H125523   3.292   5.917   7.895 -0.5059  1.1542 -1.2281
 1296TIP3    H225524   3.185   5.856   7.982  1.6165 -1.8507 -0.5532
 1297TIP3   OH225525   6.050   1.802   0.014  0.3619  0.6718 -0.2073
 1297TIP3    H125526   5.976   1.864   0.016  0.2362  0.5250 -0.2728
 1297TIP3    H225527   6.101   1.823   0.092  0.3592  0.9071 -0.2667
 1298TIP3   OH225528   0.770   0.802   8.447 -0.0192 -0.0196 -0.1529
 1298TIP3    H125529   0.757   0.825   8.539  0.1036 -1.6325  0.3010
 1298TIP3    H225530   0.684   0.774   8.416  0.0525  0.0013 -0.3749
 1299TIP3   OH225531   2.032   6.835   6.935  0.0952  0.7046  0.0703
 1299TIP3    H125532   2.007   6.836   7.028  0.5321 -0.1161  0.2068
 1299TIP3    H225533   2.119   6.795   6.935 -0.1040  0.2570 -0.7386
 1300TIP3   OH225534   0.924   4.209   1.902  0.1575  0.5033  0.5789
 1300TIP3    H125535   0.871   4.145   1.949  1.5299 -0.7317  0.5263
 1300TIP3    H225536   1.010   4.168   1.895  0.2874  1.0378 -2.1460
 1301TIP3   OH225537   0.829   3.277   0.761 -0.3296  0.7058 -0.5088
 1301TIP3    H125538   0.871   3.191   0.760 -0.3833  0.6760 -1.3764
 1301TIP3    H225539   0.751   3.265   0.816  0.9786  0.8713  1.4679
 1302TIP3   OH225540   1.095   1.309   7.218  0.0111  0.7574  0.0014
 1302TIP3    H125541   1.051   1.394   7.215 -0.8656  0.3334  0.4888
 1302TIP3    H225542   1.063   1.262   7.142 -0.8206  0.2490  0.6466
 1303TIP3   OH225543   6.329   5.864   7.933  1.0672  0.4418  0.0445
 1303TIP3    H125544   6.386   5.877   8.009  0.5359 -1.6525  0.8483
 1303TIP3    H225545   6.248   5.828   7.968  1.0525 -1.2465 -1.5243
 1304TIP3   OH225546   0.623   1.873   7.346  0.3937  0.1639  0.3795
 1304TIP3    H125547   0.544   1.825   7.372  0.5225 -0.3069 -0.0911
 1304TIP3    H225548   0.676   1.877   7.426  0.4433 -0.5997  0.3939
 1305TIP3   OH225549   4.580   4.124   0.069 -0.0146  0.1817 -0.2926
 1305TIP3    H125550   4.603   4.033   0.091  0.0968 -0.3981 -2.4961
 1305TIP3    H225551   4.606   4.175   0.145  2.5016 -1.2942 -0.0474
 1306TIP3   OH225552   3.050   1.235   6.969 -0.8524 -0.1800 -0.8058
 1306TIP3    H125553   3.109   1.167   7.001 -2.0215 -0.0818  1.8701
 1306TIP3    H225554   3.041   1.218   6.875 -0.0883 -2.9278 -0.4594
 1307TIP3   OH225555   5.647   5.570   8.615 -0.0055  0.3098  0.0375
 1307TIP3    H125556   5.664   5.660   8.588  0.3457  0.1297 -0.3581
 1307TIP3    H225557   5.568   5.546   8.566 -0.3828  0.5548  0.5101
 1308TIP3   OH225558   4.770   2.057   1.607 -0.0908  0.2134  0.1003
 1308TIP3    H125559   4.691   2.103   1.636 -0.5240  0.5437 -1.5136
 1308TIP3    H225560   4.842   2.106   1.647 -0.6614  0.1583  1.2560
 1309TIP3   OH225561   2.680   4.383   1.432  0.3107 -0.0225  0.0098
 1309TIP3    H125562   2.671   4.326   1.356 -2.2798  0.7529 -0.3634
 1309TIP3    H225563   2.610   4.355   1.492  1.5214  0.1917  1.5985
 1310TIP3   OH225564   2.205   2.431   8.122 -0.2169  0.0371 -0.0872
 1310TIP3    H125565   2.134   2.437   8.185 -1.0792 -1.1349 -0.9045
 1310TIP3    H225566   2.162   2.432   8.036  0.8259  0.3459 -0.6272
 1311TIP3   OH225567   2.463   4.268   1.053  0.2173 -0.1081  0.4215
 1311TIP3    H125568   2.501   4.354   1.040  0.7105 -0.4017 -0.1687
 1311TIP3    H225569   2.485   4.220   0.973  0.5894 -1.0108  1.0500
 1312TIP3   OH225570   6.055   5.712   6.037  0.3635  0.1321  0.0074
 1312TIP3    H125571   6.125   5.687   6.098  0.2002  2.2457  1.1899
 1312TIP3    H225572   6.087   5.792   5.996 -0.9032  0.5346 -0.2444
 1313TIP3   OH225573   2.446   4.332   0.480 -0.4968  0.1273 -0.0217
 1313TIP3    H125574   2.426   4.394   0.550 -0.6438 -0.2691  0.2912
 1313TIP3    H225575   2.371   4.273   0.478 -1.0787  0.8775 -1.3541
 1314TIP3   OH225576   3.822   5.262   7.855  0.0265  0.0335  0.3605
 1314TIP3    H125577   3.802   5.296   7.942 -1.8261  0.2371 -0.0882
 1314TIP3    H225578   3.778   5.176   7.853  2.0355 -1.0608  0.4027
 1315TIP3   OH225579   3.200   0.049   8.224 -0.6132  0.3051  0.0712
 1315TIP3    H125580   3.179   0.099   8.145  1.3910  1.2215  0.0515
 1315TIP3    H225581   3.220   0.116   8.289  3.1623 -0.3150 -0.2364
 1316TIP3   OH225582   6.034   6.175   8.509 -0.0913  0.4060  0.2425
 1316TIP3    H125583   6.001   6.264   8.520  1.3278  0.9958 -0.0049
 1316TIP3    H225584   6.037   6.140   8.598 -0.6758  0.5923  0.3413
 1317TIP3   OH225585   0.390   1.751   2.017 -0.1910  0.1338  0.0684
 1317TIP3    H125586   0.458   1.815   1.996  1.0570 -1.3105 -0.4886
 1317TIP3    H225587   0.311   1.803   2.028  1.0009  1.8828  0.8125
 1318TIP3   OH225588   4.721   6.636   7.446  0.0893 -0.3440 -0.0479
 1318TIP3    H125589   4.648   6.675   7.397 -0.5543 -1.0374  0.3472
 1318TIP3    H225590   4.697   6.648   7.538  0.3277 -0.8555  0.0815
 1319TIP3   OH225591   5.353   6.823   7.645 -0.2087  0.3945  0.4630
 1319TIP3    H125592   5.282   6.779   7.692  0.3587 -0.3590  0.6343
 1319TIP3    H225593   5.388   6.756   7.586 -0.5751  1.1789 -0.6752
 1320TIP3   OH225594   1.766   2.105   1.119  0.3708  0.1211 -0.3528
 1320TIP3    H125595   1.853   2.113   1.158  0.4782  1.2963 -0.8078
 1320TIP3    H225596   1.727   2.192   1.127 -0.5902 -0.2726 -0.5632
 1321TIP3   OH225597   2.899   0.195   1.336 -0.4462  0.3441 -0.3575
 1321TIP3    H125598   2.960   0.136   1.291 -0.5092 -1.2312  1.5139
 1321TIP3    H225599   2.954   0.269   1.363  0.6938 -0.9812  1.1703
 1322TIP3   OH225600   3.726   1.307   6.948 -0.3989  0.0902  0.6537
 1322TIP3    H125601   3.814   1.300   6.909 -0.0194  0.0966  1.4869
 1322TIP3    H225602   3.733   1.380   7.009 -0.9618  0.0269  0.7936
 1323TIP3   OH225603   5.699   1.842   7.781  0.0940 -0.1567  0.0331
 1323TIP3    H125604   5.653   1.772   7.733  2.3821 -2.1237  0.5240
 1323TIP3    H225605   5.736   1.897   7.713 -0.1295 -0.5322 -0.4040
 1324TIP3   OH225606   4.343   5.170   1.860 -0.0559  0.4340 -0.1690
 1324TIP3    H125607   4.376   5.111   1.928 -1.1150 -0.9781 -0.8541
 1324TIP3    H225608   4.258   5.200   1.893 -0.3378  0.1521 -0.6392
 1325TIP3   OH225609   3.924   3.278   1.827 -0.1852  0.4060  0.4659
 1325TIP3    H125610   3.838   3.314   1.803 -0.0191  0.3512 -0.2562
 1325TIP3    H225611   3.919   3.264   1.921 -1.3128 -0.4878  0.2959
 1326TIP3   OH225612   2.229   6.134   7.348  0.2589  0.6342  0.0010
 1326TIP3    H125613   2.313   6.090   7.342  0.5197  1.0224  0.6860
 1326TIP3    H225614   2.211   6.141   7.442  0.5961  2.6579 -0.0230
 1327TIP3   OH225615   2.745   2.463   0.112  0.3561 -0.0762  0.3390
 1327TIP3    H125616   2.744   2.542   0.166  1.9554  0.4058 -0.2905
 1327TIP3    H225617   2.827   2.419   0.134  1.6149  0.6877 -2.3691
 1328TIP3   OH225618   2.605   2.371   0.989 -0.3403  0.1189 -0.1563
 1328TIP3    H125619   2.542   2.336   0.926  1.4884 -0.2941 -1.8543
 1328TIP3    H225620   2.659   2.296   1.013 -0.1440  0.5712  0.8760
 1329TIP3   OH225621   3.498   4.863   7.817 -0.6028 -0.1664  0.3487
 1329TIP3    H125622   3.466   4.796   7.756  0.0777 -0.9791  0.8538
 1329TIP3    H225623   3.534   4.813   7.890  0.6048  0.7287  0.4049
 1330TIP3   OH225624   1.529   5.667   8.172  0.0907  0.2677 -0.2298
 1330TIP3    H125625   1.528   5.734   8.240 -0.5106 -0.0380  0.0765
 1330TIP3    H225626   1.588   5.600   8.204 -0.7079 -0.1922  0.3207
 1331TIP3   OH225627   0.061   4.997   7.632 -0.4274 -0.0592 -0.2477
 1331TIP3    H125628   0.147   5.036   7.643 -0.6901 -0.0027  2.2313
 1331TIP3    H225629   0.007   5.067   7.595  0.4351  0.0681 -1.3033
 1332TIP3   OH225630   1.940   2.006   1.845  0.4277 -0.0807 -0.9567
 1332TIP3    H125631   1.978   1.925   1.880 -0.1523  0.6634  1.6746
 1332TIP3    H225632   1.905   2.050   1.923 -2.9988  0.7392 -2.8017
 1333TIP3   OH225633   4.498   2.409   6.213 -0.4057  0.0607  0.6462
 1333TIP3    H125634   4.572   2.466   6.191 -0.3627 -0.6928 -1.3077
 1333TIP3    H225635   4.536   2.322   6.219 -0.7973 -0.0536  1.8122
 1334TIP3   OH225636   1.729   4.465   7.424 -0.0577  0.7908 -0.0040
 1334TIP3    H125637   1.659   4.495   7.366 -0.5496 -0.8326 -0.2871
 1334TIP3    H225638   1.687   4.399   7.479  1.3850 -0.7350 -0.6552
 1335TIP3   OH225639   2.171   6.717   1.219  0.5512 -0.2286  0.1788
 1335TIP3    H125640   2.111   6.788   1.241 -0.6337 -1.0634 -0.2336
 1335TIP3    H225641   2.135   6.640   1.263  0.3256 -1.1047 -1.4216
 1336TIP3   OH225642   4.876   5.497   8.419  0.2103 -0.0928 -0.2160
 1336TIP3    H125643   4.875   5.588   8.446 -0.8132 -0.4603  1.1212
 1336TIP3    H225644   4.806   5.456   8.470  1.2778 -1.8228 -0.0293
 1337TIP3   OH225645   0.464   6.047   7.246 -0.0549  0.6028  0.0851
 1337TIP3    H125646   0.475   6.126   7.297 -3.1133  1.0815  0.1840
 1337TIP3    H225647   0.393   5.999   7.290  0.9554 -1.6829 -0.5960
 1338TIP3   OH225648   0.885   2.979   0.571 -0.0472 -0.0198  0.1618
 1338TIP3    H125649   0.881   3.045   0.502 -1.5586  0.3985  0.6014
 1338TIP3    H225650   0.800   2.985   0.614  0.1828 -1.5463  0.8883
 1339TIP3   OH225651   2.425   0.822   6.383  0.2508 -0.0797  0.0123
 1339TIP3    H125652   2.514   0.796   6.361  0.0916 -3.2160  2.3682
 1339TIP3    H225653   2.373   0.795   6.307  1.0896  0.2924 -0.7105
 1340TIP3   OH225654   2.407   3.186   0.258  0.0987  0.0586 -0.2491
 1340TIP3    H125655   2.360   3.112   0.219  2.3744 -2.0028  0.5667
 1340TIP3    H225656   2.376   3.189   0.348 -0.1508  0.2505 -0.3405
 1341TIP3   OH225657   6.196   1.940   0.281 -0.0840 -0.8028  0.1545
 1341TIP3    H125658   6.237   1.918   0.365 -1.1575  0.8625  1.1793
 1341TIP3    H225659   6.253   1.900   0.215  1.9766 -0.3982  1.5819
 1342TIP3   OH225660   3.293   2.772   7.328  0.3439 -0.4977  0.0229
 1342TIP3    H125661   3.358   2.703   7.314  1.4867  0.4190  0.6143
 1342TIP3    H225662   3.345   2.852   7.337 -0.9125  0.3576 -0.0616
 1343TIP3   OH225663   4.337   5.723   1.055  0.8211  0.6901  0.0141
 1343TIP3    H125664   4.400   5.721   0.983 -1.6259 -1.1395 -2.2402
 1343TIP3    H225665   4.327   5.816   1.076  0.7837  1.4113 -2.8450
 1344TIP3   OH225666   4.047   4.620   0.963 -0.0311 -0.6977 -0.8136
 1344TIP3    H125667   4.116   4.564   0.927  0.6228 -0.3369 -0.1408
 1344TIP3    H225668   3.972   4.606   0.905  0.3005 -1.8277 -0.9890
 1345TIP3   OH225669   4.140   5.373   0.863  0.3242 -0.1782 -0.1330
 1345TIP3    H125670   4.054   5.392   0.826 -0.1393 -1.0021  0.4841
 1345TIP3    H225671   4.191   5.452   0.846 -0.4149  0.1512 -0.9039
 1346TIP3   OH225672   5.975   0.747   6.384  0.6182 -0.1636 -0.1153
 1346TIP3    H125673   6.046   0.787   6.434 -0.2533 -0.4327  1.4179
 1346TIP3    H225674   5.899   0.751   6.443 -0.7697  0.5357 -1.8695
 1347TIP3   OH225675   3.696   5.938   7.603 -0.3616 -0.2812 -0.0426
 1347TIP3    H125676   3.695   5.887   7.684  2.4457 -1.8205 -0.8601
 1347TIP3    H225677   3.754   6.012   7.622  1.9479 -1.7160 -1.1269
 1348TIP3   OH225678   2.105   4.492   7.680  0.5777 -0.7553 -0.4426
 1348TIP3    H125679   2.141   4.512   7.766 -1.4943 -3.1938  1.1541
 1348TIP3    H225680   2.014   4.522   7.685  0.2584 -1.4938 -1.5356
 1349TIP3   OH225681   1.671   4.738   1.250  0.0137  0.2176 -0.7613
 1349TIP3    H125682   1.586   4.782   1.249  0.1075  0.5283  1.2002
 1349TIP3    H225683   1.733   4.806   1.275  0.6991 -0.2389 -1.1884
 1350TIP3   OH225684   3.375   6.114   7.247 -0.4293 -0.6290 -0.1551
 1350TIP3    H125685   3.397   6.021   7.253  0.0816 -0.5379 -0.5201
 1350TIP3    H225686   3.388   6.136   7.154 -0.5053 -0.1828 -0.0649
 1351TIP3   OH225687   1.387   1.216   8.618  0.2166 -0.3290  0.2837
 1351TIP3    H125688   1.477   1.197   8.644  1.5157  0.8960 -2.8442
 1351TIP3    H225689   1.337   1.140   8.649  2.9413 -2.7741 -0.7966
 1352TIP3   OH225690   6.096   5.804   1.251  0.8247 -0.2463 -0.0817
 1352TIP3    H125691   6.161   5.830   1.185  1.7969  0.8568  1.2476
 1352TIP3    H225692   6.039   5.880   1.259  0.9336 -0.2357  0.6009
 1353TIP3   OH225693   2.655   3.811   0.331  0.0391 -0.0400  0.6784
 1353TIP3    H125694   2.675   3.872   0.260 -0.4455 -0.6150  0.0356
 1353TIP3    H225695   2.738   3.767   0.350  0.1509  0.0544  0.4082
 1354TIP3   OH225696   3.689   6.456   0.488 -0.5124  0.2418  0.5322
 1354TIP3    H125697   3.702   6.417   0.401  0.1168  0.8956  0.3230
 1354TIP3    H225698   3.777   6.484   0.515 -0.8358  0.8138  1.0093
 1355TIP3   OH225699   1.111   6.264   8.561 -0.5049  0.3265  0.8583
 1355TIP3    H125700   1.120   6.239   8.653 -0.6750  1.1110  1.0979
 1355TIP3    H225701   1.177   6.332   8.549 -1.8409  1.6974  0.9628
 1356TIP3   OH225702   0.519   3.821   8.553 -0.0528 -0.3492  0.1605
 1356TIP3    H125703   0.597   3.824   8.608 -1.1730  0.1333  1.7988
 1356TIP3    H225704   0.480   3.908   8.563 -0.4145 -0.3337 -1.2341
 1357TIP3   OH225705   5.089   4.128   6.906 -0.6404  0.2660 -0.3064
 1357TIP3    H125706   5.136   4.055   6.865  0.6353  0.4043  0.8648
 1357TIP3    H225707   4.998   4.097   6.911 -0.0721 -1.4189  0.4816
 1358TIP3   OH225708   5.363   5.852   8.174  0.0456 -0.0548 -0.5449
 1358TIP3    H125709   5.322   5.937   8.193  1.9609  0.9269 -0.5376
 1358TIP3    H225710   5.371   5.810   8.259 -0.5878 -0.1079 -0.5035
 1359TIP3   OH225711   5.172   6.610   8.416  0.2648  0.2366  0.0779
 1359TIP3    H125712   5.165   6.691   8.466  0.4721  1.1269 -1.2713
 1359TIP3    H225713   5.083   6.577   8.412 -0.1653  1.4224 -0.9382
 1360TIP3   OH225714   2.806   0.837   7.516  1.0932 -0.0324  0.2844
 1360TIP3    H125715   2.866   0.903   7.483  0.4406  0.9981  1.0980
 1360TIP3    H225716   2.721   0.881   7.518  0.7093 -0.7838  1.1800
 1361TIP3   OH225717   3.743   1.681   1.582  0.2026  0.0304 -0.0046
 1361TIP3    H125718   3.773   1.710   1.668  2.4162  0.2242 -0.7787
 1361TIP3    H225719   3.675   1.616   1.601  1.1256 -0.4527  1.9115
 1362TIP3   OH225720   6.188   6.768   7.199  0.0594  0.2912  0.6258
 1362TIP3    H125721   6.201   6.815   7.117  2.6110 -1.0793  0.1437
 1362TIP3    H225722   6.100   6.730   7.192 -0.7538  2.2327 -0.3277
 1363TIP3   OH225723   4.069   4.274   0.710 -0.0737 -0.6827 -0.2977
 1363TIP3    H125724   4.068   4.179   0.708 -0.7851 -0.7176  0.9770
 1363TIP3    H225725   3.980   4.300   0.687  0.5211 -0.2420 -2.3430
 1364TIP3   OH225726   6.367   3.523   7.533 -0.7752  0.0782 -0.1384
 1364TIP3    H125727   6.321   3.452   7.577 -2.6444  0.7687 -0.8920
 1364TIP3    H225728   6.391   3.583   7.604 -0.1614 -0.7485  0.3694
 1365TIP3   OH225729   0.430   2.713   1.217  0.2086  0.1038  0.2086
 1365TIP3    H125730   0.360   2.777   1.211  0.0879 -0.1068 -0.7938
 1365TIP3    H225731   0.387   2.628   1.204  0.5357 -0.0859  0.3504
 1366TIP3   OH225732   6.801   5.707   1.809 -0.0415  0.2630  0.1338
 1366TIP3    H125733   6.860   5.655   1.863  0.4213 -0.5793 -1.1483
 1366TIP3    H225734   6.724   5.652   1.796  0.2050  0.1198 -0.7525
 1367TIP3   OH225735   4.769   5.529   1.612  0.5623 -0.1463  0.4258
 1367TIP3    H125736   4.758   5.435   1.623 -0.5373 -0.2059 -0.8672
 1367TIP3    H225737   4.684   5.566   1.635  0.5859  0.3924 -0.3054
 1368TIP3   OH225738   5.384   0.425   7.038 -0.1016  0.2123 -0.3140
 1368TIP3    H125739   5.301   0.466   7.012 -0.0724  1.6662  1.6559
 1368TIP3    H225740   5.408   0.470   7.119  0.7868 -2.6504  1.1312
 1369TIP3   OH225741   3.000   1.561   8.245  0.0944  0.8932 -0.5176
 1369TIP3    H125742   3.071   1.514   8.289 -2.8117 -0.5652  3.1299
 1369TIP3    H225743   3.018   1.653   8.263  0.2530  0.4541  1.9487
 1370TIP3   OH225744   5.930   3.292   0.978 -0.0625 -0.5416 -0.9186
 1370TIP3    H125745   6.010   3.277   0.927 -0.6354  0.9937 -2.3934
 1370TIP3    H225746   5.886   3.364   0.932 -1.5878 -0.3806  0.6839
 1371TIP3   OH225747   5.051   3.805   8.251 -0.0939 -0.4578 -0.2718
 1371TIP3    H125748   5.042   3.724   8.300 -1.2024 -2.1924 -3.1085
 1371TIP3    H225749   5.054   3.873   8.318 -0.0300 -2.7371  2.1957
 1372TIP3   OH225750   6.544   1.906   1.596  0.3774 -0.1020 -0.1267
 1372TIP3    H125751   6.515   1.939   1.681 -0.5297 -1.7715  0.2598
 1372TIP3    H225752   6.578   1.818   1.615 -1.0721 -1.0395 -1.6512
 1373TIP3   OH225753   5.642   4.433   7.933  0.2637 -0.0456  0.3205
 1373TIP3    H125754   5.595   4.490   7.872 -0.2897  1.9984  2.5004
 1373TIP3    H225755   5.675   4.492   8.001  3.3746 -1.8187  0.5368
 1374TIP3   OH225756   0.732   0.224   7.940  0.2659  0.2819 -0.2973
 1374TIP3    H125757   0.644   0.188   7.945  0.1946 -0.2420 -3.4185
 1374TIP3    H225758   0.778   0.166   7.879  1.5683  2.7443 -1.8183
 1375TIP3   OH225759   3.799   2.956   7.474  0.4999  0.2620 -0.9735
 1375TIP3    H125760   3.881   3.004   7.486 -0.4762  1.7829 -0.0279
 1375TIP3    H225761   3.758   2.998   7.398 -0.8635  1.7885  0.5080
 1376TIP3   OH225762   2.813   1.793   1.307 -0.3210 -0.2408  0.1041
 1376TIP3    H125763   2.867   1.872   1.317 -0.3816 -0.0316 -1.0632
 1376TIP3    H225764   2.728   1.818   1.343 -1.2667  1.2832 -2.9070
 1377TIP3   OH225765   4.954   0.757   6.991  0.1334  0.5556  0.4789
 1377TIP3    H125766   4.933   0.802   6.909 -2.0036 -0.2881  0.4866
 1377TIP3    H225767   4.907   0.806   7.058  1.4388  0.9258  1.1551
 1378TIP3   OH225768   2.925   6.421   8.095  0.3096 -0.2004  0.0147
 1378TIP3    H125769   2.891   6.496   8.143  0.2178 -1.8764  2.8136
 1378TIP3    H225770   2.853   6.359   8.092  1.4005 -1.6259  1.1803
 1379TIP3   OH225771   3.325   2.713   6.493  0.0029 -0.2194  0.1985
 1379TIP3    H125772   3.263   2.783   6.473 -0.5166 -0.8553 -0.4294
 1379TIP3    H225773   3.276   2.632   6.480  0.8407 -0.7224  0.0931
 1380TIP3   OH225774   4.562   4.515   1.912  0.3013 -0.3090 -0.0408
 1380TIP3    H125775   4.559   4.432   1.960  0.0628 -0.8434 -0.9518
 1380TIP3    H225776   4.640   4.559   1.946  0.3714 -0.8568  0.5284
 1381TIP3   OH225777   2.276   4.300   1.769  0.1779  0.8563 -0.6288
 1381TIP3    H125778   2.252   4.380   1.721  0.6688  1.2368 -0.2532
 1381TIP3    H225779   2.195   4.272   1.811  0.2378  1.8034  0.1588
 1382TIP3   OH225780   1.993   1.978   7.111  0.1507  0.4992  0.1115
 1382TIP3    H125781   1.904   1.986   7.076  0.5036  0.3781 -0.8322
 1382TIP3    H225782   1.981   1.969   7.205 -0.9184 -0.8173 -0.1184
 1383TIP3   OH225783   2.291   6.851   2.589  0.0766 -0.3347  1.2005
 1383TIP3    H125784   2.349   6.806   2.528  0.2896 -0.2312  1.3241
 1383TIP3    H225785   2.202   6.830   2.559  0.1119  2.3343 -1.1615
 1384TIP3   OH225786   3.702   4.202   7.764  0.0155  0.5162  0.1577
 1384TIP3    H125787   3.699   4.159   7.678  0.7680 -0.1252  0.4320
 1384TIP3    H225788   3.766   4.273   7.753  0.1671  0.3879  0.2004
 1385TIP3   OH225789   1.953   6.771   0.957 -0.2471 -0.0159 -0.0827
 1385TIP3    H125790   2.019   6.801   1.019  0.3443 -1.3044 -0.0617
 1385TIP3    H225791   1.969   6.823   0.878  0.7386 -0.2329 -0.0444
 1386TIP3   OH225792   5.581   0.431   6.751 -0.0885 -0.3623  0.4470
 1386TIP3    H125793   5.671   0.463   6.759 -0.4261  0.5179  0.8016
 1386TIP3    H225794   5.551   0.422   6.841 -0.7576  0.5153  0.3168
 1387TIP3   OH225795   2.586   0.806   0.683  0.2132  0.0976 -0.1498
 1387TIP3    H125796   2.567   0.896   0.711 -3.7018 -1.0766  1.6866
 1387TIP3    H225797   2.537   0.795   0.602 -0.4699 -0.7252  0.3581
 1388TIP3   OH225798   0.776   5.806   1.220  0.2035  0.3872 -0.2575
 1388TIP3    H125799   0.725   5.858   1.282 -1.5023  1.6241 -2.5551
 1388TIP3    H225800   0.721   5.729   1.202 -0.8124  1.5656 -2.4988
 1389TIP3   OH225801   4.803   1.755   1.634 -0.6545 -0.0396  0.2308
 1389TIP3    H125802   4.790   1.849   1.617 -0.2517 -0.2258 -1.2648
 1389TIP3    H225803   4.884   1.751   1.685  0.4189  0.3374 -1.3713
 1390TIP3   OH225804   2.142   0.943   8.045 -0.2098 -0.3277 -0.1193
 1390TIP3    H125805   2.056   0.982   8.062 -0.0166  0.5463 -1.0559
 1390TIP3    H225806   2.203   0.999   8.092  0.0713  0.5664 -1.4922
 1391TIP3   OH225807   1.448   1.462   8.072 -0.1408  0.3986 -0.2454
 1391TIP3    H125808   1.460   1.511   8.153 -0.5566  0.9830 -0.5345
 1391TIP3    H225809   1.530   1.473   8.024  0.0642  0.1427  0.0457
 1392TIP3   OH225810   3.373   1.682   6.518 -0.5783  0.1430  0.0292
 1392TIP3    H125811   3.464   1.653   6.509  0.1628  2.7644 -2.7153
 1392TIP3    H225812   3.379   1.778   6.517 -3.4085  0.4032 -1.1381
 1393TIP3   OH225813   2.122   1.525   6.051  0.1337  0.1048 -0.2357
 1393TIP3    H125814   2.096   1.596   5.991 -1.7440  1.2067  1.7226
 1393TIP3    H225815   2.041   1.474   6.063  0.5154 -0.2182  1.1400
 1394TIP3   OH225816   4.372   2.769   6.187 -0.5429 -0.4100  0.0376
 1394TIP3    H125817   4.419   2.732   6.112 -1.6515 -1.4763 -0.1601
 1394TIP3    H225818   4.404   2.859   6.193  1.4886 -1.0768 -0.0854
 1395TIP3   OH225819   2.091   0.121   1.099  0.0138  0.1743  0.7093
 1395TIP3    H125820   2.163   0.136   1.038  0.4500  1.8802  1.5895
 1395TIP3    H225821   2.118   0.166   1.180 -2.0507  0.9570  1.0235
 1396TIP3   OH225822   4.276   0.222   8.496  0.6098 -0.2061 -0.1460
 1396TIP3    H125823   4.206   0.282   8.471 -0.1727 -0.1887  1.8897
 1396TIP3    H225824   4.347   0.278   8.526  1.9923 -0.1792 -3.1004
 1397TIP3   OH225825   1.079   2.554   7.000  0.2707  0.3975 -0.1973
 1397TIP3    H125826   1.129   2.538   6.920  0.6684 -0.5833  0.2419
 1397TIP3    H225827   1.000   2.501   6.991  1.1158 -1.0914  0.8045
 1398TIP3   OH225828   6.336   2.821   0.773 -0.6319  0.1731 -0.2314
 1398TIP3    H125829   6.306   2.883   0.707 -1.9264 -0.7269 -0.5420
 1398TIP3    H225830   6.420   2.789   0.739 -1.0519  0.0772 -1.2122
 1399TIP3   OH225831   0.946   3.806   7.480 -0.0185  0.5993 -0.0205
 1399TIP3    H125832   0.974   3.784   7.569  1.0326  0.0481 -0.4653
 1399TIP3    H225833   1.005   3.755   7.424 -0.1798  1.5137 -1.0418
 1400TIP3   OH225834   1.567   1.306   7.424  0.7582 -0.5374  0.0026
 1400TIP3    H125835   1.613   1.381   7.384  0.9266 -0.0178  1.1279
 1400TIP3    H225836   1.485   1.300   7.375  1.8624 -1.3032 -1.8628
 1401TIP3   OH225837   0.242   2.958   6.875  1.0382  0.2633  0.5886
 1401TIP3    H125838   0.149   2.980   6.864  1.4574  1.4156 -0.9345
 1401TIP3    H225839   0.255   2.881   6.820  0.9005 -0.1802  1.1660
 1402TIP3   OH225840   4.234   1.810   7.166  0.3467 -0.0835  0.3758
 1402TIP3    H125841   4.240   1.786   7.259 -0.5066  0.0339  0.4733
 1402TIP3    H225842   4.291   1.886   7.157 -0.5339  0.7037  1.1085
 1403TIP3   OH225843   6.548   6.724   0.278  0.0644 -0.2027 -0.2889
 1403TIP3    H125844   6.474   6.669   0.303  1.4399 -1.4117  1.4064
 1403TIP3    H225845   6.560   6.707   0.185 -0.1896 -2.0540 -0.0221
 1404TIP3   OH225846   3.158   3.290   8.125  0.2376 -0.3723  0.3205
 1404TIP3    H125847   3.192   3.205   8.095  0.4842 -0.2063  0.1299
 1404TIP3    H225848   3.174   3.290   8.219 -0.6368 -0.9426  0.4832
 1405TIP3   OH225849   1.257   2.196   6.492 -0.0429  0.4434  0.2217
 1405TIP3    H125850   1.272   2.241   6.409  0.2306  0.1977  0.1358
 1405TIP3    H225851   1.338   2.147   6.507 -0.5524 -0.4660  0.0389
 1406TIP3   OH225852   3.425   5.634   6.543  0.4255 -0.7258  0.2189
 1406TIP3    H125853   3.355   5.641   6.478  0.9721 -0.5239 -0.3644
 1406TIP3    H225854   3.468   5.719   6.540  0.6762 -0.8383  0.5961
 1407TIP3   OH225855   5.580   0.204   6.611  0.5861 -0.4626 -0.7961
 1407TIP3    H125856   5.654   0.214   6.552  0.6491 -2.2703 -1.1014
 1407TIP3    H225857   5.585   0.279   6.670  4.3395 -1.8922  0.9811
 1408TIP3   OH225858   2.228   1.595   1.113  0.0884  0.1641  0.6080
 1408TIP3    H125859   2.133   1.589   1.108  0.1740 -0.0426 -0.9484
 1408TIP3    H225860   2.259   1.507   1.091  0.6537  0.3121  0.8028
 1409TIP3   OH225861   5.572   4.117   7.276  0.0355 -0.4547 -0.3017
 1409TIP3    H125862   5.555   4.085   7.187 -0.0469  0.9401 -0.8092
 1409TIP3    H225863   5.502   4.079   7.329  1.5378 -3.4317 -0.2709
 1410TIP3   OH225864   0.164   0.962   5.986  0.2079  0.0548 -0.2353
 1410TIP3    H125865   0.254   0.990   5.971  0.5943  0.0391  1.8205
 1410TIP3    H225866   0.161   0.872   5.952  1.4677 -0.5655  1.1918
 1411TIP3   OH225867   1.807   4.034   8.566 -0.4055 -0.2728  0.0713
 1411TIP3    H125868   1.903   4.033   8.568 -0.3653  0.8162 -0.5490
 1411TIP3    H225869   1.783   4.121   8.597 -1.1129  0.1894 -1.6351
 1412TIP3   OH225870   1.751   0.064   7.356 -0.5986  0.1860  0.0521
 1412TIP3    H125871   1.750  -0.003   7.287 -0.4623  0.7801 -0.5321
 1412TIP3    H225872   1.786   0.018   7.432 -0.6917 -0.4659 -0.2877
 1413TIP3   OH225873   0.076   4.274   0.078  0.3750 -0.1475 -0.2148
 1413TIP3    H125874   0.101   4.336   0.146 -0.6868  0.2820 -0.1962
 1413TIP3    H225875  -0.004   4.233   0.111 -0.5631  0.5807 -1.4906
 1414TIP3   OH225876   0.794   6.302   8.235  0.2103 -0.2575 -0.6057
 1414TIP3    H125877   0.743   6.231   8.272  0.9773 -0.1429  0.7191
 1414TIP3    H225878   0.862   6.259   8.184  0.6550 -0.4936  0.1677
 1415TIP3   OH225879   4.903   5.469   2.048 -0.6165 -0.0602  0.1385
 1415TIP3    H125880   4.842   5.418   2.101 -0.2963  0.7150  1.2886
 1415TIP3    H225881   4.989   5.449   2.084 -0.1444 -1.1059 -1.4368
 1416TIP3   OH225882   3.148   6.430   7.224 -0.1328  0.0537 -0.3248
 1416TIP3    H125883   3.192   6.388   7.298  0.5028  0.6272 -0.3613
 1416TIP3    H225884   3.123   6.358   7.166 -1.8872 -0.5258  1.0826
 1417TIP3   OH225885   5.125   4.102   1.087  0.1784 -0.7520  0.5365
 1417TIP3    H125886   5.118   4.100   0.991  0.4680 -2.0580  0.5308
 1417TIP3    H225887   5.102   4.192   1.110 -0.7228 -0.6334 -0.6900
 1418TIP3   OH225888   1.862   6.685   1.274 -0.0695  0.0120 -0.0040
 1418TIP3    H125889   1.873   6.592   1.292 -1.8851 -0.2778 -0.1317
 1418TIP3    H225890   1.866   6.727   1.360  0.8786 -0.1537  0.0408
 1419TIP3   OH225891   2.716   4.473   7.836  0.4232  0.3030  0.0729
 1419TIP3    H125892   2.711   4.401   7.773  0.5936  0.2695  0.0970
 1419TIP3    H225893   2.785   4.447   7.897  1.5038  1.1397 -0.7541
 1420TIP3   OH225894   2.293   1.228   1.528  0.4393  0.1201 -0.1221
 1420TIP3    H125895   2.201   1.238   1.500  0.0928 -0.6395  0.6918
 1420TIP3    H225896   2.331   1.171   1.461  0.1636 -0.0072 -0.1755
 1421TIP3   OH225897   4.458   0.343   7.757 -0.8781  0.0496  0.9319
 1421TIP3    H125898   4.395   0.405   7.720  0.3649  1.4574  1.1024
 1421TIP3    H225899   4.461   0.271   7.694 -0.2587  1.4804 -0.7298
 1422TIP3   OH225900   4.524   0.985   6.775  0.0000  0.1622  0.3469
 1422TIP3    H125901   4.490   0.897   6.787  1.3006 -0.8416 -2.5092
 1422TIP3    H225902   4.490   1.014   6.691 -1.3354  2.9518  1.6921
 1423TIP3   OH225903   0.895   4.002   2.284  0.2044 -0.2751 -0.2953
 1423TIP3    H125904   0.890   3.915   2.323 -2.0158  0.6348  1.6959
 1423TIP3    H225905   0.845   3.996   2.203  0.3901 -0.9319 -0.3621
 1424TIP3   OH225906   2.984   2.145   8.037  0.2570  0.0300 -0.0934
 1424TIP3    H125907   2.993   2.165   8.130  0.7573 -0.6745  0.0149
 1424TIP3    H225908   2.955   2.055   8.034 -1.3992  0.5488 -0.5938
 1425TIP3   OH225909   2.574   4.174   7.389  0.3164 -0.0589  0.6765
 1425TIP3    H125910   2.502   4.222   7.430  0.3410  1.1986 -0.6977
 1425TIP3    H225911   2.650   4.194   7.443  0.0840  0.4637  0.8125
 1426TIP3   OH225912   4.370   4.320   8.519  0.3262 -0.3512  0.2433
 1426TIP3    H125913   4.356   4.355   8.432 -1.0735  1.2773  1.0802
 1426TIP3    H225914   4.439   4.375   8.557 -0.4911  0.2701  0.8617
 1427TIP3   OH225915   5.246   5.993   7.350  0.2291  0.1237  0.2886
 1427TIP3    H125916   5.331   5.962   7.320 -0.5958 -1.0148 -0.9960
 1427TIP3    H225917   5.229   6.071   7.296  0.3241  0.1870  0.3490
 1428TIP3   OH225918   2.481   6.203   8.167  0.0005  0.1508  0.0212
 1428TIP3    H125919   2.553   6.224   8.107  2.4524  1.8780  3.2218
 1428TIP3    H225920   2.512   6.125   8.214 -0.9802 -0.0619  0.3282
 1429TIP3   OH225921   4.572   1.655   6.788 -0.2570  0.4535 -0.0472
 1429TIP3    H125922   4.585   1.594   6.860 -0.6091  2.2819  1.6374
 1429TIP3    H225923   4.481   1.642   6.761  0.1904 -1.0073 -0.9581
 1430TIP3   OH225924   0.992   0.904   1.926  0.2070 -0.0743  0.0473
 1430TIP3    H125925   0.962   0.840   1.991 -0.3833  1.2204  1.0940
 1430TIP3    H225926   1.003   0.985   1.975  1.6932  0.4667 -1.0968
 1431TIP3   OH225927   5.033   3.457   1.144 -0.2342  0.1700 -0.4693
 1431TIP3    H125928   4.950   3.499   1.122 -0.1985 -0.2441 -1.4819
 1431TIP3    H225929   5.098   3.506   1.094  0.2738  1.1129  1.0817
 1432TIP3   OH225930   0.203   3.093   2.348 -0.0095  0.1852 -0.1035
 1432TIP3    H125931   0.159   3.014   2.317  0.9569 -0.3745 -0.1004
 1432TIP3    H225932   0.184   3.159   2.281 -0.3936 -0.1905 -0.3675
 1433TIP3   OH225933   4.185   5.849   1.400 -0.5113  0.4542 -0.4957
 1433TIP3    H125934   4.106   5.849   1.455 -0.8718  1.6943 -0.9816
 1433TIP3    H225935   4.152   5.850   1.310  0.0226  1.4688 -0.7020
 1434TIP3   OH225936   2.678   1.144   7.280  0.2443 -0.2222  0.9973
 1434TIP3    H125937   2.770   1.162   7.299  0.2672  0.2611  0.4571
 1434TIP3    H225938   2.658   1.199   7.204 -0.4140 -0.5333  0.9392
 1435TIP3   OH225939   5.947   3.189   8.043 -0.4653 -0.1596  0.5650
 1435TIP3    H125940   5.869   3.147   8.081 -1.3222  0.9049  0.0374
 1435TIP3    H225941   5.997   3.117   8.006 -1.9229 -0.7486 -0.3544
 1436TIP3   OH225942   0.015   2.135   7.209 -0.3275  0.2440  0.7515
 1436TIP3    H125943  -0.009   2.127   7.302 -1.7785  0.5706  0.4257
 1436TIP3    H225944  -0.049   2.196   7.173  0.6437  0.6474 -0.3312
 1437TIP3   OH225945   2.699   4.461   0.294 -0.3817  0.0561  0.0450
 1437TIP3    H125946   2.786   4.428   0.273 -0.5649 -0.4408  0.0568
 1437TIP3    H225947   2.706   4.496   0.382 -0.5075 -1.1406  0.5403
 1438TIP3   OH225948   3.218   0.334   1.520 -0.0137 -0.8911  0.5194
 1438TIP3    H125949   3.187   0.259   1.468 -0.0877 -0.7222  0.3198
 1438TIP3    H225950   3.300   0.302   1.560 -0.1506 -1.1477  0.6003
 1439TIP3   OH225951   0.241   2.622   8.144 -0.3766 -0.2926 -0.1997
 1439TIP3    H125952   0.153   2.639   8.110 -0.5917  3.3920  1.7320
 1439TIP3    H225953   0.290   2.703   8.127  1.6756 -1.0607  1.5380
 1440TIP3   OH225954   3.450   6.013   7.895 -0.0186 -0.5109  0.1584
 1440TIP3    H125955   3.533   6.057   7.917 -0.7369 -0.2723  2.6926
 1440TIP3    H225956   3.384   6.082   7.903 -0.5163 -0.6405 -2.0718
 1441TIP3   OH225957   3.696   5.258   1.521  0.1442 -0.6254 -0.4201
 1441TIP3    H125958   3.627   5.234   1.460  0.0899 -0.5338 -0.3945
 1441TIP3    H225959   3.652   5.263   1.606 -0.1856  1.1470 -0.6521
 1442TIP3   OH225960   2.791   2.789   6.988 -0.2339 -0.1634  0.4592
 1442TIP3    H125961   2.744   2.828   7.062 -0.8137  0.9195 -0.4475
 1442TIP3    H225962   2.733   2.719   6.957 -0.6602  0.3257  0.1426
 1443TIP3   OH225963   6.644   2.245   7.715 -0.5387  0.0486 -0.1011
 1443TIP3    H125964   6.709   2.185   7.751 -1.4535 -0.3502  0.9429
 1443TIP3    H225965   6.580   2.189   7.672  0.1557  0.4831 -1.7867
 1444TIP3   OH225966   3.559   0.267   8.118  0.6014  0.0056 -0.1776
 1444TIP3    H125967   3.505   0.346   8.109  1.3878  0.6528  0.5783
 1444TIP3    H225968   3.534   0.212   8.043  0.2879  1.1139 -0.9102
 1445TIP3   OH225969   0.934   2.283   7.763 -0.5114  0.0056  0.2583
 1445TIP3    H125970   0.991   2.360   7.768 -1.0001  0.3116  1.7332
 1445TIP3    H225971   0.852   2.313   7.802 -1.1647 -0.8881 -0.3984
 1446TIP3   OH225972   4.524   1.270   0.026 -0.3149 -0.1790 -0.5588
 1446TIP3    H125973   4.470   1.203  -0.015 -1.3639  0.7723 -0.7823
 1446TIP3    H225974   4.493   1.353  -0.012 -0.3867  0.6077  1.1078
 1447TIP3   OH225975   6.360   4.381   0.247  0.3353  0.1087  0.0164
 1447TIP3    H125976   6.375   4.473   0.267 -0.2117  0.3436 -0.6379
 1447TIP3    H225977   6.425   4.334   0.300  0.1201  0.8204  0.9300
 1448TIP3   OH225978   6.559   2.562   7.171  0.2142  0.1515  0.1343
 1448TIP3    H125979   6.476   2.600   7.142  0.8473  0.6038 -1.1353
 1448TIP3    H225980   6.624   2.596   7.110  1.3249 -0.3199  1.0158
 1449TIP3   OH225981   0.371   2.064   8.140  0.0121  0.0565  0.1397
 1449TIP3    H125982   0.444   2.067   8.078  1.2716  0.9955  1.6046
 1449TIP3    H225983   0.303   2.014   8.094  0.7618  0.9654 -2.1062
 1450TIP3   OH225984   0.510   3.872   0.917 -0.2627 -0.3092  0.4358
 1450TIP3    H125985   0.574   3.943   0.915 -1.0233  0.3828 -0.2333
 1450TIP3    H225986   0.531   3.823   0.996  1.9353 -0.9212 -0.4584
 1451TIP3   OH225987   2.001   0.448   8.057 -0.4602  0.2289 -0.5439
 1451TIP3    H125988   1.910   0.431   8.080 -0.7031  1.6248 -0.3980
 1451TIP3    H225989   2.035   0.363   8.029 -2.1351 -0.1078 -1.7286
 1452TIP3   OH225990   6.810   4.661   7.622 -0.4559  0.1513  0.5526
 1452TIP3    H125991   6.850   4.616   7.547 -2.1303 -0.2612 -0.1406
 1452TIP3    H225992   6.784   4.746   7.588 -0.9223  0.0890  0.7450
 1453TIP3   OH225993   1.989   0.060   7.199 -0.5421 -0.2790 -0.6273
 1453TIP3    H125994   1.950   0.132   7.150  1.0823  0.6250 -0.6754
 1453TIP3    H225995   1.989   0.089   7.290 -0.4518 -0.4961 -0.5558
 1454TIP3   OH225996   0.250   6.610   7.300  0.3269  0.5426 -1.1458
 1454TIP3    H125997   0.339   6.590   7.329  0.3901 -0.8582 -2.2299
 1454TIP3    H225998   0.213   6.661   7.372  1.3334 -0.5972  0.2426
 1455TIP3   OH225999   4.735   5.865   0.364  0.1965 -0.4113  0.5218
 1455TIP3    H126000   4.660   5.816   0.398 -0.1925 -0.9961 -1.0742
 1455TIP3    H226001   4.746   5.937   0.425 -2.4517  0.4075  0.1913
 1456TIP3   OH226002   3.895   5.787   6.808  0.0449 -0.2372 -0.5010
 1456TIP3    H126003   3.887   5.857   6.872 -0.9427  0.1547 -1.0250
 1456TIP3    H226004   3.967   5.813   6.751  0.7040 -0.4246  0.2367
 1457TIP3   OH226005   5.027   5.819   7.329 -0.5961 -0.0896  0.1020
 1457TIP3    H126006   5.042   5.762   7.254 -1.1337 -1.9746  1.3431
 1457TIP3    H226007   5.092   5.888   7.320 -0.6790 -0.2341 -2.0989
 1458TIP3   OH226008   5.735   3.231   0.645  0.0004  0.6777 -1.1094
 1458TIP3    H126009   5.791   3.159   0.674 -0.0066  1.0937 -0.0020
 1458TIP3    H226010   5.776   3.262   0.565  1.4710  1.0689 -0.2426
 1459TIP3   OH226011   1.387   5.527   1.832  0.3568  0.5791  0.1268
 1459TIP3    H126012   1.457   5.500   1.892  1.1317  0.4651 -0.8015
 1459TIP3    H226013   1.320   5.564   1.889  0.1318 -1.4318  1.2758
 1460TIP3   OH226014   2.976   6.881   6.927  0.1824  0.3956  0.0291
 1460TIP3    H126015   3.062   6.855   6.962  0.1030 -0.2865 -0.2636
 1460TIP3    H226016   2.994   6.906   6.837 -0.0622 -0.6819 -0.3376
 1461TIP3   OH226017   4.445   4.879   8.260  0.3695  0.1220 -0.6219
 1461TIP3    H126018   4.483   4.924   8.335 -0.5111  0.9017 -0.6254
 1461TIP3    H226019   4.517   4.826   8.224  0.6359 -0.7827  1.1341
 1462TIP3   OH226020   0.718   4.621   0.605 -0.5100  0.2216  0.0096
 1462TIP3    H126021   0.773   4.696   0.580  1.7351 -2.1051 -2.7075
 1462TIP3    H226022   0.648   4.621   0.539 -0.5995  0.0288  0.1060
 1463TIP3   OH226023   1.198   2.612   7.474 -0.5120 -0.2913 -0.0766
 1463TIP3    H126024   1.277   2.649   7.513  0.4111 -1.2137 -0.9966
 1463TIP3    H226025   1.221   2.596   7.383 -1.8894 -0.2599 -0.4605
 1464TIP3   OH226026   2.075   5.885   0.603  0.3280 -0.2242  0.2870
 1464TIP3    H126027   2.150   5.942   0.585  0.5950 -0.3688  0.9117
 1464TIP3    H226028   1.999   5.941   0.591  0.6099  0.4914  1.6362
 1465TIP3   OH226029   2.289   1.880   1.937  0.0426  0.1423  0.1977
 1465TIP3    H126030   2.219   1.815   1.938  1.2544 -1.1981  1.1681
 1465TIP3    H226031   2.316   1.889   2.029 -1.5274  3.6998  0.4878
 1466TIP3   OH226032   1.470   5.108   0.546 -1.2356  0.3321  0.4394
 1466TIP3    H126033   1.425   5.174   0.598 -0.4940  1.9689 -0.8885
 1466TIP3    H226034   1.407   5.081   0.480 -1.5071 -0.2632  0.9255
 1467TIP3   OH226035   6.474   4.975   2.225 -0.5264 -0.5316 -0.2670
 1467TIP3    H126036   6.420   4.983   2.146  1.0738  0.2283 -1.3396
 1467TIP3    H226037   6.534   4.902   2.205  0.7900  0.5340 -0.3514
 1468TIP3   OH226038   3.980   0.259   6.278 -0.1358  0.7108 -0.4761
 1468TIP3    H126039   3.916   0.189   6.289  0.1314  0.5664  0.2120
 1468TIP3    H226040   3.928   0.339   6.273 -0.5005  0.4108 -2.1143
 1469TIP3   OH226041   5.444   2.114   6.640 -0.1663  0.2221 -0.1411
 1469TIP3    H126042   5.514   2.162   6.595 -0.8183 -0.5546 -2.0654
 1469TIP3    H226043   5.371   2.114   6.578 -1.1025 -0.9202  0.9121
 1470TIP3   OH226044   5.103   1.352   5.583 -0.2828  0.3646 -0.3725
 1470TIP3    H126045   5.154   1.274   5.608 -1.0626  0.8097  3.1113
 1470TIP3    H226046   5.013   1.331   5.607 -0.6225  2.0950 -0.0210
 1471TIP3   OH226047   3.788   0.717   7.166  0.1321 -0.9778  0.2314
 1471TIP3    H126048   3.768   0.798   7.213  0.3581 -0.7163 -0.1189
 1471TIP3    H226049   3.704   0.673   7.157  0.4151 -2.5099  3.5203
 1472TIP3   OH226050   6.816   0.801   7.470  0.0600  0.3712  0.2978
 1472TIP3    H126051   6.727   0.785   7.501  0.1591  0.4529  0.6340
 1472TIP3    H226052   6.815   0.890   7.436 -0.1733  0.1063 -0.3925
 1473TIP3   OH226053   6.149   4.301   1.531 -0.8138  0.4875  0.3268
 1473TIP3    H126054   6.200   4.237   1.482  0.3842  1.1232  0.6848
 1473TIP3    H226055   6.156   4.272   1.622  0.3427  1.4840  0.5820
 1474TIP3   OH226056   3.186   5.053   6.846  0.0087  0.7226  0.7319
 1474TIP3    H126057   3.180   5.011   6.760  1.4405 -1.8771  1.7936
 1474TIP3    H226058   3.160   5.144   6.830 -1.4921 -0.0695 -2.0876
 1475TIP3   OH226059   1.622   6.502   7.098 -0.1106  0.5138 -0.1171
 1475TIP3    H126060   1.542   6.513   7.047  0.0281 -2.2708 -1.1220
 1475TIP3    H226061   1.691   6.495   7.033  0.4890 -0.1844  0.5759
 1476TIP3   OH226062   2.639   0.737   1.413  0.3352 -0.8016  0.0448
 1476TIP3    H126063   2.589   0.655   1.406 -1.6478  0.3589 -0.0864
 1476TIP3    H226064   2.659   0.744   1.507 -0.9304 -0.6318  0.3126
 1477TIP3   OH226065   2.125   0.054   7.460  0.4837 -0.3409  0.0597
 1477TIP3    H126066   2.219   0.054   7.442  0.9174  0.9500  1.9945
 1477TIP3    H226067   2.118   0.078   7.553 -1.7465 -0.7985  0.0726
 1478TIP3   OH226068   6.384   4.300   8.675 -0.4871  0.5037  0.0718
 1478TIP3    H126069   6.356   4.344   8.755 -1.5769  2.1350 -1.1293
 1478TIP3    H226070   6.308   4.305   8.617  0.5896  0.2626 -1.4341
 1479TIP3   OH226071   0.381   2.077   7.386 -0.5297  0.2371  0.2444
 1479TIP3    H126072   0.473   2.055   7.404 -0.0139  2.4195  0.6112
 1479TIP3    H226073   0.349   2.115   7.468 -1.1147  1.4040 -0.4974
 1480TIP3   OH226074   0.192   1.171   6.462  0.3781 -0.4422  0.0047
 1480TIP3    H126075   0.102   1.195   6.484 -0.2094 -0.8988 -1.7347
 1480TIP3    H226076   0.194   1.076   6.466  0.3807 -0.5154 -1.3044
 1481TIP3   OH226077   3.213   1.036   8.394  0.3887  0.5713 -0.9216
 1481TIP3    H126078   3.163   1.083   8.460  0.7687 -0.6656  0.2738
 1481TIP3    H226079   3.301   1.029   8.430  0.2042 -1.5508 -0.7956
 1482TIP3   OH226080   1.344   0.210   7.604  1.1770  0.0900  0.2319
 1482TIP3    H126081   1.334   0.173   7.516 -2.8837 -0.0375  0.5364
 1482TIP3    H226082   1.362   0.303   7.590 -1.6738  0.5790 -0.9555
 1483TIP3   OH226083   6.241   2.212   0.838  0.7746  0.0754  0.1754
 1483TIP3    H126084   6.336   2.221   0.837  0.8894 -0.9560  0.2695
 1483TIP3    H226085   6.208   2.292   0.797  1.7107  0.0066 -0.7351
 1484TIP3   OH226086   2.994   3.787   7.339  0.1186 -0.3775  0.1099
 1484TIP3    H126087   2.903   3.811   7.325 -0.0393 -0.4792  0.9368
 1484TIP3    H226088   3.019   3.741   7.259 -0.0455  1.1261 -0.8293
 1485TIP3   OH226089   6.763   0.327   8.423  0.5517 -0.2119  0.1803
 1485TIP3    H126090   6.787   0.282   8.504 -0.9245 -1.3192  0.0561
 1485TIP3    H226091   6.724   0.409   8.451 -0.7874 -0.9907  0.6714
 1486TIP3   OH226092   2.903   4.275   1.567  0.1348  0.1825  0.6970
 1486TIP3    H126093   2.967   4.237   1.508 -1.0990 -0.4097 -0.3104
 1486TIP3    H226094   2.858   4.341   1.514 -0.3605  0.3015  1.2564
 1487TIP3   OH226095   1.580   1.557   6.266  0.3244  0.2119  0.4224
 1487TIP3    H126096   1.537   1.493   6.323  0.5409  0.0900  0.4487
 1487TIP3    H226097   1.665   1.518   6.246  0.0143 -0.0280 -0.4916
 1488TIP3   OH226098   3.048   1.142   2.126 -0.0965  0.4838 -0.5961
 1488TIP3    H126099   3.009   1.215   2.077 -0.1442  0.7701 -0.1353
 1488TIP3    H226100   2.994   1.135   2.204 -0.6837 -0.6767 -1.0895
 1489TIP3   OH226101   1.213   4.368   8.381  0.1623 -0.2053 -0.7639
 1489TIP3    H126102   1.273   4.439   8.404  0.2843 -0.9349  1.3732
 1489TIP3    H226103   1.126   4.406   8.394  0.1422  0.3820 -2.3883
 1490TIP3   OH226104   3.672   1.598   0.665 -0.2643 -0.2038 -0.2279
 1490TIP3    H126105   3.720   1.676   0.635  0.6815 -1.1095 -1.1911
 1490TIP3    H226106   3.741   1.537   0.690 -0.9546 -1.1297 -0.5466
 1491TIP3   OH226107   1.077   4.925   7.386 -0.8022  0.7458 -0.0148
 1491TIP3    H126108   1.144   4.864   7.354 -1.3620  0.4324 -0.6110
 1491TIP3    H226109   1.041   4.883   7.463 -1.1058  0.3759 -0.3572
 1492TIP3   OH226110   4.644   6.304   0.821 -0.0980 -0.0750  0.1863
 1492TIP3    H126111   4.561   6.346   0.843  0.3535  0.3027  1.2315
 1492TIP3    H226112   4.699   6.317   0.898  0.3449 -1.8546  0.2180
 1493TIP3   OH226113   6.340   5.832   6.626 -0.1212 -0.0930  0.0701
 1493TIP3    H126114   6.272   5.771   6.650  0.9361 -1.0556  0.7169
 1493TIP3    H226115   6.333   5.840   6.531  0.5188 -2.2456 -0.2128
 1494TIP3   OH226116   2.378   0.149   2.336  0.1470  0.0841  0.0773
 1494TIP3    H126117   2.377   0.061   2.373 -1.0283 -0.2674 -0.7395
 1494TIP3    H226118   2.288   0.166   2.309  0.8611  0.3524 -2.4921
 1495TIP3   OH226119   2.307   4.432   0.053  0.6867  0.1351 -0.3642
 1495TIP3    H126120   2.380   4.382   0.017  0.5577 -0.9405  0.8322
 1495TIP3    H226121   2.229   4.382   0.029  0.2662  1.3859 -1.8264
 1496TIP3   OH226122   3.339   6.725   7.271 -0.0219  0.4276 -0.4458
 1496TIP3    H126123   3.354   6.752   7.362 -3.3443  2.0533 -0.2480
 1496TIP3    H226124   3.344   6.629   7.274 -2.3275  0.2667  2.0250
 1497TIP3   OH226125   0.597   0.663   0.949 -0.4083  0.7365 -0.1551
 1497TIP3    H126126   0.661   0.593   0.958 -0.8860  0.4257  0.9949
 1497TIP3    H226127   0.584   0.672   0.854 -2.0795 -2.3640 -0.3292
 1498TIP3   OH226128   5.926   4.003   1.571 -0.3536 -0.0299  0.1742
 1498TIP3    H126129   5.865   4.045   1.511 -0.5800 -0.8835 -0.2097
 1498TIP3    H226130   5.871   3.976   1.646 -0.0809  0.9909  0.7667
 1499TIP3   OH226131   1.744   1.647   8.491  0.2431  0.0213  0.1100
 1499TIP3    H126132   1.830   1.682   8.468  0.6806 -0.9834  0.2000
 1499TIP3    H226133   1.746   1.640   8.586  0.5564 -1.2456  0.0211
 1500TIP3   OH226134   6.382   4.630   0.665  0.6638  0.3539 -0.3316
 1500TIP3    H126135   6.362   4.539   0.689  1.9001  0.1092 -0.1590
 1500TIP3    H226136   6.428   4.623   0.581  0.1892  0.8740 -0.6364
 1501TIP3   OH226137   4.025   0.731   0.426  0.0202  0.2672 -0.1102
 1501TIP3    H126138   3.959   0.680   0.378 -0.5271  0.6736  0.1925
 1501TIP3    H226139   4.022   0.817   0.385  0.1359  0.3766  0.1134
 1502TIP3   OH226140   6.090   3.839   1.914  0.0409 -0.0781  0.3472
 1502TIP3    H126141   6.014   3.813   1.966 -0.8360  1.7147  0.0380
 1502TIP3    H226142   6.158   3.859   1.979 -1.0114  2.0564  0.8728
 1503TIP3   OH226143   6.819   5.225   0.009  0.6217  0.4075  0.4941
 1503TIP3    H126144   6.901   5.176  -0.004  0.9596  1.2983 -0.9006
 1503TIP3    H226145   6.777   5.226  -0.077 -0.2132  1.0801  0.8943
 1504TIP3   OH226146   3.096   4.085   0.289 -0.1253  0.3663  0.5080
 1504TIP3    H126147   3.114   4.144   0.362  2.4365  3.1793 -2.0674
 1504TIP3    H226148   3.004   4.100   0.268 -0.3609  1.0203  1.8705
 1505TIP3   OH226149   0.314   0.664   0.380  0.2865 -0.3544 -0.2927
 1505TIP3    H126150   0.256   0.720   0.330 -0.4223 -2.0789 -1.5263
 1505TIP3    H226151   0.392   0.717   0.396 -1.0523  1.5518  0.2288
 1506TIP3   OH226152   5.048   5.613   1.735 -0.0846 -0.3153  0.0367
 1506TIP3    H126153   5.070   5.705   1.742  0.3625 -0.3180 -1.1820
 1506TIP3    H226154   5.083   5.585   1.651 -0.0703 -1.6395  0.4447
 1507TIP3   OH226155   1.800   6.257   1.526 -0.1670 -0.5829  0.2132
 1507TIP3    H126156   1.799   6.175   1.477 -0.5144 -1.0092  0.9132
 1507TIP3    H226157   1.725   6.249   1.585 -1.7733  1.2899 -1.4303
 1508TIP3   OH226158   4.408   3.893   7.227 -0.1135 -0.2277 -0.2791
 1508TIP3    H126159   4.422   3.849   7.311 -3.3092 -0.5184  0.2319
 1508TIP3    H226160   4.323   3.936   7.236  0.2446  1.2256 -2.7906
 1509TIP3   OH226161   2.348   5.932   8.031 -0.5344 -0.3460  0.3688
 1509TIP3    H126162   2.296   5.975   8.099  1.0666 -0.4831  1.7342
 1509TIP3    H226163   2.418   5.887   8.078  1.6014  0.8741 -1.4250
 1510TIP3   OH226164   6.734   1.188   7.676  0.2074  0.2102  0.5663
 1510TIP3    H126165   6.681   1.227   7.745 -0.9520 -2.2261  1.1378
 1510TIP3    H226166   6.683   1.115   7.643  3.2892 -2.5916  1.4448
 1511TIP3   OH226167   3.898   0.510   0.315  0.2769 -0.2129  1.1943
 1511TIP3    H126168   3.948   0.462   0.249 -1.0692 -1.8667  1.3185
 1511TIP3    H226169   3.816   0.532   0.271  0.9505  2.2801  1.0520
 1512TIP3   OH226170   5.523   4.416   1.480  0.3153 -0.6596  0.1109
 1512TIP3    H126171   5.479   4.347   1.530 -1.2859 -0.2081 -0.6126
 1512TIP3    H226172   5.522   4.384   1.389 -1.0272  0.5333 -0.3460
 1513TIP3   OH226173   5.135   4.912   1.963  0.3451 -0.3249 -0.3736
 1513TIP3    H126174   5.131   4.939   2.055  1.3460  1.4644 -0.7990
 1513TIP3    H226175   5.096   4.985   1.915 -0.1604 -1.2351 -1.3889
 1514TIP3   OH226176   4.776   3.300   8.045 -0.1582  0.2538 -0.4152
 1514TIP3    H126177   4.710   3.279   7.979 -0.6683 -0.3723  0.2918
 1514TIP3    H226178   4.783   3.222   8.099  1.5146  0.1319 -0.7567
 1515TIP3   OH226179   2.280   6.319   0.314  0.0282 -0.4430 -0.2222
 1515TIP3    H126180   2.189   6.340   0.333  0.2731  0.5246 -0.0776
 1515TIP3    H226181   2.282   6.303   0.219 -0.2115  0.0100 -0.3077
 1516TIP3   OH226182   1.158   2.119   1.360  0.2154  0.2268 -0.0240
 1516TIP3    H126183   1.193   2.056   1.424 -1.1570 -0.8857 -0.3137
 1516TIP3    H226184   1.068   2.091   1.346 -0.2115  1.8425 -0.7438
 1517TIP3   OH226185   0.926   5.612   8.038  0.0660  0.4485  0.3631
 1517TIP3    H126186   0.930   5.708   8.032 -0.9687  0.5502  1.1682
 1517TIP3    H226187   1.017   5.584   8.026  0.2386  1.4554 -0.9518
 1518TIP3   OH226188   6.618   2.851   7.920 -0.1455 -0.3298 -0.2557
 1518TIP3    H126189   6.550   2.835   7.855 -0.6679 -2.7916  0.7954
 1518TIP3    H226190   6.696   2.872   7.870 -1.3739  1.6350 -1.5176
 1519TIP3   OH226191   5.637   4.643   7.659  0.2748 -0.0970  0.5020
 1519TIP3    H126192   5.636   4.627   7.564 -0.0625 -3.9258  0.9815
 1519TIP3    H226193   5.726   4.622   7.686 -0.0989 -0.7965  1.2250
 1520TIP3   OH226194   6.361   6.529   7.150  0.1854 -0.1007  0.1551
 1520TIP3    H126195   6.318   6.532   7.236 -0.9847 -0.1322 -0.4085
 1520TIP3    H226196   6.327   6.605   7.103  2.2787  1.0173  0.3476
 1521TIP3   OH226197   0.621   3.675   0.137 -0.1291 -0.2861  0.4259
 1521TIP3    H126198   0.578   3.747   0.182 -0.0634  1.9965 -2.8343
 1521TIP3    H226199   0.551   3.633   0.086  0.4301 -0.3201 -0.3323
 1522TIP3   OH226200   2.388   4.337   7.542  0.3964 -0.4824 -0.7213
 1522TIP3    H126201   2.355   4.423   7.515 -1.5334 -0.9349  0.0529
 1522TIP3    H226202   2.406   4.346   7.635  2.3033 -0.3300 -1.0729
 1523TIP3   OH226203   5.803   1.636   8.192 -0.7119  0.5725  0.1145
 1523TIP3    H126204   5.752   1.715   8.174 -2.1872 -0.0611  1.2352
 1523TIP3    H226205   5.742   1.579   8.239 -0.1985 -1.8759 -1.9716
 1524TIP3   OH226206   0.333   1.118   6.236 -0.1373 -0.2870 -0.2937
 1524TIP3    H126207   0.273   1.137   6.308  0.9318  1.4982  0.1860
 1524TIP3    H226208   0.324   1.193   6.177  0.7027 -0.6105 -0.8441
 1525TIP3   OH226209   4.034   4.920   8.274  0.8094 -1.0212  0.2328
 1525TIP3    H126210   3.984   4.971   8.211  1.3106 -0.0745  0.5891
 1525TIP3    H226211   4.081   4.985   8.326  1.0485 -1.8212  1.0432
 1526TIP3   OH226212   3.225   4.302   8.268  0.3383  0.1052 -0.4270
 1526TIP3    H126213   3.297   4.245   8.295 -0.5997 -0.6292  0.6612
 1526TIP3    H226214   3.162   4.242   8.227  0.3810  0.7507 -1.4670
 1527TIP3   OH226215   0.731   5.435   7.961 -0.1532 -0.1605  0.2696
 1527TIP3    H126216   0.785   5.361   7.988  1.6521  1.1069  0.3118
 1527TIP3    H226217   0.786   5.512   7.976 -0.8035  0.9983 -2.5686
 1528TIP3   OH226218   2.021   5.374   7.139 -0.0239 -0.8068 -0.7753
 1528TIP3    H126219   1.962   5.416   7.077 -0.3879 -1.8553 -1.1555
 1528TIP3    H226220   2.099   5.430   7.139 -0.9264  0.5095 -0.3795
 1529TIP3   OH226221   5.423   1.812   6.875 -0.1188 -0.0972 -0.2800
 1529TIP3    H126222   5.454   1.902   6.884  0.5810 -0.2962 -0.6357
 1529TIP3    H226223   5.482   1.773   6.812 -1.0672 -0.5163 -0.9273
 1530TIP3   OH226224   3.181   1.297   6.676 -0.0639  0.0109  0.2152
 1530TIP3    H126225   3.124   1.333   6.608  0.0501 -1.9182 -0.9834
 1530TIP3    H226226   3.150   1.207   6.688  3.0556 -1.3353 -0.9214
 1531TIP3   OH226227   0.453   3.516   0.022 -0.6048 -0.6272 -0.2092
 1531TIP3    H126228   0.478   3.433   0.061  1.9031  0.6180  1.0395
 1531TIP3    H226229   0.503   3.520  -0.060  1.4855  0.7081  1.0188
 1532TIP3   OH226230   4.619   0.806   8.306  0.0450 -0.2373 -0.0374
 1532TIP3    H126231   4.646   0.718   8.280  0.6451 -0.9681  2.7717
 1532TIP3    H226232   4.527   0.797   8.332  0.3403 -0.2670  1.0576
 1533TIP3   OH226233   0.195   3.657   2.107 -0.1529 -0.3614  0.2578
 1533TIP3    H126234   0.125   3.719   2.131  0.8084  0.0330  2.1830
 1533TIP3    H226235   0.275   3.696   2.141  0.6619 -2.0895  0.4358
 1534TIP3   OH226236   6.223   3.354   0.029 -0.0527  0.2165 -0.9138
 1534TIP3    H126237   6.318   3.362   0.016  0.0709  0.1599 -0.0710
 1534TIP3    H226238   6.210   3.265   0.061 -0.5582 -0.2780 -2.4127
 1535TIP3   OH226239   5.594   3.172   8.053  0.4316 -0.1385 -0.3397
 1535TIP3    H126240   5.616   3.078   8.052 -0.5856 -0.3915 -0.2790
 1535TIP3    H226241   5.548   3.185   8.136  0.3213  0.3534 -0.4775
 1536TIP3   OH226242   3.324   1.425   1.738  0.0079 -0.1588  0.4351
 1536TIP3    H126243   3.268   1.352   1.766 -0.3081 -0.3174 -0.5425
 1536TIP3    H226244   3.263   1.485   1.694  0.3318  0.5103  0.8909
 1537TIP3   OH226245   2.993   4.415   1.217  0.9923 -0.3908 -0.0851
 1537TIP3    H126246   3.086   4.413   1.239  1.3995 -0.7159 -1.6912
 1537TIP3    H226247   2.968   4.322   1.210  0.7587 -0.3052 -0.4363
 1538TIP3   OH226248   2.631   2.864   0.037 -0.0230  0.0355 -0.0810
 1538TIP3    H126249   2.648   2.789  -0.019 -1.4512 -1.2410  1.0987
 1538TIP3    H226250   2.708   2.870   0.094  0.6311  0.2413 -0.9742
 1539TIP3   OH226251   1.464   2.509   6.683  0.1494  0.6780  0.0646
 1539TIP3    H126252   1.395   2.493   6.618  0.3559 -1.8902  0.3849
 1539TIP3    H226253   1.539   2.537   6.630 -0.0096 -0.3124 -0.7297
 1540TIP3   OH226254   2.148   3.365   6.792 -0.2733  0.0466 -0.0739
 1540TIP3    H126255   2.100   3.383   6.873 -0.7771  0.1977 -0.3957
 1540TIP3    H226256   2.118   3.278   6.766  1.8373 -1.1642  1.2509
 1541TIP3   OH226257   6.812   5.104   7.179  0.1512  0.1428  0.0578
 1541TIP3    H126258   6.853   5.045   7.243 -0.4254 -1.5346 -1.0316
 1541TIP3    H226259   6.758   5.163   7.232 -0.2769 -1.1612  1.1490
 1542TIP3   OH226260   4.094   0.276   7.508  0.2790  0.6248 -0.3683
 1542TIP3    H126261   4.146   0.235   7.577  3.3187  1.5232 -1.9748
 1542TIP3    H226262   4.098   0.369   7.527  0.2042  0.7904 -1.1542
 1543TIP3   OH226263   5.458   1.367   7.865  0.2919 -0.0827  0.2651
 1543TIP3    H126264   5.401   1.417   7.923 -0.8137 -0.3899 -0.5200
 1543TIP3    H226265   5.547   1.387   7.895 -0.1913  0.9930  1.0418
 1544TIP3   OH226266   3.521   6.124   0.592  0.4092  0.6219 -0.3218
 1544TIP3    H126267   3.599   6.094   0.545 -0.1595 -2.9271  0.6916
 1544TIP3    H226268   3.455   6.134   0.524  1.0909  1.3902 -0.9030
 1545TIP3   OH226269   6.111   6.357   1.114 -0.6029  0.4117 -0.0434
 1545TIP3    H126270   6.193   6.372   1.066 -1.1994  1.3476 -0.8134
 1545TIP3    H226271   6.046   6.345   1.045 -0.9236 -1.6429  0.5488
 1546TIP3   OH226272   0.907   6.329   6.632  0.0593 -0.6527  0.3086
 1546TIP3    H126273   0.883   6.409   6.585 -1.4607 -1.5927 -0.6124
 1546TIP3    H226274   0.863   6.338   6.717  1.7647  0.4729  1.1219
 1547TIP3   OH226275   6.374   0.905   1.534  0.5324  0.4235 -0.1413
 1547TIP3    H126276   6.391   0.912   1.628 -0.4156 -0.1394  0.0940
 1547TIP3    H226277   6.404   0.988   1.497 -1.3496  1.7139  1.0338
 1548TIP3   OH226278   4.718   6.479   1.759 -0.3385  0.3410  0.2803
 1548TIP3    H126279   4.642   6.533   1.777  0.7176  2.0625 -0.2461
 1548TIP3    H226280   4.764   6.473   1.843 -0.7181 -0.2134  0.4593
 1549TIP3   OH226281   5.533   2.758   0.591 -0.0715 -0.0943 -0.5322
 1549TIP3    H126282   5.511   2.665   0.589  1.6692 -0.5956  0.9601
 1549TIP3    H226283   5.609   2.766   0.533  0.8761  0.0352  0.6879
 1550TIP3   OH226284   6.355   2.154   0.504 -0.0030 -0.0588  0.4831
 1550TIP3    H126285   6.391   2.135   0.417 -1.6059  0.2093 -0.2639
 1550TIP3    H226286   6.392   2.085   0.560 -0.7713 -1.6933 -0.8995
 1551TIP3   OH226287   2.864   4.415   8.267  0.9063 -0.3250  0.1198
 1551TIP3    H126288   2.884   4.430   8.175  0.1718 -3.3046 -0.6244
 1551TIP3    H226289   2.778   4.455   8.280  0.9822  0.0550 -0.4951
 1552TIP3   OH226290   2.534   3.721   6.840  0.5989 -0.2987  0.3554
 1552TIP3    H126291   2.607   3.745   6.896  1.7986 -0.2540 -1.1648
 1552TIP3    H226292   2.553   3.631   6.813  0.0361 -0.3285  0.0347
 1553TIP3   OH226293   0.014   4.144   7.042 -0.3883 -0.4663 -0.3009
 1553TIP3    H126294   0.021   4.167   7.134 -0.5685  1.0847 -0.6467
 1553TIP3    H226295  -0.066   4.188   7.011 -1.0825 -2.0731 -0.8953
 1554TIP3   OH226296   3.421   4.339   1.377  0.2672 -0.5968  0.0309
 1554TIP3    H126297   3.455   4.402   1.314  0.9594  0.6353  1.5784
 1554TIP3    H226298   3.330   4.365   1.391  0.3368 -0.4036  0.1179
 1555TIP3   OH226299   0.131   0.770   0.571  0.4150 -0.2941  0.6224
 1555TIP3    H126300   0.046   0.742   0.538  0.5799  1.1002 -1.1735
 1555TIP3    H226301   0.191   0.758   0.497  0.8422  2.8327  0.3145
 1556TIP3   OH226302   4.489   0.501   6.922 -0.0934 -0.0201 -0.3964
 1556TIP3    H126303   4.554   0.479   6.855 -1.4554 -3.3349 -0.8240
 1556TIP3    H226304   4.538   0.497   7.004  0.7164 -0.2112 -0.8746
 1557TIP3   OH226305   3.734   2.526   1.221  0.2219  0.1183 -0.1850
 1557TIP3    H126306   3.761   2.439   1.193 -1.2425  0.0832 -1.6401
 1557TIP3    H226307   3.686   2.512   1.302 -0.8935 -0.5737 -0.9490
 1558TIP3   OH226308   5.129   5.426   6.730  0.3620 -0.7572 -0.7779
 1558TIP3    H126309   5.076   5.352   6.699  1.1770 -1.7368  0.0856
 1558TIP3    H226310   5.142   5.408   6.823  0.6582  0.4430 -0.5699
 1559TIP3   OH226311   6.157   0.192   7.887  0.6405  0.4251 -0.2283
 1559TIP3    H126312   6.129   0.115   7.936 -1.4255  0.5641 -1.0879
 1559TIP3    H226313   6.192   0.251   7.954  0.7122 -0.5874  0.6555
 1560TIP3   OH226314   4.470   1.911   0.689 -0.4106 -0.0922 -0.3969
 1560TIP3    H126315   4.557   1.945   0.668 -0.5313  1.1417  0.9390
 1560TIP3    H226316   4.410   1.971   0.644 -0.5817 -0.4337 -0.6212
 1561TIP3   OH226317   3.654   2.552   1.468 -0.5791 -0.2079 -0.0660
 1561TIP3    H126318   3.635   2.639   1.502  2.0927  0.3275  0.2804
 1561TIP3    H226319   3.674   2.500   1.545 -0.6352 -0.7233 -0.3944
 1562TIP3   OH226320   6.268   0.293   0.795 -0.4066  0.0410 -0.0747
 1562TIP3    H126321   6.293   0.371   0.746 -0.4708  0.6366  0.8158
 1562TIP3    H226322   6.351   0.256   0.825 -0.3528 -0.4566 -0.8150
 1563TIP3   OH226323   3.610   2.764   7.481 -0.2529  0.3029 -0.3484
 1563TIP3    H126324   3.679   2.824   7.507  1.4706 -2.2737  1.6222
 1563TIP3    H226325   3.562   2.746   7.562 -1.1196 -0.4848 -1.0118
 1564TIP3   OH226326   0.671   1.341   7.325 -0.3833 -0.1320  0.2334
 1564TIP3    H126327   0.738   1.371   7.385 -0.0063 -0.8154  0.1700
 1564TIP3    H226328   0.717   1.283   7.265 -0.9565 -0.3008 -0.0526
 1565TIP3   OH226329   0.928   0.790   7.165 -0.4521 -0.8732 -0.5120
 1565TIP3    H126330   0.975   0.726   7.112 -0.4068 -1.0944 -0.2096
 1565TIP3    H226331   0.837   0.787   7.133 -0.0882  0.2294 -1.7340
 1566TIP3   OH226332   4.348   4.235   7.474  0.1627  0.1057 -0.3599
 1566TIP3    H126333   4.421   4.240   7.537  1.8819  0.0409 -2.2492
 1566TIP3    H226334   4.345   4.143   7.447 -0.7001  0.0894 -0.2298
 1567TIP3   OH226335   5.266   5.296   1.436 -0.1167  0.3666  0.2579
 1567TIP3    H126336   5.208   5.275   1.509  0.3265  1.2581  0.8807
 1567TIP3    H226337   5.323   5.219   1.428  0.5031  0.6797  1.5252
 1568TIP3   OH226338   0.341   0.669   8.056 -0.1961  0.2238  0.2185
 1568TIP3    H126339   0.414   0.729   8.068  0.2285 -0.1929 -0.2732
 1568TIP3    H226340   0.286   0.683   8.133  0.6203  0.2209  0.8063
 1569TIP3   OH226341   3.735   1.352   1.012  0.3283  1.1389 -0.1480
 1569TIP3    H126342   3.824   1.377   1.038  1.6850 -2.2052 -0.9895
 1569TIP3    H226343   3.748   1.276   0.954 -3.1381 -2.4032  3.1250
 1570TIP3   OH226344   1.347   6.803   2.118  0.0848  0.3661 -0.4623
 1570TIP3    H126345   1.334   6.730   2.178 -0.4070 -0.7304 -1.8306
 1570TIP3    H226346   1.411   6.859   2.161 -0.0608 -0.5006  0.9460
 1571TIP3   OH226347   5.858   3.208   1.712 -0.5047 -0.0182 -0.0526
 1571TIP3    H126348   5.879   3.127   1.759 -1.3109 -0.0559  0.2513
 1571TIP3    H226349   5.883   3.278   1.772 -0.1917 -0.0420 -0.1517
 1572TIP3   OH226350   6.126   0.951   1.320  0.5614 -0.2663  0.1103
 1572TIP3    H126351   6.194   0.898   1.280  1.2195  0.8320 -0.2692
 1572TIP3    H226352   6.155   0.962   1.411  1.1373  0.5774 -0.1677
 1573TIP3   OH226353   3.365   3.584   7.196 -0.1041  1.1307 -0.1106
 1573TIP3    H126354   3.287   3.552   7.243  0.9563  0.3058  1.1623
 1573TIP3    H226355   3.401   3.506   7.153  0.3112  1.4039 -0.2668
 1574TIP3   OH226356   0.951   4.109   0.253  0.5890 -0.3619 -0.0161
 1574TIP3    H126357   0.966   4.204   0.261  0.0733 -0.4282  2.4380
 1574TIP3    H226358   1.025   4.078   0.201  0.9905  1.3187 -0.5204
 1575TIP3   OH226359   4.956   2.910   0.179 -0.1605 -0.0445  0.1694
 1575TIP3    H126360   4.927   2.834   0.228 -1.0587  0.4242  0.4072
 1575TIP3    H226361   5.044   2.889   0.149 -0.0897 -0.8381  0.9184
 1576TIP3   OH226362   5.237   5.009   0.497  0.4251  0.9814 -0.2944
 1576TIP3    H126363   5.149   5.009   0.535  0.6182  1.3799  0.1630
 1576TIP3    H226364   5.245   5.094   0.453  1.0924  1.5568  0.8962
 1577TIP3   OH226365   3.468   2.513   8.144 -0.0512 -0.3238  0.0189
 1577TIP3    H126366   3.532   2.519   8.216 -0.9377  0.6998  0.7554
 1577TIP3    H226367   3.500   2.441   8.090  0.9533 -0.7552  1.1371
 1578TIP3   OH226368   5.232   3.625   8.589  0.0879  0.7050  0.4391
 1578TIP3    H126369   5.204   3.654   8.676 -1.4927  0.6791 -0.0302
 1578TIP3    H226370   5.300   3.689   8.564  0.8011  0.5192  1.7945
 1579TIP3   OH226371   3.921   2.863   6.889 -0.0990 -0.7056  0.5339
 1579TIP3    H126372   3.917   2.873   6.794 -0.7396  2.7470  0.8002
 1579TIP3    H226373   3.835   2.831   6.914  0.3272 -2.4084 -0.0430
 1580TIP3   OH226374   5.284   1.163   5.658 -0.1481  0.3740 -0.1525
 1580TIP3    H126375   5.263   1.078   5.619  1.3376  0.7691 -1.9302
 1580TIP3    H226376   5.365   1.147   5.708 -1.0234  0.3015  1.3045
 1581TIP3   OH226377   6.213   1.800   6.608  0.3988  0.5895  0.3284
 1581TIP3    H126378   6.121   1.812   6.586 -0.4440 -0.9754  2.7216
 1581TIP3    H226379   6.235   1.713   6.576  0.9011  0.7113  0.3263
 1582TIP3   OH226380   2.979   1.245   6.164 -0.0565 -0.3155  0.1356
 1582TIP3    H126381   2.919   1.286   6.101 -1.5202  0.0211  1.6618
 1582TIP3    H226382   2.922   1.201   6.227  1.4098 -2.1573  0.2658
 1583TIP3   OH226383   2.453   3.968   1.464 -0.0211 -0.2351  0.2455
 1583TIP3    H126384   2.442   4.006   1.551 -2.0482 -1.3766  0.5579
 1583TIP3    H226385   2.476   4.043   1.408  0.4151  0.6722  1.5872
 1584TIP3   OH226386   4.620   0.503   7.169  0.6081 -0.0666 -0.2322
 1584TIP3    H126387   4.695   0.512   7.228 -0.2041 -2.0346  1.2310
 1584TIP3    H226388   4.547   0.540   7.217  0.1221 -0.7506 -0.4257
 1585TIP3   OH226389   5.317   0.220   8.036 -0.1521 -0.2477 -0.0004
 1585TIP3    H126390   5.409   0.232   8.057 -0.0415 -0.9842 -0.0442
 1585TIP3    H226391   5.315   0.214   7.940 -0.3618  0.6627 -0.0651
 1586TIP3   OH226392   5.581   0.242   8.083  0.7324 -0.2627 -0.2033
 1586TIP3    H126393   5.621   0.313   8.033  0.8754  0.5323  1.0116
 1586TIP3    H226394   5.616   0.251   8.171 -2.0668  0.4654  0.9365
 1587TIP3   OH226395   4.849   1.218   6.618 -0.8014  0.3374  0.4311
 1587TIP3    H126396   4.881   1.164   6.546  1.1847 -0.9621  2.1667
 1587TIP3    H226397   4.921   1.280   6.634 -1.1713  0.5367  1.3555
 1588TIP3   OH226398   2.829   1.939   1.668 -0.2604  0.2415  0.3878
 1588TIP3    H126399   2.863   1.871   1.727  1.9760  0.1505 -0.9075
 1588TIP3    H226400   2.834   1.900   1.581 -0.0517  1.6268 -0.2522
 1589TIP3   OH226401   2.159   1.277   7.764 -0.7607  0.5190 -0.5003
 1589TIP3    H126402   2.220   1.306   7.696  0.0167 -2.6264 -1.3101
 1589TIP3    H226403   2.072   1.297   7.728 -0.3469 -0.3910 -2.1155
 1590TIP3   OH226404   0.214   4.908   2.434  0.0266 -0.7351  0.0062
 1590TIP3    H126405   0.145   4.974   2.433 -0.2005 -0.8355  2.4559
 1590TIP3    H226406   0.172   4.830   2.468  1.0319 -1.1920  0.2312
 1591TIP3   OH226407   3.881   3.351   8.547  0.2168 -0.2723  0.5477
 1591TIP3    H126408   3.934   3.352   8.627  0.8689 -1.1681  0.1523
 1591TIP3    H226409   3.793   3.327   8.577  0.6653 -1.5497  0.8940
 1592TIP3   OH226410   2.601   0.092   1.215 -0.3953 -0.4612  0.4925
 1592TIP3    H126411   2.686   0.049   1.219  0.3012  0.9102  1.4644
 1592TIP3    H226412   2.555   0.050   1.143  0.6843 -1.9871  0.6628
 1593TIP3   OH226413   6.314   2.821   7.825  0.7533  0.1458 -0.1554
 1593TIP3    H126414   6.273   2.761   7.763  0.8388 -2.0322  1.7621
 1593TIP3    H226415   6.253   2.826   7.898  2.4178 -0.6663  1.3681
 1594TIP3   OH226416   2.169   0.092   8.390 -0.6220  0.7744  0.3294
 1594TIP3    H126417   2.241   0.156   8.394 -1.1573  1.3629  0.9575
 1594TIP3    H226418   2.092   0.145   8.370 -0.9904  0.2416  0.3351
 1595TIP3   OH226419   2.238   6.341   8.069  0.2571  0.0418  0.4845
 1595TIP3    H126420   2.282   6.409   8.018  0.0152  0.1031  0.3518
 1595TIP3    H226421   2.305   6.306   8.127  0.1451  1.0959  1.2847
 1596TIP3   OH226422   1.618   5.116   8.199  0.6055  0.2151 -0.1407
 1596TIP3    H126423   1.695   5.137   8.146  0.3564  0.0546 -0.5776
 1596TIP3    H226424   1.586   5.200   8.230  1.9089  0.1803  1.4309
 1597TIP3   OH226425   4.025   1.606   0.014 -0.4984  0.5191  0.3916
 1597TIP3    H126426   4.082   1.603  -0.064  0.5356 -1.2239  1.1466
 1597TIP3    H226427   4.033   1.695   0.046  1.5309  0.4488  0.2215
 1598TIP3   OH226428   1.496   6.400   7.317  0.1535 -0.2293 -0.2222
 1598TIP3    H126429   1.569   6.387   7.379  0.7926 -0.2326 -0.9584
 1598TIP3    H226430   1.539   6.418   7.233 -0.7021 -0.4225 -0.7121
 1599TIP3   OH226431   1.945   0.526   7.439  0.4156 -0.2252 -0.0513
 1599TIP3    H126432   2.006   0.473   7.387  0.9623  1.6547 -1.4463
 1599TIP3    H226433   1.865   0.527   7.387 -0.1708 -1.0181  0.7982
 1600TIP3   OH226434   1.671   1.738   0.721  0.6840 -0.2821  0.1885
 1600TIP3    H126435   1.680   1.827   0.757 -0.8971 -1.2870  3.4251
 1600TIP3    H226436   1.577   1.719   0.729  0.7510 -1.7434 -1.8933
 1601TIP3   OH226437   0.736   1.236   8.584  0.2885  0.6742  0.1349
 1601TIP3    H126438   0.809   1.258   8.527  0.1882  2.7129  0.7166
 1601TIP3    H226439   0.660   1.277   8.543 -0.3371 -0.4599  0.1300
 1602TIP3   OH226440   1.912   0.286   0.976 -0.2212  0.5406 -0.2224
 1602TIP3    H126441   1.927   0.371   1.018  0.2108  0.1926  0.3426
 1602TIP3    H226442   1.966   0.225   1.026  0.3882  0.1285 -1.3446
 1603TIP3   OH226443   0.323   4.434   8.455  0.0148  0.7481  0.6067
 1603TIP3    H126444   0.241   4.457   8.411  0.5248  2.3659  0.4315
 1603TIP3    H226445   0.391   4.468   8.397  0.9547 -2.3519 -0.2802
 1604TIP3   OH226446   0.104   5.644   0.263  0.0053  0.3392 -0.0962
 1604TIP3    H126447   0.085   5.672   0.353 -0.3647  0.1659 -0.1157
 1604TIP3    H226448   0.149   5.718   0.223  1.3207 -0.0438  0.6078
 1605TIP3   OH226449   3.822   6.428   1.509  0.2404  0.3878 -0.2027
 1605TIP3    H126450   3.849   6.415   1.600  0.6511 -1.4249 -0.5341
 1605TIP3    H226451   3.869   6.506   1.481  2.9848 -1.0178  0.1321
 1606TIP3   OH226452   2.407   6.714   7.289  0.0359  0.0981 -0.2808
 1606TIP3    H126453   2.414   6.805   7.258  0.7265  0.0215 -0.3652
 1606TIP3    H226454   2.488   6.699   7.337 -0.0718 -0.4836 -0.2785
 1607TIP3   OH226455   1.314   3.504   6.559  0.0234 -0.0986  0.0623
 1607TIP3    H126456   1.340   3.562   6.487 -1.7746 -1.2777 -1.6268
 1607TIP3    H226457   1.290   3.422   6.517  2.2163 -2.0811  2.3713
 1608TIP3   OH226458   6.608   3.022   7.181 -0.2448 -0.0929  0.2023
 1608TIP3    H126459   6.525   3.005   7.137  0.1426  0.8209 -0.9420
 1608TIP3    H226460   6.640   2.936   7.207 -1.2708 -0.5039  0.1597
 1609TIP3   OH226461   5.472   1.622   0.809 -0.5245 -0.0921  0.5207
 1609TIP3    H126462   5.491   1.695   0.750  1.2869  0.0468  1.2204
 1609TIP3    H226463   5.540   1.557   0.791 -2.2658 -1.7990 -0.3032
 1610TIP3   OH226464   5.015   1.653   6.090  0.1657 -0.2689 -0.2591
 1610TIP3    H126465   4.975   1.682   6.008 -0.2695 -1.4735 -0.4846
 1610TIP3    H226466   4.946   1.663   6.156 -0.5546 -2.3270 -0.6444
 1611TIP3   OH226467   3.404   0.422   8.501  0.2001  0.2281  0.3463
 1611TIP3    H126468   3.397   0.477   8.578  0.8058 -0.1689  0.7032
 1611TIP3    H226469   3.477   0.459   8.452 -0.5324  0.8092 -0.3250
 1612TIP3   OH226470   6.761   0.916   8.078 -0.0087 -0.1884  0.2041
 1612TIP3    H126471   6.832   0.856   8.058  1.1451  0.8574  1.0009
 1612TIP3    H226472   6.709   0.920   7.998  1.1078 -0.5998 -0.5624
 1613TIP3   OH226473   0.676   0.295   0.740  0.2995  0.3970  0.1415
 1613TIP3    H126474   0.675   0.373   0.684  0.2198 -0.7313 -1.4922
 1613TIP3    H226475   0.590   0.255   0.726  0.8438 -0.7084 -0.1139
 1614TIP3   OH226476   3.339   2.383   7.450  0.4766  0.6731  0.2403
 1614TIP3    H126477   3.337   2.398   7.356  0.1952  0.8202  0.2694
 1614TIP3    H226478   3.354   2.289   7.460 -0.1589  0.5499  0.0459
 1615TIP3   OH226479   4.946   5.066   7.916  0.2513  0.0116 -0.0691
 1615TIP3    H126480   4.981   5.154   7.932 -1.7171  0.8969 -0.3404
 1615TIP3    H226481   4.884   5.077   7.844 -0.1221 -1.5928 -0.0415
 1616TIP3   OH226482   6.560   5.044   0.517 -0.6015  0.4829  0.3876
 1616TIP3    H126483   6.533   5.027   0.427 -0.9632 -1.2341  0.7863
 1616TIP3    H226484   6.559   4.958   0.559  1.7387  0.9028  1.4565
 1617TIP3   OH226485   3.165   0.655   1.470  0.2351  0.2714 -0.4741
 1617TIP3    H126486   3.188   0.688   1.382 -1.5675  0.2798 -0.9748
 1617TIP3    H226487   3.129   0.568   1.454 -1.8033  0.9680  0.0141
 1618TIP3   OH226488   2.791   5.303   8.231 -0.0823  0.0292 -0.1714
 1618TIP3    H126489   2.867   5.284   8.286  0.5416 -0.2419 -1.1052
 1618TIP3    H226490   2.808   5.391   8.198 -1.0091  0.6534  0.9448
 1619TIP3   OH226491   3.380   2.002   6.531  0.1774 -0.3255 -0.0735
 1619TIP3    H126492   3.386   1.998   6.436 -1.6909 -1.3922 -0.2131
 1619TIP3    H226493   3.341   2.087   6.549  0.9950  0.0856 -0.2106
 1620TIP3   OH226494   3.995   2.296   0.693  0.0592 -0.0122 -0.1201
 1620TIP3    H126495   3.914   2.305   0.642  0.3724  0.0905 -0.5996
 1620TIP3    H226496   4.013   2.384   0.725 -0.0274 -0.0384  0.0016
 1621TIP3   OH226497   4.036   4.376   0.066  0.1303 -0.2086 -0.2975
 1621TIP3    H126498   4.069   4.293   0.098 -0.1698 -0.0126  0.5519
 1621TIP3    H226499   4.003   4.357  -0.022 -1.0126 -1.2615  0.3240
 1622TIP3   OH226500   1.696   2.189   6.003 -0.0187 -0.9400  0.0867
 1622TIP3    H126501   1.631   2.186   6.074 -1.0180 -2.5078 -0.8335
 1622TIP3    H226502   1.659   2.133   5.935  2.1819 -1.6197 -0.6009
 1623TIP3   OH226503   0.801   5.024   1.117  0.1735 -0.7427 -0.4050
 1623TIP3    H126504   0.819   5.116   1.097  1.1160 -1.1928 -1.7733
 1623TIP3    H226505   0.713   5.008   1.081 -1.2583  0.2915  2.3231
 1624TIP3   OH226506   5.197   1.088   7.759 -0.5275  0.0442 -0.0564
 1624TIP3    H126507   5.253   1.156   7.723 -1.8039  1.2576  0.1451
 1624TIP3    H226508   5.255   1.034   7.814  0.6523  0.4836 -0.8440
 1625TIP3   OH226509   1.420   1.879   5.996  0.2495  0.5268  0.6062
 1625TIP3    H126510   1.415   1.784   5.991 -1.3049  0.6422 -1.6505
 1625TIP3    H226511   1.399   1.900   6.087  0.4754 -1.2639  1.1090
 1626TIP3   OH226512   5.567   5.692   1.547  0.9908  0.1547  0.1666
 1626TIP3    H126513   5.565   5.773   1.498  1.5223  0.5088  0.7129
 1626TIP3    H226514   5.630   5.637   1.501 -0.5346 -0.5699 -1.1252
 1627TIP3   OH226515   6.764   0.023   1.975  0.2008 -0.2505 -0.1299
 1627TIP3    H126516   6.745  -0.033   2.050 -0.2189  0.4906  0.3382
 1627TIP3    H226517   6.716  -0.016   1.903 -0.5325 -0.2026  0.3166
 1628TIP3   OH226518   6.041   4.160   0.588  0.1322  0.1370  0.2111
 1628TIP3    H126519   6.127   4.188   0.558  0.4294 -0.8626  0.0894
 1628TIP3    H226520   6.020   4.219   0.660  1.7881 -0.8345  1.5479
 1629TIP3   OH226521   5.835   0.395   5.991 -0.0266 -0.5240  0.2643
 1629TIP3    H126522   5.852   0.435   6.077 -1.8149 -0.9598  0.8599
 1629TIP3    H226523   5.841   0.468   5.929 -2.0337  0.5092  1.1874
 1630TIP3   OH226524   1.835   4.773   6.804  0.0375 -0.5453  0.0003
 1630TIP3    H126525   1.858   4.680   6.805 -1.8789 -1.0907 -0.8534
 1630TIP3    H226526   1.739   4.773   6.807 -0.0121  1.3791 -0.5887
 1631TIP3   OH226527   0.035   5.721   6.079 -0.6960 -0.1162  0.1992
 1631TIP3    H126528   0.029   5.774   6.000  1.0998  1.0886  0.8006
 1631TIP3    H226529  -0.012   5.641   6.058 -1.8086  0.9123 -1.4375
 1632TIP3   OH226530   5.153   1.764   0.495 -0.3462 -0.3137  0.5735
 1632TIP3    H126531   5.170   1.704   0.567  0.1344 -0.0882  0.6556
 1632TIP3    H226532   5.238   1.805   0.477 -0.6524  0.3128  0.4976
 1633TIP3   OH226533   1.306   5.862   6.990 -0.4639  0.3065 -0.6522
 1633TIP3    H126534   1.343   5.834   7.074 -1.4932  1.6832  0.3009
 1633TIP3    H226535   1.259   5.784   6.958 -1.2299  0.1485  0.7554
 1634TIP3   OH226536   0.701   4.707   6.476  0.3901 -0.1430 -0.1345
 1634TIP3    H126537   0.646   4.699   6.553  0.8420  0.0460  0.2112
 1634TIP3    H226538   0.769   4.640   6.486 -1.1353 -2.0591 -1.7467
 1635TIP3   OH226539   1.283   3.961   0.317 -0.0234 -0.0683  0.4239
 1635TIP3    H126540   1.339   3.885   0.332 -0.5442 -0.3094  1.1681
 1635TIP3    H226541   1.305   3.990   0.228  1.0801 -0.3222  0.6081
 1636TIP3   OH226542   2.746   1.550   8.082 -0.3477 -0.0492  0.1081
 1636TIP3    H126543   2.756   1.470   8.030  0.5865  0.2074 -0.1247
 1636TIP3    H226544   2.805   1.539   8.156 -0.9083  0.0328  0.5738
 1637TIP3   OH226545   5.713   0.838   6.574 -0.5342 -0.0940  0.0080
 1637TIP3    H126546   5.675   0.763   6.527 -2.6390  0.6049  0.5119
 1637TIP3    H226547   5.692   0.822   6.666 -1.5273  1.3739  0.0681
 1638TIP3   OH226548   0.831   4.174   0.594 -0.6050 -0.3441  0.0157
 1638TIP3    H126549   0.858   4.135   0.512  0.2376 -0.6777  0.4413
 1638TIP3    H226550   0.806   4.264   0.571  0.7602 -0.0495 -0.4260
 1639TIP3   OH226551   1.448   3.431   8.133 -0.5833  0.5937  0.0610
 1639TIP3    H126552   1.418   3.521   8.119 -0.0076  0.8496  0.4255
 1639TIP3    H226553   1.536   3.429   8.095 -0.1288  0.5126  1.0896
 1640TIP3   OH226554   4.533   0.882   0.208  0.4059  0.6937  0.0226
 1640TIP3    H126555   4.529   0.793   0.243 -0.7652  0.5954 -0.3360
 1640TIP3    H226556   4.458   0.888   0.149  1.9299  1.0556 -2.0182
 1641TIP3   OH226557   4.634   3.245   1.576 -0.4610  0.3337 -0.5702
 1641TIP3    H126558   4.688   3.248   1.655  0.1391 -1.2395 -0.8782
 1641TIP3    H226559   4.602   3.155   1.573  0.4253  0.0343 -2.6784
 1642TIP3   OH226560   5.076   6.681   7.503 -0.5240  0.2804 -0.2104
 1642TIP3    H126561   4.984   6.654   7.497 -0.3422 -0.2228 -0.8272
 1642TIP3    H226562   5.099   6.667   7.595 -0.2752 -2.2933 -0.5783
 1643TIP3   OH226563   3.205   3.632   6.305  0.1815  0.6943  0.1144
 1643TIP3    H126564   3.167   3.709   6.348  2.6998  0.9246  2.1681
 1643TIP3    H226565   3.285   3.665   6.264  1.1529 -0.7617  0.7733
 1644TIP3   OH226566   1.224   3.641   1.650 -0.2050  0.0392  0.0204
 1644TIP3    H126567   1.313   3.665   1.622 -0.5145  0.6610 -0.4618
 1644TIP3    H226568   1.233   3.620   1.743  0.5756 -0.6080 -0.1949
 1645TIP3   OH226569   5.243   1.322   8.394  0.0942  0.7042 -0.5491
 1645TIP3    H126570   5.306   1.289   8.330 -0.2486  1.1503 -1.1267
 1645TIP3    H226571   5.204   1.244   8.433 -0.2814  0.4231 -1.4710
 1646TIP3   OH226572   1.136   3.599   0.531 -0.6976  0.1356  0.3841
 1646TIP3    H126573   1.207   3.561   0.480  0.4251 -0.3352  2.1806
 1646TIP3    H226574   1.180   3.655   0.595 -1.9499  0.0271  1.3840
 1647TIP3   OH226575   4.175   0.892   7.718  0.3718 -0.1214  0.5564
 1647TIP3    H126576   4.153   0.851   7.802 -0.8923 -0.6513 -0.0203
 1647TIP3    H226577   4.125   0.974   7.718  0.8950  0.2009  0.6025
 1648TIP3   OH226578   3.827   3.721   0.594  0.5397 -0.1884 -0.1687
 1648TIP3    H126579   3.782   3.689   0.517  0.1478 -0.0685  0.0080
 1648TIP3    H226580   3.829   3.816   0.584 -0.8877 -0.0394  0.6990
 1649TIP3   OH226581   2.721   5.930   8.585  0.0787  0.0616  0.2721
 1649TIP3    H126582   2.684   5.990   8.650 -0.3663  1.0103 -0.8284
 1649TIP3    H226583   2.648   5.873   8.560 -0.3960  1.2212 -1.0912
 1650TIP3   OH226584   2.280   2.223   6.695 -0.6817 -0.2003 -0.3707
 1650TIP3    H126585   2.219   2.149   6.699 -1.3510  0.3935  1.0691
 1650TIP3    H226586   2.225   2.299   6.677 -0.2416  0.2225  0.0547
 1651TIP3   OH226587   5.112   4.603   8.019 -0.0283 -0.4776  0.4035
 1651TIP3    H126588   5.069   4.594   8.104  1.9018 -2.3289  1.2762
 1651TIP3    H226589   5.065   4.674   7.976 -0.7076  0.9591  3.2489
 1652TIP3   OH226590   2.380   2.532   1.132 -0.0868  0.5491 -0.0192
 1652TIP3    H126591   2.464   2.534   1.086  0.0097  3.8060  0.1205
 1652TIP3    H226592   2.342   2.619   1.119 -3.1168 -0.5408  0.6087
 1653TIP3   OH226593   3.996   4.100   1.172  0.3368  0.2792  0.1897
 1653TIP3    H126594   3.974   4.192   1.153  1.3438  0.4991  0.0119
 1653TIP3    H226595   4.079   4.105   1.220  0.7421 -0.5730 -0.4041
 1654TIP3   OH226596   0.671   0.312   7.620  0.1503 -0.0786  0.1449
 1654TIP3    H126597   0.709   0.276   7.700 -0.6275 -0.8446  0.1786
 1654TIP3    H226598   0.577   0.300   7.630 -0.2241  2.4758  0.3901
 1655TIP3   OH226599   0.500   2.154   0.735 -0.3740 -0.0495 -0.0251
 1655TIP3    H126600   0.546   2.188   0.657  0.6495 -1.1057  0.0941
 1655TIP3    H226601   0.442   2.085   0.701  0.1316 -0.5658  0.1487
 1656TIP3   OH226602   0.891   6.319   0.106  0.1763  0.1907  0.4979
 1656TIP3    H126603   0.900   6.326   0.011 -0.6827 -1.6643  0.2271
 1656TIP3    H226604   0.981   6.318   0.138  0.5921 -1.4672 -0.5484
 1657TIP3   OH226605   1.989   1.125   1.624 -0.2719 -0.5719 -0.1141
 1657TIP3    H126606   1.904   1.164   1.601 -0.6100 -0.7249  0.8139
 1657TIP3    H226607   1.970   1.033   1.637  0.0511 -0.6192  0.0285
 1658TIP3   OH226608   5.450   5.614   7.390  0.0924 -0.6113 -0.1234
 1658TIP3    H126609   5.402   5.560   7.453 -0.2503 -0.6521 -0.4162
 1658TIP3    H226610   5.434   5.572   7.306  3.1545 -2.5133  0.0540
 1659TIP3   OH226611   2.820   0.368   7.360  0.3430  0.1304 -0.0725
 1659TIP3    H126612   2.834   0.428   7.434 -0.1135  0.0952  0.0412
 1659TIP3    H226613   2.909   0.344   7.333  0.6109  2.1172 -1.1695
 1660TIP3   OH226614   3.123   1.940   1.696 -0.1961  0.3053  0.0805
 1660TIP3    H126615   3.089   1.953   1.784 -0.2252 -0.2968  0.1608
 1660TIP3    H226616   3.215   1.965   1.701 -0.2857  0.6092  0.1977
 1661TIP3   OH226617   1.306   3.134   8.350 -0.1322 -0.3295 -0.1390
 1661TIP3    H126618   1.285   3.043   8.327 -1.8709 -0.1556  0.6530
 1661TIP3    H226619   1.394   3.129   8.387 -0.2863 -1.7317  0.0923
 1662TIP3   OH226620   4.338   1.380   8.185  0.0934  0.3025 -0.4951
 1662TIP3    H126621   4.398   1.343   8.121  1.6269 -1.0451  1.5975
 1662TIP3    H226622   4.395   1.420   8.251 -1.4141  1.6243  0.0721
 1663TIP3   OH226623   5.376   6.037   7.570 -0.2433 -0.2386  0.6594
 1663TIP3    H126624   5.294   6.033   7.522 -0.8836 -3.0381  1.7942
 1663TIP3    H226625   5.404   5.946   7.579  4.8511  0.5794 -2.5710
 1664TIP3   OH226626   2.101   3.465   8.171  0.5510 -0.1895  0.0919
 1664TIP3    H126627   2.170   3.461   8.237  0.2178  0.3907  0.4799
 1664TIP3    H226628   2.140   3.512   8.098 -0.0871  2.1149  1.1516
 1665TIP3   OH226629   5.611   2.943   8.598  0.2712  0.1691 -0.1179
 1665TIP3    H126630   5.663   2.993   8.535  0.8085 -0.4994 -0.2116
 1665TIP3    H226631   5.618   2.852   8.569  1.3214 -0.2885  1.4305
 1666TIP3   OH226632   4.372   3.825   0.163  0.1228  0.0769  0.3905
 1666TIP3    H126633   4.316   3.751   0.185  0.4262 -0.6468 -1.0993
 1666TIP3    H226634   4.359   3.837   0.069  2.1196  0.1580  0.0800
 1667TIP3   OH226635   4.987   1.127   0.581  0.3017  0.0570  0.2452
 1667TIP3    H126636   5.016   1.212   0.548 -1.3110  0.1953 -0.9486
 1667TIP3    H226637   5.013   1.065   0.512 -1.0509  0.0154 -0.2555
 1668TIP3   OH226638   0.243   5.904   8.429  0.2084 -0.2877 -0.2406
 1668TIP3    H126639   0.193   5.916   8.348 -0.5879 -1.8821 -0.0207
 1668TIP3    H226640   0.179   5.915   8.499  0.6768  0.0414  0.1437
 1669TIP3   OH226641   5.582   1.165   6.620  0.1715  0.8245  0.1727
 1669TIP3    H126642   5.549   1.116   6.544  1.0243  0.1944  0.1930
 1669TIP3    H226643   5.642   1.104   6.664  0.7095  1.6378  0.5984
 1670TIP3   OH226644   3.718   0.877   7.386  0.3774  0.6091  0.1811
 1670TIP3    H126645   3.688   0.933   7.458 -0.8209  0.8772 -0.4998
 1670TIP3    H226646   3.762   0.804   7.429 -0.4307  0.6994  1.1865
 1671TIP3   OH226647   0.129   6.795   7.771  0.3902  0.6062 -0.3943
 1671TIP3    H126648   0.129   6.885   7.804 -1.1073 -0.5021  3.1302
 1671TIP3    H226649   0.173   6.745   7.840 -0.5160 -1.6405 -1.3728
 1672TIP3   OH226650   3.120   0.494   6.629 -0.3821  0.0846 -0.2992
 1672TIP3    H126651   3.121   0.471   6.536 -1.9781  0.8143 -0.5279
 1672TIP3    H226652   3.203   0.460   6.663 -0.5296 -1.7475 -1.6114
 1673TIP3   OH226653   3.907   5.454   0.738  0.2169  0.2029 -0.0653
 1673TIP3    H126654   3.871   5.427   0.653  0.1248  0.0002  0.0370
 1673TIP3    H226655   3.831   5.481   0.789  0.2411  0.0530  0.0502
 1674TIP3   OH226656   6.833   6.601   7.817 -0.8883  0.5355  0.2891
 1674TIP3    H126657   6.907   6.652   7.787 -2.3550  1.4571 -1.9499
 1674TIP3    H226658   6.855   6.578   7.908  1.5835  1.7160  0.0535
 1675TIP3   OH226659   4.535   5.931   7.268  0.0392  0.1378 -0.1484
 1675TIP3    H126660   4.597   5.874   7.314 -0.1175 -0.9254 -1.2099
 1675TIP3    H226661   4.502   5.990   7.336  0.1021 -1.1251  1.0253
 1676TIP3   OH226662   4.605   2.703   8.502 -0.5139  0.1938 -0.9419
 1676TIP3    H126663   4.569   2.735   8.585  1.0807 -0.4661  0.0635
 1676TIP3    H226664   4.535   2.717   8.439 -1.8707  0.5286  0.5516
 1677TIP3   OH226665   4.261   1.267   1.425  0.5825  0.0350  0.5972
 1677TIP3    H126666   4.258   1.282   1.520  0.5585 -0.2390  0.6403
 1677TIP3    H226667   4.197   1.328   1.389 -0.4708 -0.8652  0.8859
 1678TIP3   OH226668   0.390   3.651   1.152 -0.1578 -0.0577 -0.2995
 1678TIP3    H126669   0.359   3.604   1.230  0.8766  0.4326  0.4200
 1678TIP3    H226670   0.319   3.713   1.132  0.1182  0.7262  1.0495
 1679TIP3   OH226671   0.258   5.177   1.424  0.3357 -0.0913 -0.1116
 1679TIP3    H126672   0.290   5.132   1.502  1.8946  2.5676  0.9178
 1679TIP3    H226673   0.333   5.178   1.364  0.0406  0.3067 -0.4869
 1680TIP3   OH226674   1.609   3.942   1.901 -0.2509  0.4038  0.1145
 1680TIP3    H126675   1.662   4.019   1.878  0.8842 -0.9487 -2.1031
 1680TIP3    H226676   1.672   3.877   1.930 -1.0129 -0.2670  0.3054
 1681TIP3   OH226677   3.796   3.440   0.601 -0.7364 -0.5185  0.5401
 1681TIP3    H126678   3.801   3.534   0.613 -0.9218 -0.4759  0.2853
 1681TIP3    H226679   3.713   3.414   0.641  0.0084 -0.7946  1.9862
 1682TIP3   OH226680   4.045   5.808   0.774  0.1167 -0.1028  1.4060
 1682TIP3    H126681   3.988   5.751   0.723  0.7639 -0.0130  0.5572
 1682TIP3    H226682   3.988   5.879   0.804 -0.2953 -0.2054  0.8700
 1683TIP3   OH226683   2.668   1.308   6.698  0.1019 -0.3489  0.0715
 1683TIP3    H126684   2.603   1.342   6.637  1.8506  0.6264 -1.3475
 1683TIP3    H226685   2.698   1.384   6.746  1.5686 -0.4035 -0.6888
 1684TIP3   OH226686   4.158   5.805   6.689 -0.0481  0.4183  0.3790
 1684TIP3    H126687   4.161   5.885   6.636 -0.1175 -0.1125 -0.4492
 1684TIP3    H226688   4.250   5.785   6.707  0.0044  0.3099  0.0011
 1685TIP3   OH226689   2.324   6.042   1.260  0.2011 -0.0189  0.0574
 1685TIP3    H126690   2.277   6.122   1.282  1.5574  0.5726  0.8679
 1685TIP3    H226691   2.341   6.000   1.344  1.0474 -0.2759 -0.2356
 1686TIP3   OH226692   6.431   6.366   1.376  0.6640 -0.0699  0.1107
 1686TIP3    H126693   6.445   6.444   1.431  1.2891  0.0371 -0.1816
 1686TIP3    H226694   6.396   6.300   1.436 -2.3582  1.1723 -0.1330
 1687TIP3   OH226695   4.462   5.042   7.054  0.0865  0.3790 -0.4325
 1687TIP3    H126696   4.549   5.027   7.091 -0.4851 -1.8719  0.1527
 1687TIP3    H226697   4.405   4.981   7.101 -1.6715  1.2397 -1.3538
 1688TIP3   OH226698   2.158   5.633   0.493 -0.1796  0.6232  0.4810
 1688TIP3    H126699   2.130   5.724   0.507 -1.1570  0.1727  1.7822
 1688TIP3    H226700   2.174   5.600   0.582  0.7662 -0.2928 -0.0205
 1689TIP3   OH226701   5.333   4.661   1.435  0.1534 -0.2455  0.3371
 1689TIP3    H126702   5.409   4.606   1.419  0.4752  0.5968 -1.3610
 1689TIP3    H226703   5.357   4.715   1.510 -0.0934 -2.2038  1.9044
 1690TIP3   OH226704   1.830   0.373   1.366 -0.3877 -0.1490 -0.6789
 1690TIP3    H126705   1.823   0.336   1.453  1.1376  2.6552  0.7844
 1690TIP3    H226706   1.740   0.371   1.332 -1.3157 -0.0260  1.5676
 1691TIP3   OH226707   3.391   6.269   1.482 -0.0549 -0.3315  0.4101
 1691TIP3    H126708   3.438   6.276   1.565  1.4693  2.1417 -0.5338
 1691TIP3    H226709   3.461   6.261   1.417 -1.1829 -1.2360 -0.7369
 1692TIP3   OH226710   2.208   3.231   0.873 -0.3001 -0.0713  0.7159
 1692TIP3    H126711   2.291   3.269   0.843  0.4578 -0.9398  1.6307
 1692TIP3    H226712   2.217   3.137   0.853 -1.8419  0.0688 -0.8616
 1693TIP3   OH226713   5.961   3.157   8.499 -0.1314  0.3592 -0.0414
 1693TIP3    H126714   5.884   3.145   8.444 -0.5527 -0.3427  0.6816
 1693TIP3    H226715   5.968   3.252   8.509 -0.5942  0.4509 -0.5296
 1694TIP3   OH226716   4.842   0.358   1.021  0.1944  0.1184  0.0621
 1694TIP3    H126717   4.917   0.416   1.033 -0.3814  0.9858 -0.4485
 1694TIP3    H226718   4.769   0.417   1.004  0.0284 -0.8144 -2.9612
 1695TIP3   OH226719   1.417   3.644   2.222  0.0642 -0.2627  0.1194
 1695TIP3    H126720   1.414   3.549   2.222 -2.0414 -0.2257 -0.1892
 1695TIP3    H226721   1.482   3.666   2.290  0.3444 -1.8853  0.4056
 1696TIP3   OH226722   3.994   0.004   7.715 -0.4494 -0.0239  0.2666
 1696TIP3    H126723   3.928   0.002   7.646 -1.5012 -1.8486  1.2530
 1696TIP3    H226724   4.066  -0.048   7.681 -1.1005 -1.1958  0.6199
 1697TIP3   OH226725   4.406   0.217   1.512  0.8870 -0.4459 -0.2619
 1697TIP3    H126726   4.487   0.172   1.490  0.4140 -1.5192  0.1265
 1697TIP3    H226727   4.337   0.155   1.490  0.2109  0.1142  0.2186
 1698TIP3   OH226728   0.054   2.994   0.377 -0.0589 -0.5952 -0.4625
 1698TIP3    H126729   0.049   3.079   0.421 -1.5145 -0.3972 -0.9500
 1698TIP3    H226730   0.114   3.009   0.304 -1.1089  0.3352 -1.1698
 1699TIP3   OH226731   1.527   2.421   7.267  0.0907 -0.8334 -0.2192
 1699TIP3    H126732   1.461   2.361   7.234 -0.7192  0.9561 -2.0820
 1699TIP3    H226733   1.479   2.503   7.283  1.4613 -0.1426  0.5613
 1700TIP3   OH226734   3.955   6.257   0.612  0.1133  0.2765  0.9219
 1700TIP3    H126735   4.042   6.224   0.588 -0.2511 -0.2324  0.2699
 1700TIP3    H226736   3.957   6.349   0.586  0.0796 -0.0130 -0.1641
 1701TIP3   OH226737   0.421   3.674   1.478 -0.1669  0.1600 -0.2749
 1701TIP3    H126738   0.446   3.603   1.537  0.6942 -0.8374 -1.7822
 1701TIP3    H226739   0.326   3.681   1.488 -0.2022 -0.9107  0.1997
 1702TIP3   OH226740   2.468   1.470   1.284 -0.2037 -0.1248  0.0896
 1702TIP3    H126741   2.384   1.479   1.329  0.6648 -0.3764  1.8352
 1702TIP3    H226742   2.464   1.535   1.213 -2.2172 -0.7916 -0.4546
 1703TIP3   OH226743   4.191   3.561   8.330 -0.1549 -0.7361 -0.1918
 1703TIP3    H126744   4.285   3.577   8.329 -0.4687  1.4054 -0.9655
 1703TIP3    H226745   4.152   3.648   8.325 -2.1869 -1.5717  0.1541
 1704TIP3   OH226746   1.051   4.679   0.359  0.0596  0.0480 -0.6178
 1704TIP3    H126747   0.984   4.613   0.340  1.5066 -0.9428 -2.8295
 1704TIP3    H226748   1.003   4.759   0.378 -1.7623 -0.5111 -2.5485
 1705TIP3   OH226749   4.665   5.468   0.944 -0.7204 -0.7696  0.2279
 1705TIP3    H126750   4.736   5.484   0.882 -1.1289  0.5860  0.0726
 1705TIP3    H226751   4.633   5.380   0.921  0.2135 -0.9722 -0.3744
 1706TIP3   OH226752   4.666   2.138   0.204  0.1906  0.4628 -0.3975
 1706TIP3    H126753   4.581   2.093   0.201 -0.8913  2.0352  2.6835
 1706TIP3    H226754   4.731   2.068   0.207 -0.7574 -0.8118 -4.1249
 1707TIP3   OH226755   0.984   5.066   7.737 -0.0263 -0.1910 -0.0203
 1707TIP3    H126756   1.043   5.090   7.666  0.1379 -0.4739  0.0188
 1707TIP3    H226757   0.898   5.096   7.708 -0.0597 -0.8444 -0.6079
 1708TIP3   OH226758   3.460   2.104   7.428  0.0869  0.7677  0.2847
 1708TIP3    H126759   3.411   2.026   7.453  2.2341 -0.9846 -0.7026
 1708TIP3    H226760   3.548   2.091   7.464  0.3831  3.0307  0.5857
 1709TIP3   OH226761   3.564   2.898   0.972  0.2249 -0.0700 -0.7944
 1709TIP3    H126762   3.642   2.894   1.027 -2.2344  1.0050  3.2144
 1709TIP3    H226763   3.546   2.807   0.949  3.2743 -0.2663 -3.1873
 1710TIP3   OH226764   5.656   2.748   1.274 -0.0858  0.1151 -0.2831
 1710TIP3    H126765   5.571   2.784   1.249 -1.1680 -1.4912  0.8775
 1710TIP3    H226766   5.686   2.804   1.346 -0.4371  0.3543 -0.3220
 1711TIP3   OH226767   5.507   2.334   1.908  0.1956  0.7044 -0.2235
 1711TIP3    H126768   5.552   2.384   1.840  0.3509 -0.7686 -1.2489
 1711TIP3    H226769   5.414   2.341   1.885  0.0376  2.0333  0.7128
 1712TIP3   OH226770   4.960   3.159   1.109 -0.8984  0.2842 -0.4128
 1712TIP3    H126771   5.003   3.245   1.110 -0.2483 -0.0196 -1.4963
 1712TIP3    H226772   4.915   3.155   1.193 -2.1923  2.3250 -0.9236
 1713TIP3   OH226773   5.387   2.901   7.543  0.4221 -0.3497 -0.0928
 1713TIP3    H126774   5.470   2.948   7.554 -0.6911  1.4671  0.9935
 1713TIP3    H226775   5.381   2.885   7.449  1.8557 -0.2501 -0.2226
 1714TIP3   OH226776   2.953   3.921   8.160 -0.0389 -0.3995  0.3433
 1714TIP3    H126777   2.907   3.948   8.081 -0.2998 -0.1995  0.5588
 1714TIP3    H226778   2.940   3.994   8.221  1.3271  0.0671  0.1181
 1715TIP3   OH226779   3.812   3.015   8.573  0.0578 -0.1274 -0.4185
 1715TIP3    H126780   3.810   3.017   8.478 -1.3748  0.4273 -0.3985
 1715TIP3    H226781   3.757   3.089   8.600  0.9680  0.1168  0.8382
 1716TIP3   OH226782   6.621   3.319   7.547 -0.3217  0.3079 -0.2586
 1716TIP3    H126783   6.571   3.396   7.519  2.0452  1.5269 -1.4977
 1716TIP3    H226784   6.666   3.290   7.468 -0.6080 -1.9951  0.3419
 1717TIP3   OH226785   3.754   4.351   2.021  0.3140 -0.2543 -0.1143
 1717TIP3    H126786   3.784   4.397   1.943  0.2934 -0.4807 -0.2542
 1717TIP3    H226787   3.659   4.347   2.012  0.3255 -0.4328 -0.1617
 1718TIP3   OH226788   2.986   5.173   7.654  0.2033  0.0179  0.7602
 1718TIP3    H126789   3.066   5.225   7.642 -0.1962  0.1413 -1.8534
 1718TIP3    H226790   3.016   5.082   7.647  0.3115  0.0156  1.2281
 1719TIP3   OH226791   6.500   2.923   0.975  0.0451  0.4281  0.1238
 1719TIP3    H126792   6.497   3.011   0.937 -0.9919  1.2084  1.9157
 1719TIP3    H226793   6.432   2.875   0.927 -1.8561  1.6486  1.4384
 1720TIP3   OH226794   6.614   3.650   7.077 -0.6415  0.3411  1.0813
 1720TIP3    H126795   6.704   3.645   7.043 -1.2837  2.0608 -1.1319
 1720TIP3    H226796   6.588   3.558   7.086  1.1224 -0.1983  1.2008
 1721TIP3   OH226797   0.636   1.355   0.876  0.3146 -0.6724  0.0750
 1721TIP3    H126798   0.582   1.278   0.897  1.5045 -0.9053  2.6895
 1721TIP3    H226799   0.604   1.423   0.935 -0.2356  0.6756 -1.7179
 1722TIP3   OH226800   1.181   1.091   1.151  0.8322 -0.3924  0.1204
 1722TIP3    H126801   1.119   1.025   1.182 -0.7974  0.5256 -1.0334
 1722TIP3    H226802   1.267   1.058   1.179 -0.1617 -1.5678  2.0358
 1723TIP3   OH226803   5.363   4.699   8.300  0.0324 -0.1268  0.3328
 1723TIP3    H126804   5.269   4.697   8.320  0.0986  0.1673  0.6909
 1723TIP3    H226805   5.399   4.624   8.348 -0.4324 -2.0427 -2.1165
 1724TIP3   OH226806   4.377   6.397   0.921 -0.0866 -0.2894  0.2101
 1724TIP3    H126807   4.397   6.489   0.904 -1.1426  0.2356  1.6094
 1724TIP3    H226808   4.286   6.397   0.952 -0.4960 -1.9451 -0.8297
 1725TIP3   OH226809   1.109   1.416   5.816 -0.0159  0.1192  0.0727
 1725TIP3    H126810   1.037   1.475   5.840 -0.3627 -1.1475  2.3815
 1725TIP3    H226811   1.070   1.356   5.753  0.0468  1.5847 -1.4541
 1726TIP3   OH226812   3.281   5.356   7.933 -0.0756  0.0083  0.3376
 1726TIP3    H126813   3.311   5.275   7.892  0.8033  0.3997  0.1933
 1726TIP3    H226814   3.198   5.332   7.976 -0.8756 -0.4753 -1.4100
 1727TIP3   OH226815   0.114   0.298   6.993  0.5324 -0.5333 -0.2696
 1727TIP3    H126816   0.125   0.265   6.904  1.9642 -0.6421 -0.0779
 1727TIP3    H226817   0.183   0.364   7.003  0.8774 -1.0435  0.9968
 1728TIP3   OH226818   4.467   2.756   7.308  0.3465 -0.0767  0.3300
 1728TIP3    H126819   4.486   2.663   7.300  1.2009  0.1980 -1.5419
 1728TIP3    H226820   4.395   2.762   7.370  1.1791 -1.8585  1.5392
 1729TIP3   OH226821   4.367   0.947   0.471 -0.6218  0.0463  0.2335
 1729TIP3    H126822   4.363   0.868   0.524 -0.7305  0.1183  0.3339
 1729TIP3    H226823   4.340   0.919   0.383 -1.6189  0.1649  0.4921
 1730TIP3   OH226824   5.727   4.860   1.506 -0.3194  0.1228  0.3512
 1730TIP3    H126825   5.780   4.863   1.427  0.0328 -1.7171  0.4673
 1730TIP3    H226826   5.699   4.768   1.513 -2.9066  0.8476  0.7054
 1731TIP3   OH226827   4.198   5.997   7.514 -0.4820  0.2365 -0.6975
 1731TIP3    H126828   4.139   5.925   7.494  0.0845 -0.3011 -0.4934
 1731TIP3    H226829   4.229   6.028   7.429  1.2185 -1.4370 -0.7510
 1732TIP3   OH226830   1.050   0.045   8.569 -0.4985 -0.2268 -0.2304
 1732TIP3    H126831   1.015   0.104   8.636 -0.6580 -1.6223  0.9596
 1732TIP3    H226832   0.989   0.052   8.496 -1.0498  0.3460  0.2797
 1733TIP3   OH226833   5.935   3.385   7.679  0.0705 -0.5248  0.1601
 1733TIP3    H126834   5.861   3.358   7.733 -0.8313  2.7603  0.8050
 1733TIP3    H226835   5.988   3.439   7.737 -0.3530  2.2289 -1.8117
 1734TIP3   OH226836   1.484   0.471   0.887 -0.1952 -0.2786 -0.5617
 1734TIP3    H126837   1.452   0.381   0.881  0.5328 -0.6488  0.5628
 1734TIP3    H226838   1.544   0.481   0.813 -2.4491  0.2759 -2.4086
 1735TIP3   OH226839   0.331   1.388   7.791 -0.1262  0.3234 -0.2408
 1735TIP3    H126840   0.242   1.366   7.762 -0.0807  0.0168 -0.1589
 1735TIP3    H226841   0.388   1.347   7.727 -0.0362  0.1024 -0.0209
 1736TIP3   OH226842   0.478   2.812   8.453 -0.1237  0.4101  0.1928
 1736TIP3    H126843   0.410   2.867   8.414  1.3293  1.2034 -1.3048
 1736TIP3    H226844   0.533   2.873   8.501  0.6414  0.0602 -0.2304
 1737TIP3   OH226845   4.785   4.845   0.345 -0.8066  0.3388 -0.1186
 1737TIP3    H126846   4.852   4.868   0.409 -0.3130 -0.2273 -0.4200
 1737TIP3    H226847   4.820   4.874   0.261  0.8001 -3.1504 -0.8459
 1738TIP3   OH226848   2.693   5.826   0.778  0.1926 -0.1228 -0.2823
 1738TIP3    H126849   2.737   5.765   0.838  0.9852 -0.3782 -1.1018
 1738TIP3    H226850   2.764   5.881   0.744 -0.2973  0.2367 -0.7378
 1739TIP3   OH226851   2.696   3.738   1.441 -0.0926  0.0714  0.1520
 1739TIP3    H126852   2.609   3.700   1.453 -0.7211  1.3196 -0.2080
 1739TIP3    H226853   2.740   3.726   1.525 -1.2227  0.8585  0.8912
 1740TIP3   OH226854   1.757   4.377   8.355  0.0082  0.3282 -0.2542
 1740TIP3    H126855   1.721   4.357   8.442 -0.1195  1.1674 -0.1020
 1740TIP3    H226856   1.740   4.298   8.303 -1.2743  0.3749  0.0630
 1741TIP3   OH226857   5.693   6.172   6.846  0.3863  0.3433  0.1269
 1741TIP3    H126858   5.716   6.123   6.925 -1.1386 -0.3917  0.1444
 1741TIP3    H226859   5.598   6.167   6.841  0.2311  2.6024 -0.3498
 1742TIP3   OH226860   0.102   0.121   0.474  0.2987  0.2289 -0.4445
 1742TIP3    H126861   0.089   0.153   0.385  1.6476  0.7728 -0.4781
 1742TIP3    H226862   0.181   0.067   0.468 -1.4413 -2.5294 -0.2288
 1743TIP3   OH226863   6.461   5.342   0.929  0.8070  0.0733  0.4884
 1743TIP3    H126864   6.555   5.360   0.936  1.2820 -1.8040 -0.4350
 1743TIP3    H226865   6.442   5.284   1.003  0.9585 -1.5767 -0.7146
 1744TIP3   OH226866   2.541   5.882   7.485  0.2745 -0.6741  0.6490
 1744TIP3    H126867   2.598   5.928   7.423 -0.5694  3.2336  2.4553
 1744TIP3    H226868   2.453   5.892   7.449 -0.1561  1.1532  2.0016
 1745TIP3   OH226869   3.637   2.150   1.763  0.3056 -0.1259 -0.2632
 1745TIP3    H126870   3.627   2.067   1.717  1.7246  1.0596 -2.9308
 1745TIP3    H226871   3.690   2.129   1.840 -0.7132 -1.9071  0.0077
 1746TIP3   OH226872   1.730   6.236   6.652 -0.5332 -0.3946  0.2223
 1746TIP3    H126873   1.824   6.253   6.648 -0.3643 -1.3754 -0.3664
 1746TIP3    H226874   1.691   6.301   6.594 -0.0545 -0.9598 -0.7699
 1747TIP3   OH226875   6.145   6.492   7.747 -0.1028 -0.1777 -0.1378
 1747TIP3    H126876   6.201   6.550   7.798  1.2842 -1.0528 -0.6025
 1747TIP3    H226877   6.058   6.501   7.786  0.3219  1.3226  0.5152
 1748TIP3   OH226878   2.312   3.190   8.552 -0.1113 -0.2130  0.1630
 1748TIP3    H126879   2.230   3.225   8.586  0.5579  1.3766  0.2188
 1748TIP3    H226880   2.312   3.098   8.579 -0.2939  0.5722  3.1446
 1749TIP3   OH226881   1.482   6.878   0.670 -0.1642  0.0006  0.2945
 1749TIP3    H126882   1.478   6.782   0.676  1.7480 -0.1754 -0.4848
 1749TIP3    H226883   1.481   6.896   0.576 -0.0931  0.7266  0.4268
 1750TIP3   OH226884   6.629   1.763   0.548  0.0804  0.2827  0.2572
 1750TIP3    H126885   6.706   1.707   0.536  0.2965  0.6545 -0.1081
 1750TIP3    H226886   6.614   1.802   0.462 -0.0905  0.7631  0.5015
 1751TIP3   OH226887   3.893   3.646   8.602 -0.2078  0.0880  0.1014
 1751TIP3    H126888   3.970   3.698   8.581  1.4056 -0.6481  3.5123
 1751TIP3    H226889   3.897   3.571   8.544  0.6987  0.8926 -0.9028
 1752TIP3   OH226890   1.422   5.042   7.536 -0.1141 -0.2778  0.2725
 1752TIP3    H126891   1.348   5.085   7.578 -0.9479 -1.6320  0.2416
 1752TIP3    H226892   1.449   4.974   7.598 -0.1023 -1.0160 -0.5211
 1753TIP3   OH226893   2.456   3.655   0.800 -0.5167 -0.1156  0.1612
 1753TIP3    H126894   2.385   3.714   0.826  0.1516  1.3273 -1.1352
 1753TIP3    H226895   2.436   3.631   0.710 -0.1427 -0.9270  0.2851
 1754TIP3   OH226896   4.959   1.827   7.775  0.3774  0.2477 -0.9452
 1754TIP3    H126897   4.936   1.918   7.793 -3.6952 -0.6480 -0.6935
 1754TIP3    H226898   4.964   1.821   7.680 -0.6838  0.4973 -1.0229
 1755TIP3   OH226899   2.017   3.575   1.907 -0.1746 -0.4622 -0.3185
 1755TIP3    H126900   2.061   3.543   1.829 -1.0651 -1.1300 -0.5659
 1755TIP3    H226901   2.077   3.555   1.979 -0.3999 -2.0710 -0.5554
 1756TIP3   OH226902   2.317   6.189   7.049  0.6140 -0.0438  0.0148
 1756TIP3    H126903   2.230   6.178   7.088 -0.6808 -0.5492 -2.7380
 1756TIP3    H226904   2.368   6.115   7.082 -0.2645 -0.2026  1.0616
 1757TIP3   OH226905   6.577   1.870   0.298 -0.3161 -0.2278  0.1508
 1757TIP3    H126906   6.550   1.961   0.287 -0.7576 -0.4156 -0.3846
 1757TIP3    H226907   6.664   1.866   0.258 -0.1913  0.0098  0.3929
 1758TIP3   OH226908   3.450   1.676   2.474  0.4387  0.7232 -0.3905
 1758TIP3    H126909   3.389   1.746   2.453 -1.0151  0.0551  1.2735
 1758TIP3    H226910   3.396   1.611   2.520  1.8219 -1.2563 -1.4317
 1759TIP3   OH226911   0.611   0.469   8.016  0.6219  0.1149  0.2960
 1759TIP3    H126912   0.605   0.464   8.111  0.7956 -0.5751  0.2804
 1759TIP3    H226913   0.625   0.378   7.988 -1.0062  0.0619 -0.4989
 1760TIP3   OH226914   0.301   3.389   7.756  0.0525 -0.1249 -0.0662
 1760TIP3    H126915   0.340   3.387   7.668 -0.4382 -3.2182 -0.3309
 1760TIP3    H226916   0.217   3.434   7.744  0.8638  1.3162 -0.6862
 1761TIP3   OH226917   1.964   6.301   0.271  0.7645 -0.3465 -0.4688
 1761TIP3    H126918   1.975   6.206   0.278  1.9146 -0.2073 -0.1171
 1761TIP3    H226919   1.872   6.317   0.291  0.3705 -1.4551 -1.2943
 1762TIP3   OH226920   1.058   2.186   0.181  1.0697  0.1966 -0.1973
 1762TIP3    H126921   1.129   2.150   0.234  1.4022  0.8378 -0.2038
 1762TIP3    H226922   1.095   2.265   0.142 -0.0018  1.1383  0.6776
 1763TIP3   OH226923   2.585   3.019   0.367 -0.1603 -0.2796  0.2239
 1763TIP3    H126924   2.502   3.067   0.374  0.5262  0.7465  2.4292
 1763TIP3    H226925   2.640   3.073   0.312 -1.2247 -1.5062 -2.1958
 1764TIP3   OH226926   5.167   6.334   1.031 -0.2049  0.4759  0.1581
 1764TIP3    H126927   5.094   6.272   1.020 -1.1451  0.9531  2.8525
 1764TIP3    H226928   5.126   6.420   1.027  0.6878  0.8546 -1.0430
 1765TIP3   OH226929   3.567   2.768   0.254  0.3028  0.8616 -0.4877
 1765TIP3    H126930   3.613   2.835   0.304  2.0620 -0.3008 -0.4518
 1765TIP3    H226931   3.555   2.696   0.315  1.5100 -0.1495 -1.3769
 1766TIP3   OH226932   5.715   6.637   1.365 -0.6562  0.4117 -0.1676
 1766TIP3    H126933   5.786   6.639   1.429 -0.6364 -0.7940 -0.1177
 1766TIP3    H226934   5.648   6.582   1.406 -0.8173 -0.0326 -0.9979
 1767TIP3   OH226935   2.855   5.572   7.007  0.0134  0.1715  0.1887
 1767TIP3    H126936   2.779   5.605   6.959  0.2477 -0.9578 -1.0191
 1767TIP3    H226937   2.838   5.479   7.019  0.7962  0.0806  0.7055
 1768TIP3   OH226938   4.086   4.872   7.922  0.1894 -0.0843  0.5396
 1768TIP3    H126939   4.033   4.925   7.981  0.0573 -0.7892  1.0668
 1768TIP3    H226940   4.024   4.836   7.858  0.1528 -0.2423  0.6624
 1769TIP3   OH226941   4.999   4.874   0.172 -0.0256  0.1989 -0.1378
 1769TIP3    H126942   5.005   4.959   0.215 -0.6774 -1.0703  2.7206
 1769TIP3    H226943   5.078   4.827   0.201 -1.5445 -1.4503  1.6611
 1770TIP3   OH226944   0.887   0.202   1.310  0.2893  0.1782  0.1997
 1770TIP3    H126945   0.835   0.139   1.359 -1.1895 -0.0707 -1.5637
 1770TIP3    H226946   0.855   0.287   1.339 -1.2416  0.0280 -0.9120
 1771TIP3   OH226947   4.449   1.056   8.120  0.3170  0.2718  0.7014
 1771TIP3    H126948   4.363   1.060   8.162  1.2694 -0.2544  2.8667
 1771TIP3    H226949   4.496   1.132   8.155  0.4650  1.1297 -1.2356
 1772TIP3   OH226950   3.097   1.695   1.347 -0.2065 -0.0035  0.0755
 1772TIP3    H126951   3.027   1.740   1.394  0.5752  0.7992  0.5076
 1772TIP3    H226952   3.085   1.718   1.255  0.8530  2.0824  0.4108
 1773TIP3   OH226953   2.134   1.019   0.314 -0.1036 -0.2826  0.1624
 1773TIP3    H126954   2.114   0.938   0.267 -1.0151 -0.5750  1.0116
 1773TIP3    H226955   2.065   1.079   0.287 -0.5725 -0.4202  1.0090
 1774TIP3   OH226956   6.735   6.208   7.462 -0.3419  0.0577  0.4651
 1774TIP3    H126957   6.772   6.276   7.518  0.0655  0.7354 -0.5914
 1774TIP3    H226958   6.793   6.205   7.386 -1.7613  0.2887 -0.6671
 1775TIP3   OH226959   6.164   1.680   0.778  0.0854  0.2399 -0.4246
 1775TIP3    H126960   6.070   1.668   0.793 -0.3559  2.0209 -1.5020
 1775TIP3    H226961   6.186   1.617   0.710  0.0867 -1.4021  1.0365
 1776TIP3   OH226962   5.135   2.780   7.271 -0.3144  0.0396  0.2028
 1776TIP3    H126963   5.162   2.726   7.346 -1.5246 -1.0795 -0.1352
 1776TIP3    H226964   5.087   2.720   7.214 -1.7966  1.4908 -0.1556
 1777TIP3   OH226965   4.852   0.764   1.105  0.3044  0.1104  0.8097
 1777TIP3    H126966   4.782   0.704   1.079  0.9809 -0.2875 -0.1644
 1777TIP3    H226967   4.824   0.799   1.190 -1.5840  0.7718 -0.0284
 1778TIP3   OH226968   3.709   0.573   0.101  0.2622 -0.0230  0.0265
 1778TIP3    H126969   3.625   0.611   0.129  0.2923 -0.2791  0.4595
 1778TIP3    H226970   3.694   0.549   0.010  1.2463  4.0786 -1.4550
 1779TIP3   OH226971   3.813   0.777   8.368  0.5080 -0.3130 -0.5934
 1779TIP3    H126972   3.789   0.867   8.349 -0.8126 -0.7341 -1.0759
 1779TIP3    H226973   3.859   0.782   8.452  1.8741  0.9649 -1.3760
 1780TIP3   OH226974   1.408   4.736   7.320  0.1604  0.2156 -0.4948
 1780TIP3    H126975   1.437   4.648   7.293 -0.6060 -0.4762  0.8387
 1780TIP3    H226976   1.469   4.762   7.389 -1.1235 -0.4176  0.9447
 1781TIP3   OH226977   0.351   5.370   8.245  0.0100 -0.1330 -0.2650
 1781TIP3    H126978   0.267   5.385   8.201 -0.5411 -1.4620  0.2787
 1781TIP3    H226979   0.406   5.329   8.179  0.1579  0.5347 -0.5575
 1782TIP3   OH226980   1.434   5.521   8.492 -0.0994  0.0202  0.4327
 1782TIP3    H126981   1.507   5.580   8.514  0.7435 -1.5061  2.0247
 1782TIP3    H226982   1.387   5.510   8.575 -1.2230 -0.2557 -0.2272
 1783TIP3   OH226983   2.125   1.815   1.306  0.1855 -0.3712 -0.0948
 1783TIP3    H126984   2.163   1.729   1.289 -1.7107 -1.3267  0.2567
 1783TIP3    H226985   2.123   1.857   1.219  0.2289 -1.0689 -0.4415
 1784TIP3   OH226986   4.616   0.525   6.218 -0.1754 -1.0547 -0.3862
 1784TIP3    H126987   4.598   0.448   6.272 -1.7865 -1.2993 -1.2194
 1784TIP3    H226988   4.530   0.559   6.194  0.4931 -0.3154 -1.8968
 1785TIP3   OH226989   3.194   3.117   1.218  0.7935  0.0056  0.7138
 1785TIP3    H126990   3.246   3.037   1.232 -0.1894 -0.4412  2.0288
 1785TIP3    H226991   3.196   3.161   1.303 -1.9570 -0.6419  1.2143
 1786TIP3   OH226992   6.536   3.082   7.710  0.2921  0.2789 -0.2366
 1786TIP3    H126993   6.564   3.172   7.727  1.3245  0.0518 -0.6830
 1786TIP3    H226994   6.493   3.085   7.625 -1.1062  0.6268  0.4480
 1787TIP3   OH226995   4.660   6.862   7.982  0.1253 -0.0436  1.1524
 1787TIP3    H126996   4.659   6.787   8.041 -0.9736  0.3892  1.7109
 1787TIP3    H226997   4.578   6.909   8.001 -0.2010  0.1795 -0.6087
 1788TIP3   OH226998   1.966   4.946   7.259 -0.1364  0.4656  0.5379
 1788TIP3    H126999   2.044   4.895   7.278 -0.1727 -0.1041 -0.7680
 1788TIP3    H227000   1.909   4.932   7.334  0.5794  0.0223  1.0059
 1789TIP3   OH227001   3.745   3.752   0.098 -0.1147  0.2822 -0.1525
 1789TIP3    H127002   3.803   3.715   0.031  2.1050  1.9603  0.7338
 1789TIP3    H227003   3.731   3.843   0.071 -0.7020  0.4654  0.7148
 1790TIP3   OH227004   5.898   5.155   0.464  0.5389  0.1253  0.3120
 1790TIP3    H127005   5.925   5.079   0.413 -0.3155 -0.2923  0.4606
 1790TIP3    H227006   5.922   5.133   0.554  2.7136  1.1663  0.0473
 1791TIP3   OH227007   1.736   6.073   8.260  0.2038 -0.7438  0.3651
 1791TIP3    H127008   1.673   6.026   8.204 -0.4723  2.1607 -1.5115
 1791TIP3    H227009   1.821   6.059   8.218  0.1140 -0.8134  0.2065
 1792TIP3   OH227010   5.434   6.695   8.362  0.6445 -0.2261  0.0875
 1792TIP3    H127011   5.473   6.669   8.279 -0.1848 -0.4490 -0.2341
 1792TIP3    H227012   5.343   6.666   8.357  0.7403 -0.8573  1.3380
 1793TIP3   OH227013   0.851   3.297   7.687  0.4557 -0.8709  0.2207
 1793TIP3    H127014   0.840   3.339   7.601  3.2540 -0.9314 -0.2376
 1793TIP3    H227015   0.939   3.261   7.685  0.1961 -1.8024  2.7691
 1794TIP3   OH227016   0.250   2.915   1.224 -0.0541  0.0310  0.0909
 1794TIP3    H127017   0.185   2.860   1.267  0.2850 -0.1163  0.4197
 1794TIP3    H227018   0.232   2.904   1.130 -0.5852  0.0973  0.1859
 1795TIP3   OH227019   4.637   0.455   1.398 -0.1099 -0.0831  0.0949
 1795TIP3    H127020   4.688   0.535   1.407  0.4201 -0.2522 -1.1422
 1795TIP3    H227021   4.702   0.387   1.378 -0.7706 -0.3571 -1.2368
 1796TIP3   OH227022   5.166   2.496   8.172  0.2989  0.0356 -0.2643
 1796TIP3    H127023   5.096   2.559   8.191  0.7277  0.3933  0.1378
 1796TIP3    H227024   5.247   2.543   8.192  0.5744 -1.4435  2.5805
 1797TIP3   OH227025   6.197   5.438   7.224 -0.2719 -0.1468  0.1812
 1797TIP3    H127026   6.182   5.526   7.189  0.3814 -0.7512 -1.7662
 1797TIP3    H227027   6.288   5.438   7.252 -0.8049  0.3492  2.0652
 1798TIP3   OH227028   4.776   1.593   8.232 -0.5671 -0.4108  0.3947
 1798TIP3    H127029   4.826   1.516   8.260 -1.6638 -1.3135 -0.0663
 1798TIP3    H227030   4.809   1.612   8.145  1.7244  1.4340  1.5508
 1799TIP3   OH227031   6.781   1.553   7.558  0.6108  0.3335 -0.1334
 1799TIP3    H127032   6.779   1.562   7.653  1.6266  1.9354 -0.2268
 1799TIP3    H227033   6.701   1.595   7.527 -0.3190 -1.2186  0.0290
 1800TIP3   OH227034   5.179   5.839   7.723 -0.0984 -0.1714 -0.5264
 1800TIP3    H127035   5.141   5.787   7.793  1.4757 -2.9149 -1.5721
 1800TIP3    H227036   5.104   5.876   7.676 -1.2091 -0.1245  1.2149
 1801TIP3   OH227037   2.851   5.394   2.176  0.0082 -0.5862  0.1371
 1801TIP3    H127038   2.837   5.424   2.266 -0.8510  0.9198 -0.4562
 1801TIP3    H227039   2.843   5.299   2.181  1.2742 -0.6498  1.8638
 1802TIP3   OH227040   2.153   1.957   6.653 -0.2661  0.8050 -0.7478
 1802TIP3    H127041   2.205   1.917   6.583 -1.5694 -1.8857 -0.2868
 1802TIP3    H227042   2.078   1.898   6.664 -1.0359  2.1197  1.7157
 1803TIP3   OH227043   1.940   5.192   0.777  0.3209 -0.1492  0.6713
 1803TIP3    H127044   1.900   5.252   0.715 -1.0500 -0.5520  1.1246
 1803TIP3    H227045   1.946   5.109   0.730  2.7135  0.4106 -0.1413
 1804TIP3   OH227046   5.321   0.821   7.263  0.3780  0.0641  0.2036
 1804TIP3    H127047   5.364   0.768   7.330  0.0078  0.6686  0.9278
 1804TIP3    H227048   5.341   0.776   7.181  1.6796 -0.1457  0.6058
 1805TIP3   OH227049   2.424   0.694   1.796  0.0274 -0.3392 -0.1392
 1805TIP3    H127050   2.512   0.679   1.763 -0.1515 -0.1041 -0.7540
 1805TIP3    H227051   2.435   0.707   1.890  0.7071  0.1509 -0.2770
 1806TIP3   OH227052   1.825   6.052   7.511 -0.2491 -0.0378  0.3581
 1806TIP3    H127053   1.744   6.020   7.550  0.6877 -1.7468  1.0037
 1806TIP3    H227054   1.843   6.134   7.558 -0.2094 -1.0127  2.1190
 1807TIP3   OH227055   6.399   1.516   6.839 -0.4111  0.6462 -0.0009
 1807TIP3    H127056   6.342   1.592   6.851  0.2118  1.1647 -0.2414
 1807TIP3    H227057   6.468   1.528   6.904 -0.6119 -0.0118  0.3370
 1808TIP3   OH227058   5.360   3.560   7.627  0.1825 -0.9483  0.2202
 1808TIP3    H127059   5.356   3.586   7.720 -1.4203 -1.7491  0.4080
 1808TIP3    H227060   5.364   3.465   7.629  1.3333 -0.9310 -0.5387
 1809TIP3   OH227061   3.963   1.469   8.119 -0.0786  0.7244  0.0581
 1809TIP3    H127062   4.008   1.552   8.099 -2.0718  2.0438  0.7852
 1809TIP3    H227063   3.883   1.472   8.067  0.3326 -1.2969 -0.7516
 1810TIP3   OH227064   1.213   0.967   1.430 -0.4282  0.1315  0.0981
 1810TIP3    H127065   1.305   0.992   1.425 -0.4232  0.6074  1.7177
 1810TIP3    H227066   1.183   1.007   1.512 -2.7644  2.2626 -1.6577
 1811TIP3   OH227067   5.123   4.648   8.418 -0.4709  0.3378  0.2452
 1811TIP3    H127068   5.070   4.705   8.473 -0.7562 -0.2543  0.6008
 1811TIP3    H227069   5.062   4.612   8.354 -0.9184 -1.6461  1.6766
 1812TIP3   OH227070   3.348   2.420   1.096 -0.4070 -0.2972 -0.5447
 1812TIP3    H127071   3.265   2.467   1.101 -0.9530 -1.3668  1.0553
 1812TIP3    H227072   3.387   2.430   1.183 -0.3952 -2.4827 -0.2395
 1813TIP3   OH227073   6.622   0.531   1.761 -0.0821  0.1429 -0.0398
 1813TIP3    H127074   6.691   0.596   1.750  1.9285 -1.6951  0.9336
 1813TIP3    H227075   6.622   0.511   1.854 -2.1252  0.2477  0.0238
 1814TIP3   OH227076   2.577   0.955   0.230 -0.3845 -0.0361 -0.0823
 1814TIP3    H127077   2.567   0.979   0.323 -0.2241 -0.8176  0.1468
 1814TIP3    H227078   2.654   1.004   0.201  0.9784 -1.5051  0.8387
 1815TIP3   OH227079   6.208   4.138   0.163 -0.4053  0.6021 -0.1678
 1815TIP3    H127080   6.238   4.081   0.234 -0.0055 -1.5958 -1.9896
 1815TIP3    H227081   6.263   4.216   0.171 -0.2226  0.3185  1.7763
 1816TIP3   OH227082   5.304   0.137   6.729 -0.2440 -0.1715 -0.9510
 1816TIP3    H127083   5.282   0.132   6.822  1.6719  1.8328 -0.3028
 1816TIP3    H227084   5.300   0.231   6.709  1.0400 -0.4019 -2.4466
 1817TIP3   OH227085   5.740   4.299   8.626 -0.0648 -0.4591  0.1756
 1817TIP3    H127086   5.660   4.290   8.678 -0.2912 -0.6239 -0.1886
 1817TIP3    H227087   5.810   4.268   8.683  0.0054  1.3233  1.1424
 1818TIP3   OH227088   0.510   0.062   7.916 -0.5508 -0.4580  0.2611
 1818TIP3    H127089   0.438   0.111   7.876  0.8321 -0.8316 -3.0600
 1818TIP3    H227090   0.533  -0.005   7.851  3.4004  0.2944  0.5965
 1819TIP3   OH227091   2.874   6.381   1.367 -0.7237  0.1067 -0.0719
 1819TIP3    H127092   2.968   6.374   1.382 -0.7493  2.6541  2.0128
 1819TIP3    H227093   2.866   6.445   1.295 -0.8079  1.8205  1.3889
 1820TIP3   OH227094   3.462   3.365   0.423 -0.4377  0.4107  0.0011
 1820TIP3    H127095   3.511   3.437   0.462 -0.8633  0.5290  0.3344
 1820TIP3    H227096   3.371   3.383   0.447 -0.4848 -0.5615  0.6261
 1821TIP3   OH227097   2.779   4.289   0.619  0.0727  0.0110  0.4313
 1821TIP3    H127098   2.702   4.340   0.643  0.6703  1.7830 -1.1376
 1821TIP3    H227099   2.746   4.226   0.554 -0.1171  0.6797 -0.1416
 1822TIP3   OH227100   3.262   1.947   8.110  0.1953 -0.5288  0.3748
 1822TIP3    H127101   3.287   2.029   8.152 -0.3066 -0.7761  1.1733
 1822TIP3    H227102   3.325   1.936   8.039 -0.4125  1.1133 -0.4587
 1823TIP3   OH227103   2.516   6.699   6.592 -0.0153  0.3875 -0.3625
 1823TIP3    H127104   2.445   6.648   6.632 -0.2990  2.1775  1.5784
 1823TIP3    H227105   2.583   6.704   6.661  1.7440 -0.6554 -1.9098
 1824TIP3   OH227106   4.947   0.441   7.906  0.0188  0.2901 -0.3128
 1824TIP3    H127107   4.988   0.469   7.988  0.1367  0.0633 -0.2939
 1824TIP3    H227108   4.931   0.347   7.918  1.1352 -0.0147 -1.0047
 1825TIP3   OH227109   2.309   6.195   0.084  0.5120  0.3280  0.5734
 1825TIP3    H127110   2.291   6.226  -0.004 -2.5277  0.9365  1.3102
 1825TIP3    H227111   2.338   6.105   0.072 -1.1918 -0.0693 -1.0192
 1826TIP3   OH227112   1.595   3.540   6.080 -0.2036 -0.2804 -0.1689
 1826TIP3    H127113   1.557   3.628   6.070  0.5691  0.3347  1.6959
 1826TIP3    H227114   1.647   3.547   6.160  0.8872 -2.1165 -0.6850
 1827TIP3   OH227115   3.268   2.501   1.349  0.3838  0.1204  0.0428
 1827TIP3    H127116   3.188   2.536   1.387 -0.6725 -2.1513  0.1082
 1827TIP3    H227117   3.323   2.577   1.333 -0.6753  1.5119  2.5353
 1828TIP3   OH227118   3.556   4.121   6.586  0.3272 -0.3595  0.3096
 1828TIP3    H127119   3.460   4.124   6.587  0.3374  0.0781  1.4291
 1828TIP3    H227120   3.578   4.058   6.654  0.8292 -1.4278 -0.8082
 1829TIP3   OH227121   0.021   5.654   6.766 -0.2472 -0.1338 -0.5543
 1829TIP3    H127122   0.056   5.598   6.835 -0.2410  0.6730  0.1080
 1829TIP3    H227123   0.067   5.737   6.777 -0.1796 -0.0202 -1.5874
 1830TIP3   OH227124   4.679   4.793   6.120  0.2659 -0.8946 -0.9160
 1830TIP3    H127125   4.701   4.700   6.112  0.2996 -1.0485  0.6106
 1830TIP3    H227126   4.584   4.795   6.126  0.1791 -0.7069 -2.0467
 1831TIP3   OH227127   6.280   1.724   7.223 -0.2747  0.6748  0.0824
 1831TIP3    H127128   6.289   1.817   7.204 -1.0583  0.7036 -0.1849
 1831TIP3    H227129   6.224   1.720   7.300  1.3842  0.4800  1.3412
 1832TIP3   OH227130   0.277   6.684   0.173  0.2546 -0.8257  0.4342
 1832TIP3    H127131   0.329   6.612   0.137 -0.0005  0.3829 -2.5713
 1832TIP3    H227132   0.187   6.664   0.148  0.3380  1.1842 -1.8561
 1833TIP3   OH227133   0.784   4.227   7.883  0.1439 -0.1834 -0.3379
 1833TIP3    H127134   0.834   4.230   7.965 -0.4413  2.5694  0.0128
 1833TIP3    H227135   0.698   4.263   7.905 -0.9926 -1.9247 -1.6253
 1834TIP3   OH227136   0.872   4.315   8.559 -0.2262 -0.5597  0.6746
 1834TIP3    H127137   0.839   4.387   8.505  1.8714  0.9363  1.2636
 1834TIP3    H227138   0.818   4.240   8.534 -0.0110  0.2673 -2.8237
 1835TIP3   OH227139   5.533   5.167   6.679 -0.2713 -0.3251  0.7368
 1835TIP3    H127140   5.441   5.152   6.657  0.0259 -2.3217  0.7048
 1835TIP3    H227141   5.574   5.193   6.596 -0.8450  0.9594  0.8287
 1836TIP3   OH227142   2.100   4.966   0.943  0.0857  0.4095 -0.5873
 1836TIP3    H127143   2.190   4.990   0.919  0.8168 -2.8184 -1.6328
 1836TIP3    H227144   2.047   4.991   0.867  0.6514 -0.3434 -1.2541
 1837TIP3   OH227145   1.180   5.659   7.756  0.4326 -0.2199 -0.0422
 1837TIP3    H127146   1.204   5.654   7.664 -1.1261  2.7004 -0.7247
 1837TIP3    H227147   1.219   5.741   7.786 -2.6683  1.1587  0.6270
 1838TIP3   OH227148   2.769   3.919   1.231 -0.0257 -0.2892 -0.0551
 1838TIP3    H127149   2.733   3.894   1.146  1.1772 -1.9799 -0.1288
 1838TIP3    H227150   2.717   3.869   1.294 -1.2965  1.3976  0.3020
 1839TIP3   OH227151   2.473   2.472   1.872  0.0212 -0.3225 -0.0913
 1839TIP3    H127152   2.561   2.443   1.897 -1.0839 -2.2188  1.9169
 1839TIP3    H227153   2.468   2.562   1.903  0.6788 -0.7924  1.5012
 1840TIP3   OH227154   1.747   0.783   6.547 -0.5887  0.0979  0.3800
 1840TIP3    H127155   1.807   0.832   6.603 -1.0254 -0.0623  1.0028
 1840TIP3    H227156   1.700   0.725   6.607 -1.2658  0.1212 -0.1124
 1841TIP3   OH227157   5.596   1.655   6.714  0.1235 -0.6555  0.4488
 1841TIP3    H127158   5.688   1.641   6.737  0.2803 -1.1687 -0.4384
 1841TIP3    H227159   5.556   1.568   6.722 -0.3499 -0.3833  1.0926
 1842TIP3   OH227160   4.471   0.164   0.729  0.6627 -0.2853  0.5866
 1842TIP3    H127161   4.482   0.212   0.647  0.1463 -2.1381 -0.6045
 1842TIP3    H227162   4.560   0.154   0.763  1.0860 -1.1791 -0.7429
 1843TIP3   OH227163   6.529   6.030   6.644 -0.1692  0.1707 -0.4591
 1843TIP3    H127164   6.462   5.962   6.638  0.2914 -0.3215 -0.1311
 1843TIP3    H227165   6.505   6.093   6.576 -0.6286 -0.2967 -0.7382
 1844TIP3   OH227166   4.592   1.700   0.191 -0.3082  0.3589 -0.4044
 1844TIP3    H127167   4.652   1.711   0.265 -1.3761  1.9116  0.2928
 1844TIP3    H227168   4.546   1.784   0.186 -1.7281 -0.4548 -1.5290
 1845TIP3   OH227169   1.751   1.110   0.684  0.1243 -0.2357 -1.0376
 1845TIP3    H127170   1.801   1.034   0.655 -1.1638 -1.6094  0.1625
 1845TIP3    H227171   1.816   1.165   0.728  0.9390 -1.0692 -1.1588
 1846TIP3   OH227172   0.630   2.066   1.463  0.4470 -0.2754 -0.4677
 1846TIP3    H127173   0.574   2.142   1.472  0.6735  0.2080 -2.5610
 1846TIP3    H227174   0.584   2.009   1.401  1.6890 -0.3957 -1.3217
 1847TIP3   OH227175   4.575   2.134   6.262 -0.4922 -0.4442  0.1900
 1847TIP3    H127176   4.595   2.042   6.274 -0.1057 -0.5214 -1.0217
 1847TIP3    H227177   4.647   2.180   6.305 -0.0246 -0.7132 -0.2937
 1848TIP3   OH227178   6.123   0.944   0.711  0.3093  1.2944 -0.9805
 1848TIP3    H127179   6.157   0.870   0.761 -1.5196  0.1680 -1.3201
 1848TIP3    H227180   6.122   1.017   0.773 -2.5217 -0.2016  0.9592
 1849TIP3   OH227181   4.618   0.773   6.511  0.4902 -0.0505  0.3345
 1849TIP3    H127182   4.572   0.856   6.499 -0.8444 -0.8304 -0.2241
 1849TIP3    H227183   4.675   0.766   6.434  1.9145  1.1059  1.2238
 1850TIP3   OH227184   4.523   6.698   7.278 -0.0746 -0.0066 -0.1245
 1850TIP3    H127185   4.428   6.691   7.278 -0.0012 -1.1765  0.3690
 1850TIP3    H227186   4.545   6.724   7.189 -0.7369 -1.8101 -0.8611
 1851TIP3   OH227187   3.438   3.899   7.606  0.8170  0.4474 -0.0183
 1851TIP3    H127188   3.434   3.908   7.701 -2.0134  0.1309 -0.0126
 1851TIP3    H227189   3.518   3.850   7.589  1.1991  0.2138  2.2134
 1852TIP3   OH227190   1.374   1.697   1.604 -0.0207 -0.4627  0.3454
 1852TIP3    H127191   1.310   1.628   1.586 -0.0382 -0.5312  0.6535
 1852TIP3    H227192   1.378   1.748   1.523 -0.1222 -0.7321  0.1681
 1853TIP3   OH227193   0.431   0.260   0.215  0.1410  0.4469  0.0601
 1853TIP3    H127194   0.448   0.318   0.289 -1.7207  1.4753 -0.2477
 1853TIP3    H227195   0.390   0.183   0.253  0.0596  0.5526  0.1842
 1854TIP3   OH227196   1.710   3.098   1.946 -0.2376 -0.2258 -0.2063
 1854TIP3    H127197   1.758   3.058   2.019  1.0388  1.1855 -0.2139
 1854TIP3    H227198   1.647   3.157   1.988  0.2815  0.3476 -0.2065
 1855TIP3   OH227199   1.921   2.098   8.395 -0.4953  0.0976 -0.3781
 1855TIP3    H127200   1.841   2.112   8.445 -1.7887  0.5257 -2.4345
 1855TIP3    H227201   1.961   2.185   8.389  1.0748 -0.3721  2.0259
 1856TIP3   OH227202   3.360   3.565   6.889  0.3859  0.3032 -0.0998
 1856TIP3    H127203   3.425   3.558   6.958  0.2382  2.2506  0.2928
 1856TIP3    H227204   3.287   3.511   6.919  2.4507 -3.6720 -1.4967
 1857TIP3   OH227205   0.823   6.647   7.262 -0.3720 -1.1737 -0.0716
 1857TIP3    H127206   0.729   6.630   7.263 -0.3902 -1.0643  0.2082
 1857TIP3    H227207   0.858   6.585   7.198 -0.2204 -3.3754  2.0279
 1858TIP3   OH227208   1.441   0.852   1.524 -0.1931  0.6282  0.6013
 1858TIP3    H127209   1.534   0.870   1.519 -0.1701  0.6406  1.0792
 1858TIP3    H227210   1.432   0.764   1.489 -0.0758  0.8447  0.0164
 1859TIP3   OH227211   0.683   0.584   6.576  0.0560  0.2396 -0.6611
 1859TIP3    H127212   0.625   0.508   6.568  1.5956 -0.8009 -3.0226
 1859TIP3    H227213   0.726   0.590   6.491  2.2493  1.9264  0.4722
 1860TIP3   OH227214   0.323   4.787   7.185 -0.0887 -0.3394 -0.2579
 1860TIP3    H127215   0.261   4.724   7.147  1.1278 -1.9802  0.3622
 1860TIP3    H227216   0.402   4.735   7.202  1.4015  1.6292 -0.8325
 1861TIP3   OH227217   3.658   5.199   0.791 -0.1947 -0.6296  0.4716
 1861TIP3    H127218   3.710   5.120   0.808 -1.2554 -1.0317  2.2271
 1861TIP3    H227219   3.662   5.211   0.697 -0.0477 -2.8559  0.1397
 1862TIP3   OH227220   1.221   4.821   7.130  0.0264  0.2009  0.6362
 1862TIP3    H127221   1.285   4.863   7.072 -0.4568 -1.4316 -1.1759
 1862TIP3    H227222   1.274   4.764   7.186  0.2667 -0.6994 -0.4572
 1863TIP3   OH227223   4.102   6.452   0.926  0.6715 -0.1595  0.4655
 1863TIP3    H127224   4.070   6.363   0.911  2.6439 -1.1631  1.7038
 1863TIP3    H227225   4.089   6.465   1.020  0.7887  0.7114  0.3614
 1864TIP3   OH227226   2.865   2.991   6.819 -0.0318 -0.3172 -0.0427
 1864TIP3    H127227   2.826   2.923   6.875 -2.8347  1.3713  0.2725
 1864TIP3    H227228   2.864   2.953   6.731 -2.0790 -0.5797  0.0307
 1865TIP3   OH227229   4.392   1.541   8.619 -0.5646 -0.4169 -0.2039
 1865TIP3    H127230   4.365   1.545   8.711  3.1663 -3.2830  1.3346
 1865TIP3    H227231   4.456   1.611   8.610 -1.1105  0.0206 -0.7108
 1866TIP3   OH227232   4.526   5.203   0.422  0.1247 -0.2704  0.0428
 1866TIP3    H127233   4.460   5.169   0.362  0.9599  1.4919 -1.9904
 1866TIP3    H227234   4.497   5.292   0.441  1.6463  0.3582 -0.4962
 1867TIP3   OH227235   3.159   1.008   7.032 -0.3879  0.6237 -0.2647
 1867TIP3    H127236   3.078   0.961   7.050  0.1345 -0.3776 -0.4339
 1867TIP3    H227237   3.227   0.955   7.075  0.0067  2.3033  1.2644
 1868TIP3   OH227238   1.409   2.926   1.018  0.1554  0.1535  0.6329
 1868TIP3    H127239   1.342   2.911   1.085  0.0843  0.5462  0.6530
 1868TIP3    H227240   1.470   2.987   1.059 -0.1993  0.8526  0.1406
 1869TIP3   OH227241   1.170   5.149   0.634 -0.0435  0.5106  0.2370
 1869TIP3    H127242   1.094   5.099   0.605  0.3297 -0.1844  0.4204
 1869TIP3    H227243   1.134   5.218   0.689 -0.6415  0.9941 -0.7462
 1870TIP3   OH227244   2.155   3.668   8.574 -0.1827  0.0313  0.9694
 1870TIP3    H127245   2.206   3.608   8.520  0.7121  1.6534 -0.0843
 1870TIP3    H227246   2.108   3.723   8.511 -0.9553  0.4595  1.8901
 1871TIP3   OH227247   5.647   5.839   8.594  0.2631 -0.8894 -0.0942
 1871TIP3    H127248   5.713   5.887   8.644 -0.6470  1.0887 -0.6995
 1871TIP3    H227249   5.679   5.840   8.504 -0.2951 -0.4125 -0.2959
 1872TIP3   OH227250   6.396   3.715   0.670 -0.1086  0.3423 -0.3225
 1872TIP3    H127251   6.304   3.706   0.646  0.0071  1.2833 -1.1982
 1872TIP3    H227252   6.425   3.794   0.625  0.6519  1.1145  1.4068
 1873TIP3   OH227253   6.488   4.625   6.274  0.2220 -0.6202 -0.0676
 1873TIP3    H127254   6.565   4.665   6.235 -1.0741  0.1581 -1.9808
 1873TIP3    H227255   6.442   4.697   6.318  1.0614 -1.2725  2.0200
 1874TIP3   OH227256   4.729   5.091   8.220 -0.4781 -0.2924 -0.2381
 1874TIP3    H127257   4.650   5.064   8.172 -2.0781 -0.0900  2.0949
 1874TIP3    H227258   4.774   5.010   8.240 -1.6292 -0.7033  0.8224
 1875TIP3   OH227259   3.949   0.574   8.219  0.1588 -0.0094 -0.4396
 1875TIP3    H127260   4.016   0.627   8.176  0.9195 -0.9219 -0.4325
 1875TIP3    H227261   3.910   0.632   8.284 -0.6658  1.2498 -1.9709
 1876TIP3   OH227262   5.990   0.326   1.790 -0.1457  0.2575 -0.3070
 1876TIP3    H127263   5.994   0.354   1.699 -0.8191 -0.4740 -0.5825
 1876TIP3    H227264   6.078   0.341   1.825 -0.4529  2.5912 -0.4286
 1877TIP3   OH227265   0.422   1.279   0.487  0.5288  0.1705 -0.4223
 1877TIP3    H127266   0.508   1.240   0.502  0.6447  0.7297  0.4778
 1877TIP3    H227267   0.367   1.245   0.558  0.3745  0.8357 -0.2052
 1878TIP3   OH227268   2.829   1.960   6.554 -0.5494 -0.1799  0.2514
 1878TIP3    H127269   2.816   1.908   6.475 -0.1275  0.0728  0.0076
 1878TIP3    H227270   2.852   2.047   6.522  1.9235 -0.6210  0.6082
 1879TIP3   OH227271   3.130   3.327   0.499 -0.9637 -0.0924  0.0946
 1879TIP3    H127272   3.066   3.370   0.555 -1.2660  1.0751 -1.0727
 1879TIP3    H227273   3.161   3.397   0.441 -0.2031 -1.1009 -0.7553
 1880TIP3   OH227274   2.535   6.593   7.039  0.6048  0.6874  0.1964
 1880TIP3    H127275   2.530   6.663   6.974 -0.9633  1.6647  1.3046
 1880TIP3    H227276   2.623   6.600   7.076  0.6804  1.6531 -0.1595
 1881TIP3   OH227277   2.321   1.210   0.201 -0.1876 -0.1046  0.2372
 1881TIP3    H127278   2.408   1.171   0.209  0.3817  0.9547 -0.4608
 1881TIP3    H227279   2.261   1.146   0.239  0.7880 -1.2974 -0.1933
 1882TIP3   OH227280   3.140   3.643   0.090 -0.3491 -0.5689  0.4543
 1882TIP3    H127281   3.127   3.733   0.120  1.2165 -0.1322 -0.0612
 1882TIP3    H227282   3.235   3.631   0.090 -0.3597 -1.2904 -2.1150
 1883TIP3   OH227283   4.507   5.480   1.684  0.1704  0.2920  0.4401
 1883TIP3    H127284   4.514   5.487   1.780 -2.1558 -1.0283  0.8028
 1883TIP3    H227285   4.443   5.547   1.660  0.1471  0.0865 -0.0691
 1884TIP3   OH227286   3.463   0.550   6.260 -0.2817 -0.3327 -0.1735
 1884TIP3    H127287   3.507   0.465   6.267 -0.4917 -0.4895 -0.7200
 1884TIP3    H227288   3.528   0.614   6.289 -0.0531 -0.6616  0.0404
 1885TIP3   OH227289   5.567   2.720   8.432  0.1742  0.0221  0.2089
 1885TIP3    H127290   5.624   2.647   8.411 -0.1076 -0.6166  1.5422
 1885TIP3    H227291   5.557   2.768   8.349  3.1970  0.6096  0.0628
 1886TIP3   OH227292   3.951   5.932   8.198 -0.0162  0.0804  0.1959
 1886TIP3    H127293   3.879   5.875   8.225 -0.8002  1.6587  1.6480
 1886TIP3    H227294   4.019   5.872   8.168 -2.3743 -1.4475 -2.5500
 1887TIP3   OH227295   0.491   6.815   7.695  0.0033  0.3847 -0.1880
 1887TIP3    H127296   0.404   6.852   7.688 -0.8943 -1.3676  0.9197
 1887TIP3    H227297   0.508   6.776   7.609 -0.9330 -0.4873  0.0048
 1888TIP3   OH227298   4.451   1.535   1.319 -0.4390 -0.0488  0.0094
 1888TIP3    H127299   4.475   1.525   1.411 -2.7415 -2.5293  0.4673
 1888TIP3    H227300   4.525   1.497   1.271  0.0723 -0.2137  0.8983
 1889TIP3   OH227301   1.890   5.408   1.773 -0.0738 -0.1419 -0.0124
 1889TIP3    H127302   1.919   5.478   1.832 -0.2893 -0.3340  0.3258
 1889TIP3    H227303   1.935   5.426   1.691 -0.3694  0.5783 -0.0252
 1890TIP3   OH227304   1.398   2.701   8.616  0.0725  0.4811 -0.1057
 1890TIP3    H127305   1.335   2.748   8.670 -1.3835 -0.6140 -0.7932
 1890TIP3    H227306   1.438   2.768   8.561 -1.7265  1.0071 -0.8439
 1891TIP3   OH227307   1.190   4.749   0.688  0.3987 -0.2251  0.2058
 1891TIP3    H127308   1.220   4.791   0.607  0.1202  1.3435  0.8882
 1891TIP3    H227309   1.221   4.806   0.758 -1.1119 -0.4496  1.1087
 1892TIP3   OH227310   1.156   3.471   7.707  0.2236 -0.8210 -0.4379
 1892TIP3    H127311   1.108   3.439   7.784 -0.7307 -0.6214 -0.9354
 1892TIP3    H227312   1.211   3.396   7.681  1.8071 -0.3720  1.3708
 1893TIP3   OH227313   3.855   0.385   6.906 -0.0641 -0.1793 -0.3281
 1893TIP3    H127314   3.899   0.469   6.915 -1.7667  0.6111  1.2427
 1893TIP3    H227315   3.788   0.400   6.840  0.3074 -0.6142 -0.8079
 1894TIP3   OH227316   1.449   2.232   8.044  0.0664 -0.5015 -0.0244
 1894TIP3    H127317   1.534   2.188   8.033  0.8809  1.2209 -1.1574
 1894TIP3    H227318   1.387   2.176   7.998  1.0803 -0.4989 -1.4643
 1895TIP3   OH227319   4.992   4.635   6.784 -0.6885 -0.0565 -0.5031
 1895TIP3    H127320   5.000   4.541   6.796 -1.5591  0.1053  1.8922
 1895TIP3    H227321   5.066   4.659   6.728  1.6776 -1.6679  1.7306
 1896TIP3   OH227322   6.173   5.068   8.413 -0.1050  0.5845 -0.2371
 1896TIP3    H127323   6.257   5.095   8.377  0.2469 -0.5800 -0.3044
 1896TIP3    H227324   6.161   4.978   8.383 -0.8789  0.3743  0.6427
 1897TIP3   OH227325   0.280   5.675   0.751  0.0519 -0.0290  0.4492
 1897TIP3    H127326   0.313   5.595   0.711 -1.0029 -0.0421 -0.4229
 1897TIP3    H227327   0.227   5.645   0.825  1.9025 -0.0070  1.8889
 1898TIP3   OH227328   3.648   6.288   1.373 -0.0090  0.3778 -0.0479
 1898TIP3    H127329   3.685   6.201   1.392 -0.4454 -0.1571 -1.5681
 1898TIP3    H227330   3.716   6.349   1.402 -0.3646 -0.3413  2.6327
 1899TIP3   OH227331   0.756   1.164   7.886  0.0952  0.1804  0.1074
 1899TIP3    H127332   0.723   1.129   7.969 -2.0195  0.3978 -0.5676
 1899TIP3    H227333   0.747   1.259   7.895 -0.0548  0.2108 -0.3251
 1900TIP3   OH227334   1.434   3.174   8.050 -0.3107 -0.0148  0.4964
 1900TIP3    H127335   1.493   3.129   8.110  1.7292  1.2239 -0.4842
 1900TIP3    H227336   1.419   3.260   8.090  2.0801  1.3099 -1.2305
 1901TIP3   OH227337   4.248   6.331   0.105  0.5675  0.5902 -0.5125
 1901TIP3    H127338   4.205   6.415   0.118  1.0276  0.7329  0.1436
 1901TIP3    H227339   4.296   6.315   0.186  0.7252 -0.1679 -0.7398
 1902TIP3   OH227340   5.542   3.749   2.559 -0.2041  0.3686 -0.1831
 1902TIP3    H127341   5.628   3.706   2.557  0.0737  0.5015  3.0526
 1902TIP3    H227342   5.557   3.828   2.611 -1.8813  1.4664 -1.3075
 1903TIP3   OH227343   2.817   6.567   7.388  0.0516 -0.0202  0.1935
 1903TIP3    H127344   2.821   6.493   7.327 -0.6703  1.0354 -1.2096
 1903TIP3    H227345   2.875   6.633   7.349 -1.4928  1.2024 -0.1469
 1904TIP3   OH227346   2.861   2.724   8.080  0.4636 -0.1261  0.4653
 1904TIP3    H127347   2.887   2.782   8.151  2.2194  1.5652 -1.4411
 1904TIP3    H227348   2.943   2.691   8.044 -0.4176 -1.8950 -0.0942
 1905TIP3   OH227349   1.809   1.570   8.182  0.5044 -0.2912  0.7950
 1905TIP3    H127350   1.766   1.526   8.255  1.0650  0.5816  1.6616
 1905TIP3    H227351   1.901   1.578   8.208  0.5941  0.5847  0.2742
 1906TIP3   OH227352   6.754   0.212   0.551 -0.6779 -0.0860  0.4928
 1906TIP3    H127353   6.702   0.132   0.541 -0.2676 -0.0952 -2.7614
 1906TIP3    H227354   6.843   0.185   0.531 -0.6095  1.2325 -1.1372
 1907TIP3   OH227355   0.358   2.582   7.014  0.3899 -0.1719  0.1527
 1907TIP3    H127356   0.341   2.606   6.923  1.1179  1.7467  0.4614
 1907TIP3    H227357   0.279   2.606   7.061 -0.3119 -1.9500 -0.0627
 1908TIP3   OH227358   5.445   0.823   7.562 -0.1093 -0.1458  0.2053
 1908TIP3    H127359   5.477   0.871   7.639  2.3291 -1.5003  0.1242
 1908TIP3    H227360   5.433   0.734   7.593  0.1887 -0.5477 -0.8123
 1909TIP3   OH227361   6.147   1.130   7.868  0.7204  0.3560 -0.2147
 1909TIP3    H127362   6.187   1.165   7.788 -0.0223  0.2809 -0.6283
 1909TIP3    H227363   6.059   1.103   7.841  1.5065 -2.6319 -0.1213
 1910TIP3   OH227364   1.309   2.470   8.205 -0.0616 -0.6817 -0.1153
 1910TIP3    H127365   1.217   2.454   8.225 -0.2680 -0.0280 -0.5096
 1910TIP3    H227366   1.308   2.512   8.119  0.4841  0.8874  0.6085
 1911TIP3   OH227367   1.803   6.075   1.894 -0.7447 -0.2772 -0.2215
 1911TIP3    H127368   1.723   6.090   1.844 -2.8148  0.1494  2.9039
 1911TIP3    H227369   1.773   6.029   1.973  1.6652  2.1102  2.2902
 1912TIP3   OH227370   5.462   6.246   7.229  0.2926 -0.3539 -0.3015
 1912TIP3    H127371   5.384   6.262   7.283  1.2775  0.6538  0.8951
 1912TIP3    H227372   5.460   6.314   7.163  0.7685  0.4132  0.4610
 1913TIP3   OH227373   3.495   4.168   8.479  0.0043  0.4169  0.1135
 1913TIP3    H127374   3.568   4.185   8.420  0.0163 -1.5306 -0.5251
 1913TIP3    H227375   3.425   4.138   8.421 -0.7068  0.5237  0.8949
 1914TIP3   OH227376   2.926   5.878   6.929 -0.0036 -0.0037  0.0274
 1914TIP3    H127377   2.877   5.797   6.916  0.1101  0.1120 -1.3524
 1914TIP3    H227378   3.010   5.862   6.884 -0.1916  1.0456 -0.7401
 1915TIP3   OH227379   5.298   0.137   7.282  0.6664 -0.0591 -0.1481
 1915TIP3    H127380   5.265   0.145   7.371  1.0446  0.2993 -0.0399
 1915TIP3    H227381   5.393   0.141   7.290  0.6863  0.8915 -0.6477
 1916TIP3   OH227382   6.703   3.434   7.769  0.1500  0.4112  0.3203
 1916TIP3    H127383   6.618   3.428   7.812  1.4165 -0.4319  2.8806
 1916TIP3    H227384   6.694   3.380   7.690 -1.4540 -0.2565  0.9245
 1917TIP3   OH227385   6.095   3.488   0.231 -0.0713 -0.2188  0.6488
 1917TIP3    H127386   6.130   3.423   0.171  0.2572  1.0776 -0.6310
 1917TIP3    H227387   6.158   3.492   0.303 -0.7671 -2.2049  1.4298
 1918TIP3   OH227388   2.875   2.171   0.282  0.0807  0.4214 -0.1295
 1918TIP3    H127389   2.849   2.252   0.325 -0.7712  0.5812 -0.9065
 1918TIP3    H227390   2.937   2.130   0.342  2.0085  2.5408 -0.5103
 1919TIP3   OH227391   1.833   2.320   7.283  0.4553  0.4933  0.1118
 1919TIP3    H127392   1.764   2.383   7.261  1.2833  1.4362  0.1368
 1919TIP3    H227393   1.911   2.374   7.297  1.2969 -0.5893 -0.2958
 1920TIP3   OH227394   0.911   5.773   1.736 -0.1530  0.5185 -0.3258
 1920TIP3    H127395   0.968   5.807   1.806  0.4659  0.3287 -0.7287
 1920TIP3    H227396   0.961   5.787   1.656 -1.1882  1.4481 -0.8279
 1921TIP3   OH227397   6.417   1.247   1.021 -0.9980  0.4615 -0.2689
 1921TIP3    H127398   6.328   1.284   1.022 -0.3444  2.2106 -1.3424
 1921TIP3    H227399   6.443   1.251   0.929 -0.4046 -1.6601 -0.2414
 1922TIP3   OH227400   2.715   0.105   1.540  0.1856  0.1295 -0.3742
 1922TIP3    H127401   2.771   0.079   1.614  0.5768 -1.8061 -1.2886
 1922TIP3    H227402   2.775   0.147   1.479  0.5493 -1.2287 -0.9993
 1923TIP3   OH227403   2.761   0.465   1.841  0.1995  0.4358 -0.7376
 1923TIP3    H127404   2.824   0.422   1.783 -0.1981  0.4685 -1.2034
 1923TIP3    H227405   2.690   0.402   1.850  0.6457  0.0779  0.4244
 1924TIP3   OH227406   4.008   3.787   0.275  0.4342 -0.4647 -0.3578
 1924TIP3    H127407   4.049   3.708   0.241  0.5005 -0.9383  0.7769
 1924TIP3    H227408   3.924   3.757   0.309  0.7945 -0.2063  0.7931
 1925TIP3   OH227409   5.473   1.467   7.023 -0.1100 -0.1315  0.1444
 1925TIP3    H127410   5.460   1.552   6.981  0.8765  0.8697  1.7205
 1925TIP3    H227411   5.386   1.440   7.051 -0.3912  0.5804 -0.0119
 1926TIP3   OH227412   0.818   1.114   6.628  0.4678  0.1639  0.3458
 1926TIP3    H127413   0.753   1.122   6.697 -0.5391 -0.7762 -0.4657
 1926TIP3    H227414   0.902   1.114   6.674 -0.1563  0.1338  1.5125
 1927TIP3   OH227415   3.950   3.572   7.390  0.1077 -0.1065  0.3425
 1927TIP3    H127416   3.922   3.562   7.481  0.1632 -0.2844  0.3394
 1927TIP3    H227417   3.873   3.547   7.338 -0.2024  0.8088  0.3452
 1928TIP3   OH227418   2.632   3.238   8.116  0.1266 -0.1469  0.1620
 1928TIP3    H127419   2.555   3.262   8.064  0.6397  1.2658  0.0054
 1928TIP3    H227420   2.697   3.305   8.095  1.9369 -2.0731 -0.8225
 1929TIP3   OH227421   3.308   4.164   1.186 -0.3516  0.1038  0.6651
 1929TIP3    H127422   3.340   4.247   1.218 -0.3632 -0.4644  2.2165
 1929TIP3    H227423   3.245   4.135   1.252 -0.7880 -0.8584 -0.1430
 1930TIP3   OH227424   5.368   2.481   7.275  0.3795  0.1620  0.0921
 1930TIP3    H127425   5.283   2.487   7.319  0.1658 -0.8542 -0.1650
 1930TIP3    H227426   5.408   2.402   7.310  1.8912  1.4118  1.3378
 1931TIP3   OH227427   3.032   2.970   0.650  0.3824  0.5581 -0.8063
 1931TIP3    H127428   2.996   3.004   0.732 -0.5703 -1.4588 -0.3310
 1931TIP3    H227429   3.119   3.010   0.644 -0.0805  1.8557  0.4374
 1932TIP3   OH227430   4.544   1.954   6.700  0.6318  0.9117  0.4550
 1932TIP3    H127431   4.588   1.897   6.637  1.4445  2.1872 -0.1532
 1932TIP3    H227432   4.588   1.935   6.783 -0.5619 -0.8994  0.7369
 1933TIP3   OH227433   4.024   2.697   0.170 -0.5496 -0.3530 -0.2434
 1933TIP3    H127434   4.119   2.686   0.168 -0.7495 -2.4735 -2.5922
 1933TIP3    H227435   3.997   2.658   0.254  0.6202  0.2715  0.4453
 1934TIP3   OH227436   6.726   2.546   8.665 -0.3463 -0.2817 -0.7537
 1934TIP3    H127437   6.710   2.525   8.573 -2.7036  1.7633 -0.9123
 1934TIP3    H227438   6.677   2.627   8.680 -0.9233 -1.0910  2.5575
 1935TIP3   OH227439   3.764   2.415   7.206 -0.4439 -0.4256 -0.2962
 1935TIP3    H127440   3.778   2.432   7.113  0.2366 -0.8148 -0.2758
 1935TIP3    H227441   3.768   2.320   7.215 -1.0863 -0.4270  0.0498
 1936TIP3   OH227442   6.786   4.326   1.968 -0.4179 -0.1941 -0.0752
 1936TIP3    H127443   6.701   4.370   1.973 -0.2755  0.2672 -1.2054
 1936TIP3    H227444   6.847   4.386   2.011 -0.7571 -0.8219  1.3094
 1937TIP3   OH227445   5.085   2.543   7.144 -0.2393  0.6561  0.1271
 1937TIP3    H127446   5.137   2.498   7.077  2.2659 -0.3024  2.5187
 1937TIP3    H227447   5.035   2.473   7.186  0.6020  0.7023  1.2450
 1938TIP3   OH227448   4.202   4.228   7.033  0.4007 -0.2049  0.3608
 1938TIP3    H127449   4.125   4.284   7.045 -0.8686 -1.9463  0.7425
 1938TIP3    H227450   4.221   4.193   7.120 -0.0225 -1.8160 -0.1475
 1939TIP3   OH227451   0.419   4.268   1.355 -0.2097 -0.4057 -0.5907
 1939TIP3    H127452   0.466   4.338   1.309  1.2697 -0.9053  0.0796
 1939TIP3    H227453   0.352   4.313   1.405  1.0187  0.6181  0.2123
 1940TIP3   OH227454   6.186   4.283   8.463  0.3861 -0.4369  0.4113
 1940TIP3    H127455   6.258   4.259   8.405 -1.0688 -0.9707 -1.2406
 1940TIP3    H227456   6.110   4.235   8.430 -0.9412  0.7564  1.5598
 1941TIP3   OH227457   3.201   6.205   0.615 -0.0360  0.1224 -0.0246
 1941TIP3    H127458   3.194   6.155   0.696 -0.0739 -0.9130 -0.6480
 1941TIP3    H227459   3.204   6.297   0.643 -0.9658 -0.1728  1.0913
 1942TIP3   OH227460   4.093   3.257   6.485 -0.4325 -0.2417  0.4342
 1942TIP3    H127461   4.109   3.313   6.409  2.1078  0.3629  1.3114
 1942TIP3    H227462   4.171   3.201   6.490  0.4796  1.1054  3.6870
 1943TIP3   OH227463   0.249   2.012   0.709 -0.1197 -0.4261 -0.2666
 1943TIP3    H127464   0.192   2.088   0.696  1.1844  0.6302 -0.0446
 1943TIP3    H227465   0.261   2.007   0.804  1.3251  0.3060 -0.3780
 1944TIP3   OH227466   0.874   4.106   1.604  0.3233  0.2372 -0.8993
 1944TIP3    H127467   0.941   4.165   1.569 -1.4336  2.4557 -0.7622
 1944TIP3    H227468   0.836   4.153   1.677  0.2093 -2.0227  0.6050
 1945TIP3   OH227469   3.609   5.323   7.645  0.6573 -0.2587  0.0496
 1945TIP3    H127470   3.681   5.339   7.707  1.1757  0.7434 -0.7864
 1945TIP3    H227471   3.572   5.409   7.627 -0.8323 -0.7679  0.5204
 1946TIP3   OH227472   5.216   2.190   1.364  0.4569  0.4342  1.0556
 1946TIP3    H127473   5.178   2.107   1.395  1.8346 -1.5275 -1.9951
 1946TIP3    H227474   5.217   2.181   1.269  2.7652  3.0417  0.7275
 1947TIP3   OH227475   3.955   3.641   7.042  0.8493 -0.4440  0.0655
 1947TIP3    H127476   4.020   3.615   6.977 -0.0092 -0.4677 -0.8163
 1947TIP3    H227477   3.955   3.570   7.106  1.0477 -0.8788 -0.4107
 1948TIP3   OH227478   5.636   5.430   0.411  0.1102 -0.4869  0.3007
 1948TIP3    H127479   5.611   5.378   0.335  1.4245 -1.2938  0.3924
 1948TIP3    H227480   5.553   5.449   0.455 -0.4727 -1.8906 -0.1326
 1949TIP3   OH227481   1.175   3.859   2.267 -0.3723 -0.1902 -0.0965
 1949TIP3    H127482   1.268   3.861   2.291 -0.5784  0.6463  0.6669
 1949TIP3    H227483   1.139   3.786   2.318 -0.3214  0.0737  0.3214
 1950TIP3   OH227484   0.601   1.634   1.395 -0.4687  0.0090 -0.5620
 1950TIP3    H127485   0.596   1.610   1.303 -1.8723 -3.2107  0.2190
 1950TIP3    H227486   0.516   1.611   1.431  0.5958 -0.5168  1.8769
 1951TIP3   OH227487   5.036   3.111   0.773  0.2582 -0.2485  0.2201
 1951TIP3    H127488   4.986   3.185   0.806  1.8165  1.0166 -0.1798
 1951TIP3    H227489   5.127   3.130   0.795  0.8300 -1.4863 -0.8892
 1952TIP3   OH227490   0.378   1.540   6.866  0.0497 -0.3756 -0.7405
 1952TIP3    H127491   0.322   1.501   6.799  0.4535 -1.6506 -0.3553
 1952TIP3    H227492   0.463   1.497   6.855 -0.2716 -1.7173  1.5249
 1953TIP3   OH227493   2.813   3.215   7.748  0.1098  0.4585  0.1561
 1953TIP3    H127494   2.806   3.197   7.841  2.6932  2.8151  0.9513
 1953TIP3    H227495   2.877   3.152   7.715 -0.9502 -0.5025 -0.0997
 1954TIP3   OH227496   1.241   0.652   8.108 -0.7327  0.0820  0.1689
 1954TIP3    H127497   1.286   0.651   8.192  0.1118 -0.5177 -0.2742
 1954TIP3    H227498   1.175   0.721   8.116 -0.5532  0.1352  1.2593
 1955TIP3   OH227499   2.077   6.405   0.873  0.2849  0.1413  0.2375
 1955TIP3    H127500   2.043   6.320   0.898 -1.3148  1.4206  2.8379
 1955TIP3    H227501   2.120   6.390   0.788  0.2055 -3.2124  0.6553
 1956TIP3   OH227502   4.914   5.779   7.592  0.0297 -0.4067 -0.1707
 1956TIP3    H127503   4.961   5.800   7.511 -0.9959  0.2088 -0.6247
 1956TIP3    H227504   4.883   5.689   7.579 -0.3858 -0.2057 -0.5883
 1957TIP3   OH227505   1.828   1.924   0.052 -0.2148 -0.2966  0.0749
 1957TIP3    H127506   1.776   2.003   0.066  0.2783 -0.2375  1.8767
 1957TIP3    H227507   1.820   1.876   0.134  1.7438 -0.7612  0.0469
 1958TIP3   OH227508   6.460   5.494   6.153 -0.0472  0.3803  0.2318
 1958TIP3    H127509   6.367   5.502   6.129  0.3015  0.6236 -1.1086
 1958TIP3    H227510   6.493   5.425   6.095  0.7497  0.7091  0.2882
 1959TIP3   OH227511   1.750   4.722   8.222  0.0729  0.1905 -0.0172
 1959TIP3    H127512   1.784   4.779   8.153  1.6882  0.5334  1.0019
 1959TIP3    H227513   1.751   4.634   8.184  0.2307  0.4753 -0.6756
 1960TIP3   OH227514   4.123   6.283   8.191  0.3013 -0.1990 -0.0712
 1960TIP3    H127515   4.090   6.275   8.101  0.0487 -1.7534  0.1250
 1960TIP3    H227516   4.045   6.285   8.246  0.4359  1.4314  0.1020
 1961TIP3   OH227517   4.198   4.690   8.210 -0.0825  0.1672 -0.3682
 1961TIP3    H127518   4.262   4.756   8.238 -1.7863  0.9141  2.1077
 1961TIP3    H227519   4.214   4.615   8.268 -2.2505  0.9007  1.3258
 1962TIP3   OH227520   5.498   3.210   0.536  0.3071 -0.1794 -0.6067
 1962TIP3    H127521   5.568   3.202   0.600 -0.3369  0.1357  0.1552
 1962TIP3    H227522   5.542   3.201   0.451  1.6563  2.3933 -0.2776
 1963TIP3   OH227523   5.891   0.037   6.691  0.2435 -0.3250  0.0955
 1963TIP3    H127524   5.835  -0.017   6.748 -0.9151  0.2897 -0.4300
 1963TIP3    H227525   5.899   0.120   6.737  0.4614 -0.2977  0.0101
 1964TIP3   OH227526   5.395   6.321   0.911  0.1443  0.1568  0.1593
 1964TIP3    H127527   5.323   6.370   0.951 -0.2948 -0.0766 -0.3362
 1964TIP3    H227528   5.362   6.231   0.905  0.4219  0.0812 -0.2109
 1965TIP3   OH227529   2.203   4.531   1.642 -0.3163  0.3756  0.7939
 1965TIP3    H127530   2.144   4.515   1.568  0.5722  0.5139  0.0450
 1965TIP3    H227531   2.242   4.616   1.624  3.3467 -1.4377 -1.0130
 1966TIP3   OH227532   1.904   4.308   7.109 -0.3666  0.4031 -0.2394
 1966TIP3    H127533   1.824   4.266   7.077  0.4498  0.6256 -2.7812
 1966TIP3    H227534   1.941   4.244   7.171 -1.7083 -0.3699 -0.1908
 1967TIP3   OH227535   1.385   0.062   0.159 -0.2261  0.4509 -0.8765
 1967TIP3    H127536   1.380  -0.025   0.119 -0.1399  0.8627 -1.8077
 1967TIP3    H227537   1.384   0.122   0.085  1.1917  1.1940 -0.3342
 1968TIP3   OH227538   4.048   3.130   7.580  0.4861 -0.0186  0.2191
 1968TIP3    H127539   4.028   3.157   7.670  0.6632 -0.9412  0.5451
 1968TIP3    H227540   4.115   3.062   7.590 -1.6192 -2.3426 -0.3856
 1969TIP3   OH227541   5.593   6.503   0.844  0.5564  0.3390  0.0429
 1969TIP3    H127542   5.538   6.428   0.867  0.6989  0.6717  1.5687
 1969TIP3    H227543   5.549   6.579   0.883  1.1934  0.8420 -0.1883
 1970TIP3   OH227544   4.416   4.955   0.077  0.0821  0.1451  0.1926
 1970TIP3    H127545   4.460   4.969  -0.007  0.2037  0.3536  0.2897
 1970TIP3    H227546   4.445   4.869   0.106  0.0572  0.0827  0.0314
 1971TIP3   OH227547   3.026   3.586   7.572 -0.3550  0.0611  0.0605
 1971TIP3    H127548   3.118   3.589   7.546  0.1403  0.7228  1.7890
 1971TIP3    H227549   2.983   3.541   7.499  1.3340 -0.3567 -0.7426
 1972TIP3   OH227550   1.829   5.508   6.946  0.4161  0.4134  0.2434
 1972TIP3    H127551   1.791   5.556   6.873  1.2841  1.3181  0.3608
 1972TIP3    H227552   1.860   5.425   6.908  0.4216  0.6689 -0.3161
 1973TIP3   OH227553   2.755   3.834   6.236 -0.1850 -0.1212 -0.6716
 1973TIP3    H127554   2.719   3.890   6.168 -1.1129 -0.6841 -0.6572
 1973TIP3    H227555   2.848   3.826   6.213 -0.1618  0.9210 -0.9995
 1974TIP3   OH227556   0.310   3.041   6.521 -0.2784  0.3035  0.2381
 1974TIP3    H127557   0.396   3.003   6.539  0.1472  1.8710  1.8146
 1974TIP3    H227558   0.273   2.987   6.452  3.4346  1.6495 -3.1573
 1975TIP3   OH227559   6.728   5.120   0.874  0.0396 -0.7951  0.5041
 1975TIP3    H127560   6.635   5.110   0.851 -0.3809 -1.8221  2.4772
 1975TIP3    H227561   6.775   5.081   0.800 -1.1606 -1.9069  0.2970
 1976TIP3   OH227562   5.252   0.023   0.271  0.0791 -0.0280 -0.4153
 1976TIP3    H127563   5.199  -0.041   0.224  1.0705 -0.1612 -1.3959
 1976TIP3    H227564   5.291  -0.026   0.343  0.1710 -0.3281 -0.6682
 1977TIP3   OH227565   3.956   6.093   1.742  0.4795  0.1175  0.3447
 1977TIP3    H127566   4.036   6.082   1.690  0.5038 -1.6815  0.6743
 1977TIP3    H227567   3.986   6.130   1.825  0.4810  2.7187 -0.7461
 1978TIP3   OH227568   3.022   1.960   1.443  0.2930  0.2532 -0.0028
 1978TIP3    H127569   3.071   1.922   1.516  3.0941  1.8055 -0.9340
 1978TIP3    H227570   3.038   2.055   1.449 -0.5164  0.5671 -1.8491
 1979TIP3   OH227571   5.404   2.907   1.533  0.1917  0.2697 -0.1667
 1979TIP3    H127572   5.424   2.832   1.590 -0.2971  0.7358  0.6552
 1979TIP3    H227573   5.357   2.968   1.591 -0.8089  0.5250 -1.2190
 1980TIP3   OH227574   0.875   2.980   8.039  0.3564 -0.0907 -0.5044
 1980TIP3    H127575   0.806   2.979   7.972 -0.4079 -2.7206  0.1915
 1980TIP3    H227576   0.955   2.999   7.991 -0.6240  1.7183 -1.5449
 1981TIP3   OH227577   4.302   1.359   6.701  0.0507 -0.1314 -0.4978
 1981TIP3    H127578   4.297   1.310   6.783  1.4992  0.5762  0.0604
 1981TIP3    H227579   4.260   1.303   6.637 -2.2784 -0.1641  0.9363
 1982TIP3   OH227580   4.353   6.055   7.921  0.0240 -0.3254 -0.2352
 1982TIP3    H127581   4.412   5.980   7.928  0.5127  0.0765 -0.0358
 1982TIP3    H227582   4.371   6.091   7.834  0.0570 -0.2133 -0.1812
 1983TIP3   OH227583   1.373   0.733   0.443 -0.2397  0.0500 -0.0713
 1983TIP3    H127584   1.337   0.779   0.519  1.5165  0.8187  0.3501
 1983TIP3    H227585   1.306   0.669   0.420 -1.2329  0.4520  1.5177
 1984TIP3   OH227586   2.048   5.896   7.464  0.1286  0.3932 -0.5658
 1984TIP3    H127587   2.125   5.922   7.514 -0.0875 -1.5493  0.8946
 1984TIP3    H227588   1.977   5.952   7.498  0.3072  0.1671  0.1888
 1985TIP3   OH227589   0.884   2.483   6.649  0.4897 -0.5068 -0.8217
 1985TIP3    H127590   0.952   2.425   6.683  0.8800 -0.1115 -0.9285
 1985TIP3    H227591   0.815   2.423   6.620  0.6156 -0.8928 -0.3427
 1986TIP3   OH227592   2.181   5.147   6.667 -0.3355 -0.0867  0.3621
 1986TIP3    H127593   2.221   5.073   6.713 -0.8008 -0.6686 -0.1537
 1986TIP3    H227594   2.118   5.107   6.608 -1.1557  0.7764  0.6326
 1987TIP3   OH227595   5.277   1.350   1.149 -0.4025  0.0606  0.7258
 1987TIP3    H127596   5.368   1.348   1.120 -0.6686  0.9429 -0.2347
 1987TIP3    H227597   5.276   1.296   1.229  1.1455  0.7884  1.2860
 1988TIP3   OH227598   3.113   2.391   8.196  0.1670 -0.0538 -0.0020
 1988TIP3    H127599   3.032   2.341   8.208  1.0924 -2.2611 -2.0976
 1988TIP3    H227600   3.103   2.435   8.112  1.5034 -1.2520 -0.8438
 1989TIP3   OH227601   4.032   3.152   1.283  0.5237  0.0921 -0.3026
 1989TIP3    H127602   3.979   3.165   1.362  0.0210 -1.0620 -0.4331
 1989TIP3    H227603   3.970   3.161   1.211  0.6098 -0.6670 -0.4803
 1990TIP3   OH227604   0.639   0.425   1.562 -0.0197  0.0299  0.4169
 1990TIP3    H127605   0.643   0.504   1.615 -0.7383 -1.5112  2.9226
 1990TIP3    H227606   0.560   0.379   1.592 -0.6078 -0.8605 -2.1722
 1991TIP3   OH227607   5.330   3.240   8.012  0.4851 -0.5768 -0.6551
 1991TIP3    H127608   5.320   3.334   8.028 -1.1907 -0.8638  0.2485
 1991TIP3    H227609   5.424   3.226   8.009  0.7790  0.9871  0.1142
 1992TIP3   OH227610   5.771   4.671   2.251  0.1308 -0.4097  0.0874
 1992TIP3    H127611   5.790   4.699   2.341  2.3532  0.8720 -0.6991
 1992TIP3    H227612   5.711   4.738   2.217  0.3879 -0.1225  0.1943
 1993TIP3   OH227613   5.986   6.043   0.766  0.6347  0.0824  0.1504
 1993TIP3    H127614   6.017   5.983   0.698  1.2566  0.0809  0.4294
 1993TIP3    H227615   6.064   6.093   0.791  0.5293 -0.2427  1.1987
 1994TIP3   OH227616   3.594   2.276   6.764  0.0756 -0.2808  0.2601
 1994TIP3    H127617   3.509   2.251   6.799  0.7187 -2.6481  0.2748
 1994TIP3    H227618   3.603   2.226   6.683  1.2955  0.2548  0.0338
 1995TIP3   OH227619   4.603   5.953   6.675  0.2349  0.0410  0.5638
 1995TIP3    H127620   4.690   5.933   6.641  1.1722  2.3622  1.3229
 1995TIP3    H227621   4.557   5.993   6.601 -0.1686 -1.0939  0.1901
 1996TIP3   OH227622   6.017   3.188   1.219 -0.0992 -0.7568 -0.4345
 1996TIP3    H127623   6.029   3.095   1.200  0.5180 -0.5984 -0.8412
 1996TIP3    H227624   5.967   3.222   1.145  1.0541 -0.4402 -1.0826
 1997TIP3   OH227625   1.043   0.440   0.598  0.1224  0.0854  0.2439
 1997TIP3    H127626   1.045   0.431   0.693  1.5986 -0.8353  0.1605
 1997TIP3    H227627   1.080   0.527   0.582 -0.8059  0.5451  0.5174
 1998TIP3   OH227628   6.473   1.351   7.405  0.1348  0.2294  0.0637
 1998TIP3    H127629   6.568   1.354   7.415 -0.0336 -1.3954  3.9138
 1998TIP3    H227630   6.440   1.402   7.479 -1.9108 -1.8237  0.6841
 1999TIP3   OH227631   5.342   2.320   0.298  0.0805 -0.4309  0.1211
 1999TIP3    H127632   5.336   2.415   0.282 -0.9448 -0.6181 -0.7128
 1999TIP3    H227633   5.298   2.281   0.222  1.3255 -1.6095 -0.0114
 2000TIP3   OH227634   0.036   0.555   6.758 -0.4399  0.3134  0.4439
 2000TIP3    H127635   0.130   0.550   6.776 -0.2107  2.4451  0.0620
 2000TIP3    H227636   0.005   0.626   6.813 -1.8557 -0.3800  0.5734
 2001TIP3   OH227637   2.613   2.261   1.593 -0.5747  0.5875  0.6804
 2001TIP3    H127638   2.524   2.293   1.609 -0.4319  1.9873 -1.0004
 2001TIP3    H227639   2.621   2.260   1.497  0.9761 -0.2832  0.7841
 2002TIP3   OH227640   0.882   2.641   0.759 -0.2655  0.0563 -0.0925
 2002TIP3    H127641   0.954   2.704   0.759  1.2874 -1.6475  0.2118
 2002TIP3    H227642   0.923   2.557   0.737 -2.1388 -0.9936  0.2041
 2003TIP3   OH227643   5.039   3.254   1.425  0.2363  0.0018 -0.1475
 2003TIP3    H127644   5.096   3.300   1.363 -0.2790  1.7782  0.6560
 2003TIP3    H227645   5.051   3.301   1.507 -2.4404  0.4826  0.0365
 2004TIP3   OH227646   4.600   4.837   7.837 -0.4862 -0.0812  0.1030
 2004TIP3    H127647   4.511   4.822   7.808 -0.5387 -2.2174  1.2059
 2004TIP3    H227648   4.597   4.922   7.881 -2.5419 -1.0920  2.1029
 2005TIP3   OH227649   5.907   0.894   2.120  0.5280  0.0491 -0.7748
 2005TIP3    H127650   5.918   0.822   2.057  0.4697  0.3192 -1.0933
 2005TIP3    H227651   5.954   0.967   2.082  1.9100 -0.2519  0.2926
 2006TIP3   OH227652   3.710   6.270   1.759  0.2155 -0.1786  0.0354
 2006TIP3    H127653   3.748   6.355   1.783  1.6137 -0.8352  0.2671
 2006TIP3    H227654   3.783   6.222   1.719 -1.0750 -0.5159 -2.1067
 2007TIP3   OH227655   5.000   1.458   7.801 -0.6882  0.2435  0.1093
 2007TIP3    H127656   4.990   1.364   7.790 -0.4695 -0.0366  1.9634
 2007TIP3    H227657   4.969   1.496   7.719 -0.4767 -1.4464 -0.7899
 2008TIP3   OH227658   1.700   1.496   7.274 -0.9001 -0.5717 -0.0304
 2008TIP3    H127659   1.666   1.579   7.242  0.6681 -0.4146 -1.4384
 2008TIP3    H227660   1.763   1.468   7.207  0.1725 -1.8374  1.4206
 2009TIP3   OH227661   1.915   6.432   1.338 -0.3667 -0.2943  0.0079
 2009TIP3    H127662   1.838   6.400   1.384 -0.5806 -0.6844 -0.6144
 2009TIP3    H227663   1.938   6.361   1.278 -0.4987  0.4844 -0.9781
 2010TIP3   OH227664   0.964   6.442   0.359  0.4071 -0.0668  0.2643
 2010TIP3    H127665   0.880   6.476   0.329  0.0809  0.0483  1.2639
 2010TIP3    H227666   0.970   6.355   0.320  0.7096  0.6489 -1.3571
 2011TIP3   OH227667   2.439   2.951   8.146  0.1056  0.4619 -0.3552
 2011TIP3    H127668   2.435   3.046   8.158  1.4872  0.6265 -0.9575
 2011TIP3    H227669   2.516   2.937   8.090 -0.9385 -0.9058 -1.5360
 2012TIP3   OH227670   3.501   2.598   7.206 -0.1280 -0.2908 -0.0295
 2012TIP3    H127671   3.511   2.661   7.134 -1.0880 -0.8539 -0.6750
 2012TIP3    H227672   3.425   2.545   7.181  0.8597 -1.9413  0.3105
 2013TIP3   OH227673   0.560   2.406   8.638  0.1109  0.6069 -0.3410
 2013TIP3    H127674   0.502   2.450   8.701  1.3257  2.3661 -0.3530
 2013TIP3    H227675   0.642   2.456   8.643  2.0005 -2.3206  0.3666
 2014TIP3   OH227676   4.535   6.738   1.591 -0.3498  0.1899 -0.0377
 2014TIP3    H127677   4.508   6.670   1.653 -1.9867  1.6040  0.8940
 2014TIP3    H227678   4.607   6.699   1.542 -0.2528 -1.6632  1.4751
 2015TIP3   OH227679   3.781   2.743   7.178 -0.4306 -0.4041  0.2367
 2015TIP3    H127680   3.790   2.836   7.198  1.0104 -0.6016  0.5874
 2015TIP3    H227681   3.733   2.741   7.095  2.1871  0.8087 -1.4392
 2016TIP3   OH227682   3.764   1.612   0.171 -0.3818 -0.6856 -0.1452
 2016TIP3    H127683   3.775   1.701   0.139 -0.6479 -0.1856  1.0981
 2016TIP3    H227684   3.838   1.563   0.133  0.7596  0.4562  0.5383
 2017TIP3   OH227685   2.298   4.847   7.708 -0.1605 -0.2680 -0.9872
 2017TIP3    H127686   2.258   4.903   7.774 -0.7922 -0.8807 -0.8332
 2017TIP3    H227687   2.360   4.903   7.662  1.6562 -0.2471  1.3023
 2018TIP3   OH227688   1.359   0.589   8.364 -0.4784 -0.1115 -0.6337
 2018TIP3    H127689   1.432   0.560   8.308 -0.1769  1.3216 -1.0161
 2018TIP3    H227690   1.384   0.560   8.452  0.3543  0.0038 -0.8213
 2019TIP3   OH227691   4.932   1.540   7.023 -0.0202  0.2867 -0.1829
 2019TIP3    H127692   4.843   1.506   7.021  0.1291 -0.0723 -1.0144
 2019TIP3    H227693   4.922   1.631   7.052 -0.6424  0.2140 -0.1553
 2020TIP3   OH227694   3.624   6.225   8.259 -0.1367  0.1324  0.6112
 2020TIP3    H127695   3.660   6.237   8.347  2.0522  0.3829 -0.2604
 2020TIP3    H227696   3.622   6.313   8.222  2.6482 -0.3170 -0.8842
 2021TIP3   OH227697   4.494   4.135   1.102  0.5221  0.4819 -0.4785
 2021TIP3    H127698   4.586   4.125   1.124  0.2605 -0.4672  0.2659
 2021TIP3    H227699   4.452   4.056   1.137 -0.6120  1.0113 -0.5850
 2022TIP3   OH227700   5.236   4.113   6.344  0.8057  0.3566 -0.3962
 2022TIP3    H127701   5.275   4.196   6.317  0.8361  0.0376 -1.3630
 2022TIP3    H227702   5.142   4.128   6.335  0.8211  0.2035 -0.8336
 2023TIP3   OH227703   0.793   5.184   2.336 -0.2071  0.5022 -0.0655
 2023TIP3    H127704   0.843   5.128   2.277 -0.3253  1.0341 -0.6882
 2023TIP3    H227705   0.773   5.261   2.283  1.9349  2.1986  1.4656
 2024TIP3   OH227706   3.633   6.737   0.536 -0.6807  0.1787 -0.0599
 2024TIP3    H127707   3.642   6.646   0.508  1.6485  0.6673 -1.1452
 2024TIP3    H227708   3.618   6.731   0.630 -0.8229 -1.3183 -0.1400
 2025TIP3   OH227709   6.660   5.895   8.581  0.2399 -0.1273 -0.0247
 2025TIP3    H127710   6.576   5.849   8.581 -0.1998  0.6539 -0.2822
 2025TIP3    H227711   6.714   5.847   8.643 -0.3022 -0.8179 -0.0800
 2026TIP3   OH227712   5.568   6.459   6.251 -0.3894 -0.5174 -0.0436
 2026TIP3    H127713   5.553   6.382   6.306 -0.2364 -1.2270 -0.9668
 2026TIP3    H227714   5.663   6.470   6.252 -0.5307  1.0019  1.8346
 2027TIP3   OH227715   0.215   6.382   0.546  0.4951 -0.4404 -0.3230
 2027TIP3    H127716   0.246   6.385   0.636  0.3858 -1.0690 -0.2603
 2027TIP3    H227717   0.288   6.345   0.497  0.3700 -0.5772 -0.4075
 2028TIP3   OH227718   4.110   1.254   8.251 -0.2696  0.0728 -0.3082
 2028TIP3    H127719   4.196   1.294   8.240  0.2538 -1.3907 -2.0702
 2028TIP3    H227720   4.048   1.325   8.235  0.5413  1.3646  1.8746
 2029TIP3   OH227721   6.778   6.410   0.099  0.0845  0.9417  0.3244
 2029TIP3    H127722   6.828   6.478   0.054  0.3963 -0.1339 -1.0213
 2029TIP3    H227723   6.841   6.370   0.159  0.8035 -0.1833 -1.1192
 2030TIP3   OH227724   3.091   0.954   0.553 -0.6893 -0.5649  0.0270
 2030TIP3    H127725   3.071   0.863   0.534  1.6771 -1.1046 -0.2094
 2030TIP3    H227726   3.121   0.989   0.469 -1.7680  0.5150  0.0675
 2031TIP3   OH227727   4.305   2.887   1.597  0.0424 -0.2218 -1.1022
 2031TIP3    H127728   4.258   2.907   1.516  1.0213  0.5619 -1.4985
 2031TIP3    H227729   4.245   2.913   1.667 -1.1253 -1.6025 -1.5295
 2032TIP3   OH227730   0.414   2.440   7.241  0.2303 -0.3155  0.5225
 2032TIP3    H127731   0.348   2.371   7.241  0.0149 -0.1497 -1.3987
 2032TIP3    H227732   0.411   2.477   7.153  1.7935  0.7562  0.8734
 2033TIP3   OH227733   3.053   5.636   8.321  0.2565  0.4183  0.3391
 2033TIP3    H127734   3.031   5.608   8.232 -1.7310  3.0948 -0.1471
 2033TIP3    H227735   2.974   5.621   8.371  1.5941 -1.7842  1.9634
 2034TIP3   OH227736   4.935   4.431   1.523  0.5867  0.3601  0.6153
 2034TIP3    H127737   4.919   4.410   1.615  6.4832 -0.0983  1.9736
 2034TIP3    H227738   4.968   4.350   1.485  0.2968  1.0896 -1.3368
 2035TIP3   OH227739   4.198   0.884   6.213  0.4723  0.3597  0.0647
 2035TIP3    H127740   4.279   0.874   6.162 -0.0319 -0.0543 -0.6846
 2035TIP3    H227741   4.198   0.976   6.240  0.2620  0.8721 -1.5760
 2036TIP3   OH227742   0.318   1.036   1.280  0.3838  0.8641 -0.5384
 2036TIP3    H127743   0.257   1.053   1.208  0.6496  1.6107 -0.5958
 2036TIP3    H227744   0.356   1.121   1.300  1.6375  0.3637 -0.7089
 2037TIP3   OH227745   0.655   3.237   1.391 -0.2399  0.3520  0.2787
 2037TIP3    H127746   0.600   3.159   1.380 -0.2971  0.6313 -1.7031
 2037TIP3    H227747   0.614   3.304   1.337 -0.5764  2.0215  2.4664
 2038TIP3   OH227748   2.719   0.177   6.157 -0.2520  0.2902 -0.5299
 2038TIP3    H127749   2.656   0.128   6.105  0.9508 -1.8456 -0.0930
 2038TIP3    H227750   2.796   0.184   6.100  1.5463 -3.1471  1.1453
 2039TIP3   OH227751   1.502   4.742   0.530  0.0187  0.9606 -0.5519
 2039TIP3    H127752   1.427   4.779   0.484 -0.2172 -0.6457 -1.5524
 2039TIP3    H227753   1.498   4.648   0.510  2.1676  0.8052 -0.4517
 2040TIP3   OH227754   0.010   6.197   7.216  0.3959  0.2791  0.4303
 2040TIP3    H127755  -0.034   6.271   7.175 -2.0877 -1.7124 -0.7669
 2040TIP3    H227756   0.044   6.146   7.142  1.4468 -0.1693  1.1970
 2041TIP3   OH227757   1.446   0.271   6.267 -0.5523  0.1673  0.0222
 2041TIP3    H127758   1.525   0.245   6.219 -1.0311 -1.4204  0.0316
 2041TIP3    H227759   1.382   0.203   6.246 -1.7306  1.0838  0.5189
 2042TIP3   OH227760   5.771   4.438   0.742  0.3982  0.3877  0.3125
 2042TIP3    H127761   5.755   4.346   0.761  2.9755 -0.4719 -1.1455
 2042TIP3    H227762   5.754   4.447   0.649  1.0788  1.1449  0.2484
 2043TIP3   OH227763   3.691   6.480   8.143  0.4299 -0.0495 -0.9074
 2043TIP3    H127764   3.778   6.441   8.153  0.3543 -0.2994 -1.1997
 2043TIP3    H227765   3.700   6.537   8.067  0.0449 -0.9392 -1.6433
 2044TIP3   OH227766   0.467   2.467   0.611  0.2983 -0.3131 -0.0181
 2044TIP3    H127767   0.480   2.408   0.537  0.8507 -0.5667  0.2756
 2044TIP3    H227768   0.553   2.505   0.628 -0.0076  0.4400 -0.0792
 2045TIP3   OH227769   3.864   1.704   0.467 -0.2912 -0.4270 -0.5220
 2045TIP3    H127770   3.880   1.611   0.481 -1.2719 -0.9765 -2.6935
 2045TIP3    H227771   3.946   1.738   0.430 -0.2386 -0.6426 -0.6033
 2046TIP3   OH227772   1.397   2.414   0.132  0.4402  0.0940  0.7634
 2046TIP3    H127773   1.375   2.402   0.040 -0.4322  0.0355  0.9742
 2046TIP3    H227774   1.342   2.486   0.161 -1.2359 -1.5493  1.8900
 2047TIP3   OH227775   4.824   3.170   7.535 -0.0242 -0.3601  0.6293
 2047TIP3    H127776   4.872   3.146   7.614  0.2047  0.6827  0.8137
 2047TIP3    H227777   4.885   3.222   7.484 -1.4201  2.5847  1.6907
 2048TIP3   OH227778   5.063   4.074   0.776  0.0754 -0.2210 -0.0984
 2048TIP3    H127779   5.157   4.057   0.779  0.1865  0.0033 -1.6436
 2048TIP3    H227780   5.036   4.047   0.688 -1.3114 -0.2545  0.3012
 2049TIP3   OH227781   0.367   3.758   8.341  0.2845  0.0761  0.6983
 2049TIP3    H127782   0.441   3.758   8.402  1.7625 -0.1518 -1.0081
 2049TIP3    H227783   0.326   3.844   8.354  1.2860  0.4999  1.2001
 2050TIP3   OH227784   5.980   2.228   6.768 -0.1244 -0.3580 -0.8612
 2050TIP3    H127785   6.025   2.262   6.691  1.2173 -0.9915 -0.3807
 2050TIP3    H227786   5.893   2.267   6.764  0.4776  0.9447 -1.7806
 2051TIP3   OH227787   0.305   1.411   8.440 -0.8554  0.0856 -0.5271
 2051TIP3    H127788   0.296   1.381   8.530 -1.4849 -2.5015 -1.3783
 2051TIP3    H227789   0.222   1.457   8.422 -0.7751  0.5122  0.1446
 2052TIP3   OH227790   5.619   5.175   7.708 -0.1085 -0.3299 -0.2349
 2052TIP3    H127791   5.693   5.144   7.758  0.6066 -0.3885 -1.2941
 2052TIP3    H227792   5.543   5.129   7.744  0.5369 -1.1664  0.0633
 2053TIP3   OH227793   2.380   0.818   7.679  0.0092  0.5501 -0.2440
 2053TIP3    H127794   2.310   0.882   7.678 -0.3932  0.1197 -0.1161
 2053TIP3    H227795   2.380   0.783   7.769 -1.1886 -1.1441 -0.8501
 2054TIP3   OH227796   4.420   3.996   0.614  0.0634 -0.0164 -0.5312
 2054TIP3    H127797   4.476   3.957   0.681  1.6585  0.9771 -1.2426
 2054TIP3    H227798   4.413   3.928   0.547  1.1280  0.1428 -0.8206
 2055TIP3   OH227799   4.456   3.711   6.482  0.5800  0.4115  0.4587
 2055TIP3    H127800   4.413   3.793   6.456  1.0093  0.5777  0.2621
 2055TIP3    H227801   4.384   3.649   6.494  0.2620  0.7788  0.4666
 2056TIP3   OH227802   1.904   0.902   6.766  0.1233 -0.8490  0.4052
 2056TIP3    H127803   1.978   0.916   6.826  1.7724  1.8115 -1.9537
 2056TIP3    H227804   1.862   0.988   6.760 -0.2101 -1.0978 -1.8554
 2057TIP3   OH227805   3.233   5.008   0.434 -0.5425  0.3120  0.0041
 2057TIP3    H127806   3.326   5.007   0.409 -0.1092 -0.7574  1.5300
 2057TIP3    H227807   3.190   4.958   0.364  0.2175 -0.2192 -0.1040
 2058TIP3   OH227808   5.119   6.591   6.969  0.4873  0.0507  0.2887
 2058TIP3    H127809   5.214   6.574   6.972  0.3304 -1.4820 -1.6110
 2058TIP3    H227810   5.084   6.546   7.046  1.0780 -1.1735 -0.1392
 2059TIP3   OH227811   3.677   0.648   0.896 -0.8091 -0.2446  0.1343
 2059TIP3    H127812   3.671   0.735   0.937 -0.7437 -0.5447  0.8048
 2059TIP3    H227813   3.759   0.611   0.928 -1.1162 -0.7815  0.3274
 2060TIP3   OH227814   6.436   4.868   6.924 -0.0252 -0.3525 -0.4533
 2060TIP3    H127815   6.456   4.792   6.977 -0.4828 -0.7180 -0.7976
 2060TIP3    H227816   6.469   4.943   6.975  1.0207 -0.8226 -0.4144
 2061TIP3   OH227817   0.340   0.876   0.041  0.3252 -0.3542  0.3393
 2061TIP3    H127818   0.364   0.968   0.039  0.8588 -0.4893  0.2673
 2061TIP3    H227819   0.277   0.869   0.113 -0.6515  0.2754 -0.4264
 2062TIP3   OH227820   0.217   0.379   7.294  0.0296 -0.7096  0.6706
 2062TIP3    H127821   0.254   0.427   7.368  0.5385 -2.0023  1.2874
 2062TIP3    H227822   0.146   0.434   7.263  0.7249  0.5348  1.2085
 2063TIP3   OH227823   1.481   5.561   6.586  0.2690 -0.9075  0.0787
 2063TIP3    H127824   1.466   5.582   6.678  0.5442 -0.6729  0.0722
 2063TIP3    H227825   1.566   5.600   6.566 -0.0561 -0.4384 -0.4369
 2064TIP3   OH227826   3.194   3.126   6.768 -0.4526 -0.3241 -0.6163
 2064TIP3    H127827   3.193   3.037   6.806  0.7403  0.6468  1.9545
 2064TIP3    H227828   3.112   3.165   6.798 -0.1256  0.0143 -0.1479
 2065TIP3   OH227829   2.041   2.986   7.423  0.3700 -0.0546 -0.7364
 2065TIP3    H127830   2.041   2.910   7.481 -0.6949  0.3888 -0.1349
 2065TIP3    H227831   2.020   3.060   7.479  0.3529  0.5386 -1.5022
 2066TIP3   OH227832   6.646   6.375   0.778 -0.3846  0.0656 -0.5945
 2066TIP3    H127833   6.706   6.314   0.820  1.9520  1.7736 -1.2254
 2066TIP3    H227834   6.638   6.342   0.688 -1.1476 -0.6822 -0.2550
 2067TIP3   OH227835   0.280   3.238   7.081  0.0198  0.5008  0.1954
 2067TIP3    H127836   0.340   3.248   7.155  0.9582 -0.2193 -0.4460
 2067TIP3    H227837   0.235   3.323   7.075  2.8888  2.0865 -0.9249
 2068TIP3   OH227838   1.481   5.693   7.906  0.5218  0.0205  0.1333
 2068TIP3    H127839   1.499   5.657   7.993 -0.3951 -1.6109 -0.3145
 2068TIP3    H227840   1.386   5.705   7.904  0.7178  1.8762  0.0015
 2069TIP3   OH227841   5.055   5.609   7.109 -0.3984  0.1099 -0.5915
 2069TIP3    H127842   5.125   5.644   7.055 -0.1442  0.0729 -0.2899
 2069TIP3    H227843   4.975   5.641   7.069 -0.2153  0.0474 -1.0134
 2070TIP3   OH227844   0.297   0.145   1.165 -0.2167  0.5141  0.4633
 2070TIP3    H127845   0.248   0.188   1.235 -0.6187  3.2779 -1.3667
 2070TIP3    H227846   0.231   0.095   1.117 -0.3835  0.5645  0.6380
 2071TIP3   OH227847   1.814   2.759   1.106  0.4648  0.2225 -0.3932
 2071TIP3    H127848   1.794   2.846   1.071 -0.2066  0.1769 -0.1239
 2071TIP3    H227849   1.809   2.770   1.201 -0.9551 -0.4209 -0.3793
 2072TIP3   OH227850   5.052   6.418   6.362 -0.4960 -0.6693  0.6671
 2072TIP3    H127851   5.049   6.324   6.342  0.4106 -0.7369  0.8207
 2072TIP3    H227852   5.093   6.458   6.286 -0.1359 -0.5049  0.9447
 2073TIP3   OH227853   4.664   0.012   7.602  0.6027  0.4847  0.0463
 2073TIP3    H127854   4.593   0.074   7.616  0.8921  0.4279  2.0352
 2073TIP3    H227855   4.646  -0.060   7.664  1.0894 -0.7045 -1.1337
 2074TIP3   OH227856   6.858   5.249   1.283  0.1794  0.3040 -0.1944
 2074TIP3    H127857   6.914   5.263   1.360 -1.8298  3.4844  0.9200
 2074TIP3    H227858   6.778   5.210   1.319  0.1599 -0.5642 -1.1301
 2075TIP3   OH227859   4.841   6.212   8.117  0.6780  0.6981  0.4638
 2075TIP3    H127860   4.803   6.294   8.149 -0.5526  0.4262 -0.2399
 2075TIP3    H227861   4.793   6.143   8.163 -0.0049  0.3390 -0.7520
 2076TIP3   OH227862   3.262   6.810   7.527 -0.1002 -0.3674 -0.1235
 2076TIP3    H127863   3.218   6.884   7.485 -1.1758 -0.5358  0.6846
 2076TIP3    H227864   3.288   6.842   7.613  1.4758 -0.2414 -0.6235
 2077TIP3   OH227865   3.992   3.795   2.254  0.1814  0.0123  0.4756
 2077TIP3    H127866   4.083   3.824   2.251 -0.1367  1.1825  1.5234
 2077TIP3    H227867   3.995   3.704   2.224  1.8720 -0.4094  1.7953
 2078TIP3   OH227868   2.996   6.713   7.280  0.2023 -0.0632  0.0436
 2078TIP3    H127869   3.046   6.633   7.265  0.2433 -0.1455  0.5921
 2078TIP3    H227870   3.036   6.778   7.223  0.6786 -0.2331  0.1820
 2079TIP3   OH227871   0.946   6.044   1.174  0.5301 -0.6064 -0.0344
 2079TIP3    H127872   0.910   6.131   1.156  1.7375  0.1833  1.1183
 2079TIP3    H227873   0.871   5.985   1.170 -0.2537  0.4276 -1.2022
 2080TIP3   OH227874   6.602   0.002   0.505 -0.1066 -0.5976 -0.3783
 2080TIP3    H127875   6.559  -0.038   0.581  0.0534  1.0452  0.6244
 2080TIP3    H227876   6.596  -0.065   0.436 -3.8730 -0.6594 -0.1935
 2081TIP3   OH227877   5.602   0.211   0.741  0.4465 -0.2770 -0.6255
 2081TIP3    H127878   5.546   0.248   0.809  0.9901  1.5059 -1.0779
 2081TIP3    H227879   5.597   0.274   0.669  0.6546 -1.6251 -1.8672
 2082TIP3   OH227880   4.059   6.283   1.919 -0.3378  0.4262  0.2542
 2082TIP3    H127881   3.978   6.334   1.915 -0.3653  0.3189 -1.1012
 2082TIP3    H227882   4.120   6.329   1.861  0.0839 -0.3070  0.0935
 2083TIP3   OH227883   3.336   1.214   1.502 -0.3085 -0.4228 -0.2123
 2083TIP3    H127884   3.308   1.176   1.419  0.0958  1.1130 -1.0853
 2083TIP3    H227885   3.298   1.301   1.503  1.1997  0.2686  0.3547
 2084TIP3   OH227886   2.268   0.182   0.904 -0.1359  0.6481 -0.3120
 2084TIP3    H127887   2.335   0.124   0.941 -1.7456 -1.0015  0.1744
 2084TIP3    H227888   2.318   0.250   0.859  1.8613 -0.0961  0.6352
 2085TIP3   OH227889   2.468   6.734   0.794  0.1158  0.8865 -0.3347
 2085TIP3    H127890   2.465   6.640   0.778 -0.3688  1.0206 -1.1070
 2085TIP3    H227891   2.401   6.770   0.735  0.9505  1.8049 -0.7459
 2086TIP3   OH227892   5.276   3.554   6.692  0.2453  0.7389 -0.3579
 2086TIP3    H127893   5.186   3.581   6.711  0.6012  0.9160  1.1936
 2086TIP3    H227894   5.267   3.492   6.620 -1.3099 -0.4744  0.7888
 2087TIP3   OH227895   4.660   3.863   0.681 -0.2378  0.1451 -0.1842
 2087TIP3    H127896   4.669   3.885   0.773  1.6590 -1.5045  0.0931
 2087TIP3    H227897   4.694   3.774   0.674  2.6628  1.2726 -2.9408
 2088TIP3   OH227898   4.846   1.651   1.091 -0.6826  0.6306  0.2277
 2088TIP3    H127899   4.867   1.574   1.144 -2.4418  0.9901  1.5340
 2088TIP3    H227900   4.892   1.637   1.009 -0.2982 -1.4110  0.7459
 2089TIP3   OH227901   3.150   4.136   8.078 -0.2896 -0.3334  0.3763
 2089TIP3    H127902   3.172   4.062   8.135 -1.2027 -0.7948  0.1523
 2089TIP3    H227903   3.234   4.170   8.049  0.4257 -4.4976 -3.6595
 2090TIP3   OH227904   6.250   5.386   8.552 -0.8103  0.4913  0.4599
 2090TIP3    H127905   6.175   5.385   8.610  0.2035  0.8363  1.8202
 2090TIP3    H227906   6.318   5.338   8.599  0.4222  1.8366  0.1284
 2091TIP3   OH227907   4.562   5.867   7.980  0.0816  0.4156  0.3205
 2091TIP3    H127908   4.577   5.796   8.042  1.1172  1.3144  1.1414
 2091TIP3    H227909   4.642   5.871   7.927 -0.1199  0.7213  0.0332
 2092TIP3   OH227910   1.339   2.036   8.668  0.1715  0.1672  0.6703
 2092TIP3    H127911   1.429   2.064   8.654  0.1849 -0.3032 -0.2148
 2092TIP3    H227912   1.286   2.108   8.635  0.2206  0.2574  0.7890
 2093TIP3   OH227913   3.431   6.123   6.268 -0.1877 -1.0284 -0.6463
 2093TIP3    H127914   3.513   6.075   6.253  0.8839  0.0877  1.3088
 2093TIP3    H227915   3.380   6.065   6.325  1.3346  0.2146  2.1761
 2094TIP3   OH227916   0.667   5.076   0.774 -0.9443  0.1773 -0.6742
 2094TIP3    H127917   0.581   5.078   0.816 -0.7323 -2.9716  0.1427
 2094TIP3    H227918   0.723   5.128   0.832 -1.5448 -0.7196  0.7576
 2095TIP3   OH227919   3.930   2.910   1.138 -0.4383  0.1524 -0.7583
 2095TIP3    H127920   3.920   2.995   1.094  2.0780 -0.0001 -1.8038
 2095TIP3    H227921   3.920   2.846   1.067 -0.5436 -0.3249 -0.3131
 2096TIP3   OH227922   5.868   5.905   5.846 -0.1620 -0.1563  0.1860
 2096TIP3    H127923   5.931   5.895   5.917 -2.4085 -0.5500  2.2294
 2096TIP3    H227924   5.782   5.897   5.888 -1.6033 -1.1775 -2.7031
 2097TIP3   OH227925   0.732   1.751   7.128 -0.0043 -0.2572 -0.2893
 2097TIP3    H127926   0.711   1.820   7.192 -0.1096 -2.6928  2.5190
 2097TIP3    H227927   0.652   1.740   7.077 -0.5393  0.5603  0.3530
 2098TIP3   OH227928   0.215   0.410   6.521  0.2404  0.5281  0.1779
 2098TIP3    H127929   0.146   0.388   6.459 -0.1892 -0.0990  0.8684
 2098TIP3    H227930   0.174   0.469   6.584  0.3573  0.2116  0.5516
 2099TIP3   OH227931   2.105   1.596   0.032  0.7185  0.0233  0.0898
 2099TIP3    H127932   2.014   1.604   0.061  1.2093  2.4746  1.2920
 2099TIP3    H227933   2.142   1.526   0.086  0.1014  0.6087  1.3106
 2100TIP3   OH227934   4.847   1.542   6.594  0.0344 -0.0631 -0.4713
 2100TIP3    H127935   4.905   1.531   6.669 -2.6572 -3.1883  1.4079
 2100TIP3    H227936   4.797   1.622   6.614  1.7012  1.0991 -0.7747
 2101TIP3   OH227937   3.011   1.665   6.923 -0.0768 -0.3446  0.0858
 2101TIP3    H127938   3.054   1.686   6.840 -0.8854  0.5018 -0.1301
 2101TIP3    H227939   3.068   1.703   6.989  0.7511 -1.3167 -0.0493
 2102TIP3   OH227940   1.534   2.756   7.810 -0.1080 -0.7003 -0.6349
 2102TIP3    H127941   1.573   2.793   7.889  0.3145 -0.1106 -1.1070
 2102TIP3    H227942   1.606   2.711   7.766 -0.7356 -2.6630  0.2179
 2103TIP3   OH227943   4.723   0.344   2.166 -0.3560  0.5366  0.2642
 2103TIP3    H127944   4.812   0.315   2.186 -0.7092 -1.4079 -0.8160
 2103TIP3    H227945   4.667   0.283   2.213 -1.1348  1.6183  0.7621
 2104TIP3   OH227946   5.355   2.645   0.267  0.3720  0.3124  0.0388
 2104TIP3    H127947   5.298   2.694   0.326  0.9830  0.3926  0.5613
 2104TIP3    H227948   5.295   2.610   0.200 -0.1706  1.0985  0.1068
 2105TIP3   OH227949   4.753   0.794   1.781 -0.1489  0.3664 -0.1594
 2105TIP3    H127950   4.760   0.880   1.822  0.4960 -0.8958  2.5885
 2105TIP3    H227951   4.663   0.765   1.799  0.3716 -0.5206  1.1295
 2106TIP3   OH227952   2.318   4.653   8.119  0.1242 -0.3962 -0.4692
 2106TIP3    H127953   2.343   4.707   8.194  0.9535 -2.7723  1.0939
 2106TIP3    H227954   2.235   4.613   8.144  0.3594 -1.1428 -0.8411
 2107TIP3   OH227955   6.115   5.706   7.997  0.2458  0.0819 -0.0999
 2107TIP3    H127956   6.106   5.690   8.091  0.2238  0.4378 -0.0394
 2107TIP3    H227957   6.025   5.717   7.965  0.2919  0.8214 -0.0030
 2108TIP3   OH227958   1.947   2.877   6.770  0.0211  0.6036  0.5293
 2108TIP3    H127959   1.854   2.854   6.768 -0.0645  0.9652 -0.6948
 2108TIP3    H227960   1.987   2.821   6.703 -0.2005  3.8516 -2.6118
 2109TIP3   OH227961   1.880   4.563   1.706  0.0841 -0.1607 -0.4100
 2109TIP3    H127962   1.858   4.470   1.707 -1.3887  0.1577  0.7208
 2109TIP3    H227963   1.843   4.595   1.623  2.9314 -1.0176 -2.1515
 2110TIP3   OH227964   4.923   6.072   8.629  0.0841  0.4521  0.6710
 2110TIP3    H127965   4.926   6.028   8.714 -3.0676  1.3136  1.3691
 2110TIP3    H227966   4.863   6.145   8.642  0.4890  1.3723 -2.0054
 2111TIP3   OH227967   6.549   6.492   7.581  0.0387 -0.3095  0.3245
 2111TIP3    H127968   6.614   6.557   7.554 -0.5409  1.1037  2.1119
 2111TIP3    H227969   6.598   6.429   7.634  0.5150 -1.1460 -1.0466
 2112TIP3   OH227970   3.528   1.838   1.182 -0.5086 -0.0367 -0.3438
 2112TIP3    H127971   3.495   1.802   1.099 -1.5488  0.4718 -0.1692
 2112TIP3    H227972   3.573   1.764   1.223  1.7576  0.1711 -2.1915
 2113TIP3   OH227973   4.155   6.706   0.810  0.0634 -0.4734  0.3608
 2113TIP3    H127974   4.240   6.713   0.853  0.3664 -0.8598 -0.1509
 2113TIP3    H227975   4.116   6.627   0.847  1.3214 -2.2008 -1.6695
 2114TIP3   OH227976   2.683   2.808   0.481  0.1877  0.1445 -0.3716
 2114TIP3    H127977   2.703   2.829   0.572  2.0471 -2.1360 -0.1569
 2114TIP3    H227978   2.653   2.890   0.443  0.8673  1.5222  1.8970
 2115TIP3   OH227979   1.161   5.424   8.284 -0.1550 -0.2250  0.9145
 2115TIP3    H127980   1.205   5.341   8.265 -0.4097  0.0169 -0.9282
 2115TIP3    H227981   1.120   5.411   8.369  2.7621 -0.7309  2.3449
 2116TIP3   OH227982   1.420   3.820   7.112  0.1650  0.0628 -0.1379
 2116TIP3    H127983   1.508   3.858   7.113  0.3410 -0.3386  0.0518
 2116TIP3    H227984   1.375   3.865   7.041  0.5898  0.1300 -0.3675
 2117TIP3   OH227985   2.768   5.324   7.720 -0.4272  0.9518 -0.2206
 2117TIP3    H127986   2.793   5.272   7.643 -0.2014 -0.5326  0.8184
 2117TIP3    H227987   2.849   5.370   7.745 -0.1384  0.3837 -0.0856
 2118TIP3   OH227988   2.731   2.298   7.788  0.2185 -0.2687  0.4825
 2118TIP3    H127989   2.783   2.377   7.802 -1.0898  1.1964 -2.1866
 2118TIP3    H227990   2.646   2.318   7.825 -0.3611 -0.0840 -0.9096
 2119TIP3   OH227991   3.809   5.377   6.705 -0.0578 -0.1400 -0.3404
 2119TIP3    H127992   3.901   5.354   6.694  0.1584  0.1140  0.7651
 2119TIP3    H227993   3.771   5.304   6.753  0.4769  1.3423  2.5756
 2120TIP3   OH227994   1.735   1.763   0.277  0.5296  0.3020 -0.4292
 2120TIP3    H127995   1.703   1.687   0.326  1.8702 -1.6213 -2.3364
 2120TIP3    H227996   1.661   1.824   0.275 -1.4833 -1.9969 -0.8449
 2121TIP3   OH227997   4.075   2.778   6.582  0.2810  0.2627  0.2002
 2121TIP3    H127998   3.996   2.830   6.565 -0.3224 -0.6842 -0.0096
 2121TIP3    H227999   4.048   2.688   6.565  1.6493 -0.0077 -0.7212
 2122TIP3   OH228000   0.643   5.002   1.758  0.1129 -0.2502 -0.7777
 2122TIP3    H128001   0.689   5.085   1.773  0.9086 -0.6053 -1.1725
 2122TIP3    H228002   0.704   4.935   1.787 -0.2125 -0.7298 -1.1794
 2123TIP3   OH228003   5.495   1.934   8.552 -0.0322 -0.8667  0.0673
 2123TIP3    H128004   5.407   1.897   8.556 -0.1949 -0.4187  0.7651
 2123TIP3    H228005   5.485   2.018   8.508 -0.3315  0.1987  2.0562
 2124TIP3   OH228006   2.425   1.704   6.725  0.0421 -0.1536  0.5308
 2124TIP3    H128007   2.413   1.671   6.814 -0.3985 -0.1392  0.4801
 2124TIP3    H228008   2.459   1.793   6.737  2.4788 -1.0152  0.6651
 2125TIP3   OH228009   6.880   4.833   1.335 -0.3334 -0.2785  0.0258
 2125TIP3    H128010   6.970   4.844   1.304 -0.3414 -1.1634 -0.3518
 2125TIP3    H228011   6.826   4.879   1.271 -0.1299  0.6339  0.4922
 2126TIP3   OH228012   2.876   3.035   8.485 -0.6492  0.0115  0.1684
 2126TIP3    H128013   2.952   2.984   8.510  0.5083  1.2992 -0.5806
 2126TIP3    H228014   2.826   3.046   8.566  0.4607 -0.0511  0.8750
 2127TIP3   OH228015   1.123   1.816   0.214  0.1806 -0.3082 -0.0448
 2127TIP3    H128016   1.124   1.881   0.285  0.1078  0.9754 -1.1749
 2127TIP3    H228017   1.215   1.802   0.193  0.1676  1.3963 -1.4798
 2128TIP3   OH228018   3.152   0.145   7.758 -0.1553 -0.2369 -0.2140
 2128TIP3    H128019   3.072   0.092   7.753 -1.1296  0.8337  2.5395
 2128TIP3    H228020   3.217   0.085   7.793 -0.6738 -0.2294  0.7955
 2129TIP3   OH228021   0.519   2.914   8.078 -0.3173 -0.1342  0.5477
 2129TIP3    H128022   0.511   3.004   8.111 -2.1594 -0.3680  0.8570
 2129TIP3    H228023   0.430   2.879   8.083  0.3120 -1.8812  0.1245
 2130TIP3   OH228024   5.748   5.861   7.395 -0.5881  0.0880 -0.6006
 2130TIP3    H128025   5.841   5.883   7.383  0.4538 -2.2571  2.0368
 2130TIP3    H228026   5.719   5.917   7.466 -0.7316 -0.2334 -0.4025
 2131TIP3   OH228027   4.362   0.191   6.739  0.0585  0.6113 -0.0848
 2131TIP3    H128028   4.335   0.103   6.765  0.0225  1.0021  1.3020
 2131TIP3    H228029   4.457   0.186   6.735  0.2375  1.0054  2.1603
 2132TIP3   OH228030   2.409   2.275   6.070 -0.3837 -0.4900 -0.2170
 2132TIP3    H128031   2.346   2.276   5.998  0.7054 -2.0514 -1.2556
 2132TIP3    H228032   2.365   2.226   6.140 -0.3953 -1.4393 -0.8766
 2133TIP3   OH228033   2.536   6.448   0.658  0.1601 -0.0104 -0.1970
 2133TIP3    H128034   2.562   6.382   0.723  2.8140 -3.0737 -3.8895
 2133TIP3    H228035   2.605   6.514   0.661 -1.9776  2.3869  2.7933
 2134TIP3   OH228036   0.025   3.393   2.067 -0.3305  0.7473  0.1598
 2134TIP3    H128037   0.007   3.303   2.040 -1.5669  1.1347 -0.3904
 2134TIP3    H228038  -0.059   3.438   2.061 -0.0166  1.6317  1.7170
 2135TIP3   OH228039   0.919   3.895   1.038  0.1987  0.1652 -0.0434
 2135TIP3    H128040   0.898   3.924   0.950  1.6795 -1.7258 -1.1045
 2135TIP3    H228041   0.851   3.831   1.060 -1.0799  1.7859  0.8810
 2136TIP3   OH228042   5.412   3.233   1.097 -0.4732 -0.2087 -0.6685
 2136TIP3    H128043   5.479   3.170   1.121  0.3887  0.5951 -0.8954
 2136TIP3    H228044   5.452   3.318   1.113 -1.5565  0.2954 -0.5011
 2137TIP3   OH228045   4.794   3.159   1.370  0.2360 -0.6457  0.4896
 2137TIP3    H128046   4.737   3.223   1.411  1.5403 -0.5833  2.3533
 2137TIP3    H228047   4.881   3.179   1.404  1.2535 -1.3059 -1.5243
 2138TIP3   OH228048   2.806   4.407   7.196  0.4787  0.2454 -0.2409
 2138TIP3    H128049   2.882   4.408   7.138  0.8311 -0.0795  0.2098
 2138TIP3    H228050   2.832   4.460   7.271 -0.1129  0.9772 -0.5382
 2139TIP3   OH228051   0.745   2.635   2.282 -0.2925  0.0990  0.1276
 2139TIP3    H128052   0.768   2.569   2.348 -0.9802 -0.6050 -0.3134
 2139TIP3    H228053   0.649   2.640   2.286 -0.2351  1.1801  0.2513
 2140TIP3   OH228054   3.381   3.641   8.157 -0.4244  0.5719 -0.1568
 2140TIP3    H128055   3.414   3.663   8.244 -1.6240 -2.8209  1.3010
 2140TIP3    H228056   3.305   3.698   8.146  0.6530  2.1742  0.2448
 2141TIP3   OH228057   2.285   5.187   2.145  0.4503  0.2180 -0.3461
 2141TIP3    H128058   2.293   5.271   2.099 -0.4859  0.7154  0.3550
 2141TIP3    H228059   2.375   5.162   2.165  0.6927  2.1606  1.3549
 2142TIP3   OH228060   0.758   4.259   2.307  0.2871  0.5356 -0.3068
 2142TIP3    H128061   0.788   4.168   2.310 -0.6517  0.2483  0.4964
 2142TIP3    H228062   0.811   4.299   2.237 -1.5049 -1.4361 -2.9514
 2143TIP3   OH228063   6.666   1.328   1.945 -0.3864  0.3338  0.3714
 2143TIP3    H128064   6.696   1.346   1.856  1.1994 -0.9532  0.5848
 2143TIP3    H228065   6.580   1.370   1.951  0.4425  2.3932 -1.0177
 2144TIP3   OH228066   6.374   6.610   1.200 -0.1029  0.4881 -0.2486
 2144TIP3    H128067   6.467   6.614   1.177 -0.5118 -0.1497 -2.2104
 2144TIP3    H228068   6.371   6.559   1.281  1.4699  3.0556  1.5853
 2145TIP3   OH228069   5.817   6.555   0.195 -0.1411 -0.1271  0.0809
 2145TIP3    H128070   5.790   6.464   0.178  0.2577 -0.0427 -1.0880
 2145TIP3    H228071   5.888   6.547   0.259 -0.1557 -0.6387  0.0404
 2146TIP3   OH228072   5.055   0.322   6.778  0.3219  0.6133 -0.0921
 2146TIP3    H128073   5.124   0.385   6.757 -0.6140  1.9461  0.6290
 2146TIP3    H228074   4.984   0.376   6.814 -1.1406 -0.6881 -0.9093
 2147TIP3   OH228075   5.011   3.605   6.638  0.3505 -0.0679 -0.2093
 2147TIP3    H128076   4.962   3.523   6.641 -0.4381  0.3783  2.4953
 2147TIP3    H228077   4.949   3.669   6.606  0.0309 -0.0285  0.4650
 2148TIP3   OH228078   2.947   3.784   0.496  0.0796  0.4084 -0.1789
 2148TIP3    H128079   2.882   3.822   0.555 -0.0922  0.9382 -0.7059
 2148TIP3    H228080   2.902   3.710   0.455 -0.0871  0.5722 -0.2933
 2149TIP3   OH228081   3.327   1.825   8.369  0.0223 -0.1383  0.2110
 2149TIP3    H128082   3.270   1.868   8.306  0.4682 -0.8696 -0.7393
 2149TIP3    H228083   3.293   1.849   8.455 -1.5101 -0.3111 -0.3290
 2150TIP3   OH228084   5.424   6.354   7.609 -0.1965  0.2501  0.5738
 2150TIP3    H128085   5.503   6.315   7.649 -0.0195 -1.5521 -1.3793
 2150TIP3    H228086   5.365   6.368   7.683  1.4282  0.3818  1.9188
 2151TIP3   OH228087   1.332   2.337   0.849 -0.2343 -0.5376 -0.3543
 2151TIP3    H128088   1.347   2.387   0.769 -0.6302  0.0222 -0.0849
 2151TIP3    H228089   1.237   2.343   0.864  0.0241  0.7596  1.0488
 2152TIP3   OH228090   5.838   5.030   0.960  0.1091 -0.0570  0.2610
 2152TIP3    H128091   5.842   5.074   1.045 -0.2548  0.7908 -0.1471
 2152TIP3    H228092   5.866   4.941   0.978 -0.4487 -0.0278  1.3676
 2153TIP3   OH228093   1.482   3.888   6.707 -0.1413  0.2973 -0.1318
 2153TIP3    H128094   1.573   3.877   6.736 -0.2247  0.8655  0.3615
 2153TIP3    H228095   1.478   3.841   6.623  0.4618 -0.2031  0.1089
 2154TIP3   OH228096   1.279   6.707   7.760  0.1472  0.5329  0.1824
 2154TIP3    H128097   1.371   6.731   7.763  0.3612 -0.2785  2.3243
 2154TIP3    H228098   1.269   6.659   7.678  1.5563  0.8967 -0.2266
 2155TIP3   OH228099   0.041   6.311   1.524  0.5395 -0.2971 -0.2247
 2155TIP3    H128100   0.092   6.327   1.444  1.3774 -0.5907  0.2339
 2155TIP3    H228101  -0.009   6.392   1.537 -0.5856 -0.7132 -1.7257
 2156TIP3   OH228102   3.314   2.415   7.122 -0.4632 -0.1441  0.0401
 2156TIP3    H128103   3.222   2.414   7.148 -0.4750  0.6563  0.0360
 2156TIP3    H228104   3.333   2.323   7.100 -1.4768 -0.1983 -0.7153
 2157TIP3   OH228105   2.217   5.387   1.069  0.0721 -0.3699  0.6575
 2157TIP3    H128106   2.312   5.402   1.065 -0.2596  2.0613 -1.5297
 2157TIP3    H228107   2.197   5.342   0.987 -0.7457  0.0013  0.6447
 2158TIP3   OH228108   4.309   4.242   7.873  0.0448 -0.1051 -0.0248
 2158TIP3    H128109   4.382   4.239   7.811 -0.6928  0.8173 -0.9675
 2158TIP3    H228110   4.245   4.179   7.837 -0.5774  0.7676 -0.4739
 2159TIP3   OH228111   3.904   4.414   1.742 -0.1058 -0.0315 -0.3841
 2159TIP3    H128112   3.863   4.372   1.666 -2.0675  0.6339  0.2599
 2159TIP3    H228113   3.838   4.474   1.775  0.8763  0.0302  1.5995
 2160TIP3   OH228114   4.866   5.510   7.913 -0.4817 -0.4491  0.3347
 2160TIP3    H128115   4.862   5.545   8.002  1.5640  0.7419  0.0224
 2160TIP3    H228116   4.928   5.438   7.918  0.1985  0.0861 -0.2513
 2161TIP3   OH228117   0.764   1.799   6.029 -0.0040  0.2762  0.0816
 2161TIP3    H128118   0.731   1.743   6.099 -2.4443 -0.2558 -1.3861
 2161TIP3    H228119   0.772   1.885   6.069  2.6450 -0.7589  2.0453
 2162TIP3   OH228120   1.878   0.748   6.015 -0.4441 -0.7390  0.1478
 2162TIP3    H128121   1.836   0.829   6.042 -1.0800 -0.9562 -0.1726
 2162TIP3    H228122   1.949   0.776   5.957  0.4549 -0.3179  1.4204
 2163TIP3   OH228123   1.016   1.932   7.694 -0.3339 -0.1119  0.3101
 2163TIP3    H128124   0.996   1.856   7.749  1.0880 -1.0297 -0.3757
 2163TIP3    H228125   1.076   1.985   7.748 -2.1198  1.0973  1.1910
 2164TIP3   OH228126   4.986   4.605   7.535 -0.0694 -0.1715  0.1784
 2164TIP3    H128127   4.921   4.673   7.555  0.8011  0.4781  0.8583
 2164TIP3    H228128   4.941   4.547   7.473 -1.0637  0.6377  0.1100
 2165TIP3   OH228129   5.499   6.586   0.177  0.1306  0.1843 -0.4303
 2165TIP3    H128130   5.486   6.638   0.097  0.0838 -0.7637 -1.0595
 2165TIP3    H228131   5.566   6.521   0.153  1.9451  1.3995  1.0524
 2166TIP3   OH228132   3.186   1.989   6.136 -0.7929 -0.4997 -0.5837
 2166TIP3    H128133   3.120   1.920   6.129 -1.3201 -0.0143 -0.4600
 2166TIP3    H228134   3.145   2.066   6.098 -1.2956  0.4934  1.7971
 2167TIP3   OH228135   1.894   0.330   8.553  0.4987  0.6150  0.6464
 2167TIP3    H128136   1.912   0.239   8.578 -2.9250  0.1337  1.8657
 2167TIP3    H228137   1.904   0.379   8.635 -2.1318  0.5010  1.1009
 2168TIP3   OH228138   2.740   0.254   0.882  0.2520 -0.6188 -0.1821
 2168TIP3    H128139   2.812   0.232   0.942 -0.2712  0.6340  0.9643
 2168TIP3    H228140   2.764   0.338   0.845  0.0178 -0.8423 -0.8551
 2169TIP3   OH228141   1.470   1.391   1.273 -0.2472 -0.6771  0.3945
 2169TIP3    H128142   1.549   1.387   1.220 -0.5306 -0.3762 -0.0545
 2169TIP3    H228143   1.492   1.341   1.352  0.2284 -1.0013  0.0657
 2170TIP3   OH228144   6.238   5.425   2.346  0.2524 -0.5803  0.4550
 2170TIP3    H128145   6.328   5.394   2.351  0.2915 -0.5393  0.0159
 2170TIP3    H228146   6.188   5.361   2.396  0.2524 -1.6744 -0.9072
 2171TIP3   OH228147   2.485   5.430   7.696  0.4882 -0.1582  0.0309
 2171TIP3    H128148   2.439   5.482   7.629 -1.6420  0.3335  1.7466
 2171TIP3    H228149   2.577   5.436   7.671  0.2887  3.6277 -0.5144
 2172TIP3   OH228150   5.830   3.992   2.080 -0.6371  0.1474 -0.2830
 2172TIP3    H128151   5.783   4.074   2.063  0.4790  0.5776 -1.3572
 2172TIP3    H228152   5.913   4.020   2.118 -0.1912 -0.4752 -0.7876
 2173TIP3   OH228153   6.466   2.565   6.547  0.0415  0.4246 -0.3005
 2173TIP3    H128154   6.536   2.624   6.520  1.1250  0.0950  1.5801
 2173TIP3    H228155   6.437   2.523   6.465  0.6395  2.0334 -1.3825
 2174TIP3   OH228156   0.620   5.439   1.353 -0.2639 -0.3742  0.7102
 2174TIP3    H128157   0.544   5.474   1.401 -0.3232 -0.8357  0.9625
 2174TIP3    H228158   0.669   5.390   1.419 -1.1783 -2.3712  0.0140
 2175TIP3   OH228159   6.650   3.045   6.590  0.0803  0.4812 -0.1879
 2175TIP3    H128160   6.606   3.061   6.506  0.8964 -0.5861 -0.8556
 2175TIP3    H228161   6.691   3.129   6.611  0.6448  0.5377 -1.3648
 2176TIP3   OH228162   2.759   1.773   0.198 -0.0259 -0.2095  0.2051
 2176TIP3    H128163   2.814   1.725   0.260  0.9974 -0.1065 -0.6023
 2176TIP3    H228164   2.754   1.862   0.232  0.2795 -0.2318  0.3070
 2177TIP3   OH228165   5.827   5.145   8.588  0.0800 -0.4443 -0.3934
 2177TIP3    H128166   5.745   5.194   8.596 -0.2780 -0.4093 -3.2358
 2177TIP3    H228167   5.881   5.198   8.531  1.6066 -1.1075  0.3733
 2178TIP3   OH228168   3.706   2.090   0.886 -0.2359 -0.2706  0.0946
 2178TIP3    H128169   3.653   2.017   0.854  0.0094  0.2361 -1.5486
 2178TIP3    H228170   3.652   2.133   0.952 -0.6597 -1.5078  0.5764
 2179TIP3   OH228171   4.237   4.442   6.148  0.1455 -0.2381  0.2129
 2179TIP3    H128172   4.205   4.395   6.071  0.5692 -0.0658 -0.0704
 2179TIP3    H228173   4.330   4.421   6.153 -0.2176 -1.7385  1.7597
 2180TIP3   OH228174   5.031   5.532   1.460 -0.9864 -0.4068  0.3757
 2180TIP3    H128175   4.972   5.460   1.442 -0.1616 -0.2664 -3.8103
 2180TIP3    H228176   4.990   5.608   1.418  1.0714  0.1316 -0.7857
 2181TIP3   OH228177   3.610   4.434   7.428 -0.1957 -0.1440 -0.2719
 2181TIP3    H128178   3.661   4.514   7.416 -0.2131 -0.2195 -0.8750
 2181TIP3    H228179   3.576   4.413   7.341 -1.7854  0.2526  0.2035
 2182TIP3   OH228180   2.133   4.119   8.390  0.2041 -0.0968  0.0037
 2182TIP3    H128181   2.209   4.150   8.341  0.7110  2.9120  2.3652
 2182TIP3    H228182   2.076   4.080   8.324  2.8354 -0.5733 -2.1732
 2183TIP3   OH228183   2.191   4.769   1.223 -0.3062  0.8617  0.2998
 2183TIP3    H128184   2.106   4.768   1.179 -0.1007 -1.2907 -0.1915
 2183TIP3    H228185   2.254   4.750   1.154  0.7022  3.0293  0.5401
 2184TIP3   OH228186   4.547   4.791   7.285  0.9950 -0.2711 -0.0204
 2184TIP3    H128187   4.477   4.756   7.230 -0.3334  1.3271  0.5765
 2184TIP3    H228188   4.623   4.739   7.262 -0.8112 -3.6184  0.8399
 2185TIP3   OH228189   6.191   1.391   6.705 -0.3095  0.5680 -0.5216
 2185TIP3    H128190   6.270   1.420   6.751  0.1917  1.2654 -1.7573
 2185TIP3    H228191   6.120   1.442   6.744  0.2371  1.8318 -1.1001
 2186TIP3   OH228192   2.144   3.157   7.844  0.2273  0.0422 -0.1778
 2186TIP3    H128193   2.186   3.071   7.841  1.0835  0.4728 -1.5121
 2186TIP3    H228194   2.212   3.217   7.813  0.4239  1.5569  2.7808
 2187TIP3   OH228195   1.320   6.367   8.193  0.5544 -0.2521 -0.0210
 2187TIP3    H128196   1.402   6.411   8.214  0.6185  0.7508 -2.1572
 2187TIP3    H228197   1.345   6.294   8.136 -0.1285  1.7527 -3.1497
 2188TIP3   OH228198   1.153   4.321   0.363  0.5194  0.1717  0.7002
 2188TIP3    H128199   1.173   4.386   0.431  0.0569 -0.0657  1.0751
 2188TIP3    H228200   1.215   4.250   0.379 -0.6589 -0.6401  1.9673
 2189TIP3   OH228201   3.998   3.462   0.828  0.1365 -0.3975  0.1464
 2189TIP3    H128202   3.950   3.447   0.910  0.9421 -0.0009  0.7127
 2189TIP3    H228203   3.934   3.445   0.759 -0.0498 -2.7139  0.7993
 2190TIP3   OH228204   1.924   5.130   0.120 -0.8281  0.0909 -0.1196
 2190TIP3    H128205   1.856   5.088   0.067  1.7029 -3.8903 -0.6489
 2190TIP3    H228206   1.921   5.084   0.204  0.7706  0.1945  0.0249
 2191TIP3   OH228207   5.970   3.121   7.065  0.3047  0.5828 -0.6923
 2191TIP3    H128208   5.960   3.216   7.075  0.4450  0.5770 -0.5048
 2191TIP3    H228209   6.012   3.111   6.979 -0.0764  0.6697 -0.8927
 2192TIP3   OH228210   2.833   4.219   0.169 -0.2190  0.0155 -0.5422
 2192TIP3    H128211   2.853   4.254   0.082  1.0959  1.0014  0.1090
 2192TIP3    H228212   2.781   4.141   0.152 -0.5072  0.5207 -2.1878
 2193TIP3   OH228213   0.947   0.676   0.084 -0.2027 -0.0891 -0.2660
 2193TIP3    H128214   0.987   0.644   0.165 -0.6155  0.3067  0.0998
 2193TIP3    H228215   1.010   0.739   0.049 -0.4759  0.5015  0.2878
 2194TIP3   OH228216   1.997   6.416   7.403 -0.1233  0.2105 -0.5044
 2194TIP3    H128217   2.026   6.362   7.477 -2.0703 -0.3050 -0.0608
 2194TIP3    H228218   2.068   6.480   7.391  0.7894 -0.4549  1.0049
 2195TIP3   OH228219   6.161   2.319   1.752 -0.3339  0.5568  0.1836
 2195TIP3    H128220   6.199   2.296   1.836 -0.0272  0.2968 -0.0259
 2195TIP3    H228221   6.072   2.284   1.755 -0.1227  0.0092  0.1637
 2196TIP3   OH228222   1.996   5.349   8.409  0.2516  0.3567  0.3116
 2196TIP3    H128223   1.907   5.363   8.375  1.0506  0.3628 -1.9898
 2196TIP3    H228224   2.001   5.404   8.487 -1.1206  2.0301 -0.6956
 2197TIP3   OH228225   1.656   2.299   7.548  0.6039  0.1135 -0.0671
 2197TIP3    H128226   1.586   2.239   7.574  0.7145 -0.5675 -1.2553
 2197TIP3    H228227   1.675   2.276   7.457  1.6528  0.9919 -0.0971
 2198TIP3   OH228228   3.571   3.831   6.777  0.3191 -0.2530 -0.3479
 2198TIP3    H128229   3.581   3.764   6.845  0.2357 -0.0549 -0.1396
 2198TIP3    H228230   3.492   3.805   6.730 -0.5819  0.5175  0.6796
 2199TIP3   OH228231   6.308   4.192   0.521 -0.4861 -0.6811 -0.5220
 2199TIP3    H128232   6.354   4.108   0.524 -0.6482 -0.8385 -1.7866
 2199TIP3    H228233   6.377   4.257   0.513 -0.4444 -0.9061 -2.2883
 2200TIP3   OH228234   5.727   5.036   0.726 -0.2888 -0.0873  0.8838
 2200TIP3    H128235   5.678   4.953   0.722 -0.3203 -0.0360 -0.5095
 2200TIP3    H228236   5.768   5.036   0.812 -0.7484 -1.2972  1.1247
 2201TIP3   OH228237   6.692   6.155   0.920  0.8279  0.7900  0.0876
 2201TIP3    H128238   6.616   6.154   0.978  1.6207  1.2260  1.1528
 2201TIP3    H228239   6.707   6.062   0.899 -2.2451  0.8146 -3.2234
 2202TIP3   OH228240   0.727   0.515   7.421  0.0698  0.1658 -0.1001
 2202TIP3    H128241   0.708   0.438   7.475 -1.5001  0.2857 -0.4412
 2202TIP3    H228242   0.724   0.482   7.331  0.1051  0.4958 -0.2246
 2203TIP3   OH228243   3.523   5.971   1.558 -0.2750 -0.7612 -0.0408
 2203TIP3    H128244   3.480   5.997   1.640  1.1433  0.1054  0.4740
 2203TIP3    H228245   3.500   5.880   1.546  1.3285 -1.6353  2.6150
 2204TIP3   OH228246   2.684   3.218   0.578 -1.2081 -0.1800 -0.0886
 2204TIP3    H128247   2.600   3.216   0.532 -0.3590 -1.9621 -1.7232
 2204TIP3    H228248   2.679   3.147   0.641 -1.6829  1.0910  1.3533
 2205TIP3   OH228249   2.923   1.444   7.132  0.5695  0.3960  0.4670
 2205TIP3    H128250   2.979   1.516   7.103 -0.1606  0.6689 -0.2823
 2205TIP3    H228251   2.952   1.369   7.080 -0.2257  0.7078 -0.4604
 2206TIP3   OH228252   3.263   2.301   7.793 -0.1243  0.0616  0.4018
 2206TIP3    H128253   3.311   2.241   7.850 -0.8275 -0.0548  0.8864
 2206TIP3    H228254   3.254   2.254   7.710 -0.3873 -0.3701  0.6743
 2207TIP3   OH228255   1.688   4.141   8.224 -0.2076 -0.1882  0.0779
 2207TIP3    H128256   1.600   4.152   8.188 -0.6711 -0.8028  0.9737
 2207TIP3    H228257   1.680   4.067   8.283  0.9209 -0.2432  0.1824
 2208TIP3   OH228258   3.412   0.419   7.604 -0.0596 -0.4306  0.4142
 2208TIP3    H128259   3.476   0.399   7.672 -0.2953 -1.8317  0.2549
 2208TIP3    H228260   3.375   0.503   7.629 -0.5476 -1.1711  2.3594
 2209TIP3   OH228261   2.092   3.282   0.135  0.4706  0.3751  0.2480
 2209TIP3    H128262   2.126   3.197   0.161 -2.2548 -0.4079  1.6947
 2209TIP3    H228263   2.070   3.325   0.218 -2.0269  0.7005 -0.4879
 2210TIP3   OH228264   4.167   0.921   1.725  0.0321 -0.7860 -0.3911
 2210TIP3    H128265   4.197   0.830   1.720  1.3745 -0.3669 -0.3471
 2210TIP3    H228266   4.215   0.958   1.799 -0.1056  0.0965 -0.7336
 2211TIP3   OH228267   3.092   1.024   1.085 -0.0437  0.3286 -0.5716
 2211TIP3    H128268   3.049   0.940   1.071  0.9372 -0.3845  0.5660
 2211TIP3    H228269   3.170   1.020   1.030 -0.0735  0.5603 -0.6315
 2212TIP3   OH228270   1.214   3.310   0.461  0.6534  0.1527 -0.4677
 2212TIP3    H128271   1.131   3.306   0.413 -0.2510  2.6201  0.7090
 2212TIP3    H228272   1.274   3.354   0.402  0.6288 -0.1021 -0.6844
 2213TIP3   OH228273   2.415   3.117   2.317  0.5933  0.0532 -0.2277
 2213TIP3    H128274   2.420   3.204   2.358 -1.6349  0.0489  0.1487
 2213TIP3    H228275   2.346   3.071   2.365 -0.4487 -0.8177 -2.4119
 2214TIP3   OH228276   0.247   1.586   1.471 -0.6222  0.0706  0.3863
 2214TIP3    H128277   0.216   1.628   1.391  0.2434  1.4955  0.7562
 2214TIP3    H228278   0.172   1.589   1.530 -0.8812  0.1863  0.0561
 2215TIP3   OH228279   0.819   2.297   0.698  0.2956  0.1184 -0.3779
 2215TIP3    H128280   0.868   2.376   0.678  0.6792 -0.0538 -0.1346
 2215TIP3    H228281   0.812   2.252   0.614  2.4527 -0.9113 -0.0933
 2216TIP3   OH228282   4.885   1.544   7.324  0.5763  0.4557 -0.4427
 2216TIP3    H128283   4.928   1.459   7.320 -0.9253 -0.3733  0.2424
 2216TIP3    H228284   4.906   1.578   7.411 -0.8136 -0.3509  0.2405
 2217TIP3   OH228285   3.505   1.353   7.670 -0.1471 -0.1114 -0.6548
 2217TIP3    H128286   3.510   1.438   7.713 -1.0449 -0.1706 -0.4091
 2217TIP3    H228287   3.468   1.295   7.736 -0.0740 -0.5609 -1.0079
 2218TIP3   OH228288   2.025   3.269   0.429  0.7923 -0.0654 -0.5450
 2218TIP3    H128289   2.026   3.364   0.418  0.7343  0.1832  1.3619
 2218TIP3    H228290   1.939   3.250   0.466  1.0946 -0.7711 -0.1912
 2219TIP3   OH228291   0.196   4.348   7.847 -0.7796 -0.5367  0.0141
 2219TIP3    H128292   0.219   4.399   7.769 -0.8331 -0.4929  0.0262
 2219TIP3    H228293   0.114   4.387   7.876 -0.1312  0.2666  0.8166
 2220TIP3   OH228294   1.425   1.183   7.046  0.3502 -0.0028  0.2437
 2220TIP3    H128295   1.407   1.095   7.080 -0.0355 -0.3868 -0.8777
 2220TIP3    H228296   1.404   1.242   7.118 -0.7436 -0.7505  0.5587
 2221TIP3   OH228297   0.523   6.586   6.874  0.0303  0.0185 -0.0650
 2221TIP3    H128298   0.479   6.667   6.850  1.0787  0.8480  0.7613
 2221TIP3    H228299   0.557   6.551   6.791  0.1278  0.7483 -0.3345
 2222TIP3   OH228300   1.838   0.513   1.133  0.1677 -0.1081 -0.5545
 2222TIP3    H128301   1.878   0.475   1.211  1.6751 -0.8962 -1.6526
 2222TIP3    H228302   1.756   0.551   1.164  1.7558  1.6564  1.8387
 2223TIP3   OH228303   2.229   2.138   7.401 -0.2544  0.2065 -0.7231
 2223TIP3    H128304   2.312   2.171   7.436 -0.5636 -1.2626  1.6621
 2223TIP3    H228305   2.247   2.115   7.310  1.5877  1.1003 -0.6098
 2224TIP3   OH228306   0.906   0.721   0.910 -0.5113  0.2198  0.0668
 2224TIP3    H128307   0.981   0.673   0.945  0.8508  2.4833  0.5104
 2224TIP3    H228308   0.849   0.736   0.985 -0.0015  0.8760  0.3350
 2225TIP3   OH228309   5.022   5.571   6.048 -0.4175  0.8478 -0.4466
 2225TIP3    H128310   5.005   5.519   6.127 -0.9641  2.6985  0.7189
 2225TIP3    H228311   5.098   5.530   6.008  0.4344  0.3730  1.5389
 2226TIP3   OH228312   4.870   1.258   8.231 -0.3292  0.0780  0.0667
 2226TIP3    H128313   4.918   1.176   8.224  0.8209  0.6855  0.6143
 2226TIP3    H228314   4.906   1.301   8.308 -0.6081  1.2857 -0.4490
 2227TIP3   OH228315   3.237   3.239   7.149 -0.2290 -0.0085 -0.2827
 2227TIP3    H128316   3.183   3.181   7.203 -0.0389  2.1487  2.4640
 2227TIP3    H228317   3.299   3.181   7.106 -2.6298 -2.2295 -1.0388
 2228TIP3   OH228318   0.280   0.714   7.181 -0.0528  0.5485 -0.1108
 2228TIP3    H128319   0.210   0.773   7.153 -0.2666  0.4564  0.2230
 2228TIP3    H228320   0.285   0.726   7.276 -0.0465  0.0801 -0.0501
 2229TIP3   OH228321   2.068   5.458   6.444  0.3257  0.3343 -0.5739
 2229TIP3    H128322   2.029   5.484   6.361  0.4340  1.2735 -0.3530
 2229TIP3    H228323   2.001   5.405   6.487 -0.9676  2.3130  0.0043
 2230TIP3   OH228324   5.297   2.809   6.878  0.3353  0.4219 -0.1715
 2230TIP3    H128325   5.203   2.821   6.872  0.3208  1.8501  1.8117
 2230TIP3    H228326   5.309   2.729   6.929  0.2210 -0.0831 -0.9267
 2231TIP3   OH228327   1.116   2.241   2.004  0.3623 -0.0705  0.2579
 2231TIP3    H128328   1.105   2.296   2.081  1.1466 -1.6203  1.5382
 2231TIP3    H228329   1.028   2.233   1.967  0.1573  1.5996  0.3189
 2232TIP3   OH228330   0.648   6.881   0.129 -0.0467 -0.2846 -0.2228
 2232TIP3    H128331   0.660   6.971   0.098  0.4057 -0.8170 -1.6655
 2232TIP3    H228332   0.598   6.890   0.211 -0.2011  1.2544 -0.4616
 2233TIP3   OH228333   3.733   3.500   7.276  0.3935 -0.2207  0.3011
 2233TIP3    H128334   3.690   3.584   7.260  3.8428  1.3405 -2.1653
 2233TIP3    H228335   3.667   3.434   7.255 -1.8670  1.8502  0.5063
 2234TIP3   OH228336   0.184   4.671   2.210 -0.3336 -0.4880 -0.4514
 2234TIP3    H128337   0.133   4.721   2.274 -1.1452 -2.6145  0.6602
 2234TIP3    H228338   0.254   4.632   2.261 -0.4572 -1.4796 -1.0235
 2235TIP3   OH228339   2.220   5.263   0.828 -0.5047 -0.1781 -0.5427
 2235TIP3    H128340   2.158   5.192   0.839 -0.8393  0.0415 -0.9743
 2235TIP3    H228341   2.289   5.226   0.773 -1.9039  0.5151 -2.9238
 2236TIP3   OH228342   5.309   4.073   8.636 -0.0718 -0.1368  0.0667
 2236TIP3    H128343   5.349   4.060   8.722  0.1917 -0.3027 -0.0783
 2236TIP3    H228344   5.315   4.168   8.621  0.3984 -0.1743 -0.0116
 2237TIP3   OH228345   3.101   5.532   1.768  0.2170  0.2688  0.1300
 2237TIP3    H128346   3.096   5.597   1.838  1.8149  0.5044  0.0702
 2237TIP3    H228347   3.182   5.553   1.722  0.3951 -1.3302 -0.3409
 2238TIP3   OH228348   2.588   6.828   6.901  0.3808  0.4242  0.5727
 2238TIP3    H128349   2.577   6.910   6.950  1.2147  0.5986  0.4855
 2238TIP3    H228350   2.657   6.847   6.837 -0.7622  0.2320 -0.7727
 2239TIP3   OH228351   3.193   1.443   1.466 -0.2973 -0.1437  0.0385
 2239TIP3    H128352   3.148   1.527   1.474 -1.5107 -0.6679 -0.8889
 2239TIP3    H228353   3.169   1.411   1.379  0.1141 -1.4625  0.3820
 2240TIP3   OH228354   3.348   4.369   8.600  0.1686 -0.2883  0.3354
 2240TIP3    H128355   3.396   4.318   8.535  0.0525 -0.2905  0.2516
 2240TIP3    H228356   3.265   4.324   8.610  0.5196 -0.7806  1.1219
 2241TIP3   OH228357   0.552   6.509   7.155  0.9698  0.2636 -0.1951
 2241TIP3    H128358   0.470   6.460   7.162  1.1730 -0.0484 -0.0019
 2241TIP3    H228359   0.537   6.569   7.082  0.9784 -0.5727 -0.8932
 2242TIP3   OH228360   0.043   2.030   7.769  0.2541  0.1242 -0.3255
 2242TIP3    H128361   0.042   1.978   7.849  1.6420 -1.4902 -1.2876
 2242TIP3    H228362   0.094   1.978   7.707  0.3255  1.9134 -1.8658
 2243TIP3   OH228363   3.907   2.110   6.657  0.6041 -0.2359 -0.0837
 2243TIP3    H128364   3.908   2.201   6.685 -0.6233 -0.4139  0.6401
 2243TIP3    H228365   3.918   2.060   6.738  2.4526 -0.7420 -0.6116
 2244TIP3   OH228366   3.064   3.074   7.256  0.4363  0.6479  0.3757
 2244TIP3    H128367   3.022   3.083   7.341 -2.4586 -2.4210 -0.5223
 2244TIP3    H228368   2.998   3.106   7.194  0.1910 -2.1983 -0.9624
 2245TIP3   OH228369   6.413   1.948   1.209  0.0849  0.2113 -0.3014
 2245TIP3    H128370   6.488   2.001   1.237  0.7360 -0.9636  0.2608
 2245TIP3    H228371   6.353   1.950   1.284  0.9707 -1.3706  0.4930
 2246TIP3   OH228372   3.679   3.985   1.881 -0.0139 -0.4827  0.0571
 2246TIP3    H128373   3.713   3.987   1.970 -0.8790 -0.5295  0.4061
 2246TIP3    H228374   3.680   4.076   1.852  1.0237 -0.5606 -0.2006
 2247TIP3   OH228375   4.713   6.659   1.403 -0.1408  0.5428 -0.0569
 2247TIP3    H128376   4.726   6.636   1.311 -0.1594  0.5034 -0.0497
 2247TIP3    H228377   4.775   6.605   1.451 -0.0449  0.6541 -0.0563
 2248TIP3   OH228378   0.747   0.884   5.839 -0.2229 -0.0429  0.0498
 2248TIP3    H128379   0.763   0.978   5.827 -1.8563 -0.0246 -2.8054
 2248TIP3    H228380   0.792   0.842   5.766  0.3205 -1.5323  1.1790
 2249TIP3   OH228381   6.149   3.149   1.446 -0.0814  0.3280 -0.9286
 2249TIP3    H128382   6.114   3.220   1.500  0.2608 -0.6144  0.5946
 2249TIP3    H228383   6.090   3.146   1.371 -0.7878  1.4688 -0.4591
 2250TIP3   OH228384   5.190   2.511   7.492  0.1208 -0.0578  0.2637
 2250TIP3    H128385   5.161   2.528   7.581 -0.3632  0.9452 -0.0683
 2250TIP3    H228386   5.124   2.453   7.455 -0.6882  0.9900 -0.0026
 2251TIP3   OH228387   1.698   6.679   6.617  0.2320 -0.3714  0.0546
 2251TIP3    H128388   1.625   6.624   6.589  0.5255 -0.9990  0.4973
 2251TIP3    H228389   1.771   6.618   6.628  0.4024  0.0037  1.1452
 2252TIP3   OH228390   6.313   1.704   7.765 -0.4974 -0.1047 -0.1900
 2252TIP3    H128391   6.243   1.763   7.793 -0.6165 -0.8687  1.2242
 2252TIP3    H228392   6.288   1.618   7.801  1.9907 -0.0609  1.9068
 2253TIP3   OH228393   0.822   3.503   0.016  0.2127  0.2561 -0.1323
 2253TIP3    H128394   0.794   3.431   0.073 -2.0861 -0.9045 -2.5014
 2253TIP3    H228395   0.786   3.582   0.057 -1.7038 -0.5854 -0.0814
 2254TIP3   OH228396   6.464   5.872   8.169 -0.1468  0.3308 -0.2725
 2254TIP3    H128397   6.515   5.804   8.212  0.5204  0.1440 -1.3271
 2254TIP3    H228398   6.492   5.953   8.211  0.4290  0.1449 -0.2953
 2255TIP3   OH228399   1.966   0.731   0.975  0.3912 -0.4651  0.5603
 2255TIP3    H128400   2.057   0.747   0.952  0.4435 -0.4609  0.7737
 2255TIP3    H228401   1.965   0.641   1.009  0.0984 -0.9507 -0.6606
 2256TIP3   OH228402   2.002   5.799   8.364 -0.4283 -0.2191 -1.2370
 2256TIP3    H128403   1.973   5.799   8.455  0.4669 -0.5586 -0.9363
 2256TIP3    H228404   2.098   5.803   8.370 -0.2338 -2.4441 -2.1170
 2257TIP3   OH228405   4.528   6.066   0.763 -0.1079 -1.3215  0.0925
 2257TIP3    H128406   4.452   6.067   0.822 -1.2819 -2.7167 -1.3089
 2257TIP3    H228407   4.545   6.158   0.745 -1.2307 -0.9601  0.7272
 2258TIP3   OH228408   5.243   4.516   0.130 -0.2218  0.8223 -0.2817
 2258TIP3    H128409   5.174   4.470   0.177 -0.4270  1.6825  0.2797
 2258TIP3    H228410   5.211   4.605   0.121  0.4691  1.0349 -0.7319
 2259TIP3   OH228411   0.737   6.301   6.857  0.2927 -0.3974 -0.1989
 2259TIP3    H128412   0.691   6.252   6.924  0.8498  0.0103  0.4954
 2259TIP3    H228413   0.669   6.329   6.796 -0.2423 -0.6349  0.2839
 2260TIP3   OH228414   1.738   3.057   7.803  0.0101  0.1167  0.6319
 2260TIP3    H128415   1.793   3.095   7.871  0.1475  0.2950  0.4220
 2260TIP3    H228416   1.742   2.963   7.819 -0.4436  0.1939  1.2373
 2261TIP3   OH228417   6.767   2.677   6.993 -0.2666  0.2530 -0.1532
 2261TIP3    H128418   6.797   2.621   6.921 -2.2093 -0.5180 -0.4341
 2261TIP3    H228419   6.743   2.759   6.950  0.0382  0.3427 -0.1516
 2262TIP3   OH228420   0.374   4.095   0.795  0.0063 -0.0319 -0.7416
 2262TIP3    H128421   0.375   4.003   0.821  1.4894  0.3471  0.7803
 2262TIP3    H228422   0.453   4.105   0.742 -1.3716 -0.0940 -2.9163
 2263TIP3   OH228423   5.369   0.357   8.367 -0.0895  0.3315 -0.0572
 2263TIP3    H128424   5.339   0.268   8.384  0.4694 -0.2738 -2.0426
 2263TIP3    H228425   5.464   0.351   8.368 -0.0387  1.0404  0.3584
 2264TIP3   OH228426   3.615   6.093   6.709  0.1462 -0.2224 -0.1261
 2264TIP3    H128427   3.687   6.097   6.773  0.9211 -0.9340 -0.9329
 2264TIP3    H228428   3.642   6.153   6.640 -0.9810  1.0220  0.4687
 2265TIP3   OH228429   1.716   3.736   0.650  0.2615 -0.4251 -0.4774
 2265TIP3    H128430   1.695   3.664   0.592  0.8385  0.1027 -1.3597
 2265TIP3    H228431   1.636   3.752   0.700  0.5625 -2.6531  0.8387
 2266TIP3   OH228432   5.982   4.129   2.285 -0.3120  0.0908  0.2697
 2266TIP3    H128433   6.010   4.216   2.312  2.4401 -0.6896  0.2862
 2266TIP3    H228434   6.051   4.071   2.318 -2.2391 -2.1713  0.6228
 2267TIP3   OH228435   0.958   2.697   8.402 -0.1340 -0.0035 -0.0361
 2267TIP3    H128436   0.897   2.716   8.331  1.1292  0.4349 -1.0409
 2267TIP3    H228437   0.925   2.748   8.476  0.3777  2.2590 -1.2710
 2268TIP3   OH228438   3.076   4.624   0.770 -0.1955 -0.1576 -0.1932
 2268TIP3    H128439   3.060   4.530   0.776  0.1204 -0.2898 -1.2301
 2268TIP3    H228440   3.077   4.642   0.676  0.4379  0.7601 -0.0219
 2269TIP3   OH228441   2.049   2.570   7.024 -0.1950  0.4574  0.8757
 2269TIP3    H128442   2.038   2.650   7.074  0.2173  0.3450  1.1463
 2269TIP3    H228443   1.966   2.560   6.977  0.3417  1.9303 -0.4646
 2270TIP3   OH228444   3.851   1.649   6.823 -0.1608 -0.5383  0.4190
 2270TIP3    H128445   3.789   1.594   6.871 -1.2895  1.2516  1.1080
 2270TIP3    H228446   3.820   1.648   6.732 -0.7634 -0.2501  0.6211
 2271TIP3   OH228447   3.825   0.483   6.280  0.6543  0.0353  0.2023
 2271TIP3    H128448   3.807   0.485   6.186 -1.3574  0.0964  0.5445
 2271TIP3    H228449   3.797   0.569   6.312 -1.2023 -0.8916  1.2344
 2272TIP3   OH228450   1.670   0.330   7.480 -0.9823  0.0114 -0.1364
 2272TIP3    H128451   1.592   0.364   7.435 -2.0577  0.1244  1.7245
 2272TIP3    H228452   1.703   0.261   7.422 -3.4673 -1.1971 -0.2321
 2273TIP3   OH228453   1.634   4.166   0.184 -0.0669 -0.2551 -0.5365
 2273TIP3    H128454   1.694   4.168   0.258  0.6033 -0.4702 -1.0593
 2273TIP3    H228455   1.549   4.187   0.221  0.1814 -0.7754  0.3676
 2274TIP3   OH228456   5.303   1.209   6.692 -0.2774 -0.0482  0.5768
 2274TIP3    H128457   5.362   1.256   6.634  1.3575 -0.4112  1.8796
 2274TIP3    H228458   5.359   1.149   6.741 -1.4488  0.6470  2.9385
 2275TIP3   OH228459   2.982   0.761   0.273 -0.4328  0.1155 -0.1477
 2275TIP3    H128460   2.905   0.764   0.216  0.2731 -0.7831 -1.1877
 2275TIP3    H228461   3.013   0.852   0.276  0.3131 -0.0017 -2.3674
 2276TIP3   OH228462   3.515   0.971   7.194  0.1151  0.0949  0.2071
 2276TIP3    H128463   3.577   1.043   7.182  1.7768 -1.5245 -1.6790
 2276TIP3    H228464   3.561   0.909   7.252 -0.7450 -0.0874  0.7262
 2277TIP3   OH228465   1.751   2.623   0.371 -0.1310 -0.3081 -0.0347
 2277TIP3    H128466   1.731   2.656   0.283 -0.0861  0.3699  0.2060
 2277TIP3    H228467   1.687   2.666   0.428 -1.0334 -1.7462  0.1084
 2278TIP3   OH228468   3.224   5.376   7.349 -0.2939  0.6394 -0.7215
 2278TIP3    H128469   3.198   5.429   7.273 -1.6134  0.8618 -0.1401
 2278TIP3    H228470   3.143   5.335   7.378  0.4751 -0.6928 -0.3624
 2279TIP3   OH228471   0.793   1.005   2.179 -0.0412 -0.6368 -0.0641
 2279TIP3    H128472   0.792   0.916   2.144 -1.4865 -0.4889 -0.4835
 2279TIP3    H228473   0.718   1.048   2.137  0.4813  0.7082  0.3142
 2280TIP3   OH228474   4.651   3.311   6.701  0.0436  0.2957  0.2652
 2280TIP3    H128475   4.611   3.243   6.647  1.1977 -0.3737  0.2291
 2280TIP3    H228476   4.709   3.358   6.641  0.0884  0.6097  0.5514
 2281TIP3   OH228477   5.500   6.609   7.538 -0.7613 -0.4088  0.4063
 2281TIP3    H128478   5.484   6.521   7.570 -0.3568 -0.7564 -0.3339
 2281TIP3    H228479   5.582   6.636   7.580  0.2431 -1.2025 -0.9807
 2282TIP3   OH228480   3.719   5.304   8.248 -0.4248  0.4234 -0.3350
 2282TIP3    H128481   3.706   5.237   8.316  0.6012 -1.0289 -1.4979
 2282TIP3    H228482   3.632   5.318   8.211 -0.6688 -0.1985 -0.0073
 2283TIP3   OH228483   1.670   3.482   1.285  0.3662  0.3832  0.4659
 2283TIP3    H128484   1.660   3.569   1.324  3.1200  0.4374  1.2841
 2283TIP3    H228485   1.604   3.429   1.330 -0.8526  1.8374  0.4998
 2284TIP3   OH228486   1.475   6.105   0.548 -0.0307 -0.4760 -1.0819
 2284TIP3    H128487   1.510   6.025   0.509  2.5154 -1.4894  2.7537
 2284TIP3    H228488   1.552   6.148   0.586 -1.9665  1.4525  0.8863
 2285TIP3   OH228489   2.799   4.933   6.690 -0.4733  0.6602 -0.1275
 2285TIP3    H128490   2.866   4.900   6.750 -0.1071  0.9761 -0.3570
 2285TIP3    H228491   2.784   4.862   6.628  0.2971  0.9054 -0.6059
 2286TIP3   OH228492   2.038   4.147   0.768  0.0518 -0.0698 -0.1069
 2286TIP3    H128493   2.046   4.112   0.857  0.7780 -3.0243 -1.2057
 2286TIP3    H228494   2.114   4.204   0.758  0.4211 -0.3668  0.9009
 2287TIP3   OH228495   1.198   4.459   6.366  0.0780  0.2341  0.1220
 2287TIP3    H128496   1.280   4.485   6.409  0.7395 -0.1454 -0.8752
 2287TIP3    H228497   1.132   4.516   6.404  0.8746  0.8373  0.6395
 2288TIP3   OH228498   6.168   4.842   8.213  0.0864 -0.1881  0.0919
 2288TIP3    H128499   6.137   4.754   8.193 -0.3351 -0.1619  0.6082
 2288TIP3    H228500   6.260   4.831   8.234  0.4156 -0.2930 -1.2758
 2289TIP3   OH228501   1.996   5.839   8.667  0.1227 -0.1537  0.4233
 2289TIP3    H128502   1.924   5.867   8.724  0.4837  0.9037  0.3894
 2289TIP3    H228503   2.054   5.915   8.663  1.0936 -0.8881  0.2003
 2290TIP3   OH228504   0.844   4.720   0.044 -0.6822 -0.4149 -0.7699
 2290TIP3    H128505   0.873   4.638   0.084 -0.9552 -0.3759 -0.4849
 2290TIP3    H228506   0.770   4.696  -0.012 -0.4754 -0.4289 -1.0380
 2291TIP3   OH228507   5.878   6.201   7.886 -0.0389 -0.0619 -0.6369
 2291TIP3    H128508   5.899   6.157   7.804  2.4254 -2.2943  1.0194
 2291TIP3    H228509   5.822   6.139   7.933  2.4548 -1.0894  1.2136
 2292TIP3   OH228510   2.090   2.412   6.699  0.3681  0.7498  0.9160
 2292TIP3    H128511   2.056   2.479   6.639  1.1030  1.4609  1.2654
 2292TIP3    H228512   2.022   2.404   6.766 -2.2094 -2.6335 -1.7233
 2293TIP3   OH228513   0.577   1.651   8.543  0.1502 -0.0844 -0.3030
 2293TIP3    H128514   0.530   1.642   8.626  0.2686  0.6872 -0.1439
 2293TIP3    H228515   0.553   1.738   8.511 -1.5202 -1.1215 -2.1106
 2294TIP3   OH228516   0.426   1.200   6.594  0.1137  0.1806 -0.2136
 2294TIP3    H128517   0.427   1.137   6.666  0.0230 -1.0410 -1.2562
 2294TIP3    H228518   0.342   1.186   6.551  0.1523  0.9281 -0.5470
 2295TIP3   OH228519   0.186   3.048   1.562  0.2070 -0.1905 -0.1190
 2295TIP3    H128520   0.157   3.020   1.648 -0.1275  0.4342 -0.0228
 2295TIP3    H228521   0.263   2.994   1.544  0.7595  0.2232  0.9148
 2296TIP3   OH228522   0.203   3.658   0.093 -0.4077  0.3693  0.1791
 2296TIP3    H128523   0.287   3.614   0.083 -0.5260  0.3854 -0.9795
 2296TIP3    H228524   0.138   3.591   0.074 -0.6221  0.6945 -0.2626
 2297TIP3   OH228525   5.505   1.082   7.266  0.2831  0.0534  0.2596
 2297TIP3    H128526   5.539   1.081   7.355 -1.9325  2.3134  1.2518
 2297TIP3    H228527   5.447   1.006   7.261  0.8795 -0.4243  0.5248
 2298TIP3   OH228528   3.690   3.191   6.935  0.1694 -0.5607 -1.0140
 2298TIP3    H128529   3.635   3.115   6.953  0.0809 -0.2224  0.2561
 2298TIP3    H228530   3.706   3.188   6.840 -0.9236 -1.4010 -1.1849
 2299TIP3   OH228531   0.852   6.856   8.142  0.2085 -0.3811  0.2671
 2299TIP3    H128532   0.771   6.853   8.192  0.0440 -0.1353  0.0178
 2299TIP3    H228533   0.903   6.927   8.182  1.0051 -1.5748  1.4755
 2300TIP3   OH228534   2.339   0.858   7.115 -0.3985  0.1913  0.3524
 2300TIP3    H128535   2.336   0.766   7.089 -1.1316  0.3077  0.0216
 2300TIP3    H228536   2.402   0.860   7.188 -0.5534 -0.6054  0.5178
 2301TIP3   OH228537   0.579   1.704   0.819  0.2349  0.2047  0.2351
 2301TIP3    H128538   0.655   1.752   0.787  1.7589 -2.4401 -0.4423
 2301TIP3    H228539   0.560   1.639   0.751 -1.3875 -0.4973  1.2731
 2302TIP3   OH228540   4.677   1.182   0.896 -0.0338 -0.2459  0.0391
 2302TIP3    H128541   4.711   1.097   0.924  0.0006 -0.8782 -1.7810
 2302TIP3    H228542   4.585   1.165   0.876 -0.3765  0.4785  0.9434
 2303TIP3   OH228543   4.680   5.027   0.983 -0.3210  0.1493 -0.0183
 2303TIP3    H128544   4.710   5.073   0.904 -1.5807  2.3784  0.7199
 2303TIP3    H228545   4.589   5.006   0.965 -0.5442  0.4414  0.7380
 2304TIP3   OH228546   6.396   5.559   0.124  0.6981  0.3035  0.6308
 2304TIP3    H128547   6.487   5.580   0.144  1.2336 -0.5696 -0.7918
 2304TIP3    H228548   6.390   5.562   0.029 -0.0858 -2.2279  0.5264
 2305TIP3   OH228549   0.451   4.527   7.491 -0.2159  0.1509  0.0411
 2305TIP3    H128550   0.448   4.555   7.400 -0.6245  1.3495  0.4055
 2305TIP3    H228551   0.543   4.534   7.516  0.1317 -1.4533 -0.6266
 2306TIP3   OH228552   3.286   1.067   0.163 -0.4025 -0.4772 -0.4638
 2306TIP3    H128553   3.328   0.987   0.195  0.0003 -0.4811 -0.9915
 2306TIP3    H228554   3.335   1.138   0.203  0.2083 -0.4799 -1.1917
 2307TIP3   OH228555   4.657   4.783   8.120 -0.3386  0.0660  0.0757
 2307TIP3    H128556   4.654   4.780   8.024 -1.7734 -3.3920  0.0817
 2307TIP3    H228557   4.749   4.766   8.142  0.4732  2.9591 -0.5304
 2308TIP3   OH228558   1.552   4.220   2.068 -0.2330  0.4324  0.4090
 2308TIP3    H128559   1.587   4.209   2.156  1.4061 -0.3748 -0.2943
 2308TIP3    H228560   1.624   4.194   2.010 -1.0250  1.6057 -1.1875
 2309TIP3   OH228561   6.652   6.283   8.389  0.5453 -0.5061 -0.4505
 2309TIP3    H128562   6.742   6.299   8.361  0.2725  0.6305 -0.7441
 2309TIP3    H228563   6.603   6.357   8.354 -0.3619 -0.6907  0.3877
 2310TIP3   OH228564   4.609   0.234   0.502  0.4099 -0.2392 -0.1811
 2310TIP3    H128565   4.695   0.212   0.467  0.9402 -1.0569  1.5351
 2310TIP3    H228566   4.596   0.326   0.479  0.4955 -0.7942 -2.8541
 2311TIP3   OH228567   1.361   1.762   6.580  0.5032 -0.3685 -0.8594
 2311TIP3    H128568   1.434   1.701   6.582  0.3056 -0.6344  1.9972
 2311TIP3    H228569   1.283   1.707   6.577  0.3582 -0.2085 -0.1006
 2312TIP3   OH228570   2.203   6.449   6.223 -0.2719  0.2068 -0.2451
 2312TIP3    H128571   2.152   6.381   6.178 -0.7288  0.1803  0.2964
 2312TIP3    H228572   2.186   6.433   6.316 -1.4868  1.9032 -0.1325
 2313TIP3   OH228573   3.006   2.165   6.031 -0.5981  0.1030  0.2657
 2313TIP3    H128574   2.911   2.175   6.022 -0.7152 -0.1256  1.0966
 2313TIP3    H228575   3.042   2.247   5.997 -1.1860  0.8140  1.2826
 2314TIP3   OH228576   5.048   3.281   6.738 -0.1595 -0.3120 -0.0364
 2314TIP3    H128577   4.982   3.217   6.712 -0.5272  0.0860 -0.1044
 2314TIP3    H228578   5.132   3.240   6.717 -0.4270 -0.2971 -1.1618
 2315TIP3   OH228579   0.548   3.455   0.954  0.2288 -0.3166  0.6456
 2315TIP3    H128580   0.524   3.454   1.046  0.4031 -0.6386  0.6881
 2315TIP3    H228581   0.478   3.504   0.911  1.4684  2.2600  1.3334
 2316TIP3   OH228582   3.441   0.514   7.994  0.5032 -0.5237 -0.0740
 2316TIP3    H128583   3.511   0.468   7.949  1.3006 -2.9349  3.2096
 2316TIP3    H228584   3.373   0.448   8.006 -1.1184  0.9719 -0.6391
 2317TIP3   OH228585   0.007   2.127   1.512 -0.1895 -0.0021 -0.4588
 2317TIP3    H128586   0.041   2.045   1.548 -0.1781 -0.4947 -1.5299
 2317TIP3    H228587   0.062   2.194   1.551  1.1165 -0.6781 -1.0576
 2318TIP3   OH228588   4.979   2.107   7.692  0.2669 -0.1328  0.3658
 2318TIP3    H128589   4.980   2.201   7.711 -3.3448  0.5094 -1.6448
 2318TIP3    H228590   5.030   2.098   7.611 -1.6708  0.6954 -1.0354
 2319TIP3   OH228591   0.494   5.176   1.294 -0.2479 -0.3505 -0.0910
 2319TIP3    H128592   0.572   5.222   1.325  0.6619 -2.5848  1.2454
 2319TIP3    H228593   0.522   5.132   1.214 -1.1485  1.3919 -1.4380
 2320TIP3   OH228594   3.283   2.050   8.562 -0.3187 -0.3135  0.4847
 2320TIP3    H128595   3.295   2.086   8.650 -1.1360 -1.4505  1.0961
 2320TIP3    H228596   3.191   2.066   8.541  0.3471  1.8564 -1.1030
 2321TIP3   OH228597   4.499   1.912   1.421 -0.2220 -0.1861  0.4287
 2321TIP3    H128598   4.411   1.895   1.385  0.1058 -1.2578  0.1066
 2321TIP3    H228599   4.552   1.840   1.388  0.8477  0.5870  0.4229
 2322TIP3   OH228600   6.029   4.506   6.776 -0.1091  0.1906 -0.0200
 2322TIP3    H128601   6.047   4.438   6.712  2.0214  1.0299 -0.4206
 2322TIP3    H228602   5.960   4.560   6.737  1.2839  0.7952 -1.7469
 2323TIP3   OH228603   3.838   3.443   1.030 -0.0037 -0.1593 -0.6541
 2323TIP3    H128604   3.844   3.412   1.121 -2.5720 -1.1524 -0.7539
 2323TIP3    H228605   3.778   3.518   1.035  0.9928  0.7225 -1.3783
 2324TIP3   OH228606   5.778   4.122   0.182  0.0698  0.7493  0.4333
 2324TIP3    H128607   5.857   4.133   0.129  0.4056  0.1645  0.7961
 2324TIP3    H228608   5.800   4.161   0.267  1.0019 -1.7904  1.4808
 2325TIP3   OH228609   2.988   4.850   6.918 -0.2529 -0.0940  0.4366
 2325TIP3    H128610   2.953   4.873   7.004 -0.1098 -1.0973  0.7755
 2325TIP3    H228611   3.059   4.913   6.904  0.7149 -0.8500  1.7308
 2326TIP3   OH228612   1.312   5.484   1.021  0.2718  0.2014 -0.4578
 2326TIP3    H128613   1.284   5.518   0.936  0.9106 -0.5613 -0.9910
 2326TIP3    H228614   1.299   5.557   1.082 -1.1263  0.4449 -1.0092
 2327TIP3   OH228615   5.522   6.177   1.383  0.3388  0.2054 -0.4040
 2327TIP3    H128616   5.618   6.177   1.377  0.3835 -0.5471  0.2129
 2327TIP3    H228617   5.493   6.210   1.298  1.1049 -1.2708 -1.2674
 2328TIP3   OH228618   1.987   5.786   1.250  0.0810 -0.3658 -0.4205
 2328TIP3    H128619   1.923   5.715   1.254 -1.7041  1.1775  0.9297
 2328TIP3    H228620   2.044   5.772   1.325  0.8482 -1.3075 -1.1644
 2329TIP3   OH228621   3.879   0.005   0.164  0.2690  0.2799  0.0676
 2329TIP3    H128622   3.959   0.024   0.115 -0.0349 -0.3520 -0.7070
 2329TIP3    H228623   3.813   0.063   0.124  0.0284 -0.2095 -0.2534
 2330TIP3   OH228624   0.530   5.076   8.226 -0.1160  0.3705  0.2538
 2330TIP3    H128625   0.524   5.140   8.154  0.3967 -1.2403 -1.2890
 2330TIP3    H228626   0.592   5.011   8.195  0.0856 -0.4132  2.1784
 2331TIP3   OH228627   4.149   6.662   1.651  0.6907 -0.3814  0.5680
 2331TIP3    H128628   4.091   6.660   1.728 -0.6570  0.6999 -0.3696
 2331TIP3    H228629   4.093   6.693   1.580  2.1983 -0.2613 -0.6121
 2332TIP3   OH228630   2.184   2.375   1.270  0.0729 -0.5516 -0.5727
 2332TIP3    H128631   2.134   2.454   1.290  2.0220  0.2935  1.3598
 2332TIP3    H228632   2.255   2.405   1.213  0.4322 -1.0303 -0.3886
 2333TIP3   OH228633   4.272   1.157   7.909  0.6118 -0.1643 -0.0167
 2333TIP3    H128634   4.321   1.129   7.831  0.6215 -0.4260  0.0808
 2333TIP3    H228635   4.326   1.226   7.948 -0.5085  1.6655 -1.5211
 2334TIP3   OH228636   6.507   6.287   7.074  0.5261 -0.6144  0.2848
 2334TIP3    H128637   6.477   6.226   7.007  0.6630  1.7144 -2.0292
 2334TIP3    H228638   6.456   6.367   7.060  2.1651  0.7227  1.4564
 2335TIP3   OH228639   0.443   2.642   1.802  0.3561  0.1786 -0.5472
 2335TIP3    H128640   0.427   2.573   1.737  0.3474  0.9031 -1.3227
 2335TIP3    H228641   0.436   2.597   1.886 -2.7570 -0.1963 -0.8983
 2336TIP3   OH228642   6.804   1.623   6.794 -0.3391  0.3848 -0.1394
 2336TIP3    H128643   6.818   1.674   6.714  2.0147  1.4361  0.8510
 2336TIP3    H228644   6.794   1.533   6.764  1.4239  0.6226 -1.6001
 2337TIP3   OH228645   5.777   5.527   0.834 -0.8362  0.2614 -0.5380
 2337TIP3    H128646   5.741   5.446   0.798  1.3066 -1.2502  0.5048
 2337TIP3    H228647   5.842   5.555   0.769  1.0941 -0.9836  0.7570
 2338TIP3   OH228648   0.346   4.276   2.436 -0.1205  0.0078 -0.1431
 2338TIP3    H128649   0.427   4.261   2.486 -0.6271 -0.3074  0.5951
 2338TIP3    H228650   0.312   4.189   2.419  1.0355 -0.0168 -2.7567
 2339TIP3   OH228651   5.139   2.360   0.501 -0.4992 -0.5316 -0.0710
 2339TIP3    H128652   5.220   2.388   0.459 -0.6297 -0.2023 -0.1041
 2339TIP3    H228653   5.087   2.321   0.430 -1.5365  1.7684 -0.6510
 2340TIP3   OH228654   1.221   3.883   8.313 -0.0992 -0.2002 -0.0944
 2340TIP3    H128655   1.167   3.806   8.290 -0.6125  1.0694 -3.8726
 2340TIP3    H228656   1.160   3.956   8.310  1.0855  0.7981 -0.4203
 2341TIP3   OH228657   2.355   5.644   7.578  0.3072  0.2457 -0.2490
 2341TIP3    H128658   2.347   5.728   7.623  3.0476  0.1951  0.5526
 2341TIP3    H228659   2.412   5.663   7.503  0.3813 -0.7516 -0.4536
 2342TIP3   OH228660   3.329   5.059   5.966  0.1575 -0.3487 -0.1533
 2342TIP3    H128661   3.271   5.021   6.032  1.5838 -0.1769  1.2611
 2342TIP3    H228662   3.357   4.984   5.913 -0.0633 -0.6665  0.1735
 2343TIP3   OH228663   2.232   6.314   1.271  0.2281  0.0973 -0.2266
 2343TIP3    H128664   2.264   6.362   1.348  2.9936 -2.4348  0.4207
 2343TIP3    H228665   2.268   6.361   1.196  0.5203  0.5930  0.2192
 2344TIP3   OH228666   2.726   0.587   8.393 -0.5251 -0.3270 -0.5093
 2344TIP3    H128667   2.793   0.522   8.371 -0.1552  0.1416 -0.7934
 2344TIP3    H228668   2.749   0.664   8.341  0.2537  0.7584  1.3219
 2345TIP3   OH228669   4.050   4.763   0.586 -0.1427  0.0134  0.2930
 2345TIP3    H128670   4.018   4.674   0.568  0.6791 -0.6514  1.9445
 2345TIP3    H228671   4.144   4.753   0.599 -0.2045  0.9015  1.6844
 2346TIP3   OH228672   0.856   3.027   0.870  0.3529 -0.4608 -0.1595
 2346TIP3    H128673   0.810   3.064   0.946 -0.1015 -0.8765 -0.2293
 2346TIP3    H228674   0.936   2.990   0.906  2.9273  3.9960 -0.5113
 2347TIP3   OH228675   3.714   6.690   0.097 -0.1218  0.2008 -0.1185
 2347TIP3    H128676   3.753   6.770   0.133 -1.2955  0.8056 -0.1366
 2347TIP3    H228677   3.622   6.694   0.124 -0.4627 -0.5599 -1.1170
 2348TIP3   OH228678   0.873   6.489   0.828  0.7327 -0.0997 -0.1757
 2348TIP3    H128679   0.838   6.439   0.755 -0.3877  1.5490 -0.8201
 2348TIP3    H228680   0.811   6.561   0.839  1.3074  0.1392  1.8905
 2349TIP3   OH228681   2.473   5.143   1.629  0.2350  0.2737 -0.2890
 2349TIP3    H128682   2.500   5.235   1.627 -2.8641  1.2705 -0.8872
 2349TIP3    H228683   2.469   5.121   1.722  1.0304  0.6919 -0.1425
 2350TIP3   OH228684   4.457   5.416   0.604 -0.4387 -0.4172 -0.7341
 2350TIP3    H128685   4.426   5.494   0.648  0.9214 -0.2253 -0.0379
 2350TIP3    H228686   4.388   5.351   0.617 -0.7181  0.0870  0.3941
 2351TIP3   OH228687   1.440   1.632   7.612  0.0902  0.1872  0.5593
 2351TIP3    H128688   1.526   1.594   7.597 -0.2295 -0.4798  0.3636
 2351TIP3    H228689   1.381   1.556   7.614 -0.4749  0.6306  0.7681
 2352TIP3   OH228690   5.047   1.760   1.770 -0.2838 -0.1025 -0.5563
 2352TIP3    H128691   5.085   1.777   1.856 -0.9966 -1.5797  0.0911
 2352TIP3    H228692   5.118   1.722   1.719 -0.8701 -3.3121  0.7996
 2353TIP3   OH228693   4.524   6.000   6.420  0.8007 -0.2537 -0.6620
 2353TIP3    H128694   4.612   5.982   6.386  1.0323  0.0690 -0.2459
 2353TIP3    H228695   4.470   5.928   6.388  0.9795  0.1065 -1.8351
 2354TIP3   OH228696   1.542   0.952   0.825  0.5721 -0.0943 -0.7671
 2354TIP3    H128697   1.577   0.865   0.848  1.1516  0.6015  1.2836
 2354TIP3    H228698   1.614   1.012   0.847 -0.8319  1.1277  0.7178
 2355TIP3   OH228699   1.184   3.279   6.692 -0.0266  0.1847  0.1912
 2355TIP3    H128700   1.128   3.303   6.765 -0.4454 -0.2922  0.0265
 2355TIP3    H228701   1.126   3.236   6.630  0.1593  1.2821 -0.7827
 2356TIP3   OH228702   1.960   3.731   8.421 -0.2655 -0.6228  0.4380
 2356TIP3    H128703   1.941   3.660   8.360 -1.0909 -1.5296  1.6951
 2356TIP3    H228704   1.908   3.805   8.391 -2.4402 -1.7356  1.2913
 2357TIP3   OH228705   3.445   1.898   7.911 -0.0932  0.1919  0.0521
 2357TIP3    H128706   3.525   1.943   7.882 -1.3658  2.6233  0.0540
 2357TIP3    H228707   3.380   1.920   7.846 -1.7318  1.5397  2.0122
 2358TIP3   OH228708   0.304   2.959   8.310 -0.2133  0.1346  0.3426
 2358TIP3    H128709   0.271   3.044   8.339  0.4695  0.2071  0.9509
 2358TIP3    H228710   0.258   2.941   8.228 -1.6248  0.2917  1.0759
 2359TIP3   OH228711   0.736   2.590   1.991  0.3344  0.4227  0.3876
 2359TIP3    H128712   0.678   2.664   1.974 -0.2104 -0.1547 -0.3350
 2359TIP3    H228713   0.735   2.581   2.087  1.3130  2.0383  0.5768
 2360TIP3   OH228714   2.057   4.325   1.980 -0.1083 -0.3974 -0.2212
 2360TIP3    H128715   1.971   4.357   1.951 -1.0092  0.2940  2.9102
 2360TIP3    H228716   2.037   4.254   2.041  1.6715 -1.4448 -0.7583
 2361TIP3   OH228717   5.336   5.156   7.546  0.3493 -0.5441  0.3658
 2361TIP3    H128718   5.296   5.146   7.459  1.1965  0.5557 -0.1889
 2361TIP3    H228719   5.262   5.168   7.605 -0.2094  0.0102 -0.4124
 2362TIP3   OH228720   2.307   4.588   7.496  0.1429  0.2491  0.2610
 2362TIP3    H128721   2.225   4.576   7.545  0.0992  2.0045  0.6868
 2362TIP3    H228722   2.279   4.619   7.410  0.3565  0.9619  0.4455
 2363TIP3   OH228723   2.293   2.386   0.314  0.1408  0.1205  0.4952
 2363TIP3    H128724   2.368   2.427   0.358  0.1556  1.2985 -0.5883
 2363TIP3    H228725   2.225   2.453   0.316  0.7134  0.9791 -2.8287
 2364TIP3   OH228726   5.633   6.223   0.678  1.2965  0.7446  0.5164
 2364TIP3    H128727   5.656   6.210   0.770  0.3163 -0.6567  0.5977
 2364TIP3    H228728   5.538   6.232   0.677  0.8741 -2.4203 -0.5715
 2365TIP3   OH228729   0.450   0.576   1.703 -0.3210  0.1762  0.7145
 2365TIP3    H128730   0.435   0.605   1.613 -0.3971 -0.2011  0.6056
 2365TIP3    H228731   0.482   0.655   1.748  1.6467 -0.0667 -0.1184
 2366TIP3   OH228732   3.081   2.688   7.891  0.1915  0.1475  0.0668
 2366TIP3    H128733   3.168   2.669   7.927  0.3368 -0.6422 -0.6547
 2366TIP3    H228734   3.043   2.601   7.874 -0.1111  0.4801 -1.0603
 2367TIP3   OH228735   3.414   3.889   1.014 -0.5868  0.3904 -0.6545
 2367TIP3    H128736   3.349   3.959   1.013 -0.9168  0.1005 -0.0487
 2367TIP3    H228737   3.425   3.867   1.107 -0.0507  0.0440 -0.7922
 2368TIP3   OH228738   6.280   1.999   6.805  0.2130  0.3963 -0.0251
 2368TIP3    H128739   6.372   2.006   6.781  0.4672 -0.0923  0.7730
 2368TIP3    H228740   6.241   1.948   6.734  0.7533 -0.1873  0.0887
 2369TIP3   OH228741   2.241   0.509   8.676  0.0475  0.0252  0.3852
 2369TIP3    H128742   2.211   0.488   8.588  0.6616  1.6020 -0.2492
 2369TIP3    H228743   2.337   0.506   8.670  0.2042 -3.4623  1.9870
 2370TIP3   OH228744   3.405   1.618   1.456  0.3754 -0.3797 -0.1018
 2370TIP3    H128745   3.318   1.641   1.490  0.3631 -0.9535  0.2754
 2370TIP3    H228746   3.447   1.571   1.528  0.9994 -0.1201 -0.2867
 2371TIP3   OH228747   1.999   0.006   1.400  0.5325  0.1420  0.3944
 2371TIP3    H128748   2.062   0.078   1.393  1.4711 -0.6559  0.3341
 2371TIP3    H228749   1.920   0.046   1.436  0.1202  1.7383 -2.0127
 2372TIP3   OH228750   0.982   5.868   1.442  0.5488  0.5862  0.1713
 2372TIP3    H128751   1.072   5.884   1.414  0.6115 -0.9285 -0.6174
 2372TIP3    H228752   0.934   5.853   1.361 -0.5982  2.0598  0.5398
 2373TIP3   OH228753   5.040   2.694   0.926  0.1667 -0.5226 -0.2137
 2373TIP3    H128754   5.025   2.730   1.014 -1.6753  0.4161 -0.8700
 2373TIP3    H228755   5.131   2.664   0.928  0.9362  1.6771  1.2631
 2374TIP3   OH228756   0.269   5.786   6.805  0.4673  0.2469 -0.1983
 2374TIP3    H128757   0.304   5.715   6.859  0.2117  0.2306 -0.0514
 2374TIP3    H228758   0.324   5.786   6.727 -0.3356 -0.9977 -0.8171
 2375TIP3   OH228759   4.265   1.511   0.183  0.2711  0.3537  0.5018
 2375TIP3    H128760   4.200   1.503   0.112  1.1875  0.5312 -0.3804
 2375TIP3    H228761   4.235   1.449   0.249  0.1114 -0.8039 -0.6099
 2376TIP3   OH228762   1.392   1.729   0.193 -0.0944 -0.1748  0.1120
 2376TIP3    H128763   1.403   1.676   0.271  0.6951 -1.8525 -1.0696
 2376TIP3    H228764   1.410   1.669   0.120 -0.8198  1.3026 -1.3658
 2377TIP3   OH228765   0.079   4.010   7.767 -0.1043  0.1605  0.4480
 2377TIP3    H128766   0.034   4.061   7.700  0.3342  0.4697  0.3802
 2377TIP3    H228767   0.169   4.001   7.733  0.2873  0.8601  1.2877
 2378TIP3   OH228768   1.483   5.757   0.594  0.5701  0.2041  0.2917
 2378TIP3    H128769   1.559   5.781   0.647  1.1317  0.6443 -0.6885
 2378TIP3    H228770   1.480   5.662   0.599  1.2132  0.1783  0.3023
 2379TIP3   OH228771   4.798   5.665   1.380  0.5153  0.4815 -0.1165
 2379TIP3    H128772   4.831   5.740   1.429  1.0855 -0.3946  0.8777
 2379TIP3    H228773   4.771   5.603   1.447 -3.0826  1.0350 -0.8107
 2380TIP3   OH228774   1.132   4.040   7.597  0.0111 -0.1563  0.5178
 2380TIP3    H128775   1.213   3.995   7.620  0.8118  0.6691 -0.5972
 2380TIP3    H228776   1.070   3.970   7.578 -0.0727 -0.8457  2.9641
 2381TIP3   OH228777   6.549   2.285   8.345  0.0357 -0.1576  0.0231
 2381TIP3    H128778   6.576   2.377   8.348  0.1934 -0.1457 -1.0450
 2381TIP3    H228779   6.521   2.265   8.434  0.0110  0.9227  0.2799
 2382TIP3   OH228780   4.711   1.627   0.473  0.1631 -0.4224 -0.3251
 2382TIP3    H128781   4.695   1.542   0.432  0.8392 -1.0468  0.6730
 2382TIP3    H228782   4.785   1.663   0.425 -0.2488 -0.3039 -0.8796
 2383TIP3   OH228783   5.884   2.428   0.645  0.2758  0.1582  0.0468
 2383TIP3    H128784   5.823   2.466   0.707  0.3704 -0.2308  0.3797
 2383TIP3    H228785   5.855   2.338   0.634  0.6584  0.0323  0.0410
 2384TIP3   OH228786   0.858   5.324   0.611  0.1060  0.1954 -0.5743
 2384TIP3    H128787   0.863   5.228   0.615  1.5578  0.2810  1.5175
 2384TIP3    H228788   0.907   5.353   0.688 -2.3438  2.5870  0.2219
 2385TIP3   OH228789   5.591   1.941   7.456  0.1349  0.1451 -0.0153
 2385TIP3    H128790   5.617   1.850   7.449 -1.5722 -0.5929  2.0060
 2385TIP3    H228791   5.567   1.966   7.367 -1.0747 -1.9787 -0.3666
 2386TIP3   OH228792   2.358   1.351   7.406  0.1630 -0.6601 -0.1601
 2386TIP3    H128793   2.263   1.340   7.393  0.1466  0.7635 -1.6034
 2386TIP3    H228794   2.395   1.342   7.318  1.1657  0.5176  0.1225
 2387TIP3   OH228795   6.120   1.043   1.614 -0.5744 -0.4787 -0.1346
 2387TIP3    H128796   6.106   0.958   1.654  0.5078 -0.6890 -0.1579
 2387TIP3    H228797   6.137   1.102   1.687 -2.6359  0.0374 -0.0096
 2388TIP3   OH228798   5.164   1.456   7.108  0.2884  1.2664  0.3258
 2388TIP3    H128799   5.147   1.375   7.155  0.1175  1.0540 -0.0951
 2388TIP3    H228800   5.078   1.492   7.087  0.3436  2.1298  1.4529
 2389TIP3   OH228801   1.674   0.980   1.412  0.1760 -0.4098  0.5441
 2389TIP3    H128802   1.716   1.065   1.426  1.9858 -1.3512  1.1781
 2389TIP3    H228803   1.726   0.939   1.343 -0.9543 -0.8407 -0.0709
 2390TIP3   OH228804   0.353   0.422   1.952 -0.2024 -0.1991 -0.3570
 2390TIP3    H128805   0.372   0.455   1.864 -3.4167  2.3169 -0.3340
 2390TIP3    H228806   0.335   0.329   1.939 -1.2791  0.2332 -2.5875
 2391TIP3   OH228807   1.433   4.482   8.567 -0.7488 -0.5626 -0.5874
 2391TIP3    H128808   1.496   4.417   8.597 -1.1201 -1.1811 -1.1083
 2391TIP3    H228809   1.384   4.506   8.645 -0.3588 -0.6380 -0.3197
 2392TIP3   OH228810   4.171   3.568   1.088  0.1083  0.5021  0.2490
 2392TIP3    H128811   4.163   3.497   1.151  1.4862  1.1555  1.2180
 2392TIP3    H228812   4.093   3.622   1.103 -0.9142 -0.7375 -0.4534
 2393TIP3   OH228813   1.661   5.867   7.253 -1.1158  0.7251  0.2674
 2393TIP3    H128814   1.703   5.953   7.255 -0.7526  0.5679 -0.5261
 2393TIP3    H228815   1.733   5.804   7.253 -1.3779  0.4139  0.7590
 2394TIP3   OH228816   6.689   1.229   1.560  0.0112  0.0449  0.1880
 2394TIP3    H128817   6.711   1.301   1.619 -1.4358  0.5725  0.1094
 2394TIP3    H228818   6.606   1.194   1.593  0.2408 -1.0201 -0.3004
 2395TIP3   OH228819   0.547   5.396   0.066 -0.3464  0.0017  0.3120
 2395TIP3    H128820   0.509   5.414  -0.020 -1.1322  1.6415  0.9581
 2395TIP3    H228821   0.589   5.310   0.056 -2.2196 -0.8326 -1.0978
 2396TIP3   OH228822   6.756   0.137   6.403 -0.0881  0.2993  0.4534
 2396TIP3    H128823   6.827   0.200   6.414  0.0808  0.5951 -1.8153
 2396TIP3    H228824   6.778   0.090   6.323 -1.8724 -0.4075  0.3274
 2397TIP3   OH228825   5.736   6.636   6.745  0.1730 -0.4899 -0.5009
 2397TIP3    H128826   5.671   6.605   6.682  0.9838 -0.2048 -1.5048
 2397TIP3    H228827   5.774   6.556   6.782  0.5999 -0.6854 -1.3399
 2398TIP3   OH228828   2.563   0.374   0.183  0.1275 -0.7583 -0.1552
 2398TIP3    H128829   2.596   0.436   0.118  0.0764  0.5176  0.9936
 2398TIP3    H228830   2.643   0.335   0.221  0.2006 -0.4068  0.0518
 2399TIP3   OH228831   6.450   5.808   7.614 -0.3373  0.0590  0.1979
 2399TIP3    H128832   6.378   5.777   7.559  0.3785 -1.3163 -0.0050
 2399TIP3    H228833   6.420   5.790   7.704 -0.1647 -0.7445  0.1044
 2400TIP3   OH228834   1.687   0.597   0.660 -0.0786 -0.1284 -0.1590
 2400TIP3    H128835   1.677   0.663   0.729 -0.8521 -2.0958  1.7369
 2400TIP3    H228836   1.768   0.551   0.681 -0.4341 -0.8959 -0.3877
 2401TIP3   OH228837   2.090   0.681   1.669  0.1286 -0.4656 -0.0660
 2401TIP3    H128838   2.159   0.700   1.733 -1.5254  2.0174  1.1540
 2401TIP3    H228839   2.128   0.706   1.585  0.4130  2.1011  0.7326
 2402TIP3   OH228840   5.595   0.898   0.042 -0.0654 -0.2813 -0.1036
 2402TIP3    H128841   5.618   0.810   0.068 -1.0466 -0.3782  0.4817
 2402TIP3    H228842   5.569   0.890  -0.050  1.1669 -0.3403 -0.4670
 2403TIP3   OH228843   2.384   1.607   8.330  0.4581  0.2345 -0.0595
 2403TIP3    H128844   2.380   1.593   8.424  2.9310 -0.2454  0.0639
 2403TIP3    H228845   2.419   1.695   8.320  3.7860 -0.9766 -0.3381
 2404TIP3   OH228846   0.720   3.804   7.324  0.0627  0.1729 -0.5712
 2404TIP3    H128847   0.782   3.775   7.391  0.6753 -0.2572 -1.3004
 2404TIP3    H228848   0.634   3.793   7.365  0.3769 -0.9292 -0.1580
 2405TIP3   OH228849   3.623   5.118   7.459  0.7369 -0.1270  0.1484
 2405TIP3    H128850   3.637   5.168   7.539  0.7294 -0.7331  0.5389
 2405TIP3    H228851   3.642   5.179   7.388  0.3742  0.5299  0.6064
 2406TIP3   OH228852   5.084   5.320   7.980 -0.0089  0.4441 -0.1358
 2406TIP3    H128853   5.029   5.310   8.058 -0.2724 -0.7866 -0.4624
 2406TIP3    H228854   5.172   5.294   8.008  0.3666  2.0339  0.2808
 2407TIP3   OH228855   4.024   1.494   7.262  0.1258  0.0175  0.1057
 2407TIP3    H128856   4.096   1.509   7.200 -1.0052 -0.8169 -1.4945
 2407TIP3    H228857   3.945   1.499   7.208 -0.8229 -2.4315  1.1357
 2408TIP3   OH228858   6.122   1.657   7.439  0.1554 -0.2487 -0.4356
 2408TIP3    H128859   6.070   1.670   7.518  0.9010  1.0166 -0.1328
 2408TIP3    H228860   6.117   1.563   7.422 -3.1021 -0.0876 -1.0356
 2409TIP3   OH228861   6.380   4.282   8.273 -0.0922 -0.3026  0.2275
 2409TIP3    H128862   6.455   4.226   8.254 -0.5596 -0.9695  0.3504
 2409TIP3    H228863   6.323   4.274   8.197  1.1348  2.2729 -1.1327
 2410TIP3   OH228864   1.773   1.844   7.642 -0.1946  0.4077  0.7049
 2410TIP3    H128865   1.718   1.811   7.713 -1.0147  1.2311  0.4874
 2410TIP3    H228866   1.851   1.879   7.686 -0.6257  0.7747  1.1908
 2411TIP3   OH228867   6.671   6.481   2.325  0.3411  0.0659 -0.2665
 2411TIP3    H128868   6.607   6.509   2.391 -0.3924  1.7309 -1.5823
 2411TIP3    H228869   6.705   6.563   2.289  1.0138 -0.7934 -1.6834
 2412TIP3   OH228870   3.243   1.892   2.437  0.0209  0.7318  0.1713
 2412TIP3    H128871   3.250   1.981   2.470  0.5028  1.0586 -0.7611
 2412TIP3    H228872   3.212   1.903   2.347  1.0613  0.0262 -0.2891
 2413TIP3   OH228873   0.350   5.426   0.643  0.0117  0.1386  0.0613
 2413TIP3    H128874   0.301   5.365   0.698  1.5721  0.3545  1.7617
 2413TIP3    H228875   0.435   5.385   0.630  0.4733  1.1600 -0.2440
 2414TIP3   OH228876   0.779   3.844   7.900 -0.1340  0.1139 -0.2157
 2414TIP3    H128877   0.777   3.764   7.848  1.8696 -0.0838 -0.0618
 2414TIP3    H228878   0.835   3.904   7.851 -0.1872  0.7870  0.5188
 2415TIP3   OH228879   3.830   6.749   8.044  0.1266  0.1032 -0.5522
 2415TIP3    H128880   3.834   6.706   8.130  0.0118 -0.4346 -0.8105
 2415TIP3    H228881   3.850   6.840   8.062  1.2292 -0.2145 -0.1157
 2416TIP3   OH228882   3.109   2.879   0.395  0.0438  0.2388 -0.2718
 2416TIP3    H128883   3.068   2.922   0.470  1.4581  0.6349  0.3258
 2416TIP3    H228884   3.037   2.843   0.344 -0.9732  0.1772  1.1534
 2417TIP3   OH228885   2.258   3.698   6.846  0.0431  0.0786  0.7745
 2417TIP3    H128886   2.269   3.646   6.926  4.0378 -1.5693 -0.5895
 2417TIP3    H228887   2.347   3.726   6.823 -1.2497  2.5423 -1.8439
 2418TIP3   OH228888   1.637   1.680   1.130 -0.5329 -0.2514 -0.0992
 2418TIP3    H128889   1.716   1.673   1.077  0.2634  0.5547  0.9576
 2418TIP3    H228890   1.608   1.770   1.119 -1.5483 -0.6400 -0.7827
 2419TIP3   OH228891   5.018   1.035   8.298 -0.0579 -0.1710  0.5472
 2419TIP3    H128892   4.976   0.949   8.295 -0.6710  0.1459 -0.8989
 2419TIP3    H228893   5.037   1.050   8.391 -0.1235 -1.7698  0.8386
 2420TIP3   OH228894   1.530   0.046   8.338 -0.2529  0.1328 -0.0930
 2420TIP3    H128895   1.543  -0.006   8.258  0.2220  0.9393 -0.5500
 2420TIP3    H228896   1.619   0.068   8.367 -0.3935 -0.6031  0.9788
 2421TIP3   OH228897   3.057   2.450   7.231 -0.3570 -0.0301  0.2731
 2421TIP3    H128898   3.022   2.517   7.172  1.3987 -0.2747 -1.1292
 2421TIP3    H228899   3.066   2.495   7.315  1.6803  1.8599 -0.8550
 2422TIP3   OH228900   1.881   4.018   6.755 -0.4721  0.3198  0.7178
 2422TIP3    H128901   1.953   4.066   6.795  0.5400 -0.7805  0.2584
 2422TIP3    H228902   1.913   3.995   6.668 -0.9077 -1.2208  0.9425
 2423TIP3   OH228903   6.544   4.051   8.221  0.3549 -0.2646 -0.0175
 2423TIP3    H128904   6.533   3.972   8.273 -0.0033 -1.1292 -1.3592
 2423TIP3    H228905   6.607   4.027   8.153 -0.0793  0.4663 -0.6985
 2424TIP3   OH228906   1.248   3.683   1.948  0.6306  0.1443 -0.1590
 2424TIP3    H128907   1.166   3.705   1.993  0.4481  0.3779 -0.5931
 2424TIP3    H228908   1.313   3.676   2.018 -0.0227 -1.3564  0.3410
 2425TIP3   OH228909   2.847   3.615   1.636  0.0091 -0.2493  0.0076
 2425TIP3    H128910   2.907   3.590   1.706  2.0241  4.0835  0.1461
 2425TIP3    H228911   2.820   3.532   1.596  3.0630 -2.6232  2.4029
 2426TIP3   OH228912   3.748   5.153   6.840 -0.1441  0.2984  0.3330
 2426TIP3    H128913   3.660   5.114   6.844 -0.2206  0.3164 -0.9378
 2426TIP3    H228914   3.804   5.089   6.883 -0.9478  0.8854  2.4125
 2427TIP3   OH228915   5.598   3.508   2.281  0.1653  0.3497 -0.5582
 2427TIP3    H128916   5.676   3.547   2.319  0.0238  0.7179 -0.6390
 2427TIP3    H228917   5.621   3.492   2.189 -0.0508  1.0223 -0.7371
 2428TIP3   OH228918   2.200   6.023   6.148 -0.7173  0.7007 -0.3666
 2428TIP3    H128919   2.244   6.023   6.233 -0.1997  1.2358 -0.6311
 2428TIP3    H228920   2.225   5.939   6.108  1.9181  1.8504 -1.4305
 2429TIP3   OH228921   1.932   1.810   6.682  0.1241 -0.2666 -0.2838
 2429TIP3    H128922   1.874   1.754   6.630  1.1239 -0.8097 -0.8387
 2429TIP3    H228923   1.894   1.809   6.770 -0.2802 -1.2283 -0.4585
 2430TIP3   OH228924   6.873   3.593   6.947  0.6369  0.1867 -0.4614
 2430TIP3    H128925   6.840   3.548   6.870 -1.1039  0.2908  0.1782
 2430TIP3    H228926   6.918   3.671   6.912 -0.3197  0.3548 -1.3603
 2431TIP3   OH228927   6.627   0.681   0.269 -0.2228  0.3409 -0.4971
 2431TIP3    H128928   6.682   0.606   0.292 -2.0092 -0.7387  0.5575
 2431TIP3    H228929   6.661   0.711   0.184  0.8209 -1.3959 -0.7418
 2432TIP3   OH228930   2.705   6.356   0.442  0.0964 -0.3786  0.4049
 2432TIP3    H128931   2.637   6.380   0.505  0.0018 -2.8233  1.3368
 2432TIP3    H228932   2.787   6.382   0.485 -0.0720 -0.2975  0.6803
 2433TIP3   OH228933   2.518   5.427   1.737 -0.2291  0.7498  0.6077
 2433TIP3    H128934   2.609   5.435   1.767 -0.2621  2.1592  0.3716
 2433TIP3    H228935   2.518   5.464   1.649 -1.2710  2.0020  1.1020
 2434TIP3   OH228936   2.335   6.624   8.001  0.5493 -0.0265  0.1958
 2434TIP3    H128937   2.339   6.712   7.964 -0.0772 -0.6652 -1.4937
 2434TIP3    H228938   2.321   6.638   8.095 -1.0999  1.6760 -0.2429
 2435TIP3   OH228939   5.817   6.727   7.452 -0.3036  0.5696  0.2331
 2435TIP3    H128940   5.791   6.774   7.532  0.8909  1.4204  0.1510
 2435TIP3    H228941   5.755   6.757   7.386  0.6642  2.4179  0.0839
 2436TIP3   OH228942   0.622   3.480   8.503  0.3003 -0.1692 -0.4052
 2436TIP3    H128943   0.711   3.483   8.539  0.2575 -1.3137 -0.1636
 2436TIP3    H228944   0.620   3.552   8.440  0.8758  0.8917  0.7446
 2437TIP3   OH228945   5.746   2.987   8.385 -0.8798 -0.7586  0.4436
 2437TIP3    H128946   5.700   2.920   8.334  0.5340 -1.4980  0.0976
 2437TIP3    H228947   5.836   2.955   8.392 -0.6135  0.1970  1.8963
 2438TIP3   OH228948   3.944   0.924   7.965  0.0356  0.1360  0.9961
 2438TIP3    H128949   3.960   0.830   7.977  4.1698  0.0774 -2.6554
 2438TIP3    H228950   3.991   0.966   8.037 -0.6308 -0.5158  1.8341
 2439TIP3   OH228951   4.811   5.667   7.004  0.1014  0.7418  0.2738
 2439TIP3    H128952   4.729   5.630   7.036 -0.0330  1.3401  0.6467
 2439TIP3    H228953   4.795   5.684   6.911  0.7413 -1.6834 -0.3310
 2440TIP3   OH228954   3.719   0.141   6.281 -0.1846  0.0116 -0.1760
 2440TIP3    H128955   3.642   0.106   6.326 -0.1528  1.0800  0.7244
 2440TIP3    H228956   3.685   0.173   6.197 -0.0284 -3.2431 -1.6653
 2441TIP3   OH228957   6.564   3.946   0.219 -0.0354  0.3282  0.6321
 2441TIP3    H128958   6.634   3.881   0.216 -1.8027 -1.6836  0.1658
 2441TIP3    H228959   6.565   3.987   0.133  1.5060  1.4539  1.1431
 2442TIP3   OH228960   5.157   1.435   1.569  0.8110 -0.3031 -0.0218
 2442TIP3    H128961   5.252   1.425   1.561  0.8980 -0.2641  0.9087
 2442TIP3    H228962   5.140   1.430   1.663 -0.1905 -1.0260 -0.2288
 2443TIP3   OH228963   3.348   5.341   1.147  0.0725  0.3966  0.4594
 2443TIP3    H128964   3.360   5.314   1.056 -2.1925 -0.8047  0.4200
 2443TIP3    H228965   3.347   5.436   1.145 -0.8474  0.3825 -0.9631
 2444TIP3   OH228966   5.700   6.827   0.151  0.4347  0.7275  0.2683
 2444TIP3    H128967   5.633   6.827   0.083  0.2487  0.9244  0.4502
 2444TIP3    H228968   5.744   6.742   0.141  0.2846  0.6763  0.0281
 2445TIP3   OH228969   5.029   2.308   7.353  0.1222 -0.1843  0.4074
 2445TIP3    H128970   4.957   2.266   7.400  1.4672 -0.6146  2.2004
 2445TIP3    H228971   5.055   2.244   7.286 -0.1501 -0.6859  0.7769
 2446TIP3   OH228972   4.744   2.468   7.200  0.1752  0.1743  0.3898
 2446TIP3    H128973   4.783   2.470   7.113 -0.1946  1.7458  0.2309
 2446TIP3    H228974   4.759   2.556   7.235 -0.7507 -0.0562  1.4237
 2447TIP3   OH228975   6.417   0.064   1.567 -0.0339  0.5488  0.3235
 2447TIP3    H128976   6.372   0.146   1.589  0.5242  0.7843  0.6164
 2447TIP3    H228977   6.369   0.030   1.491 -0.2208  1.1866  0.1486
 2448TIP3   OH228978   6.101   5.240   1.503  0.1066  0.4500 -0.3324
 2448TIP3    H128979   6.194   5.256   1.517 -0.4040  2.0922  1.6714
 2448TIP3    H228980   6.068   5.212   1.588 -1.1489 -0.6697 -1.1497
 2449TIP3   OH228981   3.176   3.555   7.908 -0.2107 -0.3097  0.7955
 2449TIP3    H128982   3.265   3.522   7.895  0.3732  1.0511  1.1023
 2449TIP3    H228983   3.170   3.629   7.847 -1.5116 -1.0138  0.0267
 2450TIP3   OH228984   2.047   5.202   1.605  0.0679 -0.7240 -0.1529
 2450TIP3    H128985   2.056   5.107   1.611 -1.0928 -0.8025  0.7200
 2450TIP3    H228986   2.122   5.236   1.653  0.4022 -1.1992 -0.3306
 2451TIP3   OH228987   6.146   0.328   1.198  0.7032 -0.3340 -0.1944
 2451TIP3    H128988   6.148   0.411   1.245  1.1799 -0.6600  0.3810
 2451TIP3    H228989   6.096   0.346   1.119 -0.8828  0.0016  0.8483
 2452TIP3   OH228990   3.189   4.645   7.152 -0.3814  0.0201 -0.5304
 2452TIP3    H128991   3.125   4.574   7.148 -2.1952  1.4500  0.9879
 2452TIP3    H228992   3.136   4.725   7.152  1.3343  1.2670  1.4164
 2453TIP3   OH228993   6.532   6.305   1.131 -0.3717 -0.0602 -0.1042
 2453TIP3    H128994   6.586   6.232   1.161  0.0764  0.1324 -0.4308
 2453TIP3    H228995   6.486   6.335   1.209  0.6751  0.3440  0.3656
 2454TIP3   OH228996   5.019   4.592   0.804 -0.8386  0.4639 -0.2810
 2454TIP3    H128997   5.015   4.682   0.837 -3.1103  0.7452 -1.1905
 2454TIP3    H228998   4.966   4.592   0.725 -2.8385 -2.1638  0.9079
 2455TIP3   OH228999   6.110   0.038   6.537 -0.1428 -0.4452  0.4610
 2455TIP3    H129000   6.105  -0.043   6.487  2.1119 -0.5866  0.3765
 2455TIP3    H229001   6.038   0.031   6.600 -0.2069 -2.3349  0.2394
 2456TIP3   OH229002   1.950   2.162   0.294  0.2818 -0.0696 -0.1130
 2456TIP3    H129003   2.008   2.086   0.304 -0.5911 -0.7455 -0.1163
 2456TIP3    H229004   2.001   2.224   0.241  1.2583 -0.3687  0.4462
 2457TIP3   OH229005   6.141   4.761   7.387  0.8534  1.2400 -0.0301
 2457TIP3    H129006   6.063   4.812   7.365  0.2576  1.6143  2.6259
 2457TIP3    H229007   6.213   4.823   7.379  0.9831  0.8555 -2.6488
 2458TIP3   OH229008   0.563   1.088   0.090  0.1829  0.2093 -0.6418
 2458TIP3    H129009   0.621   1.129   0.025  2.3867  0.0659  1.1223
 2458TIP3    H229010   0.566   0.995   0.070  0.2683  0.2369 -0.7589
 2459TIP3   OH229011   0.243   6.676   0.507  0.0126 -0.2914 -0.6291
 2459TIP3    H129012   0.304   6.736   0.548  0.2013  0.2924 -1.7198
 2459TIP3    H229013   0.297   6.604   0.475  0.3325  0.7400 -2.5490
 2460TIP3   OH229014   0.849   1.664   6.305  0.4337  0.5665  0.0164
 2460TIP3    H129015   0.852   1.629   6.394  1.1865  0.6756  0.0412
 2460TIP3    H229016   0.762   1.642   6.274 -0.3922  1.8211  1.3061
 2461TIP3   OH229017   6.833   3.316   1.399  0.0774  0.0077  0.1146
 2461TIP3    H129018   6.830   3.227   1.432  1.8290  0.5687  2.0013
 2461TIP3    H229019   6.857   3.307   1.307  0.9338 -1.4743  0.4459
 2462TIP3   OH229020   2.513   2.312   8.533  0.5021 -0.4205  0.4010
 2462TIP3    H129021   2.459   2.360   8.595  0.6852 -0.0178  0.2507
 2462TIP3    H229022   2.470   2.324   8.449  1.0716  0.2985  0.1996
 2463TIP3   OH229023   6.059   5.630   6.418 -0.6976 -0.2054 -0.2749
 2463TIP3    H129024   6.131   5.598   6.363 -0.1799  1.3616 -0.5522
 2463TIP3    H229025   5.998   5.670   6.357 -0.8302  0.2512  0.1514
 2464TIP3   OH229026   6.848   5.559   8.448  0.7721  0.0350  0.1174
 2464TIP3    H129027   6.776   5.620   8.434 -0.6551 -1.8122 -1.1637
 2464TIP3    H229028   6.897   5.595   8.522 -0.9277  1.8259  0.4422
 2465TIP3   OH229029   5.325   0.425   7.622  0.0571  0.4588 -0.1953
 2465TIP3    H129030   5.391   0.487   7.653  0.3815  0.6152 -1.1890
 2465TIP3    H229031   5.242   0.459   7.657  0.5362 -0.1141  1.6532
 2466TIP3   OH229032   1.706   5.486   2.155 -0.4512 -0.4622  0.3557
 2466TIP3    H129033   1.750   5.571   2.158 -0.2894 -0.5331  0.0728
 2466TIP3    H229034   1.688   5.464   2.246  1.3500 -1.0954  0.5845
 2467TIP3   OH229035   0.085   6.011   1.199  0.2611 -0.1229 -0.4582
 2467TIP3    H129036   0.148   6.074   1.233 -0.0117 -0.1141  0.0467
 2467TIP3    H229037   0.108   6.001   1.106 -0.8102  2.1166 -1.0503
 2468TIP3   OH229038   2.909   5.551   1.234  0.6462 -0.2424  0.2232
 2468TIP3    H129039   2.916   5.458   1.217 -2.2870 -0.2854 -1.4543
 2468TIP3    H229040   2.912   5.592   1.148 -0.1673  0.9769  0.7381
 2469TIP3   OH229041   3.524   3.819   1.287 -0.2819 -0.1769  0.0511
 2469TIP3    H129042   3.539   3.912   1.305 -1.5755 -0.0337  0.5340
 2469TIP3    H229043   3.487   3.785   1.369  0.1369 -1.1086 -0.1369
 2470TIP3   OH229044   5.577   5.323   6.922  0.2984  0.5311  0.1284
 2470TIP3    H129045   5.538   5.275   6.995  0.8741  1.2964  0.9502
 2470TIP3    H229046   5.557   5.269   6.845 -0.6954 -0.0624  0.7781
 2471TIP3   OH229047   4.220   6.701   1.328  0.0690 -0.3936  0.1734
 2471TIP3    H129048   4.249   6.778   1.376 -0.8103  0.1278 -0.1085
 2471TIP3    H229049   4.236   6.723   1.236  1.5816 -1.3144  0.1694
 2472TIP3   OH229050   1.129   2.423   1.784  0.3933 -0.3393  0.4444
 2472TIP3    H129051   1.139   2.517   1.801 -0.9662  0.0512 -0.6612
 2472TIP3    H229052   1.115   2.384   1.870 -0.1521  0.6485  0.8189
 2473TIP3   OH229053   6.850   4.250   7.700  0.6470 -0.7397 -0.2649
 2473TIP3    H129054   6.831   4.194   7.775 -0.8588 -1.1700 -0.9462
 2473TIP3    H229055   6.883   4.331   7.738 -0.0202 -0.9850  0.8583
 2474TIP3   OH229056   1.358   6.409   0.895  0.3111  0.0332 -0.0478
 2474TIP3    H129057   1.278   6.462   0.900  0.8349  0.7993  0.4328
 2474TIP3    H229058   1.341   6.347   0.824 -1.3920 -0.9527  1.1322
 2475TIP3   OH229059   6.340   6.386   0.933  0.0515  0.2335  0.1445
 2475TIP3    H129060   6.398   6.354   1.003  0.7749 -0.4978 -0.7728
 2475TIP3    H229061   6.394   6.447   0.883 -0.5863  1.0521  0.4462
 2476TIP3   OH229062   6.003   5.474   7.719  0.3871 -0.0763  0.0762
 2476TIP3    H129063   5.940   5.458   7.790  0.3545 -0.7869 -0.1044
 2476TIP3    H229064   5.999   5.568   7.704 -2.0103 -0.3083 -1.1936
 2477TIP3   OH229065   0.724   2.717   6.631  0.5050 -0.0100 -0.3419
 2477TIP3    H129066   0.749   2.681   6.546  0.6940 -0.8111  0.0477
 2477TIP3    H229067   0.766   2.660   6.695 -0.4503 -0.0234  0.3010
 2478TIP3   OH229068   0.226   6.210   1.332 -0.2018 -0.1101 -1.0069
 2478TIP3    H129069   0.272   6.279   1.285  1.0334  0.1153  0.4649
 2478TIP3    H229070   0.270   6.205   1.416 -1.4742 -1.4314 -0.3807
 2479TIP3   OH229071   6.517   4.586   6.901  0.2631 -0.0794 -0.2111
 2479TIP3    H129072   6.429   4.587   6.864 -0.4369 -0.3855  1.4007
 2479TIP3    H229073   6.504   4.579   6.995  1.9693  1.5637  0.2118
 2480TIP3   OH229074   5.698   3.519   7.875 -0.2410  0.3649 -0.4781
 2480TIP3    H129075   5.665   3.561   7.954 -1.3829  0.3320 -0.9183
 2480TIP3    H229076   5.704   3.590   7.811 -1.0295  0.0812 -0.8765
 2481TIP3   OH229077   5.368   0.788   0.288  0.0992 -0.2765 -0.2562
 2481TIP3    H129078   5.308   0.858   0.314  0.0963 -0.2399 -0.3584
 2481TIP3    H229079   5.431   0.830   0.230  0.5774 -0.1961  0.3126
 2482TIP3   OH229080   3.902   2.021   2.026  0.1552  0.6999 -0.0610
 2482TIP3    H129081   3.867   2.110   2.018 -2.1687 -0.0790  0.6563
 2482TIP3    H229082   3.997   2.032   2.020 -0.0567  3.2391  0.2034
 2483TIP3   OH229083   4.025   1.661   7.744 -0.2074 -0.0847 -0.0445
 2483TIP3    H129084   3.952   1.612   7.705 -0.5606  0.1815  0.2703
 2483TIP3    H229085   4.059   1.604   7.812  0.7234 -0.7538 -1.0506
 2484TIP3   OH229086   1.638   3.330   2.152  0.3510  0.1128 -0.2757
 2484TIP3    H129087   1.551   3.360   2.178 -0.2906  0.3058 -2.4264
 2484TIP3    H229088   1.685   3.410   2.127  0.9442 -0.0483  0.3067
 2485TIP3   OH229089   2.959   3.910   6.987  0.5881  0.0994  0.2272
 2485TIP3    H129090   3.018   3.841   7.019  1.0543  0.1175 -0.5679
 2485TIP3    H229091   2.960   3.900   6.892  1.5767  1.9408  0.0069
 2486TIP3   OH229092   3.355   4.193   7.198 -0.4277 -0.2249 -0.2892
 2486TIP3    H129093   3.276   4.172   7.148  0.1474 -1.1031 -0.8598
 2486TIP3    H229094   3.329   4.186   7.289 -1.4154  1.0878 -0.4486
 2487TIP3   OH229095   4.252   0.834   1.252  0.0607  0.3685 -0.2393
 2487TIP3    H129096   4.166   0.842   1.293  0.3111  0.2538  0.3125
 2487TIP3    H229097   4.273   0.924   1.225  0.3216  0.6203  0.7626
 2488TIP3   OH229098   3.592   1.873   6.680  0.2571 -0.1311 -0.2058
 2488TIP3    H129099   3.633   1.857   6.595  0.1835 -0.6520 -0.1501
 2488TIP3    H229100   3.510   1.917   6.660  0.1037 -0.5090 -0.4292
 2489TIP3   OH229101   5.726   0.430   7.848  0.0047 -0.0131  0.1332
 2489TIP3    H129102   5.777   0.441   7.929  0.6570 -1.0447 -0.1149
 2489TIP3    H229103   5.780   0.372   7.794 -0.7184  0.1572 -0.7926
 2490TIP3   OH229104   1.012   6.596   8.268  0.4780  0.2661  0.5303
 2490TIP3    H129105   0.942   6.533   8.252  0.4819  0.3509  0.1713
 2490TIP3    H229106   0.986   6.674   8.218  1.6035 -0.2364 -0.9307
 2491TIP3   OH229107   6.187   5.444   6.174  0.0163  0.6761 -0.7801
 2491TIP3    H129108   6.180   5.369   6.116  0.6972 -0.5732  0.6664
 2491TIP3    H229109   6.098   5.457   6.207  0.0341 -0.0782 -0.3946
 2492TIP3   OH229110   0.644   2.840   1.756  0.7924  0.1574 -0.1638
 2492TIP3    H129111   0.553   2.811   1.752  0.3866  1.4375 -1.0242
 2492TIP3    H229112   0.661   2.854   1.849 -0.8880  2.7756 -0.1539
 2493TIP3   OH229113   0.289   5.334   1.175  0.8957 -0.5650  0.0706
 2493TIP3    H129114   0.359   5.301   1.230  1.2836  1.6111  0.9656
 2493TIP3    H229115   0.330   5.399   1.119  0.1015 -1.2630 -1.3982
 2494TIP3   OH229116   1.915   3.674   0.136 -0.4031 -0.1332 -0.2891
 2494TIP3    H129117   1.855   3.748   0.140 -1.2226 -0.7637 -0.7553
 2494TIP3    H229118   1.887   3.623   0.060  0.4646 -0.6585 -0.2784
 2495TIP3   OH229119   3.783   6.081   0.488  0.2594 -0.2964  0.4862
 2495TIP3    H129120   3.809   5.990   0.501  0.3188 -0.4677 -0.6949
 2495TIP3    H229121   3.848   6.132   0.537  0.7332 -0.8565  0.4532
 2496TIP3   OH229122   6.808   0.662   0.494 -0.0813  0.1139 -0.4513
 2496TIP3    H129123   6.787   0.571   0.476 -1.4268  0.5647 -1.2871
 2496TIP3    H229124   6.727   0.710   0.476 -0.2015  1.2107  2.4078
 2497TIP3   OH229125   3.186   4.473   7.959  0.1007  0.5161 -0.3741
 2497TIP3    H129126   3.199   4.378   7.971 -0.7709  0.4403  0.0462
 2497TIP3    H229127   3.269   4.512   7.989  0.0552 -0.0485  0.5389
 2498TIP3   OH229128   3.227   0.855   7.502 -0.7950 -0.5733 -0.2423
 2498TIP3    H129129   3.216   0.886   7.412  1.3653  0.0629 -0.3389
 2498TIP3    H229130   3.272   0.771   7.493  0.5188  0.0464  0.2297
 2499TIP3   OH229131   2.580   5.005   6.504 -0.1360  0.4308  0.3074
 2499TIP3    H129132   2.535   4.921   6.500  0.2109  0.1843  1.3436
 2499TIP3    H229133   2.621   5.007   6.591  0.0918  1.5469  0.1955
 2500TIP3   OH229134   1.008   6.161   0.633 -0.6143  0.7650  0.5514
 2500TIP3    H129135   0.975   6.154   0.543 -1.7610  0.2647  0.9915
 2500TIP3    H229136   0.971   6.085   0.678  0.6316  0.5563  1.2523
 2501TIP3   OH229137   6.705   5.537   1.397  0.1973 -0.0134  0.1740
 2501TIP3    H129138   6.635   5.562   1.338 -0.1114 -0.8845  0.1624
 2501TIP3    H229139   6.746   5.620   1.422  1.1638  0.2960 -2.2386
 2502TIP3   OH229140   2.196   0.425   7.306  0.0555 -0.7172 -0.2828
 2502TIP3    H129141   2.227   0.499   7.358 -1.3988 -0.5347  0.3595
 2502TIP3    H229142   2.276   0.384   7.273  0.8855  1.8183 -1.6669
 2503TIP3   OH229143   1.084   0.150   0.530 -0.0593 -0.5878  0.1725
 2503TIP3    H129144   1.015   0.120   0.589  0.0450 -0.6753  0.2508
 2503TIP3    H229145   1.083   0.246   0.539 -0.5742 -0.5415 -0.2843
 2504TIP3   OH229146   4.695   1.035   7.967  1.0767 -0.7306  0.0798
 2504TIP3    H129147   4.612   1.004   8.003  0.5087 -0.2259 -0.7571
 2504TIP3    H229148   4.685   1.130   7.962  0.0214 -0.8900 -3.8983
 2505TIP3   OH229149   2.031   6.079   2.666 -0.0498  0.0048  0.0257
 2505TIP3    H129150   2.073   6.134   2.600  0.8202 -0.4285  0.1968
 2505TIP3    H229151   2.104   6.045   2.718 -0.5455 -1.3315 -0.0993
 2506TIP3   OH229152   0.428   0.952   6.771 -0.2490 -0.6904  0.5250
 2506TIP3    H129153   0.386   0.906   6.698 -1.1089  0.9265 -0.0330
 2506TIP3    H229154   0.373   0.931   6.847 -1.1873  0.1601  0.0937
 2507TIP3   OH229155   5.524   1.827   0.627 -0.0153 -0.0889 -0.1097
 2507TIP3    H129156   5.479   1.844   0.544  0.0886 -2.5833 -0.7511
 2507TIP3    H229157   5.615   1.848   0.610 -0.0639 -0.1829 -0.4969
 2508TIP3   OH229158   0.521   2.273   1.263  0.1807  0.0459 -0.4233
 2508TIP3    H129159   0.554   2.333   1.197  1.1537  0.3373  0.2964
 2508TIP3    H229160   0.428   2.267   1.246  0.4837 -0.2831 -2.1313
 2509TIP3   OH229161   6.527   3.939   0.898  0.6565 -0.0539  0.2431
 2509TIP3    H129162   6.448   3.896   0.928  1.1650 -1.7093 -0.6678
 2509TIP3    H229163   6.594   3.915   0.962  0.4287  1.5134  1.1315
 2510TIP3   OH229164   1.574   1.772   7.863 -0.0410  0.3541  0.0251
 2510TIP3    H129165   1.501   1.720   7.830  0.7799 -1.1143  0.3988
 2510TIP3    H229166   1.554   1.788   7.955  0.4903 -0.8267  0.3683
 2511TIP3   OH229167   3.043   2.390   7.905 -0.1226 -0.4549  0.2118
 2511TIP3    H129168   3.135   2.371   7.882  0.6293 -1.0389  3.2617
 2511TIP3    H229169   2.998   2.307   7.892 -0.7428  0.2478 -3.0110
 2512TIP3   OH229170   3.435   1.620   8.058 -0.7230 -0.8319  0.4660
 2512TIP3    H129171   3.359   1.563   8.065 -1.2891 -0.0265  1.0313
 2512TIP3    H229172   3.415   1.679   7.985 -0.4818 -0.8450  0.3870
 2513TIP3   OH229173   0.672   3.329   0.549  0.4643 -0.3760  0.6577
 2513TIP3    H129174   0.723   3.378   0.485  2.5052 -0.0241  2.4093
 2513TIP3    H229175   0.737   3.296   0.611 -1.3493 -0.9511  2.3771
 2514TIP3   OH229176   0.189   3.919   8.675 -0.6283 -0.4321 -0.1560
 2514TIP3    H129177   0.189   3.827   8.699  1.1704 -0.1194  1.1795
 2514TIP3    H229178   0.221   3.965   8.752 -0.3073  1.2065 -1.2019
 2515TIP3   OH229179   5.905   5.293   2.193 -0.0675  0.2232  0.1804
 2515TIP3    H129180   5.970   5.252   2.135 -0.0417 -0.2471  0.5349
 2515TIP3    H229181   5.930   5.385   2.196  1.7536 -0.2653  1.8350
 2516TIP3   OH229182   3.401   0.886   1.288 -0.0826  0.1507  0.4391
 2516TIP3    H129183   3.368   0.819   1.228 -1.0136  1.4041 -0.5200
 2516TIP3    H229184   3.325   0.940   1.308  0.6011  0.8224  1.3300
 2517TIP3   OH229185   1.206   1.643   0.423 -0.1445 -0.2733  0.1247
 2517TIP3    H129186   1.165   1.691   0.496  0.4711  1.0157 -0.3389
 2517TIP3    H229187   1.157   1.672   0.346 -0.8258 -1.6702 -0.0001
 2518TIP3   OH229188   1.635   6.732   7.244  0.2204  0.4209 -1.1321
 2518TIP3    H129189   1.646   6.696   7.332 -1.1767 -0.8628 -1.4314
 2518TIP3    H229190   1.631   6.655   7.187  0.4336  1.2016 -2.2361
 2519TIP3   OH229191   0.506   4.065   7.448 -0.3325  0.3301 -0.0314
 2519TIP3    H129192   0.451   4.143   7.463 -0.0546  0.8521 -1.5031
 2519TIP3    H229193   0.475   4.031   7.364  0.9955  0.1227 -0.4580
 2520TIP3   OH229194   5.847   6.019   7.688  0.1081  0.0547 -0.7750
 2520TIP3    H129195   5.768   6.049   7.644 -0.4962 -0.6192 -0.1652
 2520TIP3    H229196   5.898   5.977   7.618  0.4595  1.4750 -1.3986
 2521TIP3   OH229197   6.267   6.656   7.438 -0.1254  0.1996  0.2201
 2521TIP3    H129198   6.222   6.701   7.367  0.9909  0.5888 -0.2693
 2521TIP3    H229199   6.352   6.699   7.444  0.5375 -1.0741  0.5025
 2522TIP3   OH229200   4.461   2.543   1.378  0.6020  0.0987  0.5873
 2522TIP3    H129201   4.461   2.578   1.467 -2.0568  1.3267  0.2215
 2522TIP3    H229202   4.409   2.463   1.385  1.0020 -0.1940  0.2468
 2523TIP3   OH229203   2.492   1.867   1.239  0.0894 -0.4154 -0.6759
 2523TIP3    H129204   2.499   1.866   1.335 -1.7910 -0.2024 -0.4996
 2523TIP3    H229205   2.484   1.960   1.216  3.1781 -0.2156 -1.3365
 2524TIP3   OH229206   6.462   4.830   1.201 -0.1197 -0.5428  0.0551
 2524TIP3    H129207   6.457   4.773   1.124 -1.2549 -2.0761  1.1897
 2524TIP3    H229208   6.504   4.776   1.267 -0.2517  0.3326  0.8645
 2525TIP3   OH229209   1.728   4.208   6.920 -0.0252  0.2962  0.1557
 2525TIP3    H129210   1.656   4.145   6.920  0.1752  0.0202 -1.3747
 2525TIP3    H229211   1.801   4.160   6.879  1.3255  0.2706  2.4526
 2526TIP3   OH229212   2.013   3.454   7.036 -0.3434  0.0229  0.7161
 2526TIP3    H129213   2.031   3.362   7.054 -0.4451 -0.0360  0.5171
 2526TIP3    H229214   1.930   3.471   7.081 -0.4216 -0.0321  0.5903
 2527TIP3   OH229215   4.685   5.574   0.530 -0.0078  0.3618  0.5918
 2527TIP3    H129216   4.773   5.540   0.545 -0.3092 -0.4807  0.4909
 2527TIP3    H229217   4.627   5.502   0.554 -0.6382  0.5700 -0.2683
 2528TIP3   OH229218   6.554   2.216   6.075  0.3592  0.7149 -0.4348
 2528TIP3    H129219   6.550   2.187   6.166 -0.3593  0.5115 -0.5249
 2528TIP3    H229220   6.577   2.137   6.026 -1.7239  0.2179 -0.6951
 2529TIP3   OH229221   1.477   4.518   8.294  0.3880 -0.5627  0.0247
 2529TIP3    H129222   1.458   4.548   8.383 -1.2619 -3.5955  0.8296
 2529TIP3    H229223   1.564   4.481   8.299 -0.2682 -2.0690  0.8244
 2530TIP3   OH229224   5.368   5.321   8.041 -0.4493 -0.0911  0.1842
 2530TIP3    H129225   5.373   5.414   8.063  2.0528 -0.0415 -0.3850
 2530TIP3    H229226   5.412   5.277   8.113 -1.5925 -0.8738  0.4354
 2531TIP3   OH229227   4.759   6.247   6.448  0.0211  0.1954  0.1002
 2531TIP3    H129228   4.686   6.307   6.437 -0.6984 -0.6070  0.3384
 2531TIP3    H229229   4.771   6.241   6.543 -0.4498 -0.6310  0.1231
 2532TIP3   OH229230   1.222   1.665   6.911 -0.4730 -0.4516 -0.1270
 2532TIP3    H129231   1.260   1.662   6.998  1.4551 -0.1144 -0.9128
 2532TIP3    H229232   1.221   1.574   6.881  0.3323 -0.3890 -0.3484
 2533TIP3   OH229233   4.164   1.846   0.043  0.2427  0.1899  0.0650
 2533TIP3    H129234   4.139   1.898  -0.034  0.9906 -0.8921 -0.9595
 2533TIP3    H229235   4.248   1.881   0.070  0.1045  0.4010  0.2161
 2534TIP3   OH229236   5.164   1.893   8.097  0.6489 -0.0385  0.3386
 2534TIP3    H129237   5.091   1.929   8.046 -0.8399 -3.1605 -0.0197
 2534TIP3    H229238   5.239   1.947   8.073 -0.4392  0.0509 -3.5186
 2535TIP3   OH229239   2.682   3.355   1.981 -0.5485 -0.1392  0.0456
 2535TIP3    H129240   2.769   3.318   1.997 -0.3476 -0.1500 -1.0341
 2535TIP3    H229241   2.695   3.418   1.910 -1.0054  1.5123  1.3329
 2536TIP3   OH229242   5.280   6.553   1.672  0.2345  0.3764 -0.3788
 2536TIP3    H129243   5.264   6.576   1.764  1.4148  2.4974 -0.6478
 2536TIP3    H229244   5.192   6.536   1.637 -0.4924  1.8037  0.6070
 2537TIP3   OH229245   3.331   2.200   8.212  0.1713  0.1686 -0.6415
 2537TIP3    H129246   3.408   2.237   8.257  0.4333 -0.7507 -0.3142
 2537TIP3    H229247   3.270   2.273   8.206  0.7270  0.6915 -0.1214
 2538TIP3   OH229248   3.710   1.096   7.572 -0.2994  0.3188  0.1030
 2538TIP3    H129249   3.792   1.105   7.621 -0.1846  1.3124 -0.2408
 2538TIP3    H229250   3.647   1.147   7.623 -0.6518 -0.2472  0.2379
 2539TIP3   OH229251   0.614   2.105   7.583 -0.0304 -0.2127 -0.1592
 2539TIP3    H129252   0.600   2.164   7.657 -2.8758  0.8946 -1.4150
 2539TIP3    H229253   0.629   2.163   7.509  0.3702 -1.1953 -0.8706
 2540TIP3   OH229254   5.885   0.525   6.672 -0.2633 -0.0943 -0.0567
 2540TIP3    H129255   5.820   0.535   6.602  2.2732 -0.5440 -2.6540
 2540TIP3    H229256   5.924   0.612   6.681 -0.4813 -0.0701  0.7793
 2541TIP3   OH229257   1.301   1.601   5.604 -0.1731 -0.2718  0.2832
 2541TIP3    H129258   1.240   1.542   5.648  0.1755  0.1624  1.3809
 2541TIP3    H229259   1.289   1.685   5.647  0.5460  0.0469 -0.1133
 2542TIP3   OH229260   1.973   0.121   0.074 -0.4531  0.3514 -0.0261
 2542TIP3    H129261   1.983   0.035   0.033 -0.1613 -0.3774  1.4840
 2542TIP3    H229262   1.973   0.103   0.168  0.2928  2.0717  0.3564
 2543TIP3   OH229263   1.750   2.188   0.476  0.1629 -0.1230  0.2798
 2543TIP3    H129264   1.840   2.189   0.445 -0.3607 -0.5180 -1.3374
 2543TIP3    H229265   1.739   2.273   0.518  1.8375 -0.8119  2.2755
 2544TIP3   OH229266   4.548   4.880   0.659 -0.7712  0.3767  0.2371
 2544TIP3    H129267   4.564   4.972   0.679 -0.7220  0.8003 -1.5986
 2544TIP3    H229268   4.636   4.842   0.651 -0.7520  0.6557 -1.0182
 2545TIP3   OH229269   2.184   1.327   0.569 -0.7489  0.1985 -0.6408
 2545TIP3    H129270   2.188   1.399   0.632 -0.1757  1.5731 -2.1644
 2545TIP3    H229271   2.098   1.336   0.528 -0.7363 -0.0796 -0.7292
 2546TIP3   OH229272   3.983   5.391   8.359  0.0864  0.1469  0.1510
 2546TIP3    H129273   3.987   5.313   8.303 -0.0749  0.3987 -0.2181
 2546TIP3    H229274   3.889   5.407   8.372  0.1042 -0.9261  1.9527
 2547TIP3   OH229275   1.548   6.453   1.138 -0.0280  0.2340  0.1206
 2547TIP3    H129276   1.470   6.457   1.083 -1.7131  0.2105  2.4116
 2547TIP3    H229277   1.516   6.431   1.225  2.9106 -5.3630  0.2710
 2548TIP3   OH229278   4.433   2.005   7.108  0.0788 -0.1512  0.4835
 2548TIP3    H129279   4.516   1.983   7.064  0.7802  0.9920  1.1762
 2548TIP3    H229280   4.442   2.097   7.130 -0.8377 -0.3381  1.7554
 2549TIP3   OH229281   0.084   1.879   1.585 -0.4889 -0.0002 -0.3014
 2549TIP3    H129282   0.045   1.796   1.611  1.4552 -0.8463  0.0673
 2549TIP3    H229283   0.105   1.868   1.492  1.2067 -0.5449  0.1222
 2550TIP3   OH229284   5.768   4.169   1.428 -0.0883 -0.3074 -0.7856
 2550TIP3    H129285   5.762   4.148   1.335 -0.9630  0.0387 -0.8084
 2550TIP3    H229286   5.700   4.115   1.469  0.2175 -0.3713 -0.3539
 2551TIP3   OH229287   4.962   1.794   7.170 -0.0522  0.3349  0.1670
 2551TIP3    H129288   5.054   1.769   7.181  0.0793  1.1893  1.1450
 2551TIP3    H229289   4.960   1.847   7.090  0.5461  1.3993  0.8404
 2552TIP3   OH229290   0.939   6.726   0.615 -0.1088 -0.8535  0.7476
 2552TIP3    H129291   0.902   6.799   0.664  1.4469  0.7305 -0.3136
 2552TIP3    H229292   0.903   6.735   0.527  2.2458  0.4220 -0.1662
 2553TIP3   OH229293   0.167   0.440   1.089 -0.3946  0.2587 -0.1790
 2553TIP3    H129294   0.192   0.410   1.177 -2.8201  1.8417  1.1363
 2553TIP3    H229295   0.166   0.359   1.037 -1.5989 -1.2117  1.9406
 2554TIP3   OH229296   3.445   6.256   1.775  0.2180 -0.2242 -0.5016
 2554TIP3    H129297   3.538   6.235   1.763  0.2842  0.5256 -1.4718
 2554TIP3    H229298   3.445   6.341   1.819 -0.0196 -0.6547  0.3417
 2555TIP3   OH229299   6.098   2.932   7.223  0.3035 -0.2591 -0.3214
 2555TIP3    H129300   6.044   2.998   7.180 -0.0676 -1.1896 -1.3298
 2555TIP3    H229301   6.080   2.851   7.175  2.0502 -0.7431 -0.2179
 2556TIP3   OH229302   4.784   5.686   6.748  0.0513 -0.8289 -0.2420
 2556TIP3    H129303   4.714   5.670   6.684  0.3437  0.1844 -0.8246
 2556TIP3    H229304   4.845   5.744   6.704  0.4939 -0.4670  0.8021
 2557TIP3   OH229305   4.699   2.159   8.607  0.0692 -0.2661  0.6679
 2557TIP3    H129306   4.671   2.246   8.577  2.6962  0.7283  0.8346
 2557TIP3    H229307   4.674   2.156   8.699  2.2588  1.5052  1.4262
 2558TIP3   OH229308   5.194   2.674   1.239 -0.5624  0.2379 -0.1167
 2558TIP3    H129309   5.255   2.745   1.224 -2.0852  1.4515 -0.7897
 2558TIP3    H229310   5.220   2.606   1.177 -1.1329  1.5703 -1.8958
 2559TIP3   OH229311   6.317   0.595   7.543  0.7309 -0.1859 -0.2073
 2559TIP3    H129312   6.262   0.573   7.618  2.0400  1.4005  1.3165
 2559TIP3    H229313   6.267   0.661   7.494 -0.3851 -1.6561 -1.1310
 2560TIP3   OH229314   2.452   4.706   2.447 -0.1689 -0.1765  0.5117
 2560TIP3    H129315   2.432   4.746   2.532 -2.4120 -1.4649  0.6769
 2560TIP3    H229316   2.503   4.627   2.469  1.1251  0.6104  0.4503
 2561TIP3   OH229317   0.479   4.315   8.674 -0.3521  0.0115  0.3581
 2561TIP3    H129318   0.425   4.326   8.596  0.9108  0.2317 -0.5092
 2561TIP3    H229319   0.495   4.404   8.705 -2.0753 -0.1105  1.7872
 2562TIP3   OH229320   4.067   4.083   1.938 -0.0962 -0.3180 -0.0819
 2562TIP3    H129321   4.007   4.056   2.006  0.1503 -2.6453 -0.7243
 2562TIP3    H229322   4.149   4.101   1.984  0.2275 -2.4037  0.2180
 2563TIP3   OH229323   0.738   3.308   1.979  0.0367  0.1061  0.2197
 2563TIP3    H129324   0.789   3.269   2.050 -1.4770 -0.8913  0.8007
 2563TIP3    H229325   0.803   3.353   1.925  1.4750 -0.8253  1.1077
 2564TIP3   OH229326   4.842   5.846   1.585 -0.2395  0.4742 -0.1476
 2564TIP3    H129327   4.883   5.856   1.670 -2.3170 -1.4743  1.2254
 2564TIP3    H229328   4.748   5.843   1.604 -0.8037  0.4683 -2.5719
 2565TIP3   OH229329   4.203   5.537   0.217  0.1319  0.5204  0.2092
 2565TIP3    H129330   4.260   5.506   0.147 -1.0910 -0.1003 -0.5515
 2565TIP3    H229331   4.191   5.461   0.274 -0.3492  0.4902  0.0712
 2566TIP3   OH229332   5.551   5.477   1.000  0.3337  0.1311  0.3319
 2566TIP3    H129333   5.644   5.486   0.980  0.4086 -0.0857  0.5726
 2566TIP3    H229334   5.521   5.567   1.016  0.4109  0.2394 -0.1340
 2567TIP3   OH229335   6.322   2.862   7.557  0.4594 -0.1865 -0.8135
 2567TIP3    H129336   6.352   2.857   7.647 -0.9348 -2.1318 -0.3876
 2567TIP3    H229337   6.401   2.853   7.504  1.2100  0.3159  0.1971
 2568TIP3   OH229338   5.060   2.088   7.944  0.0437  0.1883 -0.2745
 2568TIP3    H129339   5.145   2.120   7.915  0.2059 -0.0991 -0.1311
 2568TIP3    H229340   5.001   2.106   7.871  0.5082 -0.8108 -0.9227
 2569TIP3   OH229341   4.104   4.009   0.729  0.0653  0.2144  0.3896
 2569TIP3    H129342   4.160   3.999   0.651  1.2691  2.7346  0.8183
 2569TIP3    H229343   4.123   3.932   0.782  1.4697 -0.0936 -0.4932
 2570TIP3   OH229344   4.273   3.671   7.101 -0.0300  0.4508  0.6342
 2570TIP3    H129345   4.244   3.626   7.181 -0.5478  0.3843  0.4082
 2570TIP3    H229346   4.320   3.748   7.133 -3.4581  2.5767  1.0402
 2571TIP3   OH229347   5.565   2.199   0.426 -0.2148 -0.0332 -0.5306
 2571TIP3    H129348   5.487   2.202   0.371 -1.0938  0.2681  0.7022
 2571TIP3    H229349   5.634   2.239   0.371 -1.0733  0.3304 -1.3817
 2572TIP3   OH229350   1.116   5.682   2.306 -0.0395  0.7598  0.1713
 2572TIP3    H129351   1.157   5.596   2.314 -2.3911 -0.3208  1.3575
 2572TIP3    H229352   1.131   5.724   2.391  0.2675  1.1425 -0.0688
 2573TIP3   OH229353   0.708   0.258   0.026 -0.3860 -0.6011  0.1131
 2573TIP3    H129354   0.677   0.341  -0.010 -0.1107 -0.2855  0.5866
 2573TIP3    H229355   0.804   0.265   0.026 -0.3679  0.2032  2.6217
 2574TIP3   OH229356   0.955   0.765   6.728  0.0235 -0.4681  0.3365
 2574TIP3    H129357   0.863   0.779   6.751  0.3912  1.4736  0.8857
 2574TIP3    H229358   0.993   0.721   6.804 -0.1477  0.1428  0.7891
 2575TIP3   OH229359   0.456   1.555   0.598  0.2461 -0.1665  0.2889
 2575TIP3    H129360   0.457   1.461   0.585 -2.5237 -0.8011  3.3284
 2575TIP3    H229361   0.421   1.590   0.516  2.0364 -1.6282 -1.1630
 2576TIP3   OH229362   4.487   6.758   0.661  0.1285 -0.4399  0.2749
 2576TIP3    H129363   4.462   6.786   0.749 -0.0393  2.2322 -0.5375
 2576TIP3    H229364   4.482   6.837   0.608  2.2663 -1.5284 -1.7388
 2577TIP3   OH229365   5.492   5.884   7.310  0.1663  0.0188 -0.0969
 2577TIP3    H129366   5.585   5.905   7.303  0.0287  0.0512 -3.5167
 2577TIP3    H229367   5.490   5.789   7.326  0.7925 -0.0737 -0.5289
 2578TIP3   OH229368   5.661   5.818   6.921 -0.3389 -0.1243 -0.1035
 2578TIP3    H129369   5.608   5.883   6.968  0.0906 -0.0528  0.2869
 2578TIP3    H229370   5.614   5.736   6.933 -1.3547  0.2448 -1.3315
 2579TIP3   OH229371   0.781   2.040   6.149  0.0544 -0.8382 -0.4242
 2579TIP3    H129372   0.796   2.113   6.088 -1.3846 -0.4598 -0.3565
 2579TIP3    H229373   0.754   2.082   6.230  0.3251 -1.4141 -0.0310
 2580TIP3   OH229374   2.525   0.964   8.308 -0.4078 -0.6207  0.3520
 2580TIP3    H129375   2.533   0.993   8.217 -0.1770 -2.4468 -0.2544
 2580TIP3    H229376   2.437   0.926   8.313 -0.6874  0.0869  1.1129
 2581TIP3   OH229377   6.504   1.274   0.746 -0.6031  0.1596 -0.0092
 2581TIP3    H129378   6.424   1.239   0.708 -0.4069 -1.4740  0.9631
 2581TIP3    H229379   6.536   1.336   0.681 -0.6559 -1.9373 -2.2212
 2582TIP3   OH229380   5.070   4.056   2.268  0.5292  0.4300 -0.3854
 2582TIP3    H129381   5.003   4.021   2.327  0.9142  1.3733  0.6505
 2582TIP3    H229382   5.057   4.008   2.186  0.5625 -1.5741  0.7193
 2583TIP3   OH229383   6.863   0.970   6.290 -0.5809  0.5930 -0.5028
 2583TIP3    H129384   6.890   1.038   6.228  1.1757  0.4358  0.0346
 2583TIP3    H229385   6.930   0.972   6.359 -1.4321 -0.5382  0.3988
 2584TIP3   OH229386   3.051   0.486   7.036 -0.3519 -0.2941 -0.1615
 2584TIP3    H129387   2.985   0.534   7.086 -0.7581 -1.1206  0.1090
 2584TIP3    H229388   3.005   0.453   6.959 -0.7098 -2.2581  0.8294
 2585TIP3   OH229389   5.766   4.632   6.727 -0.5500 -1.1374  0.4005
 2585TIP3    H129390   5.685   4.682   6.741  0.1066 -0.2162  1.0237
 2585TIP3    H229391   5.740   4.562   6.666 -1.3772  0.3188 -1.0100
 2586TIP3   OH229392   2.357   2.168   0.147 -0.1764  0.6348  0.0404
 2586TIP3    H129393   2.283   2.110   0.164  1.7853 -2.1429 -0.2011
 2586TIP3    H229394   2.342   2.245   0.203 -2.7978 -0.1751  0.5494
 2587TIP3   OH229395   2.665   5.369   8.473  0.2840 -0.1133  0.0371
 2587TIP3    H129396   2.571   5.358   8.464 -0.1982  0.4370  3.2668
 2587TIP3    H229397   2.703   5.303   8.415 -2.1257 -1.6959  0.1415
 2588TIP3   OH229398   2.256   4.240   6.788 -0.0772  0.3844  0.0534
 2588TIP3    H129399   2.191   4.187   6.835  1.0067 -1.2246 -0.1909
 2588TIP3    H229400   2.323   4.260   6.854  0.3840 -0.0447 -0.2821
 2589TIP3   OH229401   1.576   0.614   1.123  0.0790 -0.3661  1.0617
 2589TIP3    H129402   1.495   0.640   1.167 -0.0110 -1.5141  1.6013
 2589TIP3    H229403   1.551   0.538   1.071  0.1543  0.9960 -1.1164
 2590TIP3   OH229404   5.177   1.728   1.233  0.5095  0.0416 -0.2640
 2590TIP3    H129405   5.250   1.679   1.271  1.1130  0.2363 -1.1437
 2590TIP3    H229406   5.178   1.706   1.140 -0.5451  0.0679 -0.2970
 2591TIP3   OH229407   2.525   6.344   6.809 -0.3492  0.1920 -0.6255
 2591TIP3    H129408   2.560   6.425   6.771 -0.5579  1.2135  1.2590
 2591TIP3    H229409   2.445   6.327   6.758 -1.2140  2.1164 -0.0155
 2592TIP3   OH229410   6.775   3.283   8.374 -0.0251 -0.2024 -0.3731
 2592TIP3    H129411   6.848   3.244   8.422 -0.8625  1.6330  2.6382
 2592TIP3    H229412   6.712   3.211   8.364  0.9998 -1.1038 -0.4459
 2593TIP3   OH229413   2.326   4.552   1.917  0.6786  0.1864 -0.9066
 2593TIP3    H129414   2.241   4.568   1.877 -0.0494 -1.2382 -0.0469
 2593TIP3    H229415   2.305   4.519   2.005  2.1863  2.7888  0.5356
 2594TIP3   OH229416   1.514   6.245   2.541 -0.0764  0.3608 -0.7880
 2594TIP3    H129417   1.576   6.314   2.564 -0.2819 -0.1530  1.6507
 2594TIP3    H229418   1.461   6.282   2.471 -2.2173  4.0347  2.4061
 2595TIP3   OH229419   1.707   4.744   7.389 -0.4023  0.3270 -0.0653
 2595TIP3    H129420   1.697   4.725   7.296  2.0953  0.0931 -0.3458
 2595TIP3    H229421   1.777   4.685   7.418 -0.9520  0.5705  1.9223
 2596TIP3   OH229422   4.124   2.582   7.642  0.4364  0.4493  0.4190
 2596TIP3    H129423   4.097   2.530   7.718  1.2224 -1.0482 -0.2791
 2596TIP3    H229424   4.178   2.652   7.678 -0.1156  0.4146  1.3354
 2597TIP3   OH229425   4.699   1.713   1.328 -0.0902  0.2672  0.4954
 2597TIP3    H129426   4.687   1.701   1.234  0.9043 -1.9553  0.5757
 2597TIP3    H229427   4.761   1.785   1.336  1.8265 -1.1462 -0.7197
 2598TIP3   OH229428   6.739   1.785   7.831 -0.4732 -0.3662 -0.2392
 2598TIP3    H129429   6.674   1.833   7.780 -0.4623 -0.8762 -0.7461
 2598TIP3    H229430   6.763   1.844   7.902  0.1002  0.6771 -1.2712
 2599TIP3   OH229431   4.949   6.399   8.447 -0.1117 -0.7451 -0.0062
 2599TIP3    H129432   4.914   6.441   8.525 -0.7469 -0.2806 -0.5323
 2599TIP3    H229433   4.872   6.378   8.395  0.2307 -2.1301  0.0228
 2600TIP3   OH229434   0.922   2.073   1.047  0.3251 -0.2009 -0.0201
 2600TIP3    H129435   0.855   2.017   1.009 -0.4343  0.8794 -0.3097
 2600TIP3    H229436   0.913   2.062   1.142 -2.5241  2.3620  0.1566
 2601TIP3   OH229437   6.032   1.227   7.171 -0.3915  0.1942 -0.1725
 2601TIP3    H129438   6.064   1.138   7.159 -1.3689  0.1069 -2.9887
 2601TIP3    H229439   5.951   1.218   7.221  1.2558 -0.0430  2.6780
 2602TIP3   OH229440   1.260   3.287   1.793 -0.2295 -0.3619  0.1689
 2602TIP3    H129441   1.324   3.347   1.830  0.2492 -0.7780  0.0171
 2602TIP3    H229442   1.177   3.315   1.832 -0.2723  1.3737 -1.0801
 2603TIP3   OH229443   2.525   0.230   8.544  0.1950 -0.1860 -0.1739
 2603TIP3    H129444   2.545   0.314   8.585 -0.3882 -0.4950  0.7724
 2603TIP3    H229445   2.477   0.182   8.611  1.0865 -1.5351 -0.4653
 2604TIP3   OH229446   3.416   1.755   0.230  0.1200 -0.7515 -0.3893
 2604TIP3    H129447   3.341   1.735   0.286  1.4614 -1.8240  1.0880
 2604TIP3    H229448   3.490   1.765   0.290  1.1878  0.3200 -1.7968
 2605TIP3   OH229449   4.716   3.856   7.429 -0.2526 -0.4282 -0.3305
 2605TIP3    H129450   4.692   3.784   7.371 -1.0922 -0.4201 -0.0015
 2605TIP3    H229451   4.761   3.919   7.372 -0.9119 -0.4976 -0.9435
 2606TIP3   OH229452   5.540   4.890   7.857 -0.0675 -0.6236 -0.3550
 2606TIP3    H129453   5.635   4.874   7.857 -0.2613 -1.8020 -0.1373
 2606TIP3    H229454   5.511   4.860   7.943 -0.7526 -0.9593 -0.6978
 2607TIP3   OH229455   5.753   2.189   0.653 -0.0427  0.2275  0.5459
 2607TIP3    H129456   5.816   2.119   0.638  1.8980  2.0800 -0.5554
 2607TIP3    H229457   5.694   2.185   0.577  0.4353  0.1404  0.1719
 2608TIP3   OH229458   2.164   5.056   7.018  0.3910 -0.4909  0.6382
 2608TIP3    H129459   2.251   5.081   7.048  1.1665 -0.8438 -1.1577
 2608TIP3    H229460   2.175   5.038   6.924 -2.0746  1.7588 -0.2161
 2609TIP3   OH229461   3.213   1.394   2.365  0.7352 -0.4277  0.0406
 2609TIP3    H129462   3.125   1.358   2.376  0.0295  0.0620 -3.0791
 2609TIP3    H229463   3.271   1.328   2.403 -0.7238 -3.3519 -2.3394
 2610TIP3   OH229464   1.809   0.713   0.311 -0.1575 -0.4848  0.5755
 2610TIP3    H129465   1.798   0.808   0.314  0.3221 -0.4334  0.9552
 2610TIP3    H229466   1.749   0.680   0.378 -2.2764 -0.6680 -1.3174
 2611TIP3   OH229467   3.860   5.317   2.217 -0.6686 -0.7624  0.2552
 2611TIP3    H129468   3.920   5.391   2.219 -0.8920 -0.5260 -1.0313
 2611TIP3    H229469   3.779   5.351   2.255 -0.0479 -1.0632  1.9244
 2612TIP3   OH229470   3.213   1.408   8.330 -0.3924  0.5941  0.2933
 2612TIP3    H129471   3.245   1.354   8.257 -2.3324 -1.9488  1.1479
 2612TIP3    H229472   3.290   1.425   8.384  0.5272 -0.1518 -0.7473
 2613TIP3   OH229473   5.649   2.252   1.375  0.1155  0.4535  0.1798
 2613TIP3    H129474   5.573   2.212   1.418 -1.8232 -0.0768 -3.3242
 2613TIP3    H229475   5.617   2.338   1.346  0.6347  0.0533 -1.7257
 2614TIP3   OH229476   4.223   6.404   7.518 -0.3309  0.0045  0.4043
 2614TIP3    H129477   4.140   6.377   7.559  0.7458 -1.4099  1.7700
 2614TIP3    H229478   4.202   6.410   7.425 -2.2727  0.9216  0.8493
 2615TIP3   OH229479   0.355   3.942   1.727  0.1376  1.4988 -0.0049
 2615TIP3    H129480   0.314   3.875   1.782 -0.8734  2.1721  0.0990
 2615TIP3    H229481   0.435   3.966   1.774  0.8958 -0.1193 -0.4029
 2616TIP3   OH229482   4.582   0.318   8.271  0.1511  0.0357 -0.0299
 2616TIP3    H129483   4.543   0.299   8.185 -1.8606 -1.9565  1.2082
 2616TIP3    H229484   4.657   0.259   8.277  1.4033  1.4301 -1.0362
 2617TIP3   OH229485   6.646   5.299   0.530  0.1095 -0.1428  0.1606
 2617TIP3    H129486   6.644   5.288   0.435  1.5783 -0.0217  0.0788
 2617TIP3    H229487   6.607   5.219   0.565 -3.7693  1.2815 -0.5181
 2618TIP3   OH229488   1.982   1.456   8.435 -0.2393 -0.1024 -0.0692
 2618TIP3    H129489   2.022   1.516   8.372 -0.0396  0.4660  0.5829
 2618TIP3    H229490   2.055   1.417   8.482 -0.3296 -1.5267 -1.0591
 2619TIP3   OH229491   2.831   4.928   1.533 -0.2421 -0.7305 -0.3320
 2619TIP3    H129492   2.857   4.837   1.518  1.7810 -0.7990  2.6428
 2619TIP3    H229493   2.780   4.925   1.614  1.6291  0.9177  1.0032
 2620TIP3   OH229494   1.082   3.217   8.169  0.1290 -0.5829  0.5716
 2620TIP3    H129495   1.005   3.208   8.227  0.4969 -0.0568  1.1592
 2620TIP3    H229496   1.156   3.227   8.229  0.6664 -1.0822  0.0089
 2621TIP3   OH229497   2.864   3.165   7.088  0.4321 -0.2549  0.5984
 2621TIP3    H129498   2.902   3.201   7.007  1.4513 -0.3855  1.0019
 2621TIP3    H229499   2.784   3.121   7.059  0.3250  0.4510 -0.2150
 2622TIP3   OH229500   5.316   1.149   0.598  0.4656  0.0479 -0.3847
 2622TIP3    H129501   5.350   1.060   0.606 -0.0664 -0.0919  0.5379
 2622TIP3    H229502   5.272   1.165   0.682  1.4118  1.5509 -0.1259
 2623TIP3   OH229503   3.806   4.247   0.643 -0.1646  0.0600 -0.2771
 2623TIP3    H129504   3.838   4.157   0.653 -1.8992 -0.8003 -1.7729
 2623TIP3    H229505   3.754   4.263   0.722 -1.0542 -0.8510 -0.6477
 2624TIP3   OH229506   1.335   3.106   7.474  0.4092  0.1536  0.4404
 2624TIP3    H129507   1.365   3.030   7.524  2.7605  0.9242  0.3582
 2624TIP3    H229508   1.395   3.109   7.398 -1.1384  0.7480 -0.8127
 2625TIP3   OH229509   4.472   3.669   8.325 -0.6653 -0.1630 -0.4903
 2625TIP3    H129510   4.463   3.720   8.406 -0.3703  0.8089 -1.0620
 2625TIP3    H229511   4.562   3.686   8.296 -1.0065  0.0978 -1.4215
 2626TIP3   OH229512   6.578   0.989   6.955  0.0269 -0.2826 -0.5832
 2626TIP3    H129513   6.605   1.060   7.014 -1.9078 -0.0075  0.0350
 2626TIP3    H229514   6.502   1.024   6.909  0.5607 -1.0736 -2.1237
 2627TIP3   OH229515   0.270   1.616   7.205 -0.1625 -0.2027 -0.0914
 2627TIP3    H129516   0.224   1.532   7.212 -0.7711 -0.0426 -1.6835
 2627TIP3    H229517   0.219   1.666   7.140  0.9362  0.8886 -0.1620
 2628TIP3   OH229518   0.071   2.845   8.645  0.1240  0.4391  0.3214
 2628TIP3    H129519   0.154   2.799   8.635  0.0934  0.7364 -1.8381
 2628TIP3    H229520   0.014   2.807   8.577 -0.5883  2.1453 -0.0819
 2629TIP3   OH229521   3.020   2.604   1.425  0.1952 -0.3589  0.4610
 2629TIP3    H129522   3.030   2.697   1.445  0.1845 -0.4934  1.1360
 2629TIP3    H229523   2.945   2.575   1.478  0.2242 -0.7562  0.2927
 2630TIP3   OH229524   2.798   2.698   0.274 -0.2432 -0.4023  0.6229
 2630TIP3    H129525   2.748   2.734   0.348 -2.9877 -0.7306 -0.9146
 2630TIP3    H229526   2.844   2.773   0.237  1.9061 -0.3728  3.0501
 2631TIP3   OH229527   6.785   2.851   1.035  0.3555 -0.2929  0.4589
 2631TIP3    H129528   6.698   2.890   1.040 -0.2158 -1.3841 -0.6297
 2631TIP3    H229529   6.803   2.821   1.124 -0.1090  0.4621  0.8191
 2632TIP3   OH229530   3.476   5.283   8.576  0.2186  0.7873 -0.5251
 2632TIP3    H129531   3.500   5.192   8.592 -0.7810  0.4888 -0.6567
 2632TIP3    H229532   3.407   5.278   8.510 -2.3442  1.3583  1.9233
 2633TIP3   OH229533   0.773   2.062   0.198 -0.7014 -0.0415  0.0162
 2633TIP3    H129534   0.849   2.033   0.147  0.2518 -0.0343  1.3808
 2633TIP3    H229535   0.702   2.068   0.134  0.0682 -1.4735 -1.0354
 2634TIP3   OH229536   6.681   3.769   2.703 -0.3300 -0.0393 -0.2445
 2634TIP3    H129537   6.753   3.708   2.684  1.1658  1.8522 -0.9417
 2634TIP3    H229538   6.637   3.779   2.619 -0.7441 -0.3428 -0.0668
 2635TIP3   OH229539   6.712   6.812   7.133 -0.1065 -0.0262  0.5739
 2635TIP3    H129540   6.748   6.723   7.136  0.5358  0.1970 -0.2363
 2635TIP3    H229541   6.789   6.869   7.130 -0.5044  0.5916  1.6466
 2636TIP3   OH229542   5.770   6.671   0.694 -0.1939  0.2010  0.4775
 2636TIP3    H129543   5.731   6.594   0.735  1.1481  0.0306  1.5183
 2636TIP3    H229544   5.798   6.726   0.768 -0.3861  1.3112 -0.2446
 2637TIP3   OH229545   1.688   1.060   6.597 -0.1354  0.4131 -0.2326
 2637TIP3    H129546   1.621   1.008   6.640 -2.5684  3.7923  0.4987
 2637TIP3    H229547   1.738   1.099   6.669  1.3525 -0.5056 -0.7402
 2638TIP3   OH229548   1.030   2.839   0.312 -0.0856 -0.3678 -0.3012
 2638TIP3    H129549   1.099   2.856   0.376 -1.4731  0.5913  1.0039
 2638TIP3    H229550   0.977   2.770   0.351 -1.7584  1.1889  0.3278
 2639TIP3   OH229551   5.821   6.574   8.204  0.2625 -0.8951  0.0795
 2639TIP3    H129552   5.857   6.547   8.119 -2.2290 -0.0417 -1.3357
 2639TIP3    H229553   5.758   6.506   8.225 -2.1563  0.9291 -0.8776
 2640TIP3   OH229554   2.924   2.207   8.281 -0.2233 -0.1232 -0.4183
 2640TIP3    H129555   2.909   2.225   8.373 -1.8251  1.8661 -0.9892
 2640TIP3    H229556   2.841   2.171   8.249  0.5412 -1.5188 -0.9818
 2641TIP3   OH229557   3.843   0.604   1.427 -0.7710  0.2641  0.2812
 2641TIP3    H129558   3.845   0.647   1.342  1.7378  0.4432  0.3715
 2641TIP3    H229559   3.923   0.632   1.471 -0.1062 -2.6886  1.2314
 2642TIP3   OH229560   0.920   0.474   1.104  0.4848  0.0779  0.1755
 2642TIP3    H129561   0.899   0.503   1.193  0.2411 -1.1020  0.5310
 2642TIP3    H229562   0.849   0.413   1.082 -0.5482  1.7953 -1.6167
 2643TIP3   OH229563   3.085   0.893   1.924  0.0628  0.4110 -0.0278
 2643TIP3    H129564   3.178   0.871   1.925 -0.2175 -0.8524 -0.6342
 2643TIP3    H229565   3.074   0.951   2.000  1.8074  2.6357 -1.3320
 2644TIP3   OH229566   3.691   1.784   8.065  0.1926  0.0292  0.4342
 2644TIP3    H129567   3.602   1.748   8.057 -0.4228  1.0390  2.1231
 2644TIP3    H229568   3.727   1.743   8.143  1.0832 -0.0972 -0.0371
 2645TIP3   OH229569   5.757   4.645   8.082  0.3955  0.2500 -0.1259
 2645TIP3    H129570   5.754   4.741   8.078 -2.0161  0.3275  1.4347
 2645TIP3    H229571   5.771   4.625   8.174  1.6954 -0.9666 -0.5398
 2646TIP3   OH229572   1.791   6.126   7.258 -1.1230  0.2245  0.0303
 2646TIP3    H129573   1.747   6.209   7.276 -1.4842  0.0304  0.0446
 2646TIP3    H229574   1.801   6.084   7.343 -1.2406  0.1038 -0.0145
 2647TIP3   OH229575   2.425   4.755   8.360 -0.1632  0.3366  0.7236
 2647TIP3    H129576   2.408   4.681   8.419  0.8435  1.4889  2.5266
 2647TIP3    H229577   2.439   4.830   8.417  0.2717  1.6645 -1.0169
 2648TIP3   OH229578   5.970   1.212   0.310  0.0442 -0.6815 -0.2722
 2648TIP3    H129579   6.062   1.232   0.325 -0.1466 -0.5143  0.7223
 2648TIP3    H229580   5.923   1.285   0.349 -0.6053 -2.1058  1.7949
 2649TIP3   OH229581   0.444   5.708   8.399  0.7161 -0.8261  0.9960
 2649TIP3    H129582   0.369   5.767   8.395  0.5360 -1.1062 -0.4536
 2649TIP3    H229583   0.407   5.624   8.428 -0.0570 -1.6384 -1.9989
 2650TIP3   OH229584   5.717   2.999   6.920  0.4190 -0.4585  0.2941
 2650TIP3    H129585   5.727   2.911   6.883  1.9609  0.8888 -2.8278
 2650TIP3    H229586   5.796   3.013   6.972 -0.3734 -1.2479  1.8067
 2651TIP3   OH229587   1.202   5.649   6.860  0.2330  0.1301  0.0691
 2651TIP3    H129588   1.135   5.652   6.791 -0.5902  5.2919  0.6774
 2651TIP3    H229589   1.285   5.642   6.812 -0.4344  0.9070 -1.2648
 2652TIP3   OH229590   0.382   0.255   0.749 -0.3953 -0.2348  0.0534
 2652TIP3    H129591   0.326   0.331   0.734 -1.2350 -0.7028  0.7373
 2652TIP3    H229592   0.341   0.209   0.823  0.6735 -0.7992  0.3109
 2653TIP3   OH229593   5.332   3.139   0.156 -0.2622 -0.2231 -0.0102
 2653TIP3    H129594   5.263   3.204   0.149  0.2390  0.2776 -0.4848
 2653TIP3    H229595   5.382   3.149   0.075 -0.1516 -1.1717 -0.0706
 2654TIP3   OH229596   3.772   2.704   1.016  0.2154 -0.0886  0.3840
 2654TIP3    H129597   3.856   2.671   0.982 -0.4444 -0.6454 -0.7538
 2654TIP3    H229598   3.752   2.648   1.090  0.1684 -0.8641 -0.2092
 2655TIP3   OH229599   0.999   4.693   7.096 -0.5046 -0.1179 -0.2655
 2655TIP3    H129600   1.078   4.737   7.127 -0.1961 -0.4905 -0.5121
 2655TIP3    H229601   0.994   4.714   7.003  0.4093 -1.6962 -0.7147
 2656TIP3   OH229602   0.524   6.801   7.166  0.3391 -0.0477 -0.1118
 2656TIP3    H129603   0.430   6.808   7.180  0.0186 -1.2369 -1.4586
 2656TIP3    H229604   0.542   6.860   7.093  0.8269  0.8544  0.6987
 2657TIP3   OH229605   6.575   2.725   0.656 -0.0897  0.3966  0.3766
 2657TIP3    H129606   6.624   2.671   0.718  1.6353  0.0993 -1.1472
 2657TIP3    H229607   6.641   2.783   0.617 -1.0171  0.3159 -1.4287
 2658TIP3   OH229608   6.210   1.149   6.525 -0.1229  0.0837  0.3072
 2658TIP3    H129609   6.203   1.219   6.590 -0.0271 -0.6967  1.1773
 2658TIP3    H229610   6.304   1.133   6.518 -0.1113  0.3702 -0.2610
 2659TIP3   OH229611   5.603   2.869   8.194  0.1625  0.7711 -0.3640
 2659TIP3    H129612   5.681   2.848   8.142  0.1189 -3.3602  0.8623
 2659TIP3    H229613   5.531   2.862   8.132  0.3257 -1.7208 -0.3811
 2660TIP3   OH229614   2.528   5.667   2.217 -0.3911 -0.0535  0.0947
 2660TIP3    H129615   2.537   5.585   2.169  2.7243 -0.3566  0.9517
 2660TIP3    H229616   2.553   5.735   2.155 -1.2599  0.1017 -0.1022
 2661TIP3   OH229617   6.138   1.746   8.084 -0.3808  0.4241  0.5003
 2661TIP3    H129618   6.068   1.718   8.025  1.0508  0.3241 -1.2237
 2661TIP3    H229619   6.128   1.841   8.089 -1.7202  0.2612  1.7642
 2662TIP3   OH229620   1.887   0.851   1.675 -0.2711 -0.0679 -0.3947
 2662TIP3    H129621   1.970   0.806   1.661 -0.6729 -0.3876 -1.9199
 2662TIP3    H229622   1.831   0.821   1.604 -1.8187 -0.1200  0.8123
 2663TIP3   OH229623   6.335   2.258   6.897 -0.0848 -0.3068  0.3872
 2663TIP3    H129624   6.317   2.171   6.859  0.4929  0.7048 -2.4875
 2663TIP3    H229625   6.297   2.319   6.834 -0.5289  1.5754  2.3814
 2664TIP3   OH229626   1.948   1.420   7.725 -0.0881 -0.3966 -0.3188
 2664TIP3    H129627   1.871   1.414   7.781  0.5981  2.6264  1.1816
 2664TIP3    H229628   1.915   1.461   7.645 -0.6146 -2.4640 -1.2279
 2665TIP3   OH229629   1.349   0.364   6.648  0.2906 -0.1752  0.4633
 2665TIP3    H129630   1.412   0.321   6.590  0.2677 -0.2253  0.4756
 2665TIP3    H229631   1.313   0.293   6.702 -0.6723 -0.3559 -0.3743
 2666TIP3   OH229632   6.131   5.795   7.148 -0.0593  0.1842 -0.3156
 2666TIP3    H129633   6.184   5.742   7.087  0.5383  0.1653  0.2048
 2666TIP3    H229634   6.050   5.746   7.157  0.7718 -1.0688  0.7463
 2667TIP3   OH229635   2.320   2.126   7.965 -0.4954  0.2723 -0.3570
 2667TIP3    H129636   2.243   2.098   8.015  0.2158 -0.1242  0.5512
 2667TIP3    H229637   2.286   2.144   7.878 -1.3734 -1.4213 -0.4207
 2668TIP3   OH229638   5.334   4.351   7.809  0.1443  0.0798 -0.2754
 2668TIP3    H129639   5.256   4.343   7.864  0.0275 -1.2652 -0.6086
 2668TIP3    H229640   5.392   4.282   7.840  0.3825 -0.2197 -1.3451
 2669TIP3   OH229641   0.673   1.071   1.018 -0.2917 -0.4752  0.1880
 2669TIP3    H129642   0.730   1.101   1.090 -0.8473  0.6653  0.1727
 2669TIP3    H229643   0.624   0.998   1.056  0.5798 -0.9396  0.4570
 2670TIP3   OH229644   6.347   2.640   8.283 -0.2568 -0.0698 -0.1806
 2670TIP3    H129645   6.296   2.569   8.323  1.5537 -0.0407  2.4746
 2670TIP3    H229646   6.303   2.720   8.311 -0.2591 -0.0927 -0.1175
 2671TIP3   OH229647   4.257   5.235   0.607 -0.0663  0.8629 -0.1852
 2671TIP3    H129648   4.205   5.255   0.684  1.5596 -0.1055  1.2267
 2671TIP3    H229649   4.290   5.147   0.622  0.0268  0.5144 -2.1607
 2672TIP3   OH229650   2.641   2.645   1.004  0.4203 -0.0572  0.3182
 2672TIP3    H129651   2.633   2.551   0.990 -1.3008 -0.1299  1.3501
 2672TIP3    H229652   2.678   2.652   1.092 -0.7226  0.1875  0.7948
 2673TIP3   OH229653   4.607   3.923   2.226  0.0350 -0.4703 -0.1023
 2673TIP3    H129654   4.563   3.956   2.305  2.5439  0.1472  1.1411
 2673TIP3    H229655   4.650   4.000   2.189  0.9058 -1.2269 -0.6851
 2674TIP3   OH229656   2.094   0.587   7.726 -0.3929  0.1472  0.1655
 2674TIP3    H129657   2.175   0.537   7.734 -0.6643 -0.5530 -1.2119
 2674TIP3    H229658   2.040   0.535   7.667 -1.6488  0.8722  0.6394
 2675TIP3   OH229659   2.950   3.243   6.839  0.6132 -0.2991  0.0987
 2675TIP3    H129660   2.900   3.315   6.800  0.5002  0.1476  1.0250
 2675TIP3    H229661   2.901   3.164   6.817  0.9271 -0.1391 -1.2326
 2676TIP3   OH229662   2.602   6.347   0.187 -0.2025 -0.4871  0.1596
 2676TIP3    H129663   2.513   6.312   0.198 -0.8438  1.1245  0.2913
 2676TIP3    H229664   2.645   6.326   0.270 -0.3555 -1.4911  0.0054
 2677TIP3   OH229665   6.852   0.772   1.467 -0.1334  0.1107 -0.3029
 2677TIP3    H129666   6.933   0.732   1.437  0.9746  2.2500 -0.3771
 2677TIP3    H229667   6.857   0.770   1.563 -0.1804 -0.1105 -0.3057
 2678TIP3   OH229668   0.272   5.980   0.299 -0.0925 -0.6591  0.1992
 2678TIP3    H129669   0.273   5.886   0.315 -1.1022 -0.5736  0.8227
 2678TIP3    H229670   0.245   6.019   0.382 -1.1763  0.0730 -0.4720
 2679TIP3   OH229671   0.817   3.788   8.535 -0.4006  0.1674 -0.3592
 2679TIP3    H129672   0.800   3.880   8.555  0.7708  0.6465 -1.4194
 2679TIP3    H229673   0.867   3.756   8.610 -0.9776  0.3380  0.1034
 2680TIP3   OH229674   1.158   1.162   0.303  0.7551 -0.2489 -0.5797
 2680TIP3    H129675   1.141   1.251   0.332 -0.0770  0.1741 -2.2492
 2680TIP3    H229676   1.131   1.107   0.377 -0.6652  0.7863 -0.2907
 2681TIP3   OH229677   5.990   3.962   7.041  0.4508  0.5076  0.2374
 2681TIP3    H129678   5.910   3.911   7.036  1.3360 -1.2252  2.0922
 2681TIP3    H229679   5.962   4.053   7.029 -1.7456 -0.0561  0.6836
 2682TIP3   OH229680   1.664   0.881   7.298 -0.0821  0.4083 -0.3504
 2682TIP3    H129681   1.724   0.808   7.313  0.3541  0.9253  0.5280
 2682TIP3    H229682   1.647   0.916   7.386 -2.4071 -0.2873 -0.4486
 2683TIP3   OH229683   2.123   0.038   2.225  0.2809  0.7898  0.6679
 2683TIP3    H129684   2.154  -0.048   2.195  1.2426  1.3071  0.1542
 2683TIP3    H229685   2.060   0.017   2.294  0.8959 -0.3155  0.9191
 2684TIP3   OH229686   4.881   1.438   1.655 -0.4065  0.5993 -0.4871
 2684TIP3    H129687   4.905   1.486   1.734 -1.0285  1.6181 -0.8973
 2684TIP3    H229688   4.919   1.351   1.668 -0.1903  0.8540  0.7610
 2685TIP3   OH229689   4.661   2.645   7.508  0.0380 -0.6712  0.2626
 2685TIP3    H129690   4.633   2.728   7.547  0.6303 -1.0673  1.6067
 2685TIP3    H229691   4.684   2.667   7.418 -3.2111 -0.0609 -0.5563
 2686TIP3   OH229692   2.138   0.514   0.242 -0.0640  0.2043 -0.5503
 2686TIP3    H129693   2.175   0.512   0.154 -0.4940 -0.2373 -0.7240
 2686TIP3    H229694   2.196   0.459   0.294 -0.5259 -0.5691 -0.8438
 2687TIP3   OH229695   1.450   3.486   0.776  0.5512 -0.2774  0.3853
 2687TIP3    H129696   1.446   3.552   0.706  1.5241  0.0421  0.6147
 2687TIP3    H229697   1.368   3.439   0.769  0.6937 -0.3568 -1.0858
 2688TIP3   OH229698   4.907   3.988   7.252  0.0181  0.4110 -0.5896
 2688TIP3    H129699   4.906   3.966   7.159  2.1040  0.7200 -0.7324
 2688TIP3    H229700   4.997   3.970   7.281 -1.0206 -1.4168  1.8343
 2689TIP3   OH229701   6.559   0.228   6.566 -0.4466 -0.3821 -0.3500
 2689TIP3    H129702   6.599   0.259   6.647 -0.4453  0.7114 -0.7546
 2689TIP3    H229703   6.633   0.192   6.515 -0.5406 -1.6766  0.3736
 2690TIP3   OH229704   5.625   1.555   8.398 -0.0011  0.2641 -0.2874
 2690TIP3    H129705   5.630   1.587   8.488  1.4337  0.7272 -0.5019
 2690TIP3    H229706   5.538   1.581   8.367  0.0467  1.4206  0.4918
 2691TIP3   OH229707   0.036   4.119   0.445  0.9225  0.6011  0.2578
 2691TIP3    H129708   0.073   4.195   0.491 -0.8504  0.6552  1.6904
 2691TIP3    H229709  -0.031   4.085   0.504  1.7941 -2.2592 -0.2428
 2692TIP3   OH229710   6.829   2.875   7.321  0.4374 -0.1963 -0.1013
 2692TIP3    H129711   6.879   2.858   7.401  0.8207  2.2307  0.2633
 2692TIP3    H229712   6.893   2.913   7.261  0.1703 -2.0315 -1.6502
 2693TIP3   OH229713   2.236   6.737   6.556  0.0254  0.6417  0.4018
 2693TIP3    H129714   2.227   6.642   6.565  1.4535  0.3662 -0.6943
 2693TIP3    H229715   2.194   6.757   6.472  1.1913  0.7020 -0.1922
 2694TIP3   OH229716   1.917   4.499   1.176  0.5535  0.5289 -0.2060
 2694TIP3    H129717   1.933   4.593   1.162 -1.0066  1.1315  1.5604
 2694TIP3    H229718   1.852   4.476   1.110  1.5024  0.4701 -1.1448
 2695TIP3   OH229719   3.527   0.945   8.281  0.0479 -0.0288 -0.0503
 2695TIP3    H129720   3.532   0.952   8.377 -0.2089  0.2045 -0.0529
 2695TIP3    H229721   3.510   0.852   8.265 -0.4234  0.0139  0.1570
 2696TIP3   OH229722   6.229   0.607   0.287 -0.1295 -0.0697  0.6724
 2696TIP3    H129723   6.218   0.515   0.310  0.3359  0.0462  1.3800
 2696TIP3    H229724   6.165   0.653   0.343 -0.4127  0.0369  0.2695
 2697TIP3   OH229725   5.751   3.852   7.066 -0.1332  0.1370  0.2343
 2697TIP3    H129726   5.677   3.860   7.007  0.8094  0.6294 -0.9137
 2697TIP3    H229727   5.712   3.826   7.150 -1.5116 -0.3965 -0.5381
 2698TIP3   OH229728   2.222   3.776   2.355  0.0647  0.5269 -0.1686
 2698TIP3    H129729   2.184   3.863   2.366  1.9721  1.3919 -0.0209
 2698TIP3    H229730   2.277   3.783   2.278  0.3560 -0.5160 -0.0735
 2699TIP3   OH229731   1.659   0.718   0.031 -0.1953 -0.0517  0.2909
 2699TIP3    H129732   1.746   0.701   0.067  0.3759 -2.4661 -1.9283
 2699TIP3    H229733   1.621   0.632   0.016 -1.9461  0.8884 -1.1620
 2700TIP3   OH229734   1.474   5.895   8.317  0.0701 -0.3190  0.1942
 2700TIP3    H129735   1.432   5.892   8.231 -1.2044 -0.2071  0.7875
 2700TIP3    H229736   1.420   5.955   8.368  1.8312  1.0452  0.5722
 2701TIP3   OH229737   3.494   2.280   7.976 -0.0308  0.3776  0.2644
 2701TIP3    H129738   3.437   2.267   8.052 -0.2442  0.2695  0.0883
 2701TIP3    H229739   3.535   2.194   7.962 -0.6294  0.1627 -0.2494
 2702TIP3   OH229740   2.443   0.405   1.124  0.4468  0.1731 -0.2620
 2702TIP3    H129741   2.435   0.367   1.212  1.6753 -1.8096 -0.9652
 2702TIP3    H229742   2.531   0.382   1.096  0.3817  1.5562 -1.6918
 2703TIP3   OH229743   2.098   6.481   0.104 -0.3994  0.0991  0.2387
 2703TIP3    H129744   2.074   6.407   0.160 -1.8583  1.4562  1.5292
 2703TIP3    H229745   2.070   6.456   0.017  0.1517 -1.2916  0.4358
 2704TIP3   OH229746   1.537   3.558   7.822 -0.3221  0.4517  0.5426
 2704TIP3    H129747   1.606   3.527   7.882 -0.8407  0.4125  1.1270
 2704TIP3    H229748   1.506   3.478   7.779 -0.8133  0.3118  1.1482
 2705TIP3   OH229749   4.964   3.780   1.615  0.6065 -0.2882  0.3550
 2705TIP3    H129750   5.007   3.703   1.651 -0.8193 -1.7387 -0.8968
 2705TIP3    H229751   5.017   3.805   1.539  0.0597 -1.2188 -0.3543
 2706TIP3   OH229752   6.642   6.519   7.253 -0.7133  0.1617  0.4453
 2706TIP3    H129753   6.602   6.435   7.277 -1.2028 -0.5418 -2.4579
 2706TIP3    H229754   6.576   6.563   7.200  0.8021  0.8110 -1.0103
 2707TIP3   OH229755   3.086   5.718   6.582 -0.1273  0.2452 -0.1039
 2707TIP3    H129756   3.003   5.717   6.534  0.3492 -1.0235 -0.9628
 2707TIP3    H229757   3.149   5.679   6.521  1.2444  1.7310  0.3121
 2708TIP3   OH229758   1.518   1.544   8.348 -0.2379  0.1285 -0.6122
 2708TIP3    H129759   1.598   1.589   8.376  1.3112 -1.0872 -2.8318
 2708TIP3    H229760   1.530   1.454   8.377 -1.0926  0.0519 -0.4688
 2709TIP3   OH229761   3.528   4.091   6.881  0.3325 -0.5933 -0.7898
 2709TIP3    H129762   3.544   4.067   6.973 -2.0021 -3.5072 -1.0059
 2709TIP3    H229763   3.505   4.009   6.838 -2.7152  1.2386 -3.0664
 2710TIP3   OH229764   6.682   6.557   1.730 -0.3488  0.1601  0.6193
 2710TIP3    H129765   6.613   6.569   1.796  0.7498 -1.1586  2.0904
 2710TIP3    H229766   6.761   6.540   1.781  1.0719  1.4719 -1.0204
 2711TIP3   OH229767   3.850   5.013   0.763 -0.4361  0.2663  0.3087
 2711TIP3    H129768   3.856   4.990   0.671  2.0939  1.0359  0.2056
 2711TIP3    H229769   3.830   4.931   0.808 -0.2620 -0.4008 -0.8052
 2712TIP3   OH229770   2.566   1.747   8.050  0.2259 -0.2552 -0.0394
 2712TIP3    H129771   2.548   1.772   8.141  3.6059  0.7219  0.5198
 2712TIP3    H229772   2.625   1.672   8.058  1.4904  0.5478 -1.3189
 2713TIP3   OH229773   4.462   6.759   0.958 -0.5248  0.1123  0.3616
 2713TIP3    H129774   4.517   6.836   0.976  1.1469 -1.1860  1.1717
 2713TIP3    H229775   4.389   6.767   1.020  0.2941  0.4272  1.3313
 2714TIP3   OH229776   4.942   1.186   1.402 -0.0589 -0.4107  0.5760
 2714TIP3    H129777   4.962   1.223   1.488  1.7102  0.3929 -0.1157
 2714TIP3    H229778   5.009   1.119   1.388  2.0999  1.9373 -1.5846
 2715TIP3   OH229779   5.000   4.260   6.006 -0.5782 -0.0479 -0.2319
 2715TIP3    H129780   5.032   4.180   6.049  2.0680  0.8261 -0.3942
 2715TIP3    H229781   4.971   4.231   5.920 -0.1743 -0.9174 -0.0875
 2716TIP3   OH229782   5.673   4.696   0.352  0.1057 -0.2586 -0.0573
 2716TIP3    H129783   5.655   4.773   0.406  0.5252  0.7500 -1.3167
 2716TIP3    H229784   5.643   4.721   0.264  0.5372 -1.4195 -0.5484
 2717TIP3   OH229785   5.287   0.430   6.683 -0.0046  0.5698 -0.7769
 2717TIP3    H129786   5.269   0.485   6.607  2.1974  2.9762  0.2684
 2717TIP3    H229787   5.382   0.428   6.689 -0.0242 -2.3167  0.0927
 2718TIP3   OH229788   0.558   2.322   7.739 -0.0261 -0.3056 -0.5807
 2718TIP3    H129789   0.635   2.365   7.775  0.9193 -1.7468 -0.7733
 2718TIP3    H229790   0.487   2.342   7.800  1.1299 -1.1968  1.1260
 2719TIP3   OH229791   1.794   0.140   0.533  0.4824 -0.4357 -0.2219
 2719TIP3    H129792   1.768   0.230   0.551 -1.2888 -0.8554 -0.5386
 2719TIP3    H229793   1.748   0.087   0.598  0.4721 -1.2298 -0.8526
 2720TIP3   OH229794   1.436   3.814   1.373 -0.1486  0.9016  0.1414
 2720TIP3    H129795   1.341   3.823   1.373 -0.2830 -0.2938 -0.1959
 2720TIP3    H229796   1.452   3.738   1.430  0.4628  0.0104 -1.1737
 2721TIP3   OH229797   6.255   2.896   8.320 -0.3536  0.4306 -0.7588
 2721TIP3    H129798   6.267   2.951   8.243 -0.5697  1.4053 -0.1286
 2721TIP3    H229799   6.306   2.941   8.389 -1.6654  0.6369  0.1241
 2722TIP3   OH229800   2.401   2.685   0.471 -0.6814 -0.1487 -0.2021
 2722TIP3    H129801   2.479   2.700   0.524  0.5223 -1.8401 -1.3810
 2722TIP3    H229802   2.433   2.688   0.381 -1.9997 -0.8590 -0.7139
 2723TIP3   OH229803   4.704   1.158   5.459  0.2893 -0.2847 -0.0626
 2723TIP3    H129804   4.659   1.138   5.541  2.1876 -1.5572  0.7489
 2723TIP3    H229805   4.692   1.253   5.448 -0.5939 -0.2002  1.3069
 2724TIP3   OH229806   5.633   6.431   8.482  0.5116  0.0776  0.0089
 2724TIP3    H129807   5.544   6.399   8.496  0.3667 -0.1075 -1.2524
 2724TIP3    H229808   5.649   6.419   8.389  0.3751  3.8038 -0.6407
 2725TIP3   OH229809   4.075   2.967   7.933 -0.1844  0.3076  0.3745
 2725TIP3    H129810   4.138   3.005   7.994 -0.1762  0.9574 -0.0273
 2725TIP3    H229811   4.016   3.039   7.911 -0.4661 -0.0342 -0.0274
 2726TIP3   OH229812   0.073   0.802   8.624 -0.1838  0.0264  0.2524
 2726TIP3    H129813   0.164   0.796   8.594 -0.8078  0.6383 -1.9920
 2726TIP3    H229814   0.021   0.771   8.549 -1.8207 -1.7145  1.9706
 2727TIP3   OH229815   1.475   1.083   0.575 -0.4378  0.7085  0.0936
 2727TIP3    H129816   1.392   1.090   0.622 -0.0259 -0.4049  1.0394
 2727TIP3    H229817   1.542   1.091   0.643  0.3049  3.1195 -0.8447
 2728TIP3   OH229818   0.758   6.847   6.774  0.5831  0.1861  1.2874
 2728TIP3    H129819   0.839   6.833   6.823  1.2929  0.3152  0.1768
 2728TIP3    H229820   0.763   6.785   6.701 -0.0835  0.5509  0.9214
 2729TIP3   OH229821   2.506   4.029   8.281  0.3917 -0.2011 -0.0979
 2729TIP3    H129822   2.504   3.974   8.202  1.8339  0.5954 -0.7166
 2729TIP3    H229823   2.426   4.082   8.274  0.5695 -0.0417 -1.0959
 2730TIP3   OH229824   6.161   4.143   1.937  0.7240 -0.2630 -0.3782
 2730TIP3    H129825   6.183   4.229   1.973 -2.0241 -0.2273  1.5422
 2730TIP3    H229826   6.233   4.086   1.966  1.6338  1.0113 -0.0498
 2731TIP3   OH229827   6.433   4.303   6.821 -0.5542  0.0375 -0.2684
 2731TIP3    H129828   6.370   4.286   6.892  0.2052  1.4908  0.8071
 2731TIP3    H229829   6.519   4.292   6.863 -0.0867 -0.1640 -1.2583
 2732TIP3   OH229830   0.002   3.509   8.276  0.1877 -0.2107 -0.1379
 2732TIP3    H129831   0.039   3.572   8.338 -0.0768 -0.5945  0.4173
 2732TIP3    H229832  -0.028   3.436   8.330 -0.0410 -0.5599 -0.7186
 2733TIP3   OH229833   6.834   0.747   8.384 -0.6921 -0.2369  0.4637
 2733TIP3    H129834   6.747   0.735   8.344 -0.6275  0.0162  0.2453
 2733TIP3    H229835   6.854   0.839   8.370 -0.8330 -0.0512  1.4229
 2734TIP3   OH229836   5.009   1.974   0.578 -0.0236  0.2975  0.1280
 2734TIP3    H129837   5.024   2.034   0.506  1.2296  0.9038  0.8604
 2734TIP3    H229838   5.040   1.889   0.546  0.2310  0.4989 -0.1597
 2735TIP3   OH229839   6.529   1.401   6.446 -0.3350 -0.0781 -0.7373
 2735TIP3    H129840   6.564   1.347   6.375  1.5912  0.6919 -0.4332
 2735TIP3    H229841   6.550   1.351   6.525  1.3953  1.0310 -0.4594
 2736TIP3   OH229842   2.567   4.207   8.643 -0.1809  0.0709  0.4315
 2736TIP3    H129843   2.601   4.120   8.623 -5.5840 -1.9774 -1.6482
 2736TIP3    H229844   2.540   4.202   8.735 -3.2687 -1.8343 -0.4347
 2737TIP3   OH229845   2.508   2.332   7.937  0.5790 -0.3205  0.1859
 2737TIP3    H129846   2.437   2.272   7.958  0.1967  1.0085  3.2438
 2737TIP3    H229847   2.544   2.358   8.022  5.2117 -1.3591 -1.1716
 2738TIP3   OH229848   2.089   0.957   1.252  0.5958  0.2419 -0.2076
 2738TIP3    H129849   2.125   0.920   1.333 -0.9595  0.7770  0.7564
 2738TIP3    H229850   2.096   1.052   1.263 -0.8252  0.3555 -0.1068
 2739TIP3   OH229851   3.116   5.896   0.197  0.6577 -0.2615  0.2071
 2739TIP3    H129852   3.064   5.958   0.147 -0.9449  0.6511  2.7845
 2739TIP3    H229853   3.053   5.830   0.226  1.6711 -1.1652  0.4220
 2740TIP3   OH229854   0.439   4.939   8.651  0.4351 -0.1965  0.7462
 2740TIP3    H129855   0.353   4.941   8.609  0.1950 -1.2717  1.1523
 2740TIP3    H229856   0.421   4.956   8.743  0.3548 -2.5457  1.2280
 2741TIP3   OH229857   0.687   6.289   7.256 -0.1933  0.0377 -0.1795
 2741TIP3    H129858   0.697   6.332   7.341 -3.2165 -2.8694  1.9088
 2741TIP3    H229859   0.629   6.347   7.206  1.1421  1.4881 -0.1177
 2742TIP3   OH229860   4.159   3.211   1.709  0.4641 -0.2721 -0.2298
 2742TIP3    H129861   4.066   3.229   1.724  0.4588  0.0054 -0.5917
 2742TIP3    H229862   4.165   3.116   1.708  0.0813 -0.2928 -0.8187
 2743TIP3   OH229863   6.584   3.312   6.988  0.2219 -0.8144 -0.0176
 2743TIP3    H129864   6.619   3.292   6.901  1.4942  0.1826  0.2234
 2743TIP3    H229865   6.515   3.248   7.002  0.5287 -1.4933 -1.4386
 2744TIP3   OH229866   0.062   3.707   1.439  0.8382  0.1457 -0.5226
 2744TIP3    H129867   0.066   3.748   1.526 -0.2613  1.1923 -0.9474
 2744TIP3    H229868  -0.023   3.664   1.436  0.1766  1.4752 -1.6547
 2745TIP3   OH229869   0.754   6.382   0.603 -0.3128  0.2371 -0.1576
 2745TIP3    H129870   0.817   6.404   0.534 -1.9178  1.0242 -1.4298
 2745TIP3    H229871   0.743   6.287   0.596  1.2830 -0.0463  0.6206
 2746TIP3   OH229872   6.221   1.407   8.239  0.0508 -0.0133 -0.4776
 2746TIP3    H129873   6.273   1.336   8.202 -1.0882 -0.5721 -1.0688
 2746TIP3    H229874   6.275   1.443   8.309  0.2369 -2.1761  0.5842
 2747TIP3   OH229875   0.111   5.965   6.944  0.5707  0.1371 -0.0859
 2747TIP3    H129876   0.176   5.924   6.887 -0.8452 -2.2556 -0.1160
 2747TIP3    H229877   0.037   5.984   6.886  0.4012  0.8165  0.3430
 2748TIP3   OH229878   1.721   6.284   1.021  0.2920  0.4445  0.3755
 2748TIP3    H129879   1.805   6.282   1.068 -0.1595 -1.4867  1.2285
 2748TIP3    H229880   1.669   6.349   1.067  1.0772  1.1465  0.2861
 2749TIP3   OH229881   2.353   1.701   7.000  0.0424  0.0825 -0.4764
 2749TIP3    H129882   2.324   1.686   7.090  0.2416 -1.9659 -0.7106
 2749TIP3    H229883   2.283   1.754   6.961 -0.8368 -0.3876  0.4252
 2750TIP3   OH229884   5.146   3.758   7.995  0.0627 -0.5078  0.0144
 2750TIP3    H129885   5.060   3.730   7.962  1.2951 -4.7805 -0.1490
 2750TIP3    H229886   5.130   3.778   8.087 -1.3293  0.0953 -0.3241
 2751TIP3   OH229887   1.450   4.505   7.567 -0.7880 -0.5137 -0.2375
 2751TIP3    H129888   1.419   4.432   7.620 -0.2552 -1.2371 -0.8945
 2751TIP3    H229889   1.484   4.464   7.487  2.3629  0.1284  0.6216
 2752TIP3   OH229890   5.429   2.020   8.161 -0.1708  0.3736  0.6901
 2752TIP3    H129891   5.468   2.097   8.119 -0.4369  0.6310  0.9042
 2752TIP3    H229892   5.504   1.968   8.190  0.0323 -0.3683 -1.0758
 2753TIP3   OH229893   1.706   0.746   0.907 -0.2278 -0.2247 -0.3929
 2753TIP3    H129894   1.682   0.710   0.992  1.4002 -1.9629 -0.5980
 2753TIP3    H229895   1.801   0.753   0.909 -0.3092  1.9342 -1.2691
 2754TIP3   OH229896   4.105   6.663   8.142 -0.1483  0.3235  0.1402
 2754TIP3    H129897   4.038   6.674   8.209  0.7985 -0.4146  1.2424
 2754TIP3    H229898   4.186   6.692   8.184  0.6353 -1.1055 -0.3411
 2755TIP3   OH229899   1.039   6.230   1.945 -0.3984 -0.5038 -0.0261
 2755TIP3    H129900   0.979   6.184   2.004 -0.0995  0.7577  1.3218
 2755TIP3    H229901   1.115   6.252   2.000 -0.4838  1.4861 -0.6278
 2756TIP3   OH229902   3.047   0.592   0.058 -0.1821 -0.1212  0.7710
 2756TIP3    H129903   3.011   0.665   0.109 -0.1758  3.2592 -3.4998
 2756TIP3    H229904   3.142   0.603   0.064 -0.0190 -1.9706  2.7435
 2757TIP3   OH229905   5.489   4.259   8.168  0.2210  0.2270 -0.1085
 2757TIP3    H129906   5.401   4.296   8.168  0.7964  1.7003 -0.5648
 2757TIP3    H229907   5.511   4.248   8.076 -0.0624 -1.6925  0.0095
 2758TIP3   OH229908   3.759   2.648   0.036  0.0054 -0.4207 -0.1169
 2758TIP3    H129909   3.836   2.668   0.088  1.4058 -1.7804 -1.5243
 2758TIP3    H229910   3.693   2.622   0.099  0.3490  1.6799  1.1945
 2759TIP3   OH229911   0.962   1.271   8.384 -0.4544 -0.0048 -0.1045
 2759TIP3    H129912   0.982   1.220   8.305 -0.3119  0.2243 -0.2168
 2759TIP3    H229913   0.906   1.342   8.354  0.4238  0.6809 -0.1865
 2760TIP3   OH229914   5.643   0.753   0.847 -0.8571  0.6420  0.2701
 2760TIP3    H129915   5.653   0.779   0.755 -2.5305 -1.1933 -0.5159
 2760TIP3    H229916   5.733   0.743   0.879 -0.2015  3.2992 -0.4978
 2761TIP3   OH229917   3.807   1.335   0.049  0.4851  0.0918  0.0971
 2761TIP3    H129918   3.714   1.347   0.029  0.6398  0.3315 -0.4968
 2761TIP3    H229919   3.852   1.395  -0.009  1.0570 -0.6290 -0.2267
 2762TIP3   OH229920   3.346   3.668   1.483 -0.2070  0.4196 -0.4272
 2762TIP3    H129921   3.397   3.597   1.522 -2.0794  0.0168  1.4230
 2762TIP3    H229922   3.258   3.631   1.473 -0.5699  1.6250 -2.0155
 2763TIP3   OH229923   3.232   3.419   7.364 -0.6171  0.1542  0.0990
 2763TIP3    H129924   3.146   3.392   7.396 -0.8147 -0.5053 -0.9462
 2763TIP3    H229925   3.254   3.355   7.297  0.2393  0.8988 -0.3575
 2764TIP3   OH229926   4.421   3.694   2.345  0.1134 -0.6171 -0.0203
 2764TIP3    H129927   4.470   3.741   2.278  2.3428 -1.9257  0.5806
 2764TIP3    H229928   4.395   3.762   2.407  0.3471  0.2476 -0.8466
 2765TIP3   OH229929   5.332   3.175   6.672  0.1617 -0.4491 -0.3365
 2765TIP3    H129930   5.320   3.092   6.626  1.7349  0.1334 -1.9104
 2765TIP3    H229931   5.340   3.240   6.602  1.5198  0.6428  0.7690
 2766TIP3   OH229932   3.956   0.628   2.449 -0.1028 -0.2459  0.4277
 2766TIP3    H129933   3.979   0.561   2.385  2.0252 -1.3283  2.1878
 2766TIP3    H229934   4.023   0.696   2.438 -0.7591  0.4087  0.3596
 2767TIP3   OH229935   2.303   2.005   8.262 -0.3770  0.1978  0.0193
 2767TIP3    H129936   2.294   2.004   8.357  0.1017  0.7316  0.0742
 2767TIP3    H229937   2.214   1.995   8.229 -0.4199 -1.2204  0.5090
 2768TIP3   OH229938   4.485   2.218   1.116  0.8141  0.1262 -0.2621
 2768TIP3    H129939   4.534   2.179   1.044 -1.1638 -0.0977 -1.5651
 2768TIP3    H229940   4.410   2.160   1.128  0.3583  0.9406  1.0361
 2769TIP3   OH229941   3.210   3.749   0.624  0.2696  0.3347  0.3195
 2769TIP3    H129942   3.120   3.778   0.613  0.4374  0.7160 -0.0517
 2769TIP3    H229943   3.225   3.752   0.719 -0.6651 -1.4209  0.5595
 2770TIP3   OH229944   5.739   3.995   8.437  0.0964 -0.1630  0.6539
 2770TIP3    H129945   5.822   4.043   8.433 -0.2727  0.4555 -2.0925
 2770TIP3    H229946   5.683   4.050   8.491  0.4589  1.3030 -0.3737
 2771TIP3   OH229947   5.520   0.769   1.407  0.2171  0.5503  0.5468
 2771TIP3    H129948   5.493   0.684   1.442 -1.2559  0.7153 -0.0926
 2771TIP3    H229949   5.564   0.748   1.324 -0.5005  0.4166  0.1910
 2772TIP3   OH229950   3.107   6.205   1.385 -0.9109  0.1950  0.1990
 2772TIP3    H129951   3.167   6.172   1.452 -1.2296 -0.3121  0.2404
 2772TIP3    H229952   3.162   6.259   1.328 -0.4175 -0.2377  0.2563
 2773TIP3   OH229953   2.455   0.767   0.074 -0.5560 -0.1835 -0.2976
 2773TIP3    H129954   2.500   0.850   0.092  1.9476 -1.5623  0.3474
 2773TIP3    H229955   2.447   0.726   0.160 -1.8871 -0.5767 -0.6008
 2774TIP3   OH229956   4.344   0.516   6.528 -0.2116 -0.1581  0.0785
 2774TIP3    H129957   4.303   0.582   6.471  0.7717 -0.0318 -0.5104
 2774TIP3    H229958   4.393   0.461   6.468  2.7753  1.3489  0.9440
 2775TIP3   OH229959   0.929   2.400   8.106  0.1708  0.5096 -0.3398
 2775TIP3    H129960   0.984   2.425   8.179  1.9170  1.2629 -1.8397
 2775TIP3    H229961   0.949   2.308   8.090  0.2082  0.4990 -0.2255
 2776TIP3   OH229962   2.419   0.113   7.484  0.3151 -0.5496 -0.2363
 2776TIP3    H129963   2.504   0.102   7.443  1.1967  1.0952  1.0474
 2776TIP3    H229964   2.407   0.207   7.492 -0.2740 -0.7612  2.2423
 2777TIP3   OH229965   1.184   0.115   2.263  0.0040  0.2162  0.5629
 2777TIP3    H129966   1.255   0.055   2.281 -1.1403 -0.8329  1.8010
 2777TIP3    H229967   1.121   0.064   2.213  0.9803  1.7347 -2.4629
 2778TIP3   OH229968   3.900   5.057   8.068  0.0055  0.0066 -0.2846
 2778TIP3    H129969   3.806   5.053   8.054 -0.2255  1.1554  0.7908
 2778TIP3    H229970   3.928   5.138   8.026  0.5214 -0.3153 -0.5800
 2779TIP3   OH229971   1.330   0.236   1.133 -0.5472 -0.2721  0.0741
 2779TIP3    H129972   1.273   0.310   1.115 -0.4948 -0.1801  0.2888
 2779TIP3    H229973   1.281   0.182   1.195  0.1195  0.4641  1.2917
 2780TIP3   OH229974   6.658   0.582   6.484  0.1333 -0.0458 -0.1997
 2780TIP3    H129975   6.738   0.633   6.499 -0.6434  1.7910 -1.8768
 2780TIP3    H229976   6.590   0.632   6.528 -0.0463 -2.2744  2.3786
 2781TIP3   OH229977   2.766   6.385   2.086 -0.3201  0.2363 -0.0005
 2781TIP3    H129978   2.775   6.475   2.119 -1.1055  0.4103 -0.2271
 2781TIP3    H229979   2.691   6.350   2.134 -0.4824 -0.0427 -0.4551
 2782TIP3   OH229980   3.756   2.511   8.147  0.2480  0.5016  0.1198
 2782TIP3    H129981   3.819   2.533   8.216  1.5013  2.3724 -1.5053
 2782TIP3    H229982   3.785   2.425   8.116  1.5331  0.9625 -0.0373
 2783TIP3   OH229983   4.690   6.003   1.044  0.3677  1.1672  0.0449
 2783TIP3    H129984   4.618   6.066   1.042  0.1270  0.8915 -0.6864
 2783TIP3    H229985   4.699   5.975   0.952 -1.8834 -2.4613  0.7042
 2784TIP3   OH229986   0.051   6.390   6.937  0.4002  0.1080 -0.4830
 2784TIP3    H129987   0.118   6.354   6.879  1.2945  0.7127  0.1444
 2784TIP3    H229988  -0.019   6.325   6.937  1.1238 -0.6839 -0.9036
 2785TIP3   OH229989   5.678   0.298   0.194 -0.4874 -0.0720 -0.3784
 2785TIP3    H129990   5.613   0.260   0.253 -0.9821 -0.0947 -0.9226
 2785TIP3    H229991   5.637   0.378   0.161  0.0488  0.2893 -0.1941
 2786TIP3   OH229992   4.869   3.045   8.293  1.0266  0.0804 -0.3230
 2786TIP3    H129993   4.832   3.001   8.216  1.2317  1.9499 -1.5413
 2786TIP3    H229994   4.943   2.989   8.318  0.6419 -0.8411 -1.1629
 2787TIP3   OH229995   1.222   5.244   8.046 -0.5729  0.1573 -0.5431
 2787TIP3    H129996   1.210   5.248   7.951 -1.6265 -0.2009 -0.4379
 2787TIP3    H229997   1.281   5.171   8.060  0.0977  0.6122 -0.9617
 2788TIP3   OH229998   6.334   3.868   7.293  0.3823 -0.2440 -0.6388
 2788TIP3    H129999   6.308   3.954   7.262 -0.4255 -0.5974 -0.9759
 2788TIP3    H230000   6.384   3.830   7.221  2.1868  0.5537  0.1228
 2789TIP3   OH230001   4.628   3.596   6.839 -0.4932 -0.0101 -0.1788
 2789TIP3    H130002   4.539   3.582   6.873 -1.4856 -1.0623 -2.9068
 2789TIP3    H230003   4.638   3.529   6.772  1.8186  1.0680 -1.0014
 2790TIP3   OH230004   2.105   0.180   7.682  0.0972  0.2754 -0.0095
 2790TIP3    H130005   2.109   0.151   7.773  0.2472 -0.7687 -0.3379
 2790TIP3    H230006   2.040   0.250   7.683  2.2987  2.4757  1.4542
 2791TIP3   OH230007   3.664   1.382   7.454 -0.1640  0.1859  0.0759
 2791TIP3    H130008   3.594   1.421   7.402 -1.4143 -1.4474  0.4663
 2791TIP3    H230009   3.619   1.331   7.521  1.4099  0.0290  1.0629
 2792TIP3   OH230010   0.516   5.269   8.043 -0.0224 -0.0621 -0.1417
 2792TIP3    H130011   0.586   5.331   8.025 -0.2943  0.6157  1.0731
 2792TIP3    H230012   0.451   5.286   7.975  0.5759 -0.0798 -0.7276
 2793TIP3   OH230013   0.408   5.286   7.361  0.2358 -0.1186 -0.7501
 2793TIP3    H130014   0.484   5.241   7.325 -0.2910  0.9854 -3.4680
 2793TIP3    H230015   0.336   5.266   7.301 -0.7707  1.6430 -0.2288
 2794TIP3   OH230016   0.566   4.575   1.573  0.0493 -0.5961 -0.5236
 2794TIP3    H130017   0.621   4.534   1.506  2.3950 -0.6337  1.2693
 2794TIP3    H230018   0.567   4.668   1.551  1.7436 -0.4452 -0.0286
 2795TIP3   OH230019   0.021   4.920   7.352 -0.2634 -0.0902  0.1851
 2795TIP3    H130020   0.089   4.864   7.315 -0.1134  1.1622 -1.5258
 2795TIP3    H230021   0.041   4.921   7.446  1.5437 -0.4548 -0.1489
 2796TIP3   OH230022   5.738   1.461   6.943 -0.3701 -0.0586 -0.4850
 2796TIP3    H130023   5.714   1.397   6.876  0.1513  0.1378 -0.8603
 2796TIP3    H230024   5.657   1.475   6.992 -0.1356 -2.1893  0.6232
 2797TIP3   OH230025   3.325   0.407   1.252  0.4317  0.2324  0.5359
 2797TIP3    H130026   3.331   0.403   1.157 -0.6530 -1.0733  0.5016
 2797TIP3    H230027   3.232   0.425   1.270  0.7898  1.4314  1.3449
 2798TIP3   OH230028   1.618   2.583   7.038  0.2407 -0.5607  0.3955
 2798TIP3    H130029   1.556   2.518   7.004  0.2861 -1.2606  1.5892
 2798TIP3    H230030   1.640   2.551   7.126  2.7180 -0.6457 -0.1849
 2799TIP3   OH230031   1.431   3.452   1.897 -0.1922  0.3101  0.3134
 2799TIP3    H130032   1.468   3.540   1.907 -0.2500  0.2593  1.0090
 2799TIP3    H230033   1.378   3.439   1.976 -0.7862 -0.0632 -0.1338
 2800TIP3   OH230034   1.054   2.460   0.608 -0.0653 -0.5034  0.3447
 2800TIP3    H130035   1.034   2.512   0.529  1.0667  1.9487  1.5536
 2800TIP3    H230036   1.134   2.500   0.642  1.5491 -3.8381  0.8156
 2801TIP3   OH230037   0.218   1.729   8.226  0.2897 -0.6995  0.1558
 2801TIP3    H130038   0.167   1.788   8.282  0.3264 -0.6315  0.1180
 2801TIP3    H230039   0.276   1.683   8.287  0.2151 -0.7427  0.1938
 2802TIP3   OH230040   4.837   3.536   1.964  0.1972  0.3000 -0.4149
 2802TIP3    H130041   4.904   3.470   1.946 -1.7246 -2.3376  1.3771
 2802TIP3    H230042   4.870   3.584   2.040  0.6268 -0.1413 -0.3176
 2803TIP3   OH230043   2.346   2.260   0.874 -0.5039  0.3154  0.1174
 2803TIP3    H130044   2.349   2.279   0.780 -2.4213  1.0819  0.1746
 2803TIP3    H230045   2.254   2.272   0.898  0.3210  2.4876  2.5787
 2804TIP3   OH230046   6.714   0.778   0.037  0.2967  0.0196 -0.3873
 2804TIP3    H130047   6.796   0.817   0.010  1.1174  0.6173  2.6029
 2804TIP3    H230048   6.647   0.842   0.011  1.1115  1.0256 -0.0727
 2805TIP3   OH230049   0.307   0.530   0.776  0.0355  0.3268  0.0121
 2805TIP3    H130050   0.299   0.578   0.859  0.6055 -1.9200  1.4704
 2805TIP3    H230051   0.217   0.520   0.745 -0.2760  0.3985  0.8649
 2806TIP3   OH230052   2.189   4.492   6.913  0.0215 -0.1092  0.1325
 2806TIP3    H130053   2.280   4.522   6.915 -0.1979  0.8613 -1.9044
 2806TIP3    H230054   2.189   4.410   6.963  1.3946  1.3177  2.7043
 2807TIP3   OH230055   4.124   6.392   6.993 -0.3007 -0.5234  0.0841
 2807TIP3    H130056   4.150   6.408   6.903  1.0613  2.2026  0.8554
 2807TIP3    H230057   4.037   6.431   7.001 -0.0077  0.1245  0.1695
 2808TIP3   OH230058   5.319   2.134   0.628  0.5148  0.2661 -0.1909
 2808TIP3    H130059   5.392   2.135   0.567 -0.1772  1.5673 -1.0405
 2808TIP3    H230060   5.241   2.145   0.573 -0.2816 -0.4725  0.7459
 2809TIP3   OH230061   3.272   1.723   7.774 -0.3535 -0.4935 -0.1985
 2809TIP3    H130062   3.206   1.661   7.743 -0.2430 -2.0297  2.4168
 2809TIP3    H230063   3.226   1.808   7.775 -0.9162 -0.6979 -2.5150
 2810TIP3   OH230064   6.343   1.131   6.852 -0.9258 -0.3243 -0.4394
 2810TIP3    H130065   6.286   1.054   6.860  0.4898 -1.2625  2.5574
 2810TIP3    H230066   6.295   1.201   6.896 -0.9473 -0.3377 -0.4409
 2811TIP3   OH230067   3.003   4.083   7.629 -0.6136 -0.2890  0.6927
 2811TIP3    H130068   3.049   4.004   7.601 -0.3406  0.5724 -1.4646
 2811TIP3    H230069   3.069   4.151   7.627 -1.1332  0.2514  1.3358
 2812TIP3   OH230070   6.309   4.793   0.875  0.2979 -0.0186  0.5043
 2812TIP3    H130071   6.261   4.730   0.929  0.8106 -1.7577 -0.9583
 2812TIP3    H230072   6.328   4.746   0.794  3.1538  1.0755  0.4036
 2813TIP3   OH230073   6.321   2.633   7.018 -0.2141  0.9089 -0.5525
 2813TIP3    H130074   6.241   2.579   7.019 -0.5199  1.3522 -0.7897
 2813TIP3    H230075   6.349   2.633   6.927  1.7603 -1.6996 -0.0423
 2814TIP3   OH230076   0.617   6.548   7.755  0.2922 -0.2000 -0.2432
 2814TIP3    H130077   0.666   6.603   7.815  0.3487 -1.9149  1.3687
 2814TIP3    H230078   0.540   6.600   7.731 -0.3855  0.0919  2.3268
 2815TIP3   OH230079   2.258   3.460   6.577 -0.3139  0.1217  0.4557
 2815TIP3    H130080   2.196   3.403   6.531  1.0509 -1.2785  0.2956
 2815TIP3    H230081   2.226   3.463   6.667 -0.9857 -0.0337  0.2269
 2816TIP3   OH230082   6.241   6.864   1.386 -0.0371  0.0647  0.2215
 2816TIP3    H130083   6.276   6.776   1.397  0.3862  0.0836 -0.9214
 2816TIP3    H230084   6.152   6.850   1.353 -0.2083  0.0644  0.6709
 2817TIP3   OH230085   2.079   6.344   8.290  0.1202 -0.7102 -0.3320
 2817TIP3    H130086   1.988   6.351   8.262  0.0296 -2.1205 -0.4931
 2817TIP3    H230087   2.130   6.369   8.213 -0.0988  1.4010  0.1657
 2818TIP3   OH230088   3.671   2.295   2.480 -0.2861 -0.6233 -0.1121
 2818TIP3    H130089   3.577   2.279   2.490 -0.4183  0.5854  0.7905
 2818TIP3    H230090   3.713   2.222   2.527 -0.7980 -0.4764  0.5892
 2819TIP3   OH230091   1.265   4.952   1.040  0.4321 -0.4989  0.0161
 2819TIP3    H130092   1.315   4.987   0.967 -0.9396 -0.0647 -0.7607
 2819TIP3    H230093   1.245   5.029   1.094 -2.1586 -0.0462 -1.4299
 2820TIP3   OH230094   4.279   4.921   7.268 -0.2817 -0.4303  0.4592
 2820TIP3    H130095   4.190   4.944   7.297  0.4113  0.7239  1.7532
 2820TIP3    H230096   4.277   4.825   7.261 -1.9838 -0.3636 -0.8126
 2821TIP3   OH230097   2.895   1.515   1.630  0.4567  0.1920  0.2905
 2821TIP3    H130098   2.872   1.514   1.537  0.2779  2.0768  0.2764
 2821TIP3    H230099   2.824   1.564   1.672  0.4663 -0.7498  1.4619
 2822TIP3   OH230100   4.929   6.193   1.315 -0.3951 -0.0956  0.1901
 2822TIP3    H130101   4.938   6.099   1.334  0.7416 -0.2807 -1.0650
 2822TIP3    H230102   4.897   6.231   1.397 -1.1053 -1.6059  0.6586
 2823TIP3   OH230103   2.401   2.586   2.555  0.2063 -0.2388 -0.1706
 2823TIP3    H130104   2.382   2.501   2.595  0.1980 -0.0635  0.1987
 2823TIP3    H230105   2.386   2.572   2.462 -1.4467 -0.2181  0.0459
 2824TIP3   OH230106   4.143   0.031   8.320  1.0469  0.2494 -0.9589
 2824TIP3    H130107   4.164   0.114   8.363 -1.3731  0.4781 -0.0688
 2824TIP3    H230108   4.196  -0.034   8.366 -0.4491  0.6867  1.5356
 2825TIP3   OH230109   2.238   3.808   0.827  0.0660  0.5460  0.3265
 2825TIP3    H130110   2.250   3.900   0.803  0.0842  0.6446  0.7113
 2825TIP3    H230111   2.230   3.809   0.922  0.2725  0.1242  0.3477
 2826TIP3   OH230112   2.484   1.943   7.438  0.3851  0.0352 -0.3002
 2826TIP3    H130113   2.404   1.914   7.395 -0.3226  0.0218  0.9740
 2826TIP3    H230114   2.536   1.982   7.368 -1.0728  0.7562 -1.0361
 2827TIP3   OH230115   1.193   3.329   7.301 -0.5547 -0.1505  0.1693
 2827TIP3    H130116   1.198   3.305   7.208 -2.1475 -1.3968  0.3560
 2827TIP3    H230117   1.203   3.247   7.348  0.0173  0.4413  1.1082
 2828TIP3   OH230118   2.838   4.623   1.334 -0.2806 -0.7603  0.4601
 2828TIP3    H130119   2.874   4.551   1.281 -0.1531 -0.6725  0.4252
 2828TIP3    H230120   2.802   4.580   1.412 -0.0427 -0.8469  0.5244
 2829TIP3   OH230121   0.291   2.844   7.722 -0.0600  0.0669  0.0446
 2829TIP3    H130122   0.364   2.784   7.736  0.4326  1.2288  3.5310
 2829TIP3    H230123   0.217   2.804   7.768 -0.5290  0.7359 -0.0952
 2830TIP3   OH230124   0.155   2.783   1.009 -0.0245  0.0184  0.2650
 2830TIP3    H130125   0.064   2.758   0.990  0.0981 -1.4426  1.3933
 2830TIP3    H230126   0.206   2.737   0.943 -0.1365  1.8031 -1.1381
 2831TIP3   OH230127   3.857   6.010   0.775 -0.0836  0.6422 -0.5146
 2831TIP3    H130128   3.856   6.102   0.750 -0.4741  0.7063 -0.2771
 2831TIP3    H230129   3.793   5.968   0.717 -0.1327  0.5811 -0.4178
 2832TIP3   OH230130   0.960   2.707   7.213  0.5071 -0.1199 -0.8215
 2832TIP3    H130131   0.943   2.646   7.284 -1.6220  0.1894 -1.0009
 2832TIP3    H230132   1.006   2.655   7.147  0.5580 -0.9724 -0.1295
 2833TIP3   OH230133   2.411   5.951   1.500  0.3859  0.2846 -0.1770
 2833TIP3    H130134   2.397   5.874   1.555  0.2320  1.0452  0.8829
 2833TIP3    H230135   2.455   6.013   1.557 -1.7495  1.9371 -0.1827
 2834TIP3   OH230136   5.545   6.123   0.009 -0.0437  0.3045 -0.2720
 2834TIP3    H130137   5.535   6.069  -0.070 -3.9009  1.0364 -0.4948
 2834TIP3    H230138   5.552   6.059   0.080  1.1300 -0.3676 -0.9506
 2835TIP3   OH230139   5.965   6.534   7.331  0.4978 -0.2519  0.4282
 2835TIP3    H130140   5.902   6.506   7.264  0.0973  0.8289  0.3461
 2835TIP3    H230141   5.920   6.602   7.381  1.9695  1.3689 -0.3454
 2836TIP3   OH230142   1.551   0.347   7.238 -0.2843  0.4969  0.1400
 2836TIP3    H130143   1.596   0.329   7.155  0.9126  1.1716  0.6258
 2836TIP3    H230144   1.484   0.412   7.215 -0.3186  0.2839 -0.3899
 2837TIP3   OH230145   4.872   1.085   1.151 -0.0877  0.2191  0.0196
 2837TIP3    H130146   4.847   1.105   1.241 -2.6448  0.4590 -0.6615
 2837TIP3    H230147   4.967   1.072   1.154 -0.3113 -1.5361  3.0530
 2838TIP3   OH230148   4.484   2.788   1.205  0.3662  0.1075 -0.0146
 2838TIP3    H130149   4.562   2.831   1.241  1.1492 -1.3516  0.0804
 2838TIP3    H230150   4.477   2.706   1.253 -0.7953 -0.1342 -0.5618
 2839TIP3   OH230151   5.719   6.840   6.475 -0.3245 -0.2771  0.0620
 2839TIP3    H130152   5.776   6.874   6.406  0.2752 -0.4707  0.4538
 2839TIP3    H230153   5.772   6.846   6.555 -0.8208 -0.5496  0.4166
 2840TIP3   OH230154   4.554   5.587   6.638  0.4900  0.0546  0.7093
 2840TIP3    H130155   4.481   5.630   6.682  0.2449 -0.6254  0.9817
 2840TIP3    H230156   4.526   5.496   6.627  0.2821  0.3194 -1.4340
 2841TIP3   OH230157   0.821   6.022   0.055  0.0767  0.0987 -0.0558
 2841TIP3    H130158   0.876   5.944   0.052 -0.8738 -0.6871  1.6927
 2841TIP3    H230159   0.791   6.034  -0.035  0.8640 -1.0791 -0.4955
 2842TIP3   OH230160   3.625   2.051   8.189  0.0889 -0.2838 -0.4078
 2842TIP3    H130161   3.617   1.956   8.181  0.8527 -0.2291 -2.4186
 2842TIP3    H230162   3.580   2.072   8.271 -0.3891 -2.3237 -0.0884
 2843TIP3   OH230163   6.442   1.804   5.939 -0.2376 -0.3100  0.5210
 2843TIP3    H130164   6.451   1.758   6.023 -0.8423 -0.5533  0.4595
 2843TIP3    H230165   6.351   1.789   5.914 -0.7433  1.6687  0.9506
 2844TIP3   OH230166   0.821   6.120   7.846  0.2398 -0.2296 -0.4469
 2844TIP3    H130167   0.836   6.143   7.754 -1.4223 -1.8768 -1.2031
 2844TIP3    H230168   0.737   6.163   7.867 -1.0138 -2.4036 -0.7486
 2845TIP3   OH230169   5.397   0.364   0.593  0.6392  0.5972  0.2867
 2845TIP3    H130170   5.331   0.313   0.640  3.1590 -1.8410  1.4485
 2845TIP3    H230171   5.382   0.454   0.622 -0.6001 -0.2367  2.4845
 2846TIP3   OH230172   2.977   5.041   7.178  0.0707 -0.0661  0.5302
 2846TIP3    H130173   3.058   4.991   7.168  0.1202 -0.2069  1.5455
 2846TIP3    H230174   2.999   5.110   7.240 -0.1044  1.0097 -0.5670
 2847TIP3   OH230175   3.817   1.132   0.851 -0.3372  0.5544  0.0083
 2847TIP3    H130176   3.810   1.051   0.903  1.0293 -0.4404 -1.2604
 2847TIP3    H230177   3.743   1.128   0.791  0.0309 -0.0535 -0.4174
 2848TIP3   OH230178   1.486   4.909   1.621 -0.4561 -0.2330 -0.0779
 2848TIP3    H130179   1.457   4.951   1.540 -0.2487  0.8118  0.3746
 2848TIP3    H230180   1.465   4.972   1.690  0.7930 -0.4254  0.5058
 2849TIP3   OH230181   6.620   1.762   7.261 -0.4855  0.0506  0.3677
 2849TIP3    H130182   6.623   1.690   7.198 -0.3082 -0.0281  0.4648
 2849TIP3    H230183   6.542   1.812   7.237 -0.5434 -0.1074  0.2267
 2850TIP3   OH230184   4.555   5.570   7.063  0.3120  0.0208 -0.8217
 2850TIP3    H130185   4.505   5.490   7.077 -0.4124  0.3189 -1.6675
 2850TIP3    H230186   4.499   5.640   7.097  1.6280  0.0596  1.4833
 2851TIP3   OH230187   4.870   0.878   5.866 -0.7304 -0.1794  0.2226
 2851TIP3    H130188   4.869   0.949   5.802  0.9259 -0.5129 -0.2119
 2851TIP3    H230189   4.825   0.805   5.822 -2.2722  0.5036  0.6037
 2852TIP3   OH230190   0.579   6.265   6.419  0.1260  0.2711 -0.2118
 2852TIP3    H130191   0.607   6.333   6.356  1.2823  1.6251  1.6468
 2852TIP3    H230192   0.614   6.184   6.383  3.2905  1.3759 -0.0125
 2853TIP3   OH230193   4.451   0.610   0.154  0.5724  0.3165 -0.4033
 2853TIP3    H130194   4.372   0.635   0.107 -0.0289  1.2272  1.0163
 2853TIP3    H230195   4.424   0.538   0.210  1.4452 -1.2239 -1.8759
 2854TIP3   OH230196   6.296   3.950   1.681  0.3317  0.2288 -0.5112
 2854TIP3    H130197   6.387   3.940   1.709 -0.3798  1.4256  2.7938
 2854TIP3    H230198   6.296   4.029   1.627  1.3395 -0.1896 -1.1426
 2855TIP3   OH230199   2.263   2.321   7.771  0.2964 -0.1303  0.0653
 2855TIP3    H130200   2.346   2.359   7.798  0.7033 -1.8270  1.3505
 2855TIP3    H230201   2.197   2.382   7.803  0.9810  0.7339 -0.1168
 2856TIP3   OH230202   4.969   2.496   8.606 -0.2664  0.2726  0.4666
 2856TIP3    H130203   5.032   2.461   8.543  0.4409  0.3471  1.1161
 2856TIP3    H230204   5.018   2.562   8.655 -0.8516  0.3326  0.9839
 2857TIP3   OH230205   4.451   3.693   1.669 -0.1939  0.2047 -0.2729
 2857TIP3    H130206   4.539   3.719   1.696 -0.1980 -0.9293  0.8933
 2857TIP3    H230207   4.409   3.663   1.749 -0.9500 -1.2203 -1.1705
 2858TIP3   OH230208   0.013   4.939   8.097  0.1562 -0.3804 -0.3471
 2858TIP3    H130209   0.060   4.992   8.033  1.8409 -0.1033  1.0693
 2858TIP3    H230210  -0.032   4.872   8.044  0.6425  0.4587 -1.8798
 2859TIP3   OH230211   2.914   1.732   1.844  0.0959 -0.2141 -0.6170
 2859TIP3    H130212   2.835   1.682   1.867 -0.1141 -0.3386 -1.5597
 2859TIP3    H230213   2.946   1.765   1.928 -0.2453 -1.2098 -0.0704
 2860TIP3   OH230214   6.470   5.732   0.754 -0.0975 -0.0206 -0.1288
 2860TIP3    H130215   6.562   5.744   0.729 -0.8719  1.0175 -2.7433
 2860TIP3    H230216   6.468   5.750   0.848  1.9495  2.5234 -0.4797
 2861TIP3   OH230217   3.329   4.908   8.397 -0.1834  0.2229 -0.0834
 2861TIP3    H130218   3.234   4.920   8.400 -0.2023  0.2886 -0.7873
 2861TIP3    H230219   3.342   4.825   8.351  0.0860 -0.1595  0.6622
 2862TIP3   OH230220   4.525   6.260   1.792 -0.4749 -0.3332  0.1906
 2862TIP3    H130221   4.460   6.212   1.741 -1.0153  1.2420 -0.6847
 2862TIP3    H230222   4.592   6.284   1.728  0.0193 -0.3341  0.7025
 2863TIP3   OH230223   4.027   1.012   7.226 -0.1456 -0.3481 -0.1798
 2863TIP3    H130224   3.963   1.074   7.261 -3.3607 -2.3266 -2.1260
 2863TIP3    H230225   4.023   1.025   7.131  1.7164 -1.2108 -0.4189
 2864TIP3   OH230226   6.258   3.665   7.050  0.1341 -0.0187 -0.5781
 2864TIP3    H130227   6.306   3.623   6.979  2.1757  1.0478  0.0852
 2864TIP3    H230228   6.303   3.637   7.130 -0.7169  0.5851  0.1448
 2865TIP3   OH230229   6.675   3.551   1.719 -0.0551 -0.3120  0.0155
 2865TIP3    H130230   6.706   3.566   1.808 -1.0188  0.9415  0.1706
 2865TIP3    H230231   6.582   3.575   1.721  0.1924  1.0318 -1.6079
 2866TIP3   OH230232   4.105   0.697   6.400  0.3549 -0.0507  0.8051
 2866TIP3    H130233   4.136   0.613   6.365 -0.6505 -0.9886  2.1033
 2866TIP3    H230234   4.105   0.755   6.324  0.8119 -1.2832 -0.1828
 2867TIP3   OH230235   0.215   1.429   6.691 -0.3217  0.0710  0.5598
 2867TIP3    H130236   0.167   1.477   6.624 -0.4141  1.2180  1.4054
 2867TIP3    H230237   0.184   1.339   6.684 -1.7571  0.5606  0.3309
 2868TIP3   OH230238   5.785   0.387   0.482  0.8061  0.2315  0.0445
 2868TIP3    H130239   5.772   0.312   0.425 -1.7240  0.4390  0.2696
 2868TIP3    H230240   5.731   0.456   0.445  2.1602  1.6171  0.5119
 2869TIP3   OH230241   4.098   5.943   7.024 -0.8638 -0.2202 -0.0419
 2869TIP3    H130242   4.136   5.877   6.966 -1.7584 -0.3452 -0.5013
 2869TIP3    H230243   4.072   6.014   6.966 -1.0367  0.0047  0.3084
 2870TIP3   OH230244   3.954   2.782   0.625  0.3948 -0.3591 -0.1754
 2870TIP3    H130245   3.897   2.843   0.672 -0.4209  1.4360 -3.2360
 2870TIP3    H230246   4.028   2.768   0.683 -0.8963  1.0616  1.9316
 2871TIP3   OH230247   1.231   0.945   8.157 -0.1625 -0.4442  0.3231
 2871TIP3    H130248   1.299   0.985   8.211 -0.1838 -0.6427  0.5007
 2871TIP3    H230249   1.153   0.945   8.213 -1.0476  2.1563 -0.7573
 2872TIP3   OH230250   0.684   2.977   7.858 -0.1443 -0.5742 -0.5192
 2872TIP3    H130251   0.649   3.042   7.797  0.2851  0.7987  0.6599
 2872TIP3    H230252   0.612   2.958   7.918  0.1363 -0.1632 -0.0457
 2873TIP3   OH230253   3.145   5.529   0.001 -0.0925 -0.1955 -0.2806
 2873TIP3    H130254   3.124   5.439  -0.023  0.2934 -0.1184 -0.9279
 2873TIP3    H230255   3.075   5.554   0.062  0.6064 -1.4172  1.1010
 2874TIP3   OH230256   4.655   1.354   0.410  0.2543 -0.3977  0.1306
 2874TIP3    H130257   4.568   1.330   0.442  0.4154 -0.2766  0.6766
 2874TIP3    H230258   4.691   1.271   0.377 -0.6122 -0.1765 -1.4644
 2875TIP3   OH230259   3.200   2.465   0.778 -0.5433 -0.8067  0.0895
 2875TIP3    H130260   3.213   2.560   0.767  1.6426 -0.8978  1.3816
 2875TIP3    H230261   3.112   2.457   0.815 -0.3727  0.8104  0.9447
 2876TIP3   OH230262   0.292   6.552   0.777  0.3130 -0.0360  0.0258
 2876TIP3    H130263   0.373   6.574   0.731 -0.4965 -2.1669 -2.7177
 2876TIP3    H230264   0.238   6.630   0.767  0.5141 -0.0846 -2.0166
 2877TIP3   OH230265   3.147   2.368   8.484  0.3559  0.2927  0.1710
 2877TIP3    H130266   3.241   2.351   8.494  0.2225 -0.8957 -0.4302
 2877TIP3    H230267   3.131   2.359   8.390 -0.9644 -3.0098  0.5984
 2878TIP3   OH230268   6.719   0.798   7.105  0.2862 -0.7277 -0.0163
 2878TIP3    H130269   6.661   0.872   7.092  0.3365 -0.9260 -1.4934
 2878TIP3    H230270   6.667   0.736   7.156  0.0864  0.1060  0.8298
 2879TIP3   OH230271   1.893   4.056   7.562 -0.3929 -0.5549 -0.2282
 2879TIP3    H130272   1.925   4.136   7.520 -1.5506 -1.1152 -2.3547
 2879TIP3    H230273   1.960   3.990   7.542 -0.5370 -0.6239 -0.4958
 2880TIP3   OH230274   3.638   1.837   0.821 -0.2268  0.2254 -0.2255
 2880TIP3    H130275   3.697   1.775   0.864 -0.2624  0.7185  0.5557
 2880TIP3    H230276   3.567   1.783   0.788 -0.2527 -0.1602  0.4330
 2881TIP3   OH230277   5.991   6.445   8.534  0.5104  0.2904  0.0597
 2881TIP3    H130278   6.042   6.484   8.605  1.5383  1.9876 -1.5155
 2881TIP3    H230279   5.923   6.510   8.514  1.6800  1.0039 -1.9895
 2882TIP3   OH230280   6.816   4.910   8.354 -0.2033  0.1660  0.1264
 2882TIP3    H130281   6.852   4.939   8.270 -2.6001 -0.0470 -1.0622
 2882TIP3    H230282   6.774   4.827   8.335 -0.4673 -0.0820  1.6444
 2883TIP3   OH230283   3.775   2.085   7.510  0.2456 -0.7486  0.0495
 2883TIP3    H130284   3.787   2.130   7.426 -0.0212 -0.7341  0.0171
 2883TIP3    H230285   3.863   2.082   7.548  0.2809 -0.2796  0.0119
 2884TIP3   OH230286   4.026   0.147   7.937  0.3366 -0.2672  0.4369
 2884TIP3    H130287   4.032   0.102   7.853 -0.6881  0.2987  0.0445
 2884TIP3    H230288   3.947   0.201   7.931  0.3865 -0.0060  1.6633
 2885TIP3   OH230289   0.174   6.484   1.141 -0.3057  0.3503  0.2416
 2885TIP3    H130290   0.163   6.569   1.100  1.4352  0.9723  0.9200
 2885TIP3    H230291   0.086   6.456   1.165 -0.8715  2.2504  0.5365
 2886TIP3   OH230292   5.999   6.858   5.768 -0.4177  0.1027  0.6007
 2886TIP3    H130293   6.089   6.886   5.755 -1.9137  4.3011 -2.9414
 2886TIP3    H230294   5.985   6.865   5.863  2.5741  0.3692  1.1156
 2887TIP3   OH230295   0.172   6.255   6.693  0.1326  0.2114  0.0708
 2887TIP3    H130296   0.137   6.256   6.605 -3.0991 -2.7640  1.1241
 2887TIP3    H230297   0.247   6.196   6.689 -0.7392 -0.8801 -0.5049
 2888TIP3   OH230298   5.596   3.013   6.650  0.6032 -0.4923 -0.2527
 2888TIP3    H130299   5.583   2.919   6.641  2.3404 -0.7737 -0.1395
 2888TIP3    H230300   5.645   3.038   6.571  1.7325 -0.0385  0.5657
 2889TIP3   OH230301   4.486   4.447   7.070 -0.3759  0.2525  0.1316
 2889TIP3    H130302   4.496   4.400   7.153 -1.9033  0.5334  0.5076
 2889TIP3    H230303   4.576   4.463   7.041  0.2606  1.3527  2.4131
 2890TIP3   OH230304   6.667   0.076   1.442  0.4192  0.7294  0.8146
 2890TIP3    H130305   6.597   0.057   1.504  0.4781  0.3631  0.7688
 2890TIP3    H230306   6.640   0.157   1.399 -2.5413 -1.9518 -2.9313
 2891TIP3   OH230307   4.311   2.082   8.181  0.1781 -0.0160  0.6781
 2891TIP3    H130308   4.304   2.120   8.094  2.2706  0.6274  0.7326
 2891TIP3    H230309   4.313   1.988   8.166  1.3384  0.1126 -0.0702
 2892TIP3   OH230310   6.674   5.585   6.678 -0.8094 -0.5031 -1.1112
 2892TIP3    H130311   6.691   5.558   6.588 -1.1795 -0.4940 -1.1882
 2892TIP3    H230312   6.759   5.611   6.713 -0.8452  0.7918 -1.8969
 2893TIP3   OH230313   1.528   1.063   1.895  0.6796  0.0373  0.0749
 2893TIP3    H130314   1.622   1.052   1.882  0.8184  0.0988  0.9562
 2893TIP3    H230315   1.517   1.063   1.990 -0.1285  0.7825 -0.0077
 2894TIP3   OH230316   4.943   0.165   0.361  0.0015  0.0393 -0.2227
 2894TIP3    H130317   5.007   0.129   0.300 -0.1081 -1.8764  0.7081
 2894TIP3    H230318   4.980   0.149   0.448 -1.2470 -0.1582  0.3028
 2895TIP3   OH230319   2.049   0.062   0.773 -0.0610  0.6554 -0.1789
 2895TIP3    H130320   2.115   0.112   0.821  0.8068  0.3408 -1.0265
 2895TIP3    H230321   2.099   0.006   0.714 -1.0670 -0.1974 -0.2441
 2896TIP3   OH230322   1.349   4.623   1.618 -0.2385 -0.7368 -0.0904
 2896TIP3    H130323   1.418   4.607   1.682 -0.4768  1.0267  0.6858
 2896TIP3    H230324   1.343   4.542   1.568  1.3198 -1.4717  0.8277
 2897TIP3   OH230325   4.225   3.892   2.207  0.2873 -1.0355 -0.6434
 2897TIP3    H130326   4.258   3.923   2.292  0.2144 -0.7767 -0.7068
 2897TIP3    H230327   4.250   3.962   2.146 -0.6897 -0.6657 -0.6307
 2898TIP3   OH230328   5.904   4.603   7.821 -0.1449  0.0467 -0.4699
 2898TIP3    H130329   5.988   4.562   7.841  0.3212  1.2976  0.2940
 2898TIP3    H230330   5.857   4.605   7.904 -0.6580 -0.0217 -0.7503
 2899TIP3   OH230331   4.563   6.784   8.211  0.4061 -0.1594  0.1689
 2899TIP3    H130332   4.611   6.849   8.263 -0.8280  2.3401 -1.6404
 2899TIP3    H230333   4.471   6.800   8.232  0.0878 -1.8966  0.2442
 2900TIP3   OH230334   4.821   2.192   7.491  0.3890  0.0838 -0.5248
 2900TIP3    H130335   4.773   2.161   7.414 -0.6715 -0.2356  0.2413
 2900TIP3    H230336   4.842   2.112   7.539  0.1422  0.3447  0.0231
 2901TIP3   OH230337   6.557   4.012   6.749  0.0377 -0.1153 -0.6621
 2901TIP3    H130338   6.521   3.924   6.752 -0.2881 -0.0101 -1.3505
 2901TIP3    H230339   6.567   4.037   6.841 -0.6641 -0.5424 -0.4635
 2902TIP3   OH230340   3.373   5.691   0.076 -0.1577  0.0409 -0.1815
 2902TIP3    H130341   3.297   5.636   0.054 -0.5695  0.7723 -0.6215
 2902TIP3    H230342   3.404   5.655   0.159  0.3712 -1.6724 -1.0673
 2903TIP3   OH230343   5.106   5.860   8.589 -0.3968  0.3784 -0.6047
 2903TIP3    H130344   5.051   5.798   8.542 -0.2446 -0.4019  0.2172
 2903TIP3    H230345   5.063   5.871   8.674  0.9396 -0.6597  0.2693
 2904TIP3   OH230346   1.355   0.816   0.170  0.5204 -0.0302 -0.2008
 2904TIP3    H130347   1.376   0.745   0.110  2.6449  0.3297  0.0519
 2904TIP3    H230348   1.387   0.786   0.255 -0.2231  0.4939  0.2777
 2905TIP3   OH230349   3.330   3.165   1.725 -0.0980  0.6453 -0.4106
 2905TIP3    H130350   3.340   3.097   1.792 -0.1768  1.6920  0.6909
 2905TIP3    H230351   3.380   3.132   1.650  1.2450  0.1145  0.6695
 2906TIP3   OH230352   0.269   4.020   8.418 -0.5527  0.2223  0.6201
 2906TIP3    H130353   0.253   4.001   8.511 -0.9299 -0.2189  0.4646
 2906TIP3    H230354   0.199   4.081   8.394 -0.8868 -0.2274  0.4392
 2907TIP3   OH230355   0.262   3.908   6.360  0.1177  0.0360  0.2341
 2907TIP3    H130356   0.278   4.001   6.375 -0.8371  0.2103  0.1941
 2907TIP3    H230357   0.336   3.880   6.306  0.3915  0.7732  0.2134
 2908TIP3   OH230358   4.352   0.605   6.182  0.0291 -0.1468  0.1366
 2908TIP3    H130359   4.328   0.698   6.184  0.0534 -0.1480  2.3391
 2908TIP3    H230360   4.269   0.558   6.178  0.0381 -0.0790 -2.5646
 2909TIP3   OH230361   5.478   0.510   1.567  0.4126 -0.9440 -0.0586
 2909TIP3    H130362   5.417   0.437   1.556 -1.3253  0.5267 -0.6328
 2909TIP3    H230363   5.543   0.497   1.499 -0.8533 -1.0524 -1.3017
 2910TIP3   OH230364   3.867   1.760   7.381 -0.1133  0.4319 -0.0605
 2910TIP3    H130365   3.935   1.799   7.437  1.9130 -2.4347 -0.3291
 2910TIP3    H230366   3.909   1.751   7.296 -1.7574  0.9040 -0.9534
 2911TIP3   OH230367   1.286   0.128   1.813 -0.3341  0.2160 -0.3285
 2911TIP3    H130368   1.380   0.125   1.831 -0.1422  1.1975 -1.0382
 2911TIP3    H230369   1.277   0.093   1.724 -0.6939 -0.3246 -0.0786
 2912TIP3   OH230370   5.190   4.194   0.376 -0.3333 -0.1372  0.5206
 2912TIP3    H130371   5.109   4.223   0.333 -0.7486 -0.2941  1.1865
 2912TIP3    H230372   5.173   4.206   0.469 -0.2638 -1.8694  0.7741
 2913TIP3   OH230373   3.117   5.556   2.329 -0.6002 -0.2774 -0.2984
 2913TIP3    H130374   3.106   5.474   2.281 -0.7152  0.6532 -1.9710
 2913TIP3    H230375   3.033   5.571   2.372 -0.8122 -0.6892 -0.5677
 2914TIP3   OH230376   3.556   2.958   0.040 -0.4731 -0.0241 -0.2626
 2914TIP3    H130377   3.514   2.883   0.082  0.5993 -0.9679 -0.8275
 2914TIP3    H230378   3.643   2.927   0.016  0.3944  1.7423  0.4525
 2915TIP3   OH230379   6.812   5.998   6.759  0.2503  0.5723  0.4012
 2915TIP3    H130380   6.728   6.030   6.726  0.9497  1.5393 -0.4971
 2915TIP3    H230381   6.877   6.033   6.698  1.3772  0.4386  1.4861
 2916TIP3   OH230382   5.902   2.506   1.760 -0.0727  0.6817 -0.9019
 2916TIP3    H130383   5.876   2.418   1.788 -0.7473  1.0184 -0.4646
 2916TIP3    H230384   5.997   2.500   1.750  0.1868  0.4969  1.2510
 2917TIP3   OH230385   4.092   5.340   0.404 -0.1275  0.0408 -0.2562
 2917TIP3    H130386   4.133   5.295   0.478  1.8422  0.1700 -1.2174
 2917TIP3    H230387   4.089   5.274   0.335  0.3310  0.6117 -0.8324
 2918TIP3   OH230388   0.644   2.589   8.379 -0.0576 -0.3598  0.5072
 2918TIP3    H130389   0.727   2.624   8.412 -0.1773  0.4249  0.0104
 2918TIP3    H230390   0.585   2.664   8.379 -0.4972 -0.6959 -0.0474
 2919TIP3   OH230391   1.545   6.530   8.296 -0.5142  0.7377  0.2213
 2919TIP3    H130392   1.598   6.472   8.351 -0.8189  0.7642  0.5453
 2919TIP3    H230393   1.495   6.582   8.358 -1.2409  0.4218 -0.0909
 2920TIP3   OH230394   2.766   2.459   7.177 -0.3621  0.0252  0.4721
 2920TIP3    H130395   2.723   2.390   7.227 -1.2350 -0.3814 -0.7824
 2920TIP3    H230396   2.833   2.414   7.125  1.8232  0.6749  2.5422
 2921TIP3   OH230397   2.109   0.943   6.962 -0.4220  0.1029  0.2556
 2921TIP3    H130398   2.203   0.936   6.979 -0.6281 -1.1825  0.9627
 2921TIP3    H230399   2.067   0.908   7.041 -1.5476  2.5449  0.8486
 2922TIP3   OH230400   1.477   4.341   0.731  0.6979  0.5070 -0.2913
 2922TIP3    H130401   1.453   4.433   0.737  1.0184  0.5017  2.0331
 2922TIP3    H230402   1.550   4.331   0.791 -0.6712 -1.6528  1.1605
 2923TIP3   OH230403   4.073   2.949   8.295 -0.2660  0.3474  0.2564
 2923TIP3    H130404   4.139   2.945   8.364 -0.2723  0.0926  0.2506
 2923TIP3    H230405   4.050   3.041   8.288  0.9320  0.6062 -0.5506
 2924TIP3   OH230406   6.433   3.940   0.484 -0.1942 -0.7183 -0.1285
 2924TIP3    H130407   6.376   3.893   0.423 -1.4276  0.6489 -0.0768
 2924TIP3    H230408   6.514   3.952   0.435 -0.5051 -1.2946 -0.8050
 2925TIP3   OH230409   2.751   0.236   0.491 -0.3472  0.1997  0.1035
 2925TIP3    H130410   2.775   0.328   0.496 -1.8063  0.6432 -0.5415
 2925TIP3    H230411   2.745   0.218   0.397 -2.3316  0.0841  0.2277
 2926TIP3   OH230412   2.551   4.677   7.664  0.5297 -0.2873  0.8408
 2926TIP3    H130413   2.568   4.626   7.743  1.9350 -1.3021 -0.0628
 2926TIP3    H230414   2.467   4.644   7.632  1.1445 -1.6946  0.5769
 2927TIP3   OH230415   4.543   5.641   7.735 -0.0308 -0.1856  0.3744
 2927TIP3    H130416   4.508   5.716   7.688  0.4660 -0.8634 -1.1799
 2927TIP3    H230417   4.633   5.665   7.756  0.4379 -0.6591 -0.9709
 2928TIP3   OH230418   6.706   0.356   1.541  0.2478  0.3144 -0.3369
 2928TIP3    H130419   6.655   0.400   1.609  1.2732  0.7743  0.1543
 2928TIP3    H230420   6.645   0.348   1.467 -0.8580 -0.1208  0.5841
 2929TIP3   OH230421   2.339   4.898   2.318  0.0623  0.1228 -0.2320
 2929TIP3    H130422   2.412   4.958   2.303 -0.9837  1.3434 -0.6400
 2929TIP3    H230423   2.378   4.823   2.364  1.7525  0.2510 -1.3576
 2930TIP3   OH230424   4.574   6.424   7.534  0.2710 -0.0293  0.2361
 2930TIP3    H130425   4.542   6.511   7.555  1.4641  0.0075  2.1613
 2930TIP3    H230426   4.609   6.432   7.445  0.7063  1.5766  0.5138
 2931TIP3   OH230427   1.297   6.095   1.022 -0.8592  0.4103  0.4442
 2931TIP3    H130428   1.385   6.116   1.053  0.3859 -1.6939 -1.3382
 2931TIP3    H230429   1.294   6.131   0.933 -1.3958 -0.3888  0.1233
 2932TIP3   OH230430   3.206   4.925   7.099  0.4361  0.0180  0.5208
 2932TIP3    H130431   3.258   4.987   7.150  0.5908 -0.8339  1.4493
 2932TIP3    H230432   3.224   4.947   7.008  1.6715  0.3600  0.8286
 2933TIP3   OH230433   3.650   0.921   1.016  0.2554 -0.1942  0.4096
 2933TIP3    H130434   3.670   0.955   1.103 -1.9115 -0.7708  1.1916
 2933TIP3    H230435   3.618   0.998   0.968 -1.3706 -0.3841  1.1054
 2934TIP3   OH230436   6.131   3.029   7.473  0.0323 -0.2928  0.4759
 2934TIP3    H130437   6.195   2.963   7.500  0.3229 -0.2604 -0.1167
 2934TIP3    H230438   6.097   2.996   7.390  0.5454  0.5463 -0.0744
 2935TIP3   OH230439   3.436   2.391   8.594  0.4734 -0.0437 -0.5609
 2935TIP3    H130440   3.426   2.480   8.628 -0.5344 -0.0191 -0.8753
 2935TIP3    H230441   3.488   2.346   8.660  0.8273  0.7244 -0.3017
 2936TIP3   OH230442   4.526   1.969   7.906 -0.1367 -0.4465  0.2663
 2936TIP3    H130443   4.543   1.897   7.846  0.0743  0.3945 -0.7024
 2936TIP3    H230444   4.605   2.023   7.902 -1.1639  1.0345 -0.7423
 2937TIP3   OH230445   4.871   5.367   0.581  0.1155 -0.2127  0.9455
 2937TIP3    H130446   4.928   5.430   0.538 -0.9969  0.4186  0.3280
 2937TIP3    H230447   4.883   5.286   0.531 -1.4410  0.6036 -0.8983
 2938TIP3   OH230448   0.037   2.763   1.297 -0.2875  0.1369  0.1136
 2938TIP3    H130449   0.097   2.713   1.352 -0.2951  0.4214  0.3828
 2938TIP3    H230450  -0.025   2.698   1.263 -0.6020  0.0457  0.8623
 2939TIP3   OH230451   0.815   2.146   6.737 -0.7329 -0.4672  0.1790
 2939TIP3    H130452   0.760   2.205   6.686 -0.7674  1.0934  1.9215
 2939TIP3    H230453   0.904   2.176   6.722 -0.8219  0.8288  1.9293
 2940TIP3   OH230454   3.586   6.267   7.666 -0.0416 -0.5530  0.3220
 2940TIP3    H130455   3.661   6.221   7.706  0.1381 -1.0492 -0.5454
 2940TIP3    H230456   3.603   6.261   7.572 -0.6768  0.2034  0.1555
 2941TIP3   OH230457   1.132   0.053   0.279 -0.0476  0.3643  0.3840
 2941TIP3    H130458   1.224   0.046   0.253 -0.4273  0.8277 -1.2206
 2941TIP3    H230459   1.134   0.097   0.364  1.2350 -0.2596  0.6998
 2942TIP3   OH230460   5.452   5.948   0.504 -0.1541 -0.1603 -0.0464
 2942TIP3    H130461   5.377   5.916   0.455 -0.2840  1.4908 -1.0011
 2942TIP3    H230462   5.517   5.968   0.437  0.8872 -0.8506  0.7125
 2943TIP3   OH230463   0.248   1.325   0.023 -0.0076 -0.4522 -0.2319
 2943TIP3    H130464   0.194   1.333   0.101  1.1247 -0.6110  0.5881
 2943TIP3    H230465   0.337   1.321   0.056  0.8220  2.8505 -1.6491
 2944TIP3   OH230466   6.439   3.765   6.771 -0.2238  0.0850 -0.0033
 2944TIP3    H130467   6.438   3.683   6.822  1.8017 -0.1005 -0.2015
 2944TIP3    H230468   6.375   3.749   6.701 -2.1744 -0.1103  1.7000
 2945TIP3   OH230469   5.391   6.557   0.677  0.7696 -0.2146  0.1992
 2945TIP3    H130470   5.386   6.536   0.584 -0.2435 -1.0890  0.4297
 2945TIP3    H230471   5.461   6.501   0.711 -0.0278 -1.1907  0.2754
 2946TIP3   OH230472   2.625   5.647   6.904 -0.2236  0.1842 -0.2383
 2946TIP3    H130473   2.543   5.659   6.952 -0.6132  0.0971 -0.8596
 2946TIP3    H230474   2.597   5.611   6.819  0.6439 -1.9786  0.3468
 2947TIP3   OH230475   5.154   2.803   1.749  0.2571 -0.2394 -0.1588
 2947TIP3    H130476   5.104   2.846   1.679 -1.4007 -1.0877  0.4513
 2947TIP3    H230477   5.205   2.873   1.789  0.1338  0.5196 -1.2963
 2948TIP3   OH230478   5.657   2.336   7.728 -0.4920  0.7292  0.6472
 2948TIP3    H130479   5.739   2.386   7.739 -0.0932  0.2879 -0.2580
 2948TIP3    H230480   5.601   2.392   7.675 -0.5315  0.7541  0.7147
 2949TIP3   OH230481   3.198   3.040   8.257 -0.3873  0.2922 -0.3234
 2949TIP3    H130482   3.235   3.043   8.345 -0.8374  1.4941 -0.1470
 2949TIP3    H230483   3.134   2.969   8.259 -1.7396  1.4892  0.9003
 2950TIP3   OH230484   2.165   3.281   1.510 -0.6439  0.3175  0.3719
 2950TIP3    H130485   2.174   3.227   1.431 -2.9357 -0.6690  0.7021
 2950TIP3    H230486   2.099   3.346   1.487  0.4420  1.5869  0.7295
 2951TIP3   OH230487   1.081   2.280   7.203 -0.1714  0.4652 -0.2973
 2951TIP3    H130488   1.040   2.271   7.117 -0.2412  3.3092 -0.6404
 2951TIP3    H230489   1.032   2.220   7.259 -0.3604 -1.1966 -2.1047
 2952TIP3   OH230490   1.283   0.360   6.984  0.5329 -0.1286  0.2977
 2952TIP3    H130491   1.227   0.435   6.968  1.5292  0.0222 -3.5477
 2952TIP3    H230492   1.253   0.293   6.922  1.7935 -1.6812  1.2558
 2953TIP3   OH230493   0.396   1.882   1.695  0.0357  0.0313 -1.1460
 2953TIP3    H130494   0.345   1.946   1.646 -0.7537  0.1979 -0.1479
 2953TIP3    H230495   0.331   1.823   1.733  0.6059 -0.0704 -0.2832
 2954TIP3   OH230496   3.915   1.463   7.550  0.1714 -0.1814  0.1634
 2954TIP3    H130497   3.831   1.466   7.506 -0.1854 -0.1832  0.8247
 2954TIP3    H230498   3.979   1.447   7.481 -0.5681 -2.2793 -0.1020
 2955TIP3   OH230499   5.536   2.039   7.189  0.3387  0.2431  0.1165
 2955TIP3    H130500   5.584   2.117   7.215 -0.5779  1.2106 -0.9624
 2955TIP3    H230501   5.488   2.065   7.110  0.7900 -1.6985 -0.8834
 2956TIP3   OH230502   4.750   1.880   6.499 -0.0263  0.2697  0.3968
 2956TIP3    H130503   4.826   1.937   6.486  0.4135 -0.5084 -0.5417
 2956TIP3    H230504   4.716   1.865   6.411  0.4285 -1.6664  0.5085
 2957TIP3   OH230505   1.959   0.591   6.219 -0.5968  0.4043 -0.9365
 2957TIP3    H130506   1.892   0.540   6.265  0.2760 -0.2994 -0.4158
 2957TIP3    H230507   1.911   0.638   6.151 -1.7691  0.6490  0.0261
 2958TIP3   OH230508   5.200   2.963   1.107 -0.6020  0.3817  0.1647
 2958TIP3    H130509   5.167   2.972   1.196  0.5599 -0.2461  0.6741
 2958TIP3    H230510   5.142   3.018   1.054 -2.9932 -1.2914  0.8644
 2959TIP3   OH230511   0.668   5.630   1.754  0.0272  0.2223 -0.1576
 2959TIP3    H130512   0.742   5.688   1.766 -0.4158  0.5002  1.4398
 2959TIP3    H230513   0.604   5.658   1.820 -1.2173 -0.4457 -1.0408
 2960TIP3   OH230514   2.369   6.429   7.274 -0.4087  1.2156 -0.3494
 2960TIP3    H130515   2.403   6.514   7.304  2.0257 -0.1156  0.9528
 2960TIP3    H230516   2.387   6.369   7.346 -1.5842 -0.5533 -1.4597
 2961TIP3   OH230517   0.209   2.327   7.507  0.4771  0.4578 -0.0803
 2961TIP3    H130518   0.170   2.414   7.511  0.9342  0.6182  1.3528
 2961TIP3    H230519   0.232   2.315   7.415 -1.8987  0.8065 -0.8021
 2962TIP3   OH230520   0.432   3.605   0.644 -0.3486  0.0255 -0.4508
 2962TIP3    H130521   0.357   3.638   0.694 -1.2672 -0.1656 -1.6520
 2962TIP3    H230522   0.422   3.510   0.647  0.8781 -0.0998  0.8773
 2963TIP3   OH230523   5.443   5.111   1.725  0.6590  0.1465  0.4056
 2963TIP3    H130524   5.473   5.161   1.650 -0.7588 -0.4935 -0.6364
 2963TIP3    H230525   5.503   5.036   1.730 -0.3725 -0.8655 -1.3559
 2964TIP3   OH230526   2.704   4.887   7.718 -0.3553 -0.3496 -0.0685
 2964TIP3    H130527   2.643   4.821   7.688 -1.4645  0.9314 -0.7489
 2964TIP3    H230528   2.658   4.932   7.789 -1.2658  2.1298 -2.0571
 2965TIP3   OH230529   2.954   3.869   6.711  0.2173 -0.3352  0.4633
 2965TIP3    H130530   3.019   3.799   6.715  0.6834  0.1019  0.6931
 2965TIP3    H230531   2.994   3.935   6.654 -0.4731 -0.5069 -0.2420
 2966TIP3   OH230532   6.078   2.944   7.959  0.1206 -0.1135 -0.2026
 2966TIP3    H130533   6.045   2.951   7.870  0.4076 -0.4800 -0.3404
 2966TIP3    H230534   6.056   2.856   7.987 -0.0655  0.0349  0.1337
 2967TIP3   OH230535   5.250   6.107   8.175  0.0750  0.2782  0.4075
 2967TIP3    H130536   5.186   6.128   8.243 -0.4776  1.4843 -0.4521
 2967TIP3    H230537   5.202   6.116   8.093  0.6210 -1.5385 -0.1614
 2968TIP3   OH230538   4.398   2.666   1.910  0.2384  0.2410  0.4106
 2968TIP3    H130539   4.489   2.656   1.938  0.2461  0.9708  0.6722
 2968TIP3    H230540   4.403   2.706   1.824  0.2032 -1.6259 -0.4999
 2969TIP3   OH230541   2.016   4.127   0.219 -0.1654  0.1144 -0.2270
 2969TIP3    H130542   2.049   4.084   0.298  0.4849 -2.3102 -1.6975
 2969TIP3    H230543   2.068   4.207   0.212 -0.1083  0.2967  1.6562
 2970TIP3   OH230544   4.432   3.654   7.452  0.5125  0.4003 -0.4087
 2970TIP3    H130545   4.494   3.647   7.380 -0.4341  1.3495 -1.3661
 2970TIP3    H230546   4.363   3.591   7.430  1.0569 -0.5650  0.5827
 2971TIP3   OH230547   0.493   1.784   7.016  1.3803  0.2094  0.1495
 2971TIP3    H130548   0.415   1.833   7.042  2.4492  1.2712  1.4511
 2971TIP3    H230549   0.463   1.729   6.944 -0.4473  0.9724  0.2753
 2972TIP3   OH230550   6.702   0.048   7.522 -0.3541  0.1338  0.5325
 2972TIP3    H130551   6.738   0.120   7.470 -2.2620 -0.9788 -2.6234
 2972TIP3    H230552   6.663   0.091   7.599  1.5167  2.0373  0.5013
 2973TIP3   OH230553   4.128   0.091   0.019  0.5917  0.0756  0.1937
 2973TIP3    H130554   4.197   0.038   0.060  1.1622  1.7831  1.5531
 2973TIP3    H230555   4.169   0.129  -0.058  0.4815 -0.6310 -0.2242
 2974TIP3   OH230556   6.046   5.559   1.360  0.1584 -0.3908  0.0295
 2974TIP3    H130557   6.048   5.636   1.304 -0.3339 -0.6697 -0.3840
 2974TIP3    H230558   6.105   5.497   1.318 -0.1785 -0.5852 -0.1595
 2975TIP3   OH230559   2.516   4.883   1.548 -0.2757 -0.0453 -0.3854
 2975TIP3    H130560   2.499   4.969   1.586  1.2443  0.4493 -0.7727
 2975TIP3    H230561   2.562   4.835   1.617 -1.1818 -0.5994 -0.1436
 2976TIP3   OH230562   3.699   0.938   0.653 -0.1748  0.6426 -0.2913
 2976TIP3    H130563   3.750   0.997   0.598 -1.0132  0.6981 -1.0348
 2976TIP3    H230564   3.608   0.959   0.633 -0.4955 -0.9073 -0.5677
 2977TIP3   OH230565   3.263   6.429   0.393 -0.4815 -0.1589 -0.6549
 2977TIP3    H130566   3.214   6.394   0.318 -0.1928  0.7643 -1.3058
 2977TIP3    H230567   3.302   6.353   0.434 -2.1423 -0.8932 -0.3428
 2978TIP3   OH230568   6.251   3.936   6.998 -0.1854  0.5665 -0.3776
 2978TIP3    H130569   6.156   3.942   7.005 -0.3500  1.0991 -2.3304
 2978TIP3    H230570   6.270   3.843   7.005 -0.8771  0.4338 -0.1924
 2979TIP3   OH230571   4.099   2.930   7.064  0.1711  0.2731 -0.0674
 2979TIP3    H130572   4.058   2.895   6.985 -0.6479  0.6445  0.1764
 2979TIP3    H230573   4.060   2.879   7.136  1.5409 -0.6516  0.0609
 2980TIP3   OH230574   6.225   5.031   0.172 -0.1964 -0.0290 -0.1215
 2980TIP3    H130575   6.239   4.986   0.089 -0.2212 -1.2686  0.5189
 2980TIP3    H230576   6.130   5.030   0.185 -0.3413  1.5686 -0.8038
 2981TIP3   OH230577   2.325   0.297   0.349  0.3731 -0.5581 -0.4455
 2981TIP3    H130578   2.403   0.297   0.294  2.3468 -1.0439  2.1259
 2981TIP3    H230579   2.309   0.204   0.369 -0.4091 -0.4091 -0.3199
 2982TIP3   OH230580   6.807   5.976   1.797  0.5658 -0.3077  0.4871
 2982TIP3    H130581   6.888   6.010   1.760  0.9782 -1.1134  0.6326
 2982TIP3    H230582   6.816   5.881   1.792 -0.3629 -0.4067  0.5217
 2983TIP3   OH230583   4.870   0.711   1.545  0.6329 -0.0071  0.1168
 2983TIP3    H130584   4.834   0.775   1.483  1.7560 -0.0983 -0.6499
 2983TIP3    H230585   4.850   0.748   1.631 -0.6412  0.2962 -0.2849
 2984TIP3   OH230586   5.337   6.793   1.218  0.5704 -0.3438 -0.4458
 2984TIP3    H130587   5.323   6.870   1.274 -1.7210 -1.4705  0.6415
 2984TIP3    H230588   5.322   6.718   1.276  0.4153 -1.5940 -2.0346
 2985TIP3   OH230589   5.006   0.140   6.980  0.2592  0.1382 -0.0111
 2985TIP3    H130590   5.012   0.226   6.938  0.7283  0.0283 -0.1797
 2985TIP3    H230591   4.913   0.118   6.977  0.2151  0.3738 -0.5001
 2986TIP3   OH230592   1.143   4.404   7.637 -0.2330 -0.2385 -0.0530
 2986TIP3    H130593   1.147   4.411   7.733 -1.4938 -1.6325  0.1392
 2986TIP3    H230594   1.058   4.363   7.620 -0.6222  1.2102 -1.8648
 2987TIP3   OH230595   6.778   1.460   5.922  0.2365  0.3007  0.4112
 2987TIP3    H130596   6.845   1.414   5.872 -2.3377 -2.2317 -0.9524
 2987TIP3    H230597   6.720   1.498   5.856 -0.0545  1.9529  1.5513
 2988TIP3   OH230598   0.437   1.536   1.689  0.2223  0.7901 -0.0069
 2988TIP3    H130599   0.378   1.557   1.617 -0.0119 -1.8553 -0.6761
 2988TIP3    H230600   0.500   1.474   1.652  1.4284  1.0418  1.5284
 2989TIP3   OH230601   1.303   4.830   1.812  0.1506  0.1587 -1.1274
 2989TIP3    H130602   1.376   4.840   1.873 -0.8504  0.5072  0.0576
 2989TIP3    H230603   1.342   4.793   1.733  1.9629  2.1486 -1.2668
 2990TIP3   OH230604   2.675   4.177   7.147  0.3290  0.4748  0.2966
 2990TIP3    H130605   2.635   4.181   7.234  1.7207 -0.8044  1.0462
 2990TIP3    H230606   2.732   4.255   7.144  0.4084  0.4326  0.6128
 2991TIP3   OH230607   2.033   6.561   7.996 -0.7830 -0.0146  0.3423
 2991TIP3    H130608   2.009   6.469   7.984 -2.0792  0.5155 -1.4972
 2991TIP3    H230609   2.119   6.569   7.956 -1.0574 -0.2534 -0.3070
 2992TIP3   OH230610   2.052   6.226   2.255 -0.3967 -0.3080 -0.8535
 2992TIP3    H130611   1.970   6.246   2.300 -0.0756  0.7457 -0.7005
 2992TIP3    H230612   2.119   6.231   2.324 -0.0658 -0.0056 -1.1926
 2993TIP3   OH230613   4.942   6.874   0.833 -0.4681  0.6584 -0.0103
 2993TIP3    H130614   4.934   6.782   0.807  1.6086  0.8960 -1.7554
 2993TIP3    H230615   4.978   6.870   0.922  0.4643 -0.2260 -0.4101
 2994TIP3   OH230616   3.348   5.076   7.886  0.5473  0.0874  0.1449
 2994TIP3    H130617   3.437   5.072   7.921  1.2463  0.5627 -1.4796
 2994TIP3    H230618   3.320   4.984   7.880  1.8895 -0.2582 -1.5945
 2995TIP3   OH230619   6.698   0.956   0.877 -0.7585  0.1133  0.3607
 2995TIP3    H130620   6.684   0.882   0.935 -2.0115  0.9619  1.1887
 2995TIP3    H230621   6.749   1.018   0.929  1.4726 -0.6552 -0.7744
 2996TIP3   OH230622   1.594   4.237   7.532  0.3931 -0.0976  0.0860
 2996TIP3    H130623   1.625   4.158   7.487  1.0804  0.5665 -0.6264
 2996TIP3    H230624   1.524   4.205   7.589  1.2356 -1.3722  0.4718
 2997TIP3   OH230625   4.547   5.724   0.870  0.2607 -0.5063 -0.1246
 2997TIP3    H130626   4.618   5.785   0.888  0.2407 -0.7702  0.8941
 2997TIP3    H230627   4.571   5.644   0.917 -0.2551 -0.9187 -0.5394
 2998TIP3   OH230628   1.156   2.075   1.802 -0.4306  0.1469  0.5640
 2998TIP3    H130629   1.152   2.133   1.877 -1.7388  1.2365 -0.2999
 2998TIP3    H230630   1.229   2.109   1.750 -0.4323  0.2773  0.6464
 2999TIP3   OH230631   0.090   4.157   7.390  0.1458  0.1305 -0.3219
 2999TIP3    H130632   0.100   4.062   7.380 -1.6223 -0.4235  2.2626
 2999TIP3    H230633   0.179   4.189   7.406  0.4097 -1.6545  2.2958
 3000TIP3   OH230634   6.575   5.252   6.683  0.2126 -0.6111  0.1330
 3000TIP3    H130635   6.538   5.282   6.766 -1.1490 -0.7512 -0.4050
 3000TIP3    H230636   6.591   5.159   6.696 -1.0605 -0.8777 -0.1183
 3001TIP3   OH230637   6.011   5.074   8.149  0.3227 -0.7578  0.4018
 3001TIP3    H130638   6.012   5.095   8.242 -2.0733 -1.0570  0.5428
 3001TIP3    H230639   6.046   4.985   8.144 -0.5359 -1.1546  1.1605
 3002TIP3   OH230640   2.830   3.623   2.156  0.1228  0.2671 -0.4676
 3002TIP3    H130641   2.743   3.588   2.135 -0.8692  2.0730  0.3747
 3002TIP3    H230642   2.818   3.666   2.241  1.8106  0.6895 -0.4164
 3003TIP3   OH230643   1.981   3.669   6.739 -0.1470  0.0551  0.1981
 3003TIP3    H130644   1.980   3.584   6.695 -2.6198  0.2893 -0.3131
 3003TIP3    H230645   2.071   3.678   6.770  0.5605 -2.0777 -1.0031
 3004TIP3   OH230646   4.811   6.062   0.522  0.3376  0.7242 -0.1041
 3004TIP3    H130647   4.893   6.091   0.560  0.5919  0.6932 -0.6116
 3004TIP3    H230648   4.749   6.134   0.538 -0.3923 -0.4253  2.8970
 3005TIP3   OH230649   0.209   1.171   2.362 -0.2348 -0.0837  0.0711
 3005TIP3    H130650   0.270   1.106   2.328  1.1576 -0.4927  3.0542
 3005TIP3    H230651   0.256   1.254   2.355 -0.5627  0.0762 -0.3361
 3006TIP3   OH230652   5.496   2.563   0.994 -0.2564 -0.2082 -0.3257
 3006TIP3    H130653   5.489   2.651   0.959 -0.0428 -0.2071 -0.3656
 3006TIP3    H230654   5.520   2.508   0.919  0.3295 -0.1858 -0.1661
 3007TIP3   OH230655   1.120   6.316   1.159 -0.1895 -0.2150  0.1041
 3007TIP3    H130656   1.147   6.364   1.081 -2.3480  0.6060 -0.1972
 3007TIP3    H230657   1.085   6.233   1.126  1.2816 -1.0249  0.4515
 3008TIP3   OH230658   3.565   4.571   8.283  0.6705 -0.2794  0.1663
 3008TIP3    H130659   3.509   4.530   8.218  0.1959 -0.1915  0.5164
 3008TIP3    H230660   3.506   4.624   8.337  1.1647  0.2459  0.2031
 3009TIP3   OH230661   3.810   4.116   1.493  0.3844 -0.3742  0.4437
 3009TIP3    H130662   3.878   4.179   1.471 -1.0620  1.9330  2.1524
 3009TIP3    H230663   3.852   4.030   1.482  2.8936  0.8878 -0.4762
 3010TIP3   OH230664   2.234   0.967   7.449  0.4379  0.5380  0.7705
 3010TIP3    H130665   2.194   0.963   7.536 -0.8300 -0.3912  0.1860
 3010TIP3    H230666   2.240   0.876   7.421 -0.5299  0.8740 -0.6798
 3011TIP3   OH230667   0.982   5.474   6.590  0.0423  0.0167  0.5055
 3011TIP3    H130668   0.942   5.561   6.585 -2.3278 -1.0475 -0.7034
 3011TIP3    H230669   1.040   5.470   6.514  0.6053  0.7229  0.8869
 3012TIP3   OH230670   2.106   1.288   1.244 -0.0172 -0.0319 -0.4400
 3012TIP3    H130671   2.011   1.294   1.249  0.0059 -0.3508  0.6720
 3012TIP3    H230672   2.138   1.359   1.300  0.3281 -2.6048  2.9225
 3013TIP3   OH230673   2.912   3.477   0.906  0.3171  0.4308  0.9779
 3013TIP3    H130674   2.945   3.450   0.820 -0.3264  0.9640  0.5500
 3013TIP3    H230675   2.975   3.441   0.968  2.5467  2.6628  0.1561
 3014TIP3   OH230676   1.352   2.892   7.655  0.1008 -0.2701  0.0524
 3014TIP3    H130677   1.261   2.892   7.685 -0.0120 -0.0333 -0.2795
 3014TIP3    H230678   1.400   2.845   7.723 -0.4787 -1.5396 -0.3802
 3015TIP3   OH230679   2.813   1.272   8.034 -0.1586 -0.4139  0.0357
 3015TIP3    H130680   2.888   1.284   8.092 -1.1603  0.6456  1.1759
 3015TIP3    H230681   2.833   1.193   7.985  2.9206  1.1694 -1.6166
 3016TIP3   OH230682   1.266   1.266   2.097 -0.3330 -0.0068  0.6512
 3016TIP3    H130683   1.212   1.192   2.125 -0.4962  0.0139  0.3958
 3016TIP3    H230684   1.320   1.231   2.026 -0.7129  0.2254  0.2419
 3017TIP3   OH230685   3.317   3.255   0.219 -0.5613  0.8767  0.5030
 3017TIP3    H130686   3.290   3.342   0.189  1.7869  1.4056 -0.2957
 3017TIP3    H230687   3.382   3.271   0.286  1.8309 -0.1355 -1.4128
 3018TIP3   OH230688   4.138   3.904   1.451  0.4245 -0.0338 -0.1854
 3018TIP3    H130689   4.164   3.996   1.453 -0.8691  0.3432  0.5750
 3018TIP3    H230690   4.212   3.856   1.489  1.3324  0.6092 -1.0895
 3019TIP3   OH230691   0.835   6.548   6.472 -0.1185  0.4384  0.5022
 3019TIP3    H130692   0.871   6.628   6.436 -0.0714 -1.0293 -3.1704
 3019TIP3    H230693   0.740   6.557   6.461 -0.1199  0.0565  0.1660
 3020TIP3   OH230694   0.224   5.682   6.301  0.2677  0.4152  0.6420
 3020TIP3    H130695   0.165   5.692   6.226  1.4437 -0.7023 -0.4860
 3020TIP3    H230696   0.219   5.766   6.347 -0.9448  0.9131 -0.3384
 3021TIP3   OH230697   5.126   2.029   7.477  0.0168  0.2272 -0.4930
 3021TIP3    H130698   5.204   1.975   7.490  0.4010  0.7834 -0.4098
 3021TIP3    H230699   5.116   2.034   7.382  1.0149  1.4249 -0.5598
 3022TIP3   OH230700   5.262   0.117   7.001  0.4311 -0.7937 -0.2535
 3022TIP3    H130701   5.273   0.161   7.085  0.4444  0.8982 -1.1007
 3022TIP3    H230702   5.169   0.093   6.998  0.1623  0.1990 -0.2351
 3023TIP3   OH230703   0.687   1.356   2.086  0.2288  0.2895  0.5335
 3023TIP3    H130704   0.602   1.392   2.059 -0.1489  0.4643  1.8616
 3023TIP3    H230705   0.750   1.426   2.069 -0.0773  0.5772  0.5840
 3024TIP3   OH230706   1.593   3.787   5.978 -0.5376  0.0585  0.0907
 3024TIP3    H130707   1.664   3.752   5.926 -0.5168  0.0147  0.1479
 3024TIP3    H230708   1.619   3.877   5.997 -0.2574 -0.1079  0.5344
 3025TIP3   OH230709   3.958   5.576   0.421 -0.5222  0.0668  0.2169
 3025TIP3    H130710   3.904   5.558   0.344  0.6795  0.3949 -0.7431
 3025TIP3    H230711   4.018   5.501   0.426  2.0119  1.7836 -1.5730
 3026TIP3   OH230712   4.591   4.470   8.615 -0.4272  0.1673  0.0638
 3026TIP3    H130713   4.576   4.499   8.705 -2.5365 -0.2284 -0.0942
 3026TIP3    H230714   4.669   4.414   8.620 -1.2653 -0.9549  1.9092
 3027TIP3   OH230715   1.587   1.929   8.487  0.4890 -0.1269  0.3834
 3027TIP3    H130716   1.588   2.013   8.534 -0.6499 -0.8767  1.8242
 3027TIP3    H230717   1.635   1.869   8.544  1.1711 -0.5135 -0.5718
 3028TIP3   OH230718   2.250   3.878   7.941 -0.6868 -0.1673 -0.3336
 3028TIP3    H130719   2.230   3.962   7.983 -0.8714 -0.2674 -0.2223
 3028TIP3    H230720   2.189   3.872   7.868 -0.7603 -0.2656 -0.2635
 3029TIP3   OH230721   2.065   0.497   1.361 -0.0244  0.3180 -0.2393
 3029TIP3    H130722   1.983   0.449   1.350  0.5703 -0.5046 -1.3114
 3029TIP3    H230723   2.086   0.488   1.454 -0.1859 -1.1195 -0.3105
 3030TIP3   OH230724   6.114   4.534   7.989  0.4655  0.7779  0.0962
 3030TIP3    H130725   6.202   4.538   7.953  0.9863  1.4121  1.3680
 3030TIP3    H230726   6.126   4.547   8.083 -0.8272 -0.6978  0.5165
 3031TIP3   OH230727   5.047   5.846   0.638  0.0501  0.0709  0.1798
 3031TIP3    H130728   5.127   5.865   0.589 -1.2839  1.4594 -1.6216
 3031TIP3    H230729   5.016   5.932   0.667 -0.3282 -0.5397  1.6569
 3032TIP3   OH230730   4.383   5.207   6.226  0.1677 -0.0005  0.0388
 3032TIP3    H130731   4.340   5.177   6.146  2.5363  0.7566 -1.6638
 3032TIP3    H230732   4.462   5.154   6.232 -0.4003 -0.6615  2.4501
 3033TIP3   OH230733   2.962   0.741   6.662  0.3390 -0.0888 -0.2737
 3033TIP3    H130734   3.004   0.657   6.646  2.1581  0.6992  0.0393
 3033TIP3    H230735   2.994   0.767   6.748 -1.0545  0.4370  0.0983
 3034TIP3   OH230736   3.463   5.010   8.605 -0.4774 -0.3561  0.0128
 3034TIP3    H130737   3.550   4.972   8.593 -0.3784  0.0822 -0.6940
 3034TIP3    H230738   3.412   4.976   8.532 -0.4547  0.6419 -0.4891
 3035TIP3   OH230739   0.691   3.381   7.884 -0.4240  0.0868  0.1744
 3035TIP3    H130740   0.668   3.460   7.834  0.9938 -0.4617 -1.4463
 3035TIP3    H230741   0.728   3.322   7.819 -1.2475 -1.8596  1.3935
 3036TIP3   OH230742   2.581   6.666   1.332  0.7953  0.3024  0.2265
 3036TIP3    H130743   2.643   6.722   1.287 -2.1784  2.7046 -1.2620
 3036TIP3    H230744   2.538   6.723   1.395 -2.4601 -0.0374 -1.4476
 3037TIP3   OH230745   4.486   3.434   2.414  0.1824  0.2158 -0.1413
 3037TIP3    H130746   4.464   3.527   2.419  1.0546  0.4094  0.3147
 3037TIP3    H230747   4.581   3.432   2.403  0.2071 -0.6239  0.1288
 3038TIP3   OH230748   0.710   5.130   0.010 -0.4810  0.4903  0.1604
 3038TIP3    H130749   0.645   5.143  -0.058 -0.3451  1.2848  0.1666
 3038TIP3    H230750   0.791   5.112  -0.037 -0.3061  1.4243  0.0961
 3039TIP3   OH230751   5.191   2.935   7.733 -0.0421 -0.1768  0.5502
 3039TIP3    H130752   5.235   2.943   7.818  0.1983 -2.3787  0.6709
 3039TIP3    H230753   5.263   2.935   7.669 -0.0211 -1.1955  0.5613
 3040TIP3   OH230754   3.256   6.884   8.578 -0.6644  0.0333 -0.2319
 3040TIP3    H130755   3.273   6.922   8.664  0.2735 -1.6728  0.3888
 3040TIP3    H230756   3.274   6.956   8.517 -0.7190  1.0958  0.9453
 3041TIP3   OH230757   1.963   6.822   1.852 -0.7690 -0.0985  0.5259
 3041TIP3    H130758   1.901   6.894   1.865 -2.2984 -1.0167 -1.1565
 3041TIP3    H230759   1.909   6.743   1.861  0.6250 -0.9984  1.1538
 3042TIP3   OH230760   4.616   3.645   2.059 -0.1383  0.0962  0.0559
 3042TIP3    H130761   4.691   3.595   2.027  1.6576  1.3973  2.0023
 3042TIP3    H230762   4.652   3.731   2.080 -2.5368  1.3008 -0.4728
 3043TIP3   OH230763   4.345   6.329   0.359  0.5682  0.3207 -0.1400
 3043TIP3    H130764   4.263   6.372   0.383  0.8694  1.3298 -0.8692
 3043TIP3    H230765   4.343   6.245   0.406 -0.6359  0.5565  0.2534
 3044TIP3   OH230766   3.036   6.624   6.781  0.4644  0.0080  0.2273
 3044TIP3    H130767   3.090   6.553   6.818  1.4201  0.7213  0.2580
 3044TIP3    H230768   3.020   6.683   6.855  2.5960  1.5733 -0.4231
 3045TIP3   OH230769   0.283   3.588   7.305 -0.0158 -0.0354 -0.6022
 3045TIP3    H130770   0.205   3.643   7.301  1.1761  1.7434 -0.4914
 3045TIP3    H230771   0.254   3.507   7.348 -1.6012  0.9250  0.2127
 3046TIP3   OH230772   4.289   0.314   0.493 -0.1547 -0.1059 -0.1487
 3046TIP3    H130773   4.300   0.349   0.404 -1.1212  0.2608 -0.1319
 3046TIP3    H230774   4.319   0.385   0.550  0.8234 -0.4801 -0.1752
 3047TIP3   OH230775   0.173   2.216   0.433 -0.1563 -0.3406  0.3610
 3047TIP3    H130776   0.096   2.243   0.383  0.3919 -1.5266 -1.2173
 3047TIP3    H230777   0.144   2.137   0.480 -0.3271  0.0828  0.9727
 3048TIP3   OH230778   3.121   0.727   7.928  0.1992 -0.3898  0.0081
 3048TIP3    H130779   3.180   0.686   7.865  0.2298  2.0768 -1.6635
 3048TIP3    H230780   3.034   0.696   7.903  0.2356  0.3886 -1.1553
 3049TIP3   OH230781   0.965   2.532   0.365 -0.1188  0.0606  0.0591
 3049TIP3    H130782   1.007   2.494   0.287 -0.3595 -1.6058  0.6861
 3049TIP3    H230783   0.871   2.523   0.348 -0.1754 -0.0126  0.3974
 3050TIP3   OH230784   4.971   4.983   6.770  0.2335  0.6079  0.4981
 3050TIP3    H130785   4.984   5.070   6.733  0.9123  0.6670  0.8701
 3050TIP3    H230786   5.037   4.975   6.838 -0.7618  0.3613  1.4697
 3051TIP3   OH230787   6.605   5.442   1.870 -0.1724 -0.3223  0.6578
 3051TIP3    H130788   6.674   5.432   1.805  2.7286  2.7099  2.9063
 3051TIP3    H230789   6.523   5.431   1.821  1.7856  1.0118 -3.2978
 3052TIP3   OH230790   0.575   5.297   0.604 -0.0234  0.0821  0.4317
 3052TIP3    H130791   0.662   5.331   0.627 -0.0742  0.3865  0.1854
 3052TIP3    H230792   0.593   5.219   0.552  0.1442  1.0219 -0.9850
 3053TIP3   OH230793   3.233   5.430   1.411  0.6219 -0.0591 -0.4964
 3053TIP3    H130794   3.271   5.416   1.324  0.4250  1.3932 -0.8414
 3053TIP3    H230795   3.308   5.430   1.470  0.8506 -0.1530 -0.7824
 3054TIP3   OH230796   1.186   4.790   7.800  0.1214  0.1265 -0.3217
 3054TIP3    H130797   1.117   4.724   7.802 -0.0933  0.3031 -1.3140
 3054TIP3    H230798   1.250   4.755   7.738 -1.2271  2.0042 -2.9420
 3055TIP3   OH230799   5.111   4.866   2.469 -0.1102 -0.0185 -0.0718
 3055TIP3    H130800   5.154   4.879   2.554  1.6659 -0.7341 -0.8219
 3055TIP3    H230801   5.058   4.787   2.481 -0.4674  0.3088  0.5729
 3056TIP3   OH230802   3.127   5.755   7.233  0.3587 -0.1418 -0.1996
 3056TIP3    H130803   3.188   5.806   7.180 -0.1929 -1.6758 -2.4295
 3056TIP3    H230804   3.132   5.666   7.198 -1.9596 -0.6608  0.5994
 3057TIP3   OH230805   0.576   0.098   1.219 -0.0697 -0.6086  0.4302
 3057TIP3    H130806   0.481   0.104   1.228 -0.0179  0.6505  0.2710
 3057TIP3    H230807   0.608   0.076   1.306 -0.3530  1.1488  1.0073
 3058TIP3   OH230808   3.236   0.234   8.428  0.3601  0.0360 -0.3787
 3058TIP3    H130809   3.297   0.304   8.453  0.2856  0.0242 -0.1631
 3058TIP3    H230810   3.150   0.273   8.440  0.3065  0.6743 -2.3973
 3059TIP3   OH230811   3.336   3.089   7.990 -0.2943  0.0140 -0.3274
 3059TIP3    H130812   3.288   3.025   7.937 -2.5930  0.3228  1.2087
 3059TIP3    H230813   3.308   3.070   8.080  0.2677  2.0892  0.3270
 3060TIP3   OH230814   2.845   5.726   7.731 -0.2289  0.4000 -0.0607
 3060TIP3    H130815   2.858   5.821   7.728 -0.2884  0.4304  0.4903
 3060TIP3    H230816   2.763   5.714   7.780 -0.2442  0.0646 -0.1634
 3061TIP3   OH230817   6.788   5.335   1.027 -0.0666  0.3198 -0.1701
 3061TIP3    H130818   6.768   5.260   0.970  1.6091 -0.6893  0.5121
 3061TIP3    H230819   6.798   5.297   1.114  2.4679  1.0213 -0.0795
 3062TIP3   OH230820   4.125   6.619   7.860  0.1062 -0.7195 -0.0035
 3062TIP3    H130821   4.192   6.596   7.925 -0.1215 -0.7054  0.2397
 3062TIP3    H230822   4.048   6.641   7.913 -0.2861 -1.3599 -0.3018
 3063TIP3   OH230823   5.260   3.929   7.821  0.1533 -0.6071 -0.4650
 3063TIP3    H130824   5.191   3.936   7.755 -1.0612  0.8292  0.8496
 3063TIP3    H230825   5.222   3.874   7.890 -0.1036  0.9713  0.7061
 3064TIP3   OH230826   5.523   2.059   6.883 -0.1523  0.1923 -0.1638
 3064TIP3    H130827   5.527   2.143   6.930 -1.2033  0.8706 -1.2292
 3064TIP3    H230828   5.481   2.080   6.800 -1.0022 -1.5160 -0.2041
 3065TIP3   OH230829   6.186   6.153   6.773  0.0688  0.2486  0.0877
 3065TIP3    H130830   6.113   6.108   6.815  0.8097 -1.3370 -0.2677
 3065TIP3    H230831   6.185   6.121   6.683  0.7651  0.7686 -0.1156
 3066TIP3   OH230832   1.287   2.248   1.636 -0.4799 -0.3557 -0.2529
 3066TIP3    H130833   1.237   2.315   1.683  0.2223  0.4523 -0.6280
 3066TIP3    H230834   1.248   2.247   1.548  1.3202  1.6637 -1.1717
 3067TIP3   OH230835   3.154   1.368   1.195 -0.5301  1.6750  0.2524
 3067TIP3    H130836   3.204   1.294   1.162 -0.9395 -0.1040  3.2787
 3067TIP3    H230837   3.072   1.365   1.146 -0.3767  0.3508  0.0475
 3068TIP3   OH230838   4.112   1.744   0.331 -0.1301  0.3108  0.3969
 3068TIP3    H130839   4.170   1.675   0.301 -0.5888 -0.8871  2.1309
 3068TIP3    H230840   4.156   1.825   0.307  0.8912 -0.5641 -0.7926
 3069TIP3   OH230841   0.524   0.336   0.485 -0.5948 -0.0125  0.3678
 3069TIP3    H130842   0.444   0.376   0.519 -0.3884 -1.5593  2.8917
 3069TIP3    H230843   0.523   0.246   0.519  0.8301 -0.9950 -1.9309
 3070TIP3   OH230844   5.117   6.623   0.579 -0.8615  1.1033  0.5579
 3070TIP3    H130845   5.169   6.558   0.626 -2.3039  0.2922  1.0864
 3070TIP3    H230846   5.181   6.689   0.551  0.5557 -0.2378  0.4956
 3071TIP3   OH230847   6.493   3.357   0.011  0.4419  0.3769 -0.2498
 3071TIP3    H130848   6.541   3.413  -0.049  0.2568  0.7826 -0.0235
 3071TIP3    H230849   6.558   3.296   0.044  0.5090  0.0384 -0.9910
 3072TIP3   OH230850   6.144   0.083   0.652 -0.3302  0.1955 -0.2819
 3072TIP3    H130851   6.194   0.148   0.701 -2.4567  1.4063  0.4030
 3072TIP3    H230852   6.055   0.088   0.688 -1.1483 -1.3374 -1.9193
 3073TIP3   OH230853   3.681   2.375   0.341  0.1301 -0.0896  0.3756
 3073TIP3    H130854   3.611   2.439   0.356  0.7343  0.6460  0.0991
 3073TIP3    H230855   3.703   2.343   0.429  0.7624  1.1079  0.6802
 3074TIP3   OH230856   4.770   6.220   6.721  0.2605  0.0486  0.0671
 3074TIP3    H130857   4.855   6.237   6.761 -0.7873  2.0155  1.6285
 3074TIP3    H230858   4.747   6.132   6.752  1.0449  0.1224  0.9089
 3075TIP3   OH230859   4.756   5.257   7.029 -0.1266 -0.3530 -0.1354
 3075TIP3    H130860   4.688   5.293   6.973  0.5667 -1.6854 -1.9469
 3075TIP3    H230861   4.740   5.162   7.028 -0.2503 -0.4072  2.2004
 3076TIP3   OH230862   4.119   0.493   6.236 -0.0127  0.2870 -0.5251
 3076TIP3    H130863   4.093   0.414   6.284  1.7204 -0.4081 -0.6485
 3076TIP3    H230864   4.042   0.517   6.185 -1.2529 -0.1162  1.0685
 3077TIP3   OH230865   1.519   5.553   6.850  0.2677  0.5267 -0.1823
 3077TIP3    H130866   1.540   5.579   6.940  2.4500 -2.0558  0.1920
 3077TIP3    H230867   1.594   5.583   6.799 -0.2570  0.6586 -0.8902
 3078TIP3   OH230868   2.947   2.473   0.884  0.2338  0.2039  0.0135
 3078TIP3    H130869   2.895   2.393   0.892  1.7303 -0.6703  1.8636
 3078TIP3    H230870   2.946   2.511   0.972  0.4611  1.6533 -0.5836
 3079TIP3   OH230871   1.050   1.585   6.656 -0.6069 -0.0682  0.3041
 3079TIP3    H130872   1.080   1.586   6.565 -1.7686  1.6731 -0.1088
 3079TIP3    H230873   1.057   1.676   6.684 -0.1555 -0.6022  2.0204
 3080TIP3   OH230874   2.787   6.582   0.650  0.0859  0.0534 -0.2034
 3080TIP3    H130875   2.878   6.599   0.623 -0.0153 -1.1256 -1.4194
 3080TIP3    H230876   2.735   6.638   0.593 -0.0835 -1.8620 -2.1047
 3081TIP3   OH230877   0.473   2.631   2.273 -0.0469 -0.3898 -0.0645
 3081TIP3    H130878   0.502   2.707   2.324  0.0372  0.7714 -1.7665
 3081TIP3    H230879   0.390   2.658   2.235 -0.8708 -1.8012  0.6066
 3082TIP3   OH230880   5.065   4.861   6.992  0.4812  0.1768  0.5837
 3082TIP3    H130881   5.005   4.808   6.939  0.8436  0.7198 -0.4114
 3082TIP3    H230882   5.072   4.814   7.075  0.1198 -0.8681  0.0436
 3083TIP3   OH230883   1.068   0.085   1.111  0.0240 -0.1211 -0.6974
 3083TIP3    H130884   1.032   0.133   1.185  0.2104 -0.4736 -0.3743
 3083TIP3    H230885   1.131   0.023   1.150 -1.2226 -1.6182 -0.9621
 3084TIP3   OH230886   1.390   1.408   7.196  0.0955  0.1491  0.1485
 3084TIP3    H130887   1.435   1.492   7.210  0.4442 -0.0035 -0.0610
 3084TIP3    H230888   1.308   1.418   7.244 -0.3245  1.0011 -0.7070
 3085TIP3   OH230889   0.652   0.134   6.564 -0.1411 -0.3082  0.0912
 3085TIP3    H130890   0.662   0.079   6.642  3.0897  0.0102  0.0483
 3085TIP3    H230891   0.670   0.075   6.491  3.9860  0.6934  0.0731
 3086TIP3   OH230892   4.332   5.330   0.012  0.7244 -0.3848 -0.0855
 3086TIP3    H130893   4.366   5.252  -0.032  2.0421 -1.5276  2.6708
 3086TIP3    H230894   4.237   5.319   0.013  0.7957 -1.1731 -1.0582
 3087TIP3   OH230895   4.417   5.466   7.895 -0.8781 -0.6799 -0.0987
 3087TIP3    H130896   4.432   5.541   7.837 -1.4055 -0.6559 -0.2044
 3087TIP3    H230897   4.505   5.433   7.914 -0.7024 -0.7078 -0.9409
 3088TIP3   OH230898   5.534   3.760   6.315 -0.6084  0.9224 -0.7612
 3088TIP3    H130899   5.567   3.827   6.255 -0.5449  1.3726 -0.2366
 3088TIP3    H230900   5.566   3.677   6.279 -1.0419  1.1317 -1.6523
 3089TIP3   OH230901   1.020   0.675   1.487 -0.7992  0.0846  0.6056
 3089TIP3    H130902   1.004   0.749   1.546 -0.0605  0.6521  0.1224
 3089TIP3    H230903   1.069   0.713   1.414 -0.4676 -0.8721  0.3103
 3090TIP3   OH230904   6.626   0.248   7.733  0.0334  0.2918 -0.3068
 3090TIP3    H130905   6.533   0.257   7.715 -0.4346 -2.4082  0.3126
 3090TIP3    H230906   6.633   0.167   7.784  2.6730  0.6539  0.0561
 3091TIP3   OH230907   6.365   4.866   7.215 -0.1662  0.4104 -0.3294
 3091TIP3    H130908   6.417   4.939   7.180  0.6135  1.4165  2.6121
 3091TIP3    H230909   6.275   4.895   7.205  0.0043  0.5978 -1.5309
 3092TIP3   OH230910   0.110   5.369   7.682  0.0070  0.0860  0.4771
 3092TIP3    H130911   0.016   5.352   7.690 -0.1315  0.2511 -0.6690
 3092TIP3    H230912   0.126   5.374   7.588  1.0197  0.8978  0.6698
 3093TIP3   OH230913   4.239   2.149   6.310 -0.1413 -0.1312 -0.0182
 3093TIP3    H130914   4.177   2.215   6.279 -0.6700 -1.0530 -0.9774
 3093TIP3    H230915   4.323   2.177   6.273 -0.6747 -0.9383 -1.9956
 3094TIP3   OH230916   4.105   0.686   8.026 -0.5399 -0.3937  0.5960
 3094TIP3    H130917   4.199   0.701   8.038 -0.0286 -2.4458 -0.4305
 3094TIP3    H230918   4.098   0.595   7.997 -2.9101 -0.4540  1.1370
 3095TIP3   OH230919   1.684   3.415   7.992  0.0588 -0.4602  0.0765
 3095TIP3    H130920   1.778   3.417   8.010  0.0628  0.4354  0.0162
 3095TIP3    H230921   1.672   3.340   7.933  0.9345  0.1691 -0.9459
 3096TIP3   OH230922   4.134   0.503   1.195 -0.0835 -0.2148 -0.0248
 3096TIP3    H130923   4.202   0.487   1.130 -0.0648  0.6177 -0.2180
 3096TIP3    H230924   4.182   0.524   1.275 -0.0967  1.4879 -0.4418
 3097TIP3   OH230925   3.097   0.839   8.193 -0.1568 -0.2762  0.2168
 3097TIP3    H130926   3.124   0.812   8.105  1.2270  1.0261  0.2064
 3097TIP3    H230927   3.179   0.852   8.240 -0.8845 -1.0963  1.7730
 3098TIP3   OH230928   0.217   3.699   8.067  0.1099  0.1721 -0.1583
 3098TIP3    H130929   0.221   3.792   8.043 -0.1203  0.0149 -0.8377
 3098TIP3    H230930   0.224   3.698   8.162 -1.7961  1.0294  0.0384
 3099TIP3   OH230931   1.552   6.458   6.568  0.4009  0.1798  0.4169
 3099TIP3    H130932   1.519   6.397   6.503 -0.7430  1.1171  0.0918
 3099TIP3    H230933   1.509   6.433   6.649  1.2681 -0.5244  0.6781
 3100TIP3   OH230934   0.418   4.758   8.080 -0.1598 -0.3102 -0.7215
 3100TIP3    H130935   0.441   4.701   8.007  0.2131 -0.3763 -0.5583
 3100TIP3    H230936   0.374   4.832   8.040  1.9734  0.7384 -1.2994
 3101TIP3   OH230937   6.409   0.913   7.277 -0.1459 -0.0812 -0.1387
 3101TIP3    H130938   6.434   0.825   7.250 -1.8748 -0.7580  0.2910
 3101TIP3    H230939   6.326   0.928   7.231  0.6742  1.7911 -1.0933
 3102TIP3   OH230940   6.426   4.800   7.495  0.5518 -0.0238  0.5010
 3102TIP3    H130941   6.447   4.833   7.407 -0.4209 -0.3153  0.1340
 3102TIP3    H230942   6.383   4.716   7.478 -0.1337  0.1717  1.2178
 3103TIP3   OH230943   6.851   4.018   8.524 -0.3222 -0.4749  0.0795
 3103TIP3    H130944   6.920   4.016   8.591 -1.2276 -0.2995  1.0396
 3103TIP3    H230945   6.867   3.940   8.471  1.3834  0.2336 -0.5248
 3104TIP3   OH230946   2.685   0.262   7.813 -0.2386  0.0109 -0.5246
 3104TIP3    H130947   2.600   0.249   7.854 -1.3387  0.8422 -2.4375
 3104TIP3    H230948   2.691   0.192   7.747 -0.7097  1.5740 -2.2998
 3105TIP3   OH230949   6.542   3.766   2.462 -0.6011 -0.3816 -0.2742
 3105TIP3    H130950   6.470   3.727   2.412 -1.1933  1.0888 -0.6089
 3105TIP3    H230951   6.526   3.860   2.457  0.8270 -0.0842  0.4568
 3106TIP3   OH230952   6.759   5.570   8.139  0.1703 -0.2422 -0.0788
 3106TIP3    H130953   6.782   5.648   8.089  0.0216  0.4791  0.9397
 3106TIP3    H230954   6.728   5.604   8.223 -0.7302 -1.3669  0.0592
 3107TIP3   OH230955   0.429   2.460   7.940 -0.3726  0.0133 -0.2665
 3107TIP3    H130956   0.502   2.439   7.999  0.3251  3.3121  0.2341
 3107TIP3    H230957   0.356   2.480   7.998  0.0739  2.4196 -0.4228
 3108TIP3   OH230958   4.252   6.627   6.573 -0.1514  0.7305 -0.5754
 3108TIP3    H130959   4.161   6.633   6.545 -1.0353 -3.6779  0.5239
 3108TIP3    H230960   4.302   6.631   6.492 -1.6587 -0.1311 -1.6120
 3109TIP3   OH230961   4.837   0.693   6.309  0.1217  0.5646 -0.7363
 3109TIP3    H130962   4.903   0.670   6.243 -0.2587 -0.8850 -0.6407
 3109TIP3    H230963   4.769   0.626   6.300  1.3335 -1.4462  2.9592
 3110TIP3   OH230964   5.387   5.417   7.593  0.0691  0.2664  0.1029
 3110TIP3    H130965   5.369   5.323   7.585 -0.6453  0.4006 -0.0093
 3110TIP3    H230966   5.437   5.426   7.674  0.1918 -0.2170  0.0838
 3111TIP3   OH230967   3.938   5.229   7.452  0.0792  0.3244 -0.2727
 3111TIP3    H130968   3.874   5.290   7.415  1.4200  0.4368 -2.6151
 3111TIP3    H230969   3.981   5.279   7.522 -0.1354  1.3980 -0.8885
 3112TIP3   OH230970   0.067   0.723   6.150 -0.1987 -0.2436 -0.2827
 3112TIP3    H130971   0.003   0.785   6.185 -0.1487 -0.1816 -0.3002
 3112TIP3    H230972   0.015   0.647   6.124 -0.4831  0.3829 -1.6747
 3113TIP3   OH230973   3.062   2.795   6.300  0.2476  0.2524 -0.0523
 3113TIP3    H130974   3.044   2.705   6.327 -0.3170  0.4736  0.3255
 3113TIP3    H230975   3.083   2.788   6.207 -0.4832 -0.1918 -0.1945
 3114TIP3   OH230976   6.646   4.812   0.638  0.1585  0.1523  0.3957
 3114TIP3    H130977   6.614   4.766   0.716  0.8069  0.5755  0.9284
 3114TIP3    H230978   6.650   4.745   0.570 -1.5868  0.0246  0.3704
 3115TIP3   OH230979   0.113   2.858   7.524  0.3111  0.0143  0.5083
 3115TIP3    H130980   0.195   2.882   7.565  0.1759  0.5364  0.4784
 3115TIP3    H230981   0.125   2.767   7.496 -0.1045 -0.8911  3.0211
 3116TIP3   OH230982   1.512   2.142   6.206  0.0120 -0.3144 -0.0053
 3116TIP3    H130983   1.511   2.180   6.294 -1.6734  0.8714 -0.4727
 3116TIP3    H230984   1.428   2.095   6.200 -0.1334  0.0704 -1.1427
 3117TIP3   OH230985   2.053   5.620   0.251 -0.4176  0.0027 -0.2639
 3117TIP3    H130986   2.089   5.605   0.339  2.1581 -0.0391 -1.2497
 3117TIP3    H230987   2.063   5.537   0.206  0.4228  0.6331 -1.2878
 3118TIP3   OH230988   5.727   2.626   0.790 -0.1091 -0.0621 -0.7859
 3118TIP3    H130989   5.689   2.710   0.767 -0.1034  0.8804  2.2375
 3118TIP3    H230990   5.743   2.631   0.884  3.3871 -2.0624 -1.0703
 3119TIP3   OH230991   6.737   4.878   6.676  0.4905  0.5062 -0.4358
 3119TIP3    H130992   6.721   4.966   6.711  1.2526  0.6776 -0.5049
 3119TIP3    H230993   6.703   4.882   6.586 -3.6630 -0.6204  0.8546
 3120TIP3   OH230994   5.150   4.978   6.234 -0.2524 -0.1848 -0.3175
 3120TIP3    H130995   5.222   4.978   6.171  0.6099 -0.7075  0.6480
 3120TIP3    H230996   5.085   5.036   6.195 -0.2030 -1.3255 -2.2028
 3121TIP3   OH230997   2.451   5.056   1.894 -0.3097 -0.1393 -0.3872
 3121TIP3    H130998   2.360   5.029   1.889 -0.1191 -0.7795 -0.6146
 3121TIP3    H230999   2.466   5.074   1.986 -1.1874  1.9225 -0.6005
 3122TIP3   OH231000   2.185   3.051   1.671 -0.2490  0.2192  0.2847
 3122TIP3    H131001   2.101   3.019   1.702 -1.1114  2.5059  0.5530
 3122TIP3    H231002   2.164   3.131   1.623  1.8977  2.0648  2.1303
 3123TIP3   OH231003   5.748   0.102   1.905  0.3975 -0.5496  0.0544
 3123TIP3    H131004   5.751   0.008   1.890  1.2802 -0.2053 -2.4223
 3123TIP3    H231005   5.669   0.131   1.860 -0.0253 -0.1130  1.0437
 3124TIP3   OH231006   5.512   3.296   8.675  0.3091  0.0027  0.5260
 3124TIP3    H131007   5.468   3.350   8.740 -0.9079 -1.3915  0.9255
 3124TIP3    H231008   5.546   3.358   8.610 -3.7069  1.2150 -0.7516
 3125TIP3   OH231009   6.465   4.787   1.687  0.0292  0.4834 -0.2096
 3125TIP3    H131010   6.438   4.879   1.691 -2.9126 -0.0786 -2.9646
 3125TIP3    H231011   6.471   4.759   1.778 -0.0349  3.1177  0.6723
 3126TIP3   OH231012   4.020   0.476   6.567  0.3214  0.2075 -0.1214
 3126TIP3    H131013   3.943   0.470   6.511 -1.1037  2.3352  1.4351
 3126TIP3    H231014   4.022   0.567   6.595  2.3149 -0.2353  1.3932
 3127TIP3   OH231015   1.185   3.050   7.981 -0.4116  0.0818  0.3900
 3127TIP3    H131016   1.149   3.110   8.046  0.0051  0.5543  0.1904
 3127TIP3    H231017   1.275   3.081   7.968  0.1972 -1.2697  1.1333
 3128TIP3   OH231018   1.468   1.249   0.358  0.0472 -0.3562 -0.5139
 3128TIP3    H131019   1.481   1.212   0.445  1.0159 -0.2541 -0.6082
 3128TIP3    H231020   1.409   1.186   0.315 -1.9257  0.5154  0.7767
 3129TIP3   OH231021   2.932   6.031   1.717 -0.4846  0.3475  0.3330
 3129TIP3    H131022   2.949   5.948   1.760 -1.4913 -0.3036 -0.4829
 3129TIP3    H231023   2.974   6.097   1.773 -0.5134 -0.6056  1.4933
 3130TIP3   OH231024   3.477   3.985   0.283 -0.0889 -0.1211  0.3073
 3130TIP3    H131025   3.444   3.963   0.370 -0.8506 -0.8951 -0.1643
 3130TIP3    H231026   3.491   4.080   0.287 -0.2522 -0.1185  1.2169
 3131TIP3   OH231027   3.171   6.483   0.650 -0.3782 -0.5603 -0.2199
 3131TIP3    H131028   3.205   6.470   0.562 -0.8732 -0.9595 -0.3544
 3131TIP3    H231029   3.110   6.556   0.642 -2.3401 -2.1854 -0.7375
 3132TIP3   OH231030   6.780   1.902   7.093 -0.1453 -0.0164  0.3699
 3132TIP3    H131031   6.794   1.996   7.106 -0.1903 -0.1165  1.1817
 3132TIP3    H231032   6.730   1.874   7.169  0.4185 -0.8208  0.4594
 3133TIP3   OH231033   1.423   0.218   0.801 -0.0322  0.8345 -0.4047
 3133TIP3    H131034   1.450   0.129   0.778  2.4979  0.5558  2.8557
 3133TIP3    H231035   1.333   0.209   0.833 -1.1988  0.2317 -3.5014
 3134TIP3   OH231036   6.020   4.362   7.313 -0.5104 -0.1703  0.1066
 3134TIP3    H131037   6.096   4.397   7.267  0.3091 -0.8906  0.8668
 3134TIP3    H231038   5.977   4.304   7.250  0.7486 -1.3561  0.2913
 3135TIP3   OH231039   4.112   3.199   6.934 -0.7872 -0.1824  0.1016
 3135TIP3    H131040   4.094   3.240   6.850 -0.1584 -0.7056 -0.2899
 3135TIP3    H231041   4.066   3.115   6.931 -1.2597  0.0470  0.5249
 3136TIP3   OH231042   6.231   3.890   7.905  0.7138  0.3199 -0.2456
 3136TIP3    H131043   6.184   3.944   7.842  0.3093  0.4654  0.1798
 3136TIP3    H231044   6.307   3.943   7.930  0.9773  0.1877 -0.7404
 3137TIP3   OH231045   2.923   5.292   1.188 -0.3551 -0.1157  0.0941
 3137TIP3    H131046   2.914   5.266   1.280  0.9538 -0.8190  0.0460
 3137TIP3    H231047   2.945   5.210   1.143  1.9440  0.7155 -0.3816
 3138TIP3   OH231048   4.177   1.708   1.488 -0.2310 -0.0274 -0.4743
 3138TIP3    H131049   4.244   1.699   1.556 -0.4866 -1.9782 -0.4366
 3138TIP3    H231050   4.227   1.727   1.408  0.1638  0.9778 -0.0107
 3139TIP3   OH231051   2.388   2.401   0.617  0.3849 -0.1961  0.5003
 3139TIP3    H131052   2.439   2.482   0.624  0.0404  0.2237 -1.3243
 3139TIP3    H231053   2.297   2.430   0.620  0.2221 -0.2357 -2.0951
 3140TIP3   OH231054   4.317   5.056   6.802 -0.2913  0.1451 -0.4577
 3140TIP3    H131055   4.396   5.055   6.748  0.2907  1.3752  0.3170
 3140TIP3    H231056   4.350   5.046   6.892 -0.9754  1.1268 -0.0878
 3141TIP3   OH231057   5.409   0.291   1.105 -0.3315  0.3292  0.7579
 3141TIP3    H131058   5.499   0.266   1.123 -0.3049  0.1573  0.3860
 3141TIP3    H231059   5.356   0.236   1.163 -0.3494 -1.4615 -0.8703
 3142TIP3   OH231060   5.559   1.300   0.564 -0.2147  0.3305  0.5225
 3142TIP3    H131061   5.485   1.248   0.597 -0.1339 -0.8130 -1.0216
 3142TIP3    H231062   5.518   1.366   0.509 -0.0789 -1.1049 -1.3973
 3143TIP3   OH231063   1.587   6.137   0.140  0.0768 -0.1891  0.4839
 3143TIP3    H131064   1.571   6.229   0.119  0.9225 -0.5091 -1.8793
 3143TIP3    H231065   1.500   6.098   0.144 -0.2386  0.4776  0.3458
 3144TIP3   OH231066   4.821   0.896   0.075  0.0175 -0.5952  0.0987
 3144TIP3    H131067   4.737   0.893   0.122 -1.6274 -1.5040 -2.6324
 3144TIP3    H231068   4.832   0.989   0.053 -0.6678 -0.5535 -0.1110
 3145TIP3   OH231069   2.629   4.688   7.379 -0.3091  0.2534  0.4760
 3145TIP3    H131070   2.700   4.751   7.363  0.6017 -0.6606  0.7864
 3145TIP3    H231071   2.588   4.717   7.460  0.5368  0.0790  0.9769
 3146TIP3   OH231072   0.282   5.889   7.383 -0.2587 -0.2642  0.1525
 3146TIP3    H131073   0.266   5.838   7.462 -2.5342  0.7029  0.4131
 3146TIP3    H231074   0.236   5.840   7.314 -0.0020 -0.0607 -0.1612
 3147TIP3   OH231075   1.178   1.187   1.656  0.6270 -0.1119  0.6357
 3147TIP3    H131076   1.196   1.213   1.747 -1.2615  1.4001  0.6326
 3147TIP3    H231077   1.086   1.162   1.656  0.9579 -1.4677 -0.6050
 3148TIP3   OH231078   5.962   3.148   0.318 -0.1659 -0.1757 -0.2000
 3148TIP3    H131079   5.906   3.126   0.243  0.3940 -2.4045 -0.0456
 3148TIP3    H231080   5.923   3.100   0.391  0.5811  0.1760  0.4383
 3149TIP3   OH231081   3.296   0.789   0.885 -0.0719  0.3121  0.2812
 3149TIP3    H131082   3.201   0.781   0.879 -0.0321 -1.3928  1.4420
 3149TIP3    H231083   3.311   0.879   0.914 -1.2811  0.7876 -0.4969
 3150TIP3   OH231084   2.296   3.491   8.370 -1.1287 -0.4016  0.2276
 3150TIP3    H131085   2.335   3.443   8.444 -0.6817 -0.0241  0.2474
 3150TIP3    H231086   2.359   3.562   8.353  0.3421 -2.2042 -2.4552
 3151TIP3   OH231087   6.590   3.518   1.109  0.0558 -0.0441  0.3659
 3151TIP3    H131088   6.559   3.472   1.187  1.0237  1.1010  1.4582
 3151TIP3    H231089   6.511   3.553   1.068 -0.4550 -0.6212  0.8494
 3152TIP3   OH231090   6.273   4.693   2.100 -0.1270 -0.1551 -0.3088
 3152TIP3    H131091   6.227   4.776   2.115 -0.0459 -0.1753  0.0591
 3152TIP3    H231092   6.350   4.718   2.048 -0.1472 -0.0090 -0.2707
 3153TIP3   OH231093   5.202   1.324   6.364  0.5987 -0.2105  0.0281
 3153TIP3    H131094   5.134   1.390   6.351 -0.1830 -1.1934 -1.0839
 3153TIP3    H231095   5.171   1.271   6.437  1.2766  0.6570  0.9914
 3154TIP3   OH231096   0.536   3.864   0.306 -0.2961  0.7289 -0.0421
 3154TIP3    H131097   0.508   3.945   0.263  0.0980  1.5159  1.1045
 3154TIP3    H231098   0.510   3.876   0.398 -2.6448 -1.5901 -0.2940
 3155TIP3   OH231099   6.814   2.691   1.914 -0.0855  0.7896  0.5631
 3155TIP3    H131100   6.884   2.629   1.894 -0.9359  0.4687 -1.6967
 3155TIP3    H231101   6.851   2.777   1.894 -0.3196  0.6200 -0.6289
 3156TIP3   OH231102   6.244   1.520   0.593 -0.1726  0.0132 -0.1287
 3156TIP3    H131103   6.339   1.526   0.584  0.0092 -0.1908  1.3017
 3156TIP3    H231104   6.226   1.427   0.604 -0.3675  0.1596  0.9396
 3157TIP3   OH231105   5.669   1.388   7.583  0.0524  0.0229 -0.2552
 3157TIP3    H131106   5.688   1.425   7.497  1.6136 -0.7230 -0.2621
 3157TIP3    H231107   5.740   1.326   7.599 -0.9024 -0.7884  1.0304
 3158TIP3   OH231108   6.483   4.032   2.010  0.5633  0.2960 -0.0235
 3158TIP3    H131109   6.462   4.123   2.030  1.3528  0.7544 -1.1810
 3158TIP3    H231110   6.578   4.030   2.001  0.3918  0.0013 -2.7666
 3159TIP3   OH231111   4.780   4.155   8.550  0.4508  0.1838  0.0375
 3159TIP3    H131112   4.710   4.145   8.613  1.0082  1.2204  0.8649
 3159TIP3    H231113   4.739   4.141   8.465 -1.0417  1.9069  0.4083
 3160TIP3   OH231114   4.289   2.110   8.588 -0.0564 -0.1118 -0.3777
 3160TIP3    H131115   4.353   2.110   8.516 -0.3722 -0.7373 -0.6684
 3160TIP3    H231116   4.332   2.062   8.658 -0.1607 -0.4293 -0.5314
 3161TIP3   OH231117   0.247   2.905   8.039 -0.4898 -0.2395  0.0582
 3161TIP3    H131118   0.178   2.971   8.032 -0.3361 -0.0837 -0.0068
 3161TIP3    H231119   0.215   2.832   7.986  0.1772  0.5157 -1.4388
 3162TIP3   OH231120   1.646   4.127   2.313 -0.4352 -0.2798  0.2699
 3162TIP3    H131121   1.692   4.045   2.299 -0.3788 -0.2746  0.4166
 3162TIP3    H231122   1.561   4.101   2.349 -0.2607 -0.2570  0.7062
 3163TIP3   OH231123   6.877   2.480   1.568 -0.1666  0.3886 -0.1377
 3163TIP3    H131124   6.947   2.544   1.563 -0.3211  0.6871  1.1711
 3163TIP3    H231125   6.844   2.472   1.478  1.4217  0.3542 -0.7400
 3164TIP3   OH231126   1.217   3.895   0.944 -0.1172  0.1647 -0.2744
 3164TIP3    H131127   1.169   3.815   0.962 -0.4053  0.5989  0.9774
 3164TIP3    H231128   1.308   3.867   0.933 -0.1476 -0.2921  0.5778
 3165TIP3   OH231129   4.979   2.677   8.135 -0.2885 -0.4765 -0.7747
 3165TIP3    H131130   4.913   2.636   8.079 -1.5969 -1.2623  1.2207
 3165TIP3    H231131   4.936   2.686   8.220  1.3163  1.4599 -0.0794
 3166TIP3   OH231132   1.846   5.958   1.459 -0.0140 -0.0820  0.2055
 3166TIP3    H131133   1.925   5.924   1.416  0.6021  0.9384  0.4977
 3166TIP3    H231134   1.863   5.948   1.552  0.0324  0.6831  0.2865
 3167TIP3   OH231135   1.132   6.677   1.413  0.3082 -0.1455  0.1814
 3167TIP3    H131136   1.070   6.673   1.340 -0.5873  1.6009  0.7870
 3167TIP3    H231137   1.168   6.589   1.419  0.4779 -0.3183 -2.4079
 3168TIP3   OH231138   5.493   1.120   6.923  0.2411  0.3614  0.1380
 3168TIP3    H131139   5.586   1.138   6.909  0.1834  0.6047  0.0784
 3168TIP3    H231140   5.485   1.108   7.018  0.8243 -2.3241 -0.0758
 3169TIP3   OH231141   6.696   5.409   7.001 -0.7361  0.2761 -0.0570
 3169TIP3    H131142   6.623   5.413   6.939 -1.4427 -1.1331  0.6354
 3169TIP3    H231143   6.655   5.403   7.087  0.2311  2.1126  0.5995
 3170TIP3   OH231144   2.081   6.700   7.667 -0.4319 -0.2710 -0.1385
 3170TIP3    H131145   2.173   6.707   7.693 -0.5398  0.2451  0.0993
 3170TIP3    H231146   2.084   6.694   7.571 -0.0956 -1.2484 -0.0823
 3171TIP3   OH231147   1.238   6.525   8.471  0.3235  0.0193  0.0741
 3171TIP3    H131148   1.184   6.517   8.392 -1.0065  1.6638  0.7430
 3171TIP3    H231149   1.288   6.606   8.458  0.6730 -0.1141  0.5804
 3172TIP3   OH231150   1.518   4.648   7.955 -0.0209 -0.6617 -0.2411
 3172TIP3    H131151   1.519   4.715   8.024 -1.3341  0.9355 -1.6701
 3172TIP3    H231152   1.606   4.612   7.956  0.7661  1.1295  0.5787
 3173TIP3   OH231153   0.206   4.985   0.576 -0.6000  0.4667 -0.5087
 3173TIP3    H131154   0.223   5.045   0.503 -0.4999  0.2512 -0.6651
 3173TIP3    H231155   0.115   5.002   0.601 -0.4528  0.9525 -0.3008
 3174TIP3   OH231156   6.513   2.750   8.674  0.1805  0.1460 -0.3545
 3174TIP3    H131157   6.477   2.700   8.747 -1.4531  0.8991 -0.5914
 3174TIP3    H231158   6.447   2.817   8.657  1.1514  0.8019 -1.6702
 3175TIP3   OH231159   0.872   4.266   1.225 -0.1486  0.0923 -0.0321
 3175TIP3    H131160   0.790   4.217   1.231  0.1630 -0.4636 -0.2246
 3175TIP3    H231161   0.937   4.201   1.197  0.4622  0.4052  0.6139
 3176TIP3   OH231162   6.448   0.478   6.792 -0.1848 -0.1214  0.0292
 3176TIP3    H131163   6.437   0.431   6.874  0.6219 -1.3266 -0.5229
 3176TIP3    H231164   6.527   0.530   6.804 -1.4050  1.6158  0.8523
 3177TIP3   OH231165   0.557   4.122   0.190  0.6642  0.0185  0.6917
 3177TIP3    H131166   0.534   4.192   0.130 -1.0201 -1.8924 -1.0558
 3177TIP3    H231167   0.514   4.146   0.272  0.4164  1.1741  0.2462
 3178TIP3   OH231168   6.466   4.614   7.180 -0.2880  0.0362 -0.4364
 3178TIP3    H131169   6.549   4.621   7.227  0.7218  0.9266 -2.2513
 3178TIP3    H231170   6.422   4.698   7.196 -0.2173  0.1014 -0.5818
 3179TIP3   OH231171   2.998   3.768   1.055 -0.3048  0.3851  0.2324
 3179TIP3    H131172   3.048   3.767   1.137  0.2367  2.4770 -0.0271
 3179TIP3    H231173   2.971   3.677   1.043  2.4747 -0.6333  0.9601
 3180TIP3   OH231174   6.479   0.533   0.055 -0.1837  0.7726  0.2229
 3180TIP3    H131175   6.484   0.593   0.129 -0.1080 -0.3101  1.1201
 3180TIP3    H231176   6.387   0.506   0.052 -0.1294  0.5916  0.1121
 3181TIP3   OH231177   2.657   3.964   8.505 -0.4505 -0.0693  0.0703
 3181TIP3    H131178   2.666   3.870   8.493 -1.7196 -0.1190 -0.6268
 3181TIP3    H231179   2.610   3.994   8.428 -0.2563  1.1076  0.3918
 3182TIP3   OH231180   0.549   3.872   1.344 -0.9001 -0.0391 -0.2254
 3182TIP3    H131181   0.472   3.920   1.373  0.2437  0.8205  1.5804
 3182TIP3    H231182   0.520   3.781   1.340 -2.1944  0.3568 -0.3049
 3183TIP3   OH231183   0.423   1.274   7.565 -0.5811  0.2123 -0.3196
 3183TIP3    H131184   0.456   1.213   7.498 -1.9072 -1.2853  0.3230
 3183TIP3    H231185   0.439   1.361   7.528  2.3207 -0.4366 -0.8371
 3184TIP3   OH231186   5.072   0.553   7.673  0.1799  0.2627 -0.1467
 3184TIP3    H131187   5.056   0.518   7.761 -0.7387 -1.7388 -1.0470
 3184TIP3    H231188   5.065   0.647   7.683 -1.5624 -0.0025  1.6351
 3185TIP3   OH231189   4.034   2.619   0.952 -0.3440  0.5647  0.0123
 3185TIP3    H131190   4.091   2.664   0.890 -0.0067  0.2673  0.1014
 3185TIP3    H231191   4.080   2.537   0.972 -0.7848  0.3389  0.1152
 3186TIP3   OH231192   0.428   5.459   8.500 -0.0778  0.2059  0.0571
 3186TIP3    H131193   0.437   5.413   8.416 -0.4587  0.6160 -0.2117
 3186TIP3    H231194   0.343   5.430   8.534  0.8980 -1.4571  1.2362
 3187TIP3   OH231195   3.612   3.085   8.244 -0.1762  0.3509 -0.2359
 3187TIP3    H131196   3.631   2.991   8.242  1.1562  0.6201 -0.6957
 3187TIP3    H231197   3.603   3.106   8.337  1.2224  0.0915 -0.0345
 3188TIP3   OH231198   6.414   3.168   1.867  0.2193  0.2926  0.0525
 3188TIP3    H131199   6.321   3.165   1.844  0.1994 -0.1272  0.1746
 3188TIP3    H231200   6.421   3.112   1.945  0.5471  0.4502  0.1390
 3189TIP3   OH231201   4.969   6.887   7.301  0.2862 -0.1227 -0.4592
 3189TIP3    H131202   5.029   6.956   7.275  0.0126 -0.0130 -0.8065
 3189TIP3    H231203   5.014   6.841   7.372  1.2796 -0.7739 -1.4863
 3190TIP3   OH231204   0.158   5.785   7.139 -0.1835 -0.0917  0.3446
 3190TIP3    H131205   0.112   5.839   7.076  1.5614  1.8126  0.6089
 3190TIP3    H231206   0.244   5.770   7.100  0.8024  0.8294  2.0507
 3191TIP3   OH231207   5.175   5.463   1.132 -0.6478 -0.4816  0.0971
 3191TIP3    H131208   5.182   5.376   1.093 -1.8178 -0.0261 -1.2032
 3191TIP3    H231209   5.221   5.521   1.071  1.2459 -0.3141  1.5926
 3192TIP3   OH231210   4.488   6.208   1.093 -0.2563 -0.2799 -0.2164
 3192TIP3    H131211   4.574   6.241   1.121 -0.6751 -0.5609  1.4982
 3192TIP3    H231212   4.441   6.286   1.063 -0.0658  0.1909  0.6593
 3193TIP3   OH231213   1.910   3.443   6.608 -0.2390 -0.1385 -0.6857
 3193TIP3    H131214   1.880   3.352   6.600 -0.2536 -0.1571 -0.4237
 3193TIP3    H231215   1.996   3.443   6.567 -0.4467 -0.1641 -1.1222
 3194TIP3   OH231216   0.547   3.575   8.108  0.2089 -0.4662 -0.1017
 3194TIP3    H131217   0.581   3.591   8.197 -1.0527 -0.3318  0.3764
 3194TIP3    H231218   0.560   3.658   8.062  0.8492 -0.5295 -0.0452
 3195TIP3   OH231219   5.958   3.727   7.226 -0.5341 -0.1014 -0.4475
 3195TIP3    H131220   5.880   3.733   7.171 -0.2368 -1.4699 -1.0586
 3195TIP3    H231221   6.028   3.765   7.173 -0.7318  0.9370  0.0194
 3196TIP3   OH231222   2.541   3.908   1.723  0.3712  0.5300 -0.3908
 3196TIP3    H131223   2.522   3.963   1.799  0.3155  0.3254 -0.2574
 3196TIP3    H231224   2.602   3.960   1.670  1.0345  0.3476  0.1792
 3197TIP3   OH231225   6.456   0.694   7.124  0.5044 -0.4871  0.2919
 3197TIP3    H131226   6.407   0.637   7.065  0.3538 -0.4245  0.3577
 3197TIP3    H231227   6.502   0.633   7.183  1.1051 -0.5689 -0.2451
 3198TIP3   OH231228   1.815   4.168   1.922 -0.4225 -0.8693  0.6884
 3198TIP3    H131229   1.865   4.197   1.845 -1.5399  0.1267  0.2986
 3198TIP3    H231230   1.882   4.150   1.989  0.4676  0.3177  0.1598
 3199TIP3   OH231231   2.286   6.527   1.424  0.6375 -0.4394  0.3636
 3199TIP3    H131232   2.355   6.567   1.371  1.3807 -0.1729  1.5015
 3199TIP3    H231233   2.232   6.600   1.453  0.7417 -0.4925  0.6911
 3200TIP3   OH231234   1.577   0.556   7.606  0.2626 -0.4501 -0.3951
 3200TIP3    H131235   1.628   0.479   7.579  0.4532  0.1398 -1.7383
 3200TIP3    H231236   1.486   0.529   7.595  0.2855 -0.9853  0.5787
 3201TIP3   OH231237   1.620   2.578   6.448 -0.4253  0.6362 -0.0345
 3201TIP3    H131238   1.659   2.519   6.383  2.0053  1.6404  0.4025
 3201TIP3    H231239   1.550   2.623   6.400 -0.4641 -0.5557 -1.1592
 3202TIP3   OH231240   6.601   3.422   2.194 -0.5075 -0.1288 -0.0956
 3202TIP3    H131241   6.635   3.346   2.241  0.8533  0.5978  0.1748
 3202TIP3    H231242   6.655   3.495   2.225  0.5730  0.3790 -2.8352
 3203TIP3   OH231243   4.103   1.627   6.562  0.2938  0.3178 -0.1857
 3203TIP3    H131244   4.009   1.641   6.578 -0.1485 -2.2346 -0.0170
 3203TIP3    H231245   4.131   1.703   6.512 -1.0984  2.7511  2.3981
 3204TIP3   OH231246   0.911   0.769   7.444  0.2008 -0.4492 -0.2531
 3204TIP3    H131247   0.943   0.818   7.369 -1.0478 -0.0993 -0.5809
 3204TIP3    H231248   0.871   0.691   7.406 -1.2511  0.1687 -0.0415
 3205TIP3   OH231249   0.836   3.836   0.346  0.3417  0.2653 -0.0423
 3205TIP3    H131250   0.758   3.845   0.292  0.5792  0.2414 -0.3968
 3205TIP3    H231251   0.883   3.919   0.336  1.2205 -0.3344 -1.2245
 3206TIP3   OH231252   6.630   2.315   0.296  0.0537  0.0518 -0.3153
 3206TIP3    H131253   6.655   2.328   0.387 -1.0808 -0.2119  0.0467
 3206TIP3    H231254   6.631   2.403   0.257 -1.1849  0.4191  0.4242
 3207TIP3   OH231255   1.219   5.942   7.792  0.0437  0.5781  0.3809
 3207TIP3    H131256   1.201   5.996   7.870 -3.4876  0.4775 -0.1963
 3207TIP3    H231257   1.133   5.925   7.755  1.4469 -1.3219 -2.3088
 3208TIP3   OH231258   5.550   0.966   1.000  0.0732 -0.2132 -0.0235
 3208TIP3    H131259   5.485   0.917   1.051 -0.6376  0.9948  0.2757
 3208TIP3    H231260   5.589   0.900   0.942 -1.9821 -0.8588 -0.7970
 3209TIP3   OH231261   0.987   2.829   7.514  0.1876  0.6719 -0.4575
 3209TIP3    H131262   1.039   2.749   7.514 -1.7539 -0.7007  1.4945
 3209TIP3    H231263   0.996   2.863   7.425  1.3129 -1.5521 -1.2648
 3210TIP3   OH231264   2.932   2.662   0.649  0.1671 -0.0615 -0.0806
 3210TIP3    H131265   2.965   2.752   0.659 -1.9984  0.8430 -0.6614
 3210TIP3    H231266   2.968   2.616   0.725  2.3452  0.9303 -0.4154
 3211TIP3   OH231267   3.903   3.174   7.848  0.2988 -0.3629 -0.5296
 3211TIP3    H131268   3.844   3.162   7.922  0.8706  0.2781  0.0492
 3211TIP3    H231269   3.847   3.173   7.771 -0.6537  1.4753  0.0836
 3212TIP3   OH231270   3.155   3.921   8.487 -0.2931  0.2693  0.0105
 3212TIP3    H131271   3.202   3.906   8.569 -1.0294  2.6231  0.9352
 3212TIP3    H231272   3.194   4.000   8.451 -0.1985 -0.5566 -1.8152
 3213TIP3   OH231273   0.051   6.626   0.010 -0.3522  0.0628  0.0989
 3213TIP3    H131274  -0.008   6.700   0.025 -1.0723 -0.4781 -0.0094
 3213TIP3    H231275   0.046   6.611  -0.084  1.4452  1.2191 -0.2216
 3214TIP3   OH231276   5.805   6.831   8.220 -0.4935 -1.1584  0.1293
 3214TIP3    H131277   5.839   6.742   8.226  1.1125 -0.5904 -0.2198
 3214TIP3    H231278   5.855   6.872   8.149 -1.7924 -0.2165 -0.2919
 3215TIP3   OH231279   5.536   5.615   5.874 -0.0126  0.3037 -0.6232
 3215TIP3    H131280   5.552   5.558   5.799  1.1722  0.2751 -0.3762
 3215TIP3    H231281   5.489   5.690   5.838 -0.5222 -0.2621 -1.1640
 3216TIP3   OH231282   5.955   1.039   1.107  0.7450  0.2723  0.3810
 3216TIP3    H131283   6.028   1.006   1.159  1.8102 -0.5549 -1.5225
 3216TIP3    H231284   5.885   0.976   1.121  1.4920 -0.7212 -0.2313
 3217TIP3   OH231285   4.426   1.652   7.911  0.3521 -0.1264 -0.5303
 3217TIP3    H131286   4.397   1.704   7.986 -2.3148 -2.3649  0.1551
 3217TIP3    H231287   4.518   1.677   7.898  0.3637  1.6874  2.2747
 3218TIP3   OH231288   0.732   1.027   0.749  0.8689  0.8480  0.2520
 3218TIP3    H131289   0.709   1.034   0.841 -2.8847  0.6963 -0.5193
 3218TIP3    H231290   0.792   0.952   0.745 -1.8894 -1.6786  2.2232
 3219TIP3   OH231291   4.760   4.978   7.023 -0.2713 -0.7692 -0.5424
 3219TIP3    H131292   4.819   4.973   7.099 -1.1780 -2.2325  0.1189
 3219TIP3    H231293   4.813   4.944   6.951  0.2081 -0.5425 -0.3055
 3220TIP3   OH231294   5.996   6.530   1.277 -0.3392  0.0711 -0.4129
 3220TIP3    H131295   6.058   6.474   1.232  0.6533  1.2873 -0.6243
 3220TIP3    H231296   5.922   6.473   1.298  0.8272 -1.4012 -0.1821
 3221TIP3   OH231297   0.218   2.403   8.669 -0.3094 -0.0320  0.3594
 3221TIP3    H131298   0.221   2.308   8.663  1.0019  0.0595 -1.2163
 3221TIP3    H231299   0.205   2.432   8.578 -1.4907  1.2798  0.9095
 3222TIP3   OH231300   0.382   5.571   1.467 -0.2655  0.6861  0.3985
 3222TIP3    H131301   0.382   5.615   1.552  0.6866 -0.7019  1.1681
 3222TIP3    H231302   0.301   5.520   1.466  0.3143 -0.2843  1.0509
 3223TIP3   OH231303   0.649   2.083   7.163 -0.2811 -0.1227  0.6480
 3223TIP3    H131304   0.633   2.005   7.216 -0.8568 -0.7562 -0.4257
 3223TIP3    H231305   0.719   2.058   7.102 -1.2303 -0.2051 -0.4530
 3224TIP3   OH231306   0.963   5.082   0.356  0.0738 -0.0937  0.3658
 3224TIP3    H131307   0.919   5.022   0.295  0.6987  1.2305 -1.4483
 3224TIP3    H231308   0.949   5.169   0.319  0.4011  0.7915  2.1973
 3225TIP3   OH231309   2.615   0.266   1.770  0.1662 -0.0681  0.2510
 3225TIP3    H131310   2.522   0.247   1.768  0.1960 -0.2030 -0.0534
 3225TIP3    H231311   2.654   0.201   1.710  0.5094 -0.3244  0.7426
 3226TIP3   OH231312   6.520   4.162   0.744  0.2988  0.0095  0.0513
 3226TIP3    H131313   6.515   4.097   0.815  1.3125  1.0037  1.0731
 3226TIP3    H231314   6.612   4.189   0.742  0.1351  0.5399 -1.1674
 3227TIP3   OH231315   6.109   4.940   0.572  0.3509  0.3306  0.5845
 3227TIP3    H131316   6.111   4.896   0.656 -0.9386  0.3866  0.6556
 3227TIP3    H231317   6.159   4.883   0.514 -0.5823 -0.8135  0.8725
 3228TIP3   OH231318   3.700   2.591   2.378 -0.2046 -0.0240 -0.7412
 3228TIP3    H131319   3.605   2.583   2.385 -0.1583 -2.0827 -1.8071
 3228TIP3    H231320   3.733   2.502   2.391  1.4893  0.3945 -1.8006
 3229TIP3   OH231321   6.557   6.849   8.268  0.1276  0.3706  0.5457
 3229TIP3    H131322   6.583   6.941   8.278 -2.2038  1.1921 -0.2536
 3229TIP3    H231323   6.554   6.836   8.173  2.4869 -1.2448  0.6061
 3230TIP3   OH231324   4.347   2.647   8.399 -0.6382 -0.1808  0.5841
 3230TIP3    H131325   4.380   2.563   8.431  1.3034  0.3677  0.1219
 3230TIP3    H231326   4.252   2.637   8.401 -0.4634 -2.2187  0.9596
 3231TIP3   OH231327   4.368   3.665   0.512  0.4111 -0.0904 -0.6341
 3231TIP3    H131328   4.323   3.582   0.529  2.8043 -1.7033 -1.6444
 3231TIP3    H231329   4.307   3.715   0.458 -1.4820 -0.7299  0.7979
 3232TIP3   OH231330   0.674   0.798   6.756  0.1240  0.0915  0.7313
 3232TIP3    H131331   0.674   0.735   6.683  1.2789 -0.8001  1.4618
 3232TIP3    H231332   0.591   0.843   6.748 -0.3914 -0.9753 -0.3091
 3233TIP3   OH231333   3.473   3.734   7.920  0.9950 -0.3400  0.7535
 3233TIP3    H131334   3.428   3.683   7.988 -0.6248  0.3190  0.2272
 3233TIP3    H231335   3.457   3.684   7.839  3.4242 -1.4493  0.8798
 3234TIP3   OH231336   3.577   3.136   0.560 -0.4101 -0.3413  0.1546
 3234TIP3    H131337   3.496   3.085   0.558 -0.3917 -0.3631 -2.1365
 3234TIP3    H231338   3.560   3.209   0.501  0.4913  0.9062  1.3684
 3235TIP3   OH231339   4.369   2.399   7.836 -0.3759  0.3661  0.0570
 3235TIP3    H131340   4.327   2.484   7.848  1.5945  1.6626 -1.7340
 3235TIP3    H231341   4.430   2.391   7.909  0.0037  0.8419 -0.2111
 3236TIP3   OH231342   2.757   4.848   1.181 -0.1192 -1.1414  0.0327
 3236TIP3    H131343   2.807   4.849   1.099  1.2213 -1.7176  0.8121
 3236TIP3    H231344   2.798   4.780   1.234 -0.4901 -0.3028  1.4650
 3237TIP3   OH231345   1.021   1.402   2.214  0.5292  0.2464 -0.3151
 3237TIP3    H131346   0.976   1.455   2.149 -0.0316  0.4218  0.2102
 3237TIP3    H231347   1.106   1.444   2.224 -0.1378  1.4487  0.5636
 3238TIP3   OH231348   5.339   3.461   2.232  0.2412 -0.6459  0.4880
 3238TIP3    H131349   5.342   3.496   2.143  1.1935 -1.3384  0.2399
 3238TIP3    H231350   5.426   3.479   2.268  0.2498 -1.4181  0.8669
 3239TIP3   OH231351   0.202   2.679   2.181  0.0335 -0.0811 -0.0500
 3239TIP3    H131352   0.147   2.705   2.255 -2.3033 -2.8589 -0.6450
 3239TIP3    H231353   0.165   2.727   2.106 -1.3700 -1.5653 -0.3576
 3240TIP3   OH231354   3.788   4.511   6.891 -0.0969 -0.6761 -0.1396
 3240TIP3    H131355   3.797   4.583   6.829 -2.1036  0.7942  1.1459
 3240TIP3    H231356   3.747   4.441   6.840 -0.9089  0.1908 -0.7176
 3241TIP3   OH231357   2.393   0.952   6.791  0.1744  0.2568 -0.6787
 3241TIP3    H131358   2.449   0.947   6.713 -0.3815 -1.0363 -1.0291
 3241TIP3    H231359   2.344   0.870   6.790  1.4097 -0.6226  2.0153
 3242TIP3   OH231360   4.294   0.665   0.482 -0.1034 -0.1141  0.5201
 3242TIP3    H131361   4.299   0.666   0.577 -1.3184 -0.9803  0.6112
 3242TIP3    H231362   4.202   0.684   0.462 -0.2539 -1.5978 -0.4004
 3243TIP3   OH231363   5.883   1.579   1.027  0.1003 -0.4187  0.0284
 3243TIP3    H131364   5.956   1.582   1.089 -0.9282 -0.2990  1.2835
 3243TIP3    H231365   5.827   1.652   1.053  0.0663  0.1891 -1.6258
 3244TIP3   OH231366   1.478   4.045   6.923  0.6527  0.2442 -0.4151
 3244TIP3    H131367   1.438   3.994   6.853 -2.7774 -0.5687  1.8875
 3244TIP3    H231368   1.417   4.117   6.938  1.1815  0.3185  1.7628
 3245TIP3   OH231369   1.114   3.628   0.949  0.2739  0.2089  0.5712
 3245TIP3    H131370   1.066   3.603   1.027  0.1975 -0.4843  0.3037
 3245TIP3    H231371   1.075   3.578   0.878 -1.9892  3.3010 -0.5955
 3246TIP3   OH231372   4.593   5.820   1.652 -0.7921 -0.8328  0.0022
 3246TIP3    H131373   4.523   5.835   1.715 -0.9270 -2.5225  0.2931
 3246TIP3    H231374   4.551   5.831   1.567 -0.6738  1.1630  0.1521
 3247TIP3   OH231375   1.362   3.806   6.171 -0.7657  0.1852  0.2071
 3247TIP3    H131376   1.434   3.776   6.115 -0.2885 -0.5584  1.1981
 3247TIP3    H231377   1.284   3.763   6.136 -0.3546 -0.8499  0.5394
 3248TIP3   OH231378   0.663   1.113   6.854 -0.4107 -0.3878  0.2529
 3248TIP3    H131379   0.586   1.065   6.824 -0.8117  0.4380 -0.0671
 3248TIP3    H231380   0.650   1.122   6.948  0.5814 -2.5041  0.6566
 3249TIP3   OH231381   6.340   1.742   5.627 -0.0491 -0.0319  0.4985
 3249TIP3    H131382   6.303   1.752   5.714  0.0103 -1.9011  0.7774
 3249TIP3    H231383   6.267   1.762   5.568  0.1237  2.0694  0.8965
 3250TIP3   OH231384   2.459   3.407   6.922 -0.1898 -0.2686  0.4791
 3250TIP3    H131385   2.407   3.444   6.993 -0.9620  1.2127 -0.7972
 3250TIP3    H231386   2.407   3.423   6.844  0.7726 -1.5941 -0.4660
 3251TIP3   OH231387   5.377   3.622   7.885 -0.0321  0.2109  0.8431
 3251TIP3    H131388   5.442   3.652   7.949 -1.0887  1.6499  1.3182
 3251TIP3    H231389   5.293   3.634   7.930 -0.6952 -0.5527 -0.1521
 3252TIP3   OH231390   4.321   2.953   1.921  0.1955 -0.4071  0.3021
 3252TIP3    H131391   4.250   2.951   1.856  0.0575  0.3525  0.4216
 3252TIP3    H231392   4.323   2.864   1.956 -0.6400 -0.4681  0.2225
 3253TIP3   OH231393   1.802   5.411   0.084  0.7706 -0.2715 -0.4568
 3253TIP3    H131394   1.854   5.341   0.124  1.9686 -0.3064 -1.9982
 3253TIP3    H231395   1.769   5.372   0.003  0.0914  0.4426 -0.5343
 3254TIP3   OH231396   0.392   4.534   2.339 -0.2420 -0.7413 -0.2981
 3254TIP3    H131397   0.467   4.570   2.387 -0.8229 -0.2524  0.2603
 3254TIP3    H231398   0.387   4.443   2.368 -0.8558 -0.3391  0.9560
 3255TIP3   OH231399   2.437   5.468   0.091  0.7538 -0.6796  0.5984
 3255TIP3    H131400   2.420   5.471  -0.003  1.9888 -2.2145  0.2909
 3255TIP3    H231401   2.380   5.399   0.124 -0.4451  0.5431  1.2017
 3256TIP3   OH231402   2.603   3.632   1.817 -0.1790 -0.8989  0.4673
 3256TIP3    H131403   2.668   3.657   1.752 -0.1294 -3.4416 -0.5892
 3256TIP3    H231404   2.520   3.666   1.782  0.1091 -0.5894  0.0733
 3257TIP3   OH231405   0.533   6.617   0.680  0.3392  0.3421  0.7894
 3257TIP3    H131406   0.560   6.555   0.613  0.2463  0.7129  0.4067
 3257TIP3    H231407   0.613   6.662   0.705  0.6244 -0.7404  1.9195
 3258TIP3   OH231408   1.703   4.868   0.675 -0.3519 -0.2587  0.2818
 3258TIP3    H131409   1.623   4.860   0.623 -0.5398 -0.8906  0.6557
 3258TIP3    H231410   1.676   4.912   0.755  0.2274  2.1054 -0.7573
 3259TIP3   OH231411   1.078   2.306   0.963  0.3586  0.3207 -0.5392
 3259TIP3    H131412   1.071   2.364   1.039  1.5589 -2.0077  1.4742
 3259TIP3    H231413   1.025   2.229   0.986 -4.0071  1.6389 -4.4931
 3260TIP3   OH231414   1.488   4.289   1.684  0.4649 -0.1061 -0.0119
 3260TIP3    H131415   1.555   4.241   1.636 -0.2214 -0.6685 -0.4233
 3260TIP3    H231416   1.535   4.364   1.722  1.3105 -0.4666 -0.3202
 3261TIP3   OH231417   5.064   6.568   0.993  0.0314 -0.2326  0.0742
 3261TIP3    H131418   5.035   6.654   1.023  1.2843  0.1370  0.3064
 3261TIP3    H231419   5.033   6.561   0.903 -0.8243  0.0826  0.3344
 3262TIP3   OH231420   6.633   0.700   6.857  0.2955  0.1046 -0.1710
 3262TIP3    H131421   6.575   0.773   6.877 -0.3104 -0.0182 -1.4426
 3262TIP3    H231422   6.699   0.702   6.927 -0.4672  1.0530  0.5357
 3263TIP3   OH231423   3.439   5.574   7.831 -0.0143 -0.2723 -0.0142
 3263TIP3    H131424   3.381   5.501   7.853 -0.3667  0.2026  0.6623
 3263TIP3    H231425   3.383   5.634   7.782  0.1509 -0.2334 -0.1555
 3264TIP3   OH231426   2.075   5.045   8.173 -0.0588  0.4359  0.0180
 3264TIP3    H131427   2.104   5.024   8.262  0.1295 -0.9291 -0.3367
 3264TIP3    H231428   2.097   5.137   8.161 -1.2708  1.0052  1.8433
 3265TIP3   OH231429   3.754   2.062   8.581  0.5433 -0.6704 -0.0460
 3265TIP3    H131430   3.679   2.015   8.543 -0.7835  0.4818  1.0491
 3265TIP3    H231431   3.775   2.129   8.516 -1.3162  0.8940  0.9030
 3266TIP3   OH231432   4.107   1.613   2.107 -0.6044  0.1137 -0.2930
 3266TIP3    H131433   4.190   1.617   2.154 -0.8149 -4.0645  0.8175
 3266TIP3    H231434   4.045   1.658   2.164  0.2959  0.5155  0.3886
 3267TIP3   OH231435   5.183   6.119   0.234 -0.7326 -0.0071  0.4672
 3267TIP3    H131436   5.097   6.156   0.253 -1.1640 -0.1624 -1.1059
 3267TIP3    H231437   5.170   6.024   0.237 -0.7655 -0.0318 -0.4203
 3268TIP3   OH231438   2.102   4.676   1.848  0.0089 -0.4789 -0.0730
 3268TIP3    H131439   2.075   4.609   1.785 -2.0152  0.2529 -0.0485
 3268TIP3    H231440   2.022   4.698   1.896  0.7375  1.5285  0.3101
 3269TIP3   OH231441   1.098   0.570   8.454 -0.2803  0.4179  0.5148
 3269TIP3    H131442   1.101   0.654   8.501  0.1506 -0.0286  1.3114
 3269TIP3    H231443   1.187   0.559   8.420 -0.3240  0.2580  0.4541
 3270TIP3   OH231444   3.441   2.622   2.383 -0.4364  0.1785 -0.0470
 3270TIP3    H131445   3.404   2.534   2.393 -1.6800  0.6655 -0.1079
 3270TIP3    H231446   3.390   2.661   2.311  0.9543  0.5176 -0.8808
 3271TIP3   OH231447   4.821   6.622   1.134  0.3081  0.1064 -0.3970
 3271TIP3    H131448   4.780   6.627   1.048  0.5229 -0.5622 -0.5418
 3271TIP3    H231449   4.863   6.537   1.136  0.0709 -0.0040  0.4799
 3272TIP3   OH231450   1.210   0.432   1.873  0.3028 -0.0381  0.3612
 3272TIP3    H131451   1.223   0.358   1.814  1.2193  0.1770  0.2791
 3272TIP3    H231452   1.200   0.507   1.815  0.6151  0.0844  0.4640
 3273TIP3   OH231453   0.296   4.605   0.067  0.0459  0.2664 -0.8452
 3273TIP3    H131454   0.258   4.687   0.035 -3.5839 -0.9393 -0.0851
 3273TIP3    H231455   0.287   4.545  -0.007  0.0454 -0.1677 -0.4931
 3274TIP3   OH231456   0.494   0.862   1.174 -0.1666 -0.0018 -0.7339
 3274TIP3    H131457   0.464   0.805   1.102 -1.3741 -1.2143  0.6439
 3274TIP3    H231458   0.417   0.914   1.196 -0.6570 -1.4455  1.2836
 3275TIP3   OH231459   4.097   6.433   0.424  0.4216  0.2969 -0.1823
 3275TIP3    H131460   4.076   6.518   0.462  0.9811  1.0053 -1.3824
 3275TIP3    H231461   4.029   6.420   0.357  0.5982  0.0280 -0.3090
 3276TIP3   OH231462   3.763   3.954   7.466  0.1266 -0.0007 -0.2489
 3276TIP3    H131463   3.696   4.020   7.481 -1.2944 -1.8443  2.4600
 3276TIP3    H231464   3.716   3.882   7.422  0.8542 -0.4809 -0.2573
 3277TIP3   OH231465   2.025   5.813   0.859  0.3231  0.4080 -0.0994
 3277TIP3    H131466   2.025   5.854   0.772 -0.3354 -0.2078 -0.4064
 3277TIP3    H231467   2.067   5.729   0.845  0.2405  0.3214  0.1824
 3278TIP3   OH231468   2.051   5.991   1.062 -0.2671  0.1274 -0.1011
 3278TIP3    H131469   2.056   5.931   0.988 -0.1430  1.9092 -1.6294
 3278TIP3    H231470   2.018   5.939   1.135 -0.2310 -1.7236 -1.3695
 3279TIP3   OH231471   5.093   0.893   7.541  0.0924 -0.0608 -0.3561
 3279TIP3    H131472   5.176   0.846   7.534  0.3507  0.0318  1.5603
 3279TIP3    H231473   5.113   0.969   7.596 -1.2237  0.0660 -0.0250
 3280TIP3   OH231474   2.977   5.850   8.524  0.2313  0.1065  0.1635
 3280TIP3    H131475   2.941   5.771   8.485  0.4429  0.0275  0.1266
 3280TIP3    H231476   2.903   5.890   8.570  0.8112 -1.9462  3.1878
 3281TIP3   OH231477   5.558   1.651   7.647  0.4195 -0.6645 -0.3590
 3281TIP3    H131478   5.468   1.624   7.628 -0.1640 -1.4558  2.9617
 3281TIP3    H231479   5.606   1.569   7.659  1.4931 -0.2350 -1.4995
 3282TIP3   OH231480   5.574   4.788   1.203 -0.7577 -0.3834 -0.2321
 3282TIP3    H131481   5.665   4.815   1.212 -0.9015  0.2627 -0.6101
 3282TIP3    H231482   5.550   4.754   1.289 -0.2234 -0.3525 -0.0699
 3283TIP3   OH231483   6.571   6.831   1.799 -0.1243  0.2872  0.2933
 3283TIP3    H131484   6.517   6.757   1.826  2.1998 -3.1564 -3.3306
 3283TIP3    H231485   6.522   6.873   1.728 -0.4242  0.7515  0.7706
 3284TIP3   OH231486   4.966   6.672   1.636 -0.2718 -0.2953 -0.1773
 3284TIP3    H131487   4.984   6.761   1.666 -3.0312  0.1997  0.3020
 3284TIP3    H231488   4.929   6.628   1.713  0.2402 -1.5954 -0.6526
 3285TIP3   OH231489   3.829   4.544   0.775  0.1164 -0.3582  0.3990
 3285TIP3    H131490   3.884   4.518   0.700 -0.8453 -1.8763  0.1706
 3285TIP3    H231491   3.755   4.590   0.735  2.0291  3.5183  0.8251
 3286TIP3   OH231492   0.508   4.651   8.347 -0.7559 -0.0927  0.2647
 3286TIP3    H131493   0.554   4.708   8.409  3.2892 -1.8990 -0.7953
 3286TIP3    H231494   0.512   4.698   8.264  1.7132 -1.3173 -0.3947
 3287TIP3   OH231495   2.061   6.774   2.464  0.5469 -0.1528  0.3237
 3287TIP3    H131496   2.003   6.841   2.500  1.0952  1.2975 -1.3755
 3287TIP3    H231497   2.003   6.701   2.442 -0.2025  0.1344  1.2923
 3288TIP3   OH231498   3.564   3.865   1.670  0.0185 -0.8283  0.0531
 3288TIP3    H131499   3.591   3.914   1.748 -1.4317 -0.0994  0.1344
 3288TIP3    H231500   3.619   3.787   1.671  0.4882 -0.5200  1.4504
 3289TIP3   OH231501   4.994   1.630   1.389  0.5398  1.0492 -0.0958
 3289TIP3    H131502   5.047   1.574   1.446 -1.0846 -1.5508 -0.9646
 3289TIP3    H231503   5.054   1.657   1.319  1.7195  1.5966  1.1028
 3290TIP3   OH231504   5.911   2.220   1.840 -0.6646  0.5422  0.6865
 3290TIP3    H131505   5.957   2.146   1.799  1.2134  1.5489  0.8772
 3290TIP3    H231506   5.853   2.180   1.904  0.0707 -0.7873  0.5491
 3291TIP3   OH231507   3.339   6.125   0.351 -0.8181  0.0678 -0.2307
 3291TIP3    H131508   3.406   6.089   0.293 -3.2254 -1.3990 -2.3126
 3291TIP3    H231509   3.258   6.123   0.299 -3.0401 -0.6711  2.9531
 3292TIP3   OH231510   0.461   2.610   6.514  0.0842 -0.3169 -0.3439
 3292TIP3    H131511   0.457   2.530   6.462 -1.4850 -0.6912  0.3029
 3292TIP3    H231512   0.553   2.618   6.538  0.1410 -2.3975  0.2922
 3293TIP3   OH231513   6.749   5.656   7.592 -0.0299 -0.1694  0.8084
 3293TIP3    H131514   6.781   5.638   7.503  1.9208  1.0915  1.1869
 3293TIP3    H231515   6.675   5.716   7.579 -1.0808 -1.5700 -0.0110
 3294TIP3   OH231516   1.807   6.568   0.923 -0.0138 -0.6111  0.3946
 3294TIP3    H131517   1.855   6.519   0.856 -0.2743 -1.5119  0.8385
 3294TIP3    H231518   1.868   6.634   0.953  0.0401 -0.0670 -0.8596
 3295TIP3   OH231519   1.499   2.635   7.484 -0.6206 -0.4221  0.3024
 3295TIP3    H131520   1.500   2.680   7.569 -1.9373 -1.7066  1.0319
 3295TIP3    H231521   1.478   2.544   7.505 -1.5754 -0.6364 -1.4541
 3296TIP3   OH231522   6.606   1.195   6.207 -0.6857  0.9353  0.0900
 3296TIP3    H131523   6.699   1.192   6.183 -0.3938  0.1418  1.2630
 3296TIP3    H231524   6.560   1.206   6.123  0.5168  2.9998 -0.3739
 3297TIP3   OH231525   6.822   4.269   0.864  0.6257  0.1289  0.6790
 3297TIP3    H131526   6.859   4.357   0.870  1.5630 -0.2821  1.3011
 3297TIP3    H231527   6.781   4.255   0.949 -1.5145  0.7840 -0.1905
 3298TIP3   OH231528   4.035   1.746   8.075  0.3744  0.3826 -0.0664
 3298TIP3    H131529   4.007   1.821   8.127  0.2872 -0.3542  0.9659
 3298TIP3    H231530   4.061   1.784   7.991 -1.4403  1.3785 -0.2322
 3299TIP3   OH231531   2.345   1.608   8.583  0.5976 -0.7194  0.5288
 3299TIP3    H131532   2.259   1.602   8.624  0.8608  1.8059  1.6380
 3299TIP3    H231533   2.404   1.564   8.644  0.3892 -0.6339  0.7917
 3300TIP3   OH231534   3.494   5.490   0.309 -0.2336 -0.2821 -1.2442
 3300TIP3    H131535   3.547   5.430   0.257 -0.0421 -2.3732  1.1693
 3300TIP3    H231536   3.407   5.451   0.310 -0.6355  0.5791 -1.2763
 3301TIP3   OH231537   2.427   3.920   0.109  0.7005  0.1869 -0.2916
 3301TIP3    H131538   2.402   3.921   0.016  1.8622 -0.6234 -0.6387
 3301TIP3    H231539   2.372   3.852   0.148  1.3220 -0.5906 -0.7421
 3302TIP3   OH231540   4.516   4.144   7.160 -0.2077 -0.1719  0.0923
 3302TIP3    H131541   4.577   4.175   7.228 -0.6448  1.6835 -0.2971
 3302TIP3    H231542   4.506   4.051   7.178  0.0458  0.1583  2.2981
 3303TIP3   OH231543   4.597   3.212   8.462 -0.1207  0.0214  0.0744
 3303TIP3    H131544   4.683   3.254   8.473 -0.6147  1.0192  0.2048
 3303TIP3    H231545   4.608   3.157   8.384  1.5089 -2.2056  1.7512
 3304TIP3   OH231546   3.343   1.424   8.616  0.2690  0.4535  0.2228
 3304TIP3    H131547   3.339   1.519   8.601 -1.4603  0.3115 -0.4426
 3304TIP3    H231548   3.434   1.408   8.640  1.7975  1.6834 -3.8073
 3305TIP3   OH231549   4.360   0.124   7.344 -0.0667  0.1767 -0.4492
 3305TIP3    H131550   4.424   0.161   7.283  0.1476 -0.7096 -0.7835
 3305TIP3    H231551   4.377   0.030   7.342  1.1154  0.2400  2.3092
 3306TIP3   OH231552   3.211   6.173   7.859 -0.0221 -0.4622 -0.4043
 3306TIP3    H131553   3.195   6.230   7.934  1.7091 -2.1316  1.3264
 3306TIP3    H231554   3.125   6.140   7.835 -0.5886 -0.0530  0.9748
 3307TIP3   OH231555   5.830   5.960   0.068  0.5637 -0.2455  0.0713
 3307TIP3    H131556   5.865   5.889   0.123  0.5167 -0.5457 -0.2782
 3307TIP3    H231557   5.868   6.040   0.105  1.8605 -0.5834 -0.4528
 3308TIP3   OH231558   6.483   4.932   8.537  0.5843 -0.3478  0.3672
 3308TIP3    H131559   6.464   5.007   8.481  1.8769  0.1203  0.5166
 3308TIP3    H231560   6.423   4.864   8.508  1.4048 -0.2164 -1.7910
 3309TIP3   OH231561   2.218   0.026   1.878 -0.0346 -0.2787  0.4069
 3309TIP3    H131562   2.262  -0.043   1.926 -0.2423 -1.3159 -0.8397
 3309TIP3    H231563   2.132  -0.010   1.857 -0.4040  0.6207  0.3370
 3310TIP3   OH231564   2.022   3.800   7.151  0.5660  0.2479 -0.0860
 3310TIP3    H131565   2.000   3.782   7.060  1.2285 -0.4733 -0.1184
 3310TIP3    H231566   2.073   3.724   7.179 -0.1478  0.1774  1.0718
 3311TIP3   OH231567   4.095   0.123   0.305 -0.1918 -0.0881  0.1739
 3311TIP3    H131568   4.165   0.058   0.301 -0.5700 -0.4497 -0.9772
 3311TIP3    H231569   4.014   0.072   0.306 -0.4723  0.3191  1.6647
 3312TIP3   OH231570   5.471   1.652   5.741  0.2708 -0.3818 -0.8859
 3312TIP3    H131571   5.377   1.643   5.756  0.4431 -0.6706  0.1356
 3312TIP3    H231572   5.483   1.627   5.649 -0.5485 -1.1237 -0.8070
 3313TIP3   OH231573   6.601   3.154   1.386  0.0795  0.0314  0.3901
 3313TIP3    H131574   6.678   3.098   1.400 -0.6081 -0.4109  2.6918
 3313TIP3    H231575   6.621   3.235   1.431 -0.2819  0.4252 -0.1445
 3314TIP3   OH231576   1.414   6.616   0.634  0.3551  0.0692 -0.0157
 3314TIP3    H131577   1.323   6.593   0.653  1.0476 -0.7616  2.6732
 3314TIP3    H231578   1.464   6.580   0.707  2.6482  2.0494 -0.4716
 3315TIP3   OH231579   4.224   2.680   6.795 -0.5024  0.3394  0.2559
 3315TIP3    H131580   4.154   2.640   6.847 -2.0451  1.9256 -0.4816
 3315TIP3    H231581   4.178   2.719   6.720  1.4760 -0.6323 -1.5654
 3316TIP3   OH231582   2.899   5.868   7.326 -0.6460  0.0562  0.6717
 3316TIP3    H131583   2.905   5.956   7.289  0.5036 -0.1668  0.2728
 3316TIP3    H231584   2.981   5.825   7.300 -1.7559 -1.5870 -0.3167
 3317TIP3   OH231585   1.549   3.983   1.559 -0.2193 -0.1018 -0.2035
 3317TIP3    H131586   1.491   3.963   1.633 -0.9606  1.7121 -0.2349
 3317TIP3    H231587   1.497   3.964   1.481 -1.0859  2.1256 -0.2373
 3318TIP3   OH231588   4.616   0.044   6.403  0.4386 -0.5413  0.4143
 3318TIP3    H131589   4.620  -0.050   6.422 -2.5753 -0.7657  0.4556
 3318TIP3    H231590   4.649   0.052   6.313 -1.0709 -1.9594 -0.3084
 3319TIP3   OH231591   3.610   3.738   7.285 -0.2231  0.4030 -0.0415
 3319TIP3    H131592   3.524   3.717   7.321  0.2305  1.4119  1.7527
 3319TIP3    H231593   3.592   3.773   7.198 -1.6475  0.7613  0.3816
 3320TIP3   OH231594   2.544   6.584   2.589  0.1165 -0.1217 -0.3901
 3320TIP3    H131595   2.516   6.631   2.668 -1.4027  0.2963 -1.1484
 3320TIP3    H231596   2.535   6.647   2.518 -0.0610 -0.9641 -1.1350
 3321TIP3   OH231597   0.705   5.752   7.727  0.2155  0.0167 -0.3977
 3321TIP3    H131598   0.775   5.771   7.790 -1.0548  0.4302  0.9528
 3321TIP3    H231599   0.642   5.699   7.777 -0.4906 -0.2638 -1.5526
 3322TIP3   OH231600   2.378   2.940   8.605 -0.1265 -0.0076  0.5403
 3322TIP3    H131601   2.396   2.886   8.528 -1.1609 -0.2704  0.4620
 3322TIP3    H231602   2.454   2.929   8.661  0.2159 -0.5690 -0.0249
 3323TIP3   OH231603   0.032   1.840   0.803 -0.0410 -0.3136  0.2685
 3323TIP3    H131604   0.089   1.768   0.777  0.5035  0.4044 -0.6090
 3323TIP3    H231605   0.037   1.902   0.730 -2.4620 -0.5016 -0.1539
 3324TIP3   OH231606   1.251   4.244   7.422 -0.1896 -0.3791  0.0285
 3324TIP3    H131607   1.220   4.306   7.489 -0.8677  0.0896 -0.7078
 3324TIP3    H231608   1.247   4.158   7.466 -0.1345 -0.0211  0.7526
 3325TIP3   OH231609   6.382   3.739   8.673  0.3293 -0.0357 -0.4177
 3325TIP3    H131610   6.340   3.824   8.690  1.2510  0.0150  1.9802
 3325TIP3    H231611   6.317   3.690   8.622 -1.3093  1.1751  0.4125
 3326TIP3   OH231612   1.785   3.828   8.102 -0.0396 -0.4465  0.3995
 3326TIP3    H131613   1.715   3.827   8.167 -0.4304 -0.1919 -0.0069
 3326TIP3    H231614   1.743   3.792   8.023 -0.3353  1.6608 -0.4646
 3327TIP3   OH231615   2.938   1.326   6.535  0.0263  0.2179 -0.6609
 3327TIP3    H131616   2.857   1.310   6.583  0.6420  1.3971  0.8638
 3327TIP3    H231617   2.919   1.296   6.446 -1.6251 -0.7556 -0.0333
 3328TIP3   OH231618   2.098   5.530   8.098 -0.0051 -0.4903 -0.2665
 3328TIP3    H131619   2.018   5.507   8.049  0.3308 -0.9518 -0.6069
 3328TIP3    H231620   2.164   5.542   8.030  0.2635 -0.2984  0.0307
 3329TIP3   OH231621   6.470   1.967   0.665 -0.2279  0.0518 -0.1085
 3329TIP3    H131622   6.476   1.970   0.760  0.9853  3.7489 -0.1316
 3329TIP3    H231623   6.535   1.901   0.639  0.6282  0.1709  1.5906
 3330TIP3   OH231624   6.404   3.611   0.954  0.0312  0.2601  0.2877
 3330TIP3    H131625   6.345   3.686   0.964 -0.8517 -0.4286  0.3251
 3330TIP3    H231626   6.420   3.604   0.860 -1.3075 -0.5677  0.1030
 3331TIP3   OH231627   4.345   4.305   8.135  0.7174  0.2226  0.0957
 3331TIP3    H131628   4.320   4.288   8.045 -1.9736 -0.9159  0.9551
 3331TIP3    H231629   4.418   4.245   8.152 -0.0753 -1.0309 -0.7703
 3332TIP3   OH231630   2.483   2.668   6.926  0.0115  0.1125  0.4225
 3332TIP3    H131631   2.435   2.679   6.844  0.5041 -2.1221 -0.2499
 3332TIP3    H231632   2.471   2.575   6.948 -0.3179  0.7084  3.0408
 3333TIP3   OH231633   4.472   5.605   0.311 -0.0165  0.3650  0.8266
 3333TIP3    H131634   4.420   5.565   0.380  0.2455  0.5435  1.1285
 3333TIP3    H231635   4.563   5.600   0.342  0.1795 -0.1519  0.2071
 3334TIP3   OH231636   3.503   4.504   1.977 -0.1686  0.2727  0.2695
 3334TIP3    H131637   3.488   4.510   2.071  0.2412  1.0466  0.2994
 3334TIP3    H231638   3.458   4.424   1.950 -1.3910  0.7186  0.9048
 3335TIP3   OH231639   4.317   1.760   1.253 -0.1778 -0.5361  0.7706
 3335TIP3    H131640   4.381   1.688   1.257 -1.5391 -1.8183  0.3860
 3335TIP3    H231641   4.339   1.807   1.173 -0.0406 -1.2842  0.3581
 3336TIP3   OH231642   0.546   5.885   0.200  0.2149 -0.3679 -0.5731
 3336TIP3    H131643   0.535   5.980   0.199  0.6742 -0.3127 -1.4773
 3336TIP3    H231644   0.596   5.866   0.121  1.6289 -1.1788  0.4580
 3337TIP3   OH231645   3.063   4.931   8.209  0.2455 -0.4427 -0.1573
 3337TIP3    H131646   3.121   4.909   8.135  2.0518 -0.3448  1.1691
 3337TIP3    H231647   2.988   4.871   8.199  0.7855 -0.9290 -1.6503
 3338TIP3   OH231648   4.395   0.054   0.435 -0.0369 -0.3790  0.5717
 3338TIP3    H131649   4.480   0.093   0.456 -0.2006 -1.5656  3.9652
 3338TIP3    H231650   4.333   0.126   0.448  0.2410  0.0318 -0.2416
 3339TIP3   OH231651   0.625   6.489   7.462  0.3454  0.2351 -0.2062
 3339TIP3    H131652   0.530   6.474   7.458  0.3887  0.0137 -0.4653
 3339TIP3    H231653   0.646   6.487   7.555  0.0632  0.4876 -0.1357
 3340TIP3   OH231654   6.251   3.633   1.679 -0.6438 -0.3251  0.3758
 3340TIP3    H131655   6.230   3.558   1.735 -0.2503 -0.5450  0.2359
 3340TIP3    H231656   6.308   3.596   1.611 -0.1684  0.1668  0.4987
 3341TIP3   OH231657   4.764   2.217   6.434 -0.3533  0.0618 -0.1913
 3341TIP3    H131658   4.837   2.155   6.443 -0.0200  0.5016  0.2029
 3341TIP3    H231659   4.795   2.296   6.478 -2.3198 -0.7700  2.9601
 3342TIP3   OH231660   6.269   1.246   7.643  0.2164 -0.4876  0.3037
 3342TIP3    H131661   6.219   1.242   7.561  0.4269  0.1046  0.1428
 3342TIP3    H231662   6.323   1.324   7.635  0.8082 -0.8453  0.6878
 3343TIP3   OH231663   4.485   4.025   6.853 -0.3362 -0.1390 -0.3230
 3343TIP3    H131664   4.553   3.988   6.798  0.8077  1.3361  0.0527
 3343TIP3    H231665   4.415   3.960   6.851  1.4397 -2.1717  0.0609
 3344TIP3   OH231666   4.747   3.217   0.101  0.6354 -0.3617 -0.5745
 3344TIP3    H131667   4.803   3.223   0.179 -0.2573 -1.5930  0.2018
 3344TIP3    H231668   4.804   3.179   0.034  1.3342  0.4535 -0.4708
 3345TIP3   OH231669   5.694   0.587   6.465 -0.5519  0.2124  0.2067
 3345TIP3    H131670   5.702   0.564   6.372 -1.7031 -2.7772  0.7374
 3345TIP3    H231671   5.605   0.620   6.474 -1.3476 -1.9127  0.6127
 3346TIP3   OH231672   3.400   4.419   0.783 -0.2383  0.5302 -0.4433
 3346TIP3    H131673   3.426   4.383   0.698 -0.0050  1.3398 -0.7264
 3346TIP3    H231674   3.402   4.344   0.842 -0.7701 -0.1283 -1.2216
 3347TIP3   OH231675   5.640   3.483   1.537 -0.2306 -0.7456 -0.1454
 3347TIP3    H131676   5.636   3.388   1.543 -0.0705 -0.7863 -0.6396
 3347TIP3    H231677   5.689   3.500   1.456  0.1707 -0.2453  0.1989
 3348TIP3   OH231678   0.687   5.722   0.712  0.0023 -0.3597  0.0494
 3348TIP3    H131679   0.731   5.706   0.628  1.7185 -1.1157  1.0264
 3348TIP3    H231680   0.714   5.810   0.737  0.7705 -0.7123  0.5083
 3349TIP3   OH231681   5.611   2.355   8.145  0.4361  0.2671  0.1274
 3349TIP3    H131682   5.615   2.280   8.086 -1.8542  0.3930 -0.2558
 3349TIP3    H231683   5.619   2.431   8.087 -1.6285  0.3872 -0.0495
 3350TIP3   OH231684   3.162   3.762   8.206 -0.2345 -0.3397 -0.1568
 3350TIP3    H131685   3.095   3.826   8.230  0.0971 -0.3485  0.8351
 3350TIP3    H231686   3.132   3.680   8.245 -0.1737 -0.5901 -0.6197
 3351TIP3   OH231687   0.277   3.943   7.305 -0.1804  0.8089  0.4807
 3351TIP3    H131688   0.321   3.925   7.222 -1.4830  0.6607 -0.1923
 3351TIP3    H231689   0.205   3.880   7.308  0.1243  0.5017  1.9535
 3352TIP3   OH231690   1.212   6.015   1.248 -0.0302  0.3170  0.2078
 3352TIP3    H131691   1.250   6.042   1.165  0.0223 -0.9511 -0.2104
 3352TIP3    H231692   1.118   6.033   1.240 -0.3462 -1.5854 -0.9237
 3353TIP3   OH231693   3.409   2.666   0.037 -0.5998 -0.5104  0.1464
 3353TIP3    H131694   3.434   2.679   0.128 -0.4349 -1.9619  0.3414
 3353TIP3    H231695   3.315   2.680   0.036 -0.7167 -1.1972  0.6986
 3354TIP3   OH231696   3.181   0.672   8.434  0.3361  0.3094  0.2751
 3354TIP3    H131697   3.153   0.754   8.474  2.9379  0.5873  1.7738
 3354TIP3    H231698   3.236   0.630   8.500 -1.5236 -3.1169 -0.1137
 3355TIP3   OH231699   2.841   1.210   0.248  0.0922 -0.0854 -0.0638
 3355TIP3    H131700   2.789   1.234   0.171 -1.2774 -1.1725  0.4955
 3355TIP3    H231701   2.807   1.265   0.318  0.8511  0.3823 -0.0475
 3356TIP3   OH231702   0.815   4.781   1.820 -0.1905 -0.4450  0.5799
 3356TIP3    H131703   0.786   4.810   1.906 -2.0880 -0.6660  0.0565
 3356TIP3    H231704   0.833   4.688   1.831 -0.6752 -0.5294  0.6919
 3357TIP3   OH231705   4.657   2.102   0.930 -0.0019 -0.0746  0.2313
 3357TIP3    H131706   4.744   2.143   0.927  0.5501 -1.0891  1.2612
 3357TIP3    H231707   4.662   2.033   0.863 -0.9442  1.4632 -1.5334
 3358TIP3   OH231708   3.727   5.595   6.466  0.1329 -0.3911  0.3173
 3358TIP3    H131709   3.792   5.539   6.423  2.1008  0.1300  2.4582
 3358TIP3    H231710   3.735   5.679   6.421 -1.1175 -1.0622 -1.2762
 3359TIP3   OH231711   6.478   2.726   1.967  0.0677  0.0095 -0.4262
 3359TIP3    H131712   6.568   2.695   1.971 -0.0657 -0.3920 -0.5008
 3359TIP3    H231713   6.431   2.659   1.917 -0.5650 -0.4748  0.7751
 3360TIP3   OH231714   4.909   3.359   7.812 -0.0582  0.4349  0.2725
 3360TIP3    H131715   4.843   3.352   7.881 -0.3854 -0.8724 -0.1503
 3360TIP3    H231716   4.960   3.278   7.818  2.7597  2.1512  1.7836
 3361TIP3   OH231717   5.668   2.212   6.119 -0.4265 -0.8119  0.1917
 3361TIP3    H131718   5.666   2.157   6.040  1.0151 -2.8878  1.4951
 3361TIP3    H231719   5.638   2.154   6.189 -0.0800  0.4632  1.4415
 3362TIP3   OH231720   1.900   1.544   7.467 -0.7252 -0.3477 -0.2113
 3362TIP3    H131721   1.870   1.508   7.384 -1.6748 -0.4291  0.1602
 3362TIP3    H231722   1.822   1.549   7.522 -0.3992  1.1263  0.1728
 3363TIP3   OH231723   3.558   0.301   0.739  0.0391  0.2561  0.1658
 3363TIP3    H131724   3.491   0.311   0.672 -1.5302 -3.3726  0.9911
 3363TIP3    H231725   3.640   0.292   0.691 -0.6670  0.4427 -1.0948
 3364TIP3   OH231726   1.814   3.540   2.071  0.2966 -0.0148 -0.4946
 3364TIP3    H131727   1.859   3.557   2.153  0.6747 -0.8617 -0.5199
 3364TIP3    H231728   1.881   3.552   2.004  0.6023 -1.6342 -0.5077
 3365TIP3   OH231729   5.965   1.098   1.963 -0.4934 -0.2342  0.4548
 3365TIP3    H131730   5.912   1.054   1.897 -2.0729  0.7860  0.9770
 3365TIP3    H231731   5.933   1.189   1.964  1.7344  0.6214  0.3517
 3366TIP3   OH231732   2.697   4.961   1.799 -0.1561 -0.4224 -0.1811
 3366TIP3    H131733   2.768   5.023   1.812  0.3997 -1.2500  0.8653
 3366TIP3    H231734   2.619   5.008   1.829  0.2088 -0.1208  0.3102
 3367TIP3   OH231735   2.273   1.960   2.346  0.1543 -0.5559 -0.2525
 3367TIP3    H131736   2.189   1.928   2.314 -0.2164 -1.0126  1.0834
 3367TIP3    H231737   2.268   2.055   2.339 -0.5454 -0.5705 -0.0582
 3368TIP3   OH231738   1.941   1.597   1.191 -0.0619  0.0212 -0.4027
 3368TIP3    H131739   1.913   1.513   1.228 -3.2060  0.9251 -0.4198
 3368TIP3    H231740   1.918   1.592   1.099 -1.0763  1.1312 -0.2434
 3369TIP3   OH231741   5.699   3.443   0.862  0.2593  1.1112 -0.2137
 3369TIP3    H131742   5.631   3.511   0.867  0.9879  1.7547  2.0643
 3369TIP3    H231743   5.670   3.385   0.791 -1.0748  3.0417 -1.3238
 3370TIP3   OH231744   0.707   3.672   8.307 -0.4045 -0.1246  0.3400
 3370TIP3    H131745   0.702   3.753   8.256  1.1893 -1.6503 -2.4927
 3370TIP3    H231746   0.742   3.699   8.392 -0.2582  2.2012 -0.4035
 3371TIP3   OH231747   5.630   4.751   0.732  0.3845 -0.1271  0.1582
 3371TIP3    H131748   5.606   4.702   0.811  1.2204 -1.6303 -0.4939
 3371TIP3    H231749   5.694   4.696   0.688 -1.2106 -0.0594 -2.4028
 3372TIP3   OH231750   6.335   2.737   0.475 -0.2249 -0.0590  0.0339
 3372TIP3    H131751   6.427   2.761   0.464  0.1423 -1.7689 -1.1810
 3372TIP3    H231752   6.335   2.675   0.547 -0.2836 -0.6788 -0.4906
 3373TIP3   OH231753   4.983   1.581   0.863  0.8442 -0.2693 -0.1204
 3373TIP3    H131754   5.074   1.557   0.882  1.4567 -0.1794 -2.6372
 3373TIP3    H231755   4.940   1.497   0.845  1.0156 -0.1477 -1.1459
 3374TIP3   OH231756   3.910   1.437   0.733 -0.0034  0.2010  0.6778
 3374TIP3    H131757   3.912   1.396   0.819 -0.1361 -0.4798  0.3659
 3374TIP3    H231758   3.998   1.425   0.697  0.6495  2.1857  1.4698
 3375TIP3   OH231759   3.346   5.125   7.629 -0.2783  0.0802  0.5694
 3375TIP3    H131760   3.408   5.197   7.619  0.7187 -0.6469  1.2139
 3375TIP3    H231761   3.359   5.096   7.720  0.6666 -2.0534 -0.1838
 3376TIP3   OH231762   3.745   4.068   6.394  0.0950  0.4777 -0.5113
 3376TIP3    H131763   3.677   4.095   6.456  0.5037 -0.6025  0.4545
 3376TIP3    H231764   3.795   4.001   6.441  0.6624 -0.1026 -1.8773
 3377TIP3   OH231765   1.943   5.707   7.309 -0.6215  0.1181  0.0230
 3377TIP3    H131766   1.955   5.643   7.380  1.0641 -0.2362 -0.5395
 3377TIP3    H231767   1.980   5.788   7.343 -0.1025  0.0290 -0.3129
 3378TIP3   OH231768   1.377   4.230   8.201  0.5309  0.0854  0.0820
 3378TIP3    H131769   1.397   4.290   8.129  0.3510 -0.7006 -0.6376
 3378TIP3    H231770   1.307   4.274   8.250  1.6104  1.2698  0.6155
 3379TIP3   OH231771   3.074   0.736   6.898  0.7882 -0.4728  0.2945
 3379TIP3    H131772   3.141   0.707   6.960 -0.2845  2.8142  3.3759
 3379TIP3    H231773   2.993   0.697   6.930  0.3861  0.3554  0.3174
 3380TIP3   OH231774   3.648   0.139   0.118  0.1327  0.0281 -0.5292
 3380TIP3    H131775   3.625   0.137   0.025  1.2270 -0.8343 -0.8038
 3380TIP3    H231776   3.581   0.194   0.158  0.4111  1.5386 -2.0376
 3381TIP3   OH231777   6.702   2.584   0.315  0.1132  0.2399  0.1664
 3381TIP3    H131778   6.737   2.668   0.285  0.3136  0.1934  0.2634
 3381TIP3    H231779   6.779   2.537   0.348  0.4307 -0.9214 -2.0208
 3382TIP3   OH231780   6.150   3.376   1.881 -0.8026  0.1003  0.1560
 3382TIP3    H131781   6.062   3.414   1.891 -1.3697 -0.9554 -0.6709
 3382TIP3    H231782   6.134   3.286   1.855  0.5370  0.0881 -0.6832
 3383TIP3   OH231783   2.955   0.082   0.705  0.0917 -0.5461 -0.5616
 3383TIP3    H131784   2.877   0.088   0.649  1.0501 -0.5449 -1.9236
 3383TIP3    H231785   2.985   0.173   0.714 -0.2648 -0.4977  0.2960
 3384TIP3   OH231786   2.384   3.155   0.535  0.3105  0.3433  0.2781
 3384TIP3    H131787   2.404   3.208   0.613 -0.8064 -0.6595  1.2989
 3384TIP3    H231788   2.317   3.093   0.566 -0.2136 -0.0280 -1.5187
 3385TIP3   OH231789   3.800   4.853   8.592 -0.0512  0.7361 -0.1307
 3385TIP3    H131790   3.775   4.762   8.609  1.2807  0.7021  2.1011
 3385TIP3    H231791   3.796   4.895   8.678  1.3491  2.2670 -0.7654
 3386TIP3   OH231792   2.558   5.708   7.902 -0.0057  0.3633  0.3124
 3386TIP3    H131793   2.587   5.744   7.986  2.4815 -0.2674 -0.1991
 3386TIP3    H231794   2.558   5.784   7.843 -1.1032  0.6800  0.6944
 3387TIP3   OH231795   3.190   3.944   7.460 -0.2500  0.7711 -0.2928
 3387TIP3    H131796   3.135   3.875   7.424 -0.3177  0.7023 -0.0563
 3387TIP3    H231797   3.263   3.897   7.502 -0.3813  0.8352  0.0117
 3388TIP3   OH231798   2.538   0.533   8.619  0.3872  0.3735  0.1569
 3388TIP3    H131799   2.536   0.622   8.655 -0.3010  0.6667 -0.5727
 3388TIP3    H231800   2.595   0.539   8.542 -1.9283  0.9018 -1.6228
 3389TIP3   OH231801   3.597   4.072   1.337 -0.0386 -0.7057 -0.2038
 3389TIP3    H131802   3.564   4.159   1.314  0.1786 -0.9294 -1.4310
 3389TIP3    H231803   3.665   4.089   1.403  0.2054  0.0772 -0.6472
 3390TIP3   OH231804   3.733   2.466   6.932 -0.6938  0.1270 -0.7066
 3390TIP3    H131805   3.676   2.405   6.885 -2.8580  0.5068  1.2605
 3390TIP3    H231806   3.688   2.550   6.927  0.0869  0.6194  0.2576
 3391TIP3   OH231807   6.568   4.152   1.206  0.1421 -0.5367  0.1964
 3391TIP3    H131808   6.636   4.197   1.156 -0.2667 -0.9524 -0.7843
 3391TIP3    H231809   6.615   4.104   1.274  0.4984  2.3390  2.1235
 3392TIP3   OH231810   0.283   5.071   7.930 -0.0407  0.3369  0.1371
 3392TIP3    H131811   0.251   5.161   7.937 -0.1164  0.6290 -2.6084
 3392TIP3    H231812   0.374   5.080   7.903  0.0873 -0.4122  0.3109
 3393TIP3   OH231813   2.650   5.902   2.118 -0.0786  0.1980 -0.2411
 3393TIP3    H131814   2.667   5.930   2.029 -0.0036  0.6685 -0.0809
 3393TIP3    H231815   2.669   5.979   2.172  0.7371 -0.3312  0.2637
 3394TIP3   OH231816   1.977   5.225   7.848  0.7619 -0.6352 -0.4087
 3394TIP3    H131817   2.036   5.300   7.852 -0.0492 -0.0247  1.9297
 3394TIP3    H231818   2.035   5.150   7.833  1.8649  0.1890 -0.3973
 3395TIP3   OH231819   4.644   3.794   6.265  0.0087 -0.2010  0.6733
 3395TIP3    H131820   4.582   3.745   6.319  0.2337 -0.2281  0.9060
 3395TIP3    H231821   4.727   3.748   6.275  0.3414  0.5306  1.3053
 3396TIP3   OH231822   3.840   1.169   7.343 -0.1046  0.2025  0.0875
 3396TIP3    H131823   3.790   1.246   7.369  0.3744 -0.0041  1.7492
 3396TIP3    H231824   3.823   1.105   7.412 -0.0618 -1.0063 -0.9800
 3397TIP3   OH231825   5.892   4.831   7.276  0.9570  0.4880  0.1696
 3397TIP3    H131826   5.854   4.791   7.355 -1.3990  1.0364 -0.5882
 3397TIP3    H231827   5.895   4.760   7.212 -1.8724  1.0179 -0.7222
 3398TIP3   OH231828   6.239   3.804   1.394  0.6473 -0.3450 -0.8711
 3398TIP3    H131829   6.331   3.784   1.415  0.4668 -1.3255 -1.0036
 3398TIP3    H231830   6.245   3.863   1.319  1.2196  1.2162  0.3424
 3399TIP3   OH231831   2.480   3.700   6.263  0.8613 -0.2242 -0.0800
 3399TIP3    H131832   2.424   3.773   6.235 -0.5463 -1.3856 -0.4327
 3399TIP3    H231833   2.569   3.730   6.247  0.2775  1.1059 -0.9799
 3400TIP3   OH231834   0.261   5.506   6.916  0.7557  0.7662 -0.2822
 3400TIP3    H131835   0.210   5.472   6.989  1.6768  1.4936  0.7202
 3400TIP3    H231836   0.246   5.443   6.845 -1.6072  0.9982 -0.0811
 3401TIP3   OH231837   2.893   2.929   0.189 -0.3705  0.0526  0.0489
 3401TIP3    H131838   2.909   3.021   0.210  0.0117  0.4911 -1.9900
 3401TIP3    H231839   2.946   2.913   0.111 -1.7890 -1.4062 -0.6587
 3402TIP3   OH231840   6.157   2.132   7.292 -0.0271 -0.1547  0.2063
 3402TIP3    H131841   6.231   2.072   7.301  1.0870  1.5199  3.7565
 3402TIP3    H231842   6.189   2.200   7.233  0.1788 -0.8779 -0.5438
 3403TIP3   OH231843   3.182   6.152   0.089  0.1802 -0.5589 -0.4233
 3403TIP3    H131844   3.247   6.219   0.070  0.4113 -0.3962  0.8947
 3403TIP3    H231845   3.184   6.095   0.011 -0.4349  1.2293 -1.8154
 3404TIP3   OH231846   2.024   4.064   0.488  0.8018 -0.6550  0.4472
 3404TIP3    H131847   2.025   4.059   0.583  0.9938  1.2513  0.5850
 3404TIP3    H231848   2.102   4.115   0.465 -0.6057  1.2017 -0.5020
 3405TIP3   OH231849   3.970   5.423   7.699  0.0799 -0.3392  0.5121
 3405TIP3    H131850   3.933   5.497   7.748 -1.7906 -0.4818 -0.5916
 3405TIP3    H231851   3.952   5.347   7.754  2.5096 -0.0052  1.9207
 3406TIP3   OH231852   3.844   2.167   7.238  0.6179  0.5876 -0.0404
 3406TIP3    H131853   3.932   2.182   7.274  0.3197  2.3764  0.0276
 3406TIP3    H231854   3.858   2.105   7.166  2.1381  1.7787 -0.8310
 3407TIP3   OH231855   1.596   2.622   0.120 -0.6512 -0.0393 -0.1905
 3407TIP3    H131856   1.528   2.636   0.054  0.1238  0.1575 -0.9691
 3407TIP3    H231857   1.585   2.531   0.148 -1.9127  0.3069  0.4946
 3408TIP3   OH231858   1.310   5.953   6.695  0.6185  0.0278  0.3179
 3408TIP3    H131859   1.288   5.877   6.641  2.1510  0.3612 -0.8592
 3408TIP3    H231860   1.248   5.950   6.767  0.1543 -1.9073 -0.1002
 3409TIP3   OH231861   6.123   3.577   8.547 -0.7596  0.2999 -0.0451
 3409TIP3    H131862   6.031   3.557   8.529 -0.9903  1.1957  0.0924
 3409TIP3    H231863   6.155   3.501   8.595 -1.7110  0.4171  0.8017
 3410TIP3   OH231864   5.511   2.484   8.606  0.2933 -0.3656 -0.2798
 3410TIP3    H131865   5.483   2.459   8.518 -0.4389  1.4556 -0.5885
 3410TIP3    H231866   5.588   2.539   8.593 -0.3198  0.6259  0.1377
 3411TIP3   OH231867   6.088   0.504   5.891 -0.6431  0.2115 -0.0459
 3411TIP3    H131868   6.120   0.438   5.952 -0.6849  1.5542  1.4991
 3411TIP3    H231869   6.004   0.469   5.861 -0.1266 -0.9676 -0.2025
 3412TIP3   OH231870   1.362   1.907   8.323  0.1115 -0.1694  0.1844
 3412TIP3    H131871   1.332   1.820   8.351 -1.9252  1.2123  2.5919
 3412TIP3    H231872   1.443   1.921   8.372  0.8346 -0.9299 -0.7445
 3413TIP3   OH231873   3.883   2.608   0.425  0.1598 -0.4387  0.0642
 3413TIP3    H131874   3.795   2.579   0.450  1.1147 -2.6677  1.0723
 3413TIP3    H231875   3.919   2.646   0.504  0.6898 -1.0623  0.1251
 3414TIP3   OH231876   0.150   3.799   1.160 -0.0979  0.2011 -0.3850
 3414TIP3    H131877   0.185   3.888   1.152  3.5129 -0.9500  0.4708
 3414TIP3    H231878   0.129   3.790   1.253  2.5264 -0.6631  0.2167
 3415TIP3   OH231879   4.395   0.586   8.082  0.1600 -0.4301 -0.1512
 3415TIP3    H131880   4.403   0.565   8.175  1.9844  2.0614  0.3452
 3415TIP3    H231881   4.456   0.527   8.038 -0.4339 -1.3537  0.2249
 3416TIP3   OH231882   6.284   1.227   0.618 -0.1707 -0.9148 -0.2035
 3416TIP3    H131883   6.208   1.181   0.654 -1.1664  0.4697 -0.4749
 3416TIP3    H231884   6.287   1.198   0.526 -0.8269 -0.4203 -0.3882
 3417TIP3   OH231885   4.434   2.871   8.125  0.5931 -0.2331 -0.8890
 3417TIP3    H131886   4.423   2.814   8.201  2.3469 -0.8394 -1.0357
 3417TIP3    H231887   4.362   2.933   8.131  1.0714  0.2136  1.6909
 3418TIP3   OH231888   4.404   5.544   8.493 -0.0431  0.3545 -0.2292
 3418TIP3    H131889   4.384   5.477   8.559  1.3718  0.3608  0.2377
 3418TIP3    H231890   4.325   5.547   8.438 -0.6632 -0.7291  0.5456
 3419TIP3   OH231891   3.191   2.753   0.817 -0.4097 -0.5285  0.1097
 3419TIP3    H131892   3.204   2.719   0.905  0.3632 -0.8725 -0.1223
 3419TIP3    H231893   3.219   2.845   0.823 -0.7547 -0.4341  0.3123
 3420TIP3   OH231894   5.857   4.146   6.908 -0.4126  0.1894  0.2459
 3420TIP3    H131895   5.771   4.117   6.879 -0.9260  0.6646  1.2576
 3420TIP3    H231896   5.885   4.209   6.840 -0.7732 -0.1030 -0.1768
 3421TIP3   OH231897   5.300   2.899   6.603  0.3161 -0.2982 -0.7260
 3421TIP3    H131898   5.234   2.853   6.552 -1.4263 -0.1536  1.2941
 3421TIP3    H231899   5.319   2.841   6.676 -1.5518  1.8136  1.5927
 3422TIP3   OH231900   3.203   6.549   7.631  0.1367  0.1816  0.3129
 3422TIP3    H131901   3.236   6.624   7.583  1.1307 -1.6129 -2.0310
 3422TIP3    H231902   3.271   6.529   7.695 -0.1835  1.2897  1.0261
 3423TIP3   OH231903   3.023   2.061   1.118  0.1790 -0.4030 -0.3390
 3423TIP3    H131904   3.073   1.980   1.124 -0.7123 -0.9739 -0.4549
 3423TIP3    H231905   3.073   2.124   1.169  1.5733 -0.6684 -1.3115
 3424TIP3   OH231906   5.333   3.543   1.450  0.6891  0.1531 -0.3424
 3424TIP3    H131907   5.363   3.454   1.434 -0.5141  0.0431 -2.3423
 3424TIP3    H231908   5.405   3.598   1.420  0.7269 -0.1465 -0.8128
 3425TIP3   OH231909   6.772   3.800   0.465 -0.7213  0.1513 -0.1527
 3425TIP3    H131910   6.827   3.767   0.393 -1.0616  1.9675 -1.3028
 3425TIP3    H231911   6.785   3.737   0.536 -1.3486 -2.4595 -2.1933
 3426TIP3   OH231912   0.518   0.472   8.492  0.2268  0.0883  0.1881
 3426TIP3    H131913   0.537   0.565   8.483  1.5803  0.0966  2.4885
 3426TIP3    H231914   0.505   0.459   8.586 -1.8418 -1.7379 -0.2561
 3427TIP3   OH231915   5.867   1.091   7.879 -0.3470 -0.1240 -0.6029
 3427TIP3    H131916   5.819   1.015   7.848 -0.0252 -0.8045  0.5114
 3427TIP3    H231917   5.844   1.099   7.972  0.0661  0.7930 -0.5610
 3428TIP3   OH231918   3.801   6.185   0.034 -0.1878  0.4237 -0.3598
 3428TIP3    H131919   3.830   6.098   0.061  1.3021  1.4872  1.8162
 3428TIP3    H231920   3.840   6.199  -0.052  3.6977  0.6601  1.2340
 3429TIP3   OH231921   1.821   3.003   8.504  0.3456 -0.2277 -0.5278
 3429TIP3    H131922   1.775   2.920   8.516  0.6088 -0.2259  0.6727
 3429TIP3    H231923   1.874   3.013   8.584  0.8885  0.7293 -0.9845
 3430TIP3   OH231924   4.877   6.418   1.519  0.2203 -0.5934  0.0940
 3430TIP3    H131925   4.954   6.379   1.560  0.3877  0.7135  1.1049
 3430TIP3    H231926   4.818   6.437   1.592 -0.6251 -0.6301 -0.5605
 3431TIP3   OH231927   1.325   1.541   0.783 -0.2628 -0.0253  0.4247
 3431TIP3    H131928   1.326   1.547   0.879  2.4561  1.8268  0.4009
 3431TIP3    H231929   1.386   1.470   0.763 -1.7908 -1.2774  0.0187
 3432TIP3   OH231930   6.446   6.605   1.562  0.1581 -0.1829 -0.1645
 3432TIP3    H131931   6.392   6.658   1.620  0.5068  0.1314 -0.1275
 3432TIP3    H231932   6.513   6.568   1.618  0.3799 -0.0343 -0.3297
 3433TIP3   OH231933   3.076   6.282   8.457  0.0193 -0.1597 -0.2822
 3433TIP3    H131934   3.062   6.353   8.519  1.0413  0.6267 -0.9164
 3433TIP3    H231935   3.140   6.226   8.500 -0.2482 -0.3212 -0.0882
 3434TIP3   OH231936   3.015   4.369   0.712 -0.5728 -0.5843  0.4844
 3434TIP3    H131937   2.939   4.331   0.669  1.3399 -1.5781 -2.2575
 3434TIP3    H231938   3.027   4.316   0.791 -1.6017 -1.6457 -0.0435
 3435TIP3   OH231939   4.538   2.266   7.144  0.2436  0.2436 -0.1971
 3435TIP3    H131940   4.476   2.338   7.154  0.3871  0.7379 -2.5047
 3435TIP3    H231941   4.624   2.308   7.143  0.6191 -0.3501  1.9834
 3436TIP3   OH231942   1.754   1.195   0.402 -0.2654 -0.5978 -0.4093
 3436TIP3    H131943   1.672   1.203   0.354 -1.2725  0.4964  1.3528
 3436TIP3    H231944   1.729   1.156   0.486  1.1813 -1.1819 -0.2232
 3437TIP3   OH231945   0.906   5.251   8.074  0.2311  0.4353  0.1258
 3437TIP3    H131946   0.891   5.168   8.029  0.7158  0.0155  0.7229
 3437TIP3    H231947   0.984   5.288   8.032  0.2998  0.3548  0.1824
 3438TIP3   OH231948   4.672   6.558   0.672  0.2474  0.3800  0.4556
 3438TIP3    H131949   4.611   6.631   0.679  0.5584  0.7788 -0.6940
 3438TIP3    H231950   4.740   6.590   0.612  0.5175 -0.7538  0.1363
 3439TIP3   OH231951   2.108   4.987   2.167 -0.1930 -0.2675 -0.3424
 3439TIP3    H131952   2.158   4.938   2.233 -2.1524  1.5293  2.7600
 3439TIP3    H231953   2.162   5.064   2.150  0.4940 -0.9174 -1.1903
 3440TIP3   OH231954   6.844   4.010   6.707  0.1675  0.3124 -0.1002
 3440TIP3    H131955   6.914   4.029   6.769  0.0609  1.0060 -0.1742
 3440TIP3    H231956   6.807   3.927   6.736 -0.1005  0.7840  0.9707
 3441TIP3   OH231957   3.921   0.700   7.700  0.4968 -0.4186 -0.0032
 3441TIP3    H131958   3.990   0.764   7.683 -1.2082  1.1490 -1.3517
 3441TIP3    H231959   3.852   0.749   7.743 -0.8655 -1.3417 -1.0589
 3442TIP3   OH231960   5.468   5.146   0.298 -0.0629  0.1434 -0.0477
 3442TIP3    H131961   5.502   5.085   0.364 -1.3692  0.0825  0.5884
 3442TIP3    H231962   5.545   5.196   0.271  0.6583 -0.4114  0.8923
 3443TIP3   OH231963   4.743   4.545   6.869  0.2160  0.0012  0.1522
 3443TIP3    H131964   4.711   4.516   6.783  0.7944 -2.5198  0.6983
 3443TIP3    H231965   4.829   4.582   6.851 -0.4999  1.3998 -0.5684
 3444TIP3   OH231966   1.160   3.563   6.778  1.1141  0.3518  0.2658
 3444TIP3    H131967   1.201   3.548   6.693  0.1017  2.5022 -0.6918
 3444TIP3    H231968   1.076   3.517   6.774  0.2480  1.9389 -0.6738
 3445TIP3   OH231969   0.926   3.578   0.718  0.4172  0.2764 -0.2029
 3445TIP3    H131970   1.008   3.594   0.671  0.3143  0.0193 -0.4781
 3445TIP3    H231971   0.919   3.482   0.721  0.5978  0.2833  0.6475
 3446TIP3   OH231972   5.298   0.105   8.473 -0.0533 -0.1392  0.2493
 3446TIP3    H131973   5.223   0.071   8.520  0.8090 -0.8050  1.1855
 3446TIP3    H231974   5.361   0.129   8.542  1.4349 -1.5982 -0.5460
 3447TIP3   OH231975   0.502   4.343   0.609 -0.2008  0.2669  0.0613
 3447TIP3    H131976   0.451   4.320   0.686  1.5391 -0.6687  1.0081
 3447TIP3    H231977   0.582   4.383   0.643 -0.1726  1.5276 -1.3509
 3448TIP3   OH231978   0.598   5.259   0.321  0.7017  0.2697 -0.5206
 3448TIP3    H131979   0.549   5.324   0.373 -1.3111 -2.3467  1.1163
 3448TIP3    H231980   0.551   5.255   0.238 -1.4855 -1.4931  0.6738
 3449TIP3   OH231981   1.328   1.886   7.697 -0.3473  0.4694 -0.0349
 3449TIP3    H131982   1.350   1.794   7.688  0.4574  0.7583 -1.3489
 3449TIP3    H231983   1.297   1.912   7.610 -0.3480  1.4873  0.2533
 3450TIP3   OH231984   0.045   6.589   8.386 -0.2520  0.1498 -0.4284
 3450TIP3    H131985   0.056   6.637   8.304  1.8250  1.0770  0.3096
 3450TIP3    H231986   0.134   6.566   8.413 -1.0808 -4.0803 -0.6139
 3451TIP3   OH231987   0.404   2.736   7.254 -0.5654  0.4473 -0.1480
 3451TIP3    H131988   0.439   2.804   7.196  1.2449  0.6438  1.1170
 3451TIP3    H231989   0.414   2.655   7.204 -1.5836  0.9041 -1.1640
 3452TIP3   OH231990   2.194   3.039   0.170 -0.4720  0.3743  0.2315
 3452TIP3    H131991   2.179   2.971   0.236  1.8856  1.2207  1.8020
 3452TIP3    H231992   2.239   2.994   0.099 -2.6432 -0.4588 -0.7084
 3453TIP3   OH231993   4.160   0.826   0.996  0.1594 -0.1808  0.1230
 3453TIP3    H131994   4.082   0.869   1.030  1.0820  1.3562  0.4235
 3453TIP3    H231995   4.197   0.780   1.072 -1.2290 -2.2473 -0.3655
 3454TIP3   OH231996   4.088   4.960   6.958 -0.1467 -0.5788  1.2456
 3454TIP3    H131997   4.018   5.007   7.004 -1.9211 -0.2079 -1.5574
 3454TIP3    H231998   4.138   5.028   6.914 -1.8824 -0.9727 -1.6941
 3455TIP3   OH231999   2.269   2.879   7.358 -0.3615  0.2703  0.1574
 3455TIP3    H132000   2.212   2.952   7.383 -0.4073  0.6777 -1.0501
 3455TIP3    H232001   2.243   2.807   7.416 -0.4853  1.1301  1.1964
 3456TIP3   OH232002   3.414   0.859   0.276 -0.1026  0.1912  0.0569
 3456TIP3    H132003   3.416   0.811   0.194  0.6420  0.9222 -0.3748
 3456TIP3    H232004   3.458   0.801   0.339 -1.7239 -0.8743  0.2566
 3457TIP3   OH232005   0.970   1.069   5.830 -0.2463 -0.1959  0.1654
 3457TIP3    H132006   1.019   1.011   5.889 -0.2329 -1.6487 -1.2082
 3457TIP3    H232007   1.020   1.066   5.748 -0.1585  1.9249  0.0974
 3458TIP3   OH232008   1.818   1.259   8.619  0.4069  0.0455 -0.0209
 3458TIP3    H132009   1.860   1.338   8.585  0.1238  0.7142  1.1220
 3458TIP3    H232010   1.775   1.287   8.700  0.5577 -1.3472  0.5799
 3459TIP3   OH232011   1.172   4.019   6.709  0.4794  0.5760 -0.1263
 3459TIP3    H132012   1.203   3.975   6.629  0.8668 -0.0118  0.3405
 3459TIP3    H232013   1.137   4.102   6.678  0.7303  0.4026 -0.9024
 3460TIP3   OH232014   1.584   1.028   7.505 -0.2026  0.2395 -0.3145
 3460TIP3    H132015   1.501   0.989   7.532  0.8280 -0.9537  1.3736
 3460TIP3    H232016   1.564   1.119   7.488 -1.8698 -0.0491 -0.0360
 3461TIP3   OH232017   0.091   5.557   1.007  0.2078 -0.2975  0.3852
 3461TIP3    H132018   0.096   5.552   1.103 -1.5417  0.3185  0.5480
 3461TIP3    H232019   0.057   5.472   0.981  1.2383 -0.6754  0.2433
 3462TIP3   OH232020   1.825   1.369   1.792 -0.1118  0.1296  0.0680
 3462TIP3    H132021   1.847   1.446   1.844  1.8533  1.5280 -2.5936
 3462TIP3    H232022   1.748   1.396   1.741  0.5641  0.3808 -0.8499
 3463TIP3   OH232023   3.812   1.950   0.546  0.2165 -0.2917  0.0847
 3463TIP3    H132024   3.847   1.863   0.530  0.3401 -0.0441 -1.1356
 3463TIP3    H232025   3.741   1.937   0.608  0.2159 -1.2621 -0.1027
 3464TIP3   OH232026   4.737   1.520   0.009  0.5493  0.1052 -0.6688
 3464TIP3    H132027   4.691   1.604   0.018  0.9630  0.3356 -0.6740
 3464TIP3    H232028   4.725   1.478   0.094 -1.1203 -0.5968 -1.2098
 3465TIP3   OH232029   5.098   4.227   7.910 -1.0281 -0.1920 -0.7775
 3465TIP3    H132030   5.077   4.139   7.941 -0.1087  0.1651  0.9968
 3465TIP3    H232031   5.083   4.283   7.986  1.3712  0.7356 -0.9128
 3466TIP3   OH232032   2.173   2.014   0.298  0.0252 -0.0565  0.3316
 3466TIP3    H132033   2.247   2.052   0.345  0.5240  0.1226 -0.5779
 3466TIP3    H232034   2.189   1.919   0.302  0.2579 -0.0226  0.2090
 3467TIP3   OH232035   5.777   0.841   7.268  0.0087 -0.0262 -0.1950
 3467TIP3    H132036   5.789   0.876   7.356 -1.8723 -0.1336  0.1288
 3467TIP3    H232037   5.857   0.865   7.222  0.0364  2.0800  0.8591
 3468TIP3   OH232038   5.105   3.123   6.361  0.1316  0.6328  0.2629
 3468TIP3    H132039   5.148   3.043   6.330  0.2803  0.5908  0.5809
 3468TIP3    H232040   5.063   3.098   6.443  1.4625  1.2691  1.1640
 3469TIP3   OH232041   0.556   2.881   2.364  0.7558 -1.0372 -0.4019
 3469TIP3    H132042   0.594   2.933   2.294  0.6318  1.0649  1.0042
 3469TIP3    H232043   0.568   2.934   2.443 -0.1934 -2.7596  0.9849
 3470TIP3   OH232044   5.246   2.574   0.709 -0.2222 -0.4052 -0.1021
 3470TIP3    H132045   5.286   2.566   0.622  1.5913  0.1983  0.6351
 3470TIP3    H232046   5.152   2.578   0.691  0.0755 -0.7896 -2.0000
 3471TIP3   OH232047   0.653   5.580   0.222 -0.2954 -0.5250 -0.0015
 3471TIP3    H132048   0.632   5.509   0.161  0.8511  0.2952 -1.4358
 3471TIP3    H232049   0.580   5.581   0.284 -0.9604 -2.1206 -0.6963
 3472TIP3   OH232050   3.170   1.021   1.357  0.3803  0.4796 -0.3518
 3472TIP3    H132051   3.094   0.976   1.394 -0.4877  1.9724 -0.2315
 3472TIP3    H232052   3.146   1.039   1.266  1.6937 -1.3733 -1.1279
 3473TIP3   OH232053   6.678   3.869   1.790  0.7821 -0.1142  0.2381
 3473TIP3    H132054   6.709   3.909   1.871 -0.0134 -0.2364  0.6117
 3473TIP3    H232055   6.597   3.824   1.814  1.7065 -2.1010 -0.1183
 3474TIP3   OH232056   4.934   1.711   0.348  0.3284  0.1459 -0.1625
 3474TIP3    H132057   4.957   1.623   0.318 -0.2306  0.2898 -1.0658
 3474TIP3    H232058   5.009   1.739   0.401  0.7244 -0.6809 -0.2712
 3475TIP3   OH232059   6.364   3.365   0.298 -0.1488 -0.0135  0.2415
 3475TIP3    H132060   6.397   3.384   0.386 -3.3860 -0.7182  1.7880
 3475TIP3    H232061   6.403   3.431   0.242  2.9435 -0.2193  1.9281
 3476TIP3   OH232062   3.563   4.976   8.071  0.2082 -0.0758  0.4399
 3476TIP3    H132063   3.480   4.960   8.116  0.8793 -1.9273  1.1529
 3476TIP3    H232064   3.617   4.901   8.096  1.2375 -0.2388 -2.0323
 3477TIP3   OH232065   6.044   2.770   0.407  0.6140 -0.0518 -0.0597
 3477TIP3    H132066   6.020   2.796   0.495 -1.8886  0.8152 -0.8883
 3477TIP3    H232067   6.139   2.759   0.409  0.6241 -0.0440  2.6944
 3478TIP3   OH232068   3.549   2.300   8.364 -0.1579  0.3680  0.3626
 3478TIP3    H132069   3.643   2.298   8.382 -0.2319 -0.0616  0.7244
 3478TIP3    H232070   3.508   2.304   8.451 -0.4886 -0.1260  0.2323
 3479TIP3   OH232071   3.022   1.609   0.580  0.6499  0.0484 -0.1433
 3479TIP3    H132072   3.081   1.678   0.611  1.0403  0.2723 -1.3371
 3479TIP3    H232073   3.050   1.592   0.490 -0.4557 -0.5667 -0.3868
 3480TIP3   OH232074   0.846   5.653   7.209  0.3490  0.1043  0.2173
 3480TIP3    H132075   0.797   5.662   7.127 -0.6295  2.4324  0.9566
 3480TIP3    H232076   0.799   5.585   7.258 -0.0717 -0.0947 -0.4511
 3481TIP3   OH232077   1.184   4.582   6.875  0.1328 -0.0844 -0.1169
 3481TIP3    H132078   1.177   4.666   6.830 -0.6993 -0.7486 -1.2719
 3481TIP3    H232079   1.148   4.518   6.813  0.4272 -1.2481  0.8730
 3482TIP3   OH232080   2.160   1.551   7.938  0.6263 -0.3114  0.0853
 3482TIP3    H132081   2.138   1.463   7.907  0.5441 -0.1143 -0.4142
 3482TIP3    H232082   2.255   1.558   7.928  0.5917 -0.2257 -0.1750
 3483TIP3   OH232083   2.586   5.118   8.141 -0.0641  0.4354  0.3399
 3483TIP3    H132084   2.631   5.040   8.173  1.0379  0.6862 -0.5211
 3483TIP3    H232085   2.646   5.190   8.160 -1.1945  1.1357  1.3815
 3484TIP3   OH232086   1.914   3.125   7.986 -0.1980 -0.0447 -0.2506
 3484TIP3    H132087   1.998   3.128   7.941  0.2590 -0.0940  0.5838
 3484TIP3    H232088   1.935   3.094   8.074 -0.9173  1.1368  0.3552
 3485TIP3   OH232089   1.736   2.376   6.692  0.0348  0.0257 -0.2963
 3485TIP3    H132090   1.761   2.438   6.760 -0.9442 -0.0272  0.1289
 3485TIP3    H232091   1.642   2.387   6.684 -0.0783 -1.0611 -0.5572
 3486TIP3   OH232092   6.248   1.152   0.345  0.1887  0.6911 -0.7381
 3486TIP3    H132093   6.223   1.082   0.285 -0.7377  1.6275 -1.4951
 3486TIP3    H232094   6.308   1.207   0.295 -1.5715  2.1858 -1.3317
 3487TIP3   OH232095   1.669   0.978   8.213  0.0850  0.9712  0.0692
 3487TIP3    H132096   1.599   0.964   8.277  0.9580  0.2737  0.8963
 3487TIP3    H232097   1.652   0.913   8.144 -0.3088  1.0854  0.0527
 3488TIP3   OH232098   6.701   1.403   0.442  0.3767 -0.2101  0.1785
 3488TIP3    H132099   6.764   1.348   0.488 -1.3685 -0.1386  2.8437
 3488TIP3    H232100   6.749   1.484   0.423  1.4033 -0.5519  1.2058
 3489TIP3   OH232101   4.471   1.510   7.463  0.3885 -0.2825  0.5084
 3489TIP3    H132102   4.467   1.574   7.392  1.8583  0.8737  1.3994
 3489TIP3    H232103   4.409   1.541   7.528 -1.7827 -1.9395 -0.6464
 3490TIP3   OH232104   6.292   0.244   1.824 -0.3457 -0.3078  0.8738
 3490TIP3    H132105   6.317   0.329   1.787  0.3802 -1.9062 -2.8351
 3490TIP3    H232106   6.369   0.217   1.874  1.1500 -0.4400 -1.3277
 3491TIP3   OH232107   1.116   0.340   1.602  0.2072  0.2722  0.3256
 3491TIP3    H132108   1.047   0.381   1.550 -0.9304 -0.7347  0.9761
 3491TIP3    H232109   1.118   0.249   1.573  0.5971  0.0605  0.9858
 3492TIP3   OH232110   1.202   1.473   1.831  0.0176  0.0581  0.2020
 3492TIP3    H132111   1.136   1.405   1.840 -0.0159 -0.3923 -2.6793
 3492TIP3    H232112   1.285   1.429   1.851 -0.0158 -0.8455 -1.5161
 3493TIP3   OH232113   3.346   1.888   7.476  0.7758  0.4614  0.2749
 3493TIP3    H132114   3.253   1.876   7.458  0.6106 -0.6351  1.6630
 3493TIP3    H232115   3.388   1.809   7.441  1.2952  1.2680 -0.9682
 3494TIP3   OH232116   6.303   1.376   6.283  0.2359  0.9375 -0.1956
 3494TIP3    H132117   6.354   1.299   6.307  3.4748  2.0904 -2.6491
 3494TIP3    H232118   6.231   1.341   6.229  0.5052 -0.4735  0.3156
 3495TIP3   OH232119   2.900   1.065   8.628  0.2234 -0.0123 -0.1537
 3495TIP3    H132120   2.899   1.055   8.533  0.4139  1.4618 -0.3334
 3495TIP3    H232121   2.977   1.118   8.647 -0.7778  1.2353  0.6364
 3496TIP3   OH232122   1.694   6.802   1.526 -0.8083  0.2380 -0.2651
 3496TIP3    H132123   1.601   6.800   1.502 -1.1257  1.2311  0.7706
 3496TIP3    H232124   1.696   6.768   1.615 -0.0734 -0.4153 -0.5184
 3497TIP3   OH232125   6.378   6.236   7.555  0.1017  0.7691  0.5137
 3497TIP3    H132126   6.470   6.214   7.543 -0.0118  0.4214  0.2548
 3497TIP3    H232127   6.335   6.204   7.475 -0.1165  1.6478  0.2748
 3498TIP3   OH232128   5.598   2.345   6.937  0.1998 -0.7815 -0.4695
 3498TIP3    H132129   5.656   2.357   7.012  1.2814 -0.5754 -1.3114
 3498TIP3    H232130   5.529   2.410   6.949 -2.1934 -3.5072  2.6175
 3499TIP3   OH232131   3.895   6.545   0.603 -0.1164 -0.3093  0.0055
 3499TIP3    H132132   3.933   6.630   0.581 -1.4277  0.1928 -0.3953
 3499TIP3    H232133   3.863   6.555   0.693  1.7172 -1.1286  0.8281
 3500TIP3   OH232134   2.648   6.005   1.291 -0.2878 -0.5972 -0.0065
 3500TIP3    H132135   2.574   5.979   1.346  0.0974 -1.3003  0.2005
 3500TIP3    H232136   2.724   6.001   1.349 -0.1500  0.6468 -0.0797
 3501TIP3   OH232137   5.082   1.348   6.696 -0.6538  0.5249 -0.0436
 3501TIP3    H132138   5.152   1.283   6.698 -1.3844 -0.2759  0.7384
 3501TIP3    H232139   5.113   1.418   6.753 -2.1472 -1.7240  4.0128
 3502TIP3   OH232140   1.721   3.811   2.267 -0.2063 -0.4787  0.4199
 3502TIP3    H132141   1.802   3.815   2.218 -0.2146 -0.3759  0.4130
 3502TIP3    H232142   1.710   3.719   2.290  0.2642 -0.3889  1.0113
 3503TIP3   OH232143   1.922   0.795   7.853  0.0089  0.3004 -0.2254
 3503TIP3    H132144   1.978   0.723   7.823  1.7464  2.1729 -1.6902
 3503TIP3    H232145   1.948   0.808   7.944  0.3796 -0.2771 -0.2394
 3504TIP3   OH232146   0.423   4.260   7.688  0.4977 -0.0450  0.0268
 3504TIP3    H132147   0.393   4.253   7.597 -0.0414 -0.4913  0.2314
 3504TIP3    H232148   0.343   4.265   7.739  0.7960 -0.1777  0.5096
 3505TIP3   OH232149   5.456   0.957   7.802  0.2360 -0.0573 -1.0121
 3505TIP3    H132150   5.525   1.014   7.769  1.8666 -2.3240 -1.7802
 3505TIP3    H232151   5.442   0.984   7.892  0.3928  1.9881 -1.5566
 3506TIP3   OH232152   6.490   0.128   0.125 -0.4138 -0.0484 -1.0066
 3506TIP3    H132153   6.458   0.116   0.036  0.1390 -1.2118 -1.0646
 3506TIP3    H232154   6.454   0.054   0.174 -1.3285  0.9835 -0.0765
 3507TIP3   OH232155   6.348   5.230   0.342 -0.0322 -0.0621  0.8436
 3507TIP3    H132156   6.327   5.162   0.277  0.1167  0.1023  0.6220
 3507TIP3    H232157   6.312   5.197   0.424  0.4493 -0.6300  0.8312
 3508TIP3   OH232158   3.833   0.334   0.871  0.2908 -0.0486  0.1012
 3508TIP3    H132159   3.839   0.416   0.919 -1.7275 -1.0187  2.1969
 3508TIP3    H232160   3.797   0.358   0.786  1.9253  1.4627 -0.2134
 3509TIP3   OH232161   0.184   2.139   8.656  0.3502  0.0997 -0.5434
 3509TIP3    H132162   0.102   2.122   8.702  1.5254 -0.8736  1.3177
 3509TIP3    H232163   0.193   2.065   8.596  0.9390 -1.0708  0.9171
 3510TIP3   OH232164   0.365   6.364   7.539 -0.1135 -0.3822 -0.2989
 3510TIP3    H132165   0.438   6.302   7.543 -0.2640 -0.6066 -0.9704
 3510TIP3    H232166   0.306   6.327   7.473 -0.3820  0.2832 -0.4343
 3511TIP3   OH232167   0.275   6.218   6.093 -0.1819 -0.2087 -0.9957
 3511TIP3    H132168   0.224   6.229   6.173  0.3089 -2.1562 -0.3534
 3511TIP3    H232169   0.289   6.123   6.086  1.4550  0.0782 -2.3290
 3512TIP3   OH232170   0.347   1.837   7.696  0.1700  0.3964  0.5842
 3512TIP3    H132171   0.258   1.802   7.701 -0.1468  1.2586  1.2572
 3512TIP3    H232172   0.385   1.795   7.619 -0.6161 -0.4406  0.6356
 3513TIP3   OH232173   2.105   4.407   8.154  0.7525  0.5782  0.6303
 3513TIP3    H132174   2.086   4.487   8.105  0.2643  1.1048  1.6448
 3513TIP3    H232175   2.035   4.347   8.130 -0.0174  1.1557  1.3592
 3514TIP3   OH232176   3.130   3.844   6.445 -0.3581  0.2048 -0.2230
 3514TIP3    H132177   3.106   3.936   6.435 -0.2778  0.1387 -1.1261
 3514TIP3    H232178   3.219   3.846   6.479 -0.1152  0.4753 -0.8509
 3515TIP3   OH232179   3.090   0.361   0.676 -0.0685  0.4601 -0.3592
 3515TIP3    H132180   3.080   0.398   0.764  1.1738 -1.3389  0.5907
 3515TIP3    H232181   3.090   0.438   0.618 -2.8880  1.5841  0.9463
 3516TIP3   OH232182   3.420   6.693   0.167  0.1727  0.0414  0.9587
 3516TIP3    H132183   3.348   6.726   0.221 -1.1053 -0.8159 -0.1750
 3516TIP3    H232184   3.383   6.687   0.079  1.9036  0.3942  0.1703
 3517TIP3   OH232185   1.929   3.819   1.237 -0.2858 -0.3678  0.0829
 3517TIP3    H132186   1.924   3.726   1.255 -0.9917 -0.5049 -0.7596
 3517TIP3    H232187   1.849   3.839   1.190 -0.2009  0.6931  0.3575
 3518TIP3   OH232188   5.221   4.179   7.589  0.1705  0.1144  0.1532
 3518TIP3    H132189   5.132   4.214   7.590  0.5434  1.0949 -0.0269
 3518TIP3    H232190   5.252   4.191   7.679 -0.0561 -0.7057  0.3456
 3519TIP3   OH232191   3.285   4.201   7.451  0.5264  0.5516  0.0741
 3519TIP3    H132192   3.225   4.253   7.504  0.3803  0.8609 -0.3905
 3519TIP3    H232193   3.264   4.110   7.473 -0.8438  0.6193 -0.8707
 3520TIP3   OH232194   1.459   5.848   0.177 -0.2349 -0.4351  0.0352
 3520TIP3    H132195   1.385   5.809   0.224  0.0939 -0.4487  0.5538
 3520TIP3    H232196   1.501   5.775   0.133 -1.9217 -0.1253 -2.2859
 3521TIP3   OH232197   4.911   3.351   7.159 -0.0164 -0.0220  0.5070
 3521TIP3    H132198   4.819   3.376   7.162 -0.3369 -1.1909  0.7981
 3521TIP3    H232199   4.910   3.257   7.145  1.1518  0.0543 -0.2739
 3522TIP3   OH232200   4.162   4.830   0.167 -0.2882  0.0557  0.1895
 3522TIP3    H132201   4.231   4.862   0.109 -0.0961 -0.1242  0.3207
 3522TIP3    H232202   4.184   4.738   0.183 -0.9722 -0.2244 -0.3904
 3523TIP3   OH232203   2.505   4.631   1.391 -0.0906  0.2713  0.2529
 3523TIP3    H132204   2.568   4.591   1.451  1.1379  0.5123 -0.8206
 3523TIP3    H232205   2.493   4.720   1.424  3.8898  1.9360 -2.0477
 3524TIP3   OH232206   6.159   1.342   1.057  1.3632  0.0428  0.4358
 3524TIP3    H132207   6.132   1.432   1.074  1.3757 -0.0249  0.8195
 3524TIP3    H232208   6.190   1.310   1.142  0.8683 -0.4888  0.4223
 3525TIP3   OH232209   2.242   2.982   2.110  0.0948 -0.8350  0.1943
 3525TIP3    H132210   2.332   3.000   2.083 -0.2327  0.0940 -0.3497
 3525TIP3    H232211   2.248   2.965   2.204  0.6811  0.6574  0.4674
 3526TIP3   OH232212   1.408   5.161   1.748 -0.2469  0.0908  0.5434
 3526TIP3    H132213   1.382   5.203   1.666 -1.3046 -0.5610  0.5205
 3526TIP3    H232214   1.398   5.229   1.815  2.0229  1.0687 -0.0287
 3527TIP3   OH232215   1.420   6.105   8.494  0.5082 -0.0235 -0.2971
 3527TIP3    H132216   1.386   6.051   8.565  0.6343  1.1149  0.6662
 3527TIP3    H232217   1.350   6.169   8.477  0.9834  0.5044 -0.3081
 3528TIP3   OH232218   2.923   6.170   0.567 -0.4645  0.8361 -0.6148
 3528TIP3    H132219   2.904   6.197   0.657 -0.6232  0.5613 -0.5634
 3528TIP3    H232220   3.018   6.179   0.559 -0.2275 -0.6607  0.1076
 3529TIP3   OH232221   5.082   6.153   8.410  0.1478  0.4328  0.1992
 3529TIP3    H132222   5.038   6.109   8.482 -0.2619  1.8811  0.8797
 3529TIP3    H232223   5.057   6.245   8.419  2.9919  1.2910  0.3943
 3530TIP3   OH232224   1.779   0.377   8.223  0.3947  0.3375  1.2418
 3530TIP3    H132225   1.777   0.380   8.318 -1.5745 -1.4048  1.3336
 3530TIP3    H232226   1.824   0.295   8.202  1.4910  1.0676  0.6136
 3531TIP3   OH232227   5.593   6.558   6.534 -0.8131  0.0444  1.2513
 3531TIP3    H132228   5.640   6.639   6.517 -0.7726  0.2692  2.3567
 3531TIP3    H232229   5.506   6.573   6.497 -0.2066 -0.1858 -0.3460
 3532TIP3   OH232230   4.470   3.898   7.567  0.1383 -0.3129 -0.0553
 3532TIP3    H132231   4.549   3.937   7.529 -0.0446  0.7210  0.5847
 3532TIP3    H232232   4.473   3.806   7.540  1.2295 -0.1404 -0.5695
 3533TIP3   OH232233   2.842   0.140   7.083 -0.3811 -0.4070  0.4824
 3533TIP3    H132234   2.878   0.072   7.026 -0.1727  0.6301 -0.6677
 3533TIP3    H232235   2.919   0.179   7.126  0.0161  1.7910 -1.9543
 3534TIP3   OH232236   0.654   6.549   1.660 -0.5012 -0.7604  0.3733
 3534TIP3    H132237   0.710   6.507   1.725 -0.7584 -0.5091  0.7556
 3534TIP3    H232238   0.600   6.610   1.709 -0.2182 -0.0627 -0.1575
 3535TIP3   OH232239   5.238   1.535   7.517  0.3100  0.3205  0.0800
 3535TIP3    H132240   5.207   1.610   7.566  2.4587  1.2626  0.1290
 3535TIP3    H232241   5.273   1.572   7.436  2.5756 -0.3983  0.6562
 3536TIP3   OH232242   4.651   4.259   6.883  0.5580  0.2918  0.0756
 3536TIP3    H132243   4.714   4.188   6.874  1.7482  1.2709  0.3460
 3536TIP3    H232244   4.703   4.339   6.868 -0.4721  1.1570  0.9353
 3537TIP3   OH232245   5.316   0.828   0.745 -0.4181  0.2239  0.2360
 3537TIP3    H132246   5.305   0.824   0.840 -0.5648  1.2870  0.2747
 3537TIP3    H232247   5.395   0.881   0.733 -0.1374 -0.2864 -0.2365
 3538TIP3   OH232248   0.119   2.379   6.370  0.1288  0.5109 -0.1475
 3538TIP3    H132249   0.110   2.352   6.279 -0.7169 -0.2485  0.1597
 3538TIP3    H232250   0.118   2.475   6.366 -0.3070  0.4823 -0.8904
 3539TIP3   OH232251   5.738   5.808   8.333  1.0147  0.2902  0.5530
 3539TIP3    H132252   5.742   5.727   8.283  0.6039  0.8362 -0.4139
 3539TIP3    H232253   5.823   5.815   8.376  0.1623 -1.9267  2.7771
 3540TIP3   OH232254   0.049   0.202   6.721 -0.4923  0.2308  0.1156
 3540TIP3    H132255  -0.002   0.121   6.718  0.2230 -0.2326  0.2727
 3540TIP3    H232256  -0.013   0.269   6.750 -1.3000 -0.0933 -0.8375
 3541TIP3   OH232257   5.275   6.754   5.857  0.4122  0.4083  0.0881
 3541TIP3    H132258   5.327   6.674   5.864 -0.3145 -0.2203 -1.3510
 3541TIP3    H232259   5.340   6.823   5.843  1.0495  0.0943  1.3850
 3542TIP3   OH232260   4.093   2.155   7.324  0.2314 -0.3666  0.2562
 3542TIP3    H132261   4.162   2.091   7.345  2.3808  0.8081 -2.6414
 3542TIP3    H232262   4.120   2.235   7.370 -1.8807 -1.0599  2.9820
 3543TIP3   OH232263   4.815   0.406   0.299  0.0588  0.1234  0.5610
 3543TIP3    H132264   4.842   0.315   0.310 -1.9980 -0.6542 -0.3352
 3543TIP3    H232265   4.823   0.422   0.205 -2.2421 -0.0888  0.2805
 3544TIP3   OH232266   4.726   2.510   8.207  0.0209 -0.3562  0.2783
 3544TIP3    H132267   4.713   2.592   8.256  1.2013 -0.5183  0.8794
 3544TIP3    H232268   4.746   2.539   8.118 -2.5794 -0.0648 -0.3041
 3545TIP3   OH232269   2.267   6.499   1.062 -0.3350 -0.4824  0.5318
 3545TIP3    H132270   2.211   6.482   0.987  0.5342  0.2898 -0.3086
 3545TIP3    H232271   2.212   6.550   1.122 -1.5337 -2.4232  1.1527
 3546TIP3   OH232272   6.111   0.748   7.466 -0.1200  0.2449 -0.3114
 3546TIP3    H132273   6.093   0.727   7.374 -0.9390  0.9961 -0.3320
 3546TIP3    H232274   6.123   0.843   7.467 -0.9111  0.3453  0.4808
 3547TIP3   OH232275   5.709   3.077   0.160 -0.4712 -0.3333  0.2611
 3547TIP3    H132276   5.698   3.027   0.079 -0.9967 -0.3809  0.3518
 3547TIP3    H232277   5.654   3.155   0.148  2.2167  1.5395 -0.8789
 3548TIP3   OH232278   1.618   5.745   8.498 -0.0775  0.0226 -0.6360
 3548TIP3    H132279   1.680   5.688   8.452  0.8172  1.5844 -1.4602
 3548TIP3    H232280   1.587   5.805   8.430 -2.4338 -0.6113 -0.2064
 3549TIP3   OH232281   0.992   3.043   1.132 -0.9723  0.1905 -0.6138
 3549TIP3    H132282   1.064   2.981   1.135 -0.6864  0.4784 -1.4610
 3549TIP3    H232283   0.955   3.040   1.221 -0.3904 -0.4977 -0.3831
 3550TIP3   OH232284   6.797   3.501   0.909  0.0274  0.5169  0.2670
 3550TIP3    H132285   6.730   3.514   0.976  0.6315 -0.7990  1.1678
 3550TIP3    H232286   6.798   3.583   0.859 -1.3597  1.0187  1.0293
 3551TIP3   OH232287   0.645   3.884   8.161 -0.3643  0.1643  0.1634
 3551TIP3    H132288   0.651   3.892   8.065 -0.8338  0.5078  0.1561
 3551TIP3    H232289   0.569   3.937   8.184 -0.3424 -0.0399  0.7148
 3552TIP3   OH232290   0.388   6.895   0.650 -0.2156 -0.4884 -0.0366
 3552TIP3    H132291   0.384   6.983   0.689 -1.7987 -0.4040 -0.3279
 3552TIP3    H232292   0.448   6.847   0.707  1.6073  1.0687 -0.5178
 3553TIP3   OH232293   4.925   0.072   7.641 -0.1042 -0.3111 -0.1621
 3553TIP3    H132294   4.835   0.051   7.613 -0.0055 -1.4424  0.3109
 3553TIP3    H232295   4.918   0.088   7.735  0.3352 -1.4039  0.0694
 3554TIP3   OH232296   4.057   6.783   0.583 -0.0918 -0.7198 -0.2153
 3554TIP3    H132297   4.063   6.730   0.663 -1.1562 -1.6936 -0.7574
 3554TIP3    H232298   4.105   6.863   0.605 -1.6836 -0.2727  1.9546
 3555TIP3   OH232299   4.128   3.963   8.558  0.0790 -0.0707 -0.6689
 3555TIP3    H132300   4.197   4.029   8.560  0.8875 -0.8909  1.3567
 3555TIP3    H232301   4.084   3.971   8.642 -1.3678 -0.5632 -1.3426
 3556TIP3   OH232302   4.412   6.247   6.339  0.5848 -0.1355 -0.0787
 3556TIP3    H132303   4.480   6.180   6.338  0.5730 -0.1479 -0.3593
 3556TIP3    H232304   4.460   6.330   6.342  0.6454 -0.1160 -1.1820
 3557TIP3   OH232305   5.917   4.865   0.359 -0.5513 -0.0320  0.3651
 3557TIP3    H132306   6.001   4.875   0.403 -0.4332  1.9380 -0.2070
 3557TIP3    H232307   5.938   4.827   0.273 -0.3670 -0.3644  0.5549
 3558TIP3   OH232308   3.185   4.421   1.474 -0.3185  0.9318  0.0336
 3558TIP3    H132309   3.180   4.446   1.566  0.4103  0.6283  0.1668
 3558TIP3    H232310   3.150   4.332   1.471 -0.3194  0.9327  0.0174
 3559TIP3   OH232311   1.986   0.656   6.789  0.1772 -0.1195 -0.2071
 3559TIP3    H132312   1.944   0.738   6.763 -0.9284 -0.1129  1.4677
 3559TIP3    H232313   2.075   0.662   6.753 -0.0957  1.5007 -0.6890
 3560TIP3   OH232314   6.367   2.688   6.758  0.3073 -0.1123  0.6810
 3560TIP3    H132315   6.408   2.773   6.740 -0.6782  0.1282 -0.6551
 3560TIP3    H232316   6.411   2.627   6.699  1.7487 -0.8000  2.3879
 3561TIP3   OH232317   6.399   1.585   8.423  0.0908 -0.0083  0.6458
 3561TIP3    H132318   6.439   1.584   8.510  2.3984 -1.1072 -0.3582
 3561TIP3    H232319   6.416   1.673   8.390 -0.1485  0.1782  1.0085
 3562TIP3   OH232320   3.233   3.943   0.070  0.0617 -0.2684  0.0340
 3562TIP3    H132321   3.299   3.875   0.081  2.2598  1.7176  0.0490
 3562TIP3    H232322   3.196   3.955   0.158  2.9146  1.5577  1.1104
 3563TIP3   OH232323   5.020   5.900   1.381  0.6643 -0.1660  0.1721
 3563TIP3    H132324   4.964   5.902   1.459 -1.8253  0.7236 -1.5227
 3563TIP3    H232325   5.095   5.953   1.404  0.0377  0.0061  1.9918
 3564TIP3   OH232326   5.028   1.335   7.456 -0.3304 -0.4533 -0.3168
 3564TIP3    H132327   5.121   1.347   7.475 -0.6590  1.9240  0.0585
 3564TIP3    H232328   5.027   1.286   7.373  1.2274 -0.7179 -0.2122
 3565TIP3   OH232329   4.730   4.143   2.113 -0.4396  0.7411  0.3031
 3565TIP3    H132330   4.659   4.205   2.096  0.7579  1.6342 -1.8759
 3565TIP3    H232331   4.804   4.199   2.138  0.5242  0.1737 -1.2014
 3566TIP3   OH232332   5.916   0.699   0.848 -0.4240 -0.1348 -0.4053
 3566TIP3    H132333   5.892   0.606   0.845 -0.3624 -0.1377 -0.8079
 3566TIP3    H232334   5.991   0.702   0.907  0.4616 -0.5390 -1.4761
 3567TIP3   OH232335   0.872   3.058   1.764  0.4792  0.3604  0.0391
 3567TIP3    H132336   0.791   3.007   1.774 -0.2663  1.4701 -0.0914
 3567TIP3    H232337   0.938   3.008   1.810 -1.0075  1.0837  3.2252
 3568TIP3   OH232338   4.452   5.765   1.430 -0.2062 -0.8189  0.8831
 3568TIP3    H132339   4.361   5.789   1.413  0.1291  0.1350  0.3393
 3568TIP3    H232340   4.503   5.833   1.385  0.8033 -2.2328 -0.1906
 3569TIP3   OH232341   4.207   4.884   1.390  0.2658 -0.3968 -0.3091
 3569TIP3    H132342   4.242   4.928   1.467  0.6165 -1.8166  0.3738
 3569TIP3    H232343   4.235   4.938   1.316  2.7951 -0.7411  0.3001
 3570TIP3   OH232344   6.618   6.170   7.947  0.0413  0.1678 -1.1800
 3570TIP3    H132345   6.650   6.157   7.857 -1.4267  0.8475 -1.8515
 3570TIP3    H232346   6.533   6.212   7.935 -0.5338 -0.4424  0.5291
 3571TIP3   OH232347   4.284   6.867   1.778 -0.3125  0.2508 -0.6927
 3571TIP3    H132348   4.375   6.891   1.798  0.1468 -1.6216 -0.3464
 3571TIP3    H232349   4.286   6.842   1.685 -0.0568 -1.4942 -0.2420
 3572TIP3   OH232350   1.949   5.009   7.645  0.3360  0.4941  0.2276
 3572TIP3    H132351   1.997   4.969   7.718  2.3047 -1.1450 -1.8298
 3572TIP3    H232352   1.860   4.973   7.652  0.7112 -0.2780  1.3192
 3573TIP3   OH232353   1.106   2.172   0.626 -0.4593 -0.1692 -0.4132
 3573TIP3    H132354   1.134   2.261   0.650 -0.0272 -1.0336  2.7462
 3573TIP3    H232355   1.011   2.180   0.613 -0.4141  0.7863 -0.2568
 3574TIP3   OH232356   3.287   0.428   0.968  0.0970 -0.2470 -0.1098
 3574TIP3    H132357   3.355   0.420   0.902  1.2401  0.1694  0.9767
 3574TIP3    H232358   3.229   0.498   0.935 -1.6666 -2.6348 -2.5533
 3575TIP3   OH232359   0.711   1.107   8.158 -0.1473  0.1335 -0.0274
 3575TIP3    H132360   0.638   1.059   8.197 -1.1214  1.3411 -0.2946
 3575TIP3    H232361   0.685   1.199   8.163  1.3185  0.5933 -0.2345
 3576TIP3   OH232362   6.131   1.579   1.171 -0.8667  0.2565  0.4816
 3576TIP3    H132363   6.156   1.600   1.261 -3.5825  0.6332  1.2306
 3576TIP3    H232364   6.141   1.661   1.123  0.6031  0.0514  0.3855
 3577TIP3   OH232365   4.044   4.647   1.627 -0.0726 -0.5633 -0.3643
 3577TIP3    H132366   4.000   4.636   1.542 -0.3489  1.6261 -0.5727
 3577TIP3    H232367   3.984   4.703   1.677  1.1335  0.0419  0.4373
 3578TIP3   OH232368   4.163   0.437   7.957 -0.3751 -0.0405 -0.3519
 3578TIP3    H132369   4.255   0.454   7.973 -0.1685 -0.5319 -0.9759
 3578TIP3    H232370   4.152   0.344   7.976 -0.6074 -0.1181 -0.8564
 3579TIP3   OH232371   1.464   5.574   1.578 -0.3675  0.1201  0.0251
 3579TIP3    H132372   1.541   5.517   1.585  1.5461  2.6177  0.4762
 3579TIP3    H232373   1.407   5.545   1.649  1.0645 -0.5128  0.9686
 3580TIP3   OH232374   4.930   4.840   8.577  0.2028  0.1906 -0.0479
 3580TIP3    H132375   4.840   4.873   8.574  0.2303  0.2228 -0.7096
 3580TIP3    H232376   4.956   4.850   8.668  0.1711  1.9173 -0.1926
 3581TIP3   OH232377   0.568   3.201   0.851 -0.3314 -0.2281  0.3054
 3581TIP3    H132378   0.546   3.293   0.867 -1.5772 -0.3435 -0.5421
 3581TIP3    H232379   0.529   3.154   0.925 -0.1221 -0.1228  0.4836
 3582TIP3   OH232380   0.021   4.776   7.850 -0.4536 -0.7109  0.7818
 3582TIP3    H132381  -0.018   4.862   7.832  0.7204 -0.5407 -1.2759
 3582TIP3    H232382   0.006   4.726   7.769  3.0796 -0.7673 -0.0076
 3583TIP3   OH232383   2.654   1.896   1.938 -0.1412  1.0945 -0.4130
 3583TIP3    H132384   2.594   1.925   2.007 -0.4640 -1.5777  0.5229
 3583TIP3    H232385   2.675   1.805   1.960  4.0196  1.7224 -0.9033
 3584TIP3   OH232386   1.682   6.414   8.676  0.4403 -0.0975  0.0501
 3584TIP3    H132387   1.691   6.373   8.590  0.1770 -0.5764  0.2462
 3584TIP3    H232388   1.766   6.458   8.691  0.3829  0.2363 -0.5724
 3585TIP3   OH232389   0.871   4.323   7.607  0.1621 -0.2640  0.2508
 3585TIP3    H132390   0.834   4.314   7.695  0.2092 -1.1841  0.1857
 3585TIP3    H232391   0.837   4.247   7.559  0.8177 -0.2277 -0.2803
 3586TIP3   OH232392   2.844   5.434   7.308  0.1379  0.5568 -0.3939
 3586TIP3    H132393   2.859   5.470   7.221 -0.9425  0.3036 -0.7019
 3586TIP3    H232394   2.811   5.508   7.359  1.6037  0.9273  0.0740
 3587TIP3   OH232395   5.752   5.339   8.326  0.6291  0.0806  0.6530
 3587TIP3    H132396   5.724   5.424   8.293  1.1260  0.3351  0.8803
 3587TIP3    H232397   5.847   5.338   8.313  0.6076 -0.5212  0.4629
 3588TIP3   OH232398   0.281   0.882   0.770 -0.1701  0.1010  0.2836
 3588TIP3    H132399   0.221   0.841   0.707  0.2610 -1.0310  0.5835
 3588TIP3    H232400   0.273   0.828   0.849  1.5650 -0.3647  0.1830
 3589TIP3   OH232401   2.614   4.624   0.538  0.0465 -0.8710 -0.2770
 3589TIP3    H132402   2.686   4.680   0.508 -0.3664 -0.5387 -0.6644
 3589TIP3    H232403   2.651   4.573   0.610  1.4448 -2.5143 -2.0203
 3590TIP3   OH232404   3.545   2.959   7.831 -0.8036  0.1537 -0.0855
 3590TIP3    H132405   3.591   2.878   7.854  0.2184 -0.2309 -3.0473
 3590TIP3    H232406   3.563   3.018   7.903  0.4369 -1.4978  1.0395
 3591TIP3   OH232407   1.815   6.611   6.877 -0.4403 -0.0236 -0.0366
 3591TIP3    H132408   1.844   6.618   6.786  0.7637 -0.2460  0.3148
 3591TIP3    H232409   1.877   6.664   6.926 -1.8499  1.1785  0.5297
 3592TIP3   OH232410   3.508   5.102   0.392  0.3290  0.1364 -0.0425
 3592TIP3    H132411   3.455   5.164   0.444 -1.2820 -1.5745  0.4560
 3592TIP3    H232412   3.556   5.158   0.331  0.9480  2.0991  2.0773
 3593TIP3   OH232413   2.028   1.771   7.404 -0.1686 -0.6273 -0.2293
 3593TIP3    H132414   1.981   1.692   7.430  0.6618 -2.5065 -3.7676
 3593TIP3    H232415   1.960   1.838   7.397 -0.9965 -1.1075  2.2281
 3594TIP3   OH232416   5.470   5.725   1.002  0.8570  0.0374 -0.2165
 3594TIP3    H132417   5.521   5.801   1.030  1.6460 -0.4018 -0.4398
 3594TIP3    H232418   5.387   5.763   0.971 -0.0990  0.5382  2.6839
 3595TIP3   OH232419   0.055   2.531   0.172 -0.0505  0.0097  0.1928
 3595TIP3    H132420  -0.019   2.547   0.113  0.3723  1.3046 -0.0238
 3595TIP3    H232421   0.112   2.471   0.125  0.6945  1.6754 -1.1212
 3596TIP3   OH232422   1.110   0.508   7.254  0.0041  1.0341  0.1987
 3596TIP3    H132423   1.095   0.549   7.168  0.8375 -0.0796 -0.5127
 3596TIP3    H232424   1.048   0.435   7.256  1.1714 -0.0026 -0.2333
 3597TIP3   OH232425   4.880   0.387   0.617 -0.2095 -0.2435  0.7055
 3597TIP3    H132426   4.854   0.381   0.525 -0.9068 -1.0922  0.9478
 3597TIP3    H232427   4.934   0.309   0.631 -1.1867 -0.8222  1.3455
 3598TIP3   OH232428   6.660   2.297   7.152  0.3251  0.3696  0.1350
 3598TIP3    H132429   6.611   2.379   7.166 -0.1128  0.5128 -1.8962
 3598TIP3    H232430   6.598   2.228   7.176 -1.5818  0.4873 -3.6105
 3599TIP3   OH232431   3.830   6.522   8.586  0.0261  0.1451  0.0006
 3599TIP3    H132432   3.796   6.576   8.657  0.2567  0.5856 -0.2097
 3599TIP3    H232433   3.753   6.495   8.537 -0.0593  0.8446 -0.2740
 3600TIP3   OH232434   0.387   5.090   6.336 -0.0937  0.0712 -0.1104
 3600TIP3    H132435   0.406   5.143   6.258 -0.4124 -0.2008 -0.3728
 3600TIP3    H232436   0.291   5.084   6.337 -0.0393 -1.0428 -0.4450
 3601TIP3   OH232437   2.181   1.565   7.588  0.3212  0.4105  0.4787
 3601TIP3    H132438   2.136   1.646   7.612 -2.7658 -0.8854 -0.4511
 3601TIP3    H232439   2.111   1.504   7.565  2.5793 -2.0293 -0.4979
 3602TIP3   OH232440   0.557   0.048   6.933 -0.1439 -0.1084  0.8301
 3602TIP3    H132441   0.593   0.137   6.925  0.4308 -0.4402 -0.6544
 3602TIP3    H232442   0.627  -0.009   6.902 -1.0267 -0.9694  0.3680
 3603TIP3   OH232443   6.141   1.321   2.362 -0.0519 -0.1768  0.6447
 3603TIP3    H132444   6.108   1.406   2.394 -0.9194 -0.9317  1.8355
 3603TIP3    H232445   6.095   1.256   2.414  1.3512 -1.3789  0.4585
 3604TIP3   OH232446   2.858   1.748   7.219 -0.0344 -0.1933  0.5529
 3604TIP3    H132447   2.872   1.707   7.133 -0.9626 -0.1297  0.3620
 3604TIP3    H232448   2.787   1.698   7.258 -0.2632  0.3857  0.8806
 3605TIP3   OH232449   1.202   0.404   0.022 -0.1566  0.2599 -0.3112
 3605TIP3    H132450   1.114   0.369   0.031 -0.2861  0.8829  1.1010
 3605TIP3    H232451   1.252   0.333  -0.018 -0.6615 -1.1778  1.4744
 3606TIP3   OH232452   4.374   0.662   6.758 -0.0359  0.2295 -0.0153
 3606TIP3    H132453   4.416   0.602   6.820 -1.0200  0.5975  1.0338
 3606TIP3    H232454   4.365   0.610   6.677 -0.4058 -0.8769  0.7142
 3607TIP3   OH232455   2.138   5.549   0.788 -0.1571  0.1971  0.1621
 3607TIP3    H132456   2.160   5.459   0.813  0.7181  0.4699  0.4390
 3607TIP3    H232457   2.213   5.601   0.818 -0.0823  0.8567 -1.0859
 3608TIP3   OH232458   3.582   0.565   8.348 -0.3584  0.6314 -0.3870
 3608TIP3    H132459   3.531   0.632   8.303  0.1378  1.4316  0.2065
 3608TIP3    H232460   3.671   0.602   8.352 -0.1111  0.0011  0.0829
 3609TIP3   OH232461   2.051   2.784   7.601  0.4455 -0.0681 -0.1169
 3609TIP3    H132462   2.013   2.696   7.601 -2.5350  1.0864  0.7738
 3609TIP3    H232463   2.115   2.783   7.672 -1.1638 -0.9387  1.3677
 3610TIP3   OH232464   5.197   6.726   8.024 -0.1711  0.4509 -0.4240
 3610TIP3    H132465   5.221   6.799   8.080  2.2617 -0.9214  0.4790
 3610TIP3    H232466   5.122   6.686   8.067  0.2199  0.7852  0.5908
 3611TIP3   OH232467   5.579   5.271   8.533 -0.2992 -0.3801 -0.2722
 3611TIP3    H132468   5.504   5.329   8.523  0.4683  0.4966 -1.1425
 3611TIP3    H232469   5.617   5.265   8.445 -0.9687 -3.0922 -0.4722
 3612TIP3   OH232470   6.584   6.566   0.962  0.0935  0.1152  0.2103
 3612TIP3    H132471   6.618   6.484   0.925 -1.7578 -1.1228  1.0576
 3612TIP3    H232472   6.616   6.566   1.053 -0.6749 -0.1657  0.4881
 3613TIP3   OH232473   0.889   5.842   6.182  0.2084 -0.1498  0.4739
 3613TIP3    H132474   0.843   5.913   6.138 -0.5796 -0.0053  1.5087
 3613TIP3    H232475   0.849   5.763   6.148 -1.2321 -0.0204  1.7626
 3614TIP3   OH232476   2.136   6.700   7.375 -0.1464  0.6477 -0.1574
 3614TIP3    H132477   2.106   6.785   7.407 -0.3261 -0.4756  3.0053
 3614TIP3    H232478   2.213   6.720   7.321 -0.2763  2.7855  0.3481
 3615TIP3   OH232479   5.501   6.542   1.494  0.2362  0.3278  0.4874
 3615TIP3    H132480   5.454   6.538   1.410 -0.1594  2.1364  0.5747
 3615TIP3    H232481   5.432   6.558   1.559  0.8000  1.4636  0.8175
 3616TIP3   OH232482   5.113   2.538   7.884  0.6277 -0.2416 -0.2536
 3616TIP3    H132483   5.098   2.523   7.977  1.6722  1.4757  0.2503
 3616TIP3    H232484   5.208   2.534   7.874  0.7219  1.8109 -0.7513
 3617TIP3   OH232485   6.333   6.708   6.939 -0.0191  0.4816 -0.1812
 3617TIP3    H132486   6.242   6.736   6.946 -0.0047  0.5254 -0.1696
 3617TIP3    H232487   6.329   6.620   6.903 -0.0506  0.6381 -0.5716
 3618TIP3   OH232488   2.356   4.255   2.571  0.2959  0.2819  0.0873
 3618TIP3    H132489   2.291   4.209   2.624  0.2480 -0.0605 -0.2677
 3618TIP3    H232490   2.334   4.232   2.481 -0.6194  2.1585 -0.2046
 3619TIP3   OH232491   5.947   5.531   2.084  0.5249 -0.2877  0.1921
 3619TIP3    H132492   5.942   5.623   2.058  0.3710  0.0429  1.3521
 3619TIP3    H232493   6.009   5.493   2.021  0.9388  0.7045 -0.0341
 3620TIP3   OH232494   4.257   2.966   8.499  0.1364 -0.5705 -0.7677
 3620TIP3    H132495   4.190   2.933   8.559 -1.2267  0.5589 -1.5920
 3620TIP3    H232496   4.340   2.949   8.543 -0.8289  0.6670  1.6769
 3621TIP3   OH232497   0.759   3.987   0.816  0.1125  0.3083  0.2037
 3621TIP3    H132498   0.741   3.907   0.767  0.5347 -0.5300  1.3806
 3621TIP3    H232499   0.779   4.052   0.749 -3.0375  0.2299 -0.9796
 3622TIP3   OH232500   0.999   6.755   6.906  0.8507 -0.1220  0.0581
 3622TIP3    H132501   1.079   6.789   6.945  1.8742 -0.5999 -1.5273
 3622TIP3    H232502   1.029   6.703   6.831 -0.9636  0.1708 -0.9310
 3623TIP3   OH232503   2.078   4.118   6.952 -0.2150  0.2481 -0.0815
 3623TIP3    H132504   2.113   4.070   7.028  1.0792  0.4822 -0.5187
 3623TIP3    H232505   2.043   4.199   6.989 -1.0690 -0.3446  0.4627
 3624TIP3   OH232506   5.713   5.936   1.431 -0.4127 -0.3434  0.0713
 3624TIP3    H132507   5.689   5.986   1.510  0.6054  2.9742 -1.5238
 3624TIP3    H232508   5.801   5.904   1.450 -0.4274 -0.1240  0.5395
 3625TIP3   OH232509   4.873   6.559   0.461  0.3394 -0.9396  0.0587
 3625TIP3    H132510   4.939   6.600   0.517  1.0107 -2.8861  0.7773
 3625TIP3    H232511   4.874   6.611   0.381  0.8157  0.6738  1.0580
 3626TIP3   OH232512   4.662   5.357   8.006  0.0107 -0.4923 -0.0095
 3626TIP3    H132513   4.713   5.377   8.085  2.5327 -3.4687 -0.6858
 3626TIP3    H232514   4.704   5.409   7.937  0.2923 -0.8115 -0.0771
 3627TIP3   OH232515   3.683   1.262   8.403  0.5041  0.2326  0.0267
 3627TIP3    H132516   3.627   1.321   8.353  1.9596  2.3998  0.7966
 3627TIP3    H232517   3.650   1.270   8.493  0.3586 -0.6053  0.0551
 3628TIP3   OH232518   3.956   0.418   2.280 -0.2460 -0.2226  0.0804
 3628TIP3    H132519   3.887   0.422   2.214 -0.3275  0.5597  0.2111
 3628TIP3    H232520   3.969   0.324   2.295 -1.4046 -0.3734  0.1931
 3629TIP3   OH232521   3.795   6.472   7.476  0.6895  0.1519  0.2694
 3629TIP3    H132522   3.835   6.435   7.556  0.6668  0.0793  0.2475
 3629TIP3    H232523   3.814   6.408   7.408  0.8206  0.2767  0.1888
 3630TIP3   OH232524   0.487   0.678   1.441  0.3498  0.0778 -0.3181
 3630TIP3    H132525   0.518   0.615   1.375 -0.7024  0.6156 -1.3552
 3630TIP3    H232526   0.526   0.761   1.414 -1.0487  0.5370 -0.9816
 3631TIP3   OH232527   0.214   3.420   6.834  0.1055 -0.4938 -0.4194
 3631TIP3    H132528   0.150   3.464   6.778  1.2070 -0.7307 -1.9295
 3631TIP3    H232529   0.252   3.352   6.778  1.3354 -0.6799  0.5901
 3632TIP3   OH232530   2.832   5.168   1.436 -0.1056 -0.0910 -0.4389
 3632TIP3    H132531   2.840   5.080   1.471 -0.1676  0.4377  0.9690
 3632TIP3    H232532   2.759   5.163   1.375 -0.2068 -0.9716 -0.2538
 3633TIP3   OH232533   6.488   6.359   6.576  0.1541  0.3492  0.1651
 3633TIP3    H132534   6.449   6.295   6.517  0.8313  0.0172  0.0718
 3633TIP3    H232535   6.576   6.326   6.593  0.9228  1.8205 -0.7614
 3634TIP3   OH232536   5.995   2.685   8.071  0.3649 -0.4192 -0.8654
 3634TIP3    H132537   5.906   2.716   8.051  0.5539  2.1736  1.5823
 3634TIP3    H232538   5.987   2.590   8.078 -2.2458 -0.2610 -0.6781
 3635TIP3   OH232539   4.075   5.532   6.672  0.1802 -0.4536 -0.1623
 3635TIP3    H132540   4.092   5.626   6.676 -0.5106 -0.3484  2.0924
 3635TIP3    H232541   4.016   5.521   6.598 -1.1295  1.1648  0.5797
 3636TIP3   OH232542   6.133   1.869   8.417  0.4568 -0.0230  0.1464
 3636TIP3    H132543   6.103   1.792   8.369  0.8550 -0.1411  0.0879
 3636TIP3    H232544   6.111   1.850   8.508 -0.2841  0.1946  0.0218
 3637TIP3   OH232545   3.752   3.981   8.637  0.2435 -0.0009  0.2273
 3637TIP3    H132546   3.750   4.075   8.621 -0.9959  0.4113  2.3195
 3637TIP3    H232547   3.730   3.941   8.553  0.5788  1.5929 -0.6375
 3638TIP3   OH232548   2.777   2.333   8.494 -0.2791 -0.1169  0.1450
 3638TIP3    H132549   2.799   2.345   8.587  1.4453 -0.3249 -0.1993
 3638TIP3    H232550   2.682   2.321   8.494 -0.6353  1.9332  1.6676
 3639TIP3   OH232551   3.916   1.014   1.631 -0.5989 -0.1767  0.5768
 3639TIP3    H132552   4.001   0.986   1.667  0.5344  0.5235 -1.3999
 3639TIP3    H232553   3.909   1.106   1.654 -0.9089 -0.2770  0.8864
 3640TIP3   OH232554   2.065   3.195   7.050  0.4273  1.2137  0.6726
 3640TIP3    H132555   2.100   3.108   7.065 -0.9981  0.8689  2.4508
 3640TIP3    H232556   2.039   3.195   6.958  0.8107 -0.1023  0.5427
 3641TIP3   OH232557   1.266   2.897   0.437 -0.4825  0.9664 -0.0653
 3641TIP3    H132558   1.331   2.923   0.372  1.2126  1.1292  1.5965
 3641TIP3    H232559   1.266   2.969   0.500 -0.4124 -0.1708  1.2731
 3642TIP3   OH232560   2.711   3.398   7.541  0.7703 -0.1001  0.0348
 3642TIP3    H132561   2.751   3.357   7.618 -0.7221  0.0484  0.9182
 3642TIP3    H232562   2.625   3.427   7.570  1.3947  2.9342 -0.7675
 3643TIP3   OH232563   2.759   0.982   0.921  0.0598 -0.0490 -0.2728
 3643TIP3    H132564   2.832   1.033   0.888 -0.1879  0.4986  0.0174
 3643TIP3    H232565   2.681   1.031   0.895 -0.2576 -1.0165 -1.2668
 3644TIP3   OH232566   6.474   3.076   7.438  0.1475 -0.0703 -0.2703
 3644TIP3    H132567   6.519   3.066   7.354 -0.8221  1.2589 -0.9745
 3644TIP3    H232568   6.398   3.131   7.419 -0.5877 -0.4734  1.3131
 3645TIP3   OH232569   3.378   0.703   6.921 -0.4558 -0.3710 -0.0880
 3645TIP3    H132570   3.354   0.769   6.856 -0.3705 -0.2788 -0.0251
 3645TIP3    H232571   3.387   0.752   7.003  0.0528 -0.3869 -0.1304
 3646TIP3   OH232572   4.985   1.173   7.944  0.2094 -0.5128 -0.1984
 3646TIP3    H132573   5.000   1.116   7.869 -0.1217 -1.1975  0.2485
 3646TIP3    H232574   4.891   1.191   7.943  0.1292 -0.8895  0.3111
 3647TIP3   OH232575   0.621   5.055   2.500 -0.2314  0.0100 -0.6502
 3647TIP3    H132576   0.538   5.099   2.480 -1.6246 -2.3511 -0.5561
 3647TIP3    H232577   0.684   5.092   2.439 -1.8238  0.5856 -2.0313
 3648TIP3   OH232578   2.305   5.158   7.270  0.2881 -0.6292 -0.7009
 3648TIP3    H132579   2.351   5.170   7.187 -0.4607 -2.3547 -1.3991
 3648TIP3    H232580   2.308   5.064   7.286 -0.0867 -0.3854  0.9433
 3649TIP3   OH232581   5.534   4.948   7.555 -0.4422 -0.6609  0.4088
 3649TIP3    H132582   5.517   5.038   7.527  1.2357  0.1370  1.8024
 3649TIP3    H232583   5.608   4.919   7.501 -1.2506 -1.4028 -0.3446
 3650TIP3   OH232584   1.510   5.472   0.571  0.0089 -0.4316  0.3702
 3650TIP3    H132585   1.577   5.465   0.640  0.4980  0.0174 -0.0549
 3650TIP3    H232586   1.549   5.428   0.495 -0.9353 -1.8443  0.6494
 3651TIP3   OH232587   4.880   6.771   8.270  0.3325 -0.0706 -0.2859
 3651TIP3    H132588   4.905   6.736   8.185  3.6531 -0.4557  0.7013
 3651TIP3    H232589   4.810   6.713   8.301 -0.0875 -0.6522 -2.1952
 3652TIP3   OH232590   0.467   3.039   7.216  0.2894  0.5779 -0.0526
 3652TIP3    H132591   0.552   3.034   7.260  0.6415 -0.2292 -0.8045
 3652TIP3    H232592   0.406   3.064   7.286  0.8397 -0.6532  0.9201
 3653TIP3   OH232593   6.044   6.761   6.933  0.9794  0.2610 -0.5616
 3653TIP3    H132594   6.032   6.768   6.838 -0.8713  0.5669 -0.3301
 3653TIP3    H232595   5.981   6.823   6.970  3.1771  1.7802  0.8490
 3654TIP3   OH232596   6.235   4.873   1.310 -0.1857 -0.1023 -0.0723
 3654TIP3    H132597   6.314   4.885   1.258 -1.0250  0.5314 -1.2609
 3654TIP3    H232598   6.211   4.781   1.295  0.8019 -0.5650  1.0351
 3655TIP3   OH232599   4.047   0.927   6.546 -0.6027  0.0783  0.2477
 3655TIP3    H132600   3.960   0.940   6.509 -0.0189 -0.6327 -1.4817
 3655TIP3    H232601   4.087   0.860   6.491  1.3185  0.9426  0.4902
 3656TIP3   OH232602   6.242   2.515   7.423 -0.4792  0.5822  0.3424
 3656TIP3    H132603   6.211   2.594   7.378 -2.1439  0.7223  1.6620
 3656TIP3    H232604   6.215   2.443   7.365 -0.1314  0.8889 -0.2164
 3657TIP3   OH232605   3.353   6.720   8.162  0.0266  0.2100  1.0228
 3657TIP3    H132606   3.293   6.793   8.172 -1.4160 -0.7096 -0.4455
 3657TIP3    H232607   3.385   6.703   8.251 -1.2525  1.2555  1.7171
 3658TIP3   OH232608   0.419   6.286   8.528  0.3511  0.1580  0.3283
 3658TIP3    H132609   0.444   6.194   8.523 -0.0400  0.1045 -1.2396
 3658TIP3    H232610   0.496   6.330   8.564 -0.1483 -0.9969  2.9937
 3659TIP3   OH232611   4.083   4.716   7.072  0.6242 -0.4492  0.3207
 3659TIP3    H132612   4.084   4.809   7.052  0.7247 -0.2018  1.4242
 3659TIP3    H232613   4.148   4.678   7.012  2.1549  0.5038  1.2983
 3660TIP3   OH232614   5.930   0.157   7.366 -0.1835  0.1090  0.3619
 3660TIP3    H132615   5.901   0.068   7.383  1.2035 -0.8168 -1.6822
 3660TIP3    H232616   6.021   0.159   7.394 -0.6401  1.4247  1.9240
 3661TIP3   OH232617   0.654   5.797   7.364 -0.4478 -0.4945  0.2108
 3661TIP3    H132618   0.676   5.754   7.282 -1.6539 -0.8046  0.0280
 3661TIP3    H232619   0.587   5.861   7.341 -1.1083 -0.8708  0.9849
 3662TIP3   OH232620   4.993   2.185   1.686  0.2744  0.0565  0.0583
 3662TIP3    H132621   4.997   2.223   1.774  0.5735 -0.7069  0.3802
 3662TIP3    H232622   5.080   2.149   1.672  0.5355  1.0291 -0.9483
 3663TIP3   OH232623   3.042   4.835   1.858  0.1057  0.3261  0.7093
 3663TIP3    H132624   2.991   4.915   1.876 -0.9145  0.0054 -0.6307
 3663TIP3    H232625   3.104   4.830   1.931  1.1247  3.0661  0.1565
 3664TIP3   OH232626   4.795   5.153   0.019 -0.4655  0.0063  0.2696
 3664TIP3    H132627   4.810   5.131   0.111  1.1018  0.8779  0.2467
 3664TIP3    H232628   4.741   5.081  -0.014 -0.8851 -0.4271  1.8068
 3665TIP3   OH232629   1.139   4.090   0.744 -0.3460 -0.4344  0.3817
 3665TIP3    H132630   1.133   4.043   0.661  1.7246 -1.4245  0.7087
 3665TIP3    H232631   1.148   4.021   0.810  0.2914  0.3723  1.1640
 3666TIP3   OH232632   5.740   3.588   6.197 -0.0515 -0.3261  0.5291
 3666TIP3    H132633   5.798   3.540   6.139  0.4996 -2.7325  2.9023
 3666TIP3    H232634   5.764   3.559   6.285 -3.1119  0.5485  1.7771
 3667TIP3   OH232635   2.270   6.709   0.150 -0.6518  0.1869  0.5233
 3667TIP3    H132636   2.362   6.682   0.147 -0.6932  0.0529  0.4711
 3667TIP3    H232637   2.221   6.630   0.127 -0.7561  0.4051 -0.0295
 3668TIP3   OH232638   0.512   1.520   1.944  0.2168  1.0218  0.1593
 3668TIP3    H132639   0.480   1.610   1.955 -2.6645  0.2011 -0.5828
 3668TIP3    H232640   0.484   1.495   1.856  1.2266 -0.5062  0.2368
 3669TIP3   OH232641   5.481   3.809   7.651  0.5635  0.2174  0.0300
 3669TIP3    H132642   5.488   3.717   7.625  0.2969 -0.0645  0.9181
 3669TIP3    H232643   5.416   3.809   7.721  1.6909  0.8625  1.0988
 3670TIP3   OH232644   0.348   3.981   7.733  0.5224  0.0938 -0.4390
 3670TIP3    H132645   0.415   4.036   7.693  1.1858 -0.0263  0.4843
 3670TIP3    H232646   0.376   3.891   7.712 -0.3953  0.0636 -1.6848
 3671TIP3   OH232647   2.640   1.838   0.691  0.0720 -0.4983  0.3266
 3671TIP3    H132648   2.555   1.872   0.663 -0.6053 -0.0273  2.7401
 3671TIP3    H232649   2.641   1.850   0.786  2.8906 -0.4244  0.3756
 3672TIP3   OH232650   1.082   5.915   0.924  0.4222  0.7061  0.2709
 3672TIP3    H132651   1.128   5.918   1.008  1.0631 -1.0024  0.0299
 3672TIP3    H232652   1.150   5.934   0.859  0.9608 -2.0624 -0.1032
 3673TIP3   OH232653   1.837   2.575   6.849 -0.1533  0.5425 -0.4782
 3673TIP3    H132654   1.832   2.642   6.780  0.2270  3.6054  2.2245
 3673TIP3    H232655   1.751   2.577   6.891 -0.2114 -0.8995 -0.4891
 3674TIP3   OH232656   1.450   3.965   8.184  0.1037 -0.0747 -0.2287
 3674TIP3    H132657   1.374   3.929   8.229 -0.0584 -0.8053 -1.0447
 3674TIP3    H232658   1.428   4.057   8.168 -0.1805 -0.0237  0.4174
 3675TIP3   OH232659   1.967   2.703   8.603  0.0907 -0.0107 -0.0443
 3675TIP3    H132660   2.010   2.702   8.689  0.4817 -2.1946 -0.2189
 3675TIP3    H232661   2.039   2.696   8.541 -0.0294  3.2889 -0.7257
 3676TIP3   OH232662   4.018   4.977   7.339  0.1081 -0.1412  0.0584
 3676TIP3    H132663   4.012   5.047   7.405  0.4843  0.6745 -0.7512
 3676TIP3    H232664   3.971   5.011   7.263 -1.0452 -1.4155  0.1602
 3677TIP3   OH232665   4.132   1.237   8.612 -0.1057  0.3222 -0.0645
 3677TIP3    H132666   4.146   1.279   8.527  0.3690  0.5314  0.1116
 3677TIP3    H232667   4.219   1.207   8.638 -0.3352 -0.2301  0.0981
 3678TIP3   OH232668   0.169   6.796   1.792 -0.1287  0.3185  0.0139
 3678TIP3    H132669   0.099   6.831   1.737 -0.1542  1.2860  0.6392
 3678TIP3    H232670   0.167   6.702   1.776 -1.3564  0.3691 -0.2344
 3679TIP3   OH232671   1.588   4.278   1.340 -0.6960 -0.3832  0.0000
 3679TIP3    H132672   1.523   4.348   1.335 -1.4550 -0.7695  2.6853
 3679TIP3    H232673   1.547   4.204   1.295 -0.9284  0.1594 -0.7044
 3680TIP3   OH232674   4.099   3.772   6.530  0.4262  0.4453 -0.7786
 3680TIP3    H132675   4.008   3.780   6.501  0.2198  0.2392 -0.2068
 3680TIP3    H232676   4.119   3.857   6.568  0.6102  0.6279 -1.2787
 3681TIP3   OH232677   2.748   3.888   0.630 -0.1261 -0.0307  0.6421
 3681TIP3    H132678   2.694   3.821   0.672 -0.5980  1.0975  1.8990
 3681TIP3    H232679   2.686   3.957   0.606  0.4842  0.4047  0.2981
 3682TIP3   OH232680   4.829   6.225   1.915 -0.0838  0.0001  0.3162
 3682TIP3    H132681   4.739   6.256   1.917 -0.0038  0.2855 -0.3997
 3682TIP3    H232682   4.824   6.139   1.874 -0.0601 -0.1066  0.5330
 3683TIP3   OH232683   5.259   4.857   0.250  0.3068 -0.0845  0.1327
 3683TIP3    H132684   5.279   4.907   0.329  1.5223 -0.6579  0.2164
 3683TIP3    H232685   5.319   4.892   0.184  0.5169 -0.7801 -0.0549
 3684TIP3   OH232686   6.236   3.348   7.152 -0.0948  0.2598  0.1022
 3684TIP3    H132687   6.282   3.288   7.093  0.7104  0.7536  0.2191
 3684TIP3    H232688   6.146   3.351   7.118  0.4967  0.9941 -1.4554
 3685TIP3   OH232689   5.215   4.966   0.926  0.1287  0.5011 -0.6124
 3685TIP3    H132690   5.276   4.956   0.998  0.4978  0.3919 -0.9361
 3685TIP3    H232691   5.262   4.933   0.850 -0.8011 -0.8523 -0.6381
 3686TIP3   OH232692   5.331   1.288   7.621 -0.0387  0.0882 -0.0784
 3686TIP3    H132693   5.306   1.378   7.601  1.4799  0.2765 -1.3168
 3686TIP3    H232694   5.378   1.294   7.704 -0.5098  0.3175  0.1788
 3687TIP3   OH232695   2.583   3.368   1.656  0.3435  0.4754 -0.0185
 3687TIP3    H132696   2.540   3.451   1.677  1.7411  0.9917  0.8782
 3687TIP3    H232697   2.532   3.302   1.702 -0.3913  0.8982 -0.2110
 3688TIP3   OH232698   1.840   5.546   7.499  0.0622  0.0846 -0.7628
 3688TIP3    H132699   1.827   5.459   7.536 -1.1467  0.2329 -0.7995
 3688TIP3    H232700   1.862   5.601   7.574 -1.5472  0.2133 -0.3399
 3689TIP3   OH232701   2.707   2.644   8.596 -0.0424 -0.4992 -0.0138
 3689TIP3    H132702   2.731   2.567   8.647 -2.0236 -1.1255  0.0553
 3689TIP3    H232703   2.761   2.638   8.517 -0.2330 -2.0339 -0.0652
 3690TIP3   OH232704   1.643   1.337   2.122  0.3892  0.0900  0.0406
 3690TIP3    H132705   1.680   1.254   2.093  0.4021  0.5036 -1.1473
 3690TIP3    H232706   1.623   1.322   2.215  0.1116 -1.3377 -0.2226
 3691TIP3   OH232707   6.023   0.750   6.692 -0.2975 -0.0460 -0.7645
 3691TIP3    H132708   5.970   0.798   6.755  0.0041 -1.1198  0.3532
 3691TIP3    H232709   6.081   0.816   6.654 -0.3928  0.5941  0.1761
 3692TIP3   OH232710   1.531   5.674   7.094  0.5549  0.4959 -0.4665
 3692TIP3    H132711   1.524   5.759   7.139  1.2435 -0.2397  1.0828
 3692TIP3    H232712   1.573   5.616   7.157 -0.9628 -1.3461 -1.0528
 3693TIP3   OH232713   6.399   1.615   0.912  0.2738 -0.3041  0.0315
 3693TIP3    H132714   6.312   1.641   0.882 -0.4464  0.9261  2.8487
 3693TIP3    H232715   6.453   1.693   0.901  0.4073 -0.3407  0.4079
 3694TIP3   OH232716   0.557   0.601   0.670 -0.0370  0.5219 -0.0930
 3694TIP3    H132717   0.532   0.692   0.654 -0.9634  0.0738 -1.3907
 3694TIP3    H232718   0.476   0.558   0.697  0.0635 -0.2168 -0.9237
 3695TIP3   OH232719   5.688   4.951   8.462 -0.1275 -0.1962 -0.4055
 3695TIP3    H132720   5.601   4.983   8.485  0.4927  1.1784  0.1319
 3695TIP3    H232721   5.748   5.014   8.502  1.1714 -1.9779  0.5954
 3696TIP3   OH232722   4.903   0.587   7.233  0.5048  0.2042  0.4967
 3696TIP3    H132723   4.880   0.660   7.291  1.1713  1.8660 -1.2426
 3696TIP3    H232724   4.911   0.627   7.146  1.2537 -1.8899 -0.4499
 3697TIP3   OH232725   4.632   1.320   7.301 -1.1987  0.1697  0.0783
 3697TIP3    H132726   4.652   1.381   7.372  0.2165  1.5354 -1.4224
 3697TIP3    H232727   4.687   1.244   7.319  0.3173  1.1288 -0.3155
 3698TIP3   OH232728   2.422   4.919   7.170 -0.2074 -0.0064  0.0202
 3698TIP3    H132729   2.509   4.897   7.200 -0.5592 -0.8995  0.4210
 3698TIP3    H232730   2.389   4.838   7.130 -0.6881  0.4425 -0.5201
 3699TIP3   OH232731   2.544   3.148   7.671 -0.6214  1.0143 -0.3836
 3699TIP3    H132732   2.634   3.165   7.643  0.0599 -1.9299 -0.2592
 3699TIP3    H232733   2.551   3.128   7.764 -1.3153  0.2076 -0.4957
 3700TIP3   OH232734   5.466   4.584   6.739 -0.2532  0.0685 -0.4451
 3700TIP3    H132735   5.491   4.643   6.668 -1.1387  1.5247  0.4276
 3700TIP3    H232736   5.380   4.551   6.713  0.3949 -1.2107 -1.1160
 3701TIP3   OH232737   4.908   6.614   8.032 -0.3060 -0.4646 -0.3495
 3701TIP3    H132738   4.931   6.529   7.993  0.7715 -1.0916  1.5241
 3701TIP3    H232739   4.872   6.665   7.959 -1.8676 -2.8238 -1.3669
 3702TIP3   OH232740   6.795   6.585   1.485  0.0075  0.4077  0.5681
 3702TIP3    H132741   6.835   6.670   1.465 -0.7651  0.8430  0.8315
 3702TIP3    H232742   6.754   6.598   1.571 -1.6180  0.3183 -0.1593
 3703TIP3   OH232743   5.243   1.136   0.870 -0.1866  0.2428 -0.2579
 3703TIP3    H132744   5.318   1.099   0.915  0.7383  0.9014 -1.2048
 3703TIP3    H232745   5.172   1.074   0.887  0.5009 -0.2790  0.8346
 3704TIP3   OH232746   4.050   1.997   8.430  0.0418 -0.3535  0.1876
 3704TIP3    H132747   4.113   1.940   8.386  1.8318  1.0474  0.8666
 3704TIP3    H232748   3.971   1.990   8.376  1.4343 -0.4794 -1.9632
 3705TIP3   OH232749   6.034   1.039   7.480 -0.5259 -0.0009  0.1464
 3705TIP3    H132750   5.949   0.996   7.480 -0.8952  0.6877 -0.6076
 3705TIP3    H232751   6.061   1.037   7.388 -0.3944  1.0410  0.1467
 3706TIP3   OH232752   2.165   6.739   6.247  0.2964  0.6581 -0.0981
 3706TIP3    H132753   2.196   6.653   6.278  0.8718  0.9158  0.0666
 3706TIP3    H232754   2.080   6.721   6.207  1.1243 -0.2556 -1.5342
 3707TIP3   OH232755   0.842   6.712   1.511  0.1654 -0.2732  0.0544
 3707TIP3    H132756   0.780   6.673   1.572  0.0600  0.6507  0.5518
 3707TIP3    H232757   0.918   6.736   1.565  0.0470  0.5986 -0.1534
 3708TIP3   OH232758   4.868   0.785   7.419 -0.2070 -0.2827 -0.0323
 3708TIP3    H132759   4.802   0.783   7.487 -0.5649  0.3622 -0.3507
 3708TIP3    H232760   4.950   0.802   7.465 -0.3117 -0.7338  0.3251
 3709TIP3   OH232761   0.203   0.582   2.352 -0.1368 -0.1030  1.1097
 3709TIP3    H132762   0.210   0.493   2.387 -0.2600 -1.0936 -1.2253
 3709TIP3    H232763   0.154   0.572   2.271  0.6491  1.9633  0.3187
 3710TIP3   OH232764   4.645   1.083   0.361 -0.0169 -0.0093  0.4594
 3710TIP3    H132765   4.594   1.020   0.309  0.8617 -1.0394  0.8137
 3710TIP3    H232766   4.671   1.034   0.439  0.6768  0.8063  0.7512
 3711TIP3   OH232767   1.176   6.233   0.157  1.2064 -0.0593  0.1373
 3711TIP3    H132768   1.261   6.277   0.159  1.7428 -0.9448 -1.5780
 3711TIP3    H232769   1.196   6.143   0.182  0.8081 -0.3114 -0.4470
 3712TIP3   OH232770   1.132   6.413   1.705 -0.0273  0.2503 -0.2810
 3712TIP3    H132771   1.125   6.394   1.611 -1.7260  0.9556 -0.3428
 3712TIP3    H232772   1.087   6.340   1.747  2.7923 -1.3291  0.1997
 3713TIP3   OH232773   1.593   3.013   1.440  0.3361  0.7244  0.2374
 3713TIP3    H132774   1.597   3.044   1.349  0.0862  2.0794  0.6631
 3713TIP3    H232775   1.539   2.934   1.437  2.1491 -0.5649 -1.1060
 3714TIP3   OH232776   4.309   4.582   1.574  0.3943 -0.3777  0.1875
 3714TIP3    H132777   4.326   4.592   1.480 -0.3364 -3.6720 -0.4230
 3714TIP3    H232778   4.217   4.607   1.585 -0.1547 -1.9609 -0.4572
 3715TIP3   OH232779   0.522   5.544   7.194 -0.2798 -0.0269 -0.6681
 3715TIP3    H132780   0.510   5.624   7.142  1.3751  0.6444 -0.0992
 3715TIP3    H232781   0.434   5.509   7.204 -1.1727  2.1195 -0.3250
 3716TIP3   OH232782   0.143   3.764   6.568 -0.0086  0.3772  0.6599
 3716TIP3    H132783   0.168   3.811   6.488 -2.6458  0.2290 -0.3890
 3716TIP3    H232784   0.203   3.689   6.572 -0.8120 -0.5642 -2.2075
 3717TIP3   OH232785   0.740   4.907   0.205 -0.2185  0.3174 -0.4128
 3717TIP3    H132786   0.732   4.986   0.151 -1.2955 -0.4629 -1.4589
 3717TIP3    H232787   0.783   4.844   0.148  3.0199  0.8224  1.2442
 3718TIP3   OH232788   5.401   6.345   6.992 -0.1019  0.2789  0.0083
 3718TIP3    H132789   5.383   6.411   6.925  0.6849 -0.0249 -0.5189
 3718TIP3    H232790   5.397   6.262   6.945  0.6464  0.0731  0.2915
 3719TIP3   OH232791   4.053   2.491   6.955  0.0363  0.6610 -0.2242
 3719TIP3    H132792   3.974   2.467   6.908  0.4610 -0.0563 -0.6036
 3719TIP3    H232793   4.082   2.409   6.996 -0.5791  1.3437  1.6986
 3720TIP3   OH232794   1.278   5.097   0.348  0.2891 -0.0500 -0.2194
 3720TIP3    H132795   1.263   5.007   0.378 -0.8046 -0.1413 -0.9966
 3720TIP3    H232796   1.196   5.142   0.365  0.1636  0.2931 -1.5817
 3721TIP3   OH232797   6.455   2.112   0.256  0.3692  0.5214  0.1155
 3721TIP3    H132798   6.495   2.198   0.263 -1.3493  1.3753 -0.0111
 3721TIP3    H232799   6.398   2.118   0.179  0.1812 -0.7062  0.1367
 3722TIP3   OH232800   5.045   3.943   0.531 -0.3831 -0.7019  0.5537
 3722TIP3    H132801   4.998   3.932   0.449  2.1968 -0.2475 -1.1046
 3722TIP3    H232802   5.063   3.854   0.561 -0.7233 -0.8776  0.2361
 3723TIP3   OH232803   3.692   2.905   1.304 -0.3296  0.1619  0.3324
 3723TIP3    H132804   3.776   2.895   1.260 -0.9100 -0.1234 -0.7257
 3723TIP3    H232805   3.661   2.992   1.279 -0.3992  0.2342  0.6536
 3724TIP3   OH232806   6.014   4.182   0.918 -0.2126  0.2183  0.1828
 3724TIP3    H132807   6.107   4.195   0.900 -0.8109  2.1502 -1.8556
 3724TIP3    H232808   6.002   4.087   0.910  1.4325  0.0009 -0.2450
 3725TIP3   OH232809   1.176   4.407   2.260  0.2844 -0.1345 -0.6566
 3725TIP3    H132810   1.173   4.467   2.334 -1.5900  0.1834 -0.9213
 3725TIP3    H232811   1.257   4.428   2.215  0.3238  1.2781  0.0166
 3726TIP3   OH232812   5.799   3.919   1.797 -0.6305 -0.1126  0.2254
 3726TIP3    H132813   5.832   3.959   1.878  0.8200 -0.3994 -0.1992
 3726TIP3    H232814   5.777   3.829   1.822 -2.5472  0.4861  0.8487
 3727TIP3   OH232815   6.626   2.552   8.400  0.1206 -0.4570 -0.0750
 3727TIP3    H132816   6.701   2.599   8.364  0.4685 -0.6902  0.3408
 3727TIP3    H232817   6.552   2.612   8.388  0.5699  0.2367  0.5356
 3728TIP3   OH232818   2.800   3.968   7.840  0.0149 -0.0463  0.1247
 3728TIP3    H132819   2.855   3.940   7.767 -0.0976  0.2157 -0.0610
 3728TIP3    H232820   2.725   3.908   7.837  0.3173 -0.4494  0.4215
 3729TIP3   OH232821   2.499   5.471   1.070  0.1892  0.2121  0.3028
 3729TIP3    H132822   2.563   5.529   1.111 -1.0823  0.4506  2.0439
 3729TIP3    H232823   2.504   5.492   0.977  1.9227  0.9103  0.5118
 3730TIP3   OH232824   0.654   0.146   7.250  0.1078  0.3513 -0.1353
 3730TIP3    H132825   0.567   0.160   7.214 -0.7122 -0.5095  1.4093
 3730TIP3    H232826   0.696   0.085   7.189 -0.2944  0.8991 -0.9754
 3731TIP3   OH232827   5.260   3.071   1.736  0.2523  0.0661 -0.0475
 3731TIP3    H132828   5.164   3.069   1.738  0.2365  0.5429  0.0290
 3731TIP3    H232829   5.281   3.160   1.705  0.6636 -0.2612 -0.7258
 3732TIP3   OH232830   2.958   1.794   7.697  0.5517 -0.9275  0.4601
 3732TIP3    H132831   2.979   1.880   7.660  1.3714 -0.2169  2.4764
 3732TIP3    H232832   3.020   1.734   7.655  1.9606 -0.0184  1.1868
 3733TIP3   OH232833   3.819   6.131   7.737 -0.4387  0.5510  0.5700
 3733TIP3    H132834   3.802   6.079   7.815 -1.8716  0.6846  0.3796
 3733TIP3    H232835   3.912   6.117   7.718 -0.7639 -1.9510  0.5012
 3734TIP3   OH232836   2.487   0.268   0.751  0.0103 -0.1741 -0.4605
 3734TIP3    H132837   2.480   0.362   0.738  2.0472  0.0187 -0.5414
 3734TIP3    H232838   2.561   0.258   0.811 -0.5827 -1.6903  0.0500
 3735TIP3   OH232839   1.671   5.393   1.554  0.0325 -0.4234  0.4784
 3735TIP3    H132840   1.723   5.425   1.481 -2.1506 -0.0487 -1.0315
 3735TIP3    H232841   1.734   5.371   1.622  2.0189  1.3245 -0.7002
 3736TIP3   OH232842   1.474   4.796   8.465  0.1205  0.5568  0.0918
 3736TIP3    H132843   1.475   4.875   8.520  0.9153  0.7483 -0.1775
 3736TIP3    H232844   1.383   4.767   8.465  0.0217  0.8210  1.1318
 3737TIP3   OH232845   1.811   6.830   7.905  0.6723 -0.5727 -0.0728
 3737TIP3    H132846   1.828   6.924   7.895 -1.0347 -0.0460  1.3412
 3737TIP3    H232847   1.881   6.799   7.962  1.3834 -0.2242 -0.7389
 3738TIP3   OH232848   6.527   6.769   8.666 -0.5574  0.0381 -0.4368
 3738TIP3    H132849   6.486   6.840   8.616  0.0147  0.9042  0.3005
 3738TIP3    H232850   6.556   6.707   8.599 -1.8481  0.0573 -1.0495
 3739TIP3   OH232851   1.829   5.653   1.018 -0.1875  0.3247 -0.0592
 3739TIP3    H132852   1.869   5.567   1.027 -0.6705 -0.4206 -3.6159
 3739TIP3    H232853   1.900   5.708   0.984 -0.6144  0.5608 -0.5804
 3740TIP3   OH232854   4.994   4.361   0.179  0.0163  0.0940 -0.0467
 3740TIP3    H132855   4.949   4.431   0.132 -0.5075 -0.5603 -0.5421
 3740TIP3    H232856   4.998   4.289   0.116  0.1565 -0.4689  0.5959
 3741TIP3   OH232857   1.507   3.632   1.568 -0.1950  0.6135 -0.1388
 3741TIP3    H132858   1.573   3.607   1.632  0.1651 -0.2876 -0.8346
 3741TIP3    H232859   1.519   3.570   1.496  0.1141  2.2534 -1.5672
 3742TIP3   OH232860   1.004   5.086   1.588  0.0218  0.1019  0.5534
 3742TIP3    H132861   1.033   5.040   1.666  1.7599  0.5515  0.2006
 3742TIP3    H232862   0.974   5.016   1.529  2.2286 -0.6273  0.1910
 3743TIP3   OH232863   6.833   1.509   6.215  0.5260 -0.6646  0.4707
 3743TIP3    H132864   6.801   1.513   6.125 -0.0420 -0.0711  0.6971
 3743TIP3    H232865   6.875   1.594   6.229 -1.2233  0.0890  1.4375
 3744TIP3   OH232866   6.289   1.916   7.493 -0.2813 -0.2779 -0.0728
 3744TIP3    H132867   6.199   1.943   7.510 -0.6203  0.1745 -2.3313
 3744TIP3    H232868   6.294   1.826   7.524 -1.0973  0.1205  1.3015
 3745TIP3   OH232869   2.875   5.693   0.982  0.4840  0.6487  0.6797
 3745TIP3    H132870   2.850   5.781   1.012  0.4386  0.6283  0.7008
 3745TIP3    H232871   2.966   5.703   0.954  0.6069  0.6046  1.0685
 3746TIP3   OH232872   4.434   4.078   8.439  0.0448 -0.1441 -0.7683
 3746TIP3    H132873   4.506   4.077   8.377  0.6099 -1.2884 -0.1248
 3746TIP3    H232874   4.428   4.169   8.468  0.6660  0.1221 -1.4543
 3747TIP3   OH232875   2.200   2.833   8.066  0.0196  0.7458 -0.5763
 3747TIP3    H132876   2.147   2.804   8.141 -0.2437  0.0565 -1.0172
 3747TIP3    H232877   2.275   2.878   8.105  0.1869 -0.1136  0.1266
 3748TIP3   OH232878   6.626   2.334   7.997  0.0163  0.4466 -0.2846
 3748TIP3    H132879   6.582   2.402   8.049 -1.4232 -0.0034 -0.8747
 3748TIP3    H232880   6.594   2.348   7.908  1.7955  0.6677 -0.9219
 3749TIP3   OH232881   3.217   5.819   8.170  0.0740  0.4864  0.3337
 3749TIP3    H132882   3.156   5.768   8.223  0.5643  0.6154  1.0268
 3749TIP3    H232883   3.288   5.758   8.150 -0.4200  0.2389 -0.7494
 3750TIP3   OH232884   1.791   3.583   6.274 -0.1761 -0.2106 -0.2523
 3750TIP3    H132885   1.761   3.616   6.359 -1.7966 -0.1137 -0.8164
 3750TIP3    H232886   1.873   3.538   6.293 -0.1009  0.5034  1.2286
 3751TIP3   OH232887   5.977   6.780   0.524  0.2771 -0.8045  0.4245
 3751TIP3    H132888   6.046   6.819   0.577 -0.7994 -0.3382  1.5434
 3751TIP3    H232889   5.903   6.770   0.585 -1.1144  0.0179 -1.0445
 3752TIP3   OH232890   6.107   6.673   6.651 -0.3600 -0.0307  0.2276
 3752TIP3    H132891   6.185   6.631   6.687  0.8702  1.5842 -0.4684
 3752TIP3    H232892   6.123   6.678   6.557 -1.6879 -0.4132 -0.0413
 3753TIP3   OH232893   2.481   2.673   0.207 -0.1695  0.4127  0.0071
 3753TIP3    H132894   2.552   2.729   0.174 -0.9810  1.8880  0.6624
 3753TIP3    H232895   2.439   2.639   0.128  1.1858 -0.4156 -0.3902
 3754TIP3   OH232896   1.037   1.262   6.742  0.2091 -0.2835 -0.5820
 3754TIP3    H132897   1.044   1.358   6.738 -1.5790 -0.1370 -1.2433
 3754TIP3    H232898   1.122   1.231   6.714  0.3839  1.1222 -1.7327
 3755TIP3   OH232899   2.349   5.404   2.010  0.2909 -0.0766 -0.7067
 3755TIP3    H132900   2.441   5.429   2.014 -0.4253  2.7871  1.2424
 3755TIP3    H232901   2.308   5.472   1.956 -0.7383 -1.1690 -1.3362
 3756TIP3   OH232902   6.792   5.727   7.886  0.6383 -0.3757 -0.0841
 3756TIP3    H132903   6.801   5.822   7.881 -0.4253 -0.2064  0.6344
 3756TIP3    H232904   6.775   5.699   7.796  1.1929  0.0828 -0.3320
 3757TIP3   OH232905   4.193   6.398   6.702 -0.6220 -0.0022 -0.2765
 3757TIP3    H132906   4.200   6.491   6.680 -0.2185  0.4923  1.7237
 3757TIP3    H232907   4.281   6.363   6.689 -0.0168  0.6278  1.8246
 3758TIP3   OH232908   0.827   2.290   1.933  0.0252  0.1417 -0.2571
 3758TIP3    H132909   0.796   2.224   1.995  0.4641 -1.0750 -1.2823
 3758TIP3    H232910   0.805   2.374   1.973 -1.3101 -0.6391  0.6951
 3759TIP3   OH232911   3.683   5.712   0.376 -0.0431  0.1297  0.6500
 3759TIP3    H132912   3.711   5.626   0.344  0.7270  0.8187 -0.5852
 3759TIP3    H232913   3.764   5.753   0.406 -0.3273  0.6397  0.7230
 3760TIP3   OH232914   1.665   1.947   6.590  0.0219 -0.0559 -0.3466
 3760TIP3    H132915   1.743   1.982   6.632 -0.0939 -1.3023  0.9937
 3760TIP3    H232916   1.689   1.858   6.564 -1.4141 -1.1043  1.6587
 3761TIP3   OH232917   1.486   5.150   0.184 -0.2695  0.1360  0.1577
 3761TIP3    H132918   1.535   5.073   0.210 -1.1184 -0.2736  0.5827
 3761TIP3    H232919   1.407   5.148   0.237 -1.0399  0.4465 -0.9308
 3762TIP3   OH232920   3.580   2.255   0.103  0.4032  0.8094  0.1876
 3762TIP3    H132921   3.653   2.209   0.061 -0.0435  0.7162 -0.5116
 3762TIP3    H232922   3.613   2.280   0.189  0.6798 -0.7507  0.5560
 3763TIP3   OH232923   4.045   3.398   8.181 -0.6320 -0.2537 -0.6456
 3763TIP3    H132924   4.082   3.480   8.213  3.3126 -1.3797 -1.7282
 3763TIP3    H232925   4.079   3.331   8.241 -3.5550 -1.2083  0.0754
 3764TIP3   OH232926   5.213   3.701   7.142 -0.5357  0.3042 -0.2269
 3764TIP3    H132927   5.151   3.678   7.073 -0.8833  1.5086 -0.3477
 3764TIP3    H232928   5.175   3.780   7.182  0.4340  0.4976  0.3339
 3765TIP3   OH232929   3.979   6.632   7.345  0.1453  0.0892  0.1465
 3765TIP3    H132930   3.971   6.717   7.387 -1.3616  0.7049 -1.2641
 3765TIP3    H232931   3.918   6.575   7.393  0.5565  0.0215  0.5865
 3766TIP3   OH232932   4.921   2.075   6.732  0.2043  0.3796  0.1822
 3766TIP3    H132933   4.928   2.061   6.638  1.1199  0.7794  0.1784
 3766TIP3    H232934   4.949   2.166   6.745  0.6180  0.1599  0.8951
 3767TIP3   OH232935   5.872   0.590   6.194  0.1269  0.1029  0.9152
 3767TIP3    H132936   5.820   0.640   6.131 -0.1729 -0.4971  0.6773
 3767TIP3    H232937   5.887   0.650   6.266 -0.0150  0.6166  0.5238
 3768TIP3   OH232938   2.959   5.987   7.808 -0.1502  0.5465  0.0880
 3768TIP3    H132939   2.905   5.969   7.885  0.1800 -1.4140 -0.0972
 3768TIP3    H232940   3.041   5.941   7.825  0.0147  0.2865 -1.3288
 3769TIP3   OH232941   2.696   0.098   6.424  0.1199 -0.1353 -0.2970
 3769TIP3    H132942   2.707   0.135   6.336 -1.4730 -1.0333 -0.9072
 3769TIP3    H232943   2.735   0.163   6.482 -0.9084  1.6094 -1.4788
 3770TIP3   OH232944   0.964   5.795   6.737 -0.3705 -0.7128 -0.2937
 3770TIP3    H132945   0.955   5.878   6.785  1.8593 -0.8071  0.4384
 3770TIP3    H232946   0.943   5.817   6.646  1.8665  1.1524 -0.4578
 3771TIP3   OH232947   5.317   2.756   8.176 -0.1144  0.4748  0.3302
 3771TIP3    H132948   5.345   2.707   8.098  1.9236  1.5613  0.3157
 3771TIP3    H232949   5.271   2.832   8.142 -2.1347 -0.6945  0.3210
 3772TIP3   OH232950   5.591   6.046   7.068  0.3048 -0.1876  0.0419
 3772TIP3    H132951   5.514   6.080   7.113  0.9108  0.3654  0.6899
 3772TIP3    H232952   5.665   6.087   7.113  1.0614 -2.0665  0.6042
 3773TIP3   OH232953   0.287   3.256   0.979  0.1059 -0.3511 -0.2803
 3773TIP3    H132954   0.213   3.195   0.969 -1.3267  1.5557 -1.9887
 3773TIP3    H232955   0.281   3.314   0.903  1.9713  1.3487  0.7902
 3774TIP3   OH232956   2.770   1.015   2.327 -0.0065 -0.4003  0.0037
 3774TIP3    H132957   2.730   0.959   2.259  0.1137 -1.1552  0.5402
 3774TIP3    H232958   2.860   0.983   2.335 -0.3144 -1.0344  1.2441
 3775TIP3   OH232959   6.606   5.024   0.076 -0.2507 -0.2913 -0.8675
 3775TIP3    H132960   6.700   5.023   0.058 -0.2919 -0.2766 -1.0925
 3775TIP3    H232961   6.567   4.982  -0.001 -0.3306 -1.5883 -0.1479
 3776TIP3   OH232962   1.729   6.573   8.052  0.8534  0.2477 -0.2615
 3776TIP3    H132963   1.649   6.529   8.023  0.6260 -0.3376  1.1739
 3776TIP3    H232964   1.706   6.666   8.050 -0.7677  0.0228  2.4401
 3777TIP3   OH232965   1.821   1.562   0.582 -0.5776 -0.1890  0.5804
 3777TIP3    H132966   1.772   1.625   0.635 -0.2586 -0.1155  0.7875
 3777TIP3    H232967   1.899   1.542   0.633 -0.7913 -0.9410  0.6221
 3778TIP3   OH232968   3.142   3.668   6.761 -0.1020  0.3170 -0.4337
 3778TIP3    H132969   3.129   3.602   6.694  2.4309  0.3186 -1.0240
 3778TIP3    H232970   3.226   3.646   6.801  0.7560  3.0258 -0.5332
 3779TIP3   OH232971   6.315   0.777   1.219  0.0946 -0.5650 -0.0446
 3779TIP3    H132972   6.389   0.731   1.260  0.4803 -0.6243 -0.7917
 3779TIP3    H232973   6.355   0.853   1.176 -0.5616  0.5902  1.3172
 3780TIP3   OH232974   1.345   2.793   7.258  0.8270 -0.1858  0.4725
 3780TIP3    H132975   1.385   2.766   7.174  1.5242 -0.9924  1.0449
 3780TIP3    H232976   1.418   2.792   7.320 -0.0606 -1.6685  1.5488
 3781TIP3   OH232977   1.041   0.544   2.212  0.3445 -0.0165  0.2579
 3781TIP3    H132978   1.075   0.594   2.138 -0.9567  0.3172 -0.1457
 3781TIP3    H232979   1.099   0.468   2.218  0.2098 -0.2951 -1.3993
 3782TIP3   OH232980   2.759   1.681   0.501  0.0692 -0.0745  0.0797
 3782TIP3    H132981   2.702   1.731   0.560  2.2485  3.0878 -0.2295
 3782TIP3    H232982   2.823   1.640   0.558 -0.8103 -1.3202  0.2124
 3783TIP3   OH232983   4.551   6.370   1.375 -0.1232  0.0631  0.0094
 3783TIP3    H132984   4.490   6.414   1.435 -1.5242 -1.3974 -0.2847
 3783TIP3    H232985   4.552   6.279   1.405 -0.8096 -0.6825 -2.1048
 3784TIP3   OH232986   3.240   0.138   0.129 -0.7510  0.0094  0.2912
 3784TIP3    H132987   3.155   0.181   0.139 -0.7216  0.0438  0.3981
 3784TIP3    H232988   3.304   0.208   0.141 -0.7193  0.2705 -1.2257
 3785TIP3   OH232989   6.127   2.617   0.891 -0.2568  0.3452 -0.5296
 3785TIP3    H132990   6.205   2.669   0.908  0.3444 -0.3442 -1.1349
 3785TIP3    H232991   6.109   2.572   0.974  0.8814 -0.6522 -0.7945
 3786TIP3   OH232992   6.007   0.163   1.493 -0.3404 -0.3144  0.0930
 3786TIP3    H132993   6.016   0.131   1.404 -0.7745 -0.6549  0.1717
 3786TIP3    H232994   6.086   0.216   1.507 -1.6048  2.2145 -1.5187
 3787TIP3   OH232995   0.014   1.963   8.331 -0.0199 -0.0490  0.9435
 3787TIP3    H132996  -0.064   2.006   8.367  0.0997  0.3248  0.7610
 3787TIP3    H232997  -0.012   1.932   8.245  0.5811  1.8260  0.0276
 3788TIP3   OH232998   5.577   3.729   0.197  0.2985  0.2528  0.1227
 3788TIP3    H132999   5.522   3.721   0.276 -0.1908 -0.4009 -0.2736
 3788TIP3    H233000   5.535   3.798   0.146  0.5227  0.5646  0.3565
 3789TIP3   OH233001   0.528   1.254   1.761  0.0841 -0.6499 -0.4161
 3789TIP3    H133002   0.485   1.171   1.784 -0.0779 -0.5676 -0.4193
 3789TIP3    H233003   0.530   1.303   1.844  0.6794 -0.8798 -0.2911
 3790TIP3   OH233004   5.260   5.737   1.278 -0.4607 -0.1166 -0.1964
 3790TIP3    H133005   5.277   5.792   1.201  0.1730  0.0906  0.0845
 3790TIP3    H233006   5.229   5.799   1.345 -0.5922 -0.2338 -0.1484
 3791TIP3   OH233007   1.959   6.406   8.538  0.2675 -0.6817 -0.2699
 3791TIP3    H133008   1.949   6.312   8.553  1.5197 -1.0831 -1.6784
 3791TIP3    H233009   1.987   6.413   8.446 -1.6993  1.1996 -0.8243
 3792TIP3   OH233010   1.993   3.539   0.352 -0.0307 -0.5317  0.1566
 3792TIP3    H133011   1.979   3.574   0.264 -0.9176  0.2853  0.5946
 3792TIP3    H233012   1.950   3.602   0.410  0.6751 -0.9679  1.1945
 3793TIP3   OH233013   4.536   6.888   7.007 -0.1829 -0.1990 -0.0918
 3793TIP3    H133014   4.467   6.878   6.942 -1.6410 -0.2428  1.4033
 3793TIP3    H233015   4.500   6.949   7.071  1.1331 -0.3103  0.7922
 3794TIP3   OH233016   6.421   5.718   1.119 -0.3031 -0.1375 -0.0200
 3794TIP3    H133017   6.502   5.671   1.099 -0.4221 -1.6422  2.5865
 3794TIP3    H233018   6.352   5.653   1.108 -0.8091  0.2550  0.7031
 3795TIP3   OH233019   1.879   0.491   0.093  0.2714 -0.3534 -0.5683
 3795TIP3    H133020   1.819   0.435   0.142  1.0448 -2.9457 -2.3443
 3795TIP3    H233021   1.943   0.521   0.157 -1.1307 -0.1072  0.7572
 3796TIP3   OH233022   5.250   2.050   1.735  0.4007 -0.2371 -0.0539
 3796TIP3    H133023   5.306   2.032   1.811  0.7071 -1.3120 -0.5239
 3796TIP3    H233024   5.312   2.075   1.666  0.1773  0.0533 -0.1484
 3797TIP3   OH233025   4.865   2.688   0.322  0.3923  0.3540  0.0563
 3797TIP3    H133026   4.812   2.710   0.246  0.3128 -2.5207 -0.8070
 3797TIP3    H233027   4.801   2.675   0.393  0.0921 -0.9613 -0.4365
 3798TIP3   OH233028   2.044   4.782   0.194 -0.4884 -0.5932 -0.0089
 3798TIP3    H133029   2.030   4.808   0.103  1.1015 -1.5537 -0.5716
 3798TIP3    H233030   2.086   4.696   0.188 -0.8215 -0.9046  1.6580
 3799TIP3   OH233031   2.119   5.721   6.517 -0.0044 -0.0302  0.6911
 3799TIP3    H133032   2.031   5.749   6.541 -0.4655 -1.1338  0.3880
 3799TIP3    H233033   2.106   5.633   6.480  1.2597 -0.3300  0.9243
 3800TIP3   OH233034   5.989   6.885   1.299  0.4012  0.6275 -0.1835
 3800TIP3    H133035   5.996   6.846   1.211 -1.1331  0.8240 -0.4254
 3800TIP3    H233036   5.894   6.890   1.315  0.6545  0.0868  1.7242
 3801TIP3   OH233037   3.499   2.023   6.942 -0.0002  0.4839  0.5469
 3801TIP3    H133038   3.421   2.065   6.905  0.3321  0.9001  0.2981
 3801TIP3    H233039   3.570   2.085   6.923  0.6254 -0.5231 -0.4407
 3802TIP3   OH233040   4.915   3.578   0.345 -0.5728 -0.2948 -0.6320
 3802TIP3    H133041   4.895   3.562   0.252 -0.2123 -0.4237 -0.6882
 3802TIP3    H233042   4.830   3.570   0.389 -0.8183  0.1753 -1.0055
 3803TIP3   OH233043   4.255   5.787   7.839 -0.0997 -0.2220 -0.4797
 3803TIP3    H133044   4.334   5.803   7.787 -0.4114  2.6805 -0.2090
 3803TIP3    H233045   4.288   5.778   7.929 -0.0385  1.4554 -0.2970
 3804TIP3   OH233046   5.677   5.595   7.586  0.5739  0.2319  0.4642
 3804TIP3    H133047   5.625   5.658   7.536 -0.6662 -1.1047 -0.0028
 3804TIP3    H233048   5.668   5.624   7.677 -2.8781 -1.1133  0.7093
 3805TIP3   OH233049   2.957   4.230   0.950 -0.3591 -0.3406 -0.0456
 3805TIP3    H133050   2.917   4.228   1.037 -3.0395  1.5882 -1.0815
 3805TIP3    H233051   2.912   4.161   0.902 -3.3540  2.2954 -1.4255
 3806TIP3   OH233052   4.572   3.107   8.213  0.4677 -0.1756  0.0052
 3806TIP3    H133053   4.565   3.031   8.155 -0.6378  0.5482 -0.8623
 3806TIP3    H233054   4.489   3.109   8.260  0.5315  0.4073  0.1088
 3807TIP3   OH233055   4.888   3.002   7.218  0.6560 -0.1748  0.3790
 3807TIP3    H133056   4.928   3.000   7.131 -1.0084  2.0862 -0.5473
 3807TIP3    H233057   4.961   2.989   7.279  1.7674 -2.4923 -1.3153
 3808TIP3   OH233058   5.806   5.913   0.400 -0.3616  0.0296  0.3611
 3808TIP3    H133059   5.772   5.824   0.401 -0.9949  0.2063 -1.4314
 3808TIP3    H233060   5.900   5.903   0.381 -0.2551 -0.2744  1.0257
 3809TIP3   OH233061   6.053   4.062   1.302 -0.0637 -0.6099 -0.1202
 3809TIP3    H133062   6.033   4.042   1.394 -0.8276  1.5246  0.2406
 3809TIP3    H233063   6.003   3.997   1.252 -1.5674 -0.3493  0.9571
 3810TIP3   OH233064   0.998   5.742   6.401  0.2843  0.3061 -0.0153
 3810TIP3    H133065   0.912   5.734   6.442  0.8407  1.4668  1.4903
 3810TIP3    H233066   0.981   5.787   6.319 -0.4429  1.7810  0.8965
 3811TIP3   OH233067   2.199   3.613   7.960  0.3822  0.2857  0.1381
 3811TIP3    H133068   2.222   3.705   7.973 -2.0035  1.1072 -0.9229
 3811TIP3    H233069   2.229   3.592   7.872  1.3294 -0.1388  0.5406
 3812TIP3   OH233070   5.267   3.356   0.526 -0.1203 -0.3088 -0.2422
 3812TIP3    H133071   5.219   3.367   0.608  0.8736  2.3068  0.1064
 3812TIP3    H233072   5.331   3.286   0.544  1.5557  1.6464  2.0628
 3813TIP3   OH233073   0.560   6.170   7.544 -0.3031  0.5034 -0.1253
 3813TIP3    H133074   0.656   6.173   7.542 -0.3171  0.8201 -0.4008
 3813TIP3    H233075   0.539   6.085   7.584  0.0909  0.4257 -0.0826
 3814TIP3   OH233076   1.033   1.118   2.149 -0.0858 -0.0114  0.6101
 3814TIP3    H133077   0.948   1.076   2.166 -0.1085  0.4555  1.7511
 3814TIP3    H233078   1.015   1.211   2.158  0.7105  0.0558  1.7367
 3815TIP3   OH233079   0.721   4.810   7.134 -0.3422  0.0536 -0.6066
 3815TIP3    H133080   0.753   4.872   7.068  0.3120 -0.2442 -0.5701
 3815TIP3    H233081   0.800   4.772   7.172 -0.7249 -0.0456  0.1025
 3816TIP3   OH233082   3.097   2.956   7.890 -0.2368 -0.5684  0.1684
 3816TIP3    H133083   3.054   2.974   7.806  0.2626  0.5587  0.1371
 3816TIP3    H233084   3.066   2.869   7.915 -0.9431 -0.6188 -0.8388
 3817TIP3   OH233085   0.142   1.144   7.886  0.1172  0.1201 -0.2151
 3817TIP3    H133086   0.124   1.211   7.821 -0.0331  0.6435  0.3537
 3817TIP3    H233087   0.144   1.062   7.837 -0.7060  0.4184 -0.7618
 3818TIP3   OH233088   4.196   5.885   0.468 -0.1721  0.2756  0.2138
 3818TIP3    H133089   4.192   5.957   0.530 -0.5972 -0.3488  0.9232
 3818TIP3    H233090   4.268   5.830   0.498  0.1410  0.3871 -0.3133
 3819TIP3   OH233091   3.864   6.062   7.164 -0.1883 -0.2056  0.2097
 3819TIP3    H133092   3.821   5.990   7.209 -0.6773  0.4096  0.7483
 3819TIP3    H233093   3.936   6.021   7.116  1.1553 -0.7560  2.5308
 3820TIP3   OH233094   5.847   0.017   7.018  0.1862  0.1746 -0.2125
 3820TIP3    H133095   5.802   0.095   6.984 -0.4182 -0.1565 -0.1805
 3820TIP3    H233096   5.788  -0.017   7.085  0.9412  0.2952  0.5436
 3821TIP3   OH233097   2.516   4.684   0.287  0.2053 -0.1842 -0.2912
 3821TIP3    H133098   2.498   4.672   0.381 -0.0215  1.1151 -0.1471
 3821TIP3    H233099   2.560   4.604   0.261 -1.8643 -1.6374  0.3774
 3822TIP3   OH233100   0.040   6.808   6.569  0.1238 -0.0304 -0.0307
 3822TIP3    H133101  -0.038   6.857   6.596 -0.7547 -1.1300 -0.5054
 3822TIP3    H233102   0.038   6.729   6.623  1.3075  0.2563  0.4485
 3823TIP3   OH233103   6.498   6.512   8.290 -0.2915 -0.2142 -0.8827
 3823TIP3    H133104   6.560   6.558   8.346  1.0559 -1.3354 -1.4060
 3823TIP3    H233105   6.419   6.503   8.344  0.0522  1.0276 -0.1224
 3824TIP3   OH233106   1.385   0.309   0.396  0.1490 -0.3929 -0.3645
 3824TIP3    H133107   1.337   0.365   0.335  0.5566 -1.0208 -1.2727
 3824TIP3    H233108   1.337   0.317   0.478  0.5726  1.8269 -0.2652
 3825TIP3   OH233109   6.412   5.063   0.837 -0.0020 -0.5396 -0.2124
 3825TIP3    H133110   6.362   5.035   0.761 -0.1796 -0.5316 -0.0999
 3825TIP3    H233111   6.386   5.003   0.907 -2.3613  1.4376  0.7504
 3826TIP3   OH233112   1.143   4.844   6.779  0.3295  0.6124 -0.0718
 3826TIP3    H133113   1.141   4.912   6.712 -1.5934 -0.0128 -0.6923
 3826TIP3    H233114   1.227   4.858   6.824  0.7561  2.2918 -1.2870
 3827TIP3   OH233115   1.940   5.235   6.844 -0.0646 -0.0184  0.5860
 3827TIP3    H133116   1.933   5.242   6.749  0.9517 -1.9637  0.2966
 3827TIP3    H233117   1.911   5.146   6.863  1.9756 -0.5015  1.7866
 3828TIP3   OH233118   4.748   4.612   7.157 -0.6315 -0.2854  0.2925
 3828TIP3    H133119   4.812   4.541   7.166 -0.0908  0.2125  0.4556
 3828TIP3    H233120   4.757   4.641   7.066 -0.5806 -0.1747  0.3326
 3829TIP3   OH233121   0.306   4.818   7.752  0.3413 -0.1837 -0.4297
 3829TIP3    H133122   0.272   4.908   7.761 -1.8003 -0.9834  0.1628
 3829TIP3    H233123   0.237   4.763   7.790  1.7702 -2.0715 -0.4405
 3830TIP3   OH233124   1.495   4.932   1.238 -0.0256 -0.6425 -0.1336
 3830TIP3    H133125   1.406   4.898   1.241 -0.5680  0.7271  0.1779
 3830TIP3    H233126   1.497   4.997   1.308  0.7852  0.3507 -1.0525
 3831TIP3   OH233127   5.271   5.095   6.546  0.3950  0.1651  0.0398
 3831TIP3    H133128   5.222   5.018   6.576  0.6269 -0.3042 -0.7675
 3831TIP3    H233129   5.207   5.145   6.495  0.0392  0.8960  1.1455
 3832TIP3   OH233130   4.464   3.364   1.373 -0.2247 -0.4671 -0.2979
 3832TIP3    H133131   4.499   3.445   1.336  0.4202  0.9728  3.0213
 3832TIP3    H233132   4.525   3.342   1.444 -2.2415 -1.8744  1.1292
 3833TIP3   OH233133   3.016   1.589   8.641 -0.2267 -0.1760 -0.2567
 3833TIP3    H133134   3.103   1.616   8.610  0.7487 -0.1180  2.2894
 3833TIP3    H233135   3.032   1.556   8.729 -3.0902  2.0350  1.2682
 3834TIP3   OH233136   1.957   1.379   0.417  0.1041  0.5361  0.5008
 3834TIP3    H133137   1.901   1.457   0.427 -0.7646 -0.2012  1.6778
 3834TIP3    H233138   1.895   1.306   0.418  0.9333 -0.2025 -0.3711
 3835TIP3   OH233139   1.180   4.624   7.490 -0.0595  0.1546  0.6793
 3835TIP3    H133140   1.271   4.633   7.464 -0.2925 -1.5288 -0.9512
 3835TIP3    H233141   1.177   4.543   7.541 -0.7709 -0.2940 -0.0524
 3836TIP3   OH233142   0.822   5.219   1.800 -0.1383  0.0433 -0.2122
 3836TIP3    H133143   0.912   5.197   1.825 -0.5087 -2.1002 -0.5796
 3836TIP3    H233144   0.828   5.308   1.765  1.7477  0.1159  0.1948
 3837TIP3   OH233145   1.514   3.564   8.370 -0.3249 -0.8217  0.5058
 3837TIP3    H133146   1.452   3.504   8.410  1.0862 -1.4546  1.8388
 3837TIP3    H233147   1.535   3.524   8.285 -0.1999 -1.6868  0.9335
 3838TIP3   OH233148   6.432   5.782   8.585  0.2176  0.0373 -0.0555
 3838TIP3    H133149   6.363   5.799   8.522  0.4342 -2.0765 -0.9303
 3838TIP3    H233150   6.394   5.805   8.670 -1.4733 -0.8139 -0.5531
 3839TIP3   OH233151   1.700   0.670   1.479 -0.1510  0.1452 -0.4347
 3839TIP3    H133152   1.771   0.710   1.429  0.8747  2.0809  2.3176
 3839TIP3    H233153   1.744   0.619   1.547 -1.4701 -0.9439 -0.3453
 3840TIP3   OH233154   5.430   1.339   7.357 -0.4476 -0.1258 -0.7293
 3840TIP3    H133155   5.484   1.267   7.325 -0.2488 -0.8830  1.1626
 3840TIP3    H233156   5.398   1.309   7.442 -3.0352  0.7313 -1.3179
 3841TIP3   OH233157   0.131   2.699   7.099  0.4521  0.4524 -0.7417
 3841TIP3    H133158   0.153   2.774   7.153 -2.7266 -0.1935  1.7799
 3841TIP3    H233159   0.037   2.708   7.083  0.0689 -2.6289 -0.8028
 3842TIP3   OH233160   3.815   6.737   7.141  0.6065 -0.0945 -0.3133
 3842TIP3    H133161   3.764   6.805   7.184 -2.7960 -2.4724 -0.1935
 3842TIP3    H233162   3.866   6.696   7.211  0.6076  0.5876  0.0891
 3843TIP3   OH233163   5.766   5.636   0.248  0.0395 -0.1499 -0.3802
 3843TIP3    H133164   5.769   5.613   0.155 -3.1425  0.0189 -0.6135
 3843TIP3    H233165   5.707   5.572   0.288  0.1507  0.6876  1.2271
 3844TIP3   OH233166   2.288   6.634   0.439 -0.2123 -0.7767 -0.0669
 3844TIP3    H133167   2.303   6.548   0.401 -0.0594 -0.8337  0.1201
 3844TIP3    H233168   2.200   6.659   0.411 -1.2770 -2.0548  1.8948
 3845TIP3   OH233169   5.173   6.314   0.561  0.0341  0.2711 -0.5653
 3845TIP3    H133170   5.247   6.343   0.509  0.1516 -1.0835 -1.1921
 3845TIP3    H233171   5.114   6.272   0.498 -0.1046 -0.8562  0.2816
 3846TIP3   OH233172   0.457   3.364   1.220 -0.2537  0.0118  0.6809
 3846TIP3    H133173   0.391   3.406   1.275 -0.8519 -0.5757  0.4435
 3846TIP3    H233174   0.405   3.317   1.154  0.3837 -0.9262  0.8316
 3847TIP3   OH233175   5.663   4.966   0.448 -0.3649  0.5201  0.0895
 3847TIP3    H133176   5.700   5.023   0.516 -0.8184 -0.0039  0.7781
 3847TIP3    H233177   5.739   4.938   0.397 -0.0154  0.8737  0.4032
 3848TIP3   OH233178   2.565   5.644   8.365  0.0418  0.1715  0.4314
 3848TIP3    H133179   2.572   5.707   8.436 -0.4635  2.2421 -1.2647
 3848TIP3    H233180   2.489   5.590   8.388 -1.8886  2.6161  0.1801
 3849TIP3   OH233181   1.536   2.714   0.523  0.3451  0.3350 -0.0974
 3849TIP3    H133182   1.445   2.692   0.501 -0.0437 -0.0383  1.7461
 3849TIP3    H233183   1.529   2.783   0.588  1.3528 -0.1571  0.5546
 3850TIP3   OH233184   5.644   2.931   7.454 -0.0310  0.1635 -0.4132
 3850TIP3    H133185   5.679   2.860   7.508 -1.7217 -0.9369 -0.6917
 3850TIP3    H233186   5.649   2.899   7.365 -1.0817  0.2556 -0.5178
 3851TIP3   OH233187   6.282   4.599   6.757  0.1808 -0.1276 -0.0036
 3851TIP3    H133188   6.263   4.692   6.765  1.7146  0.0263  4.1220
 3851TIP3    H233189   6.199   4.555   6.779  0.4580  0.4059  2.3863
 3852TIP3   OH233190   3.547   1.594   6.787  0.3148 -0.3905  0.7383
 3852TIP3    H133191   3.452   1.601   6.802 -0.0446 -0.9760 -0.9412
 3852TIP3    H233192   3.572   1.679   6.752  0.0660 -0.7043 -0.2619
 3853TIP3   OH233193   3.290   4.669   6.892 -0.0921 -0.3453 -0.3524
 3853TIP3    H133194   3.207   4.710   6.870  0.8857  1.1752 -1.3736
 3853TIP3    H233195   3.278   4.637   6.982 -1.2027  1.4328  0.1778
 3854TIP3   OH233196   3.410   0.003   0.479  0.5554 -0.0740 -0.3372
 3854TIP3    H133197   3.436   0.081   0.528 -0.7148 -0.6633  1.3566
 3854TIP3    H233198   3.481  -0.059   0.494  0.7874  0.1963 -0.3115
 3855TIP3   OH233199   2.459   0.221   7.939  0.0368 -0.1704 -0.2914
 3855TIP3    H133200   2.500   0.200   8.023  1.3277  0.8768 -0.6253
 3855TIP3    H233201   2.367   0.238   7.960  0.2776 -0.2563  0.8538
 3856TIP3   OH233202   1.161   1.664   7.192 -0.1889 -0.1404 -0.3145
 3856TIP3    H133203   1.075   1.633   7.222 -0.0768 -0.4801 -0.3313
 3856TIP3    H233204   1.217   1.655   7.269  0.1198 -1.0914 -0.6286
 3857TIP3   OH233205   2.099   5.388   0.118 -0.3489 -0.4801 -0.8631
 3857TIP3    H133206   2.059   5.301   0.114 -0.2364 -0.4961 -2.3410
 3857TIP3    H233207   2.190   5.373   0.142 -0.5428 -0.6840 -0.2434
 3858TIP3   OH233208   3.736   4.986   7.779 -0.4131  0.3283  0.3951
 3858TIP3    H133209   3.646   4.953   7.775 -0.6157  0.8713  0.2993
 3858TIP3    H233210   3.777   4.954   7.699  0.1127 -1.6689  1.4158
 3859TIP3   OH233211   2.258   3.521   7.097 -0.2433  0.5473 -0.1770
 3859TIP3    H133212   2.255   3.567   7.181 -0.2540  1.7592 -0.8232
 3859TIP3    H233213   2.172   3.479   7.091  0.6201 -1.6866  1.5313
 3860TIP3   OH233214   3.987   1.941   6.144 -0.1800 -0.3315 -0.5224
 3860TIP3    H133215   4.066   1.938   6.090  0.2582  0.2313  0.0716
 3860TIP3    H233216   3.928   1.878   6.104  0.7736 -1.1480 -0.6669
 3861TIP3   OH233217   5.644   4.428   0.474 -1.0342  0.5184 -0.0530
 3861TIP3    H133218   5.556   4.412   0.508 -1.3736 -0.4352 -1.3074
 3861TIP3    H233219   5.648   4.522   0.459 -1.4367  0.7222  1.0681
 3862TIP3   OH233220   5.949   4.180   1.781 -0.3469 -0.0394  0.2036
 3862TIP3    H133221   6.019   4.150   1.838  1.4835 -0.5746 -2.1549
 3862TIP3    H233222   5.958   4.127   1.702 -2.0981  1.3075 -0.9919
 3863TIP3   OH233223   0.988   2.162   6.983  0.5335  0.6375 -0.0179
 3863TIP3    H133224   0.932   2.177   6.907  0.6502  2.8953  0.2738
 3863TIP3    H233225   0.982   2.068   6.999  0.2828  0.1264 -2.6292
 3864TIP3   OH233226   3.884   4.809   1.834 -0.0539 -0.3200  0.4382
 3864TIP3    H133227   3.950   4.796   1.902  0.3021 -2.6710 -0.2699
 3864TIP3    H233228   3.818   4.742   1.852 -0.5752 -0.1570 -0.7810
 3865TIP3   OH233229   3.918   3.173   8.334  0.3665 -0.1995 -0.1825
 3865TIP3    H133230   3.920   3.226   8.255 -0.6354 -2.0000 -1.4906
 3865TIP3    H233231   3.910   3.236   8.405 -3.9471  1.4423 -1.7963
 3866TIP3   OH233232   0.997   3.327   6.984 -0.2987  0.0339 -0.2632
 3866TIP3    H133233   0.980   3.365   6.898  0.1167  1.9972  0.4831
 3866TIP3    H233234   0.938   3.252   6.989 -0.9431  0.4003 -1.9161
 3867TIP3   OH233235   3.321   0.540   0.381 -0.5274  0.5388  0.2809
 3867TIP3    H133236   3.249   0.574   0.327  0.5183  1.0695 -0.8142
 3867TIP3    H233237   3.369   0.618   0.408  1.7527  0.0789 -2.0470
 3868TIP3   OH233238   5.024   5.126   1.312  0.1834  0.2056 -0.5726
 3868TIP3    H133239   5.055   5.172   1.234  1.2603  0.6298  0.0806
 3868TIP3    H233240   4.993   5.196   1.370 -2.3313 -0.2088 -1.2901
 3869TIP3   OH233241   3.959   4.034   0.134  0.4558  0.0043 -0.3345
 3869TIP3    H133242   3.980   3.951   0.176 -0.1210 -0.2724 -0.5828
 3869TIP3    H233243   3.895   4.012   0.066  1.1466  0.4897 -1.1609
 3870TIP3   OH233244   3.974   4.307   1.446 -0.3022 -0.0364 -0.6446
 3870TIP3    H133245   3.992   4.377   1.382  0.0861 -0.3327 -0.8657
 3870TIP3    H233246   4.042   4.318   1.513  0.3491 -0.7720 -1.1608
 3871TIP3   OH233247   3.445   5.968   1.284  0.4329 -0.4475 -0.0763
 3871TIP3    H133248   3.534   5.939   1.302  0.1334 -1.6107 -0.3711
 3871TIP3    H233249   3.409   5.993   1.369  0.9165 -0.3156  0.0891
 3872TIP3   OH233250   1.100   1.863   6.770 -0.3882 -0.5166  0.4258
 3872TIP3    H133251   1.152   1.942   6.756  0.4227 -1.1980 -0.6631
 3872TIP3    H233252   1.159   1.803   6.816  0.0364 -1.4713 -1.2394
 3873TIP3   OH233253   3.044   4.414   7.059  0.0111 -0.0198 -0.3002
 3873TIP3    H133254   3.064   4.326   7.028 -1.3756  0.2179 -2.0145
 3873TIP3    H233255   3.065   4.470   6.984  0.4421  1.0797  0.6151
 3874TIP3   OH233256   4.215   1.788   1.856  0.7227  0.0668  0.7082
 3874TIP3    H133257   4.286   1.761   1.798 -1.3514 -0.1311 -1.9408
 3874TIP3    H233258   4.225   1.883   1.863  0.3345  0.2596 -1.0128
 3875TIP3   OH233259   5.762   1.098   6.931  0.4594  0.1735  0.6477
 3875TIP3    H133260   5.768   1.011   6.892 -0.3864  0.0926  0.6765
 3875TIP3    H233261   5.829   1.149   6.886  0.2985 -0.2340 -0.0651
 3876TIP3   OH233262   1.477   4.207   7.207 -0.1614 -0.3563 -0.4502
 3876TIP3    H133263   1.560   4.161   7.219  0.1017 -0.0144 -0.9332
 3876TIP3    H233264   1.426   4.185   7.285  0.5194 -0.2722  0.0288
 3877TIP3   OH233265   4.808   0.154   8.235  0.6197  0.1905 -0.0532
 3877TIP3    H133266   4.890   0.201   8.218  1.8396 -1.3251  1.2665
 3877TIP3    H233267   4.834   0.063   8.247 -0.8220  0.0201  2.9826
 3878TIP3   OH233268   3.629   5.652   6.823 -0.6744 -0.5364 -0.2677
 3878TIP3    H133269   3.579   5.672   6.902  0.4721 -0.6856  0.5194
 3878TIP3    H233270   3.697   5.720   6.820 -0.4212 -0.8073 -0.8632
 3879TIP3   OH233271   1.322   0.448   7.940 -0.2697 -0.0379  0.1720
 3879TIP3    H133272   1.291   0.511   8.006 -0.3277  0.3072 -0.1758
 3879TIP3    H233273   1.247   0.435   7.882  0.3198  1.1216 -0.9198
 3880TIP3   OH233274   5.088   2.083   7.215 -0.8889  0.4851  0.4802
 3880TIP3    H133275   5.016   2.052   7.160 -1.0445 -0.9366  1.4026
 3880TIP3    H233276   5.158   2.106   7.154 -1.3165 -0.3339 -0.3417
 3881TIP3   OH233277   3.408   5.338   0.544 -0.0361  0.0111  0.8389
 3881TIP3    H133278   3.328   5.351   0.493 -0.1045  1.4656  1.2661
 3881TIP3    H233279   3.380   5.349   0.635  0.2407 -1.7388  1.1643
 3882TIP3   OH233280   6.247   6.514   8.395  0.1057  0.4535 -1.2157
 3882TIP3    H133281   6.189   6.475   8.329  0.2735 -2.4273  0.1690
 3882TIP3    H233282   6.215   6.478   8.478  3.6563 -1.1377 -0.3661
 3883TIP3   OH233283   5.202   5.163   0.029  0.3491  0.2142  0.4868
 3883TIP3    H133284   5.147   5.137   0.103 -0.4908 -0.1798 -0.2589
 3883TIP3    H233285   5.196   5.259   0.027 -1.2323  0.1297 -0.2496
 3884TIP3   OH233286   4.636   1.866   6.947 -0.0830  0.1068  0.5862
 3884TIP3    H133287   4.731   1.851   6.944 -0.1811 -0.3989 -0.0025
 3884TIP3    H233288   4.598   1.782   6.923 -0.6847  0.3318  0.7518
 3885TIP3   OH233289   5.617   2.708   6.957 -0.1526 -0.3394  0.4931
 3885TIP3    H133290   5.544   2.648   6.976 -2.7016  2.6919  1.2879
 3885TIP3    H233291   5.646   2.738   7.043 -0.6837  1.3685  0.1210
 3886TIP3   OH233292   4.633   1.456   7.034 -0.2578  0.0781 -0.0885
 3886TIP3    H133293   4.618   1.415   7.119 -3.3430  0.2017 -0.4393
 3886TIP3    H233294   4.650   1.383   6.974 -3.6961 -0.7412 -0.3183
 3887TIP3   OH233295   1.992   1.869   8.254 -0.2851 -0.0469  0.0646
 3887TIP3    H133296   2.051   1.813   8.304  0.7802  1.2058  0.2604
 3887TIP3    H233297   1.966   1.938   8.315 -1.3529 -0.1600 -0.2467
 3888TIP3   OH233298   3.265   0.821   7.248 -0.1872  0.3249  0.3729
 3888TIP3    H133299   3.340   0.880   7.242 -0.1541  0.3230  0.7610
 3888TIP3    H233300   3.300   0.743   7.291 -0.2141 -0.0057 -0.1981
 3889TIP3   OH233301   3.913   4.588   2.058 -0.0039  0.3207 -0.4038
 3889TIP3    H133302   3.906   4.644   2.135  0.8421  0.3081 -0.3050
 3889TIP3    H233303   3.859   4.511   2.078 -0.7930  0.8818 -0.3485
 3890TIP3   OH233304   5.825   1.938   8.018 -0.1990 -0.4454 -0.5260
 3890TIP3    H133305   5.770   1.893   7.953  1.4078 -2.6481 -0.4831
 3890TIP3    H233306   5.889   1.986   7.965 -1.1586  0.8414 -0.5588
 3891TIP3   OH233307   5.334   1.082   1.328 -0.1013 -0.1189 -0.1184
 3891TIP3    H133308   5.410   1.092   1.385 -0.2852  0.5461  0.0183
 3891TIP3    H233309   5.272   1.029   1.378  1.0098 -2.3895 -0.9702
 3892TIP3   OH233310   5.691   5.879   6.513  0.4090  0.2272 -0.4751
 3892TIP3    H133311   5.733   5.828   6.443 -0.6588 -2.2102  0.5466
 3892TIP3    H233312   5.600   5.888   6.484  0.5878  1.6209 -0.6419
 3893TIP3   OH233313   6.675   6.067   1.220 -0.2040 -0.0324  0.0872
 3893TIP3    H133314   6.620   5.998   1.257  1.5173 -0.4053  2.1805
 3893TIP3    H233315   6.756   6.023   1.195  0.0128  0.8513 -0.8461
 3894TIP3   OH233316   4.097   3.244   0.946  0.1253  0.0712 -0.2583
 3894TIP3    H133317   4.064   3.321   0.900 -0.6426 -0.1023 -0.0199
 3894TIP3    H233318   4.186   3.267   0.971  0.7534 -0.0232 -2.2473
 3895TIP3   OH233319   0.043   3.165   0.596 -0.4307  0.2358  0.7299
 3895TIP3    H133320   0.078   3.097   0.653 -0.7592 -0.8623 -0.3290
 3895TIP3    H233321  -0.026   3.207   0.647 -1.1104 -1.1075  0.9646
 3896TIP3   OH233322   5.418   3.858   1.418  0.0239 -0.2068  0.0630
 3896TIP3    H133323   5.350   3.906   1.370  0.5482  0.7278  0.2161
 3896TIP3    H233324   5.370   3.809   1.484 -0.5840 -0.3760 -0.4884
 3897TIP3   OH233325   2.282   3.702   0.160  0.4155 -0.1035  0.0701
 3897TIP3    H133326   2.258   3.681   0.070 -0.1206 -0.0125  0.1904
 3897TIP3    H233327   2.307   3.619   0.198  0.3398 -0.1899 -0.0680
 3898TIP3   OH233328   2.619   4.456   0.772  0.3660 -0.0139 -0.3446
 3898TIP3    H133329   2.667   4.440   0.853  0.4654  1.2714 -0.1272
 3898TIP3    H233330   2.549   4.391   0.772 -0.7566  1.0912  1.6983
 3899TIP3   OH233331   4.946   4.069   8.108 -0.1922 -0.8225 -0.0847
 3899TIP3    H133332   4.914   3.985   8.074 -0.5865 -1.8995  2.7153
 3899TIP3    H233333   5.024   4.045   8.158  0.6762  0.7666 -0.6236
 3900TIP3   OH233334   3.829   6.603   0.988  0.0788 -0.3301 -0.1282
 3900TIP3    H133335   3.883   6.564   1.057  3.2454 -0.0985 -2.2827
 3900TIP3    H233336   3.840   6.698   1.000 -1.8308 -0.1661  0.7684
 3901TIP3   OH233337   5.301   1.913   0.790  0.3341 -0.2511 -0.2493
 3901TIP3    H133338   5.378   1.884   0.741 -0.1427 -2.4285  0.1949
 3901TIP3    H233339   5.253   1.969   0.728  1.1716 -0.6290 -1.2637
 3902TIP3   OH233340   3.861   1.713   1.169  0.2802 -0.4113  0.3451
 3902TIP3    H133341   3.917   1.717   1.092 -1.8807  3.2772 -1.2575
 3902TIP3    H233342   3.794   1.649   1.146  0.3137 -0.2022 -0.3575
 3903TIP3   OH233343   0.523   2.352   2.226  0.0519 -0.6798  0.2022
 3903TIP3    H133344   0.489   2.428   2.179 -1.5617 -0.7207  1.2032
 3903TIP3    H233345   0.540   2.384   2.315 -0.7659 -1.4859  0.6705
 3904TIP3   OH233346   4.489   2.933   8.625  0.3013 -0.4478  0.0975
 3904TIP3    H133347   4.489   2.977   8.710  0.9390 -0.4974  0.1302
 3904TIP3    H233348   4.564   2.970   8.578  0.9899 -1.6267  0.2094
 3905TIP3   OH233349   4.899   0.191   6.606 -0.2235 -0.1526 -0.0555
 3905TIP3    H133350   4.905   0.261   6.540 -0.0592  0.7307  0.8668
 3905TIP3    H233351   4.965   0.214   6.671  0.2873 -1.5382 -0.0444
 3906TIP3   OH233352   3.621   5.215   1.059 -0.4754 -0.4490 -0.1697
 3906TIP3    H133353   3.639   5.201   0.966 -0.3978  0.3468 -0.2876
 3906TIP3    H233354   3.708   5.215   1.100 -0.4407  0.0345 -0.2317
 3907TIP3   OH233355   3.035   6.729   0.602 -0.0117  0.2832 -0.1115
 3907TIP3    H133356   3.067   6.759   0.517 -0.4987  1.6368  0.1630
 3907TIP3    H233357   3.015   6.809   0.650 -0.9002 -0.4846  0.8433
 3908TIP3   OH233358   6.131   4.997   7.167 -0.2169  0.1127 -0.5500
 3908TIP3    H133359   6.102   5.073   7.117 -1.3989 -0.6902 -1.1198
 3908TIP3    H233360   6.098   5.014   7.256  0.9552  1.0273 -0.2660
 3909TIP3   OH233361   4.347   3.913   1.215 -0.6339 -0.5326 -0.5244
 3909TIP3    H133362   4.431   3.870   1.234 -0.4151 -0.2268 -0.7656
 3909TIP3    H233363   4.290   3.843   1.185 -0.2356 -0.6384 -1.0561
 3910TIP3   OH233364   3.531   0.046   0.844 -0.5681 -0.3515  0.2396
 3910TIP3    H133365   3.563   0.135   0.828  1.7938 -1.2131 -0.3144
 3910TIP3    H233366   3.566   0.023   0.930 -0.8357 -0.8694  0.2134
 3911TIP3   OH233367   3.451   5.372   0.824  0.2707  0.3914  0.3204
 3911TIP3    H133368   3.470   5.461   0.855 -0.0667  0.8250 -0.6539
 3911TIP3    H233369   3.533   5.324   0.836  0.6277  0.9957  0.3235
 3912TIP3   OH233370   1.305   0.719   1.176  0.6332  0.1210 -0.0331
 3912TIP3    H133371   1.302   0.757   1.088 -1.2171  0.0734 -0.0163
 3912TIP3    H233372   1.272   0.788   1.233  0.7514 -0.2496  0.4905
 3913TIP3   OH233373   6.598   2.350   6.781  0.1539 -0.0749 -0.2669
 3913TIP3    H133374   6.530   2.341   6.848  0.8178 -2.9869  0.1666
 3913TIP3    H233375   6.657   2.276   6.797  1.8221  0.6731 -2.4401
 3914TIP3   OH233376   0.003   1.620   0.182 -0.2104 -0.3684 -0.2483
 3914TIP3    H133377   0.085   1.636   0.229 -0.2116  0.6075 -0.5536
 3914TIP3    H233378   0.016   1.535   0.139  0.8236 -0.0053 -0.6774
 3915TIP3   OH233379   2.355   4.414   1.306  0.1542  0.2106 -0.3954
 3915TIP3    H133380   2.435   4.382   1.263 -0.5587 -0.1433 -1.4932
 3915TIP3    H233381   2.379   4.501   1.339  1.1209 -0.0771 -0.3166
 3916TIP3   OH233382   4.517   1.802   8.581  0.5387  0.3887  0.0323
 3916TIP3    H133383   4.497   1.868   8.515  1.5234  0.3341 -0.3242
 3916TIP3    H233384   4.497   1.845   8.664 -4.7425 -0.8119 -0.2472
 3917TIP3   OH233385   6.276   3.870   2.109 -0.1588 -0.0179 -0.1412
 3917TIP3    H133386   6.342   3.936   2.087  0.3853  0.0960  1.6497
 3917TIP3    H233387   6.327   3.797   2.145 -0.8880 -0.7172 -0.4855
 3918TIP3   OH233388   4.925   4.354   0.950  0.5793  0.5633 -0.0866
 3918TIP3    H133389   4.984   4.341   1.024  0.6644 -0.1110 -0.2671
 3918TIP3    H233390   4.953   4.437   0.911  2.5913 -0.5981 -1.2427
 3919TIP3   OH233391   1.000   1.745   7.899 -0.4483  0.1136  0.7319
 3919TIP3    H133392   1.062   1.778   7.964 -2.0251  0.9148  1.8923
 3919TIP3    H233393   0.914   1.754   7.941 -1.4084 -0.4562 -1.0222
 3920TIP3   OH233394   1.174   1.963   0.810  0.3662 -0.3936 -0.4342
 3920TIP3    H133395   1.128   2.045   0.794 -1.7838 -0.9282  2.2060
 3920TIP3    H233396   1.141   1.903   0.744 -0.2965  0.1051 -0.5671
 3921TIP3   OH233397   0.472   5.922   7.709 -0.1855 -0.2029 -0.4989
 3921TIP3    H133398   0.546   5.868   7.734  0.4677 -0.5448 -2.9184
 3921TIP3    H233399   0.408   5.861   7.673 -1.5593  0.1212  1.2888
 3922TIP3   OH233400   6.465   4.534   8.379 -0.0042 -0.1702  0.2176
 3922TIP3    H133401   6.408   4.599   8.422 -1.8475 -1.7722  0.3344
 3922TIP3    H233402   6.405   4.463   8.354  1.5451 -0.7779 -2.0500
 3923TIP3   OH233403   1.309   0.824   0.921 -0.2157 -0.3565 -0.0179
 3923TIP3    H133404   1.310   0.776   0.838 -0.0509 -0.7309  0.1966
 3923TIP3    H233405   1.369   0.897   0.907 -2.4019  1.3350 -1.2336
 3924TIP3   OH233406   2.427   2.565   7.720 -0.1311  0.1642 -0.9119
 3924TIP3    H133407   2.499   2.520   7.765 -1.0525 -0.2415  0.2044
 3924TIP3    H233408   2.468   2.640   7.678  1.3177 -1.2552 -2.1541
 3925TIP3   OH233409   3.079   6.646   8.499  0.1494 -0.3306 -0.0710
 3925TIP3    H133410   3.073   6.654   8.404 -0.4526 -0.1784 -0.0298
 3925TIP3    H233411   3.123   6.726   8.527 -0.0066 -0.1998 -0.1948
 3926TIP3   OH233412   3.583   2.709   8.495  0.4157 -0.0967 -0.7429
 3926TIP3    H133413   3.504   2.678   8.540  0.7774  1.4508  1.0923
 3926TIP3    H233414   3.652   2.701   8.561  1.2636  0.9807 -1.4750
 3927TIP3   OH233415   0.009   3.506   0.355 -0.0303 -0.2646 -0.7175
 3927TIP3    H133416  -0.000   3.469   0.267  0.2437 -0.0405 -0.8433
 3927TIP3    H233417   0.051   3.591   0.340 -0.7404  0.1503 -0.4521
 3928TIP3   OH233418   1.188   0.554   0.831  0.5799 -0.9850 -0.2706
 3928TIP3    H133419   1.182   0.544   0.926  0.9133 -2.4257 -0.3882
 3928TIP3    H233420   1.280   0.543   0.811  0.7374  0.7094 -0.6451
 3929TIP3   OH233421   3.979   5.783   1.564 -0.4712  0.0557 -0.4145
 3929TIP3    H133422   4.040   5.769   1.637 -0.2494 -0.9255 -0.7737
 3929TIP3    H233423   3.893   5.786   1.605 -0.1094  3.3780  0.3438
 3930TIP3   OH233424   2.469   5.078   0.371  0.3196 -0.1733 -0.0301
 3930TIP3    H133425   2.433   5.051   0.456  0.4299  0.2940  0.1701
 3930TIP3    H233426   2.551   5.123   0.393 -0.4186  1.3316 -0.2540
 3931TIP3   OH233427   1.342   2.172   0.246  0.0603 -0.5690 -0.0913
 3931TIP3    H133428   1.346   2.105   0.178 -0.6817 -1.7183  0.9590
 3931TIP3    H233429   1.368   2.253   0.201 -1.2241 -1.1039 -1.9365
 3932TIP3   OH233430   1.391   5.058   2.448  0.2143 -0.0743 -0.0476
 3932TIP3    H133431   1.338   5.136   2.433  1.6096  1.2475  1.5359
 3932TIP3    H233432   1.332   4.998   2.494 -0.4356  0.6318  0.0545
 3933TIP3   OH233433   3.980   0.121   6.968 -0.1409  0.6898  0.1523
 3933TIP3    H133434   3.936   0.195   6.926  0.9584  0.6989 -1.0514
 3933TIP3    H233435   4.071   0.126   6.936  0.4680  0.0330  1.6883
 3934TIP3   OH233436   1.139   3.533   0.126 -0.2468  0.2910  0.4095
 3934TIP3    H133437   1.082   3.460   0.149 -0.4005 -0.0143 -0.8726
 3934TIP3    H233438   1.217   3.522   0.181  0.4681 -1.8139 -0.9251
 3935TIP3   OH233439   3.290   5.733   7.664  0.0062  0.2683  0.3661
 3935TIP3    H133440   3.318   5.794   7.596  2.0894 -0.2912  0.6564
 3935TIP3    H233441   3.256   5.788   7.735  1.0989  1.0466  0.2930
 3936TIP3   OH233442   1.414   6.375   0.129  0.1873  0.2495 -0.4070
 3936TIP3    H133443   1.395   6.452   0.183  1.0323 -0.3898  0.8550
 3936TIP3    H233444   1.462   6.410   0.054 -0.3041  1.0613 -0.3585
 3937TIP3   OH233445   4.866   4.412   7.358  0.0625 -0.5203 -0.4316
 3937TIP3    H133446   4.943   4.396   7.304  0.0808  1.2815 -0.9990
 3937TIP3    H233447   4.801   4.347   7.329  0.5919 -0.5612 -1.5352
 3938TIP3   OH233448   3.002   2.327   0.052  0.2241 -0.1070  0.3988
 3938TIP3    H133449   3.033   2.293  -0.032 -0.3165 -1.9479  0.8982
 3938TIP3    H233450   3.078   2.321   0.110  0.4297  0.5891  0.2051
 3939TIP3   OH233451   5.113   6.847   1.797  0.3102  0.7309  0.1748
 3939TIP3    H133452   5.135   6.768   1.846 -1.0994 -0.7427 -1.3971
 3939TIP3    H233453   5.191   6.865   1.745  0.3329 -0.2416 -0.1648
 3940TIP3   OH233454   4.489   4.823   1.566  0.6489 -0.1166 -0.0350
 3940TIP3    H133455   4.489   4.815   1.471  0.1495 -0.2539 -0.0281
 3940TIP3    H233456   4.455   4.738   1.596  1.2550 -0.2517  0.2818
 3941TIP3   OH233457   6.855   5.836   8.317 -0.6871  0.3554  0.4030
 3941TIP3    H133458   6.838   5.888   8.396 -1.1213 -0.3062  0.7479
 3941TIP3    H233459   6.862   5.902   8.247  1.4307  1.0993  1.2326
 3942TIP3   OH233460   1.117   0.649   7.590  0.4967  0.1976  0.3491
 3942TIP3    H133461   1.052   0.683   7.528 -0.1716  0.8099  1.3614
 3942TIP3    H233462   1.074   0.573   7.630  0.4876  0.4698  0.8594
 3943TIP3   OH233463   2.621   6.733   8.557  0.0896 -0.4299 -0.2078
 3943TIP3    H133464   2.601   6.652   8.604  0.4869  0.4858  1.6500
 3943TIP3    H233465   2.536   6.767   8.531 -0.1354 -1.0336 -0.2817
 3944TIP3   OH233466   5.485   5.596   6.945 -0.4520 -0.5916  0.2522
 3944TIP3    H133467   5.502   5.512   6.903  0.9853 -0.9655  1.5346
 3944TIP3    H233468   5.458   5.574   7.034 -0.0801  0.3019  0.5943
 3945TIP3   OH233469   3.842   5.669   2.034 -0.3041  0.0294  0.3818
 3945TIP3    H133470   3.752   5.637   2.044  0.0446 -0.4595  2.2252
 3945TIP3    H233471   3.895   5.609   2.086  1.5156 -1.3079 -2.6942
 3946TIP3   OH233472   1.248   5.158   8.432  0.5608 -0.1530  0.0028
 3946TIP3    H133473   1.205   5.097   8.372  0.1870  0.7340 -0.6493
 3946TIP3    H233474   1.189   5.233   8.437  2.2705  1.3739 -1.4153
 3947TIP3   OH233475   1.773   1.227   1.527  0.4103  0.0265 -0.2940
 3947TIP3    H133476   1.693   1.269   1.559 -0.0182 -0.6884 -0.4035
 3947TIP3    H233477   1.783   1.257   1.437  0.9870  1.1363  0.1169
 3948TIP3   OH233478   5.424   5.497   0.593  0.1688  0.6444  0.2323
 3948TIP3    H133479   5.406   5.464   0.680  2.0127  1.3655  0.9470
 3948TIP3    H233480   5.483   5.572   0.607  1.4377  0.0907 -1.6584
 3949TIP3   OH233481   5.562   5.935   0.215 -0.4216 -0.5572  0.4258
 3949TIP3    H133482   5.652   5.935   0.248 -0.6825 -1.0712  1.1742
 3949TIP3    H233483   5.549   5.846   0.182 -0.4608 -0.3053 -0.2459
 3950TIP3   OH233484   4.179   5.520   7.540  0.0568 -0.4164 -0.6062
 3950TIP3    H133485   4.128   5.492   7.616  0.8240  2.3399  1.0985
 3950TIP3    H233486   4.234   5.445   7.519  0.5647 -0.9676  2.2793
 3951TIP3   OH233487   3.179   3.857   1.250  0.2720 -0.0674  0.2438
 3951TIP3    H133488   3.096   3.903   1.259 -0.5822 -1.6896  1.3199
 3951TIP3    H233489   3.210   3.847   1.340  1.9251  0.9580 -0.1736
 3952TIP3   OH233490   4.203   1.791   8.315  0.0233 -0.1780  0.5357
 3952TIP3    H133491   4.166   1.744   8.240  0.3772  1.5794 -0.8054
 3952TIP3    H233492   4.298   1.783   8.304  0.1020 -1.2180  1.7065
 3953TIP3   OH233493   6.592   1.695   6.479  0.1411  0.2214  0.4372
 3953TIP3    H133494   6.581   1.601   6.465 -1.5851  0.2984  1.0849
 3953TIP3    H233495   6.684   1.705   6.505  0.7938 -1.0693 -1.1521
 3954TIP3   OH233496   2.838   6.218   7.790 -0.1928  0.0136 -0.3834
 3954TIP3    H133497   2.878   6.131   7.787 -0.8298 -0.3303  0.5855
 3954TIP3    H233498   2.899   6.275   7.743  0.2759 -0.9372 -0.9411
 3955TIP3   OH233499   0.721   5.365   7.254  0.4676 -0.6657  0.3751
 3955TIP3    H133500   0.665   5.441   7.240  2.8723  1.1556 -0.0393
 3955TIP3    H233501   0.769   5.355   7.171  0.6648 -2.2845  0.6378
 3956TIP3   OH233502   2.855   4.808   8.587 -0.2633 -0.5614 -0.4095
 3956TIP3    H133503   2.949   4.789   8.579  0.1481  1.2017 -0.0738
 3956TIP3    H233504   2.813   4.729   8.553  1.3256 -1.6093 -0.0851
 3957TIP3   OH233505   1.332   3.521   1.138 -0.0809  0.0697  0.3595
 3957TIP3    H133506   1.276   3.526   1.216  0.5292 -1.9581  0.9882
 3957TIP3    H233507   1.283   3.568   1.071 -0.7220  1.7047  1.8715
 3958TIP3   OH233508   3.705   5.359   0.543 -1.2632  0.0913 -0.1131
 3958TIP3    H133509   3.733   5.300   0.473 -1.4003 -0.2224  0.0957
 3958TIP3    H233510   3.609   5.359   0.538 -1.2510  0.6218 -0.3801
 3959TIP3   OH233511   5.737   2.628   7.967 -0.0379  0.1334  0.0143
 3959TIP3    H133512   5.787   2.585   7.897  0.1040  0.4676 -0.0931
 3959TIP3    H233513   5.648   2.596   7.956  0.1256 -0.3489  0.1098
 3960TIP3   OH233514   4.333   0.051   6.252 -0.0252  0.2221 -0.1903
 3960TIP3    H133515   4.407  -0.007   6.236  1.3615  1.2902  1.9564
 3960TIP3    H233516   4.276   0.002   6.311  0.1445  0.2950  0.0329
 3961TIP3   OH233517   5.208   1.702   7.216 -0.2017 -0.3743 -0.2755
 3961TIP3    H133518   5.209   1.612   7.184  0.4265 -0.1692 -0.8547
 3961TIP3    H233519   5.298   1.718   7.245 -0.6779 -0.4577  1.3505
 3962TIP3   OH233520   2.464   6.090   8.536 -0.0793 -0.1114 -0.3696
 3962TIP3    H133521   2.514   6.170   8.548  0.6764 -0.2959 -2.0351
 3962TIP3    H233522   2.381   6.119   8.497  0.0381 -0.1096 -0.6166
 3963TIP3   OH233523   3.369   0.943   6.804 -0.0658  0.1997 -0.0730
 3963TIP3    H133524   3.399   0.981   6.886 -0.9906 -0.3402  0.5430
 3963TIP3    H233525   3.376   1.014   6.740  2.0181  0.2294  0.1166
 3964TIP3   OH233526   4.848   0.841   8.113  0.7156 -0.8654 -0.1819
 3964TIP3    H133527   4.783   0.818   8.179  2.3839 -0.8186  1.5536
 3964TIP3    H233528   4.812   0.919   8.070  0.4518  0.2811  2.0096
 3965TIP3   OH233529   1.262   0.157   8.195 -0.2916  0.7911  0.4210
 3965TIP3    H133530   1.265   0.087   8.129  0.3030  0.4870  0.7697
 3965TIP3    H233531   1.340   0.144   8.247 -0.6781  1.1352  1.0913
 3966TIP3   OH233532   6.576   0.438   0.946 -0.4079  0.4412 -0.1914
 3966TIP3    H133533   6.511   0.372   0.924 -1.6352  2.3140 -2.6392
 3966TIP3    H233534   6.619   0.458   0.863  0.2336  2.3848  0.5499
 3967TIP3   OH233535   1.329   1.390   6.832  0.1067 -0.2267  0.3908
 3967TIP3    H133536   1.310   1.330   6.759  1.3982  1.1636 -1.1567
 3967TIP3    H233537   1.375   1.335   6.896  1.3108 -0.9263 -1.0132
 3968TIP3   OH233538   3.314   6.545   1.794  0.1020  0.4775  0.0274
 3968TIP3    H133539   3.305   6.581   1.882 -0.1129  0.1447  0.1473
 3968TIP3    H233540   3.236   6.575   1.748 -1.6224 -2.1587  0.9775
 3969TIP3   OH233541   6.782   2.814   8.423 -0.0340  0.6830  0.6243
 3969TIP3    H133542   6.834   2.800   8.344  0.1282  0.6382  0.7400
 3969TIP3    H233543   6.739   2.899   8.408 -0.3538  0.4658  0.2947
 3970TIP3   OH233544   6.094   4.461   6.217 -0.1349  0.3556 -0.1409
 3970TIP3    H133545   6.010   4.495   6.250  0.4208  1.4432  0.1881
 3970TIP3    H233546   6.080   4.367   6.211 -0.9707  0.3648  1.1617
 3971TIP3   OH233547   4.419   2.759   0.915 -0.2796  0.8265  0.0567
 3971TIP3    H133548   4.454   2.787   1.000  2.1748  2.0207 -1.2398
 3971TIP3    H233549   4.423   2.663   0.919 -0.2898  0.8572  1.3028
 3972TIP3   OH233550   4.330   6.725   8.379 -0.2574  0.0612 -0.0847
 3972TIP3    H133551   4.363   6.760   8.462 -0.4846  0.9295 -0.3426
 3972TIP3    H233552   4.289   6.642   8.402  1.4432 -0.6851  0.3550
 3973TIP3   OH233553   1.080   5.365   7.289  0.0219  0.5057  0.6839
 3973TIP3    H133554   1.062   5.292   7.229 -0.0285 -0.0788  1.3865
 3973TIP3    H233555   1.101   5.439   7.232 -1.7177  0.4452 -0.1068
 3974TIP3   OH233556   6.221   1.216   1.288  0.0462  0.3006  0.3090
 3974TIP3    H133557   6.231   1.238   1.380  0.2134 -0.2383  0.4232
 3974TIP3    H233558   6.225   1.120   1.285 -0.3919  0.2916 -0.2072
 3975TIP3   OH233559   6.410   1.861   8.367  0.2843  0.2477 -0.4007
 3975TIP3    H133560   6.324   1.880   8.405 -0.2231 -0.5997 -1.0752
 3975TIP3    H233561   6.396   1.867   8.272  0.7310 -0.8286 -0.5448
 3976TIP3   OH233562   1.994   1.115   0.107 -0.6984  0.4816 -0.1176
 3976TIP3    H133563   1.912   1.067   0.097 -0.0156 -0.5405 -1.0847
 3976TIP3    H233564   1.996   1.175   0.033 -1.0671  1.3147  0.5231
 3977TIP3   OH233565   1.315   0.888   2.273  0.4359 -0.2696 -0.6198
 3977TIP3    H133566   1.383   0.952   2.252 -0.0035  0.2871 -0.3572
 3977TIP3    H233567   1.264   0.929   2.343 -1.3315  0.1339 -2.0780
 3978TIP3   OH233568   2.844   3.588   0.330 -0.2442 -0.0241 -0.3936
 3978TIP3    H133569   2.770   3.530   0.346 -0.5537  0.0638 -1.4226
 3978TIP3    H233570   2.911   3.532   0.292  0.0822 -0.0219  0.1609
 3979TIP3   OH233571   4.398   1.266   7.189  0.7404  0.0606 -0.0073
 3979TIP3    H133572   4.474   1.293   7.242  1.8257 -2.7884  0.0560
 3979TIP3    H233573   4.343   1.217   7.250 -0.4018  0.7771 -0.4379
 3980TIP3   OH233574   4.825   0.379   6.972  0.3428  0.4805  0.2385
 3980TIP3    H133575   4.788   0.291   6.970 -0.9981  1.0385 -0.7618
 3980TIP3    H233576   4.775   0.425   7.039  0.8762  0.5772  0.5833
 3981TIP3   OH233577   4.643   0.629   8.649 -0.4434 -0.2161  0.7289
 3981TIP3    H133578   4.653   0.721   8.625 -0.1807 -0.9888 -2.6394
 3981TIP3    H233579   4.572   0.628   8.713  0.3967  2.3968  1.8192
 3982TIP3   OH233580   0.902   0.810   6.084 -0.0507  0.3640  0.3792
 3982TIP3    H133581   0.864   0.817   5.996  0.9414 -0.4785 -0.1429
 3982TIP3    H233582   0.989   0.849   6.076  0.1100  0.1310  0.9357
 3983TIP3   OH233583   0.012   5.796   0.864 -0.0984  0.2175  0.4528
 3983TIP3    H133584   0.023   5.709   0.902 -0.5726 -0.9400 -1.8696
 3983TIP3    H233585   0.096   5.840   0.880  0.1554 -0.6341  1.6533
 3984TIP3   OH233586   2.096   1.578   8.217 -0.0129  0.2359  0.0840
 3984TIP3    H133587   2.184   1.548   8.242 -0.3376 -2.2311 -1.3835
 3984TIP3    H233588   2.093   1.564   8.122 -1.8825  0.6442  0.0578
 3985TIP3   OH233589   0.742   5.121   7.366  0.4632  0.1291  0.0555
 3985TIP3    H133590   0.744   5.201   7.314 -3.3785  0.8162  0.6204
 3985TIP3    H233591   0.750   5.150   7.456  3.5424 -0.7042  0.1546
 3986TIP3   OH233592   0.207   3.800   0.611 -0.0097  0.3405  0.4897
 3986TIP3    H133593   0.124   3.838   0.640 -0.7480 -0.2572 -0.7680
 3986TIP3    H233594   0.188   3.764   0.524  1.3867 -0.4249  0.4767
 3987TIP3   OH233595   6.274   3.072   0.637  0.3498  0.5202 -0.0332
 3987TIP3    H133596   6.261   3.081   0.543  0.0419  0.8686  0.0376
 3987TIP3    H233597   6.353   3.124   0.655  1.1237 -0.5469 -0.2744
 3988TIP3   OH233598   5.608   2.592   7.384 -0.6478  0.1985  0.2191
 3988TIP3    H133599   5.584   2.583   7.476 -1.1877 -0.1456  0.0464
 3988TIP3    H233600   5.537   2.550   7.336 -0.3443  0.3294 -0.3548
 3989TIP3   OH233601   2.494   4.263   1.592 -0.4127 -0.5193 -0.0270
 3989TIP3    H133602   2.530   4.282   1.679  1.3169  2.9115 -1.3088
 3989TIP3    H233603   2.399   4.262   1.605 -0.1772 -1.7242  2.1076
 3990TIP3   OH233604   4.270   0.233   6.462 -0.0071 -0.0523 -0.0206
 3990TIP3    H133605   4.365   0.230   6.471 -0.1715 -0.5983  2.3622
 3990TIP3    H233606   4.255   0.245   6.369  2.3946  0.5005 -0.4075
 3991TIP3   OH233607   4.771   4.172   7.639  0.0616  0.0256 -0.3695
 3991TIP3    H133608   4.800   4.090   7.679  0.8101 -0.5769 -2.0409
 3991TIP3    H233609   4.846   4.231   7.650 -0.7299  0.7679  1.4523
 3992TIP3   OH233610   3.682   2.705   1.777  1.1391 -0.1151 -0.3033
 3992TIP3    H133611   3.704   2.652   1.854 -0.3210 -1.3864 -0.7075
 3992TIP3    H233612   3.760   2.701   1.723  1.8255 -0.0397  0.6524
 3993TIP3   OH233613   5.850   4.589   7.161  0.4795  0.2365 -0.7670
 3993TIP3    H133614   5.814   4.503   7.141  2.0750 -0.3298 -1.3517
 3993TIP3    H233615   5.939   4.587   7.126 -0.1199  2.8668 -2.7269
 3994TIP3   OH233616   1.428   1.337   2.340  0.5158 -0.2352 -0.1020
 3994TIP3    H133617   1.357   1.319   2.400  0.9116 -1.6590 -0.0260
 3994TIP3    H233618   1.387   1.339   2.253  0.2891 -0.4942 -0.0020
 3995TIP3   OH233619   1.575   4.634   1.015  0.1824  0.0977 -0.2846
 3995TIP3    H133620   1.618   4.557   0.976  1.6111  0.3706  0.6592
 3995TIP3    H233621   1.616   4.642   1.101 -0.7278  1.2928  0.0523
 3996TIP3   OH233622   3.499   6.494   7.278 -0.3611  0.4187  0.1357
 3996TIP3    H133623   3.455   6.416   7.313  2.6361 -0.5824  2.1432
 3996TIP3    H233624   3.518   6.547   7.356  1.2866  1.0991 -0.6837
 3997TIP3   OH233625   0.831   3.116   8.295 -0.0755 -0.2482  0.0057
 3997TIP3    H133626   0.748   3.152   8.326  0.1227 -0.7872  1.2427
 3997TIP3    H233627   0.807   3.061   8.220 -1.0909 -1.7212  1.3420
 3998TIP3   OH233628   3.956   1.754   7.090  0.1341 -0.3558 -0.2462
 3998TIP3    H133629   4.045   1.783   7.111 -0.7884  1.7735  0.9875
 3998TIP3    H233630   3.964   1.716   7.003  1.9991  1.3132 -0.8895
 3999TIP3   OH233631   2.188   3.543   2.115 -0.1647 -0.6621 -0.0549
 3999TIP3    H133632   2.233   3.608   2.060 -3.0221 -0.1883 -2.0659
 3999TIP3    H233633   2.249   3.469   2.118  0.4738 -0.4857 -3.5139
 4000TIP3   OH233634   1.733   1.952   8.225  0.7667  0.1812 -0.2929
 4000TIP3    H133635   1.815   1.927   8.184  0.3357 -0.4617 -0.7718
 4000TIP3    H233636   1.751   1.949   8.319  1.7782  1.7542 -0.4072
 4001TIP3   OH233637   5.324   1.832   7.487 -0.3792  0.4746  0.4405
 4001TIP3    H133638   5.411   1.823   7.449 -1.0054  0.8024 -1.1735
 4001TIP3    H233639   5.329   1.787   7.572  1.7630  1.7941  1.0862
 4002TIP3   OH233640   5.820   4.469   0.180 -0.5807  0.0563 -0.1648
 4002TIP3    H133641   5.852   4.390   0.224  0.5486 -0.2238 -1.4151
 4002TIP3    H233642   5.841   4.540   0.242 -0.7986 -0.5179  0.5849
 4003TIP3   OH233643   0.472   1.501   7.425  0.3886 -0.1228 -0.1377
 4003TIP3    H133644   0.430   1.527   7.342  0.7168  0.7823 -0.0336
 4003TIP3    H233645   0.551   1.454   7.398 -0.6101 -1.7516 -0.3353
 4004TIP3   OH233646   0.591   6.246   7.852 -0.4046 -0.0409  0.0704
 4004TIP3    H133647   0.563   6.219   7.765 -1.0209 -1.3710  0.6496
 4004TIP3    H233648   0.608   6.340   7.844 -2.5119  0.3184 -0.9816
 4005TIP3   OH233649   4.513   5.334   1.446 -0.0175  0.1087  0.2706
 4005TIP3    H133650   4.555   5.258   1.486 -0.7749 -0.6200 -0.3039
 4005TIP3    H233651   4.499   5.394   1.520  1.1731 -0.0136  0.6220
 4006TIP3   OH233652   0.732   2.645   6.893 -0.0042  0.6327  0.4975
 4006TIP3    H133653   0.735   2.594   6.974 -1.5641  1.2009  0.9504
 4006TIP3    H233654   0.816   2.690   6.889 -0.0591  0.9100  2.0212
 4007TIP3   OH233655   4.153   2.350   1.895 -0.3483 -0.5271 -0.5544
 4007TIP3    H133656   4.102   2.402   1.958  0.3252  0.0076 -0.4417
 4007TIP3    H233657   4.232   2.402   1.879  0.7985 -1.9453  0.2669
 4008TIP3   OH233658   2.929   5.076   1.927 -0.3339 -0.3108 -0.1932
 4008TIP3    H133659   2.882   5.091   2.009  1.1368 -0.1715  0.6642
 4008TIP3    H233660   2.987   5.152   1.919  0.3932 -0.9076 -0.7306
 4009TIP3   OH233661   5.684   1.419   0.926 -0.1745  1.0182  0.0987
 4009TIP3    H133662   5.632   1.404   1.005 -1.4398  0.8736 -0.7247
 4009TIP3    H233663   5.774   1.428   0.957 -0.4189 -0.6162  1.3946
 4010TIP3   OH233664   4.046   1.450   0.407 -0.3950  0.0496 -0.1225
 4010TIP3    H133665   4.070   1.359   0.390 -1.4766 -0.4537  0.8729
 4010TIP3    H233666   3.951   1.452   0.391 -0.5270  0.7797  0.7194
 4011TIP3   OH233667   0.997   0.169   5.895 -0.0713  0.6524 -0.6526
 4011TIP3    H133668   0.950   0.102   5.845 -0.3322  0.7948 -0.5999
 4011TIP3    H233669   0.930   0.212   5.947  0.3508 -0.1879  0.6240
 4012TIP3   OH233670   3.285   0.380   7.116 -0.2818  0.6632 -0.5187
 4012TIP3    H133671   3.199   0.417   7.100 -0.0802  0.8234 -1.2653
 4012TIP3    H233672   3.337   0.405   7.039  0.5667  0.9804  0.1398
 4013TIP3   OH233673   4.810   3.713   7.027 -0.2459 -0.4744  0.0678
 4013TIP3    H133674   4.756   3.671   6.960  0.2176 -1.7191  0.4399
 4013TIP3    H233675   4.890   3.737   6.980 -0.1587 -0.8095  0.0428
 4014TIP3   OH233676   4.518   2.500   1.076 -0.3124  0.3845  0.0937
 4014TIP3    H133677   4.486   2.530   1.162  0.3634 -0.0489  0.5043
 4014TIP3    H233678   4.507   2.405   1.079 -0.3131  0.3725 -0.3152
 4015TIP3   OH233679   0.947   1.583   5.587  0.2155 -0.1436 -0.5274
 4015TIP3    H133680   1.017   1.623   5.535  0.5238  0.1985  0.1360
 4015TIP3    H233681   0.914   1.654   5.642 -1.4694 -0.0004 -1.6609
 4016TIP3   OH233682   4.879   3.294   0.876 -0.0974  0.0060  0.3359
 4016TIP3    H133683   4.890   3.225   0.941  0.6372 -0.6880 -0.4857
 4016TIP3    H233684   4.788   3.288   0.849 -0.2870 -0.0005  0.9729
 4017TIP3   OH233685   1.039   0.847   1.239 -0.2069 -0.1391  0.3971
 4017TIP3    H133686   1.094   0.881   1.310 -0.2594 -0.3575  0.5438
 4017TIP3    H233687   0.949   0.871   1.265 -0.1462  0.6287 -0.0713
 4018TIP3   OH233688   4.177   5.133   8.375  0.0472 -0.2711 -0.5366
 4018TIP3    H133689   4.203   5.166   8.289  0.1102 -0.0604 -0.4387
 4018TIP3    H233690   4.248   5.160   8.434  1.7462 -3.3550 -0.9789
 4019TIP3   OH233691   2.071   1.754   8.503 -0.7531 -0.4361 -0.3934
 4019TIP3    H133692   2.090   1.827   8.562 -3.1665  0.4102 -0.5679
 4019TIP3    H233693   2.103   1.677   8.549 -0.0453  0.5014  0.7327
 4020TIP3   OH233694   5.162   3.444   0.284 -0.1653 -0.1939  0.2422
 4020TIP3    H133695   5.070   3.428   0.305 -0.1971 -0.1917  0.1056
 4020TIP3    H233696   5.210   3.394   0.350 -0.2625 -0.9966 -0.2815
 4021TIP3   OH233697   6.539   3.471   8.440 -0.3528  1.0848  0.4310
 4021TIP3    H133698   6.612   3.429   8.394  0.6139  1.0444  1.9329
 4021TIP3    H233699   6.469   3.474   8.376  0.4280 -0.4040 -0.5566
 4022TIP3   OH233700   6.370   2.440   6.327  0.2313  0.2840 -0.5419
 4022TIP3    H133701   6.341   2.498   6.258 -1.9195  2.3158  1.8788
 4022TIP3    H233702   6.298   2.378   6.338 -0.9027  1.8655  1.7580
 4023TIP3   OH233703   1.061   5.755   0.640 -0.0665  0.4314 -0.0765
 4023TIP3    H133704   1.132   5.765   0.703  0.8717 -2.8395 -0.4136
 4023TIP3    H233705   0.982   5.777   0.689  0.5961 -2.2482  2.4732
 4024TIP3   OH233706   6.367   5.413   1.744 -0.1036 -0.0667  0.5168
 4024TIP3    H133707   6.418   5.352   1.691  0.8827 -0.1629  1.5279
 4024TIP3    H233708   6.370   5.496   1.696 -1.6844 -0.8348 -1.0031
 4025TIP3   OH233709   0.141   3.297   8.142 -0.4326  0.4872 -0.1940
 4025TIP3    H133710   0.093   3.380   8.139 -0.5012  0.5475  1.7021
 4025TIP3    H233711   0.229   3.320   8.114 -0.5656  1.1101 -0.1312
 4026TIP3   OH233712   4.239   4.557   6.940 -0.4216  0.1317 -0.2180
 4026TIP3    H133713   4.313   4.497   6.930 -0.0365  0.8171 -1.8299
 4026TIP3    H233714   4.168   4.517   6.890 -1.4748 -0.9395  1.9905
 4027TIP3   OH233715   2.021   3.688   0.956  0.6748 -0.1262  0.0293
 4027TIP3    H133716   2.061   3.684   1.043  0.8956 -0.0980 -0.0705
 4027TIP3    H233717   2.092   3.712   0.898  0.0525  2.2770  0.1617
 4028TIP3   OH233718   6.131   0.957   6.892  0.0963 -0.3670 -0.1964
 4028TIP3    H133719   6.117   0.935   6.984 -2.1735 -1.2506 -0.6840
 4028TIP3    H233720   6.171   0.879   6.854  0.3321 -0.2835 -0.1217
 4029TIP3   OH233721   6.330   3.993   1.203  0.1554  0.3382  0.2336
 4029TIP3    H133722   6.409   4.042   1.222  0.8804 -0.0673 -1.5286
 4029TIP3    H233723   6.315   4.006   1.110 -1.2835 -0.4167  0.3246
 4030TIP3   OH233724   5.970   5.725   1.780  0.6613 -0.7698  0.3723
 4030TIP3    H133725   6.059   5.736   1.813  0.9027 -0.4343 -0.3700
 4030TIP3    H233726   5.919   5.790   1.829  1.4628  1.4773 -1.5632
 4031TIP3   OH233727   4.867   0.701   7.830  0.3821  0.1785 -0.4144
 4031TIP3    H133728   4.823   0.617   7.840  0.7381 -0.0181 -0.4547
 4031TIP3    H233729   4.918   0.711   7.910  3.0375 -1.2844 -1.7692
 4032TIP3   OH233730   0.990   2.092   6.433 -0.9226 -0.0032  0.1351
 4032TIP3    H133731   1.069   2.145   6.442 -0.4417 -0.8414  1.0579
 4032TIP3    H233732   0.941   2.134   6.363 -0.0757  1.0479  0.1480
 4033TIP3   OH233733   1.262   6.895   1.290 -0.6014 -0.6710 -0.3772
 4033TIP3    H133734   1.337   6.925   1.342 -1.2584 -0.1380  0.2773
 4033TIP3    H233735   1.246   6.806   1.320 -0.4403 -0.6691 -0.2827
 4034TIP3   OH233736   6.228   2.305   7.714  0.2655 -0.2184 -0.1716
 4034TIP3    H133737   6.146   2.260   7.695  0.1507 -0.3325  0.5702
 4034TIP3    H233738   6.206   2.398   7.712 -0.3781 -0.2710  2.0852
 4035TIP3   OH233739   2.113   5.520   1.298 -0.0421 -0.7343 -0.2587
 4035TIP3    H133740   2.185   5.569   1.338  0.4603 -0.3228 -1.6058
 4035TIP3    H233741   2.144   5.499   1.210 -1.7255 -0.1424 -1.0428
 4036TIP3   OH233742   2.458   1.993   1.734  0.6006 -0.1133  0.1610
 4036TIP3    H133743   2.413   2.002   1.650  1.2124 -0.8006 -0.2570
 4036TIP3    H233744   2.395   1.949   1.791  0.7896 -1.2261 -0.4662
 4037TIP3   OH233745   3.099   3.116   7.549  0.0476  0.3238 -0.3085
 4037TIP3    H133746   3.091   3.181   7.619 -1.8040 -1.6334  1.4718
 4037TIP3    H233747   3.191   3.088   7.553 -0.1124 -0.1075  1.7938
 4038TIP3   OH233748   0.052   0.079   7.163 -0.0364  0.0907  0.3134
 4038TIP3    H133749   0.021   0.114   7.246  1.8387  0.8456  0.7531
 4038TIP3    H233750   0.069   0.156   7.109 -1.5052 -0.4020 -0.9078
 4039TIP3   OH233751   2.065   1.072   1.000 -0.3747  0.7183  0.1509
 4039TIP3    H133752   2.043   1.023   1.079  1.1431  0.6953  0.5906
 4039TIP3    H233753   2.121   1.013   0.949 -2.2201  0.3080 -1.5138
 4040TIP3   OH233754   5.392   0.539   8.151  0.1421 -0.4374  0.0733
 4040TIP3    H133755   5.382   0.446   8.172 -0.9644 -0.2936  0.2400
 4040TIP3    H233756   5.337   0.552   8.074  0.2589  0.0819  0.0774
 4041TIP3   OH233757   5.085   3.473   6.936 -0.8118 -0.5251  0.1129
 4041TIP3    H133758   5.067   3.413   7.009  0.8940 -2.4456 -0.9460
 4041TIP3    H233759   5.042   3.433   6.861 -2.1137  1.1723 -0.1209
 4042TIP3   OH233760   5.054   6.355   0.094  0.3889  0.3300  0.1686
 4042TIP3    H133761   5.123   6.304   0.135  0.2045  0.0575  0.1417
 4042TIP3    H233762   4.973   6.317   0.127  0.2506  0.8512  0.4465
 4043TIP3   OH233763   2.213   0.791   1.433 -0.8448 -0.0138  0.5668
 4043TIP3    H133764   2.248   0.732   1.366  0.4776 -0.0002  1.2297
 4043TIP3    H233765   2.278   0.860   1.441 -1.8288  0.9410  0.6326
 4044TIP3   OH233766   3.978   5.922   1.982  0.0330 -0.0313 -0.6696
 4044TIP3    H133767   4.028   5.886   1.908  2.4857 -0.5742  1.1168
 4044TIP3    H233768   3.920   5.851   2.009  2.6901 -1.7783  0.9277
 4045TIP3   OH233769   0.924   1.292   0.467 -0.0621 -0.3806 -0.1968
 4045TIP3    H133770   0.844   1.316   0.514 -0.3424 -1.1400 -0.2695
 4045TIP3    H233771   0.991   1.290   0.534  0.1541  1.3791 -0.3136
 4046TIP3   OH233772   0.869   6.893   7.139  0.0236 -0.3980 -0.4351
 4046TIP3    H133773   0.877   6.823   7.204 -1.6220 -1.0491 -0.9046
 4046TIP3    H233774   0.911   6.858   7.061  3.6710  1.0551  0.6348
 4047TIP3   OH233775   1.010   0.776   8.009 -0.0560 -0.0935  0.2283
 4047TIP3    H133776   0.977   0.728   7.933 -0.5060 -1.6982  1.3784
 4047TIP3    H233777   0.941   0.764   8.075  1.0837 -0.2073  1.4241
 4048TIP3   OH233778   1.661   4.887   0.969  0.3235 -0.7140 -0.1494
 4048TIP3    H133779   1.607   4.810   0.953 -0.5011 -0.0408 -0.6283
 4048TIP3    H233780   1.652   4.903   1.063 -0.7935 -0.2575 -0.3235
 4049TIP3   OH233781   3.023   0.637   0.526  0.0459  0.0824 -0.1746
 4049TIP3    H133782   2.944   0.681   0.559  1.1063  2.1783 -0.2538
 4049TIP3    H233783   3.009   0.629   0.432 -0.7869 -1.1655  0.0360
 4050TIP3   OH233784   4.368   5.310   6.986 -0.1507 -0.4085  0.1499
 4050TIP3    H133785   4.397   5.308   7.077 -0.1854 -1.7148  0.1471
 4050TIP3    H233786   4.370   5.219   6.958  0.1149  0.0010 -1.2460
 4051TIP3   OH233787   3.424   5.654   8.081 -0.3414  0.2065  0.3192
 4051TIP3    H133788   3.416   5.642   7.986  0.8187 -2.0354  0.4393
 4051TIP3    H233789   3.509   5.696   8.093 -0.4214  0.3529  0.3780
 4052TIP3   OH233790   0.519   5.037   1.041 -0.4728 -0.6467  0.1323
 4052TIP3    H133791   0.446   4.995   0.996  0.2470 -0.9696 -0.7547
 4052TIP3    H233792   0.516   5.128   1.011  0.5523 -1.0619 -1.3267
 4053TIP3   OH233793   0.494   6.058   1.444  0.2552 -0.1777  0.6652
 4053TIP3    H133794   0.554   6.097   1.507  0.8840  0.8633 -0.5556
 4053TIP3    H233795   0.527   5.969   1.431  2.4514  0.8084 -1.0617
 4054TIP3   OH233796   5.330   5.112   7.862 -0.2327  0.3249 -0.1891
 4054TIP3    H133797   5.348   5.166   7.940 -1.9856 -0.4983  0.8517
 4054TIP3    H233798   5.369   5.028   7.883  1.6680  0.8504 -1.4104
 4055TIP3   OH233799   4.380   4.329   1.633 -0.0973  0.5380 -0.3641
 4055TIP3    H133800   4.309   4.271   1.605  0.0250 -0.0729  0.5564
 4055TIP3    H233801   4.359   4.413   1.593 -1.5700  0.4770  0.2156
 4056TIP3   OH233802   1.532   5.344   1.993 -0.1469 -0.1583 -0.0395
 4056TIP3    H133803   1.456   5.323   2.048  0.4478 -1.8330  0.1771
 4056TIP3    H233804   1.592   5.389   2.052 -1.1663  1.7066 -0.3508
 4057TIP3   OH233805   5.358   3.294   7.714 -0.5654  0.3696  0.9831
 4057TIP3    H133806   5.298   3.264   7.782  1.3301 -2.4585  1.6039
 4057TIP3    H233807   5.445   3.278   7.751  0.5434 -0.3544 -1.7101
 4058TIP3   OH233808   3.984   0.035   0.924 -0.6014  0.3556  0.0926
 4058TIP3    H133809   3.985   0.112   0.868 -0.3214  0.6713  0.5203
 4058TIP3    H233810   3.999  -0.038   0.865 -1.9179  0.5134 -0.4714
 4059TIP3   OH233811   1.167   5.649   1.644  0.5249 -0.6933  0.7681
 4059TIP3    H133812   1.179   5.664   1.738  2.1211 -1.6997  0.7662
 4059TIP3    H233813   1.196   5.731   1.603  1.1590 -0.7444  1.0988
 4060TIP3   OH233814   3.800   0.296   7.459 -0.6115 -0.5572  0.9484
 4060TIP3    H133815   3.885   0.287   7.502 -0.6350 -0.5984  0.9849
 4060TIP3    H233816   3.815   0.266   7.369 -0.3081  0.4550  0.6357
 4061TIP3   OH233817   1.266   5.786   8.140 -0.0670 -0.0552 -0.2925
 4061TIP3    H133818   1.331   5.733   8.185 -0.5668  0.3040  0.9046
 4061TIP3    H233819   1.219   5.725   8.084  1.6838 -0.2168 -1.6881
 4062TIP3   OH233820   1.882   4.894   8.054  0.5365  0.4272  0.5833
 4062TIP3    H133821   1.907   4.915   7.964 -1.1355 -0.1664 -0.0546
 4062TIP3    H233822   1.925   4.961   8.107 -0.5637  2.4395 -0.9022
 4063TIP3   OH233823   0.397   0.762   7.620  0.1325 -0.6015 -0.0398
 4063TIP3    H133824   0.489   0.740   7.613 -0.1204 -2.0013  0.8119
 4063TIP3    H233825   0.391   0.815   7.700  0.1043 -1.0257  0.2385
 4064TIP3   OH233826   1.285   1.955   7.447 -0.5418 -0.4078 -0.2636
 4064TIP3    H133827   1.347   1.919   7.384  1.3536 -1.2104  1.9310
 4064TIP3    H233828   1.215   1.993   7.393  1.2776 -0.4571 -2.8285
 4065TIP3   OH233829   2.397   4.627   7.023  0.0513  0.0958  0.2926
 4065TIP3    H133830   2.437   4.641   6.937 -0.0771  0.9610  0.3664
 4065TIP3    H233831   2.458   4.567   7.068 -0.2513 -0.9437 -0.6440
 4066TIP3   OH233832   0.828   5.452   1.632 -0.3124  0.2624  0.1715
 4066TIP3    H133833   0.758   5.504   1.671 -1.0611  0.2649 -1.1074
 4066TIP3    H233834   0.889   5.517   1.596  0.3505  0.2601  1.2456
 4067TIP3   OH233835   0.913   2.509   7.406  0.4401 -0.2714 -0.4010
 4067TIP3    H133836   0.914   2.415   7.424 -0.9820 -0.1477  0.4672
 4067TIP3    H233837   0.829   2.539   7.440  1.1424  1.4328 -0.0737
 4068TIP3   OH233838   0.860   4.475   1.015  0.2762 -0.1387  0.0561
 4068TIP3    H133839   0.787   4.435   1.061 -0.6528 -0.4982 -1.6273
 4068TIP3    H233840   0.903   4.401   0.970  1.0376  0.2120  0.1879
 4069TIP3   OH233841   1.609   3.048   8.267  0.0861 -0.5415  0.1632
 4069TIP3    H133842   1.628   3.012   8.354  0.1269 -0.0340  0.3700
 4069TIP3    H233843   1.657   3.131   8.265 -0.9993  0.1004  0.1773
 4070TIP3   OH233844   1.596   2.339   1.514  0.8232 -0.2032 -0.4722
 4070TIP3    H133845   1.565   2.348   1.423  1.2112  0.1794 -0.5712
 4070TIP3    H233846   1.617   2.429   1.541 -2.3014  0.1767  1.1026
 4071TIP3   OH233847   2.419   5.200   0.616  0.0965  0.5458  0.7291
 4071TIP3    H133848   2.375   5.269   0.566 -0.2251 -0.2600 -0.1334
 4071TIP3    H233849   2.510   5.230   0.623  0.1743  0.6152 -0.4499
 4072TIP3   OH233850   5.130   4.305   0.643  0.6858 -0.2739  0.7250
 4072TIP3    H133851   5.077   4.234   0.681  0.9443 -1.6292 -1.2909
 4072TIP3    H233852   5.157   4.357   0.718 -0.9589 -1.3073  2.1203
 4073TIP3   OH233853   4.642   2.711   0.144 -0.3133  0.1296 -0.0152
 4073TIP3    H133854   4.634   2.805   0.161  0.5728  0.2014  0.0675
 4073TIP3    H233855   4.572   2.671   0.195 -1.5518  0.8464 -1.1041
 4074TIP3   OH233856   0.675   6.077   8.338  0.1676 -0.3749  0.2151
 4074TIP3    H133857   0.606   6.064   8.404 -0.4583  1.8151  0.0693
 4074TIP3    H233858   0.756   6.084   8.389 -0.2518  0.8657  0.7597
 4075TIP3   OH233859   6.498   1.300   6.697 -0.4278  0.2511 -0.0320
 4075TIP3    H133860   6.453   1.237   6.754  1.2988 -1.0708 -0.0235
 4075TIP3    H233861   6.467   1.385   6.726 -0.1893 -0.4236  2.4247
 4076TIP3   OH233862   0.373   3.284   6.640  1.1175 -0.2708 -0.3965
 4076TIP3    H133863   0.335   3.226   6.574  1.7741 -0.6373 -0.4660
 4076TIP3    H233864   0.445   3.234   6.677  1.8294  0.5663 -0.5979
 4077TIP3   OH233865   6.052   5.334   7.472  0.3411  0.9817  0.2116
 4077TIP3    H133866   6.030   5.376   7.555 -0.2321  0.2590  0.4373
 4077TIP3    H233867   6.080   5.406   7.415 -2.2044  1.9394  0.0438
 4078TIP3   OH233868   5.196   1.778   8.333 -0.2717  0.0180 -0.7131
 4078TIP3    H133869   5.190   1.807   8.242 -0.9062  2.3210 -0.0080
 4078TIP3    H233870   5.114   1.805   8.373 -0.9620 -2.9069  0.1245
 4079TIP3   OH233871   5.669   4.815   1.888 -0.1609 -0.0783 -0.4242
 4079TIP3    H133872   5.662   4.827   1.983  1.0757  1.5588 -0.4788
 4079TIP3    H233873   5.650   4.722   1.874 -0.7022 -0.2904  1.3733
 4080TIP3   OH233874   4.101   4.478   6.712  0.2751  0.1381  0.2817
 4080TIP3    H133875   4.047   4.427   6.652  0.3395 -1.5263  1.5739
 4080TIP3    H233876   4.145   4.542   6.656  0.2205 -1.2532 -1.4227
 4081TIP3   OH233877   0.977   4.553   8.136  0.0429 -0.6416 -0.3823
 4081TIP3    H133878   0.942   4.594   8.056 -1.4016  0.9734  0.9693
 4081TIP3    H233879   1.001   4.465   8.109 -1.9138 -0.7060 -2.2576
 4082TIP3   OH233880   6.798   0.995   0.629 -0.3416  0.0016  0.2212
 4082TIP3    H133881   6.774   0.976   0.719  2.4970 -0.9117  0.8700
 4082TIP3    H233882   6.847   0.919   0.600  0.5217  1.1112 -1.4361
 4083TIP3   OH233883   4.020   2.112   0.103  0.0413  0.3660 -0.0978
 4083TIP3    H133884   4.092   2.054   0.126  0.1368  0.4472 -0.1925
 4083TIP3    H233885   3.957   2.102   0.175  1.1540  2.0181  1.1692
 4084TIP3   OH233886   0.580   1.346   1.517 -0.4686 -0.3102  0.0151
 4084TIP3    H133887   0.660   1.391   1.546  0.2105 -1.5278  0.1151
 4084TIP3    H233888   0.553   1.295   1.593 -0.6451 -0.8567 -0.4110
 4085TIP3   OH233889   6.666   3.643   8.589  0.0017 -0.0227 -0.7539
 4085TIP3    H133890   6.625   3.564   8.554 -1.3709 -0.0820  0.8226
 4085TIP3    H233891   6.637   3.713   8.531  0.4170 -0.5121 -1.5791
 4086TIP3   OH233892   2.330   0.394   7.721  0.5423 -0.4246  0.0209
 4086TIP3    H133893   2.332   0.298   7.715  1.8448 -0.4021 -0.1602
 4086TIP3    H233894   2.405   0.423   7.669 -0.3189  0.7385 -0.6067
 4087TIP3   OH233895   2.846   5.534   0.524  0.2068 -0.3729 -0.5057
 4087TIP3    H133896   2.860   5.541   0.619 -1.6799 -1.0491 -0.1238
 4087TIP3    H233897   2.862   5.442   0.504 -1.0421 -0.6185 -0.4881
 4088TIP3   OH233898   1.530   1.039   2.187  0.1974  0.0427 -0.0324
 4088TIP3    H133899   1.589   0.964   2.185  1.1273  0.6774  1.6431
 4088TIP3    H233900   1.571   1.100   2.249 -0.7835  1.7218 -0.9530
 4089TIP3   OH233901   0.151   0.147   7.874  0.7388 -0.0838 -0.2346
 4089TIP3    H133902   0.228   0.196   7.904  1.4424 -0.1390 -1.8568
 4089TIP3    H233903   0.120   0.196   7.798 -0.0164 -0.8361 -0.4256
 4090TIP3   OH233904   2.653   5.282   0.739 -0.2525 -0.0766  0.0005
 4090TIP3    H133905   2.747   5.270   0.722  0.3029  3.3764 -0.0553
 4090TIP3    H233906   2.642   5.256   0.830  1.0253  0.4777  0.3410
 4091TIP3   OH233907   4.881   4.190   6.598  0.2388 -0.1021  0.0073
 4091TIP3    H133908   4.807   4.245   6.569 -0.1791 -0.2142  0.8490
 4091TIP3    H233909   4.882   4.118   6.535 -1.3450 -0.9251  0.8668
 4092TIP3   OH233910   3.807   1.859   1.395  0.4065 -0.3796  0.2628
 4092TIP3    H133911   3.832   1.807   1.319  0.5812 -1.1840  0.8644
 4092TIP3    H233912   3.803   1.797   1.467 -1.4156  0.0695  0.5944
 4093TIP3   OH233913   4.304   3.811   6.754  0.2177 -0.3280 -0.1400
 4093TIP3    H133914   4.299   3.716   6.765  2.3304 -0.2201  3.2728
 4093TIP3    H233915   4.354   3.823   6.673  1.3844 -2.2190  0.2337
 4094TIP3   OH233916   4.008   0.578   1.674 -0.0061  0.4661 -0.2911
 4094TIP3    H133917   4.001   0.507   1.611 -0.3709 -1.6651  1.9778
 4094TIP3    H233918   4.102   0.582   1.695 -0.0002  0.5931 -0.3419
 4095TIP3   OH233919   2.693   4.953   7.186  0.4306 -0.2420  0.7124
 4095TIP3    H133920   2.782   4.987   7.192 -0.2015  1.4179  1.3210
 4095TIP3    H233921   2.658   4.993   7.106 -0.0680 -0.0858  1.0038
 4096TIP3   OH233922   4.293   2.909   6.455 -0.1829 -0.2385 -0.4087
 4096TIP3    H133923   4.246   2.849   6.514 -0.0257  0.0051 -0.0342
 4096TIP3    H233924   4.233   2.921   6.381  0.0793 -1.4330 -0.8430
 4097TIP3   OH233925   1.447   6.644   1.409 -0.6340  0.7840  0.3588
 4097TIP3    H133926   1.488   6.558   1.409 -0.7985  0.7021 -0.0900
 4097TIP3    H233927   1.390   6.644   1.485  1.0235  1.3038  1.6762
 4098TIP3   OH233928   1.373   3.906   1.792  0.6458 -0.2146 -0.1583
 4098TIP3    H133929   1.454   3.909   1.842 -0.0580 -1.7819  1.1932
 4098TIP3    H233930   1.330   3.826   1.822 -1.0171  0.1439 -1.4398
 4099TIP3   OH233931   5.741   6.029   8.086 -0.0098  0.5059  0.2947
 4099TIP3    H133932   5.810   6.075   8.133 -0.2123 -0.1025  1.2046
 4099TIP3    H233933   5.736   5.943   8.129  0.1371 -0.2592 -1.1434
 4100TIP3   OH233934   2.218   4.136   7.481  0.2433 -0.0630 -0.0727
 4100TIP3    H133935   2.135   4.182   7.466 -0.9743 -1.9668  0.4822
 4100TIP3    H233936   2.278   4.205   7.510 -0.8787  1.5097 -1.2488
 4101TIP3   OH233937   0.317   6.333   7.178 -0.0564 -0.1738 -0.0653
 4101TIP3    H133938   0.230   6.350   7.215 -1.0106 -1.1497 -1.7086
 4101TIP3    H233939   0.303   6.336   7.083  1.3758 -1.7934 -0.3834
 4102TIP3   OH233940   2.902   6.036   1.429  0.0297  0.0470 -0.1871
 4102TIP3    H133941   2.966   6.090   1.384 -1.5903  0.9586 -1.5175
 4102TIP3    H233942   2.911   6.059   1.522  1.2393  0.5169 -0.4087
 4103TIP3   OH233943   6.068   1.275   8.617  0.8760  0.4943 -0.4180
 4103TIP3    H133944   6.048   1.358   8.574  0.7181  0.7651  0.1584
 4103TIP3    H233945   6.147   1.292   8.668 -1.6549  1.8244  3.5894
 4104TIP3   OH233946   2.609   0.880   7.204 -0.2579  0.2281 -0.7886
 4104TIP3    H133947   2.598   0.848   7.114 -1.0226 -0.0284 -0.6087
 4104TIP3    H233948   2.629   0.973   7.194 -1.4455  0.4538 -1.1841
 4105TIP3   OH233949   5.019   6.074   7.970 -0.2182 -0.4254 -0.5636
 4105TIP3    H133950   4.972   6.063   7.888 -0.5922 -1.4399 -0.2268
 4105TIP3    H233951   4.953   6.103   8.033  0.0602  0.3224 -0.6038
 4106TIP3   OH233952   5.808   1.971   8.649 -0.4216 -0.7082  0.2272
 4106TIP3    H133953   5.779   2.002   8.735 -1.4484 -1.3876  0.1539
 4106TIP3    H233954   5.809   2.049   8.594 -0.7693 -0.4302  0.6093
 4107TIP3   OH233955   4.214   6.094   0.834  0.5174  0.1281 -0.6588
 4107TIP3    H133956   4.221   6.140   0.918  2.6616 -1.6499  0.2366
 4107TIP3    H233957   4.144   6.030   0.847 -1.8174  2.3327 -1.5976
 4108TIP3   OH233958   4.330   1.370   1.004 -0.0476 -0.4055  0.2585
 4108TIP3    H133959   4.334   1.309   0.931  0.0456  0.0367 -0.1136
 4108TIP3    H233960   4.391   1.440   0.980 -2.3985  1.4309 -0.8279
 4109TIP3   OH233961   6.574   5.710   2.081 -0.4785  0.3012 -0.9148
 4109TIP3    H133962   6.500   5.658   2.112  0.1921 -0.8239 -1.1313
 4109TIP3    H233963   6.649   5.651   2.089  0.0651  0.7046 -2.6187
 4110TIP3   OH233964   0.232   4.077   6.874 -0.4642  0.6556  0.0939
 4110TIP3    H133965   0.167   4.098   6.941  2.0316  0.8964  2.6361
 4110TIP3    H233966   0.251   4.161   6.832 -0.7915  0.8352  0.3000
 4111TIP3   OH233967   6.499   2.280   0.810 -0.2279  0.0933 -0.2036
 4111TIP3    H133968   6.589   2.305   0.832  0.0545 -0.5092 -0.6343
 4111TIP3    H233969   6.475   2.337   0.737 -0.1539  0.1710 -0.1672
 4112TIP3   OH233970   3.032   0.425   8.437  0.0143 -0.3043  0.3427
 4112TIP3    H133971   3.090   0.494   8.406 -2.6299  1.0023 -2.2154
 4112TIP3    H233972   3.016   0.446   8.529  0.2231  1.7951 -0.0495
 4113TIP3   OH233973   2.751   4.453   1.018  0.4494 -0.6959 -0.3253
 4113TIP3    H133974   2.832   4.450   1.069 -0.6936  0.1873  1.6755
 4113TIP3    H233975   2.693   4.508   1.069 -1.2378 -0.8041 -2.0136
 4114TIP3   OH233976   3.605   4.919   1.534 -0.2452 -0.7373  0.7220
 4114TIP3    H133977   3.615   4.942   1.441 -2.0328  0.4460  0.7782
 4114TIP3    H233978   3.641   4.830   1.540  2.1402  0.0426 -0.5701
 4115TIP3   OH233979   2.569   6.503   8.239 -0.0626 -0.6228 -0.2964
 4115TIP3    H133980   2.523   6.551   8.307 -0.5118 -0.7383 -0.5122
 4115TIP3    H233981   2.587   6.417   8.278  0.7419 -0.2853  0.0898
 4116TIP3   OH233982   6.484   0.377   7.102  0.6053  0.8310  0.1189
 4116TIP3    H133983   6.412   0.414   7.153 -1.2989  0.9745 -2.4319
 4116TIP3    H233984   6.474   0.283   7.111  1.6138  0.8496  1.6629
 4117TIP3   OH233985   1.718   5.158   0.926 -0.5396  0.3665 -0.1722
 4117TIP3    H133986   1.804   5.180   0.892 -0.1807  2.5436  1.8884
 4117TIP3    H233987   1.713   5.062   0.921  1.4453  0.2939 -1.5092
 4118TIP3   OH233988   5.113   3.309   0.035 -0.6346  0.5659  0.1382
 4118TIP3    H133989   5.150   3.393   0.061  1.8285 -0.4466  0.1739
 4118TIP3    H233990   5.051   3.288   0.105 -1.6184  2.4983 -0.0815
 4119TIP3   OH233991   1.729   6.436   7.453  0.0675 -0.7078  0.2777
 4119TIP3    H133992   1.721   6.493   7.530  0.7748 -0.8747  0.4881
 4119TIP3    H233993   1.823   6.433   7.435 -0.1845  0.4032 -1.4360
 4120TIP3   OH233994   1.556   5.311   1.081 -0.6209 -0.1211  0.4216
 4120TIP3    H133995   1.581   5.253   1.009 -0.9058 -0.1183  0.3179
 4120TIP3    H233996   1.505   5.381   1.039 -1.8023 -0.7494  0.7676
 4121TIP3   OH233997   4.532   3.339   7.857 -0.1753 -0.0007  0.4665
 4121TIP3    H133998   4.540   3.406   7.789 -0.0502 -1.0062 -0.5466
 4121TIP3    H233999   4.444   3.349   7.891  0.5392  2.0808  1.8889
 4122TIP3   OH234000   1.122   1.768   5.745 -0.5168  0.7848 -0.2452
 4122TIP3    H134001   1.030   1.796   5.750 -0.0004  2.7821 -0.9045
 4122TIP3    H234002   1.162   1.803   5.825 -0.2674  0.0907 -0.0580
 4123TIP3   OH234003   6.184   2.390   1.393 -0.3703 -0.0398 -0.3605
 4123TIP3    H134004   6.235   2.309   1.402  1.5427  0.8251 -2.3635
 4123TIP3    H234005   6.096   2.367   1.422  0.2427 -2.6846 -0.3644
 4124TIP3   OH234006   2.234   5.357   6.887 -0.2845 -0.1876  0.8519
 4124TIP3    H134007   2.144   5.364   6.919 -0.1970 -0.8296  1.2506
 4124TIP3    H234008   2.231   5.289   6.819 -0.6407  1.7592 -1.1904
 4125TIP3   OH234009   2.609   4.177   1.266 -0.1969  0.4661  0.5432
 4125TIP3    H134010   2.559   4.191   1.185 -0.9833  1.0893  1.1244
 4125TIP3    H234011   2.638   4.086   1.261  0.2861  0.6638 -0.7212
 4126TIP3   OH234012   3.640   3.438   0.196 -0.0456 -0.5326  0.0983
 4126TIP3    H134013   3.583   3.416   0.269 -0.7339 -2.7988 -1.0185
 4126TIP3    H234014   3.697   3.362   0.186  1.6626  0.7272 -0.2656
 4127TIP3   OH234015   4.514   6.767   2.336  0.3551 -0.9825  0.0021
 4127TIP3    H134016   4.532   6.719   2.255 -2.0700 -0.2249 -1.0677
 4127TIP3    H234017   4.489   6.699   2.399 -0.5934 -1.3472 -0.7528
 4128TIP3   OH234018   1.603   5.356   0.335  0.2578 -0.0088 -0.2736
 4128TIP3    H134019   1.637   5.412   0.265  1.1181 -0.6169 -0.3603
 4128TIP3    H234020   1.532   5.307   0.293 -1.2562  1.7761  0.0941
 4129TIP3   OH234021   3.855   2.343   7.759  0.2602  0.1983  0.3466
 4129TIP3    H134022   3.911   2.410   7.800 -0.2519  0.3725  0.7762
 4129TIP3    H234023   3.910   2.265   7.756  1.1489  0.8278 -0.8826
 4130TIP3   OH234024   3.700   5.859   1.290  0.2181  0.0961  0.0902
 4130TIP3    H134025   3.741   5.878   1.205 -1.5515 -1.9572 -1.3228
 4130TIP3    H234026   3.734   5.928   1.348  3.9202 -0.1760 -1.4329
 4131TIP3   OH234027   1.774   4.220   2.552  0.2906  0.2363 -0.2344
 4131TIP3    H134028   1.704   4.217   2.487  0.0443 -0.1104  0.0487
 4131TIP3    H234029   1.850   4.253   2.503  0.2647 -0.5621 -0.8403
 4132TIP3   OH234030   5.413   2.719   1.753 -0.5759 -0.1631 -0.6470
 4132TIP3    H134031   5.426   2.740   1.846 -0.6460  0.4947 -0.7832
 4132TIP3    H234032   5.319   2.700   1.746 -1.0768  2.2307 -1.0415
 4133TIP3   OH234033   2.236   5.158   8.567 -0.2261  0.2888 -0.0274
 4133TIP3    H134034   2.165   5.113   8.521  1.2416 -1.2632 -0.8830
 4133TIP3    H234035   2.210   5.155   8.659 -1.7920  0.7584 -0.4367
 4134TIP3   OH234036   4.753   5.140   7.702 -0.3995 -0.3282  0.9976
 4134TIP3    H134037   4.722   5.087   7.629  0.3630  1.4573 -0.7258
 4134TIP3    H234038   4.787   5.219   7.661 -2.4127  2.0109  3.4529
 4135TIP3   OH234039   5.163   5.313   1.709 -0.0210 -0.2582 -0.4589
 4135TIP3    H134040   5.089   5.327   1.768  0.0508  2.2646 -0.8461
 4135TIP3    H234041   5.235   5.362   1.749  0.5640 -0.1080 -1.6691
 4136TIP3   OH234042   5.900   3.939   7.940 -0.6794  0.2770 -0.3832
 4136TIP3    H134043   5.911   4.030   7.913  0.3731  0.0018 -0.9409
 4136TIP3    H234044   5.958   3.890   7.882 -2.3890 -0.9375 -1.1571
 4137TIP3   OH234045   5.399   6.494   0.410 -0.1468  0.0123 -0.0304
 4137TIP3    H134046   5.443   6.540   0.338  0.8767 -0.7391  0.0939
 4137TIP3    H234047   5.408   6.402   0.389  5.2727 -0.7503  3.6987
 4138TIP3   OH234048   6.601   1.112   7.207 -0.2462  0.5936  0.2693
 4138TIP3    H134049   6.521   1.065   7.229  1.3833 -2.2953  0.5488
 4138TIP3    H234050   6.627   1.154   7.289  0.3046 -1.4363  1.2078
 4139TIP3   OH234051   2.116   4.764   6.799  0.1264 -0.3099  0.0860
 4139TIP3    H134052   2.021   4.774   6.803  0.0450 -0.4765 -1.0625
 4139TIP3    H234053   2.137   4.700   6.867 -0.5101  0.1084  0.6883
 4140TIP3   OH234054   4.584   5.087   1.596 -0.3860  0.0956  0.0220
 4140TIP3    H134055   4.538   5.004   1.584  1.1911 -0.9902  1.0093
 4140TIP3    H234056   4.653   5.066   1.660  2.0693  1.3471 -2.0673
 4141TIP3   OH234057   3.031   6.251   0.985  0.1174  0.0113  0.2557
 4141TIP3    H134058   2.982   6.270   0.904  0.8896 -2.1517 -0.8197
 4141TIP3    H234059   3.122   6.266   0.962  0.3808 -1.0346  0.5603
 4142TIP3   OH234060   0.432   6.666   1.793 -0.1914 -0.4805 -0.0970
 4142TIP3    H134061   0.360   6.604   1.778  0.7246 -2.2578  2.2562
 4142TIP3    H234062   0.400   6.726   1.860  0.6308 -1.6926  1.4667
 4143TIP3   OH234063   0.591   1.624   7.703 -0.1691  0.0326  0.5853
 4143TIP3    H134064   0.560   1.611   7.613 -1.6264  0.8636  0.9377
 4143TIP3    H234065   0.673   1.673   7.693 -0.6782  0.7493 -0.2815
 4144TIP3   OH234066   2.157   1.984   1.058  0.0935  0.6934  0.4723
 4144TIP3    H134067   2.101   2.021   0.990  0.0347 -2.6583 -1.5146
 4144TIP3    H234068   2.140   2.038   1.135 -1.1227  3.6211 -1.6813
 4145TIP3   OH234069   6.666   2.788   6.466 -0.0748  0.3871 -0.5173
 4145TIP3    H134070   6.709   2.765   6.383  1.4883 -0.8719  0.5783
 4145TIP3    H234071   6.709   2.869   6.494  0.3858  0.0604 -0.2689
 4146TIP3   OH234072   5.468   0.513   0.200 -0.2076  0.1246 -0.5001
 4146TIP3    H134073   5.465   0.598   0.243 -0.0794 -0.0083 -0.2277
 4146TIP3    H234074   5.399   0.462   0.241  0.9472 -0.5284  0.6830
 4147TIP3   OH234075   1.274   1.190   6.640  0.3786  0.4771 -0.6123
 4147TIP3    H134076   1.259   1.099   6.666 -0.2709  1.0508  1.1359
 4147TIP3    H234077   1.340   1.184   6.571  2.9341 -1.1310  1.7642
 4148TIP3   OH234078   4.975   5.903   0.227 -0.1237 -0.4516  0.0532
 4148TIP3    H134079   4.912   5.912   0.299 -1.5034 -0.7201 -1.0956
 4148TIP3    H234080   4.980   5.809   0.212  1.5894 -0.5536  0.9892
 4149TIP3   OH234081   5.029   1.492   8.379  0.1534 -0.3837 -0.0155
 4149TIP3    H134082   5.108   1.438   8.378  0.8693  0.5558  1.7719
 4149TIP3    H234083   5.045   1.560   8.313  0.3092 -0.8598 -0.4812
 4150TIP3   OH234084   6.082   6.500   7.045  0.6922 -0.1750 -0.4805
 4150TIP3    H134085   6.093   6.579   6.992  0.7514  0.9804  1.1467
 4150TIP3    H234086   5.988   6.494   7.060  0.7892  0.4309  0.5292
 4151TIP3   OH234087   0.993   2.220   7.481 -0.2709  0.0693 -0.7530
 4151TIP3    H134088   0.961   2.214   7.571  0.5645 -0.0659 -0.4617
 4151TIP3    H234089   0.996   2.129   7.451  0.5011  0.0190 -0.5405
 4152TIP3   OH234090   5.271   3.204   7.441 -0.6102  0.1633 -0.5381
 4152TIP3    H134091   5.228   3.283   7.407 -1.5267 -0.2127 -0.2652
 4152TIP3    H234092   5.288   3.225   7.533 -0.8090  0.0594 -0.4781
 4153TIP3   OH234093   0.534   6.185   7.007  0.0738  0.1309  0.3555
 4153TIP3    H134094   0.530   6.162   7.100 -0.4208 -0.1061  0.2847
 4153TIP3    H234095   0.455   6.238   6.993 -0.5316 -0.8702 -0.1849
 4154TIP3   OH234096   2.923   4.545   7.464  0.2939  0.1988  0.1782
 4154TIP3    H134097   2.868   4.620   7.440  1.2247  0.8641  0.0708
 4154TIP3    H234098   2.999   4.551   7.406  0.2968 -0.9540  0.0300
 4155TIP3   OH234099   1.886   3.837   1.916  0.1595 -0.5461  0.0234
 4155TIP3    H134100   1.882   3.863   1.824 -0.6640 -0.2448  0.1385
 4155TIP3    H234101   1.930   3.752   1.915  0.5137 -0.3560 -0.6079
 4156TIP3   OH234102   2.006   3.787   0.601 -0.3181  0.2285 -0.0571
 4156TIP3    H134103   2.020   3.870   0.556 -0.6283 -0.1106 -0.7904
 4156TIP3    H234104   1.911   3.779   0.606 -0.3516 -1.1392 -2.0109
 4157TIP3   OH234105   1.620   4.259   8.609  0.0479 -0.2344  0.3665
 4157TIP3    H134106   1.578   4.191   8.557  1.2439 -0.7284 -0.0068
 4157TIP3    H234107   1.638   4.218   8.693 -0.3207  0.0120  0.5678
 4158TIP3   OH234108   1.399   3.127   0.551  0.4826  0.7363  0.4791
 4158TIP3    H134109   1.418   3.148   0.643 -2.2922  1.4400  0.9805
 4158TIP3    H234110   1.339   3.195   0.522 -0.5824 -0.7798 -1.1115
 4159TIP3   OH234111   2.954   5.273   0.539 -0.4008 -0.4497  0.0702
 4159TIP3    H134112   2.916   5.188   0.561  0.4203 -1.0619 -0.7906
 4159TIP3    H234113   2.996   5.259   0.454 -0.1813  0.7995 -0.0478
 4160TIP3   OH234114   2.893   2.847   6.573 -0.5046 -0.2454  0.3922
 4160TIP3    H134115   2.874   2.771   6.518 -0.1859  0.1377 -0.2691
 4160TIP3    H234116   2.864   2.922   6.521  1.8540  0.2969 -0.2813
 4161TIP3   OH234117   0.843   0.096   7.724 -0.0040  0.3088 -0.1092
 4161TIP3    H134118   0.936   0.118   7.729 -0.3432  1.8475 -0.0376
 4161TIP3    H234119   0.833   0.055   7.638  0.5559  1.1615 -0.5948
 4162TIP3   OH234120   6.736   4.987   7.864  0.5689 -0.0195  0.7572
 4162TIP3    H134121   6.652   4.980   7.909 -1.5074 -1.0592 -2.8545
 4162TIP3    H234122   6.739   5.077   7.832 -0.5555 -0.6406 -1.2962
 4163TIP3   OH234123   3.234   1.749   8.666 -0.2899  0.3526 -0.4604
 4163TIP3    H134124   3.172   1.813   8.700  0.1723  1.4714 -1.6347
 4163TIP3    H234125   3.302   1.744   8.733 -0.6137  0.6792 -0.1044
 4164TIP3   OH234126   2.346   5.711   0.838 -0.7687 -0.5132  0.1168
 4164TIP3    H134127   2.430   5.665   0.832  0.3349  1.2610  0.9452
 4164TIP3    H234128   2.370   5.804   0.830 -2.5411  0.0907  1.3360
 4165TIP3   OH234129   6.636   5.744   7.187  0.4806  0.6779  0.2016
 4165TIP3    H134130   6.666   5.809   7.250 -0.9042  2.6372 -1.0559
 4165TIP3    H234131   6.647   5.786   7.101 -1.9552 -0.0519 -0.5621
 4166TIP3   OH234132   5.306   5.492   1.886 -0.7913 -0.2974 -0.5614
 4166TIP3    H134133   5.298   5.545   1.966  0.5490 -0.7951 -0.0735
 4166TIP3    H234134   5.264   5.409   1.909 -1.0185 -0.1966 -0.6107
 4167TIP3   OH234135   4.761   0.107   6.892  0.3099  0.1524  0.5119
 4167TIP3    H134136   4.721   0.166   6.829  0.4660  1.2294  1.3912
 4167TIP3    H234137   4.687   0.065   6.936  0.1864 -1.7884 -1.4051
 4168TIP3   OH234138   4.413   2.472   0.744 -0.0584  0.7904 -0.3405
 4168TIP3    H134139   4.461   2.391   0.728 -1.8203 -0.1288 -1.2183
 4168TIP3    H234140   4.372   2.493   0.660 -1.8603  1.0631  0.5556
 4169TIP3   OH234141   5.543   0.207   7.359 -0.7783  0.1656 -0.3837
 4169TIP3    H134142   5.497   0.290   7.373 -0.5419  0.2479 -0.0577
 4169TIP3    H234143   5.577   0.185   7.446  0.5432  0.5570 -0.7725
 4170TIP3   OH234144   2.322   5.056   1.421 -0.5814  0.4899  0.2167
 4170TIP3    H134145   2.367   5.090   1.498 -0.8725 -0.2466  0.7286
 4170TIP3    H234146   2.238   5.101   1.421 -0.4549  0.7258  0.1477
 4171TIP3   OH234147   4.283   4.177   1.321  0.0156  0.1149  0.3849
 4171TIP3    H134148   4.311   4.101   1.270  0.2174  1.4509 -1.5991
 4171TIP3    H234149   4.350   4.243   1.304 -0.5431  0.9962  1.4620
 4172TIP3   OH234150   4.447   2.899   6.804  0.2696  0.7882 -0.1540
 4172TIP3    H134151   4.408   2.963   6.864 -1.5472  1.6924 -2.1441
 4172TIP3    H234152   4.379   2.833   6.793  0.9311  0.1635 -0.5382
 4173TIP3   OH234153   5.667   6.892   7.243  0.3703 -0.1713 -0.3093
 4173TIP3    H134154   5.645   6.971   7.293 -0.0601 -0.6632  0.2969
 4173TIP3    H234155   5.599   6.886   7.176 -0.7057 -1.0222  0.8047
 4174TIP3   OH234156   2.458   5.290   6.236  0.0917  0.3193 -0.2834
 4174TIP3    H134157   2.449   5.221   6.171 -0.5245  0.8116 -0.7301
 4174TIP3    H234158   2.532   5.342   6.207 -0.9394  1.2750 -1.3057
 4175TIP3   OH234159   3.365   6.539   7.967  0.0371 -0.0314  0.3621
 4175TIP3    H134160   3.351   6.596   8.043 -0.8855  1.3847 -0.8081
 4175TIP3    H234161   3.278   6.510   7.942  0.3913 -1.0020  0.2149
 4176TIP3   OH234162   0.756   2.480   7.857 -0.1321 -0.0117  0.1156
 4176TIP3    H134163   0.740   2.502   7.949  0.0605 -0.2496  0.2097
 4176TIP3    H234164   0.772   2.564   7.814 -0.0672  0.0880  0.3326
 4177TIP3   OH234165   1.202   6.314   7.888 -0.4610  0.0255  0.2293
 4177TIP3    H134166   1.193   6.407   7.907 -1.4656 -0.4937  2.6004
 4177TIP3    H234167   1.284   6.308   7.838 -1.6384  2.4119 -2.2649
 4178TIP3   OH234168   5.953   0.391   7.515 -0.4725 -0.3271  0.3848
 4178TIP3    H134169   5.942   0.453   7.442  1.4971 -0.3744 -0.0013
 4178TIP3    H234170   5.940   0.305   7.475  0.0487 -0.3257  0.2123
 4179TIP3   OH234171   0.501   2.663   7.697 -0.6906 -0.1578 -0.5116
 4179TIP3    H134172   0.576   2.721   7.682 -1.3286  0.7467 -0.2596
 4179TIP3    H234173   0.541   2.577   7.715  0.4032  0.7213  1.6346
 4180TIP3   OH234174   5.965   1.530   8.633 -0.1022 -0.0486 -0.7104
 4180TIP3    H134175   5.999   1.619   8.630  1.8701 -0.7670 -1.6858
 4180TIP3    H234176   5.886   1.532   8.580  0.7526  0.8162 -1.9855
 4181TIP3   OH234177   4.854   6.773   1.902  0.1241  0.4772 -0.2701
 4181TIP3    H134178   4.859   6.683   1.936  0.3502  0.2058 -1.0020
 4181TIP3    H234179   4.945   6.796   1.884  0.3110  1.5969  1.7513
 4182TIP3   OH234180   5.472   4.181   1.670  1.0830 -0.2061 -0.6450
 4182TIP3    H134181   5.491   4.095   1.633  1.1365 -0.9444  0.9947
 4182TIP3    H234182   5.557   4.212   1.703  1.1201  0.6192 -1.4872
 4183TIP3   OH234183   5.788   2.178   8.472  0.4109  0.3600 -0.3214
 4183TIP3    H134184   5.698   2.175   8.439  0.4268 -0.7333 -0.2998
 4183TIP3    H234185   5.838   2.127   8.409  0.6255 -0.8787  0.8222
 4184TIP3   OH234186   6.819   1.310   7.991 -0.1027  0.3870  0.2689
 4184TIP3    H134187   6.875   1.356   8.053 -1.6776  1.6274  0.8738
 4184TIP3    H234188   6.877   1.282   7.920  1.3780  0.8312  1.2750
 4185TIP3   OH234189   1.642   2.522   8.234 -0.0586 -0.0037  0.3353
 4185TIP3    H134190   1.732   2.545   8.256  0.1339  0.4723 -0.9160
 4185TIP3    H234191   1.638   2.522   8.139 -1.4639  0.3319  0.3600
 4186TIP3   OH234192   2.857   4.472   2.389  0.4022 -0.2218  0.5498
 4186TIP3    H134193   2.777   4.421   2.377 -0.0564  0.0838  2.1063
 4186TIP3    H234194   2.902   4.467   2.304 -1.4029 -0.1389 -0.4607
 4187TIP3   OH234195   4.280   2.658   0.539  0.0456  0.3848  0.0202
 4187TIP3    H134196   4.317   2.745   0.524 -1.3420  1.0306  0.1685
 4187TIP3    H234197   4.219   2.671   0.611  0.0402 -0.7784  0.2281
 4188TIP3   OH234198   5.909   4.392   1.446 -0.7145  0.4117 -0.2552
 4188TIP3    H134199   5.988   4.350   1.481  0.3063  2.3556 -0.1223
 4188TIP3    H234200   5.845   4.321   1.441  0.9876 -1.2099 -0.2473
 4189TIP3   OH234201   6.110   4.281   1.137 -0.0227  0.2315 -0.2404
 4189TIP3    H134202   6.042   4.263   1.072 -0.1956  0.1575 -0.0440
 4189TIP3    H234203   6.098   4.213   1.203  1.2366 -0.7037 -0.9591
 4190TIP3   OH234204   1.619   3.113   2.562  0.6749  0.2558  0.0037
 4190TIP3    H134205   1.666   3.078   2.637 -0.6364  2.5738  2.0511
 4190TIP3    H234206   1.622   3.208   2.574 -0.2949  0.6663 -2.4554
 4191TIP3   OH234207   5.822   0.337   1.162  0.1850 -0.1734  0.1523
 4191TIP3    H134208   5.779   0.252   1.170  0.6337 -0.6199 -1.8119
 4191TIP3    H234209   5.916   0.317   1.163  0.4996 -0.5240 -5.7945
 4192TIP3   OH234210   0.996   3.401   7.942  0.2576 -0.7201 -0.3901
 4192TIP3    H134211   0.907   3.430   7.963  1.0951  0.7654  1.3591
 4192TIP3    H234212   1.013   3.329   8.002  0.0293 -1.4742 -1.1993
 4193TIP3   OH234213   4.145   2.287   8.364  0.1905  0.1889 -0.5160
 4193TIP3    H134214   4.220   2.231   8.341  1.4462  1.4276  0.3439
 4193TIP3    H234215   4.137   2.348   8.291  0.3580  0.3747 -0.3813
 4194TIP3   OH234216   2.822   3.332   1.542  0.5350  0.4349  0.7819
 4194TIP3    H134217   2.841   3.243   1.512  1.2261  1.1809 -1.1737
 4194TIP3    H234218   2.731   3.329   1.570 -0.3248 -0.3432 -1.8004
 4195TIP3   OH234219   4.820   1.398   0.764  0.6726 -0.3163 -0.7361
 4195TIP3    H134220   4.848   1.347   0.689 -0.1833  0.8711 -1.9002
 4195TIP3    H234221   4.752   1.345   0.806  1.3530 -1.1066 -0.6032
 4196TIP3   OH234222   5.869   0.778   1.170 -0.3441  0.5090 -0.0849
 4196TIP3    H134223   5.863   0.778   1.265 -3.0840 -0.5012 -0.1671
 4196TIP3    H234224   5.783   0.746   1.141  0.3814  0.8889 -2.8945
 4197TIP3   OH234225   2.004   4.429   1.436  0.0870 -0.1763 -0.2449
 4197TIP3    H134226   2.065   4.356   1.430  1.1700  0.7812 -1.5813
 4197TIP3    H234227   1.971   4.439   1.346 -0.8722  0.2987  0.1482
 4198TIP3   OH234228   3.124   4.972   7.546  0.4550 -0.2350  0.2394
 4198TIP3    H134229   3.171   4.909   7.600 -0.7963 -0.1476  1.4964
 4198TIP3    H234230   3.192   5.027   7.506  1.4369 -0.8043  1.1006
 4199TIP3   OH234231   6.847   0.565   7.657 -0.4083 -0.2075 -0.0153
 4199TIP3    H134232   6.756   0.540   7.638 -0.6215  0.9081 -0.5611
 4199TIP3    H234233   6.853   0.657   7.629  0.2507  0.4553  2.1266
 4200TIP3   OH234234   0.913   0.399   0.328 -0.0623  0.2168 -0.6279
 4200TIP3    H134235   0.841   0.462   0.329  1.2699  1.8012 -0.4474
 4200TIP3    H234236   0.962   0.417   0.408  0.5062 -0.8851 -0.7040
 4201TIP3   OH234237   6.648   2.658   1.356  0.0555  0.3486  0.6161
 4201TIP3    H134238   6.553   2.651   1.351 -0.0099  1.3868 -0.0180
 4201TIP3    H234239   6.665   2.694   1.443 -0.1375  0.1678  0.7268
 4202TIP3   OH234240   1.062   0.993   7.304  0.4479  0.1661  0.2253
 4202TIP3    H134241   0.997   1.043   7.354 -2.3003 -1.1740 -1.7610
 4202TIP3    H234242   1.012   0.953   7.233  3.4970 -1.0257 -1.4249
 4203TIP3   OH234243   5.446   4.262   6.608 -0.2399  0.1984 -0.1944
 4203TIP3    H134244   5.443   4.183   6.661  1.0994 -0.9714 -1.7373
 4203TIP3    H234245   5.381   4.248   6.539  1.0078 -0.2818 -1.3288
 4204TIP3   OH234246   2.064   5.774   1.526  0.1861 -0.3844  0.1842
 4204TIP3    H134247   2.082   5.691   1.570 -0.8941 -0.9652 -0.4412
 4204TIP3    H234248   2.013   5.824   1.589 -4.2318 -2.4534 -1.3482
 4205TIP3   OH234249   6.751   0.543   8.042 -0.1408  0.2828 -0.1946
 4205TIP3    H134250   6.711   0.575   8.123 -1.1047 -0.0528 -0.5281
 4205TIP3    H234251   6.823   0.487   8.072 -0.4873  0.1590  0.4350
 4206TIP3   OH234252   5.703   1.307   0.030  0.3792 -0.2375  0.1990
 4206TIP3    H134253   5.748   1.321  -0.054 -1.6005 -0.4529 -0.9716
 4206TIP3    H234254   5.729   1.219   0.057  0.6534 -0.3642 -0.4594
 4207TIP3   OH234255   3.458   4.528   7.997 -0.5833 -0.1539  0.2426
 4207TIP3    H134256   3.520   4.565   7.934 -1.6445 -0.1422 -0.8432
 4207TIP3    H234257   3.462   4.434   7.982  0.6633 -0.3545  1.6244
 4208TIP3   OH234258   3.146   5.508   7.124 -0.2426 -0.1585  0.5139
 4208TIP3    H134259   3.203   5.485   7.050 -0.0811 -1.7025  1.0794
 4208TIP3    H234260   3.059   5.516   7.086  0.2295  1.7815 -0.2845
 4209TIP3   OH234261   3.110   3.319   7.748 -0.3659  0.1484 -0.1704
 4209TIP3    H134262   3.053   3.396   7.743 -0.8029 -0.0825  0.9299
 4209TIP3    H234263   3.123   3.305   7.841  2.4119  0.8315 -0.3819
 4210TIP3   OH234264   1.029   5.300   1.118  0.3863 -0.1749  0.3260
 4210TIP3    H134265   1.046   5.393   1.105  0.4392 -0.2692 -0.3144
 4210TIP3    H234266   0.997   5.294   1.207  0.0068  0.5106  0.2446
 4211TIP3   OH234267   5.164   5.042   8.202  0.2822 -0.6631  0.0185
 4211TIP3    H134268   5.078   5.002   8.215  1.0870 -1.6826  2.7518
 4211TIP3    H234269   5.192   5.070   8.289  1.3880  2.6471 -1.2111
 4212TIP3   OH234270   0.004   3.837   7.128 -0.9019  0.0852 -0.2372
 4212TIP3    H134271   0.041   3.775   7.066 -1.7249 -0.3237 -0.3300
 4212TIP3    H234272  -0.000   3.920   7.080  1.8740  0.7314  0.4406
 4213TIP3   OH234273   3.317   2.155   0.131 -0.6004 -0.6284 -0.3142
 4213TIP3    H134274   3.285   2.111   0.210  1.4231  0.5885  1.2914
 4213TIP3    H234275   3.403   2.189   0.156 -0.7560  1.5686 -2.4389
 4214TIP3   OH234276   2.520   3.844   8.084  0.2129 -0.3262 -0.1260
 4214TIP3    H134277   2.582   3.791   8.035  0.3106  0.5533 -0.9726
 4214TIP3    H234278   2.445   3.853   8.026  0.0029  0.0726  0.2035
 4215TIP3   OH234279   6.826   6.841   1.623 -0.2283 -0.5038 -0.5748
 4215TIP3    H134280   6.764   6.826   1.695 -0.4863  0.4799 -0.5794
 4215TIP3    H234281   6.774   6.884   1.555  0.7621  1.7498  0.0124
 4216TIP3   OH234282   3.889   6.207   8.406  0.0133 -0.1844 -0.0468
 4216TIP3    H134283   3.912   6.114   8.415 -0.4405 -0.2178  0.8833
 4216TIP3    H234284   3.968   6.254   8.430 -0.3586 -0.3173  1.5231
 4217TIP3   OH234285   5.882   1.096   0.086 -0.5383 -0.3405 -0.0327
 4217TIP3    H134286   5.914   1.144   0.162 -0.3862  0.5869 -0.6642
 4217TIP3    H234287   5.936   1.127   0.013 -0.0998 -1.8616 -0.3736
 4218TIP3   OH234288   4.001   6.109   1.341  0.6608  0.3455 -0.5061
 4218TIP3    H134289   4.058   6.166   1.391 -0.6785  2.8037 -1.5856
 4218TIP3    H234290   3.924   6.096   1.396 -0.5357  2.5331 -1.5190
 4219TIP3   OH234291   4.570   4.203   1.804 -0.6681 -0.7075 -0.1484
 4219TIP3    H134292   4.543   4.220   1.894 -1.0040  0.9369 -0.5355
 4219TIP3    H234293   4.504   4.246   1.750  0.3019 -0.4465 -1.1652
 4220TIP3   OH234294   6.034   3.531   7.460  0.6369 -0.2177  0.8320
 4220TIP3    H134295   6.033   3.588   7.383  2.1886 -0.8870  0.2768
 4220TIP3    H234296   5.975   3.458   7.437 -0.8540  0.7806  1.2986
 4221TIP3   OH234297   5.039   6.622   6.547 -0.2221 -0.0656  0.1788
 4221TIP3    H134298   5.132   6.641   6.549 -0.0778 -0.6459 -0.5011
 4221TIP3    H234299   5.030   6.550   6.483 -0.9834 -0.8370  1.1145
 4222TIP3   OH234300   1.102   3.200   7.678  0.4219  0.3721 -0.0860
 4222TIP3    H134301   1.177   3.161   7.632 -0.9215 -1.0845 -1.1507
 4222TIP3    H234302   1.056   3.126   7.717 -0.5638  1.2166  0.4015
 4223TIP3   OH234303   0.163   1.074   7.558  0.2229 -1.0898  0.2203
 4223TIP3    H134304   0.174   1.169   7.567  0.3579 -0.9208 -1.5072
 4223TIP3    H234305   0.246   1.037   7.589 -0.3624 -0.7914  2.3698
 4224TIP3   OH234306   5.094   6.230   1.603  0.7511 -0.2447 -0.2614
 4224TIP3    H134307   5.081   6.190   1.689 -0.2146  1.1717  0.2864
 4224TIP3    H234308   5.141   6.163   1.553 -1.0757 -2.2248  0.4673
 4225TIP3   OH234309   0.723   2.735   0.293 -0.3532 -0.0604  0.2133
 4225TIP3    H134310   0.647   2.759   0.240 -1.8661 -0.0715  2.2808
 4225TIP3    H234311   0.689   2.725   0.382  2.1887  0.5655  1.3528
 4226TIP3   OH234312   6.799   3.767   0.767  0.0459 -0.0103  0.5029
 4226TIP3    H134313   6.828   3.853   0.735 -2.8821 -0.1698 -3.3403
 4226TIP3    H234314   6.730   3.787   0.831  0.6130  0.4410  0.9839
 4227TIP3   OH234315   4.803   5.247   0.322  0.5420 -0.2747  0.5604
 4227TIP3    H134316   4.806   5.338   0.295  1.0285 -0.2868  0.5571
 4227TIP3    H234317   4.712   5.231   0.345 -0.4368 -0.8614 -3.1177
 4228TIP3   OH234318   3.036   6.678   1.331 -0.0727 -0.2751  0.1208
 4228TIP3    H134319   3.102   6.722   1.386 -0.4430 -1.4164  1.5489
 4228TIP3    H234320   3.081   6.602   1.294 -0.5182 -1.0000  1.0163
 4229TIP3   OH234321   1.996   2.016   7.725  0.4843 -0.0159 -0.0901
 4229TIP3    H134322   1.915   2.054   7.761  0.9832  2.0757 -0.9980
 4229TIP3    H234323   2.030   1.961   7.795 -0.3618  1.1895  1.3335
 4230TIP3   OH234324   6.844   5.287   6.642 -0.1442 -0.4284  0.3485
 4230TIP3    H134325   6.751   5.307   6.653 -0.3381 -1.5651  0.9497
 4230TIP3    H234326   6.852   5.258   6.551 -0.3611 -0.2745  0.2806
 4231TIP3   OH234327   3.351   1.911   1.386  0.3978  0.0498 -0.4287
 4231TIP3    H134328   3.271   1.860   1.396 -1.2510  2.5030 -0.1844
 4231TIP3    H234329   3.381   1.892   1.297 -0.9279 -0.2961 -0.8218
 4232TIP3   OH234330   1.014   2.680   7.998  0.0663 -0.0060  0.2524
 4232TIP3    H134331   0.931   2.723   8.019  1.2514  1.0298  3.4345
 4232TIP3    H234332   1.005   2.592   8.034  0.3297  0.1110  0.6092
 4233TIP3   OH234333   4.664   1.374   1.111 -0.6691 -0.2908  0.4763
 4233TIP3    H134334   4.597   1.428   1.069  0.1496  0.7441  0.4590
 4233TIP3    H234335   4.690   1.311   1.043 -0.1259  0.6763 -0.2503
 4234TIP3   OH234336   4.972   6.307   0.380 -0.5273 -0.8062 -0.1124
 4234TIP3    H134337   4.896   6.264   0.419 -1.0806 -0.7076 -1.0432
 4234TIP3    H234338   4.960   6.400   0.400  0.9344 -1.0695  2.3471
 4235TIP3   OH234339   6.253   0.662   1.540 -0.4950 -0.0452 -0.7035
 4235TIP3    H134340   6.263   0.756   1.522 -0.5312  0.5446  2.0195
 4235TIP3    H234341   6.159   0.646   1.532 -0.7299  0.5896  0.6424
 4236TIP3   OH234342   4.348   3.640   8.051  0.4685  0.5348  0.1390
 4236TIP3    H134343   4.381   3.624   8.139 -2.0946 -2.7150  0.6989
 4236TIP3    H234344   4.295   3.719   8.058 -1.5659 -0.8862  2.2321
 4237TIP3   OH234345   4.043   0.420   0.546 -1.0071  0.1240 -0.0407
 4237TIP3    H134346   4.002   0.453   0.465 -2.0783  1.0443  0.8370
 4237TIP3    H234347   4.103   0.353   0.516 -0.3847  1.3486 -1.7293
 4238TIP3   OH234348   6.257   4.700   8.548 -0.3972 -0.1539 -0.2534
 4238TIP3    H134349   6.312   4.682   8.624 -0.3058  1.7178  0.1641
 4238TIP3    H234350   6.176   4.652   8.566 -0.1576 -0.2222  0.7243
 4239TIP3   OH234351   2.978   2.124   7.755  0.0809  0.4082 -0.2714
 4239TIP3    H134352   2.913   2.194   7.752  0.1077  0.5178  0.9036
 4239TIP3    H234353   2.978   2.095   7.847  1.7678  0.4950 -0.2058
 4240TIP3   OH234354   4.702   0.029   6.125  0.2437 -0.4552 -0.8655
 4240TIP3    H134355   4.637  -0.025   6.080 -0.7529  0.6859 -0.8635
 4240TIP3    H234356   4.729   0.093   6.059 -0.6840  0.7669 -0.1136
 4241TIP3   OH234357   4.286   5.983   1.121 -0.4374 -0.4404  0.7988
 4241TIP3    H134358   4.356   6.041   1.152 -0.4898  0.1707 -0.1663
 4241TIP3    H234359   4.206   6.035   1.132 -0.3332  0.2690 -1.3968
 4242TIP3   OH234360   2.691   2.922   6.287  0.3195  1.0859 -0.4101
 4242TIP3    H134361   2.744   2.845   6.265 -0.4992  0.4936 -0.3814
 4242TIP3    H234362   2.737   2.962   6.361 -0.1256 -0.3769  0.7290
 4243TIP3   OH234363   4.204   3.506   7.319  0.1081 -0.4579  0.3143
 4243TIP3    H134364   4.117   3.481   7.348  0.4292 -1.2832  0.5819
 4243TIP3    H234365   4.244   3.425   7.289  1.2954 -0.3640  1.5341
 4244TIP3   OH234366   2.026   3.138   6.746  0.1725  0.0767  0.1471
 4244TIP3    H134367   2.054   3.049   6.766 -0.3006  0.2460  1.6609
 4244TIP3    H234368   1.958   3.127   6.680 -0.1001 -0.6977  0.5498
 4245TIP3   OH234369   3.452   2.519   0.359  0.4323  0.5056 -0.2943
 4245TIP3    H134370   3.445   2.539   0.452 -0.1599  0.0289 -0.2294
 4245TIP3    H234371   3.361   2.509   0.330  0.5662 -4.1684  0.1611
 4246TIP3   OH234372   5.145   1.077   1.124  0.1814  0.0657 -0.3079
 4246TIP3    H134373   5.207   1.056   1.194 -0.2715 -0.4320 -0.0463
 4246TIP3    H234374   5.157   1.170   1.108 -0.8094  0.5460  1.5359
 4247TIP3   OH234375   6.644   5.962   7.346 -0.2902 -0.4991  0.4489
 4247TIP3    H134376   6.671   6.049   7.372 -1.6186 -0.2094  0.9282
 4247TIP3    H234377   6.565   5.976   7.293  0.9389 -1.2402 -1.7052
 4248TIP3   OH234378   1.115   4.797   8.192 -0.1835  0.3049 -0.2634
 4248TIP3    H134379   1.169   4.783   8.115  0.3681 -0.0812  0.1834
 4248TIP3    H234380   1.077   4.712   8.211 -0.4427  0.4334 -0.2003
 4249TIP3   OH234381   5.969   0.494   1.559 -0.0617  0.1536  0.8565
 4249TIP3    H134382   5.999   0.515   1.471 -3.6402 -0.5504 -0.7333
 4249TIP3    H234383   5.959   0.579   1.602  1.2053  0.5398  0.4198
 4250TIP3   OH234384   1.963   3.476   8.621  0.4274 -0.2597  0.7243
 4250TIP3    H134385   2.028   3.541   8.595  1.7777 -1.4814  0.9118
 4250TIP3    H234386   2.006   3.425   8.690  0.1577 -2.5060 -0.6564
 4251TIP3   OH234387   3.554   4.281   0.334 -0.0565  0.1947  0.2553
 4251TIP3    H134388   3.502   4.351   0.374 -2.3602 -1.7673  0.9515
 4251TIP3    H234389   3.553   4.301   0.240 -0.3070  1.2904  0.4792
 4252TIP3   OH234390   3.240   5.566   6.844  0.0156  0.0142 -0.3871
 4252TIP3    H134391   3.261   5.585   6.753  0.7823  1.0178 -0.0231
 4252TIP3    H234392   3.315   5.516   6.876 -0.7607 -1.3235 -0.5927
 4253TIP3   OH234393   3.060   2.686   8.370  0.6802  0.6997  0.1713
 4253TIP3    H134394   2.997   2.617   8.349  1.0915  0.0320  1.0660
 4253TIP3    H234395   3.133   2.672   8.310  0.3044  1.0260 -0.3720
 4254TIP3   OH234396   3.626   4.515   7.164 -0.5534  0.3433 -0.4584
 4254TIP3    H134397   3.693   4.497   7.099  0.1555  2.4140 -0.3509
 4254TIP3    H234398   3.626   4.610   7.174 -1.4219  0.1815  1.7341
 4255TIP3   OH234399   3.024   6.586   0.872  1.2372  0.6159 -0.1153
 4255TIP3    H134400   3.112   6.559   0.845  0.7581 -0.1767 -0.9062
 4255TIP3    H234401   3.033   6.680   0.891  1.8190  1.0096 -2.1233
 4256TIP3   OH234402   5.969   0.425   7.030  0.2770 -0.1926  0.5051
 4256TIP3    H134403   5.920   0.398   7.107  0.8426 -2.3741  0.1573
 4256TIP3    H234404   5.952   0.356   6.965  3.6230 -0.9827  0.3128
 4257TIP3   OH234405   1.923   3.411   1.502  0.4580 -0.2796 -0.2687
 4257TIP3    H134406   1.897   3.503   1.503  0.2399 -0.2759 -2.0067
 4257TIP3    H234407   1.902   3.378   1.589  0.9090  1.4007  0.5191
 4258TIP3   OH234408   4.068   0.557   7.527  0.6776  0.4034  0.2141
 4258TIP3    H134409   4.070   0.604   7.443 -1.5438  0.9379  0.3941
 4258TIP3    H234410   4.004   0.605   7.579  2.7097  0.6776  2.6370
 4259TIP3   OH234411   2.058   0.767   0.185 -0.1643 -0.3741  0.5805
 4259TIP3    H134412   1.979   0.756   0.238 -1.0410 -1.0375 -0.8100
 4259TIP3    H234413   2.100   0.681   0.187  0.0371 -0.2762  0.5674
 4260TIP3   OH234414   5.110   2.733   6.473  0.2598 -0.1088 -0.5519
 4260TIP3    H134415   5.114   2.782   6.391 -0.3593  1.6330  0.3956
 4260TIP3    H234416   5.026   2.687   6.469  0.2759 -0.1061 -0.9412
 4261TIP3   OH234417   1.913   3.531   1.227 -0.3931  0.2323 -0.5587
 4261TIP3    H134418   1.943   3.455   1.179 -1.2174  0.4211 -1.3898
 4261TIP3    H234419   1.819   3.518   1.237 -0.7918  1.7396 -1.8711
 4262TIP3   OH234420   4.670   6.605   0.019 -0.0527 -0.6006 -0.4954
 4262TIP3    H134421   4.633   6.547   0.085 -0.0648 -1.2916 -1.0913
 4262TIP3    H234422   4.626   6.580  -0.062  2.9018 -2.7295 -1.6097
 4263TIP3   OH234423   3.915   2.719   8.264  0.3889  0.0592  0.4047
 4263TIP3    H134424   3.833   2.765   8.247 -0.4775 -1.7402 -0.5189
 4263TIP3    H234425   3.980   2.789   8.271 -0.7707  1.4229 -1.3945
 4264TIP3   OH234426   5.335   5.858   0.741 -0.2456  0.0155  0.2306
 4264TIP3    H134427   5.409   5.864   0.681  0.3479 -1.3289  0.7693
 4264TIP3    H234428   5.309   5.949   0.757  0.6765  0.4649 -0.7060
 4265TIP3   OH234429   5.902   4.748   1.003 -0.2386 -0.4109 -0.2826
 4265TIP3    H134430   5.864   4.663   1.025  1.1882 -1.1950 -0.7311
 4265TIP3    H234431   5.964   4.729   0.933  1.4032  0.7134  0.7940
 4266TIP3   OH234432   0.138   6.338   8.597  0.0898  0.1762 -0.1570
 4266TIP3    H134433   0.174   6.422   8.627  0.1684  0.9910 -2.3271
 4266TIP3    H234434   0.211   6.297   8.550 -0.4367 -0.3109 -0.5551
 4267TIP3   OH234435   5.562   1.964   1.950 -0.5285  0.0761  0.2714
 4267TIP3    H134436   5.576   2.006   1.865 -0.6475 -0.0019  0.2110
 4267TIP3    H234437   5.595   2.026   2.014 -0.7907  0.3035  0.1902
 4268TIP3   OH234438   2.541   6.587   0.128 -0.2075 -1.0132 -0.3635
 4268TIP3    H134439   2.608   6.653   0.146 -0.1261 -1.0475 -0.5347
 4268TIP3    H234440   2.584   6.504   0.147 -0.9783 -0.9385  1.9510
 4269TIP3   OH234441   4.040   5.710   6.401 -0.0501  0.0981  0.2299
 4269TIP3    H134442   3.969   5.770   6.376  0.3298  0.5040  0.1124
 4269TIP3    H234443   4.018   5.628   6.357 -0.2187  0.3501 -0.1697
 4270TIP3   OH234444   4.261   5.235   6.521 -0.3453 -0.6269 -0.2162
 4270TIP3    H134445   4.257   5.325   6.490  2.1878 -0.5487 -0.5150
 4270TIP3    H234446   4.293   5.185   6.446 -2.1226 -1.9251 -0.2079
 4271TIP3   OH234447   3.106   4.148   6.979  0.8135 -0.1684  0.2231
 4271TIP3    H134448   3.033   4.103   7.021 -1.1242  2.0505 -0.5760
 4271TIP3    H234449   3.143   4.083   6.919  1.4879 -2.2871  2.7437
 4272TIP3   OH234450   3.247   6.048   8.303  0.0482 -0.2725  0.0240
 4272TIP3    H134451   3.214   6.112   8.240  1.8336 -0.6562 -1.4096
 4272TIP3    H234452   3.251   5.966   8.253  2.0128 -0.4742  0.4249
 4273TIP3   OH234453   0.822   6.126   7.548 -0.3409 -0.2728  0.1440
 4273TIP3    H134454   0.850   6.116   7.457 -1.4571  0.0469 -0.2446
 4273TIP3    H234455   0.903   6.128   7.598  0.5194  2.9871 -1.1356
 4274TIP3   OH234456   0.947   3.422   2.141  0.1613  0.2028  0.4680
 4274TIP3    H134457   0.871   3.401   2.196  1.0871 -1.5874  1.1480
 4274TIP3    H234458   1.022   3.417   2.200  0.9199  1.1008 -0.3739
 4275TIP3   OH234459   3.641   6.855   1.088  0.3374 -0.2164 -0.5177
 4275TIP3    H134460   3.584   6.871   1.163  1.2677 -0.5225  0.2649
 4275TIP3    H234461   3.726   6.889   1.115  0.6843 -0.3400 -1.4354
 4276TIP3   OH234462   0.281   2.052   8.383  0.0985 -0.2032  0.2138
 4276TIP3    H134463   0.188   2.029   8.384 -0.2004  0.8336  2.4171
 4276TIP3    H234464   0.301   2.068   8.291 -2.0353  0.0737 -0.2481
 4277TIP3   OH234465   6.865   2.360   0.590 -0.5041 -0.6865  0.2147
 4277TIP3    H134466   6.852   2.441   0.638  0.0484  0.5161 -1.5363
 4277TIP3    H234467   6.849   2.290   0.654  1.4076  0.7680  2.4349
 4278TIP3   OH234468   1.836   2.783   7.792  0.3313  0.2211  0.2638
 4278TIP3    H134469   1.875   2.727   7.859  0.3585 -1.2528 -0.9301
 4278TIP3    H234470   1.905   2.794   7.727  0.2632  1.5289  0.3823
 4279TIP3   OH234471   5.359   5.886   2.194 -0.3507 -0.0279 -0.5702
 4279TIP3    H134472   5.403   5.970   2.208  0.6538 -0.7151  0.5851
 4279TIP3    H234473   5.284   5.908   2.138  0.6823  1.3978 -1.4735
 4280TIP3   OH234474   6.705   5.386   7.707 -0.2990  0.5026  0.2066
 4280TIP3    H134475   6.689   5.479   7.690 -0.3021  0.6489  1.0024
 4280TIP3    H234476   6.696   5.377   7.802  2.2035  0.1651  0.4785
 4281TIP3   OH234477   4.512   2.820   0.649  0.1161 -0.2053  0.2926
 4281TIP3    H134478   4.497   2.813   0.743  0.3160 -0.0462  0.3371
 4281TIP3    H234479   4.456   2.894   0.622  1.5244  1.0221  0.6261
 4282TIP3   OH234480   4.064   0.223   1.300 -0.3596  0.3308  0.3156
 4282TIP3    H134481   4.058   0.253   1.390  2.3562  0.2287  0.6041
 4282TIP3    H234482   4.087   0.301   1.250 -0.8664  0.1842 -0.1635
 4283TIP3   OH234483   3.891   2.635   7.469  0.1717 -0.0348  0.5200
 4283TIP3    H134484   3.959   2.610   7.531 -1.2367  2.8721  3.5697
 4283TIP3    H234485   3.889   2.731   7.473 -2.0258  0.1265 -1.7993
 4284TIP3   OH234486   3.307   2.555   7.921 -0.4889  0.3264  0.0878
 4284TIP3    H134487   3.311   2.533   8.014 -0.7897  1.2176  0.3185
 4284TIP3    H234488   3.294   2.470   7.877  0.6172 -0.2181  0.7667
 4285TIP3   OH234489   3.620   3.702   7.571  0.0604 -0.1073 -0.2279
 4285TIP3    H134490   3.682   3.655   7.627 -0.5452 -0.8889 -0.2008
 4285TIP3    H234491   3.650   3.682   7.482 -0.1582 -0.4974 -0.2155
 4286TIP3   OH234492   1.095   3.595   2.390 -0.7874 -0.0671  0.9206
 4286TIP3    H134493   1.111   3.508   2.352 -0.1825  0.6858 -0.6407
 4286TIP3    H234494   1.013   3.624   2.348 -0.5499  0.4446  0.8086
 4287TIP3   OH234495   1.575   3.677   1.978  0.1194 -0.6427 -0.0567
 4287TIP3    H134496   1.662   3.660   2.013  0.2681 -1.3656 -0.7578
 4287TIP3    H234497   1.534   3.736   2.042  1.1500 -0.2210  0.2276
 4288TIP3   OH234498   5.066   4.718   7.245 -0.6035 -0.0854  0.1673
 4288TIP3    H134499   5.039   4.763   7.326  0.2924  0.6003  0.0990
 4288TIP3    H234500   5.158   4.695   7.260  0.2015  1.8081 -1.3801
 4289TIP3   OH234501   3.638   6.391   0.941  0.0179  0.0635 -0.0177
 4289TIP3    H134502   3.707   6.456   0.955  0.1222  0.1976 -1.0670
 4289TIP3    H234503   3.622   6.392   0.846  0.8047 -2.2350 -0.2504
 4290TIP3   OH234504   1.291   6.634   7.504 -0.8459 -0.1586  0.3387
 4290TIP3    H134505   1.259   6.692   7.435 -0.5500  1.4426  1.4651
 4290TIP3    H234506   1.383   6.620   7.483 -1.0396 -0.6260 -0.2043
 4291TIP3   OH234507   5.834   5.401   7.007  0.7375  0.0164 -0.0189
 4291TIP3    H134508   5.755   5.390   6.954  2.1130 -0.4045 -2.1138
 4291TIP3    H234509   5.819   5.345   7.084 -1.4891  0.9520  0.2988
 4292TIP3   OH234510   3.440   3.733   8.460  0.0580 -0.0094 -0.5433
 4292TIP3    H134511   3.406   3.643   8.464 -0.5868  0.2150 -0.8021
 4292TIP3    H234512   3.443   3.761   8.552  0.7052 -0.4513 -0.4242
 4293TIP3   OH234513   4.527   5.802   0.579 -0.0457 -0.2983 -0.5794
 4293TIP3    H134514   4.514   5.779   0.671  0.3607 -1.6355 -0.8319
 4293TIP3    H234515   4.594   5.742   0.549  1.0110  1.2015 -1.3503
 4294TIP3   OH234516   3.748   4.475   1.064  0.5303 -0.1766  0.2777
 4294TIP3    H134517   3.824   4.421   1.085 -0.2466 -1.3927  0.0921
 4294TIP3    H234518   3.753   4.486   0.969  0.3566 -0.4359  0.2389
 4295TIP3   OH234519   2.758   5.085   0.531 -0.1392 -0.1522  0.2233
 4295TIP3    H134520   2.768   5.028   0.454  0.2820  1.4635 -0.9642
 4295TIP3    H234521   2.719   5.165   0.496  1.1039  1.0545  1.5074
 4296TIP3   OH234522   2.640   5.946   0.178 -0.0059  0.5038  0.7857
 4296TIP3    H134523   2.681   5.953   0.265 -0.2274  1.2546  0.8370
 4296TIP3    H234524   2.567   5.886   0.191 -1.9059  2.8599  1.8776
 4297TIP3   OH234525   3.575   3.552   0.882 -0.4332 -0.4949 -0.4934
 4297TIP3    H134526   3.524   3.562   0.962  1.3194  0.6005  0.5447
 4297TIP3    H234527   3.662   3.587   0.904 -0.3902  1.5808 -3.3700
 4298TIP3   OH234528   5.097   5.401   2.243  0.0519  0.0659 -0.2062
 4298TIP3    H134529   5.016   5.395   2.293 -0.1060 -0.2890 -0.5051
 4298TIP3    H234530   5.166   5.388   2.309 -0.1208  0.5302  0.0737
 4299TIP3   OH234531   2.551   1.962   0.351  0.3108 -0.2182  0.4125
 4299TIP3    H134532   2.499   1.882   0.343 -0.1283  0.0137  0.9296
 4299TIP3    H234533   2.492   2.026   0.391  0.0961  0.8867 -1.5093
 4300TIP3   OH234534   5.720   5.324   0.663  0.2176  0.3103 -0.0000
 4300TIP3    H134535   5.718   5.337   0.569 -1.0676 -1.6990 -0.3183
 4300TIP3    H234536   5.718   5.228   0.674  1.0281  0.4735  2.0613
 4301TIP3   OH234537   3.572   4.732   0.349 -0.3133  0.5139  0.0417
 4301TIP3    H134538   3.486   4.716   0.312 -0.4977  0.5637  0.4436
 4301TIP3    H234539   3.612   4.645   0.356 -0.2246  0.5172 -0.3921
 4302TIP3   OH234540   6.387   3.501   1.975  0.6531 -0.7507 -0.1846
 4302TIP3    H134541   6.302   3.462   1.954 -0.5373  0.6207  1.7036
 4302TIP3    H234542   6.429   3.438   2.034 -0.6006  0.0099  1.6274
 4303TIP3   OH234543   3.819   1.095   0.454 -1.1783 -0.2493 -0.3864
 4303TIP3    H134544   3.764   1.123   0.380 -0.0493 -0.6562 -1.4197
 4303TIP3    H234545   3.887   1.162   0.460  1.0159 -2.1013 -2.3025
 4304TIP3   OH234546   5.504   3.234   6.157 -0.2358  0.5124  0.6327
 4304TIP3    H134547   5.446   3.159   6.142 -0.4695  0.7832  0.1614
 4304TIP3    H234548   5.465   3.305   6.105  1.2589  0.3459 -0.7927
 4305TIP3   OH234549   0.056   0.925   7.177 -0.2401  0.5600  0.1868
 4305TIP3    H134550  -0.026   0.896   7.137  0.5510 -2.0823  0.2540
 4305TIP3    H234551   0.029   0.974   7.255 -1.7540  0.3420 -0.1745
 4306TIP3   OH234552   2.621   6.124   7.341  0.4105  0.0838  0.2980
 4306TIP3    H134553   2.710   6.156   7.325 -0.5348  1.7081 -2.2877
 4306TIP3    H234554   2.608   6.056   7.274 -0.1367 -0.5312  1.0143
 4307TIP3   OH234555   2.153   0.125   6.372 -0.1571  0.2352 -0.1940
 4307TIP3    H134556   2.060   0.136   6.352 -0.3025 -0.3125  0.1598
 4307TIP3    H234557   2.199   0.161   6.296 -0.6745 -0.8244 -1.0281
 4308TIP3   OH234558   5.709   6.816   7.723  0.2815  0.2743 -0.0849
 4308TIP3    H134559   5.724   6.721   7.721 -0.9053  0.0864 -1.4096
 4308TIP3    H234560   5.640   6.828   7.788  0.1388  0.1710 -0.2158
 4309TIP3   OH234561   2.297   0.518   7.976  0.4190 -0.6270  0.2888
 4309TIP3    H134562   2.314   0.467   7.897  1.3959  0.5569 -0.3167
 4309TIP3    H234563   2.383   0.527   8.017  0.4402  1.1721 -0.0616
 4310TIP3   OH234564   3.754   5.647   7.514  0.0963 -0.1423  0.0744
 4310TIP3    H134565   3.697   5.722   7.529 -0.4273 -0.5587  0.2033
 4310TIP3    H234566   3.772   5.612   7.601  2.4144  1.3156  0.2600
 4311TIP3   OH234567   3.543   6.484   6.720  0.6323 -0.2648  0.2524
 4311TIP3    H134568   3.515   6.468   6.811 -0.5137 -1.5553 -0.2901
 4311TIP3    H234569   3.638   6.487   6.725  0.6023 -0.5726  1.4787
 4312TIP3   OH234570   4.360   2.419   1.729  0.1800 -0.5522 -0.5150
 4312TIP3    H134571   4.427   2.364   1.770 -0.1010  0.0154  0.7533
 4312TIP3    H234572   4.404   2.503   1.715 -1.1524  1.0907  3.7376
 4313TIP3   OH234573   5.770   1.073   0.839 -0.4972  0.3018  0.3600
 4313TIP3    H134574   5.845   1.046   0.893 -0.2598 -0.6787 -0.4478
 4313TIP3    H234575   5.695   1.070   0.899 -0.0132  0.6006  0.9933
 4314TIP3   OH234576   0.846   4.851   0.476  0.1169 -0.5148  0.5008
 4314TIP3    H134577   0.797   4.867   0.395 -0.8705 -1.3469  0.9169
 4314TIP3    H234578   0.854   4.938   0.516 -2.3851 -0.5323  1.1653
 4315TIP3   OH234579   5.922   2.223   0.891 -0.5584  0.4696 -0.2951
 4315TIP3    H134580   5.847   2.166   0.872 -1.2619  1.4050 -0.3887
 4315TIP3    H234581   5.978   2.214   0.814 -0.4701 -0.3800 -0.1452
 4316TIP3   OH234582   5.281   6.072   0.884 -0.2167 -0.0302 -0.2369
 4316TIP3    H134583   5.186   6.067   0.897 -0.2314 -0.6653 -0.5384
 4316TIP3    H234584   5.318   6.032   0.963 -0.1511  1.4394  0.5147
 4317TIP3   OH234585   0.203   5.868   1.590 -0.0892  0.1765  0.2820
 4317TIP3    H134586   0.197   5.952   1.634 -2.3494  0.0007  0.3842
 4317TIP3    H234587   0.118   5.855   1.549 -0.0815 -2.4043  0.8924
 4318TIP3   OH234588   1.613   1.059   0.110  0.0114  0.2467  0.3386
 4318TIP3    H134589   1.597   1.000   0.036  0.7788  0.0157  0.3492
 4318TIP3    H234590   1.617   1.000   0.186  0.4819  0.3398  0.3891
 4319TIP3   OH234591   4.324   3.522   6.880 -0.4134  0.0802 -0.4747
 4319TIP3    H134592   4.333   3.430   6.905  1.3968 -0.1290 -1.7098
 4319TIP3    H234593   4.302   3.566   6.962 -0.2487 -1.2978  0.3533
 4320TIP3   OH234594   3.825   2.244   8.118  1.3829  0.1512  0.5817
 4320TIP3    H134595   3.748   2.191   8.139  2.0191 -0.6055  1.1099
 4320TIP3    H234596   3.876   2.188   8.058  1.4168  0.7376  0.0562
 4321TIP3   OH234597   2.355   3.323   7.500 -0.5579  0.4212 -0.2001
 4321TIP3    H134598   2.407   3.300   7.423 -0.6704  1.3734 -0.5741
 4321TIP3    H234599   2.373   3.254   7.562 -1.0430 -0.7805 -1.3491
 4322TIP3   OH234600   3.336   6.110   7.601 -0.3881  0.2670 -0.1885
 4322TIP3    H134601   3.277   6.108   7.677  0.5780  1.8361  0.6539
 4322TIP3    H234602   3.409   6.164   7.629  0.1422  0.6442 -2.1524
 4323TIP3   OH234603   3.498   2.614   0.969 -0.4103 -0.4821  0.3114
 4323TIP3    H134604   3.587   2.583   0.958 -0.0638 -0.2596  2.1589
 4323TIP3    H234605   3.450   2.539   1.004 -0.7642 -0.3629  0.0898
 4324TIP3   OH234606   0.132   6.123   1.723 -0.3886  0.0768  0.1717
 4324TIP3    H134607   0.145   6.181   1.797 -0.0724  0.3631 -0.1053
 4324TIP3    H234608   0.115   6.182   1.649 -1.2373 -0.2176  0.1155
 4325TIP3   OH234609   2.170   4.167   7.889  0.2613 -0.5538  0.5468
 4325TIP3    H134610   2.126   4.236   7.939  0.0138  0.6415 -1.2088
 4325TIP3    H234611   2.245   4.211   7.850 -0.5958 -0.9056 -1.6384
 4326TIP3   OH234612   0.027   5.706   1.240 -0.3021 -0.3093 -0.3445
 4326TIP3    H134613   0.042   5.800   1.228 -0.2189 -0.2314  0.3181
 4326TIP3    H234614   0.043   5.691   1.333 -0.8862 -0.8766 -0.3286
 4327TIP3   OH234615   2.847   2.499   1.638 -0.3066 -0.2738  0.0614
 4327TIP3    H134616   2.756   2.525   1.624 -0.3546 -0.7621 -0.5839
 4327TIP3    H234617   2.850   2.473   1.731 -0.7097  0.1863  0.2064
 4328TIP3   OH234618   4.986   3.021   6.593 -0.3049  0.1005  0.4219
 4328TIP3    H134619   5.041   2.945   6.615  0.0430  0.7276  1.7731
 4328TIP3    H234620   4.901   3.000   6.631 -1.0406 -0.8125 -1.5624
 4329TIP3   OH234621   0.353   4.628   0.700  0.3487  0.0665  0.3779
 4329TIP3    H134622   0.278   4.619   0.758  0.3901  1.2692  0.6451
 4329TIP3    H234623   0.406   4.549   0.716 -2.1303 -2.2468 -1.7897
 4330TIP3   OH234624   2.357   0.551   8.263  0.3268 -0.1449  0.1918
 4330TIP3    H134625   2.272   0.579   8.228 -0.1330  1.0149  2.0712
 4330TIP3    H234626   2.378   0.617   8.329  3.1013  0.0380 -0.7424
 4331TIP3   OH234627   5.658   1.690   1.752 -0.3880  0.2043 -0.0924
 4331TIP3    H134628   5.748   1.711   1.776 -0.1111  0.4521 -1.3200
 4331TIP3    H234629   5.652   1.595   1.761  0.7479 -0.1427 -2.4334
 4332TIP3   OH234630   2.788   2.601   7.748 -0.2109  0.1625 -0.2313
 4332TIP3    H134631   2.778   2.553   7.666 -0.7654  0.3122 -0.2569
 4332TIP3    H234632   2.750   2.687   7.730 -0.0323  0.3073  0.0815
 4333TIP3   OH234633   5.124   5.214   1.043 -0.9023 -0.0484  0.0091
 4333TIP3    H134634   5.076   5.232   0.962  0.1025  1.0550 -0.3736
 4333TIP3    H234635   5.181   5.141   1.021 -2.8972 -1.9437  0.7071
 4334TIP3   OH234636   6.408   1.943   7.082 -0.1795 -0.5388 -0.3870
 4334TIP3    H134637   6.346   2.004   7.043 -1.6257 -1.5985  0.1630
 4334TIP3    H234638   6.466   1.918   7.010  0.5585  1.5608 -0.5793
 4335TIP3   OH234639   1.534   2.131   6.471  0.2815  0.1723 -0.5396
 4335TIP3    H134640   1.613   2.174   6.503  1.2165 -0.6649 -1.6275
 4335TIP3    H234641   1.526   2.052   6.524  1.4533 -0.8712 -1.8428
 4336TIP3   OH234642   5.529   3.649   0.902  0.2082 -0.5615 -0.3511
 4336TIP3    H134643   5.461   3.630   0.837  0.6505 -0.7671 -0.7636
 4336TIP3    H234644   5.579   3.721   0.863  1.5982 -1.8807 -1.1086
 4337TIP3   OH234645   2.466   1.333   8.340  0.1545  0.7864 -0.2986
 4337TIP3    H134646   2.442   1.413   8.293 -1.1078  0.8988  0.5083
 4337TIP3    H234647   2.540   1.360   8.396 -0.6643  1.5702  0.4356
 4338TIP3   OH234648   5.987   4.749   0.129  0.5735 -0.1657  0.1440
 4338TIP3    H134649   6.009   4.675   0.072 -0.4297  0.1070 -0.6331
 4338TIP3    H234650   5.901   4.778   0.097  0.9722  1.3489  0.4136
 4339TIP3   OH234651   4.317   6.033   8.448 -0.0866 -0.2143  0.0645
 4339TIP3    H134652   4.386   6.085   8.490  0.3368 -0.3661 -0.4330
 4339TIP3    H234653   4.340   6.036   8.355 -0.8714 -0.0890 -0.1274
 4340TIP3   OH234654   0.207   0.429   0.338 -0.0631 -0.3587 -0.2246
 4340TIP3    H134655   0.170   0.439   0.250 -1.3059  0.5145  0.3600
 4340TIP3    H234656   0.265   0.504   0.348  0.1664 -0.5189 -0.3171
 4341TIP3   OH234657   2.195   3.934   1.327 -0.4998  0.4486 -0.0095
 4341TIP3    H134658   2.287   3.906   1.327 -0.9339 -1.0437  0.5145
 4341TIP3    H234659   2.162   3.911   1.413 -1.8690 -0.7855 -0.8238
 4342TIP3   OH234660   2.814   0.943   6.538 -0.6823  0.1065  0.0150
 4342TIP3    H134661   2.723   0.943   6.565 -0.3489 -0.3984  1.1767
 4342TIP3    H234662   2.846   0.856   6.558 -0.3102 -0.2064 -1.7437
 4343TIP3   OH234663   1.457   2.387   6.955  0.0488 -0.1708 -0.1496
 4343TIP3    H134664   1.381   2.332   6.939  1.9132 -2.9440 -0.2810
 4343TIP3    H234665   1.485   2.417   6.868  0.2635 -0.8864 -0.3369
 4344TIP3   OH234666   5.764   0.268   1.513 -0.2053  0.3280  0.0257
 4344TIP3    H134667   5.749   0.180   1.547 -0.7568  0.4884  0.1992
 4344TIP3    H234668   5.859   0.272   1.497 -0.0201  0.0589  1.0021
 4345TIP3   OH234669   0.233   6.583   7.949 -0.2069  0.4937  0.3455
 4345TIP3    H134670   0.171   6.587   8.021  0.0145  2.3504  0.4765
 4345TIP3    H234671   0.315   6.556   7.990 -0.1385  1.3185  0.7710
 4346TIP3   OH234672   5.612   4.582   6.481  0.4176  0.3506 -0.4194
 4346TIP3    H134673   5.628   4.509   6.540  2.4441  1.0783 -0.0027
 4346TIP3    H234674   5.522   4.568   6.450 -0.1355 -0.9309  1.5534
 4347TIP3   OH234675   6.061   5.069   7.424 -0.6735 -0.1673  0.1654
 4347TIP3    H134676   6.063   5.161   7.451 -0.2787 -0.2732  0.5023
 4347TIP3    H234677   6.024   5.022   7.499  0.3270 -0.4477  0.5019
 4348TIP3   OH234678   5.438   3.294   1.413 -0.0684 -0.1987 -0.2025
 4348TIP3    H134679   5.521   3.256   1.440 -0.0989 -0.0494  0.0947
 4348TIP3    H234680   5.426   3.262   1.323 -0.4404 -1.5041  0.2829
 4349TIP3   OH234681   1.231   5.713   6.567 -0.2027  0.0156  0.4292
 4349TIP3    H134682   1.281   5.636   6.540 -0.7337 -0.9238  1.9801
 4349TIP3    H234683   1.170   5.729   6.496 -0.4656 -1.3574  0.3277
 4350TIP3   OH234684   4.671   3.007   6.935  0.1219 -0.8464  0.0250
 4350TIP3    H134685   4.603   2.958   6.889 -1.0063  0.1514  0.5768
 4350TIP3    H234686   4.628   3.042   7.013 -0.0450  3.3574 -1.6644
 4351TIP3   OH234687   6.469   4.365   1.788  0.0757 -0.2447 -0.6497
 4351TIP3    H134688   6.526   4.426   1.835  0.7227 -0.8768 -0.6032
 4351TIP3    H234689   6.382   4.380   1.825  0.1331  0.9667 -0.9526
 4352TIP3   OH234690   3.908   4.378   7.901  0.5279  0.1476  0.4963
 4352TIP3    H134691   3.982   4.423   7.942  0.4066  1.2889 -0.4870
 4352TIP3    H234692   3.948   4.325   7.832  0.8751 -2.7363  2.7206
 4353TIP3   OH234693   2.874   4.206   7.960  0.1501 -0.0351  0.1302
 4353TIP3    H134694   2.853   4.121   7.922 -1.6931  0.0609  0.8222
 4353TIP3    H234695   2.960   4.193   8.001  0.2819 -1.3018 -0.4800
 4354TIP3   OH234696   4.824   4.391   1.786  0.6640  0.1971  0.0663
 4354TIP3    H134697   4.742   4.344   1.775  0.7302  0.3598 -1.1761
 4354TIP3    H234698   4.812   4.441   1.867  0.3576 -1.4265  1.0620
 4355TIP3   OH234699   4.405   0.124   7.604 -0.5740  0.4421  0.0194
 4355TIP3    H134700   4.343   0.052   7.619 -1.7319  1.8873  2.9299
 4355TIP3    H234701   4.402   0.139   7.510 -5.0146  0.6160 -0.0196
 4356TIP3   OH234702   0.881   2.018   1.315  0.1436 -0.2268 -0.4416
 4356TIP3    H134703   0.820   2.061   1.376  0.3092  1.0075 -1.0972
 4356TIP3    H234704   0.872   1.925   1.333 -0.5785  0.0516  0.7440
 4357TIP3   OH234705   2.509   2.835   8.392 -0.5442  0.1007  0.0976
 4357TIP3    H134706   2.464   2.867   8.314 -0.7665  0.8138  0.5063
 4357TIP3    H234707   2.600   2.821   8.364 -0.6669  0.1642 -0.3333
 4358TIP3   OH234708   4.205   4.411   0.901 -0.1685  0.2887  0.4646
 4358TIP3    H134709   4.172   4.358   0.828  0.1777 -0.1907  0.6485
 4358TIP3    H234710   4.300   4.405   0.894 -0.1329  0.1694  1.0023
 4359TIP3   OH234711   4.991   3.380   7.426 -0.1081  0.1125 -0.1562
 4359TIP3    H134712   4.985   3.376   7.330 -0.4978 -2.4976 -0.0809
 4359TIP3    H234713   5.055   3.449   7.443  0.7228 -0.0501 -2.3196
 4360TIP3   OH234714   5.159   0.384   8.578 -0.1349 -0.1766 -0.1140
 4360TIP3    H134715   5.202   0.380   8.663  0.3910  0.2754 -0.3469
 4360TIP3    H234716   5.207   0.321   8.524  0.2281  0.3063 -0.3665
 4361TIP3   OH234717   2.611   5.921   7.740  0.1252 -0.8791  0.5529
 4361TIP3    H134718   2.606   5.908   7.645  1.9461  0.4411  0.2181
 4361TIP3    H234719   2.549   5.992   7.758  1.1774  0.2081  0.0118
 4362TIP3   OH234720   5.048   3.982   0.066 -0.1896 -0.6294 -0.2442
 4362TIP3    H134721   5.126   3.927   0.068 -0.3073 -0.7918 -0.0928
 4362TIP3    H234722   4.992   3.947   0.135 -0.5100 -0.6816 -0.5308
 4363TIP3   OH234723   2.941   2.027   7.132 -0.2174 -0.2642  0.0417
 4363TIP3    H134724   2.965   2.071   7.213  0.7134 -0.9495  0.1550
 4363TIP3    H234725   2.992   1.946   7.132 -2.2056 -1.5844  0.0492
 4364TIP3   OH234726   4.451   5.316   5.852 -0.2944 -0.2423 -0.2274
 4364TIP3    H134727   4.376   5.270   5.891 -0.5599  2.0968  2.3579
 4364TIP3    H234728   4.524   5.256   5.864 -1.3383 -1.6812 -0.7928
 4365TIP3   OH234729   4.546   4.882   1.250 -0.4780 -0.2832  0.1836
 4365TIP3    H134730   4.544   4.804   1.194 -1.3113 -1.2001  1.4455
 4365TIP3    H234731   4.639   4.905   1.256 -0.2781 -0.8103 -0.6830
 4366TIP3   OH234732   1.440   3.703   8.082 -0.3288 -0.2180  0.3480
 4366TIP3    H134733   1.346   3.717   8.069 -0.0627 -0.8716 -3.0966
 4366TIP3    H234734   1.473   3.788   8.111 -1.6829  0.6502 -0.5336
 4367TIP3   OH234735   4.046   6.132   1.070  0.5823 -0.2737 -0.4066
 4367TIP3    H134736   4.030   6.144   1.164 -0.5741 -1.5289 -0.4049
 4367TIP3    H234737   3.960   6.143   1.030  1.0471  0.1449 -1.3263
 4368TIP3   OH234738   3.201   6.853   6.776  0.4570  0.7337  0.5312
 4368TIP3    H134739   3.227   6.928   6.723  0.3471  0.1350 -0.3949
 4368TIP3    H234740   3.158   6.794   6.714 -0.1840  0.2662  1.4073
 4369TIP3   OH234741   5.739   2.502   8.379 -0.9305  0.2091  0.1550
 4369TIP3    H134742   5.815   2.494   8.437 -0.8166 -0.0563 -0.0292
 4369TIP3    H234743   5.731   2.417   8.337 -1.0471  0.3811 -0.1785
 4370TIP3   OH234744   0.764   4.451   1.748  0.4066  0.0121 -0.2149
 4370TIP3    H134745   0.722   4.487   1.669  1.0500  0.2064 -0.4708
 4370TIP3    H234746   0.716   4.370   1.765 -1.8228  1.4912  1.0175
 4371TIP3   OH234747   1.777   6.156   0.776  0.0489  0.1283  0.2412
 4371TIP3    H134748   1.869   6.143   0.799 -0.1315 -2.9673 -0.3581
 4371TIP3    H234749   1.744   6.218   0.841  1.9169 -0.8209  2.2159
 4372TIP3   OH234750   1.173   0.953   7.020 -0.1975 -0.0326 -0.0432
 4372TIP3    H134751   1.178   0.866   7.060 -0.8894 -0.2836 -0.4922
 4372TIP3    H234752   1.256   0.995   7.045  1.2367 -1.6586 -1.7549
 4373TIP3   OH234753   1.038   2.159   8.374  0.3077 -0.4409 -0.3440
 4373TIP3    H134754   1.048   2.223   8.445 -1.0094 -0.3087 -0.2549
 4373TIP3    H234755   0.988   2.206   8.308 -0.7916 -1.4182 -0.2222
 4374TIP3   OH234756   5.849   5.363   1.495  0.6755 -0.3635 -0.6190
 4374TIP3    H134757   5.936   5.327   1.481  1.0918  0.2121  0.4387
 4374TIP3    H234758   5.851   5.400   1.583 -1.2682 -2.1797  0.2989
 4375TIP3   OH234759   3.196   1.391   7.763  0.2804 -0.1817 -0.1254
 4375TIP3    H134760   3.240   1.309   7.739  1.0322  0.1913 -0.0424
 4375TIP3    H234761   3.187   1.387   7.858 -0.0088 -0.3221 -0.1558
 4376TIP3   OH234762   6.001   2.263   7.032  0.0466 -0.5777 -0.8076
 4376TIP3    H134763   5.996   2.227   6.944  0.5687  0.1970 -1.1586
 4376TIP3    H234764   6.023   2.355   7.020  0.3527 -0.5152  0.1367
 4377TIP3   OH234765   1.939   4.667   6.128  0.3521  0.7171 -0.3062
 4377TIP3    H134766   1.982   4.704   6.205  0.1891  0.4663 -0.0943
 4377TIP3    H234767   1.847   4.658   6.152  0.7132 -1.8316  0.4505
 4378TIP3   OH234768   2.422   6.404   6.546 -0.2420 -0.4541  0.4656
 4378TIP3    H134769   2.331   6.432   6.533 -1.0548 -2.9650  0.1657
 4378TIP3    H234770   2.452   6.378   6.459  0.1552 -1.2841  0.8407
 4379TIP3   OH234771   0.792   1.069   0.324  0.1665 -0.0167 -0.0313
 4379TIP3    H134772   0.828   1.154   0.347 -0.0956  0.5249 -1.5335
 4379TIP3    H234773   0.708   1.089   0.282  0.3828 -0.9676 -0.9465
 4380TIP3   OH234774   6.506   4.331   7.208  0.6218 -0.7006 -0.3193
 4380TIP3    H134775   6.518   4.425   7.221 -1.7926  0.2055 -3.2853
 4380TIP3    H234776   6.566   4.309   7.137 -0.2993 -0.8442 -1.0811
 4381TIP3   OH234777   6.165   3.937   2.343  0.1703  0.2976  0.7336
 4381TIP3    H134778   6.184   3.916   2.251  0.4506  0.3861  0.7693
 4381TIP3    H234779   6.180   3.855   2.390 -1.3982 -0.1465  0.5126
 4382TIP3   OH234780   6.235   3.964   8.606  0.6888  0.3087 -0.3361
 4382TIP3    H134781   6.223   4.039   8.664 -0.0446  1.3880 -1.8307
 4382TIP3    H234782   6.227   4.000   8.518  2.8977 -1.0793 -1.1837
 4383TIP3   OH234783   3.914   6.695   8.325 -0.1061  0.1929 -0.3678
 4383TIP3    H134784   3.876   6.783   8.334 -0.0205  0.3819 -1.6893
 4383TIP3    H234785   3.921   6.663   8.415  1.3554  2.1812  0.2977
 4384TIP3   OH234786   2.356   5.770   1.717 -0.2424  0.2521  0.1476
 4384TIP3    H134787   2.266   5.799   1.736 -0.0758  3.1951 -2.6782
 4384TIP3    H234788   2.345   5.701   1.652 -0.5606  1.7052 -1.4320
 4385TIP3   OH234789   4.042   4.854   2.100  0.2477 -0.7230  0.2840
 4385TIP3    H134790   4.018   4.943   2.127  1.8474  0.0257 -0.6235
 4385TIP3    H234791   4.136   4.848   2.117  0.1922 -2.2164  0.2028
 4386TIP3   OH234792   2.343   5.506   8.496 -0.7293  0.5473  0.1879
 4386TIP3    H134793   2.254   5.541   8.507 -1.1672 -0.5993  0.3808
 4386TIP3    H234794   2.335   5.438   8.430  0.5795  2.4160 -2.0529
 4387TIP3   OH234795   5.835   0.807   6.918 -0.3520  0.3323  0.3164
 4387TIP3    H134796   5.850   0.860   6.996 -2.1801  1.6090 -0.1277
 4387TIP3    H234797   5.770   0.743   6.945 -0.3064  0.1832  0.0761
 4388TIP3   OH234798   6.653   3.765   7.338 -0.1331  0.3021 -0.4214
 4388TIP3    H134799   6.558   3.757   7.343  0.0345 -2.4748  0.1760
 4388TIP3    H234800   6.677   3.722   7.256  0.8293 -3.7033  1.7295
 4389TIP3   OH234801   0.391   2.325   8.390 -0.1081  0.2070  0.2635
 4389TIP3    H134802   0.351   2.243   8.418 -0.0791 -0.5034 -1.6105
 4389TIP3    H234803   0.470   2.333   8.444 -0.6349 -0.4539  1.1660
 4390TIP3   OH234804   1.430   0.066   1.557  0.0789  0.3052 -0.0880
 4390TIP3    H134805   1.442   0.074   1.652  1.3535 -0.2217 -0.1858
 4390TIP3    H234806   1.433   0.155   1.524  1.0484  0.3971  0.2239
 4391TIP3   OH234807   1.288   6.725   0.955  0.1013  0.1088  0.7196
 4391TIP3    H134808   1.219   6.658   0.949 -0.4939  0.6768  1.0626
 4391TIP3    H234809   1.288   6.766   0.868  1.9145 -1.6938 -0.2131
 4392TIP3   OH234810   4.219   3.985   7.733  0.0900  0.4435  0.6221
 4392TIP3    H134811   4.277   3.941   7.795  0.9567  1.6495  0.6870
 4392TIP3    H234812   4.250   3.956   7.647 -0.0140  0.1299  0.6859
 4393TIP3   OH234813   6.361   1.977   0.941  0.2877  0.3128 -0.3397
 4393TIP3    H134814   6.380   1.947   1.030  1.2019  0.0415 -0.6220
 4393TIP3    H234815   6.324   2.065   0.954  2.0703  1.0175  0.2228
 4394TIP3   OH234816   6.582   1.076   0.482 -0.7773 -0.0493  0.1824
 4394TIP3    H134817   6.673   1.072   0.510 -0.8195 -0.3050  0.2822
 4394TIP3    H234818   6.533   1.092   0.563 -1.0129 -1.9903  0.4603
 4395TIP3   OH234819   2.611   2.195   1.991 -0.1517  0.2282 -0.3349
 4395TIP3    H134820   2.541   2.218   2.052 -0.3424 -0.6211 -0.2304
 4395TIP3    H234821   2.692   2.218   2.037 -0.2102 -1.7933  0.8951
 4396TIP3   OH234822   0.067   3.753   7.396  0.0700 -0.6852 -0.0166
 4396TIP3    H134823   0.045   3.697   7.470 -0.0427  0.1497  0.5977
 4396TIP3    H234824  -0.017   3.776   7.357  0.1661 -1.6886 -0.8427
 4397TIP3   OH234825   3.919   5.509   8.019 -0.2871  0.4251 -0.8580
 4397TIP3    H134826   3.888   5.440   8.078 -0.7626  0.8543 -0.6045
 4397TIP3    H234827   4.014   5.507   8.029 -0.3551  0.4130 -0.1688
 4398TIP3   OH234828   0.872   3.341   1.701  0.6107  0.0891  0.3133
 4398TIP3    H134829   0.946   3.384   1.743  0.9644 -0.2604  0.0498
 4398TIP3    H234830   0.885   3.248   1.717  0.4733 -0.0086 -0.1166
 4399TIP3   OH234831   3.241   6.396   6.862  0.2384 -0.6766 -0.0484
 4399TIP3    H134832   3.314   6.398   6.924  3.0870 -1.4715 -3.0942
 4399TIP3    H234833   3.214   6.304   6.860 -0.6583 -0.4583  0.7416
 4400TIP3   OH234834   0.991   0.531   6.175 -0.4217  0.2014  0.1377
 4400TIP3    H134835   1.049   0.482   6.116 -0.4936 -0.6233  0.7275
 4400TIP3    H234836   0.904   0.523   6.135 -0.2027  1.1117 -0.5439
 4401TIP3   OH234837   6.692   4.899   7.589 -0.0234  0.5557 -1.0717
 4401TIP3    H134838   6.604   4.887   7.625  0.4655 -0.7644 -0.2516
 4401TIP3    H234839   6.744   4.928   7.663  0.2067  1.5388 -1.6017
 4402TIP3   OH234840   1.000   1.188   6.990  0.3803  0.1597 -0.4142
 4402TIP3    H134841   1.085   1.147   7.006 -0.6830 -2.3078 -0.6776
 4402TIP3    H234842   1.008   1.227   6.903  1.1943 -0.1656 -0.4915
 4403TIP3   OH234843   3.065   4.281   2.225  0.2576  0.4991  0.0394
 4403TIP3    H134844   3.131   4.263   2.159 -0.0277 -0.6244  0.0324
 4403TIP3    H234845   2.984   4.246   2.187 -0.0452  0.5152  0.6631
 4404TIP3   OH234846   2.981   0.821   1.685  0.1233  0.3945  0.1138
 4404TIP3    H134847   3.029   0.830   1.767 -0.5649  0.7877  0.4867
 4404TIP3    H234848   3.029   0.875   1.622  2.1592 -1.9371 -0.4605
 4405TIP3   OH234849   2.281   2.975   0.793 -0.4302  0.2431 -0.1790
 4405TIP3    H134850   2.244   2.900   0.747 -2.7360  1.3149 -0.2349
 4405TIP3    H234851   2.349   2.938   0.849 -1.8144 -1.9912  0.1653
 4406TIP3   OH234852   3.973   1.187   1.375 -0.0709 -0.3860  0.3275
 4406TIP3    H134853   3.956   1.247   1.302 -2.7514 -1.5477 -0.1266
 4406TIP3    H234854   3.940   1.233   1.452  0.5644 -0.1308  0.4555
 4407TIP3   OH234855   5.149   0.703   1.840  0.2895 -0.1301 -0.1356
 4407TIP3    H134856   5.114   0.650   1.768 -0.2652  0.5633 -0.3889
 4407TIP3    H234857   5.103   0.786   1.832  1.8631  0.7482 -0.3404
 4408TIP3   OH234858   2.584   4.705   8.000  0.3628  0.3230  0.1298
 4408TIP3    H134859   2.497   4.678   8.029  0.3507 -1.0702 -1.0731
 4408TIP3    H234860   2.614   4.633   7.945  2.3116  0.7536  0.5653
 4409TIP3   OH234861   0.981   0.887   8.290 -0.0485  0.0693  0.2336
 4409TIP3    H134862   0.949   0.838   8.366 -1.0157 -0.0134 -0.2189
 4409TIP3    H234863   0.902   0.921   8.248  0.5511  1.2986  0.0472
 4410TIP3   OH234864   4.407   1.937   1.047 -0.2725 -0.3386 -0.5612
 4410TIP3    H134865   4.497   1.930   1.014 -0.4833 -1.7735 -0.9001
 4410TIP3    H234866   4.352   1.914   0.973 -0.8681 -0.5710 -0.0604
 4411TIP3   OH234867   3.185   5.467   7.616  0.0639  0.1511 -0.1913
 4411TIP3    H134868   3.209   5.558   7.600  0.1866  0.1001 -0.2956
 4411TIP3    H234869   3.222   5.419   7.543  2.3285 -0.3586  1.1792
 4412TIP3   OH234870   1.406   4.237   7.735 -0.1910 -0.5126 -0.1199
 4412TIP3    H134871   1.341   4.292   7.778  0.5285  0.3605 -0.1124
 4412TIP3    H234872   1.394   4.150   7.773 -1.8460 -0.5526 -0.6703
 4413TIP3   OH234873   4.144   4.160   1.653 -0.2335  0.1624  0.1225
 4413TIP3    H134874   4.062   4.153   1.702  0.1719 -0.3465  0.7458
 4413TIP3    H234875   4.193   4.082   1.677 -0.2153 -0.3604 -1.5009
 4414TIP3   OH234876   0.784   1.316   2.347 -0.1263 -0.1550  0.0597
 4414TIP3    H134877   0.730   1.320   2.268  0.8219 -0.2603 -0.6093
 4414TIP3    H234878   0.861   1.369   2.326 -0.7538  1.4437  1.6324
 4415TIP3   OH234879   2.616   1.783   1.512 -0.1948  0.0858 -0.1365
 4415TIP3    H134880   2.628   1.696   1.551 -1.4341 -1.1901 -2.3835
 4415TIP3    H234881   2.586   1.838   1.585  0.3624 -1.4129  1.2941
 4416TIP3   OH234882   5.474   1.057   8.046  0.4470 -0.2994  0.4326
 4416TIP3    H134883   5.385   1.027   8.064  0.4189  0.3846  1.4975
 4416TIP3    H234884   5.479   1.144   8.085  1.1273  0.3107 -0.9102
 4417TIP3   OH234885   4.863   5.736   8.546 -0.0848  0.6022 -0.1404
 4417TIP3    H134886   4.864   5.811   8.488 -1.1827 -0.2652 -1.3300
 4417TIP3    H234887   4.776   5.737   8.585 -0.4539 -0.5488 -0.8779
 4418TIP3   OH234888   4.169   1.689   7.407  0.0102  0.0827  0.1279
 4418TIP3    H134889   4.189   1.655   7.494 -1.0043  1.6374  1.0173
 4418TIP3    H234890   4.099   1.633   7.375  0.7704 -0.8443  0.0651
 4419TIP3   OH234891   1.934   4.067   7.222  0.5801  0.4280 -0.6706
 4419TIP3    H134892   1.992   3.992   7.205  1.7304  1.0757  0.2553
 4419TIP3    H234893   1.854   4.028   7.256  0.8262 -0.4358 -1.0463
 4420TIP3   OH234894   5.573   4.544   1.842  0.0364 -0.2977  0.0049
 4420TIP3    H134895   5.616   4.462   1.870  1.4533  0.8076  1.2321
 4420TIP3    H234896   5.503   4.515   1.784  0.2097 -2.4245  0.7504
 4421TIP3   OH234897   3.078   5.290   2.495  0.2196 -0.2568  0.2260
 4421TIP3    H134898   3.049   5.200   2.511  1.8750 -0.7524  0.6061
 4421TIP3    H234899   3.089   5.295   2.400  0.4000 -0.5529  0.2295
 4422TIP3   OH234900   0.007   2.450   7.201 -0.0299  0.0172 -0.1687
 4422TIP3    H134901  -0.001   2.533   7.155 -1.5019 -0.2906 -0.5293
 4422TIP3    H234902  -0.045   2.388   7.148 -0.7578 -0.6275  1.2282
 4423TIP3   OH234903   5.699   1.361   8.115 -0.1357  0.7424  0.1011
 4423TIP3    H134904   5.745   1.278   8.128  1.4872  1.6781  0.6211
 4423TIP3    H234905   5.769   1.425   8.101 -1.4099  1.6425 -2.8869
 4424TIP3   OH234906   0.729   6.686   1.105  0.6261 -0.3978  0.1738
 4424TIP3    H134907   0.645   6.690   1.151 -0.8093 -1.0233 -2.2239
 4424TIP3    H234908   0.749   6.777   1.082  1.9453  0.0955  2.8045
 4425TIP3   OH234909   6.216   2.593   7.686  0.0100 -0.2306  0.6286
 4425TIP3    H134910   6.126   2.570   7.705  0.6077 -1.8616  1.7145
 4425TIP3    H234911   6.229   2.569   7.594 -0.8524  0.7803  0.2220
 4426TIP3   OH234912   2.371   2.022   7.175 -0.1173 -0.2410  0.1672
 4426TIP3    H134913   2.431   2.080   7.130  0.2788 -0.0143  0.9613
 4426TIP3    H234914   2.345   1.958   7.109 -2.5488  2.2195 -1.4907
 4427TIP3   OH234915   0.657   2.463   8.127  0.6150  0.3342  0.5948
 4427TIP3    H134916   0.635   2.490   8.216 -0.6011 -1.8593  1.0450
 4427TIP3    H234917   0.743   2.422   8.136  0.8653  0.8503  0.5881
 4428TIP3   OH234918   5.094   0.799   8.523  0.3930 -0.1983 -0.6200
 4428TIP3    H134919   5.177   0.767   8.488  1.8850  0.0950  2.3331
 4428TIP3    H234920   5.107   0.894   8.530 -0.1002 -0.1821  0.0811
 4429TIP3   OH234921   6.452   2.529   7.791 -0.0592 -0.0808  0.1823
 4429TIP3    H134922   6.477   2.561   7.878  0.0438  0.8606 -0.1851
 4429TIP3    H234923   6.363   2.559   7.779 -0.6588 -1.5887  0.5990
 4430TIP3   OH234924   6.225   4.531   6.429  0.1559  0.4941  0.7874
 4430TIP3    H134925   6.189   4.498   6.347  0.9144  0.8388  0.3056
 4430TIP3    H234926   6.178   4.612   6.446  0.7540  0.9915  0.1124
 4431TIP3   OH234927   0.968   6.744   6.295  0.0051 -0.1885  0.9556
 4431TIP3    H134928   0.968   6.653   6.266 -2.8171  0.5003 -1.6865
 4431TIP3    H234929   1.047   6.782   6.257  0.1494 -1.0557  0.3784
 4432TIP3   OH234930   0.654   0.314   6.885 -0.1060 -0.0350  0.5719
 4432TIP3    H134931   0.727   0.374   6.899 -0.2364  0.4748 -0.7433
 4432TIP3    H234932   0.593   0.363   6.830 -0.4713 -1.1767 -0.0860
 4433TIP3   OH234933   3.266   0.116   0.945  0.0330  0.3318  0.3584
 4433TIP3    H134934   3.345   0.079   0.905 -0.1374  0.3873 -0.0297
 4433TIP3    H234935   3.294   0.140   1.034  0.5066  0.5239  0.1631
 4434TIP3   OH234936   5.386   6.539   6.793  0.0350  0.3177  0.1213
 4434TIP3    H134937   5.336   6.535   6.711  0.3805  1.5754 -0.1753
 4434TIP3    H234938   5.440   6.617   6.784  1.0027 -0.2220  1.0427
 4435TIP3   OH234939   4.728   4.011   1.644  0.2601 -0.7632 -0.5776
 4435TIP3    H134940   4.711   3.921   1.672  1.5441 -0.5650  0.9445
 4435TIP3    H234941   4.656   4.062   1.681 -1.6651 -1.3842 -3.1972
 4436TIP3   OH234942   5.542   1.292   1.153 -0.1123  0.0172 -0.7817
 4436TIP3    H134943   5.554   1.221   1.216  0.1311 -0.9545 -1.8863
 4436TIP3    H234944   5.544   1.372   1.206  0.4388 -0.7455  0.3871
 4437TIP3   OH234945   0.838   3.014   0.234  0.1908 -0.0737 -0.1218
 4437TIP3    H134946   0.909   2.962   0.272 -0.8238  0.2932  2.5374
 4437TIP3    H234947   0.763   2.956   0.233  0.2399 -0.1761 -2.0663
 4438TIP3   OH234948   6.358   5.889   0.569  0.1737  0.2967  0.5428
 4438TIP3    H134949   6.443   5.902   0.528 -0.4494 -0.4586 -1.0840
 4438TIP3    H234950   6.377   5.881   0.663  2.2250 -2.3519  0.0274
 4439TIP3   OH234951   5.237   0.279   0.152  0.0793 -0.2311  0.6641
 4439TIP3    H134952   5.232   0.333   0.231 -0.3795 -0.4377  0.7788
 4439TIP3    H234953   5.253   0.190   0.185  1.8704 -0.0196  0.4299
 4440TIP3   OH234954   1.736   3.644   6.526  0.1294 -0.5250 -0.2926
 4440TIP3    H134955   1.779   3.725   6.555 -2.1694 -0.2501  2.9077
 4440TIP3    H234956   1.797   3.574   6.549  0.4774  0.0868  0.7146
 4441TIP3   OH234957   3.863   5.080   7.130  0.2855  0.5228  0.0038
 4441TIP3    H134958   3.773   5.048   7.125 -0.1824  0.9171  3.3953
 4441TIP3    H234959   3.854   5.174   7.146  1.4120  0.8996 -1.3257
 4442TIP3   OH234960   6.585   1.110   7.883  0.2210 -0.0399 -0.3517
 4442TIP3    H134961   6.640   1.161   7.942  1.4943  0.0998 -1.5871
 4442TIP3    H234962   6.514   1.078   7.937  1.3918 -0.0087  1.2711
 4443TIP3   OH234963   3.786   3.203   0.200  0.0403  0.0765 -0.0315
 4443TIP3    H134964   3.744   3.117   0.205 -0.3238  0.2717  0.3441
 4443TIP3    H234965   3.876   3.187   0.228 -0.3109  0.0052  1.0965
 4444TIP3   OH234966   0.829   3.919   7.099 -0.2008 -0.0648  0.3176
 4444TIP3    H134967   0.782   3.875   7.171 -0.1050  0.3617  0.6453
 4444TIP3    H234968   0.920   3.891   7.110 -0.2461 -0.2840  0.1433
 4445TIP3   OH234969   6.109   3.518   6.879 -0.1028 -0.2988 -0.1190
 4445TIP3    H134970   6.157   3.569   6.945 -1.0177  1.5876 -0.8548
 4445TIP3    H234971   6.162   3.527   6.799 -1.0541  0.8606 -0.6480
 4446TIP3   OH234972   3.034   3.438   1.417  0.0769 -0.3461  0.4745
 4446TIP3    H134973   2.960   3.393   1.458 -1.9985  0.6423 -1.9380
 4446TIP3    H234974   3.112   3.395   1.453 -1.6827 -2.6568  1.7546
 4447TIP3   OH234975   2.718   1.793   6.739 -0.3257 -0.1547 -0.2216
 4447TIP3    H134976   2.760   1.707   6.734  1.5083  0.5365  1.7691
 4447TIP3    H234977   2.737   1.835   6.656  1.0125 -0.7289 -0.2170
 4448TIP3   OH234978   1.184   1.592   6.412  0.1299 -0.2490  0.1459
 4448TIP3    H134979   1.147   1.651   6.346  1.1820 -0.0150 -0.2628
 4448TIP3    H234980   1.246   1.538   6.363  1.1103  0.0874  0.9772
 4449TIP3   OH234981   5.992   1.350   8.085 -0.1209  0.0872  0.0621
 4449TIP3    H134982   6.069   1.379   8.134  0.6044  1.3164 -1.7046
 4449TIP3    H234983   5.963   1.272   8.132  0.8815  0.8185  2.0541
 4450TIP3   OH234984   2.052   0.063   7.918 -0.3583  0.4218 -0.1156
 4450TIP3    H134985   2.093   0.122   7.981  1.6499  0.4028 -1.3043
 4450TIP3    H234986   2.119  -0.003   7.899 -0.8464  0.4486 -2.2704
 4451TIP3   OH234987   5.532   4.421   7.227  0.4855  0.0815 -0.1214
 4451TIP3    H134988   5.555   4.415   7.134  0.1866 -0.3777 -0.1695
 4451TIP3    H234989   5.534   4.330   7.258 -3.9547 -0.4818 -0.8020
 4452TIP3   OH234990   0.109   1.053   1.460  0.5497 -0.0261 -0.3013
 4452TIP3    H134991   0.053   0.983   1.495 -1.8444  1.0149 -1.8230
 4452TIP3    H234992   0.167   1.008   1.399  1.3734 -1.1219  1.2065
 4453TIP3   OH234993   5.851   0.803   1.424  0.0648 -0.0925  0.0236
 4453TIP3    H134994   5.814   0.890   1.441  1.2139  0.8272 -1.8091
 4453TIP3    H234995   5.938   0.805   1.464 -0.0688 -0.5667  0.3466
 4454TIP3   OH234996   0.413   3.423   7.514 -0.3882 -0.8522 -0.5579
 4454TIP3    H134997   0.481   3.481   7.548 -0.7461 -0.1221 -1.0610
 4454TIP3    H234998   0.412   3.440   7.419 -1.9317 -0.1360 -0.4324
 4455TIP3   OH234999   0.483   5.354   1.940 -0.3767  0.1609  0.4015
 4455TIP3    H135000   0.389   5.359   1.923 -0.4020 -0.9008  0.1685
 4455TIP3    H235001   0.523   5.371   1.854 -0.3996 -0.7258  0.2040
 4456TIP3   OH235002   1.063   3.784   7.150 -0.3005 -0.3675  0.2278
 4456TIP3    H135003   1.106   3.827   7.076 -0.5210  0.2657  0.4619
 4456TIP3    H235004   1.113   3.704   7.163  0.5609  0.1579  0.2345
 4457TIP3   OH235005   6.632   5.419   6.457  0.0616 -0.4285  0.6913
 4457TIP3    H135006   6.680   5.347   6.417 -0.2324 -0.3287  0.1446
 4457TIP3    H235007   6.589   5.381   6.534 -1.5150 -1.2733 -0.5555
 4458TIP3   OH235008   5.762   0.173   5.806  0.2052 -0.0649 -0.0346
 4458TIP3    H135009   5.783   0.241   5.869 -1.6022 -0.9598  1.6525
 4458TIP3    H235010   5.842   0.161   5.755  1.4990  1.1826  1.6090
 4459TIP3   OH235011   0.028   0.582   7.361  0.0791 -0.2843  0.2814
 4459TIP3    H135012   0.062   0.554   7.445 -0.0604  0.4828  0.5995
 4459TIP3    H235013  -0.008   0.669   7.377 -0.2917 -0.2854 -0.4825
 4460TIP3   OH235014   1.654   4.060   1.000  0.4059  0.2734 -0.2179
 4460TIP3    H135015   1.661   4.025   0.912  0.5391  0.2848 -0.2113
 4460TIP3    H235016   1.674   4.153   0.990  3.2922 -0.2012  0.2531
 4461TIP3   OH235017   6.663   5.583   1.081 -0.0239 -0.0617  0.3695
 4461TIP3    H135018   6.691   5.499   1.044 -1.3987  0.3499 -1.7975
 4461TIP3    H235019   6.741   5.619   1.122  1.0205 -1.6502 -0.1617
 4462TIP3   OH235020   2.689   1.387   8.480 -0.6844  0.3798  0.9035
 4462TIP3    H135021   2.711   1.332   8.555  0.2968  0.5059  0.7125
 4462TIP3    H235022   2.747   1.462   8.487 -0.6480  0.4379  0.0694
 4463TIP3   OH235023   2.886   6.484   8.605 -0.4370 -0.0381 -0.6754
 4463TIP3    H135024   2.936   6.541   8.546  1.0913 -1.4763 -0.8555
 4463TIP3    H235025   2.908   6.516   8.693 -0.7642  0.5554 -0.8024
 4464TIP3   OH235026   3.107   1.579   7.583  0.2507  0.6317  0.7657
 4464TIP3    H135027   3.072   1.531   7.508  1.7190  0.6067  0.0375
 4464TIP3    H235028   3.143   1.512   7.641 -3.5545  0.3730  3.1148
 4465TIP3   OH235029   1.201   4.731   8.581  0.1745 -0.0637 -0.1397
 4465TIP3    H135030   1.233   4.649   8.619 -0.1773  0.2760  0.9264
 4465TIP3    H235031   1.135   4.704   8.517  1.1414 -0.6739 -0.9106
 4466TIP3   OH235032   0.985   4.336   1.552 -0.1412  0.3162 -0.0935
 4466TIP3    H135033   1.061   4.329   1.494 -0.6946 -0.8791 -0.7237
 4466TIP3    H235034   0.925   4.396   1.507  0.4796  1.4121  0.4955
 4467TIP3   OH235035   3.172   1.810   1.067  0.7876  0.4637  0.6897
 4467TIP3    H135036   3.110   1.833   0.997  1.6806  3.0403  0.6431
 4467TIP3    H235037   3.258   1.817   1.025  1.2372 -0.5928  1.4003
 4468TIP3   OH235038   2.935   1.017   7.341 -0.2867  0.9562  0.9771
 4468TIP3    H135039   2.910   1.006   7.250  0.2898 -0.6386  0.9688
 4468TIP3    H235040   3.025   1.050   7.338 -0.7930  2.3927  0.9943
 4469TIP3   OH235041   0.733   6.519   0.261  0.2414  0.7387 -0.9962
 4469TIP3    H135042   0.641   6.543   0.269  0.4943  1.3468  0.3593
 4469TIP3    H235043   0.760   6.556   0.177 -0.7402  0.5448 -1.4141
 4470TIP3   OH235044   2.377   5.397   7.404 -0.5105 -0.5415 -0.0392
 4470TIP3    H135045   2.354   5.305   7.392 -0.1988 -0.6577  0.2114
 4470TIP3    H235046   2.473   5.396   7.410 -0.5144 -0.2140  0.0794
 4471TIP3   OH235047   5.039   4.219   8.611 -0.3131  0.4507  0.1613
 4471TIP3    H135048   4.947   4.200   8.597  0.0081 -0.8028 -0.3536
 4471TIP3    H235049   5.068   4.155   8.676  0.3715  0.3205 -0.2567
 4472TIP3   OH235050   1.689   2.431   0.563 -0.5347  0.3557  0.0761
 4472TIP3    H135051   1.605   2.472   0.583 -0.8721 -0.9993  1.7368
 4472TIP3    H235052   1.724   2.481   0.490 -2.0047  2.0186  0.4442
 4473TIP3   OH235053   4.819   3.879   7.968  0.0021  0.0622  0.2125
 4473TIP3    H135054   4.756   3.915   7.906 -0.3080 -0.6664  0.0833
 4473TIP3    H235055   4.865   3.811   7.919  0.1059 -0.1734  0.6282
 4474TIP3   OH235056   6.526   5.870   1.321  0.1855  0.0277 -0.4155
 4474TIP3    H135057   6.479   5.815   1.258 -0.1041 -1.1101  0.7412
 4474TIP3    H235058   6.474   5.863   1.402  1.4140  0.1198  0.4075
 4475TIP3   OH235059   1.213   6.383   1.444  0.5803  0.6762  0.0669
 4475TIP3    H135060   1.147   6.347   1.385  0.9749  1.0326 -0.6113
 4475TIP3    H235061   1.294   6.339   1.420  0.2839 -1.2803  2.2573
 4476TIP3   OH235062   2.195   0.884   1.906 -0.4364 -0.1049  0.3521
 4476TIP3    H135063   2.277   0.848   1.941 -0.4282 -0.5726 -0.1353
 4476TIP3    H235064   2.223   0.960   1.854 -0.3601  0.0155  0.5657
 4477TIP3   OH235065   0.060   0.118   8.122  0.5842  0.2717 -0.2043
 4477TIP3    H135066   0.094   0.198   8.162  0.7839  0.6159 -1.0494
 4477TIP3    H235067   0.098   0.117   8.034 -0.3883 -0.1226 -0.6269
 4478TIP3   OH235068   3.686   4.635   1.818  0.3824 -0.1343 -0.0499
 4478TIP3    H135069   3.637   4.607   1.895  0.2794  0.2646  0.0327
 4478TIP3    H235070   3.638   4.597   1.744  0.0929  0.0400  0.0454
 4479TIP3   OH235071   0.799   6.290   1.211 -0.9196  0.4712  0.6283
 4479TIP3    H135072   0.854   6.368   1.223 -0.0824  0.2968 -1.6480
 4479TIP3    H235073   0.716   6.312   1.254 -0.5374  2.4191  0.4516
 4480TIP3   OH235074   3.749   0.131   6.552 -0.3065  0.0442  0.5584
 4480TIP3    H135075   3.768   0.115   6.460  0.3811 -0.9918  0.8704
 4480TIP3    H235076   3.730   0.045   6.589 -1.0561  0.4981  1.2967
 4481TIP3   OH235077   6.254   3.835   0.947 -0.6410  0.5020 -0.7310
 4481TIP3    H135078   6.190   3.784   0.996 -0.3262  0.2264 -0.6034
 4481TIP3    H235079   6.201   3.888   0.887 -1.1046  1.6295  0.6150
 4482TIP3   OH235080   0.662   2.701   0.574 -0.1579  0.0507 -0.1189
 4482TIP3    H135081   0.747   2.704   0.619 -0.3811 -0.9875  0.3921
 4482TIP3    H235082   0.605   2.757   0.626 -0.3353 -0.9119  0.7611
 4483TIP3   OH235083   0.798   0.277   6.030 -0.5210 -0.2825 -0.1540
 4483TIP3    H135084   0.763   0.203   6.079 -0.6646  0.4190  0.8333
 4483TIP3    H235085   0.747   0.352   6.060  1.7834  0.7938  1.3527
 4484TIP3   OH235086   5.926   0.829   0.206  0.0880  0.1613  0.8776
 4484TIP3    H135087   6.007   0.851   0.253 -0.4048  1.2851  1.2309
 4484TIP3    H235088   5.889   0.913   0.181 -0.7137 -0.3599  0.2604
 4485TIP3   OH235089   5.706   4.592   1.534 -0.1103 -0.0367 -0.0748
 4485TIP3    H135090   5.628   4.537   1.524  0.0974 -0.2674 -0.4384
 4485TIP3    H235091   5.779   4.530   1.534  0.1230  0.2324 -0.4116
 4486TIP3   OH235092   3.641   1.539   1.178  0.0217  0.5407 -0.1551
 4486TIP3    H135093   3.548   1.526   1.197 -0.0152  1.7623  0.6130
 4486TIP3    H235094   3.666   1.462   1.127 -1.7419  0.8394 -1.5892
 4487TIP3   OH235095   0.462   4.029   6.680  0.0780 -0.3626  0.0637
 4487TIP3    H135096   0.388   4.076   6.719  1.7507  1.1504  1.6450
 4487TIP3    H235097   0.422   3.961   6.627 -2.4718  1.7309 -0.9182
 4488TIP3   OH235098   1.344   4.481   8.068  0.3488 -0.1508 -0.1785
 4488TIP3    H135099   1.393   4.493   8.150  2.2981 -1.7785 -0.9983
 4488TIP3    H235100   1.385   4.541   8.006 -0.1167 -0.0029 -0.3485
 4489TIP3   OH235101   2.282   5.995   7.578  0.1491 -0.1187 -0.2688
 4489TIP3    H135102   2.280   5.959   7.666 -1.7735 -0.4160 -0.3766
 4489TIP3    H235103   2.342   6.070   7.583  1.3889 -1.1494  0.8336
 4490TIP3   OH235104   2.450   3.323   0.750  0.2384 -0.2845  0.0761
 4490TIP3    H135105   2.508   3.324   0.827  0.9879  0.3351 -0.4824
 4490TIP3    H235106   2.464   3.408   0.708 -0.2847 -0.5510 -0.6633
 4491TIP3   OH235107   2.390   1.835   0.948 -0.1642 -0.4509 -0.4860
 4491TIP3    H135108   2.335   1.889   1.005  0.5801  0.6443 -0.7685
 4491TIP3    H235109   2.364   1.745   0.968 -1.2068 -0.0133  0.2440
 4492TIP3   OH235110   5.890   0.140   0.718  0.5724  0.2399 -0.1150
 4492TIP3    H135111   5.828   0.140   0.645  0.8650  0.6538 -0.3672
 4492TIP3    H235112   5.881   0.227   0.757 -0.8963 -0.5602  1.4825
 4493TIP3   OH235113   0.806   3.488   0.338 -0.3339 -0.2260  0.2608
 4493TIP3    H135114   0.891   3.524   0.361 -0.0417 -0.6822 -0.0772
 4493TIP3    H235115   0.750   3.565   0.324 -0.2686  0.0644  1.4876
 4494TIP3   OH235116   2.004   4.168   1.710 -1.0045 -0.0699  0.3532
 4494TIP3    H135117   1.987   4.230   1.639  0.4806  0.6480  0.6022
 4494TIP3    H235118   2.041   4.091   1.666 -0.5851  0.1662  0.2872
 4495TIP3   OH235119   2.559   3.203   7.351  0.3218  0.1311  0.0613
 4495TIP3    H135120   2.593   3.176   7.437  1.6951 -0.0283 -0.5045
 4495TIP3    H235121   2.537   3.120   7.308 -0.9662  0.2423  0.4814
 4496TIP3   OH235122   4.658   1.689   7.221 -0.1212  0.6447 -0.0100
 4496TIP3    H135123   4.742   1.669   7.262  0.2218  1.6116 -0.2089
 4496TIP3    H235124   4.655   1.635   7.142  0.5536  0.9813 -0.2719
 4497TIP3   OH235125   2.567   2.017   8.002  0.1959  0.4253  0.1949
 4497TIP3    H135126   2.479   2.053   8.002 -0.5675 -1.2124  2.8682
 4497TIP3    H235127   2.556   1.925   8.026  2.6551  0.3686  1.4296
 4498TIP3   OH235128   3.678   4.214   8.266  0.4883  0.0200  0.4169
 4498TIP3    H135129   3.690   4.203   8.172 -0.1461  0.7345  0.2351
 4498TIP3    H235130   3.757   4.258   8.296  1.6677 -2.1241  0.6210
 4499TIP3   OH235131   2.652   1.933   8.530  0.5171 -0.5390  0.0922
 4499TIP3    H135132   2.671   1.852   8.577  0.8762 -1.3416 -1.3855
 4499TIP3    H235133   2.737   1.973   8.515  0.3212  0.2775  1.0554
 4500TIP3   OH235134   6.760   1.348   8.631 -0.3688  0.2296  0.3656
 4500TIP3    H135135   6.810   1.328   8.710 -0.3727  0.5608  0.4536
 4500TIP3    H235136   6.703   1.421   8.657  1.7949  2.4841 -0.7633
 4501TIP3   OH235137   5.664   0.215   6.962  0.3842  0.2090 -0.0862
 4501TIP3    H135138   5.568   0.212   6.965  0.4265 -1.0036  0.8513
 4501TIP3    H235139   5.689   0.257   7.044  0.6539  0.3122 -0.2221
 4502TIP3   OH235140   4.299   3.110   8.092 -0.3626  0.0386 -0.5591
 4502TIP3    H135141   4.269   3.155   8.171  0.4642 -0.6581  0.1809
 4502TIP3    H235142   4.312   3.179   8.028 -0.8849  0.6384 -0.0314
 4503TIP3   OH235143   0.585   4.150   2.502 -0.3921  0.3949 -0.0950
 4503TIP3    H135144   0.666   4.123   2.545  0.8681  0.0660 -2.5061
 4503TIP3    H235145   0.613   4.209   2.432 -2.3985  1.5683  0.0068
 4504TIP3   OH235146   5.760   4.014   0.545  0.2288  0.1879 -0.0471
 4504TIP3    H135147   5.818   4.081   0.580  0.6241 -0.7667  1.2061
 4504TIP3    H235148   5.812   3.970   0.478 -0.2074  1.4298 -1.2359
 4505TIP3   OH235149   3.187   2.731   7.578  0.4444  0.4022 -0.1246
 4505TIP3    H135150   3.212   2.765   7.492  0.6915 -0.2093 -0.2976
 4505TIP3    H235151   3.270   2.719   7.624  0.4176 -0.5499 -0.2934
 4506TIP3   OH235152   1.806   3.929   0.207  0.0114 -0.0753  0.1048
 4506TIP3    H135153   1.721   3.972   0.210 -0.4410 -0.9726  0.9104
 4506TIP3    H235154   1.868   3.999   0.189 -0.9085  0.5771 -0.6208
 4507TIP3   OH235155   3.548   1.975   8.447  0.3936  0.4421 -0.5415
 4507TIP3    H135156   3.476   2.016   8.495  0.9795  0.5396  0.2615
 4507TIP3    H235157   3.509   1.896   8.408 -0.8584  1.9396 -2.4823
 4508TIP3   OH235158   3.015   4.651   7.722  0.3539 -0.3733 -0.1206
 4508TIP3    H135159   2.940   4.686   7.769  0.1006  1.4441 -1.7780
 4508TIP3    H235160   2.978   4.593   7.656  0.4836 -0.3006 -0.2575
 4509TIP3   OH235161   4.163   3.017   6.702  0.0303 -0.1872  0.3480
 4509TIP3    H135162   4.096   3.081   6.678 -0.8284 -1.0639  0.3119
 4509TIP3    H235163   4.121   2.932   6.688  0.8182 -0.7584  1.2783
 4510TIP3   OH235164   5.243   5.717   6.950 -0.4780 -0.0624  0.1194
 4510TIP3    H135165   5.326   5.674   6.930 -0.0486  0.5391  0.5717
 4510TIP3    H235166   5.267   5.792   7.004 -1.4102 -0.4962  1.2008
 4511TIP3   OH235167   6.891   3.130   7.498 -0.5823 -0.6498 -0.9145
 4511TIP3    H135168   6.934   3.051   7.466  0.7905  0.2812 -1.4656
 4511TIP3    H235169   6.847   3.167   7.421 -0.8018 -0.6157 -0.7737
 4512TIP3   OH235170   4.826   3.952   0.904 -0.3916 -0.1831  0.2473
 4512TIP3    H135171   4.911   3.981   0.872 -0.4471 -0.5675 -0.2651
 4512TIP3    H235172   4.794   4.024   0.958 -0.9690  1.1343 -1.7405
 4513TIP3   OH235173   4.459   0.889   6.135 -0.0421 -0.8862 -0.0977
 4513TIP3    H135174   4.535   0.832   6.145 -1.3968 -2.5253  1.4865
 4513TIP3    H235175   4.476   0.937   6.054  1.9337 -2.3344 -0.6270
 4514TIP3   OH235176   4.122   1.417   7.846  0.2392 -0.1571 -0.3012
 4514TIP3    H135177   4.071   1.368   7.912 -0.4230 -0.1813 -0.8200
 4514TIP3    H235178   4.212   1.387   7.859  0.2394  0.3300  1.0394
 4515TIP3   OH235179   5.755   1.205   7.203  0.3157  0.5738 -0.5257
 4515TIP3    H135180   5.787   1.187   7.115 -1.4013  2.4248 -1.6247
 4515TIP3    H235181   5.678   1.149   7.212  0.2266  0.7181 -0.3935
 4516TIP3   OH235182   4.571   6.527   8.079  0.2380  0.5900 -0.4927
 4516TIP3    H135183   4.490   6.498   8.037  0.7441 -1.1175 -0.3374
 4516TIP3    H235184   4.548   6.611   8.118 -0.7128  1.4657 -2.7248
 4517TIP3   OH235185   1.742   5.060   8.610 -0.0618  0.0541 -0.1026
 4517TIP3    H135186   1.769   5.014   8.530 -0.7364 -0.7170  0.1013
 4517TIP3    H235187   1.648   5.046   8.614 -0.0414  0.1496  0.7957
 4518TIP3   OH235188   6.105   3.556   1.310 -0.0170 -0.5802 -0.1971
 4518TIP3    H135189   6.110   3.554   1.215  0.8875  0.6980 -0.2047
 4518TIP3    H235190   6.148   3.637   1.335 -2.6072  0.5096  1.1697
 4519TIP3   OH235191   6.368   6.153   1.788 -0.2213  0.2479 -0.3254
 4519TIP3    H135192   6.447   6.146   1.735 -1.3359 -0.9312 -1.9684
 4519TIP3    H235193   6.348   6.246   1.789  0.1456  0.3652 -1.5595
 4520TIP3   OH235194   0.626   1.362   6.471  0.3216 -0.2810 -0.4359
 4520TIP3    H135195   0.575   1.389   6.395 -0.5219 -0.1870  0.1406
 4520TIP3    H235196   0.561   1.327   6.532  0.8692  0.3363  0.5383
 4521TIP3   OH235197   1.427   1.598   6.041  0.2537  0.0834  0.3648
 4521TIP3    H135198   1.410   1.505   6.032 -0.4166  0.2606 -0.3176
 4521TIP3    H235199   1.487   1.605   6.116  0.2670 -0.8796  0.4493
 4522TIP3   OH235200   6.071   4.580   8.267  0.2472  0.2813 -0.6121
 4522TIP3    H135201   6.004   4.632   8.311  0.3616 -0.1512  0.1004
 4522TIP3    H235202   6.046   4.489   8.285  1.4810  0.1074  0.4142
 4523TIP3   OH235203   0.968   2.014   8.649 -0.6155  0.5344  0.2567
 4523TIP3    H135204   0.982   2.047   8.560  0.7549 -0.5101  0.0524
 4523TIP3    H235205   1.025   2.068   8.704  0.3878 -0.3675  0.1412
 4524TIP3   OH235206   0.959   4.609   7.803 -0.2027 -0.3963 -0.0277
 4524TIP3    H135207   0.955   4.519   7.836 -1.2821 -0.4941 -0.4065
 4524TIP3    H235208   0.878   4.650   7.832  1.0925  1.0589  1.7693
 4525TIP3   OH235209   2.127   4.002   1.998 -0.0002 -0.7326  0.2719
 4525TIP3    H135210   2.094   4.046   2.076 -1.0829 -1.4038  0.2068
 4525TIP3    H235211   2.050   3.960   1.960  1.0522 -3.0621  0.5597
 4526TIP3   OH235212   6.203   4.272   8.038  0.1154  0.2567 -0.3336
 4526TIP3    H135213   6.134   4.332   8.010  0.8310  0.7464 -1.0833
 4526TIP3    H235214   6.227   4.224   7.960 -1.6372 -2.3224  0.5860
 4527TIP3   OH235215   5.216   5.845   0.348  0.3882 -0.1398 -0.5213
 4527TIP3    H135216   5.227   5.756   0.314 -0.9867 -0.0386 -1.2705
 4527TIP3    H235217   5.126   5.868   0.327 -0.4224  0.1285  2.7828
 4528TIP3   OH235218   3.381   1.972   1.786  0.4874  0.6034  0.2766
 4528TIP3    H135219   3.422   1.940   1.866  0.6696  0.0060 -0.0418
 4528TIP3    H235220   3.450   1.964   1.720 -0.5464 -1.8752 -0.6108
 4529TIP3   OH235221   3.328   1.047   0.925 -0.0539  0.0710 -0.3064
 4529TIP3    H135222   3.404   1.062   0.868 -0.1863 -0.9647 -0.7741
 4529TIP3    H235223   3.254   1.082   0.875  0.2069  2.1507  0.6303
 4530TIP3   OH235224   2.888   6.114   0.109  0.4963  0.7250 -0.9057
 4530TIP3    H135225   2.805   6.071   0.130  0.0441  2.5558  1.6420
 4530TIP3    H235226   2.895   6.109   0.014 -1.3149 -1.5823 -1.0122
 4531TIP3   OH235227   2.502   6.098   1.071  0.5249 -0.1998 -0.3806
 4531TIP3    H135228   2.589   6.090   1.112  0.6967  0.4001 -0.6109
 4531TIP3    H235229   2.441   6.072   1.140  0.8001  0.9708  0.3274
 4532TIP3   OH235230   6.111   3.047   0.026 -0.0275  0.1915 -0.0183
 4532TIP3    H135231   6.065   3.075  -0.053 -1.3639 -0.2274  0.5829
 4532TIP3    H235232   6.045   3.000   0.077  0.7154  0.7238  1.5069
 4533TIP3   OH235233   2.549   3.621   2.085 -0.0014 -0.0697  0.3783
 4533TIP3    H135234   2.597   3.629   2.003 -0.0552  0.0829  0.3620
 4533TIP3    H235235   2.517   3.531   2.085 -0.6452  0.1567 -0.1152
 4534TIP3   OH235236   5.716   6.208   1.185  0.2557  0.1166  0.0277
 4534TIP3    H135237   5.790   6.196   1.244  0.3513  1.6052  0.2594
 4534TIP3    H235238   5.750   6.183   1.099  1.7891  2.8203 -0.2734
 4535TIP3   OH235239   5.207   3.739   7.453  0.7681  0.3816 -0.1500
 4535TIP3    H135240   5.194   3.676   7.382  1.6080  1.3214 -1.1886
 4535TIP3    H235241   5.269   3.696   7.512  1.2278  0.1557 -0.7756
 4536TIP3   OH235242   3.521   2.000   0.533 -0.1941  0.1884  0.2730
 4536TIP3    H135243   3.511   2.089   0.498 -2.7541  0.5394  1.6190
 4536TIP3    H235244   3.555   1.950   0.460  1.7367  2.3292 -0.4135
 4537TIP3   OH235245   1.183   4.519   0.129  0.2512 -0.1731  0.1061
 4537TIP3    H135246   1.105   4.514   0.183  1.0388  0.8419  1.3763
 4537TIP3    H235247   1.194   4.429   0.095 -0.7713 -0.6016  0.8677
 4538TIP3   OH235248   1.262   6.814   6.969  0.1571 -0.3960  0.1170
 4538TIP3    H135249   1.302   6.889   7.012  2.7423 -1.4682 -0.2044
 4538TIP3    H235250   1.277   6.828   6.876  0.0792 -0.9811  0.0111
 4539TIP3   OH235251   4.773   2.875   7.814 -0.1356 -0.0862  0.1847
 4539TIP3    H135252   4.837   2.803   7.805 -0.4620 -0.3438 -0.1218
 4539TIP3    H235253   4.708   2.856   7.747 -0.9626 -0.2742  1.0239
 4540TIP3   OH235254   2.672   6.296   8.012 -0.4488  0.9891 -0.1302
 4540TIP3    H135255   2.706   6.251   7.934 -0.6602 -0.3986  0.5389
 4540TIP3    H235256   2.633   6.377   7.979  0.0336  0.7324 -1.3810
 4541TIP3   OH235257   2.278   5.894   2.592 -0.0386 -0.0551 -0.2962
 4541TIP3    H135258   2.358   5.859   2.553 -0.5362 -0.2172 -1.1994
 4541TIP3    H235259   2.214   5.823   2.584 -0.0074 -0.3318  1.3944
 4542TIP3   OH235260   1.723   1.220   7.727  0.6722  0.4165 -0.0419
 4542TIP3    H135261   1.789   1.173   7.676  0.4342 -0.1405  0.1606
 4542TIP3    H235262   1.676   1.152   7.775  1.8231  1.0079  2.0645
 4543TIP3   OH235263   4.984   2.717   7.737 -0.2382  0.4061  0.4007
 4543TIP3    H135264   5.056   2.779   7.727  0.2171  0.5297  3.3932
 4543TIP3    H235265   5.020   2.649   7.794 -2.4469  0.4818  2.0047
 4544TIP3   OH235266   2.635   5.104   6.944 -0.3497 -0.0084 -0.0062
 4544TIP3    H135267   2.607   5.057   6.866  0.0247  0.1943 -0.2637
 4544TIP3    H235268   2.555   5.145   6.977 -0.8545 -1.4979  0.6969
 4545TIP3   OH235269   2.458   3.527   1.329 -0.1233  0.0482  0.5316
 4545TIP3    H135270   2.379   3.558   1.284 -0.2565 -0.0861  0.6720
 4545TIP3    H235271   2.446   3.557   1.420 -0.1437 -0.2134  0.6164
 4546TIP3   OH235272   6.241   1.848   0.558 -0.4127  0.3452 -0.0170
 4546TIP3    H135273   6.201   1.769   0.592 -2.0210  0.9730 -0.3870
 4546TIP3    H235274   6.327   1.852   0.601 -0.7850 -0.9487  0.8928
 4547TIP3   OH235275   3.920   0.568   1.012 -0.3070  0.6857  0.3253
 4547TIP3    H135276   3.978   0.559   0.936 -2.2588  1.6845 -1.3639
 4547TIP3    H235277   3.980   0.574   1.087  1.7521  1.3903 -1.2804
 4548TIP3   OH235278   6.343   0.723   8.492 -0.0867  0.1690  0.1992
 4548TIP3    H135279   6.380   0.648   8.538  0.6869  1.1484  1.2132
 4548TIP3    H235280   6.356   0.703   8.399  0.7066 -0.6378  0.4719
 4549TIP3   OH235281   4.399   4.947   0.966  0.2552  0.2303 -0.1801
 4549TIP3    H135282   4.357   4.981   0.887 -1.1401  0.7062  0.7143
 4549TIP3    H235283   4.331   4.955   1.034  1.2433 -0.6280  0.9489
 4550TIP3   OH235284   6.679   4.041   0.552 -0.2625  0.2222 -0.3923
 4550TIP3    H135285   6.704   3.956   0.515 -1.5017 -0.5829  0.5391
 4550TIP3    H235286   6.614   4.020   0.618 -2.0308  2.0672 -1.4449
 4551TIP3   OH235287   0.042   2.248   6.607 -0.3854 -0.5039  0.1579
 4551TIP3    H135288   0.005   2.161   6.597 -0.2913 -0.5126 -0.1159
 4551TIP3    H235289   0.073   2.272   6.519  1.8986 -1.2247  0.7010
 4552TIP3   OH235290   3.152   4.189   8.616 -0.3842  0.5245  0.0668
 4552TIP3    H135291   3.058   4.170   8.614 -0.2155 -0.4088  0.8683
 4552TIP3    H235292   3.192   4.115   8.661  0.8548  0.4738 -1.0350
 4553TIP3   OH235293   1.204   5.529   8.040 -0.1681  0.2736 -0.1057
 4553TIP3    H135294   1.217   5.469   7.967  1.6419  1.4922 -0.8877
 4553TIP3    H235295   1.200   5.474   8.117 -0.9092 -0.9711 -1.0047
 4554TIP3   OH235296   6.729   3.605   1.973 -0.1406  0.1785 -0.7341
 4554TIP3    H135297   6.788   3.666   2.016 -1.1062  0.2968  0.4650
 4554TIP3    H235298   6.658   3.591   2.036 -0.8589 -0.7710 -1.7132
 4555TIP3   OH235299   5.914   1.820   6.557 -0.9414  0.5690 -0.2294
 4555TIP3    H135300   5.884   1.781   6.639 -2.8669  2.2289 -0.0740
 4555TIP3    H235301   5.841   1.809   6.496 -0.4292  1.3926 -1.0174
 4556TIP3   OH235302   0.513   3.977   7.141 -0.1887  0.3332  0.0333
 4556TIP3    H135303   0.594   4.009   7.102  0.0148 -0.1830  0.0166
 4556TIP3    H235304   0.450   4.048   7.129 -0.3138 -0.0377 -1.8432
 4557TIP3   OH235305   4.113   6.836   6.406  0.0419  0.2948 -0.0577
 4557TIP3    H135306   4.071   6.780   6.471 -3.1746  3.0606  0.4988
 4557TIP3    H235307   4.061   6.824   6.327  0.7769  0.8029 -0.6351
 4558TIP3   OH235308   3.070   3.340   1.106  0.0355 -0.0479 -0.1610
 4558TIP3    H135309   3.084   3.389   1.187  0.3179  0.6357 -0.6152
 4558TIP3    H235310   3.085   3.248   1.130 -0.7702  0.0477  0.7639
 4559TIP3   OH235311   5.901   5.439   6.256  0.3174  0.1096  0.2787
 4559TIP3    H135312   5.869   5.349   6.258  0.5397 -0.0228 -1.3278
 4559TIP3    H235313   5.834   5.488   6.208 -1.2483  1.4651  3.4760
 4560TIP3   OH235314   1.710   4.891   7.631  0.0384  0.7344 -0.5815
 4560TIP3    H135315   1.634   4.841   7.658  2.0938 -1.7850  1.0191
 4560TIP3    H235316   1.707   4.889   7.535 -2.9095  2.5555 -0.6570
 4561TIP3   OH235317   3.050   1.953   0.085  0.1941 -0.0802  0.2017
 4561TIP3    H135318   3.044   2.046   0.108 -0.5640 -0.2192  0.5976
 4561TIP3    H235319   2.985   1.942   0.016  0.7523 -0.1876 -0.3215
 4562TIP3   OH235320   0.565   2.853   6.976 -0.1573  0.5323  0.2441
 4562TIP3    H135321   0.603   2.773   6.939  0.1419  1.1943 -0.9140
 4562TIP3    H235322   0.614   2.868   7.057 -1.7151 -1.6799  1.7052
 4563TIP3   OH235323   3.051   4.595   2.121  0.7984  0.1021 -0.1843
 4563TIP3    H135324   3.099   4.678   2.120  2.1830 -0.6394  1.1137
 4563TIP3    H235325   3.073   4.555   2.205 -2.4899 -0.1227  0.7118
 4564TIP3   OH235326   6.880   3.078   6.916 -0.5405 -0.1101  0.2960
 4564TIP3    H135327   6.863   3.149   6.855  0.0619  0.5408  0.8774
 4564TIP3    H235328   6.796   3.064   6.960 -0.5428  0.5711  0.5188
 4565TIP3   OH235329   5.105   3.586   1.724 -0.5190  0.0570  0.2320
 4565TIP3    H135330   5.065   3.499   1.732  0.4468 -0.4010  0.2413
 4565TIP3    H235331   5.110   3.619   1.814 -0.8173  0.0976  0.2359
 4566TIP3   OH235332   2.644   6.264   1.442  0.0947 -0.8022 -0.3907
 4566TIP3    H135333   2.621   6.240   1.353  2.2688 -0.5756 -1.0602
 4566TIP3    H235334   2.734   6.295   1.437 -0.2540  0.8070  1.6059
 4567TIP3   OH235335   5.673   4.925   8.143  0.5748 -0.4304 -0.3200
 4567TIP3    H135336   5.684   4.922   8.238  1.0120 -2.6493 -0.3690
 4567TIP3    H235337   5.581   4.903   8.129  0.2573  0.8816 -0.4109
 4568TIP3   OH235338   5.041   0.136   0.641  0.1485  0.3682  0.0374
 4568TIP3    H135339   5.010   0.069   0.702  1.2528 -0.4424 -0.2588
 4568TIP3    H235340   5.130   0.155   0.668  0.8399 -0.3679 -1.5837
 4569TIP3   OH235341   5.679   5.306   2.355  0.1779  0.5243  0.0936
 4569TIP3    H135342   5.628   5.232   2.322  0.1982  1.4006 -2.0855
 4569TIP3    H235343   5.769   5.287   2.328  0.9382 -0.4923  2.9735
 4570TIP3   OH235344   0.787   2.479   7.118  0.5247 -0.0741  0.3562
 4570TIP3    H135345   0.781   2.523   7.203  0.3320  0.3242  0.1415
 4570TIP3    H235346   0.740   2.397   7.130  0.6147 -0.0820  0.6733
 4571TIP3   OH235347   3.244   5.385   0.298 -0.1862 -0.2438 -0.0669
 4571TIP3    H135348   3.259   5.356   0.208 -1.3727  1.5605 -0.9028
 4571TIP3    H235349   3.156   5.354   0.319  0.1857 -0.8858  0.5953
 4572TIP3   OH235350   5.784   5.242   1.198  0.1397 -0.1359  0.2881
 4572TIP3    H135351   5.793   5.238   1.293 -0.3311 -2.1174  0.2872
 4572TIP3    H235352   5.691   5.231   1.181  0.2485 -0.0540 -0.4178
 4573TIP3   OH235353   1.498   4.522   6.768  0.3285 -0.2285 -0.5922
 4573TIP3    H135354   1.566   4.589   6.763 -1.6561  1.9442 -0.2092
 4573TIP3    H235355   1.432   4.549   6.703 -2.7446  0.9993  2.6763
 4574TIP3   OH235356   3.843   3.530   7.674  0.5371  0.1509  0.0453
 4574TIP3    H135357   3.886   3.535   7.759  0.0392  0.1884  0.2983
 4574TIP3    H235358   3.820   3.438   7.664  1.7946 -0.1017 -0.6556
 4575TIP3   OH235359   0.870   4.751   6.813 -0.1881  0.1832  0.1889
 4575TIP3    H135360   0.957   4.762   6.774 -0.1651 -1.1706 -0.2065
 4575TIP3    H235361   0.856   4.656   6.812 -1.6123  0.3766  0.3751
 4576TIP3   OH235362   0.739   0.805   1.290  0.0370  0.0704  0.0357
 4576TIP3    H135363   0.725   0.711   1.300  0.8570 -0.2158 -1.2100
 4576TIP3    H235364   0.660   0.837   1.247 -0.1819 -0.0728  0.3288
 4577TIP3   OH235365   2.059   2.111   8.092  0.4863 -0.5373 -0.1391
 4577TIP3    H135366   1.970   2.115   8.056  1.3126 -0.0957 -2.2805
 4577TIP3    H235367   2.057   2.172   8.165 -0.7421  0.2073 -0.7516
 4578TIP3   OH235368   2.855   1.880   7.983 -0.6386 -0.1360  0.2159
 4578TIP3    H135369   2.767   1.842   7.980 -0.4596 -0.6180  0.9608
 4578TIP3    H235370   2.897   1.848   7.903 -0.1933 -2.2762  1.2523
 4579TIP3   OH235371   5.636   6.745   0.418 -0.1511  0.1461 -0.1613
 4579TIP3    H135372   5.667   6.731   0.329 -0.7689 -1.8066 -0.1223
 4579TIP3    H235373   5.693   6.690   0.472  1.8977  3.1776  1.0756
 4580TIP3   OH235374   6.883   1.358   1.409 -0.4673 -0.1657 -0.3136
 4580TIP3    H135375   6.836   1.288   1.455  0.4859  0.6342  2.0270
 4580TIP3    H235376   6.972   1.356   1.446 -0.1133  1.5806 -0.9648
 4581TIP3   OH235377   5.588   0.039   8.330 -0.0704 -0.1715 -0.0327
 4581TIP3    H135378   5.550  -0.020   8.394  1.1836 -0.0664  0.8512
 4581TIP3    H235379   5.662  -0.009   8.293 -1.2141 -0.5284 -2.0087
 4582TIP3   OH235380   4.333   6.441   7.957  0.2041  0.3510  0.5081
 4582TIP3    H135381   4.353   6.383   7.883 -1.2830  0.8954 -0.3466
 4582TIP3    H235382   4.283   6.386   8.017 -1.5293  0.8057 -0.4726
 4583TIP3   OH235383   2.215   4.656   7.249  0.1899  0.0251 -0.0037
 4583TIP3    H135384   2.260   4.659   7.165  0.7276  0.9657  0.3101
 4583TIP3    H235385   2.129   4.618   7.229  0.1940  0.5309 -1.0185
 4584TIP3   OH235386   1.433   4.010   2.401  0.2530 -0.1982 -0.5455
 4584TIP3    H135387   1.424   3.931   2.455  0.3528  1.2431  1.7118
 4584TIP3    H235388   1.359   4.065   2.427 -0.0127  0.3608 -2.3352
 4585TIP3   OH235389   3.155   5.521   0.583  0.0683 -0.1256  0.1705
 4585TIP3    H135390   3.112   5.494   0.502  1.4621  0.2858 -0.7446
 4585TIP3    H235391   3.148   5.616   0.583 -0.3676 -0.1500  0.8069
 4586TIP3   OH235392   4.069   3.486   1.324  0.0597 -0.0144 -0.1794
 4586TIP3    H135393   3.980   3.452   1.316 -0.2157  0.2096  1.5923
 4586TIP3    H235394   4.104   3.445   1.403  0.7253  1.6114  0.4194
 4587TIP3   OH235395   1.540   0.522   8.168 -0.6717 -0.4479 -0.1204
 4587TIP3    H135396   1.530   0.485   8.080 -0.1439  0.4329 -0.5696
 4587TIP3    H235397   1.609   0.469   8.208 -1.8503 -1.7258  0.2736
 4588TIP3   OH235398   6.871   3.625   7.934 -0.2642 -0.9456 -0.0128
 4588TIP3    H135399   6.954   3.594   7.972  0.6483 -0.4638 -1.5191
 4588TIP3    H235400   6.876   3.720   7.942 -0.5871 -0.9038 -0.2975
 4589TIP3   OH235401   4.689   3.721   8.166  0.1304 -0.2588 -0.4387
 4589TIP3    H135402   4.765   3.770   8.135  1.4036 -1.4881  0.6020
 4589TIP3    H235403   4.675   3.654   8.099 -0.1964  0.0920 -0.7314
 4590TIP3   OH235404   4.767   1.876   8.626 -0.0653  0.1356 -0.0821
 4590TIP3    H135405   4.738   1.964   8.603  0.3429  0.3238  0.1073
 4590TIP3    H235406   4.689   1.822   8.619 -0.3707  0.5587  0.0424
 4591TIP3   OH235407   3.469   5.894   7.460  0.2184  0.0888  0.2118
 4591TIP3    H135408   3.409   5.966   7.480  0.6278 -0.1423  2.5020
 4591TIP3    H235409   3.545   5.910   7.517  0.4083 -2.0066  0.6052
 4592TIP3   OH235410   1.688   3.621   8.581 -0.4355 -0.4599  0.3233
 4592TIP3    H135411   1.612   3.600   8.526 -1.4210  1.5203  0.8539
 4592TIP3    H235412   1.758   3.640   8.519 -0.9543 -0.3172 -0.2267
 4593TIP3   OH235413   3.919   3.332   7.063  0.0642  0.5187 -0.0734
 4593TIP3    H135414   3.850   3.307   7.001  0.0360  1.3305 -0.3825
 4593TIP3    H235415   3.992   3.274   7.043 -0.5309 -0.3713  0.2719
 4594TIP3   OH235416   2.521   2.921   7.287  0.1508 -0.4260 -0.8731
 4594TIP3    H135417   2.587   2.853   7.270 -0.0119 -0.9262  0.3953
 4594TIP3    H235418   2.450   2.875   7.331  0.1696  0.6169  0.2942
 4595TIP3   OH235419   1.003   6.654   7.750  0.3621 -0.2144 -0.5012
 4595TIP3    H135420   0.970   6.688   7.667 -1.3288 -0.2186  0.1318
 4595TIP3    H235421   1.098   6.660   7.742  0.2129  0.6607 -2.0651
 4596TIP3   OH235422   3.551   5.557   8.359 -0.3436 -0.4691  0.1524
 4596TIP3    H135423   3.464   5.580   8.391 -0.8509  1.1929 -2.1795
 4596TIP3    H235424   3.537   5.480   8.304 -0.4307  0.0611 -0.5761
 4597TIP3   OH235425   6.320   5.512   7.956  0.0038  0.8079  0.1337
 4597TIP3    H135426   6.252   5.579   7.949  0.1331  1.0402  1.0160
 4597TIP3    H235427   6.278   5.440   8.002  0.2230  0.7607  0.2586
 4598TIP3   OH235428   2.429   3.289   7.945 -0.4609  0.1408  0.1596
 4598TIP3    H135429   2.378   3.356   7.899 -0.2286  1.8799  2.2908
 4598TIP3    H235430   2.367   3.246   8.004 -0.6179 -1.6461 -1.2048
 4599TIP3   OH235431   3.128   1.103   7.642 -0.1007 -0.2878  0.0559
 4599TIP3    H135432   3.156   1.077   7.730  0.6415 -2.4534 -0.7703
 4599TIP3    H235433   3.146   1.027   7.587  0.5878  1.4199 -2.2278
 4600TIP3   OH235434   6.432   1.179   1.603 -0.4722 -0.4994  0.5041
 4600TIP3    H135435   6.392   1.257   1.566  2.0940  1.2447  1.1390
 4600TIP3    H235436   6.366   1.145   1.663 -1.7032  1.1014  0.1451
 4601TIP3   OH235437   0.283   3.261   1.756 -0.6632 -0.1739  0.1605
 4601TIP3    H135438   0.344   3.213   1.700  0.9110  1.2228  0.5845
 4601TIP3    H235439   0.199   3.253   1.712  0.0967 -0.9610 -1.2321
 4602TIP3   OH235440   3.372   6.382   8.213 -0.1235 -0.1518  0.4809
 4602TIP3    H135441   3.429   6.306   8.210  1.3952  0.8499  1.7909
 4602TIP3    H235442   3.400   6.437   8.139  1.9902  1.1634  2.1187
 4603TIP3   OH235443   4.506   6.581   0.411  0.1610  0.2052 -0.6089
 4603TIP3    H135444   4.420   6.544   0.393  0.4963 -2.2616  2.1348
 4603TIP3    H235445   4.492   6.640   0.485  0.8412 -0.5776  0.1689
 4604TIP3   OH235446   0.180   3.472   1.283 -0.3474  0.2676 -0.3364
 4604TIP3    H135447   0.109   3.424   1.239 -0.6377 -0.2249  0.6321
 4604TIP3    H235448   0.135   3.541   1.332 -0.1883 -0.1775  0.4538
 4605TIP3   OH235449   5.883   1.137   8.226 -0.3606 -0.1097 -0.3269
 4605TIP3    H135450   5.966   1.130   8.274 -0.3161  1.2743 -0.1515
 4605TIP3    H235451   5.832   1.061   8.255  1.2648 -1.6683 -1.3572
 4606TIP3   OH235452   2.211   0.795   6.131 -0.2035 -0.8841 -0.7881
 4606TIP3    H135453   2.166   0.853   6.070 -0.1459 -1.6544 -1.5838
 4606TIP3    H235454   2.147   0.728   6.153 -0.2596 -0.5494  0.0972
 4607TIP3   OH235455   4.410   0.309   8.046  0.2208 -0.4765  0.2706
 4607TIP3    H135456   4.391   0.216   8.053 -3.2401 -0.0741 -1.6069
 4607TIP3    H235457   4.461   0.317   7.965  1.1556 -0.7498  0.8143
 4608TIP3   OH235458   3.126   5.294   2.220 -0.7199  0.3479  0.0197
 4608TIP3    H135459   3.169   5.211   2.198 -1.4742 -0.5627  1.7747
 4608TIP3    H235460   3.054   5.301   2.157 -0.7840 -0.4478 -0.0091
 4609TIP3   OH235461   1.066   5.411   7.796  0.1060 -0.3815  0.2051
 4609TIP3    H135462   1.083   5.500   7.766  0.3947 -0.2415  0.7733
 4609TIP3    H235463   1.012   5.372   7.727  1.3512 -0.3040 -0.8325
 4610TIP3   OH235464   3.530   1.624   7.767  0.6468  0.2794  0.0674
 4610TIP3    H135465   3.567   1.669   7.691 -1.8677  1.0921 -0.7650
 4610TIP3    H235466   3.441   1.658   7.774 -0.0017 -1.6034  1.9020
 4611TIP3   OH235467   6.288   3.292   7.413 -0.2390  0.9501 -0.2695
 4611TIP3    H135468   6.323   3.372   7.452  1.7344 -0.5765  1.3208
 4611TIP3    H235469   6.303   3.303   7.319 -0.2443  2.5371 -0.1072
 4612TIP3   OH235470   0.968   3.781   0.084  0.3029 -0.1388 -0.0957
 4612TIP3    H135471   1.023   3.712   0.120  0.4657  0.3176  0.5362
 4612TIP3    H235472   0.901   3.796   0.151  0.9961  1.1771  0.3342
 4613TIP3   OH235473   5.531   6.156   7.972 -0.2524  0.1973 -0.6446
 4613TIP3    H135474   5.447   6.116   7.947 -0.0964 -0.5294 -0.0237
 4613TIP3    H235475   5.583   6.084   8.006  1.0219  0.4466 -1.9646
 4614TIP3   OH235476   0.696   5.387   2.130  0.4904 -0.0976  0.3304
 4614TIP3    H135477   0.628   5.359   2.068  1.3095 -1.7983  0.1380
 4614TIP3    H235478   0.702   5.482   2.117 -1.0893 -0.0579 -0.3963
 4615TIP3   OH235479   2.013   4.941   1.585 -0.4709  0.4090  0.6858
 4615TIP3    H135480   1.949   4.915   1.519 -0.7718 -0.4566  1.2961
 4615TIP3    H235481   2.081   4.873   1.580 -0.6164  0.1972  1.4108
 4616TIP3   OH235482   3.877   4.790   1.095  0.1204 -0.1693  0.0240
 4616TIP3    H135483   3.825   4.821   1.021  2.6172  2.0436 -0.9963
 4616TIP3    H235484   3.917   4.709   1.064 -1.2055 -0.8946  0.1432
 4617TIP3   OH235485   6.431   0.485   0.584  0.2148  0.4446  0.2486
 4617TIP3    H135486   6.371   0.550   0.547  1.0193  0.3386 -1.3056
 4617TIP3    H235487   6.429   0.412   0.521  2.3422  0.6539 -0.1304
 4618TIP3   OH235488   2.500   1.098   8.555  0.5103  0.0608 -0.4249
 4618TIP3    H135489   2.521   1.060   8.470  0.4518  0.0947 -0.4545
 4618TIP3    H235490   2.416   1.058   8.579  1.4113 -1.3918  0.4808
 4619TIP3   OH235491   6.029   5.366   8.374  0.4720 -0.1145  0.5823
 4619TIP3    H135492   5.982   5.421   8.437 -0.6643  1.5929 -1.6034
 4619TIP3    H235493   6.111   5.343   8.419 -0.1880  1.1475  2.5942
 4620TIP3   OH235494   0.559   0.486   0.096  0.6149  0.4187 -0.5641
 4620TIP3    H135495   0.523   0.399   0.115  0.0563  0.7111 -0.2530
 4620TIP3    H235496   0.607   0.510   0.175  0.3786  0.5836 -0.4678
 4621TIP3   OH235497   5.703   5.018   1.715  0.1090  0.3131 -0.0677
 4621TIP3    H135498   5.682   4.959   1.787 -1.2972  0.8164 -0.0256
 4621TIP3    H235499   5.684   4.966   1.636 -0.5558  0.4914 -0.0354
 4622TIP3   OH235500   2.483   1.977   6.660 -0.2252 -0.2994  0.2799
 4622TIP3    H135501   2.525   1.968   6.574  0.3748  1.1764  0.3943
 4622TIP3    H235502   2.419   2.046   6.649 -0.8812 -0.8136  0.7704
 4623TIP3   OH235503   4.699   2.209   8.288  0.2359  0.3440 -0.0300
 4623TIP3    H135504   4.765   2.139   8.286 -0.5712 -0.5155  1.2672
 4623TIP3    H235505   4.747   2.288   8.262  1.7852 -0.2527  0.8292
 4624TIP3   OH235506   2.406   4.336   7.816 -0.6490 -1.0005  0.3598
 4624TIP3    H135507   2.466   4.296   7.879  0.6059 -0.7144 -0.6100
 4624TIP3    H235508   2.391   4.424   7.849  0.4732 -0.6519 -0.0124
 4625TIP3   OH235509   5.878   4.798   7.538 -0.3147  0.4425  0.1387
 4625TIP3    H135510   5.871   4.857   7.613  0.8576  1.2320 -0.3333
 4625TIP3    H235511   5.896   4.713   7.576  2.5359  1.2197  0.7816
 4626TIP3   OH235512   6.786   1.078   8.555  0.1504 -0.3043  0.8090
 4626TIP3    H135513   6.774   1.172   8.571 -0.3579 -0.2084 -0.0738
 4626TIP3    H235514   6.793   1.070   8.460  0.8457 -1.0985  0.9133
 4627TIP3   OH235515   2.181   4.214   1.397  0.3129 -0.0197  0.0798
 4627TIP3    H135516   2.196   4.137   1.342  1.2302 -0.8997  1.4624
 4627TIP3    H235517   2.237   4.282   1.360  2.5272 -1.1985  1.0172
 4628TIP3   OH235518   2.317   1.490   2.310  0.2349  0.0682  0.5162
 4628TIP3    H135519   2.361   1.521   2.389 -0.8549  0.0016  1.1687
 4628TIP3    H235520   2.224   1.509   2.325 -0.1163 -0.9265 -0.2937
 4629TIP3   OH235521   2.911   5.472   0.775 -0.3383  0.0004 -0.2762
 4629TIP3    H135522   2.935   5.518   0.856 -1.3421 -0.3351  0.2295
 4629TIP3    H235523   2.987   5.418   0.754 -0.3264 -0.4294  0.8262
 4630TIP3   OH235524   5.907   0.660   7.635 -0.1526  0.0422 -0.2771
 4630TIP3    H135525   5.879   0.573   7.605 -0.3677  0.3608 -1.0318
 4630TIP3    H235526   5.978   0.684   7.575 -0.7042  0.7685 -0.6504
 4631TIP3   OH235527   6.357   5.409   6.425  0.2853 -0.4257  0.0341
 4631TIP3    H135528   6.331   5.386   6.336 -1.0802  0.3685  0.2065
 4631TIP3    H235529   6.448   5.438   6.416  0.3157 -0.7857 -1.0085
 4632TIP3   OH235530   6.564   0.309   1.314  0.1764  0.3209  0.4254
 4632TIP3    H135531   6.480   0.273   1.286 -0.3394  1.0076  1.0457
 4632TIP3    H235532   6.607   0.335   1.233 -0.0845 -0.2862  0.0815
 4633TIP3   OH235533   1.878   2.789   8.261  0.1189  0.2388  0.4979
 4633TIP3    H135534   1.872   2.871   8.309 -1.0482  0.6710 -0.3350
 4633TIP3    H235535   1.962   2.752   8.286  0.8965  1.9360  0.5105
 4634TIP3   OH235536   4.319   6.474   1.510  0.2583  0.7396 -0.4114
 4634TIP3    H135537   4.265   6.510   1.580  0.1327  0.7850 -0.5301
 4634TIP3    H235538   4.328   6.546   1.447  0.2583  0.6581 -0.5058
 4635TIP3   OH235539   2.048   2.135   1.244 -0.2606 -0.1540 -0.1798
 4635TIP3    H135540   2.104   2.213   1.238  0.0089 -0.2973  0.3815
 4635TIP3    H235541   1.979   2.160   1.306 -0.2800 -0.2953 -0.1445
 4636TIP3   OH235542   4.841   4.797   0.909  0.0015 -0.3068  0.0838
 4636TIP3    H135543   4.829   4.744   0.988  0.7699 -1.0371 -0.2793
 4636TIP3    H235544   4.845   4.887   0.942 -0.5652 -0.5187  0.7798
 4637TIP3   OH235545   2.387   6.119   2.718  0.2246 -0.0662 -0.0748
 4637TIP3    H135546   2.377   6.176   2.642 -1.5954  0.3609  0.4371
 4637TIP3    H235547   2.376   6.030   2.684  0.4272  0.0569 -0.4622
 4638TIP3   OH235548   2.784   1.061   8.341 -0.1098  0.2624  0.4790
 4638TIP3    H135549   2.691   1.066   8.364 -0.5596 -0.7469 -0.8988
 4638TIP3    H235550   2.786   1.086   8.248  1.0369  0.5307  0.5702
 4639TIP3   OH235551   0.911   1.297   0.817 -0.1028  0.4994 -0.5088
 4639TIP3    H135552   0.935   1.222   0.872  2.5732  1.1744 -0.6206
 4639TIP3    H235553   0.820   1.314   0.840 -0.0847 -1.2971  1.2733
 4640TIP3   OH235554   5.995   4.126   8.337 -0.4204 -0.2992 -0.2175
 4640TIP3    H135555   5.919   4.181   8.315  0.9693  1.6535 -0.4038
 4640TIP3    H235556   6.021   4.086   8.254  0.0018  0.7183 -0.5930
 4641TIP3   OH235557   3.734   4.560   1.317 -0.0756  0.0356 -0.0761
 4641TIP3    H135558   3.806   4.617   1.345 -0.9223  1.3231 -0.4086
 4641TIP3    H235559   3.733   4.569   1.222 -0.9192  0.3663 -0.0442
 4642TIP3   OH235560   6.602   2.082   7.334 -0.2547 -0.2560  0.4592
 4642TIP3    H135561   6.676   2.073   7.394  0.2392 -0.1298 -0.1245
 4642TIP3    H235562   6.530   2.112   7.389 -0.0974 -1.1530  1.1925
 4643TIP3   OH235563   4.575   0.031   1.414 -0.2045 -0.2914  0.0627
 4643TIP3    H135564   4.650  -0.014   1.375  0.0154  0.3154 -0.2154
 4643TIP3    H235565   4.542  -0.031   1.480  0.5212 -0.5701  0.1723
 4644TIP3   OH235566   4.384   5.787   7.068  0.0137 -0.2763 -0.0958
 4644TIP3    H135567   4.417   5.848   7.133  0.8451 -0.2062 -0.5720
 4644TIP3    H235568   4.318   5.735   7.115  0.3650 -0.0116  0.7041
 4645TIP3   OH235569   5.159   3.964   7.249  0.2203  0.7934  0.0969
 4645TIP3    H135570   5.228   3.944   7.311 -0.3380  0.6838  0.6940
 4645TIP3    H235571   5.195   4.033   7.193  0.6582  1.0231  0.6618
 4646TIP3   OH235572   1.029   0.267   0.909 -0.1007 -0.3973  0.7306
 4646TIP3    H135573   1.069   0.338   0.959 -1.1683 -0.9742  2.5242
 4646TIP3    H235574   1.012   0.198   0.974 -3.1326 -0.5193 -0.0380
 4647TIP3   OH235575   5.035   0.829   0.698 -0.5761 -0.2372 -0.6744
 4647TIP3    H135576   5.128   0.819   0.718 -0.7165 -0.2216 -0.0213
 4647TIP3    H235577   5.033   0.896   0.630 -0.3065  1.7077  1.1575
 4648TIP3   OH235578   3.647   2.575   0.578  0.2415  0.3065 -0.0792
 4648TIP3    H135579   3.579   2.512   0.603  0.8410  0.1987  1.4208
 4648TIP3    H235580   3.624   2.655   0.627  1.5464  0.0503  1.0331
 4649TIP3   OH235581   4.029   5.739   7.474 -0.2742 -0.2198  0.5455
 4649TIP3    H135582   4.094   5.670   7.489  0.4443  0.6985  1.8111
 4649TIP3    H235583   3.950   5.707   7.516 -0.1848 -0.6206  0.4199
 4650TIP3   OH235584   2.637   6.018   8.332  0.4423  0.7695  0.3926
 4650TIP3    H135585   2.729   6.025   8.306  0.5433 -1.3109  0.0739
 4650TIP3    H235586   2.640   6.009   8.428  0.9524 -3.0644  0.1789
 4651TIP3   OH235587   1.302   1.161   7.388 -0.3645 -0.2643 -0.0898
 4651TIP3    H135588   1.274   1.078   7.428  0.7923 -0.3938  0.4976
 4651TIP3    H235589   1.231   1.183   7.327 -1.2944 -1.0198  0.6779
 4652TIP3   OH235590   0.175   4.307   1.483  0.5228 -0.3584  0.4682
 4652TIP3    H135591   0.156   4.348   1.399  0.5442 -1.4654 -0.0852
 4652TIP3    H235592   0.143   4.217   1.474  0.4195 -0.4551  1.6808
 4653TIP3   OH235593   4.478   2.056   8.409 -0.0095 -0.5817 -0.1293
 4653TIP3    H135594   4.566   2.093   8.394 -1.0713  2.1152 -0.1971
 4653TIP3    H235595   4.429   2.080   8.331 -1.1794 -0.8606  0.5085
 4654TIP3   OH235596   1.573   6.821   7.757  0.2354  0.8644 -0.1512
 4654TIP3    H135597   1.649   6.799   7.811  0.6065  1.8666 -0.2479
 4654TIP3    H235598   1.564   6.916   7.766 -0.3066  0.9098 -1.0607
 4655TIP3   OH235599   3.413   3.992   7.925  0.1492 -0.3276 -0.0660
 4655TIP3    H135600   3.435   3.899   7.917 -0.1958 -0.3343 -1.1155
 4655TIP3    H235601   3.492   4.033   7.960  1.3440 -0.5918 -2.2812
 4656TIP3   OH235602   2.735   1.328   0.482  0.2009 -0.2670 -1.0903
 4656TIP3    H135603   2.642   1.326   0.503 -0.0007 -0.7480 -1.9428
 4656TIP3    H235604   2.773   1.389   0.545 -0.7961  0.4367 -1.1367
 4657TIP3   OH235605   3.416   4.475   7.639 -1.1269  0.4658 -0.6393
 4657TIP3    H135606   3.435   4.390   7.680 -2.7025  0.4843  0.1970
 4657TIP3    H235607   3.484   4.484   7.571  0.6332 -0.2651  0.9271
 4658TIP3   OH235608   5.023   5.830   6.416 -0.2441  0.0615 -0.8894
 4658TIP3    H135609   5.099   5.839   6.358  1.1422 -0.4281  0.7650
 4658TIP3    H235610   5.060   5.802   6.499 -2.5082 -2.7707 -0.7125
 4659TIP3   OH235611   2.464   3.124   1.689  0.1265 -0.2681  0.3277
 4659TIP3    H135612   2.373   3.094   1.687  0.2190 -0.4988 -0.3175
 4659TIP3    H235613   2.510   3.058   1.742  0.4101 -1.5174 -1.3967
 4660TIP3   OH235614   5.346   4.625   7.855  0.0297  0.0076 -0.4197
 4660TIP3    H135615   5.363   4.540   7.814  1.0619  0.3197 -0.6844
 4660TIP3    H235616   5.271   4.610   7.912 -1.6289 -0.3740 -2.5960
 4661TIP3   OH235617   1.965   0.865   7.228 -0.0573 -0.0502  0.2325
 4661TIP3    H135618   2.002   0.884   7.314 -0.2124 -0.6222  0.4285
 4661TIP3    H235619   1.871   0.869   7.240 -0.1992 -3.2023  0.8542
 4662TIP3   OH235620   4.006   0.948   0.247  0.3296 -0.8103 -0.2276
 4662TIP3    H135621   4.088   0.982   0.212  0.6795  0.8869  1.9714
 4662TIP3    H235622   3.938   0.999   0.203  0.5702 -0.8143 -0.6071
 4663TIP3   OH235623   5.749   2.087   7.602 -0.1937 -0.3537 -0.7752
 4663TIP3    H135624   5.687   2.039   7.547 -0.3258 -1.0421 -0.0519
 4663TIP3    H235625   5.705   2.169   7.622 -0.9975 -0.9390 -0.0670
 4664TIP3   OH235626   6.287   1.589   0.294  0.2969  0.5263 -0.1439
 4664TIP3    H135627   6.259   1.629   0.376  2.4497  0.0747  0.8732
 4664TIP3    H235628   6.215   1.531   0.270 -0.7537  1.3246  0.9254
 4665TIP3   OH235629   5.589   0.632   7.233  0.0159 -0.2121 -0.5411
 4665TIP3    H135630   5.572   0.621   7.327 -2.4847  0.3027 -0.8766
 4665TIP3    H235631   5.638   0.714   7.227  1.0679 -0.7518  0.3697
 4666TIP3   OH235632   5.341   1.976   0.164  0.3250 -0.2127  0.2617
 4666TIP3    H135633   5.373   2.060   0.131 -1.0596  0.6304  1.0034
 4666TIP3    H235634   5.315   1.928   0.085  0.8144  0.1778 -0.1493
 4667TIP3   OH235635   1.384   4.462   1.289  0.1539  0.5531 -0.0831
 4667TIP3    H135636   1.368   4.528   1.222  1.4034 -0.7859 -1.7913
 4667TIP3    H235637   1.312   4.400   1.279  1.1261 -0.4369 -1.2723
 4668TIP3   OH235638   6.417   0.188   2.099  0.0865 -0.1022 -0.1774
 4668TIP3    H135639   6.486   0.238   2.056 -0.1779 -0.2624 -0.7974
 4668TIP3    H235640   6.457   0.102   2.114 -0.5780 -0.8315 -2.2972
 4669TIP3   OH235641   4.446   5.256   8.223 -0.0607 -0.1232  0.1469
 4669TIP3    H135642   4.418   5.191   8.159 -1.8530  1.2215 -0.4889
 4669TIP3    H235643   4.512   5.308   8.177  1.3005 -1.3256  0.6227
 4670TIP3   OH235644   6.151   0.704   0.975  0.3560  0.0547  0.5126
 4670TIP3    H135645   6.206   0.665   0.907  1.5355  0.6711  1.0778
 4670TIP3    H235646   6.213   0.732   1.042 -0.5368  1.9702  0.5820
 4671TIP3   OH235647   2.884   5.909   8.059  0.4607  0.9069 -0.1355
 4671TIP3    H135648   2.793   5.885   8.070  0.7692 -1.1408 -1.5607
 4671TIP3    H235649   2.913   5.935   8.146 -1.4978  1.7648  0.3011
 4672TIP3   OH235650   5.282   4.342   8.567 -0.2337 -0.5550 -0.2119
 4672TIP3    H135651   5.193   4.308   8.561  0.0760 -1.2592 -0.8611
 4672TIP3    H235652   5.280   4.402   8.642 -0.3474 -3.3227  2.1535
 4673TIP3   OH235653   2.792   6.773   1.195  0.2158 -0.7063 -0.0510
 4673TIP3    H135654   2.797   6.777   1.099 -1.3008 -0.9042 -0.1581
 4673TIP3    H235655   2.857   6.707   1.220  1.3757  0.0875 -0.8420
 4674TIP3   OH235656   2.792   3.727   7.675  0.0635 -0.2681 -0.3270
 4674TIP3    H135657   2.795   3.804   7.618 -0.6339 -1.1712 -1.6359
 4674TIP3    H235658   2.840   3.660   7.627 -1.1589 -1.2646 -0.2079
 4675TIP3   OH235659   4.005   6.455   1.202 -0.0920  0.0474 -0.1415
 4675TIP3    H135660   3.925   6.415   1.238  0.4335 -0.5993  0.3298
 4675TIP3    H235661   4.050   6.491   1.278 -0.0190  0.5859 -0.4333
 4676TIP3   OH235662   2.706   6.598   6.760 -0.0727 -0.0545 -0.0254
 4676TIP3    H135663   2.777   6.661   6.754 -0.6951  0.5275 -1.9290
 4676TIP3    H235664   2.740   6.529   6.817  1.5178  0.8329  0.1576
 4677TIP3   OH235665   0.560   2.091   0.035 -0.8001  0.3888 -0.4826
 4677TIP3    H135666   0.553   2.186   0.027 -1.8251  0.4043  0.3832
 4677TIP3    H235667   0.514   2.070   0.116 -1.3669 -0.9405 -1.1184
 4678TIP3   OH235668   5.418   4.254   0.878  0.1924 -0.6734 -0.2300
 4678TIP3    H135669   5.424   4.251   0.974 -2.1512 -2.4247 -0.0769
 4678TIP3    H235670   5.359   4.327   0.860 -0.6743 -1.3709 -0.2428
 4679TIP3   OH235671   6.198   4.138   7.460 -0.7281  0.0016 -0.2829
 4679TIP3    H135672   6.226   4.142   7.369  0.8739 -0.2978  0.1486
 4679TIP3    H235673   6.116   4.090   7.459 -1.1085  0.6505 -1.6339
 4680TIP3   OH235674   6.220   5.658   6.940 -0.1065  0.6027  0.2599
 4680TIP3    H135675   6.156   5.660   6.869  1.5202  0.1931 -1.2714
 4680TIP3    H235676   6.304   5.676   6.898  0.7928  1.3572  2.2455
 4681TIP3   OH235677   2.269   1.304   0.988  0.5589 -0.8838 -0.5308
 4681TIP3    H135678   2.183   1.270   1.014  0.5953 -1.0385 -0.6103
 4681TIP3    H235679   2.328   1.229   0.998  1.1210 -0.2299  1.6951
 4682TIP3   OH235680   0.045   0.036   1.182 -0.0728  0.3613 -0.1911
 4682TIP3    H135681   0.044   0.102   1.252  0.0618  1.3703 -1.1225
 4682TIP3    H235682  -0.030   0.058   1.128 -0.9613 -1.2250  0.3406
 4683TIP3   OH235683   1.690   3.902   8.370 -0.2401  0.5715  0.1045
 4683TIP3    H135684   1.727   3.921   8.456  1.3395  0.9950 -0.6391
 4683TIP3    H235685   1.602   3.868   8.388  0.6211 -0.8250  1.9647
 4684TIP3   OH235686   4.265   3.365   7.978  0.0196 -0.5252  0.3778
 4684TIP3    H135687   4.288   3.458   7.982  1.0557 -0.7267 -0.4244
 4684TIP3    H235688   4.195   3.355   8.043 -2.8378  1.5489 -2.1244
 4685TIP3   OH235689   5.102   5.375   8.491  0.2672 -0.6033  0.3339
 4685TIP3    H135690   5.083   5.281   8.492 -1.5631 -0.3143 -1.4100
 4685TIP3    H235691   5.016   5.417   8.487  1.0605  1.1538  0.8161
 4686TIP3   OH235692   2.553   4.416   2.499 -0.3891 -0.2123  0.1063
 4686TIP3    H135693   2.588   4.388   2.415 -0.6848  1.4556 -0.6259
 4686TIP3    H235694   2.483   4.354   2.518  0.2846 -1.1527 -0.4122
 4687TIP3   OH235695   1.622   1.921   1.284  0.5357 -0.0069 -0.1885
 4687TIP3    H135696   1.709   1.904   1.320  0.5157 -0.7775 -0.4809
 4687TIP3    H235697   1.639   1.970   1.203  0.6805  0.0830 -0.1043
 4688TIP3   OH235698   1.720   1.468   6.802  0.1955 -0.3113 -0.6270
 4688TIP3    H135699   1.797   1.417   6.776  0.6554 -0.0298  0.1437
 4688TIP3    H235700   1.690   1.426   6.883  0.9250  0.9762  0.3323
 4689TIP3   OH235701   1.739   5.499   7.193  0.5546 -0.2968 -0.1079
 4689TIP3    H135702   1.778   5.522   7.109 -1.1335  1.2875 -0.5013
 4689TIP3    H235703   1.796   5.541   7.258  0.0575  1.2620 -0.6342
 4690TIP3   OH235704   4.453   3.249   0.148 -0.0089 -0.3775  0.4353
 4690TIP3    H135705   4.450   3.332   0.101  0.4110 -0.7764 -0.3097
 4690TIP3    H235706   4.541   3.216   0.134  0.1774 -0.4461  1.6345
 4691TIP3   OH235707   2.299   5.224   0.218 -0.6771 -0.4649 -0.1911
 4691TIP3    H135708   2.224   5.193   0.269 -0.5909 -2.1612 -0.9981
 4691TIP3    H235709   2.373   5.172   0.251  0.1399  1.0429  0.4622
 4692TIP3   OH235710   6.004   3.084   6.119  0.6809 -0.0990  0.4526
 4692TIP3    H135711   5.916   3.096   6.155 -1.0237 -4.0817 -1.7794
 4692TIP3    H235712   6.043   3.018   6.175  2.2425  1.3737  1.1911
 4693TIP3   OH235713   5.687   4.294   1.806 -0.2931  0.3431 -0.1963
 4693TIP3    H135714   5.665   4.270   1.896  0.7733  1.0304  0.2630
 4693TIP3    H235715   5.775   4.258   1.792 -1.2140 -1.5248 -1.6715
 4694TIP3   OH235716   1.261   2.024   7.961  0.0632  0.1088 -0.0624
 4694TIP3    H135717   1.272   1.983   7.875 -0.8422 -0.0371 -0.1224
 4694TIP3    H235718   1.258   1.950   8.022  1.7227  0.2572  0.2294
 4695TIP3   OH235719   5.703   5.578   8.172 -0.4122  0.2004 -0.2547
 4695TIP3    H135720   5.613   5.548   8.159  0.1868 -1.1700 -1.4957
 4695TIP3    H235721   5.750   5.549   8.094  1.1860  0.6135  0.5043
 4696TIP3   OH235722   4.299   0.053   8.101 -0.1349  0.0901  0.2188
 4696TIP3    H135723   4.262   0.043   8.189  1.3767  1.4275  1.0488
 4696TIP3    H235724   4.223   0.071   8.046 -1.3377 -2.4568  0.8632
 4697TIP3   OH235725   4.248   2.434   1.008 -0.0154  0.4120  0.0230
 4697TIP3    H135726   4.308   2.421   0.934 -0.5905  0.4794 -0.4626
 4697TIP3    H235727   4.257   2.354   1.060  0.8063  0.6036  0.1855
 4698TIP3   OH235728   3.472   1.976   2.062 -0.6921  0.2682  0.6370
 4698TIP3    H135729   3.500   2.067   2.074 -0.4823  0.4638 -1.0020
 4698TIP3    H235730   3.388   1.970   2.107  0.4981  0.5143  3.0293
 4699TIP3   OH235731   5.574   1.038   1.444 -0.4563  0.6583 -0.6268
 4699TIP3    H135732   5.640   1.027   1.513 -1.4368  1.7096  0.5207
 4699TIP3    H235733   5.553   0.948   1.416 -0.3076  0.1891  0.7111
 4700TIP3   OH235734   5.548   1.424   5.904 -0.0395  0.7250  0.0080
 4700TIP3    H135735   5.609   1.355   5.879 -0.4698  0.1425  0.5641
 4700TIP3    H235736   5.538   1.476   5.824  0.6795  0.4510 -0.2706
 4701TIP3   OH235737   3.180   2.682   1.087 -0.0767  0.6926 -0.4537
 4701TIP3    H135738   3.087   2.698   1.103  0.1809  1.0950  0.7275
 4701TIP3    H235739   3.225   2.738   1.150  0.9606  0.2005 -0.7443
 4702TIP3   OH235740   4.357   4.948   0.473 -0.3681  0.1035  0.2509
 4702TIP3    H135741   4.412   4.923   0.547  0.6164 -1.7295 -1.0496
 4702TIP3    H235742   4.298   4.874   0.460  0.1771 -0.0715 -1.4552
 4703TIP3   OH235743   1.514   0.063   0.403 -0.4234 -0.3598  0.4788
 4703TIP3    H135744   1.497   0.150   0.440  0.1405 -0.8169  1.8987
 4703TIP3    H235745   1.486   0.070   0.312  1.2510  1.8486  0.0351
 4704TIP3   OH235746   0.505   0.934   7.184 -0.2526 -0.7371 -0.0343
 4704TIP3    H135747   0.435   0.872   7.167 -0.0937 -0.8096 -0.4355
 4704TIP3    H235748   0.582   0.895   7.143 -0.4518  0.4033 -1.5904
 4705TIP3   OH235749   2.924   2.258   1.511 -0.2006  0.0849 -0.5174
 4705TIP3    H135750   2.907   2.345   1.546  1.6330  0.9276 -1.5934
 4705TIP3    H235751   2.890   2.198   1.578  0.8523  1.6123  1.4920
 4706TIP3   OH235752   2.988   3.188   0.264  0.4989  0.1523  0.4676
 4706TIP3    H135753   3.032   3.168   0.346  0.2666 -1.1634  0.2889
 4706TIP3    H235754   3.025   3.273   0.237  0.2786  0.7969  2.1094
 4707TIP3   OH235755   1.925   0.132   8.223  0.2466 -0.1260 -0.2953
 4707TIP3    H135756   1.905   0.118   8.316  0.5984  0.4644 -0.1207
 4707TIP3    H235757   1.924   0.044   8.185  0.1435 -0.3823  0.2792
 4708TIP3   OH235758   6.167   4.836   6.637 -0.0270  0.1112  0.6209
 4708TIP3    H135759   6.079   4.839   6.674 -0.1565 -0.8876  0.4246
 4708TIP3    H235760   6.154   4.818   6.544  0.3669  0.4482  0.4956
 4709TIP3   OH235761   1.581   0.034   7.048 -0.1680  0.3513 -0.2278
 4709TIP3    H135762   1.562  -0.019   6.971 -0.2642 -0.3006  0.2369
 4709TIP3    H235763   1.592  -0.030   7.119  1.1561  0.8551  0.0465
 4710TIP3   OH235764   3.487   6.372   0.692 -0.5348  0.2489 -0.3582
 4710TIP3    H135765   3.525   6.429   0.625 -1.7863 -1.3574 -2.5795
 4710TIP3    H235766   3.516   6.284   0.668  2.0538 -0.1910  3.4606
 4711TIP3   OH235767   4.935   3.643   7.867 -0.1238 -0.7373 -0.3641
 4711TIP3    H135768   4.942   3.547   7.863 -1.5613 -0.9975  1.7827
 4711TIP3    H235769   4.872   3.665   7.799  1.7104 -1.0265 -2.2763
 4712TIP3   OH235770   1.126   0.829   6.333 -0.3320  0.3742 -0.5682
 4712TIP3    H135771   1.174   0.837   6.250  1.0275 -0.9825  0.0251
 4712TIP3    H235772   1.195   0.818   6.398 -1.4131 -2.4219  0.2436
 4713TIP3   OH235773   2.196   4.152   1.066  0.5771  0.2275  0.5017
 4713TIP3    H135774   2.210   4.243   1.038  1.4569  0.5004  1.7502
 4713TIP3    H235775   2.284   4.118   1.082  0.3289 -1.1718 -0.8620
 4714TIP3   OH235776   2.439   0.778   7.933  0.8384  0.0810  0.0067
 4714TIP3    H135777   2.380   0.706   7.958  0.9891  0.1984  0.7166
 4714TIP3    H235778   2.458   0.822   8.016  1.6645  0.2453 -0.2722
 4715TIP3   OH235779   1.023   1.150   7.957 -0.0105  0.0599 -0.5801
 4715TIP3    H135780   0.940   1.123   7.918 -0.3228 -1.1344  0.8572
 4715TIP3    H235781   1.012   1.245   7.971 -1.2111 -0.1074 -0.2310
 4716TIP3   OH235782   0.634   4.800   8.552  0.3053  0.2433 -0.6211
 4716TIP3    H135783   0.699   4.859   8.514 -0.4532 -0.0768 -2.5217
 4716TIP3    H235784   0.574   4.857   8.599  1.3515  0.6341  0.2912
 4717TIP3   OH235785   5.172   2.704   8.420 -0.2628 -0.4689 -0.0698
 4717TIP3    H135786   5.150   2.784   8.467  2.5247  0.2760  0.1331
 4717TIP3    H235787   5.207   2.733   8.337  1.3444 -1.4036  0.2417
 4718TIP3   OH235788   3.019   1.847   8.219 -0.0715 -0.3679  0.0060
 4718TIP3    H135789   3.092   1.886   8.172 -0.2028 -0.3220 -0.1624
 4718TIP3    H235790   2.941   1.875   8.170 -0.1557 -1.0117 -0.2465
 4719TIP3   OH235791   5.273   2.164   7.022  0.3810 -0.1584  0.3770
 4719TIP3    H135792   5.276   2.109   6.944 -3.1246 -1.1136  0.7576
 4719TIP3    H235793   5.239   2.248   6.991 -0.6090 -0.4021  0.7660
 4720TIP3   OH235794   2.328   6.552   8.398 -0.2552 -0.2564  0.5487
 4720TIP3    H135795   2.322   6.610   8.474 -0.0682  0.3552  0.1087
 4720TIP3    H235796   2.305   6.608   8.324 -1.3469 -1.0821  0.2480
 4721TIP3   OH235797   4.130   0.264   7.208 -0.3778  0.6995 -0.2042
 4721TIP3    H135798   4.174   0.231   7.286 -0.2642 -1.2774 -1.0472
 4721TIP3    H235799   4.147   0.359   7.208  0.4070  0.5856  1.6359
 4722TIP3   OH235800   4.217   5.491   8.054 -0.2726 -0.1102 -0.5312
 4722TIP3    H135801   4.220   5.397   8.072 -1.1441  0.1867  1.3378
 4722TIP3    H235802   4.287   5.504   7.990 -0.3855 -2.0763 -1.1436
 4723TIP3   OH235803   0.335   3.096   7.633  0.1703 -0.6460 -0.0279
 4723TIP3    H135804   0.349   3.010   7.671  1.0547 -0.4374  0.1430
 4723TIP3    H235805   0.271   3.138   7.690  0.1900 -0.9736  0.2338
 4724TIP3   OH235806   0.730   3.663   0.992  0.6047  0.3894  0.2090
 4724TIP3    H135807   0.645   3.621   0.980 -0.4782  1.9483  1.8462
 4724TIP3    H235808   0.781   3.638   0.915 -0.8401 -1.7160 -0.1452
 4725TIP3   OH235809   1.649   2.917   1.743 -0.1362 -0.2175 -1.3510
 4725TIP3    H135810   1.567   2.878   1.713  0.2625 -1.7873 -0.5027
 4725TIP3    H235811   1.626   2.962   1.824 -0.2417 -0.3103 -1.3296
 4726TIP3   OH235812   1.548   3.006   8.551 -0.4242  0.0339 -0.4430
 4726TIP3    H135813   1.499   3.080   8.585  1.4438  0.1658  2.2474
 4726TIP3    H235814   1.636   3.040   8.536  0.2345 -1.3912 -0.0099
 4727TIP3   OH235815   0.096   0.427   8.129  0.9058  0.0689  0.1232
 4727TIP3    H135816   0.125   0.414   8.219  1.5315 -1.3017 -0.2497
 4727TIP3    H235817   0.157   0.375   8.076  1.0190  1.4461 -1.1731
 4728TIP3   OH235818   0.612   3.225   8.103  0.2447 -0.1881  0.4976
 4728TIP3    H135819   0.524   3.243   8.069  0.3273 -3.6452 -1.9656
 4728TIP3    H235820   0.668   3.288   8.057 -0.5801  0.2636  0.0776
 4729TIP3   OH235821   4.334   3.059   7.009 -0.2400 -0.1284 -0.1306
 4729TIP3    H135822   4.309   2.982   7.060  0.0376 -1.3913 -1.7873
 4729TIP3    H235823   4.253   3.087   6.967 -0.0469 -0.5615 -0.8184
 4730TIP3   OH235824   6.117   0.094   8.457  0.6258 -0.1758 -0.0431
 4730TIP3    H135825   6.070   0.057   8.532  1.0261 -0.6519 -0.0283
 4730TIP3    H235826   6.097   0.035   8.385  0.1562  0.3391 -0.3438
 4731TIP3   OH235827   2.596   0.990   7.806 -0.0925 -0.0364  0.0460
 4731TIP3    H135828   2.525   0.932   7.835 -0.0107 -1.0890 -1.7483
 4731TIP3    H235829   2.592   0.986   7.711  2.4389 -0.1694 -0.0998
 4732TIP3   OH235830   0.456   6.035   7.950  0.4269 -0.7506 -0.0459
 4732TIP3    H135831   0.508   6.110   7.921 -1.2084  0.1151 -0.8825
 4732TIP3    H235832   0.438   5.986   7.870 -1.4137 -0.1122 -0.0636
 4733TIP3   OH235833   5.670   0.613   8.237 -0.4155  0.3755 -0.0107
 4733TIP3    H135834   5.657   0.603   8.331 -1.9001  1.8289 -0.0260
 4733TIP3    H235835   5.590   0.578   8.197 -1.6683  3.4001 -0.4625
 4734TIP3   OH235836   6.447   3.295   8.021 -0.0937 -0.0442 -0.5284
 4734TIP3    H135837   6.469   3.327   7.934  0.5915 -0.7054 -0.6038
 4734TIP3    H235838   6.504   3.344   8.080 -0.6585  0.5079 -0.4260
 4735TIP3   OH235839   0.981   4.550   1.966 -0.0630 -0.0821  0.4090
 4735TIP3    H135840   0.946   4.496   2.037 -1.3562 -0.7660 -0.6879
 4735TIP3    H235841   1.012   4.630   2.010 -0.8804 -0.4526  1.7326
 4736TIP3   OH235842   1.081   5.511   1.393  0.0689 -0.6804 -0.2082
 4736TIP3    H135843   1.118   5.540   1.310  0.3067 -0.5227 -0.0482
 4736TIP3    H235844   1.112   5.574   1.457  0.9055 -1.4895  0.2056
 4737TIP3   OH235845   1.874   1.470   6.493 -0.2027 -0.7092  0.2229
 4737TIP3    H135846   1.829   1.412   6.431 -1.2413  0.8568 -0.5301
 4737TIP3    H235847   1.959   1.427   6.508 -1.6495 -3.4565  1.2603
 4738TIP3   OH235848   4.871   2.131   7.023 -0.4693  0.7277 -0.9042
 4738TIP3    H135849   4.888   2.099   6.935  0.9692  0.2000 -0.4703
 4738TIP3    H235850   4.874   2.226   7.016  0.1710  0.6765 -1.3191
 4739TIP3   OH235851   5.611   3.970   1.561  0.3528 -0.4854  0.0835
 4739TIP3    H135852   5.640   3.890   1.605  1.9568 -0.1543 -0.2790
 4739TIP3    H235853   5.556   3.940   1.489  3.8020 -1.6414 -2.3407
 4740TIP3   OH235854   0.237   3.029   0.196  0.1478  0.0586 -0.3167
 4740TIP3    H135855   0.232   3.093   0.125  1.9319 -0.8924 -1.3699
 4740TIP3    H235856   0.252   2.945   0.152  0.6522 -0.6493  1.1523
 4741TIP3   OH235857   1.831   0.885   1.211  0.1533  0.2715 -0.2826
 4741TIP3    H135858   1.843   0.851   1.123  0.5474 -0.9320  0.2225
 4741TIP3    H235859   1.919   0.905   1.242  0.0761  0.0293  0.1015
 4742TIP3   OH235860   0.411   4.926   6.954 -0.8933 -0.1805 -0.1437
 4742TIP3    H135861   0.504   4.906   6.956 -0.5508  1.1355 -1.3096
 4742TIP3    H235862   0.375   4.881   7.031  0.7853 -0.2368  0.6530
 4743TIP3   OH235863   5.266   2.458   6.259  0.6153 -0.2857  0.1759
 4743TIP3    H135864   5.330   2.523   6.231 -0.1819  0.4159 -0.0769
 4743TIP3    H235865   5.300   2.375   6.226  1.7523 -0.0379  0.6891
 4744TIP3   OH235866   0.443   3.764   7.427  0.6111 -0.5621  0.6854
 4744TIP3    H135867   0.397   3.686   7.397  0.0632  0.1792 -0.4559
 4744TIP3    H235868   0.389   3.837   7.397  2.8928  0.3943 -1.4414
 4745TIP3   OH235869   5.259   0.194   0.789 -0.7138  0.1470 -0.2039
 4745TIP3    H135870   5.307   0.113   0.773  0.1530  0.6564 -0.2233
 4745TIP3    H235871   5.233   0.188   0.881  1.1916  0.7710  0.4254
 4746TIP3   OH235872   3.455   5.131   6.741  0.5513 -0.1625  0.4863
 4746TIP3    H135873   3.420   5.127   6.830  1.5747  0.2903  0.9297
 4746TIP3    H235874   3.417   5.056   6.696  0.8114 -0.9959  1.6097
 4747TIP3   OH235875   0.641   2.307   7.293 -0.2348 -0.2943  0.1697
 4747TIP3    H135876   0.622   2.229   7.242 -0.9697 -1.3851  1.9963
 4747TIP3    H235877   0.556   2.350   7.304  0.0753  0.4777 -0.3476
 4748TIP3   OH235878   2.263   3.817   1.751 -0.5840  0.1426 -0.2634
 4748TIP3    H135879   2.256   3.797   1.845 -1.4630  0.3019 -0.2851
 4748TIP3    H235880   2.351   3.852   1.740 -0.9854  1.5545  0.7809
 4749TIP3   OH235881   1.680   2.092   0.204 -0.3080 -0.5989 -0.0395
 4749TIP3    H135882   1.740   2.119   0.273 -1.7088  2.8310  0.0362
 4749TIP3    H235883   1.603   2.059   0.250 -0.5366 -0.0213 -0.0081
 4750TIP3   OH235884   6.312   1.889   1.460  0.0701 -0.1314 -0.2317
 4750TIP3    H135885   6.384   1.904   1.521 -2.6840  0.8053  3.0759
 4750TIP3    H235886   6.295   1.795   1.465  1.4224 -0.4818 -1.5806
 4751TIP3   OH235887   3.356   5.190   6.413 -0.9519  0.4720 -0.3497
 4751TIP3    H135888   3.369   5.099   6.443  1.7950  1.2240  1.1497
 4751TIP3    H235889   3.279   5.186   6.356 -1.5970 -2.5847  0.5343
 4752TIP3   OH235890   5.473   4.011   0.535 -0.0307  0.1136  0.1083
 4752TIP3    H135891   5.568   4.009   0.531  0.0506  0.3111  1.4765
 4752TIP3    H235892   5.446   4.056   0.455  0.9827 -0.4438 -0.5674
 4753TIP3   OH235893   1.230   0.502   0.287 -0.1745  0.1310 -0.0782
 4753TIP3    H135894   1.200   0.450   0.212  1.5481  0.6314 -1.1532
 4753TIP3    H235895   1.164   0.571   0.295 -0.1783  0.3194 -1.4139
 4754TIP3   OH235896   1.935   3.903   6.496 -0.2666 -0.7965  0.0478
 4754TIP3    H135897   1.905   3.927   6.408  0.6671  0.6840  0.0973
 4754TIP3    H235898   2.020   3.861   6.482 -0.5134 -1.3456  0.1859
 4755TIP3   OH235899   2.431   5.484   8.156  0.1329  0.1654  0.2187
 4755TIP3    H135900   2.432   5.413   8.220  1.1773  1.9411  2.3336
 4755TIP3    H235901   2.517   5.481   8.115 -0.1459 -0.3151 -0.3408
 4756TIP3   OH235902   2.595   3.829   0.962 -0.1922 -0.4896  0.5990
 4756TIP3    H135903   2.540   3.780   0.901 -0.5007 -0.9774  1.2512
 4756TIP3    H235904   2.636   3.762   1.016  1.7962 -0.1914 -0.4692
 4757TIP3   OH235905   1.616   5.504   2.437  0.6328 -0.0552  0.5280
 4757TIP3    H135906   1.633   5.415   2.469  0.6017 -0.6073 -0.8767
 4757TIP3    H235907   1.543   5.493   2.376  0.5270  0.9711  0.4521
 4758TIP3   OH235908   0.047   6.627   0.326 -0.3313  0.3330  0.6243
 4758TIP3    H135909   0.135   6.652   0.356  0.0499  1.9370 -1.5676
 4758TIP3    H235910  -0.003   6.709   0.331 -1.8069 -0.6151  2.0677
 4759TIP3   OH235911   6.060   3.638   1.027 -0.5762  0.0854  0.4221
 4759TIP3    H135912   5.964   3.634   1.032 -0.5331  0.4518  1.9475
 4759TIP3    H235913   6.080   3.623   0.934 -2.2525  3.2417 -0.5647
 4760TIP3   OH235914   0.418   4.934   0.755  0.5529  0.5421  0.6183
 4760TIP3    H135915   0.326   4.924   0.731  0.7118  0.9104 -0.2007
 4760TIP3    H235916   0.466   4.923   0.673  0.9821  3.9241  0.2630
 4761TIP3   OH235917   6.594   1.620   8.620  0.0274  0.7516  0.4011
 4761TIP3    H135918   6.668   1.634   8.561 -1.2642  2.7597 -0.8885
 4761TIP3    H235919   6.580   1.705   8.661 -0.4342 -0.0758  2.0370
 4762TIP3   OH235920   6.434   5.436   8.352 -0.4956  0.5682  0.3376
 4762TIP3    H135921   6.362   5.431   8.415  1.3596  0.7741  2.5856
 4762TIP3    H235922   6.397   5.399   8.272 -2.6427 -0.7592  1.8196
 4763TIP3   OH235923   2.126   0.393   8.387 -0.3308  0.2954 -0.3835
 4763TIP3    H135924   2.114   0.474   8.339 -1.8231  0.6107  0.4692
 4763TIP3    H235925   2.041   0.374   8.426 -0.0881 -1.7922 -0.7043
 4764TIP3   OH235926   2.497   5.783   2.477 -0.1649  0.0717 -0.3747
 4764TIP3    H135927   2.502   5.742   2.391 -0.0091 -1.0244  0.1298
 4764TIP3    H235928   2.572   5.747   2.525 -0.3201  0.5620  0.2538
 4765TIP3   OH235929   5.468   0.107   5.788  0.1464  0.0662  0.5038
 4765TIP3    H135930   5.556   0.073   5.773 -0.0366 -0.4831  0.6668
 4765TIP3    H235931   5.478   0.202   5.783  1.1124  0.1108  2.5191
 4766TIP3   OH235932   5.502   6.698   6.047 -0.4489  0.0121  0.4181
 4766TIP3    H135933   5.539   6.655   6.124 -2.9392  1.0657  2.3380
 4766TIP3    H235934   5.576   6.747   6.010  0.9282 -0.8454  1.8793
 4767TIP3   OH235935   0.057   6.325   0.281  0.1533 -0.0884 -0.3836
 4767TIP3    H135936   0.135   6.291   0.236 -0.2076  0.0072 -1.0875
 4767TIP3    H235937   0.074   6.418   0.291  0.5190 -0.2224  0.2667
 4768TIP3   OH235938   5.746   1.552   6.147  0.1299 -0.5951  0.3709
 4768TIP3    H135939   5.835   1.552   6.112 -0.1601 -2.0565 -0.4246
 4768TIP3    H235940   5.690   1.534   6.072 -0.6078 -2.4762  1.3245
 4769TIP3   OH235941   4.426   0.763   7.701 -0.8362  0.3451  0.1380
 4769TIP3    H135942   4.343   0.807   7.685 -1.7597 -0.4712  2.3137
 4769TIP3    H235943   4.439   0.769   7.796  0.2415 -1.8475  0.2003
 4770TIP3   OH235944   4.745   3.473   8.323  0.3219 -0.1658 -0.2474
 4770TIP3    H135945   4.816   3.437   8.376 -0.4625 -1.0397  0.2240
 4770TIP3    H235946   4.787   3.495   8.239  1.3862  0.4608  0.4279
 4771TIP3   OH235947   5.223   0.037   8.224  0.0253  0.3950  0.0067
 4771TIP3    H135948   5.277   0.084   8.161 -1.7573  1.4197 -0.8565
 4771TIP3    H235949   5.271   0.041   8.306  1.8254  0.1189 -0.9847
 4772TIP3   OH235950   4.126   4.428   7.503  0.5539  0.7017  0.2741
 4772TIP3    H135951   4.162   4.514   7.525 -0.0831  0.8054  0.9628
 4772TIP3    H235952   4.201   4.378   7.471  0.4379  2.5578 -3.5674
 4773TIP3   OH235953   2.980   1.792   0.874 -0.1681 -0.3130  0.0889
 4773TIP3    H135954   2.898   1.804   0.922  0.2316  1.5472  0.3801
 4773TIP3    H235955   2.984   1.867   0.815 -0.2520 -2.1248 -2.3552
 4774TIP3   OH235956   6.406   0.923   0.892 -0.2746 -0.3827 -0.4183
 4774TIP3    H135957   6.387   0.984   0.963 -1.7866 -0.3005 -0.8539
 4774TIP3    H235958   6.497   0.940   0.868  0.6072 -1.0862  2.1309
 4775TIP3   OH235959   4.576   5.015   6.676  0.0860 -0.6546 -0.0240
 4775TIP3    H135960   4.636   4.941   6.688  0.0838 -0.9832 -1.6794
 4775TIP3    H235961   4.571   5.026   6.581 -2.2399 -0.4594  0.0523
 4776TIP3   OH235962   6.867   6.536   6.514  0.2847 -0.1481  0.4053
 4776TIP3    H135963   6.840   6.456   6.560 -0.2870  1.3607  2.8967
 4776TIP3    H235964   6.833   6.525   6.425  1.3213 -3.1763  0.2537
 4777TIP3   OH235965   6.406   2.992   6.724  0.2354 -0.3583 -0.5008
 4777TIP3    H135966   6.326   3.011   6.675  0.8345  0.7311 -1.1182
 4777TIP3    H235967   6.474   3.042   6.678  1.2195 -1.0436  0.1689
 4778TIP3   OH235968   4.858   5.927   6.616  0.2815 -0.1590  0.0573
 4778TIP3    H135969   4.917   5.998   6.642  1.2161 -1.2085  0.9241
 4778TIP3    H235970   4.907   5.879   6.549 -0.0667 -0.3686 -0.0459
 4779TIP3   OH235971   5.845   0.087   6.263 -0.2635  0.3591 -0.1057
 4779TIP3    H135972   5.860   0.177   6.291 -0.2601 -0.0534  1.3199
 4779TIP3    H235973   5.932   0.051   6.249 -0.2836  0.8649 -1.7701
 4780TIP3   OH235974   1.822   3.367   7.221 -0.2165 -0.9026  0.1658
 4780TIP3    H135975   1.818   3.273   7.200  1.4720 -0.9193 -0.2207
 4780TIP3    H235976   1.894   3.374   7.283 -0.2904  0.1505  0.1407
 4781TIP3   OH235977   4.751   2.755   7.229 -0.1271 -0.2631 -0.0479
 4781TIP3    H135978   4.804   2.835   7.224  0.1589 -0.5091 -1.2717
 4781TIP3    H235979   4.754   2.719   7.140 -0.8480 -1.2551  0.3166
 4782TIP3   OH235980   5.558   6.178   6.325 -0.5208 -0.0434  0.2593
 4782TIP3    H135981   5.474   6.136   6.341 -1.1706  0.9220 -0.5013
 4782TIP3    H235982   5.570   6.172   6.230 -0.2707  0.8114  0.2313
 4783TIP3   OH235983   2.517   4.920   0.129 -0.4812  0.3896 -0.0169
 4783TIP3    H135984   2.474   4.993   0.174 -0.9559  0.2663 -0.2725
 4783TIP3    H235985   2.511   4.847   0.190 -1.6027  0.0750 -0.4949
 4784TIP3   OH235986   0.801   0.906   6.411  0.4141 -1.0218 -0.0473
 4784TIP3    H135987   0.821   0.935   6.500 -0.0184 -1.4121  0.1849
 4784TIP3    H235988   0.724   0.957   6.386  0.7674 -0.6350 -0.3450
 4785TIP3   OH235989   0.081   4.359   1.248 -0.1537 -0.1753 -0.5177
 4785TIP3    H135990   0.121   4.406   1.175 -2.6695  0.0052 -1.8823
 4785TIP3    H235991   0.048   4.428   1.306 -0.0640 -0.3029 -0.3138
 4786TIP3   OH235992   3.642   3.886   6.069  0.4522 -0.4222  0.0249
 4786TIP3    H135993   3.696   3.962   6.090 -0.2508  0.0546  0.1055
 4786TIP3    H235994   3.705   3.819   6.042  1.0212  0.4354 -0.8303
 4787TIP3   OH235995   5.007   0.148   0.063  0.4279 -0.1107 -0.1838
 4787TIP3    H135996   5.077   0.206   0.092 -0.5890  1.4410 -0.7240
 4787TIP3    H235997   4.967   0.193  -0.011  0.1516 -1.9338 -1.1977
 4788TIP3   OH235998   6.335   3.162   6.976 -0.1422  0.0559  0.3755
 4788TIP3    H135999   6.373   3.075   6.991 -0.3456  0.0380  0.8079
 4788TIP3    H236000   6.263   3.146   6.915  0.3867  0.0559 -0.2649
 4789TIP3   OH236001   4.412   0.189   2.047 -0.2336  1.1577 -0.4029
 4789TIP3    H136002   4.358   0.197   2.126 -1.3663  2.0463 -1.2303
 4789TIP3    H236003   4.440   0.098   2.046 -1.2670  0.8174  0.3349
 4790TIP3   OH236004   2.810   2.567   6.717  0.8375  0.8974 -0.0214
 4790TIP3    H136005   2.856   2.552   6.634  0.7548  1.2748 -0.1380
 4790TIP3    H236006   2.719   2.583   6.691  0.0601 -2.2602  0.3468
 4791TIP3   OH236007   6.480   5.685   6.839  0.0407  0.2789  0.6652
 4791TIP3    H136008   6.550   5.651   6.783 -0.7807 -0.4309  0.0232
 4791TIP3    H236009   6.453   5.766   6.796 -2.0085 -1.2929 -1.2795
 4792TIP3   OH236010   5.779   0.273   8.627 -0.0520 -0.0844 -0.1125
 4792TIP3    H136011   5.772   0.251   8.720  0.4157  0.3779  0.0346
 4792TIP3    H236012   5.689   0.288   8.599 -0.1066  1.0714  0.5974
 4793TIP3   OH236013   4.227   3.535   6.547 -0.7542  0.4938 -0.0737
 4793TIP3    H136014   4.178   3.616   6.532  0.0125  1.0612  0.4038
 4793TIP3    H236015   4.186   3.471   6.489  0.5319  1.9693 -2.7609
 4794TIP3   OH236016   0.718   2.696   1.228 -0.1340  0.1298 -0.2393
 4794TIP3    H136017   0.626   2.672   1.240 -0.0037 -0.6743 -0.8222
 4794TIP3    H236018   0.737   2.752   1.304 -1.0046  0.0312  0.0704
 4795TIP3   OH236019   1.439   0.596   1.408 -0.2977 -0.3091 -0.3422
 4795TIP3    H136020   1.535   0.597   1.398 -0.0936  1.9474  1.1047
 4795TIP3    H236021   1.406   0.621   1.322  0.3886 -1.2619 -0.9010
 4796TIP3   OH236022   5.327   0.551   1.085 -0.2048 -0.2569 -0.0789
 4796TIP3    H136023   5.255   0.519   1.029  1.8734  0.6889 -3.6256
 4796TIP3    H236024   5.387   0.477   1.091 -1.1241 -0.8836  2.4608
 4797TIP3   OH236025   6.658   4.235   6.619 -0.2357 -0.4690 -0.0858
 4797TIP3    H136026   6.622   4.150   6.645 -0.5141 -0.8239 -1.5263
 4797TIP3    H236027   6.735   4.214   6.566  0.6036  0.2295  0.8234
 4798TIP3   OH236028   5.360   6.384   8.456  0.0340  0.1952 -0.2305
 4798TIP3    H136029   5.301   6.459   8.455 -1.5240 -0.9855 -0.6358
 4798TIP3    H236030   5.335   6.332   8.380  0.2631 -1.3308  0.6799
 4799TIP3   OH236031   4.040   2.868   8.636 -0.1018  0.2443 -0.1456
 4799TIP3    H136032   4.006   2.813   8.707  0.1220  0.3820  0.0677
 4799TIP3    H236033   3.973   2.935   8.624  0.9994  1.8129  1.7284
 4800TIP3   OH236034   2.269   0.830   8.321  0.5560 -0.3467  0.0199
 4800TIP3    H136035   2.204   0.829   8.250  2.3566 -1.2974 -1.7074
 4800TIP3    H236036   2.218   0.814   8.400 -1.7204  1.8987 -0.8285
 4801TIP3   OH236037   4.220   5.620   7.201 -0.2548  0.4431  0.4750
 4801TIP3    H136038   4.139   5.602   7.249 -0.4339  1.7561  0.6953
 4801TIP3    H236039   4.216   5.563   7.124 -0.3370 -1.1302  1.5940
 4802TIP3   OH236040   4.509   6.742   6.059  0.8941 -0.1927 -0.8368
 4802TIP3    H136041   4.414   6.739   6.075  0.6447  0.8292 -1.9075
 4802TIP3    H236042   4.542   6.660   6.095 -0.3835 -0.5245 -0.3412
 4803TIP3   OH236043   3.902   3.491   0.303 -0.4240 -0.3352  0.6504
 4803TIP3    H136044   3.813   3.493   0.269 -1.1095 -1.3822  2.2772
 4803TIP3    H236045   3.892   3.473   0.397  1.4919 -0.4845  0.8694
 4804TIP3   OH236046   5.072   6.769   6.031  0.1271 -0.0703  0.7280
 4804TIP3    H136047   5.007   6.705   6.000 -0.2061  0.3406  0.5715
 4804TIP3    H236048   5.132   6.780   5.958 -0.3999  0.5575  0.3758
 4805TIP3   OH236049   3.587   0.350   0.392 -1.4895 -0.2336 -0.1478
 4805TIP3    H136050   3.653   0.324   0.456  0.3404  2.9796 -0.5473
 4805TIP3    H236051   3.511   0.376   0.445 -0.5332  0.9657  0.6877
 4806TIP3   OH236052   5.953   2.400   8.082 -0.2101 -0.1762  0.7764
 4806TIP3    H136053   5.859   2.395   8.099 -0.5845  1.1956 -0.6552
 4806TIP3    H236054   5.961   2.383   7.988  0.8834  0.5223  0.7335
 4807TIP3   OH236055   4.206   2.173   1.599  0.1917 -0.2130 -0.1085
 4807TIP3    H136056   4.218   2.260   1.636 -1.3480  0.4048 -0.9266
 4807TIP3    H236057   4.275   2.120   1.638  0.8162  1.2317  0.8474
 4808TIP3   OH236058   1.918   2.323   1.686  0.3121 -0.1649  0.6078
 4808TIP3    H136059   1.871   2.268   1.748 -1.8897 -0.1930 -0.9880
 4808TIP3    H236060   1.961   2.389   1.740 -1.3817 -0.2885  2.1733
 4809TIP3   OH236061   4.212   6.752   0.352 -0.5091 -0.0193  0.1599
 4809TIP3    H136062   4.149   6.774   0.421  0.1851 -1.4482  1.3191
 4809TIP3    H236063   4.293   6.796   0.379 -0.0801 -1.0410  0.6046
 4810TIP3   OH236064   1.900   4.204   1.184 -0.5067  0.1448 -0.1181
 4810TIP3    H136065   1.882   4.292   1.216 -0.2698 -0.0277  0.4932
 4810TIP3    H236066   1.827   4.185   1.124 -1.3052  0.2107  0.8195
 4811TIP3   OH236067   1.175   3.503   1.428  0.2680  0.1171  0.0528
 4811TIP3    H136068   1.190   3.414   1.462 -1.9557 -0.7017 -0.9287
 4811TIP3    H236069   1.161   3.556   1.506 -0.0147 -0.7574  0.6196
 4812TIP3   OH236070   3.353   5.129   8.206 -0.1525  0.2830  0.0282
 4812TIP3    H136071   3.447   5.131   8.221  0.2761  2.6304 -2.2252
 4812TIP3    H236072   3.320   5.061   8.265  2.8218 -0.0994  1.4104
 4813TIP3   OH236073   4.693   1.223   6.913  0.0513 -0.0434 -0.5349
 4813TIP3    H136074   4.629   1.153   6.897 -1.4470  1.7045 -2.8125
 4813TIP3    H236075   4.747   1.224   6.834  2.3889 -0.8240  0.9405
 4814TIP3   OH236076   3.182   1.161   7.289 -1.1912  0.1677  0.5463
 4814TIP3    H136077   3.251   1.212   7.245 -0.2529 -0.3005  1.4323
 4814TIP3    H236078   3.125   1.227   7.328 -0.0943  0.5755  1.5188
 4815TIP3   OH236079   6.171   6.604   1.469  0.3712 -0.2948 -0.3472
 4815TIP3    H136080   6.103   6.603   1.401 -0.7386 -0.2832  0.7144
 4815TIP3    H236081   6.198   6.513   1.477 -1.6563 -0.8563  1.2021
 4816TIP3   OH236082   0.334   4.610   6.920 -0.1333 -0.6977  0.1426
 4816TIP3    H136083   0.427   4.630   6.931  0.1886  0.4374 -3.3694
 4816TIP3    H236084   0.329   4.568   6.834 -3.1073  2.0310 -1.2257
 4817TIP3   OH236085   1.212   2.807   1.185  0.6763 -0.2691  0.0811
 4817TIP3    H136086   1.269   2.793   1.261  1.5452 -0.5380 -0.6015
 4817TIP3    H236087   1.209   2.722   1.142 -1.6812 -0.7353  1.0295
 4818TIP3   OH236088   5.983   5.989   6.858  0.2221  0.1497 -0.1774
 4818TIP3    H136089   5.930   5.975   6.936  2.7787 -0.7487  1.4971
 4818TIP3    H236090   5.950   5.924   6.795 -0.3938 -0.6438  0.9342
 4819TIP3   OH236091   5.395   0.639   0.514 -0.0662 -0.1942  0.6525
 4819TIP3    H136092   5.378   0.690   0.434 -0.1089 -0.9318  0.1793
 4819TIP3    H236093   5.340   0.680   0.581 -0.2039  0.2961  0.2481
 4820TIP3   OH236094   6.652   1.995   5.888 -0.3918  0.0607 -0.2447
 4820TIP3    H136095   6.678   1.964   5.801  1.6395 -2.1112  1.0054
 4820TIP3    H236096   6.581   1.936   5.914  0.3844 -0.6506  0.3269
 4821TIP3   OH236097   3.172   4.816   7.975 -0.6275 -0.4027  0.1388
 4821TIP3    H136098   3.078   4.799   7.969 -0.5276 -0.6996 -0.8773
 4821TIP3    H236099   3.204   4.805   7.885  0.4137 -0.5067  0.5016
 4822TIP3   OH236100   3.710   0.460   1.648  0.2925 -0.0708  0.2970
 4822TIP3    H136101   3.770   0.508   1.591  0.6928 -0.8672  0.0331
 4822TIP3    H236102   3.766   0.415   1.710 -0.1154  0.3419  0.9808
 4823TIP3   OH236103   4.756   2.669   6.966 -0.1085 -0.3483 -0.4911
 4823TIP3    H136104   4.788   2.632   6.884 -1.7012  0.5891 -1.5920
 4823TIP3    H236105   4.663   2.647   6.968  0.2187 -1.9230  1.9954
 4824TIP3   OH236106   2.933   4.589   6.825  0.2904 -0.3830 -0.3532
 4824TIP3    H136107   2.923   4.667   6.880  1.3783 -1.5877  1.6675
 4824TIP3    H236108   2.858   4.534   6.847  0.7067 -0.8533 -0.0838
 4825TIP3   OH236109   0.585   3.212   8.392  0.1291 -0.5455  0.3495
 4825TIP3    H136110   0.557   3.221   8.301  0.5093  1.8159  0.3962
 4825TIP3    H236111   0.566   3.297   8.431  2.1525 -0.6966  1.8263
 4826TIP3   OH236112   3.259   2.688   8.209  0.2629 -0.0465 -0.1319
 4826TIP3    H136113   3.325   2.620   8.193 -0.7271 -1.0477 -0.0791
 4826TIP3    H236114   3.299   2.768   8.176  1.1268 -0.8043 -0.9942
 4827TIP3   OH236115   5.609   1.810   5.926  0.4881 -0.5296 -0.0414
 4827TIP3    H136116   5.550   1.756   5.874  0.8224  1.5681 -2.8609
 4827TIP3    H236117   5.696   1.779   5.903  0.6903  1.1417 -1.8065
 4828TIP3   OH236118   5.850   0.289   2.083  0.3809  0.2135 -0.2337
 4828TIP3    H136119   5.944   0.290   2.069  0.5435  1.9408  0.7407
 4828TIP3    H236120   5.818   0.216   2.029  2.2686 -0.4913 -0.4553
 4829TIP3   OH236121   3.509   3.377   7.084 -0.6166  0.6836  0.3621
 4829TIP3    H136122   3.497   3.323   7.163  1.0735  0.8714  0.7781
 4829TIP3    H236123   3.571   3.328   7.030  0.2399  1.7574  0.3339
 4830TIP3   OH236124   4.154   6.229   1.528  0.1663 -0.0718 -0.0206
 4830TIP3    H136125   4.190   6.317   1.531  0.6188 -0.2124 -0.8648
 4830TIP3    H236126   4.217   6.175   1.575  0.2410 -0.0529 -0.0982
 4831TIP3   OH236127   6.735   3.866   1.072 -0.3892  0.1285 -0.2894
 4831TIP3    H136128   6.715   3.913   1.153 -0.7704  1.9556 -1.3871
 4831TIP3    H236129   6.818   3.821   1.090 -1.4276 -1.1387  1.7283
 4832TIP3   OH236130   1.452   1.935   7.046  0.3755 -0.4911  0.5116
 4832TIP3    H136131   1.465   2.023   7.080 -3.7203  0.5789 -0.0912
 4832TIP3    H236132   1.459   1.945   6.951  0.5982 -0.9644  0.4764
 4833TIP3   OH236133   0.314   5.468   6.457  0.3091 -0.2083  0.2344
 4833TIP3    H136134   0.407   5.484   6.446  0.5786 -1.2474  0.8671
 4833TIP3    H236135   0.272   5.523   6.391  1.2263  1.7820  1.2133
 4834TIP3   OH236136   0.274   5.902   6.117  0.5073  0.1884 -0.3489
 4834TIP3    H136137   0.257   5.965   6.187  2.0275 -0.1459  0.3420
 4834TIP3    H236138   0.243   5.818   6.152  1.1706  0.0399 -0.1181
 4835TIP3   OH236139   6.679   1.510   0.841 -0.1387  0.0379  0.6134
 4835TIP3    H136140   6.592   1.473   0.828 -0.2795  0.3836  0.5416
 4835TIP3    H236141   6.667   1.604   0.826  0.1849  0.1269  0.8942
 4836TIP3   OH236142   2.054   5.174   1.137 -0.4815  0.3379 -0.1873
 4836TIP3    H136143   2.085   5.093   1.096 -2.8548 -1.0718  0.5893
 4836TIP3    H236144   2.132   5.229   1.144  1.3419 -2.0811 -0.2593
 4837TIP3   OH236145   2.172   1.450   0.256 -0.4607 -0.0887  0.0947
 4837TIP3    H136146   2.217   1.372   0.226  1.7111  1.0760  0.1541
 4837TIP3    H236147   2.105   1.418   0.317  1.0729 -1.8299  0.9327
 4838TIP3   OH236148   1.567   3.103   0.333 -0.4454  0.1445 -0.1534
 4838TIP3    H136149   1.541   3.169   0.269 -2.0710  1.1725  1.4545
 4838TIP3    H236150   1.503   3.113   0.404  2.0740  0.0425  2.2843
 4839TIP3   OH236151   6.603   2.456   1.657  0.0183  0.4718 -0.1620
 4839TIP3    H136152   6.567   2.452   1.569  0.4915 -0.7212 -0.3096
 4839TIP3    H236153   6.695   2.479   1.644  0.1981 -0.1542 -0.0100
 4840TIP3   OH236154   5.024   4.599   2.463 -0.6199 -0.8031  0.0157
 4840TIP3    H136155   4.975   4.623   2.385  0.0673 -0.2507 -0.2568
 4840TIP3    H236156   5.009   4.505   2.474 -0.1223 -1.0399 -1.2110
 4841TIP3   OH236157   5.388   1.403   0.324  0.1589  0.3039  0.8931
 4841TIP3    H136158   5.405   1.322   0.277 -1.7256  0.0227  0.6009
 4841TIP3    H236159   5.417   1.472   0.265  0.3476 -0.1221  0.4837
 4842TIP3   OH236160   5.399   3.040   6.988 -0.1987 -0.3450  0.4791
 4842TIP3    H136161   5.350   2.967   6.949  2.2459 -1.5179 -0.6013
 4842TIP3    H236162   5.385   3.031   7.082 -0.5275 -1.7973  0.3130
 4843TIP3   OH236163   2.091   3.680   6.084 -0.2156 -0.7402 -0.2730
 4843TIP3    H136164   2.131   3.767   6.090  0.7967 -1.2796  1.7102
 4843TIP3    H236165   2.025   3.689   6.015 -0.3184  1.6576  0.0385
 4844TIP3   OH236166   4.077   0.551   0.778  0.4701 -0.4580 -0.4773
 4844TIP3    H136167   4.073   0.525   0.686 -0.6086  2.7816 -1.5080
 4844TIP3    H236168   4.064   0.646   0.776 -1.1748 -0.4461  3.1408
 4845TIP3   OH236169   6.478   4.341   6.317 -0.4574 -0.0314 -0.1170
 4845TIP3    H136170   6.570   4.312   6.319 -0.6579 -0.6478  1.4633
 4845TIP3    H236171   6.481   4.426   6.274  0.7519 -0.3597 -0.7521
 4846TIP3   OH236172   6.238   4.089   0.805 -0.7197  0.2921 -0.0623
 4846TIP3    H136173   6.228   4.010   0.751 -1.4303  0.2730  0.0848
 4846TIP3    H236174   6.265   4.157   0.743  0.7655 -0.2516 -0.0501
 4847TIP3   OH236175   2.509   1.107   2.358 -0.0750  0.4150 -0.2967
 4847TIP3    H136176   2.605   1.100   2.361 -0.2116 -2.8696 -0.4048
 4847TIP3    H236177   2.487   1.092   2.266 -0.7674 -0.6737  0.0343
 4848TIP3   OH236178   0.054   4.546   2.004 -0.2313 -0.6943 -0.3280
 4848TIP3    H136179   0.090   4.598   2.076 -0.2914 -1.5245  0.3280
 4848TIP3    H236180  -0.026   4.592   1.979 -1.1437 -1.2747  1.3152
 4849TIP3   OH236181   6.620   4.551   7.786 -0.5807 -0.0776  0.1297
 4849TIP3    H136182   6.694   4.596   7.746 -0.7610  0.4285  0.3474
 4849TIP3    H236183   6.608   4.472   7.734 -0.3053  0.1693 -0.3116
 4850TIP3   OH236184   2.244   5.333   1.759 -0.2699 -0.1564 -0.2134
 4850TIP3    H136185   2.238   5.354   1.852  1.9188 -1.6757  0.3692
 4850TIP3    H236186   2.339   5.329   1.742 -0.5733 -2.5258 -1.8361
 4851TIP3   OH236187   4.293   6.819   6.778  0.0696  0.2780  0.7245
 4851TIP3    H136188   4.230   6.779   6.839 -1.6624  0.7779 -0.6313
 4851TIP3    H236189   4.287   6.764   6.699 -0.3136  1.5720 -0.1878
 4852TIP3   OH236190   6.706   3.713   0.189  0.0588  0.0002  0.1168
 4852TIP3    H136191   6.684   3.690   0.099 -2.8642  1.1175  0.4262
 4852TIP3    H236192   6.792   3.673   0.204  0.1669 -1.1023 -2.7863
 4853TIP3   OH236193   2.088   2.300   0.986 -0.1005 -0.2686 -0.5645
 4853TIP3    H136194   2.052   2.380   1.025  0.2269 -1.0409  1.4344
 4853TIP3    H236195   2.026   2.278   0.916 -1.1868  0.7388  0.0326
 4854TIP3   OH236196   5.517   5.408   7.816 -0.1717 -0.4523 -0.4403
 4854TIP3    H136197   5.558   5.335   7.770 -2.5413 -0.8239 -2.2134
 4854TIP3    H236198   5.455   5.366   7.876 -1.4477  0.0254 -1.3707
 4855TIP3   OH236199   4.659   6.292   0.533 -0.3024  0.4170  0.4219
 4855TIP3    H136200   4.670   6.318   0.625 -1.0502  0.2707  0.5649
 4855TIP3    H236201   4.625   6.370   0.490  0.8124  0.7254  0.0939
 4856TIP3   OH236202   3.750   1.499   7.138 -0.2626  0.1345  0.0877
 4856TIP3    H136203   3.774   1.586   7.171  0.9252  0.0955 -0.5954
 4856TIP3    H236204   3.672   1.475   7.188  0.2486  0.9603  1.3391
 4857TIP3   OH236205   1.754   3.195   0.520 -0.0187 -0.6207  0.1135
 4857TIP3    H136206   1.768   3.150   0.604 -0.3002  0.2427  0.6305
 4857TIP3    H236207   1.699   3.135   0.470  0.2443 -1.1958  0.4920
 4858TIP3   OH236208   5.605   4.712   6.989  0.0537  0.2607 -0.3421
 4858TIP3    H136209   5.561   4.640   6.944  0.9447 -0.0036 -0.7999
 4858TIP3    H236210   5.680   4.672   7.032  0.4603  0.8905 -0.4588
 4859TIP3   OH236211   1.428   2.788   6.899 -0.6548 -0.1858  0.2632
 4859TIP3    H136212   1.386   2.743   6.825 -0.6777 -0.6887  0.5746
 4859TIP3    H236213   1.471   2.718   6.948 -1.0799  0.0661  1.0141
 4860TIP3   OH236214   0.292   5.763   0.086  0.0147 -0.5017  0.4532
 4860TIP3    H136215   0.316   5.855   0.098  1.7698 -1.1665  2.9486
 4860TIP3    H236216   0.374   5.721   0.061 -0.7002 -1.4407 -0.3302
 4861TIP3   OH236217   0.751   6.043   6.059 -0.1060  0.2991  0.2295
 4861TIP3    H136218   0.770   6.107   5.990 -1.5177  0.7623  0.2219
 4861TIP3    H236219   0.656   6.031   6.054 -0.1037 -0.3690  1.4825
 4862TIP3   OH236220   6.068   2.324   6.516  0.3453  0.2618 -0.1677
 4862TIP3    H136221   6.000   2.383   6.483 -1.7496 -2.1113 -0.4687
 4862TIP3    H236222   6.097   2.276   6.438 -0.2879 -1.2368  0.4929
 4863TIP3   OH236223   0.155   2.430   6.827  0.0890 -0.1748  0.1261
 4863TIP3    H136224   0.130   2.520   6.847 -2.0679 -0.8293  0.6179
 4863TIP3    H236225   0.096   2.403   6.757  1.5883 -0.8119 -0.9315
 4864TIP3   OH236226   1.440   1.358   1.831  0.0277 -0.1029 -0.7937
 4864TIP3    H136227   1.526   1.400   1.843 -0.3737 -0.0819  3.5005
 4864TIP3    H236228   1.458   1.264   1.837 -0.2797 -0.0746  0.8219
 4865TIP3   OH236229   6.762   5.688   0.677  0.0478  0.2681 -1.0131
 4865TIP3    H136230   6.829   5.726   0.735 -0.0138 -0.7932 -0.2132
 4865TIP3    H236231   6.793   5.599   0.660 -1.3767 -0.4144 -0.2369
 4866TIP3   OH236232   1.655   5.112   7.435 -0.3274 -0.4877 -0.1842
 4866TIP3    H136233   1.564   5.090   7.457 -0.7238  0.7445 -0.5102
 4866TIP3    H236234   1.678   5.182   7.496  0.7599 -1.4466  0.5497
 4867TIP3   OH236235   5.792   1.863   0.654 -0.3156  0.0337  0.9999
 4867TIP3    H136236   5.841   1.842   0.574 -1.8578  1.0060 -0.2715
 4867TIP3    H236237   5.788   1.780   0.702  0.8106 -0.5304  0.1779
 4868TIP3   OH236238   0.338   0.097   2.272 -0.1024  0.0107  0.3025
 4868TIP3    H136239   0.407   0.096   2.338 -0.5540  0.2540  0.7902
 4868TIP3    H236240   0.381   0.068   2.191  0.3629 -0.6931  0.7900
 4869TIP3   OH236241   2.252   5.845   7.796 -0.0024  0.7191  0.0676
 4869TIP3    H136242   2.280   5.883   7.879  0.9073 -0.6170  0.4007
 4869TIP3    H236243   2.266   5.751   7.806  0.0524  0.5195 -1.5682
 4870TIP3   OH236244   1.595   0.892   0.387 -0.7455 -0.2798 -0.1441
 4870TIP3    H136245   1.524   0.829   0.400  1.2948 -2.4482  1.4775
 4870TIP3    H236246   1.578   0.960   0.453 -1.4496 -0.6291  0.0514
 4871TIP3   OH236247   3.560   0.074   7.527 -0.8383  0.2263 -0.0613
 4871TIP3    H136248   3.497   0.093   7.457 -1.9645  1.7103  1.2900
 4871TIP3    H236249   3.609   0.155   7.538 -0.6386 -0.0029  0.8287
 4872TIP3   OH236250   4.902   0.609   0.768  0.1968 -0.4420 -0.0524
 4872TIP3    H136251   4.898   0.521   0.731 -1.0492 -0.9086  1.0648
 4872TIP3    H236252   4.901   0.668   0.693 -0.7808 -1.3701 -0.7893
 4873TIP3   OH236253   6.815   0.257   7.338 -0.3532  0.0943  0.2249
 4873TIP3    H136254   6.907   0.277   7.351 -0.2931 -0.7789  1.2412
 4873TIP3    H236255   6.783   0.328   7.283  1.1471 -0.1389 -0.9985
 4874TIP3   OH236256   3.689   5.304   7.099  0.3246 -0.2156  0.2152
 4874TIP3    H136257   3.599   5.328   7.078 -0.0993 -0.3129  1.7762
 4874TIP3    H236258   3.729   5.284   7.015 -0.6472  1.3685 -0.6613
 4875TIP3   OH236259   4.806   2.440   7.609  0.1444  0.2072  0.0128
 4875TIP3    H136260   4.772   2.517   7.565  1.5874  0.5138 -0.6377
 4875TIP3    H236261   4.795   2.369   7.545 -0.1502  0.1088  0.1728
 4876TIP3   OH236262   2.800   0.509   0.775 -0.3516 -0.4662 -0.0594
 4876TIP3    H136263   2.790   0.538   0.684 -2.8337  0.4776  0.4320
 4876TIP3    H236264   2.728   0.552   0.822  1.9037  0.5371  2.7632
 4877TIP3   OH236265   5.635   3.486   8.500 -0.0828 -0.3568  0.0105
 4877TIP3    H136266   5.681   3.431   8.437  1.2783  1.5229 -0.7350
 4877TIP3    H236267   5.643   3.575   8.465  0.8406  0.8037  2.8187
 4878TIP3   OH236268   5.508   5.233   1.177  0.0821  0.5151 -0.1614
 4878TIP3    H136269   5.487   5.280   1.097 -2.0125 -0.7307 -0.3999
 4878TIP3    H236270   5.471   5.145   1.165  1.3660 -0.3105  1.4181
 4879TIP3   OH236271   5.692   3.213   1.506  0.0084 -0.2614  0.1090
 4879TIP3    H136272   5.723   3.146   1.446 -1.9748 -1.2133  0.0900
 4879TIP3    H236273   5.750   3.206   1.582 -0.1279 -1.9899  0.0895
 4880TIP3   OH236274   4.853   4.676   1.198 -0.1532  0.1982 -0.4016
 4880TIP3    H136275   4.941   4.667   1.234 -0.0324  0.3071 -0.6625
 4880TIP3    H236276   4.838   4.771   1.199 -0.9515  0.0933  1.2477
 4881TIP3   OH236277   5.978   6.038   8.281 -0.1261  0.0468 -0.3585
 4881TIP3    H136278   6.068   6.038   8.248  1.2618 -3.9893  2.6091
 4881TIP3    H236279   5.981   6.090   8.361  0.2808 -1.8283  0.9245
 4882TIP3   OH236280   5.840   5.173   7.899 -0.1732 -0.1127  0.1395
 4882TIP3    H136281   5.838   5.111   7.972  2.1005 -0.9784 -0.4383
 4882TIP3    H236282   5.931   5.172   7.869 -0.4257  2.3134 -0.9487
 4883TIP3   OH236283   5.827   4.224   7.926  0.2452  0.4585  0.6728
 4883TIP3    H136284   5.893   4.277   7.882  0.3849 -1.0338 -1.0214
 4883TIP3    H236285   5.749   4.279   7.927  0.8520  1.3476  0.5826
 4884TIP3   OH236286   2.194   0.502   1.979  0.4307  0.5233 -0.0271
 4884TIP3    H136287   2.176   0.574   2.039 -0.8349 -0.6599  1.0863
 4884TIP3    H236288   2.182   0.423   2.032 -1.0413 -0.5857 -1.8916
 4885TIP3   OH236289   0.444   1.021   8.260 -0.1790 -0.6400  0.3917
 4885TIP3    H136290   0.488   0.936   8.256  0.2717 -0.3877 -0.2566
 4885TIP3    H236291   0.372   1.008   8.321 -0.3352 -1.5895  0.0235
 4886TIP3   OH236292   1.976   3.632   2.275 -0.7446  0.1438  0.8694
 4886TIP3    H136293   2.015   3.675   2.351  0.6418 -0.6915  0.6616
 4886TIP3    H236294   2.049   3.619   2.214 -1.5289 -0.6249  0.0621
 4887TIP3   OH236295   2.229   1.344   8.486 -0.1873  0.1913 -0.1231
 4887TIP3    H136296   2.320   1.351   8.455 -0.1604  0.6922  0.0594
 4887TIP3    H236297   2.232   1.273   8.550 -0.0171 -0.0984 -0.4468
 4888TIP3   OH236298   6.372   0.934   7.577  0.0773  0.3661 -0.5769
 4888TIP3    H136299   6.325   1.017   7.583 -4.0339 -1.7255 -0.4417
 4888TIP3    H236300   6.375   0.915   7.483 -0.6718 -0.1590 -0.5006
 4889TIP3   OH236301   4.286   6.120   6.571 -0.5700  0.6023 -0.1976
 4889TIP3    H136302   4.366   6.134   6.521 -0.4343  1.1807  0.1668
 4889TIP3    H236303   4.312   6.133   6.662 -0.9067 -0.0066 -0.0053
 4890TIP3   OH236304   2.750   0.988   0.482  0.8162 -0.5349  0.4247
 4890TIP3    H136305   2.718   1.029   0.562  1.2873 -0.6408  0.6739
 4890TIP3    H236306   2.811   1.052   0.446  0.9920 -0.7043  0.4219
 4891TIP3   OH236307   3.450   5.927   8.436 -0.4056 -0.6042 -0.6197
 4891TIP3    H136308   3.405   6.005   8.405 -0.1292  0.1834  0.8842
 4891TIP3    H236309   3.536   5.931   8.395 -0.3390 -0.0361 -0.4291
 4892TIP3   OH236310   3.372   2.156   7.174  0.2833 -0.2063 -0.3036
 4892TIP3    H136311   3.399   2.110   7.254 -0.3063  0.0282  0.0305
 4892TIP3    H236312   3.408   2.102   7.103 -1.7335 -2.1239  0.0093
 4893TIP3   OH236313   1.782   3.559   0.859 -0.0122  0.0524  0.2984
 4893TIP3    H136314   1.859   3.601   0.897 -0.0760 -0.7220  1.3196
 4893TIP3    H236315   1.752   3.620   0.792 -0.1089  1.6256  1.7302
 4894TIP3   OH236316   0.493   4.285   6.875 -0.3533 -0.1588 -0.1691
 4894TIP3    H136317   0.551   4.210   6.861 -0.7459 -0.2389 -1.5447
 4894TIP3    H236318   0.431   4.282   6.802  0.0705  1.9151 -0.6836
 4895TIP3   OH236319   0.768   5.214   7.610 -0.0390  0.1547 -0.1669
 4895TIP3    H136320   0.844   5.272   7.606 -0.2579  0.3997 -1.0300
 4895TIP3    H236321   0.697   5.270   7.643 -0.5469  0.7428 -2.1327
 4896TIP3   OH236322   1.352   2.171   8.361 -0.0593 -0.0889  0.4029
 4896TIP3    H136323   1.288   2.190   8.429  0.3892 -0.6343  0.9868
 4896TIP3    H236324   1.323   2.087   8.324  0.0508 -0.1047  0.3512
 4897TIP3   OH236325   4.562   0.340   6.407  0.1078 -0.1560 -0.6802
 4897TIP3    H136326   4.571   0.246   6.394  0.7747 -0.1511 -0.3363
 4897TIP3    H236327   4.646   0.367   6.444  0.1402  0.6730 -1.3156
 4898TIP3   OH236328   2.792   1.588   1.152  0.1588 -0.4011  0.2501
 4898TIP3    H136329   2.807   1.649   1.224 -0.5263  0.6318 -0.4597
 4898TIP3    H236330   2.757   1.642   1.081  0.0112 -1.5356 -0.5701
 4899TIP3   OH236331   0.399   4.280   8.058 -0.2204  0.2685 -0.1227
 4899TIP3    H136332   0.304   4.277   8.042 -0.3224  1.4958  0.1123
 4899TIP3    H236333   0.430   4.349   7.999  0.1384  1.5059  1.4426
 4900TIP3   OH236334   1.895   3.224   2.125  0.5531 -0.4955  0.9426
 4900TIP3    H136335   1.875   3.131   2.134  0.3785 -0.3797  1.8134
 4900TIP3    H236336   1.816   3.269   2.154 -0.5734 -0.0427 -2.4079
 4901TIP3   OH236337   4.218   3.225   8.344 -0.3507  0.1300 -0.2097
 4901TIP3    H136338   4.295   3.282   8.346  0.0337 -0.3906  0.0385
 4901TIP3    H236339   4.190   3.219   8.435 -0.8914  0.5884 -0.3430
 4902TIP3   OH236340   0.144   1.889   7.985  0.0182  0.2382 -0.2839
 4902TIP3    H136341   0.096   1.852   8.060  0.3237  0.6278  0.1084
 4902TIP3    H236342   0.175   1.812   7.937  0.7044 -0.0293  0.5566
 4903TIP3   OH236343   1.059   2.543   0.080  0.0542  0.2574 -0.9345
 4903TIP3    H136344   1.071   2.621   0.026 -1.4250 -0.1867 -1.9841
 4903TIP3    H236345   1.088   2.470   0.025  0.3105 -0.0349 -0.4172
 4904TIP3   OH236346   0.591   1.442   8.389 -0.3048 -0.7264 -0.0864
 4904TIP3    H136347   0.498   1.420   8.382 -0.6527  0.2649  1.0374
 4904TIP3    H236348   0.593   1.521   8.443  1.2631 -1.3961  0.9140
 4905TIP3   OH236349   5.826   3.584   1.335  0.1048 -0.7172  0.0346
 4905TIP3    H136350   5.920   3.567   1.338  0.1978 -0.1413  0.7015
 4905TIP3    H236351   5.808   3.602   1.243  0.9638  0.8173  0.1210
 4906TIP3   OH236352   6.296   4.444   2.200  0.0844 -0.5680 -0.5308
 4906TIP3    H136353   6.265   4.534   2.185 -1.0909 -1.1267 -1.7127
 4906TIP3    H236354   6.325   4.444   2.291  2.6918  1.7018 -1.2183
 4907TIP3   OH236355   1.301   5.852   1.492  0.0944 -0.0625  0.9240
 4907TIP3    H136356   1.344   5.815   1.415 -1.0695  0.6199 -0.0841
 4907TIP3    H236357   1.356   5.825   1.566  1.3072 -0.6157 -0.1509
 4908TIP3   OH236358   6.085   5.227   6.020  0.4890 -0.6165  0.0383
 4908TIP3    H136359   6.083   5.206   5.927  1.9280 -0.1685 -0.1036
 4908TIP3    H236360   6.048   5.149   6.063  0.0015 -0.9014 -0.8768
 4909TIP3   OH236361   6.286   0.204   8.196  0.0126 -0.1191  0.4160
 4909TIP3    H136362   6.293   0.281   8.141  0.7386  0.1722  0.8976
 4909TIP3    H236363   6.321   0.231   8.281  0.9136 -1.1539  0.4023
 4910TIP3   OH236364   6.264   6.759   8.287  0.1203  0.1487 -0.8218
 4910TIP3    H136365   6.351   6.788   8.260  0.3063  0.9079  0.5047
 4910TIP3    H236366   6.277   6.669   8.316  1.1583  1.1361  2.1830
 4911TIP3   OH236367   1.102   1.723   0.707 -0.2830  0.1345 -0.6886
 4911TIP3    H136368   1.039   1.692   0.772 -2.5296  3.2152 -1.1594
 4911TIP3    H236369   1.182   1.675   0.726 -2.0231 -2.1009  1.6443
 4912TIP3   OH236370   0.760   1.732   7.996  0.6227  0.6656  0.3799
 4912TIP3    H136371   0.749   1.827   7.991 -0.0608  0.5301 -3.2022
 4912TIP3    H236372   0.677   1.696   7.966  1.0913 -1.0881  1.0436
 4913TIP3   OH236373   1.419   1.022   1.254 -0.5995 -0.3935 -0.2394
 4913TIP3    H136374   1.468   1.041   1.174 -1.6337 -1.9872 -1.3123
 4913TIP3    H236375   1.484   1.026   1.324  0.9205 -1.6697 -1.5031
 4914TIP3   OH236376   1.743   3.604   7.082 -0.2393 -0.1762 -0.4271
 4914TIP3    H136377   1.747   3.519   7.127 -0.6687  0.2214  0.3880
 4914TIP3    H236378   1.680   3.655   7.133 -0.4596  0.4240 -1.2789
 4915TIP3   OH236379   0.645   6.038   0.966 -0.1950  0.3269  0.0126
 4915TIP3    H136380   0.605   6.108   0.914 -1.4867 -0.6553 -0.3798
 4915TIP3    H236381   0.589   6.031   1.044 -0.1349 -0.3216  0.0033
 4916TIP3   OH236382   4.778   2.872   6.687 -0.3267 -0.0652 -0.3097
 4916TIP3    H136383   4.713   2.819   6.641  1.0340 -2.6187  0.5125
 4916TIP3    H236384   4.754   2.864   6.779  0.5320 -0.1613 -0.0880
 4917TIP3   OH236385   5.477   1.055   6.382  0.6541 -0.1419 -0.3983
 4917TIP3    H136386   5.542   1.014   6.324  0.4427 -1.9400  0.5434
 4917TIP3    H236387   5.415   0.984   6.400 -0.0646  0.7856  0.8718
 4918TIP3   OH236388   2.302   4.959   6.798 -0.2987  0.0718 -0.1564
 4918TIP3    H136389   2.383   4.919   6.831  0.5639  0.3560 -1.8280
 4918TIP3    H236390   2.242   4.885   6.786  1.5975 -1.0864 -4.1394
 4919TIP3   OH236391   4.409   2.351   0.070  0.4496 -0.1579 -0.6606
 4919TIP3    H136392   4.496   2.369   0.106 -0.0433  0.6931  0.1571
 4919TIP3    H236393   4.404   2.255   0.067  1.2353 -0.2221 -0.2657
 4920TIP3   OH236394   5.176   1.785   6.945 -0.0586  0.3931 -0.8706
 4920TIP3    H136395   5.203   1.756   7.032 -1.0081  1.9662 -0.0060
 4920TIP3    H236396   5.234   1.858   6.925 -0.0229  0.2096 -1.4403
 4921TIP3   OH236397   4.402   6.868   8.579 -0.2896  0.1245  0.1747
 4921TIP3    H136398   4.408   6.884   8.673  1.5373  2.8643 -0.2890
 4921TIP3    H236399   4.348   6.941   8.546  2.2635  1.5057 -1.2664
 4922TIP3   OH236400   4.141   5.724   8.154  0.7313  0.3103 -0.6239
 4922TIP3    H136401   4.167   5.702   8.243  0.2193  1.5801 -0.1435
 4922TIP3    H236402   4.154   5.643   8.105  0.1184 -0.6960  0.7995
 4923TIP3   OH236403   4.510   0.495   0.446  0.4186  0.3725 -0.1686
 4923TIP3    H136404   4.583   0.550   0.476 -1.3482  1.6361  2.1157
 4923TIP3    H236405   4.437   0.556   0.436 -0.7408 -1.0761 -0.9114
 4924TIP3   OH236406   2.434   0.478   0.541  0.1597 -0.4505  0.2621
 4924TIP3    H136407   2.394   0.409   0.487 -0.8900  0.5235 -0.2507
 4924TIP3    H236408   2.361   0.536   0.563  1.0771  0.6551  0.4557
 4925TIP3   OH236409   6.559   5.280   1.368 -0.1576  0.5515  0.1571
 4925TIP3    H136410   6.616   5.356   1.365  0.7415 -0.1365 -0.7617
 4925TIP3    H236411   6.513   5.280   1.284 -0.2605  0.1657  0.2089
 4926TIP3   OH236412   0.144   1.174   6.773 -0.1972 -0.0030 -0.0014
 4926TIP3    H136413   0.142   1.247   6.834  0.2364 -1.3249  1.6843
 4926TIP3    H236414   0.052   1.153   6.757 -0.3261 -0.0101  0.7032
 4927TIP3   OH236415   5.400   2.533   7.014  0.4254 -0.5972 -0.2000
 4927TIP3    H136416   5.399   2.520   7.109  0.6838 -1.6800 -0.3287
 4927TIP3    H236417   5.326   2.481   6.982  0.9847 -1.1114 -0.6809
 4928TIP3   OH236418   4.837   4.832   7.700  0.0064  0.5621  0.1506
 4928TIP3    H136419   4.761   4.835   7.758  0.3469  0.6708  0.5981
 4928TIP3    H236420   4.804   4.861   7.615 -0.3869  0.8911  0.4124
 4929TIP3   OH236421   2.701   6.031   1.880 -0.1104 -0.3017  0.0835
 4929TIP3    H136422   2.766   6.059   1.815 -1.3943  0.0683 -1.1158
 4929TIP3    H236423   2.639   6.104   1.884 -0.4269 -0.6176  1.2302
 4930TIP3   OH236424   1.155   3.028   8.573  0.5830 -0.2688  0.1933
 4930TIP3    H136425   1.074   3.079   8.577  0.5053 -0.2036 -1.3402
 4930TIP3    H236426   1.164   3.006   8.480  1.1319 -2.2320  0.6683
 4931TIP3   OH236427   4.448   1.830   8.133 -0.4295  0.5532  0.1999
 4931TIP3    H136428   4.472   1.878   8.053 -0.5057  0.3807  0.0733
 4931TIP3    H236429   4.526   1.836   8.188  0.0637 -0.3355 -0.3735
 4932TIP3   OH236430   2.272   0.105   1.630 -0.3698  0.1924 -0.0201
 4932TIP3    H136431   2.254   0.092   1.723  0.2433  0.7268  0.1891
 4932TIP3    H236432   2.233   0.190   1.610  0.1713  0.4371 -0.0517
 4933TIP3   OH236433   4.270   5.101   0.248 -0.2204  0.9895  0.0397
 4933TIP3    H136434   4.325   5.046   0.193 -0.1548  0.0460  1.0261
 4933TIP3    H236435   4.282   5.067   0.337 -2.5668  0.5566  0.2645
 4934TIP3   OH236436   1.806   5.270   8.044  0.4928  0.1214  0.2836
 4934TIP3    H136437   1.824   5.362   8.060 -0.6189  0.7069 -1.5142
 4934TIP3    H236438   1.856   5.248   7.965  0.8044 -0.8348  0.7338
 4935TIP3   OH236439   2.338   3.480   7.728 -0.0650  0.0816  0.2269
 4935TIP3    H136440   2.303   3.444   7.647 -1.9505  0.6386  0.7622
 4935TIP3    H236441   2.382   3.561   7.701  0.4071 -0.3608 -0.3788
 4936TIP3   OH236442   6.439   5.993   0.882  0.5352 -0.1782  0.2153
 4936TIP3    H136443   6.367   5.960   0.936  0.2682 -0.1646 -0.1260
 4936TIP3    H236444   6.518   5.974   0.932  0.1869  1.5260  1.5140
 4937TIP3   OH236445   4.175   4.885   1.823 -0.4814  0.1512 -0.3515
 4937TIP3    H136446   4.248   4.823   1.814 -1.7477 -1.2826 -1.2617
 4937TIP3    H236447   4.176   4.910   1.915  1.8579  1.1103 -0.5743
 4938TIP3   OH236448   5.486   0.741   5.896 -0.0639 -0.7135  0.3970
 4938TIP3    H136449   5.422   0.735   5.967 -0.3425  1.4371  0.3714
 4938TIP3    H236450   5.433   0.760   5.818  0.5369  0.5183  0.2760
 4939TIP3   OH236451   3.458   4.451   1.136 -0.5268  0.3334 -0.4843
 4939TIP3    H136452   3.547   4.470   1.108 -0.8741 -1.6845 -3.4038
 4939TIP3    H236453   3.403   4.509   1.085 -0.9711  0.5687  0.2419
 4940TIP3   OH236454   3.333   0.742   5.991 -0.3834  0.9316 -0.0614
 4940TIP3    H136455   3.416   0.748   5.943 -0.3924 -1.3522 -0.4665
 4940TIP3    H236456   3.276   0.690   5.934 -0.6676 -1.1625  1.9888
 4941TIP3   OH236457   6.030   0.309   0.948  0.3947 -0.1101  0.2156
 4941TIP3    H136458   6.115   0.287   0.911  0.6311  0.0053  0.6762
 4941TIP3    H236459   5.981   0.348   0.875  0.1012 -1.7606 -0.5019
 4942TIP3   OH236460   0.143   0.420   8.426  0.2865  0.3523  0.3864
 4942TIP3    H136461   0.053   0.394   8.449  0.3134 -0.4505 -0.3688
 4942TIP3    H236462   0.198   0.368   8.483  0.2857  0.4300  0.4579
 4943TIP3   OH236463   4.602   1.251   8.261  0.4375  0.0242 -0.1825
 4943TIP3    H136464   4.580   1.338   8.294 -0.7893 -0.3334  0.0072
 4943TIP3    H236465   4.697   1.244   8.273  0.6462  1.5500 -0.7563
 4944TIP3   OH236466   1.974   2.349   0.079  0.1722 -0.0513 -0.1645
 4944TIP3    H136467   1.994   2.424   0.136  0.7357  0.5337 -1.0998
 4944TIP3    H236468   1.882   2.361   0.056  0.2179  0.2795 -0.1881
 4945TIP3   OH236469   3.881   0.783   1.225 -0.4931 -0.4332  0.3633
 4945TIP3    H136470   3.880   0.760   1.132 -1.2898 -1.0077  0.5068
 4945TIP3    H236471   3.881   0.879   1.225  1.2485 -0.3837 -0.2244
 4946TIP3   OH236472   5.154   5.021   8.496 -0.2270  0.0458 -0.7510
 4946TIP3    H136473   5.063   5.030   8.468 -0.4483  1.1302  0.2580
 4946TIP3    H236474   5.163   5.082   8.569  1.3422  0.0244 -0.8975
 4947TIP3   OH236475   2.082   2.607   1.327  0.7214 -0.5005  0.0539
 4947TIP3    H136476   2.015   2.663   1.368 -0.3086 -2.0520  0.5792
 4947TIP3    H236477   2.139   2.669   1.280 -0.7515  0.9291  0.0384
 4948TIP3   OH236478   1.178   6.843   0.738 -0.9096 -0.2286  0.0908
 4948TIP3    H136479   1.104   6.792   0.703 -1.3947  1.3190 -1.2810
 4948TIP3    H236480   1.195   6.909   0.670 -0.9016  2.0011  2.1359
 4949TIP3   OH236481   4.498   0.974   7.256  0.2104  0.2373 -0.4792
 4949TIP3    H136482   4.490   1.049   7.197  2.2088  1.9335  1.2349
 4949TIP3    H236483   4.453   1.000   7.336 -1.2940 -1.4818 -0.6947
 4950TIP3   OH236484   2.021   1.372   6.825  0.5195  0.1613 -0.3719
 4950TIP3    H136485   2.047   1.368   6.733 -3.4202 -1.7854 -1.6307
 4950TIP3    H236486   2.100   1.349   6.873  2.8942  1.7705 -3.1248
 4951TIP3   OH236487   0.791   1.560   6.567 -0.5064 -0.1464 -0.2105
 4951TIP3    H136488   0.771   1.470   6.542  1.7581 -0.1298 -2.4991
 4951TIP3    H236489   0.878   1.556   6.607 -0.4680  0.9959 -0.1411
 4952TIP3   OH236490   5.269   6.358   7.378  0.5414  0.2732  0.4927
 4952TIP3    H136491   5.236   6.445   7.355 -3.0935 -1.3388 -1.2742
 4952TIP3    H236492   5.331   6.374   7.449  1.1571  4.3729 -0.6738
 4953TIP3   OH236493   0.777   4.095   7.459 -0.1178 -0.1302 -0.2685
 4953TIP3    H136494   0.831   4.021   7.433  0.0788  0.1068 -0.5328
 4953TIP3    H236495   0.688   4.059   7.465 -0.2870 -0.0369 -1.9455
 4954TIP3   OH236496   2.103   3.266   6.472 -0.0137  0.1170  0.1674
 4954TIP3    H136497   2.033   3.239   6.531 -2.5055  1.2853 -2.0573
 4954TIP3    H236498   2.128   3.186   6.425 -1.3712  0.0538 -0.4778
 4955TIP3   OH236499   0.892   4.955   6.980  0.2032  0.1517 -0.2425
 4955TIP3    H136500   0.985   4.964   6.958 -0.0754  0.8840 -1.2206
 4955TIP3    H236501   0.858   4.892   6.917  0.0961 -0.3873  0.3424
 4956TIP3   OH236502   1.461   1.306   7.763 -0.2280 -0.0762 -0.0635
 4956TIP3    H136503   1.411   1.227   7.783 -0.2657 -0.2924 -0.9705
 4956TIP3    H236504   1.553   1.281   7.777 -0.1519 -0.6338 -1.4172
 4957TIP3   OH236505   3.325   0.339   6.643  0.1653 -0.6860 -0.3514
 4957TIP3    H136506   3.273   0.261   6.623  0.3645 -0.3851 -2.2202
 4957TIP3    H236507   3.394   0.339   6.577  1.8296 -0.3834  1.2956
 4958TIP3   OH236508   4.734   6.427   8.270  0.0556  0.1087  0.1859
 4958TIP3    H136509   4.672   6.449   8.339 -0.0863 -2.4003  0.9537
 4958TIP3    H236510   4.694   6.459   8.190 -1.4247  0.0519  0.8749
 4959TIP3   OH236511   1.010   4.859   6.521 -0.2246  0.0817 -0.1954
 4959TIP3    H136512   1.101   4.879   6.499  0.0570  1.5824  2.0152
 4959TIP3    H236513   1.007   4.763   6.522  0.3351 -0.0971 -3.7790
 4960TIP3   OH236514   4.418   4.271   0.547 -0.5905 -0.1553  0.1754
 4960TIP3    H136515   4.396   4.185   0.583  0.0817  0.0344  1.0729
 4960TIP3    H236516   4.489   4.253   0.485  0.6745 -0.0951  1.5379
 4961TIP3   OH236517   6.014   2.087   7.534  0.5418 -0.3859  0.3001
 4961TIP3    H136518   5.922   2.077   7.559  0.2414  0.2814 -0.5050
 4961TIP3    H236519   6.021   2.044   7.449  0.9432 -0.2982  0.2852
 4962TIP3   OH236520   5.753   3.124   6.262 -0.1525  0.0661 -0.6085
 4962TIP3    H136521   5.818   3.192   6.280  0.8758 -1.0126 -0.0084
 4962TIP3    H236522   5.675   3.171   6.233  1.3687  1.3717 -2.8974
 4963TIP3   OH236523   0.563   3.032   8.614 -0.5552  0.1771  0.1148
 4963TIP3    H136524   0.513   3.069   8.687  2.2983  2.3798  1.1915
 4963TIP3    H236525   0.568   3.103   8.550 -0.4523 -0.6793 -0.8599
 4964TIP3   OH236526   3.770   6.167   6.919  0.3497 -0.5430 -0.1800
 4964TIP3    H136527   3.822   6.248   6.916  2.6485 -1.8771  0.6609
 4964TIP3    H236528   3.791   6.129   7.004 -0.9234 -1.8925 -0.4320
 4965TIP3   OH236529   6.421   5.304   2.065  0.9783 -0.2508  0.1404
 4965TIP3    H136530   6.361   5.250   2.014  1.4553 -0.6484 -0.0109
 4965TIP3    H236531   6.496   5.316   2.008  1.4975 -0.6520  0.7176
 4966TIP3   OH236532   3.943   2.385   6.705 -0.4622  0.7838 -0.0320
 4966TIP3    H136533   3.861   2.415   6.665 -0.3385  0.8794 -0.2116
 4966TIP3    H236534   4.012   2.428   6.655 -0.3106  1.0626  0.4111
 4967TIP3   OH236535   1.881   4.744   7.834  0.1684  0.3775  0.8404
 4967TIP3    H136536   1.813   4.808   7.813 -0.3773  0.2150  2.0483
 4967TIP3    H236537   1.853   4.664   7.790 -0.1138  0.4764  0.8396
 4968TIP3   OH236538   1.393   1.062   8.371 -0.1539 -0.1586 -0.4145
 4968TIP3    H136539   1.362   1.153   8.367  1.4226  0.3770 -2.0364
 4968TIP3    H236540   1.435   1.055   8.456  0.4319  0.9124 -0.5924
 4969TIP3   OH236541   4.153   4.124   8.247 -0.0849  0.1705  0.4013
 4969TIP3    H136542   4.208   4.201   8.232 -0.0557  0.0912  0.0813
 4969TIP3    H236543   4.115   4.138   8.333 -1.3312  1.3408 -0.2809
 4970TIP3   OH236544   5.080   6.837   1.067  0.0402  0.1767  0.3203
 4970TIP3    H136545   5.157   6.790   1.099  2.6094  2.7169 -1.6348
 4970TIP3    H236546   5.047   6.884   1.144 -0.5475 -2.0556  1.5072
 4971TIP3   OH236547   0.899   4.780   0.946 -0.2134 -0.1294 -0.0095
 4971TIP3    H136548   0.848   4.842   0.998 -1.9820 -0.1597 -1.5953
 4971TIP3    H236549   0.975   4.760   1.000 -0.2145  2.4495  1.0732
 4972TIP3   OH236550   3.197   2.528   0.286 -0.8291 -0.7825 -0.2797
 4972TIP3    H136551   3.191   2.618   0.320  1.7359 -1.4480  2.3491
 4972TIP3    H236552   3.137   2.478   0.341 -0.0018 -1.1268  0.3368
 4973TIP3   OH236553   4.385   3.622   1.923  0.4663  0.0795  0.0957
 4973TIP3    H136554   4.465   3.643   1.970  0.3656  0.4258  0.1086
 4973TIP3    H236555   4.323   3.597   1.991  0.5972 -0.3051  0.0771
 4974TIP3   OH236556   0.418   6.321   1.129 -0.0782  0.2530  0.0242
 4974TIP3    H136557   0.344   6.382   1.120  0.5562  1.2568  1.3468
 4974TIP3    H236558   0.483   6.369   1.180  0.3162 -1.6502  1.4067
 4975TIP3   OH236559   6.515   0.805   6.567 -0.4802 -0.0818 -0.0320
 4975TIP3    H136560   6.491   0.885   6.520  0.5497 -0.4074 -1.1753
 4975TIP3    H236561   6.600   0.826   6.607 -1.8382  0.5767  2.7246
 4976TIP3   OH236562   3.622   1.762   2.072 -0.2487 -0.3357  0.5992
 4976TIP3    H136563   3.578   1.847   2.073  0.9236  0.3132  2.6762
 4976TIP3    H236564   3.607   1.726   2.159 -0.9841 -2.4497 -0.3395
 4977TIP3   OH236565   0.669   3.546   7.570  0.4548 -0.0365  0.5863
 4977TIP3    H136566   0.704   3.536   7.481 -1.5657  0.6751 -0.3468
 4977TIP3    H236567   0.737   3.594   7.617  1.9181 -1.1263 -0.3098
 4978TIP3   OH236568   0.251   5.201   0.321  0.3518  0.1167 -0.0975
 4978TIP3    H136569   0.157   5.213   0.309  0.1366 -1.8890 -0.7189
 4978TIP3    H236570   0.286   5.290   0.328 -1.2979  1.0004 -2.1614
 4979TIP3   OH236571   5.044   5.840   8.248  0.4238  0.1659  0.1100
 4979TIP3    H136572   4.972   5.897   8.275  0.2747 -0.1832  0.4538
 4979TIP3    H236573   5.121   5.898   8.244 -0.0803  0.7913 -1.3405
 4980TIP3   OH236574   2.160   6.152   7.846  0.6149 -0.0894 -0.0286
 4980TIP3    H136575   2.102   6.092   7.893 -0.0334 -0.4694 -1.2717
 4980TIP3    H236576   2.201   6.205   7.915 -0.4866 -0.4579  0.9380
 4981TIP3   OH236577   6.281   2.335   0.123  0.1134  0.4701  0.1015
 4981TIP3    H136578   6.304   2.425   0.146  0.9780  0.5167 -0.8992
 4981TIP3    H236579   6.216   2.310   0.189  2.0807  0.7760  2.3002
 4982TIP3   OH236580   2.400   3.957   1.095 -0.1490  0.2986 -0.1253
 4982TIP3    H136581   2.476   3.934   1.042 -0.1817 -1.8306  0.6263
 4982TIP3    H236582   2.358   3.873   1.114 -1.0040  1.1216  1.9481
 4983TIP3   OH236583   5.436   2.495   8.335  0.2780  0.5701 -0.5025
 4983TIP3    H136584   5.401   2.583   8.325  0.1036  0.6253  0.4670
 4983TIP3    H236585   5.485   2.479   8.254 -0.1057  1.3550 -0.9019
 4984TIP3   OH236586   6.123   1.382   5.646 -0.2458 -0.0875  0.4811
 4984TIP3    H136587   6.076   1.455   5.685 -0.4919 -0.6922  1.3489
 4984TIP3    H236588   6.115   1.311   5.709 -1.5028 -1.4248 -1.0835
 4985TIP3   OH236589   3.270   3.182   8.524 -0.1200  0.8802 -0.1589
 4985TIP3    H136590   3.200   3.245   8.504 -0.2009  0.7465 -0.2980
 4985TIP3    H236591   3.275   3.182   8.620  0.4236  1.6859 -0.1777
 4986TIP3   OH236592   2.781   1.543   6.875 -0.0513 -0.6751  0.7882
 4986TIP3    H136593   2.742   1.593   6.947  1.9422 -0.3027  1.6577
 4986TIP3    H236594   2.874   1.561   6.881  0.4766 -2.8165 -0.2203
 4987TIP3   OH236595   0.956   5.002   2.505 -0.0980 -0.4183 -0.2185
 4987TIP3    H136596   0.902   4.951   2.444 -1.4225  0.3076  0.3194
 4987TIP3    H236597   0.894   5.055   2.554  1.1410  0.6587  0.2344
 4988TIP3   OH236598   4.165   6.444   7.246 -0.4468 -0.0263  0.0672
 4988TIP3    H136599   4.129   6.532   7.257  0.4354  0.1422  2.1536
 4988TIP3    H236600   4.191   6.440   7.154 -0.7204  1.7960 -0.1377
 4989TIP3   OH236601   0.258   0.101   7.566 -0.0718 -0.3783  0.1730
 4989TIP3    H136602   0.183   0.042   7.571  0.5489 -1.0617  2.5068
 4989TIP3    H236603   0.280   0.104   7.473 -2.8817 -0.2447 -0.5874
 4990TIP3   OH236604   1.443   1.977   6.758  0.3151 -0.1157 -0.2124
 4990TIP3    H136605   1.394   1.912   6.707 -0.9460  0.4758  0.1963
 4990TIP3    H236606   1.523   1.991   6.708  0.0943 -1.1430 -0.8947
 4991TIP3   OH236607   0.258   6.195   8.087  0.2898  0.1231 -0.0889
 4991TIP3    H136608   0.311   6.275   8.089 -1.0579  1.1382 -1.9455
 4991TIP3    H236609   0.298   6.142   8.018  0.0728  0.0322 -0.1455
 4992TIP3   OH236610   5.192   5.627   0.842 -0.0827  0.2744 -0.0626
 4992TIP3    H136611   5.263   5.687   0.821 -1.5883  2.0005 -0.5245
 4992TIP3    H236612   5.114   5.683   0.845 -1.1706 -1.2284  2.2166
 4993TIP3   OH236613   4.548   1.523   8.364 -0.1929  0.0648  0.9033
 4993TIP3    H136614   4.540   1.552   8.455 -0.3559  2.2686  0.2341
 4993TIP3    H236615   4.632   1.557   8.335  0.1877 -1.2454  0.4093
 4994TIP3   OH236616   1.432   4.587   7.047 -0.0939 -0.4912  0.4593
 4994TIP3    H136617   1.358   4.591   6.986 -0.6473  1.5433  1.1810
 4994TIP3    H236618   1.500   4.640   7.005  0.4338 -1.1418  0.4814
 4995TIP3   OH236619   5.455   0.106   0.036 -0.0263 -0.1389  0.0951
 4995TIP3    H136620   5.424   0.125   0.124 -2.1295  1.3134 -0.8695
 4995TIP3    H236621   5.476   0.192  -0.002  0.9654 -0.7383 -0.8019
 4996TIP3   OH236622   0.474   6.557   0.393 -0.3948  0.1103  0.0453
 4996TIP3    H136623   0.446   6.570   0.303 -0.3174  0.0281  0.0094
 4996TIP3    H236624   0.474   6.462   0.405  0.1580  0.0929 -0.0482
 4997TIP3   OH236625   0.458   3.253   0.142  0.4311 -0.1485  0.6138
 4997TIP3    H136626   0.429   3.320   0.203  2.2957  0.7264  0.5953
 4997TIP3    H236627   0.490   3.182   0.198  0.3768 -0.1578  0.6335
 4998TIP3   OH236628   4.005   0.273   1.563 -0.0697  0.0143  0.3921
 4998TIP3    H136629   3.953   0.272   1.644  0.2497  1.2056  0.6343
 4998TIP3    H236630   4.093   0.299   1.592 -0.1811  1.4370 -0.4419
 4999TIP3   OH236631   5.029   5.132   0.266 -0.1555 -0.4635  0.2954
 4999TIP3    H136632   4.954   5.165   0.314 -0.9390 -1.1759 -0.4136
 4999TIP3    H236633   5.102   5.186   0.296 -1.2384  1.3796 -0.2398
 5000TIP3   OH236634   4.098   2.411   8.643  0.0301 -0.4142 -0.3710
 5000TIP3    H136635   4.154   2.434   8.716 -2.4782  2.4229  0.8394
 5000TIP3    H236636   4.104   2.485   8.583 -3.2134  0.6283  0.3983
 5001TIP3   OH236637   6.530   1.018   8.674  0.0793 -0.1993 -0.1584
 5001TIP3    H136638   6.541   1.037   8.767 -0.8787  0.3521 -0.1421
 5001TIP3    H236639   6.604   1.059   8.631 -1.2764  2.6426  0.0051
 5002TIP3   OH236640   4.606   0.933   8.553 -0.2112 -0.0269 -0.1205
 5002TIP3    H136641   4.677   0.969   8.606  0.1657 -1.2883  0.2440
 5002TIP3    H236642   4.641   0.934   8.464  1.2070 -2.7216  0.3066
 5003TIP3   OH236643   0.606   4.173   1.527 -0.1495  0.7776  0.1639
 5003TIP3    H136644   0.679   4.118   1.496 -0.9324  0.0478 -0.4542
 5003TIP3    H236645   0.559   4.195   1.447 -1.2878  0.2251  0.6637
 5004TIP3   OH236646   1.791   4.971   8.353 -0.2666  0.3147  0.1392
 5004TIP3    H136647   1.735   5.024   8.297 -1.2427  1.0950  1.7661
 5004TIP3    H236648   1.767   4.880   8.333 -1.3770  0.6133  0.0731
 5005TIP3   OH236649   6.414   6.888   8.033 -0.3841 -0.8403 -0.0147
 5005TIP3    H136650   6.350   6.914   8.100  1.7950 -0.6822  2.1747
 5005TIP3    H236651   6.446   6.971   7.997  0.3482 -0.7780  0.7325
 5006TIP3   OH236652   0.667   4.096   1.229 -0.0712  0.1291  0.3109
 5006TIP3    H136653   0.626   4.019   1.267  0.9364 -1.1044 -0.9825
 5006TIP3    H236654   0.626   4.105   1.143  0.6384  0.3092 -0.0183
 5007TIP3   OH236655   4.596   1.443   7.690  0.3462 -0.2834 -0.2694
 5007TIP3    H136656   4.664   1.386   7.655  0.3625 -0.9376  0.7797
 5007TIP3    H236657   4.547   1.472   7.613  1.8872  0.3206 -1.0565
 5008TIP3   OH236658   5.392   3.761   0.413  0.7321  0.0712  0.2664
 5008TIP3    H136659   5.365   3.726   0.498  0.6894  0.4247  0.4024
 5008TIP3    H236660   5.435   3.844   0.434  4.7014 -1.7820  0.3599
 5009TIP3   OH236661   1.306   3.106   1.268 -0.5174 -0.3639  0.4016
 5009TIP3    H136662   1.300   3.013   1.288 -0.9801 -0.0341  1.9741
 5009TIP3    H236663   1.318   3.148   1.353  1.3582  0.9044 -0.4177
 5010TIP3   OH236664   2.303   3.934   8.526  0.5512  0.2616 -0.2668
 5010TIP3    H136665   2.229   3.881   8.557  0.3899  0.0894 -0.9403
 5010TIP3    H236666   2.262   4.009   8.483  0.7668  0.0057 -0.9164
 5011TIP3   OH236667   4.050   2.590   7.203  0.0224  0.0901 -0.0218
 5011TIP3    H136668   3.956   2.590   7.219  0.0940 -2.1893  0.6863
 5011TIP3    H236669   4.058   2.580   7.108 -0.4132  1.2286 -0.1961
 5012TIP3   OH236670   0.685   4.143   7.023 -0.0265  0.1200 -0.0724
 5012TIP3    H136671   0.746   4.073   7.047 -1.0179 -1.6327 -2.3127
 5012TIP3    H236672   0.736   4.202   6.968  0.9902  1.6237  2.3429
 5013TIP3   OH236673   0.208   6.072   0.650  0.1779  0.5718  0.4645
 5013TIP3    H136674   0.198   6.118   0.734 -0.8308  0.7112  0.2776
 5013TIP3    H236675   0.134   6.101   0.597 -0.8171 -1.6476  0.5202
 5014TIP3   OH236676   1.793   1.167   1.985 -0.3940  0.2904 -0.0217
 5014TIP3    H136677   1.846   1.228   1.933 -0.5858  0.5083  0.0359
 5014TIP3    H236678   1.848   1.089   1.994 -0.8460 -0.2756 -1.6592
 5015TIP3   OH236679   0.151   3.755   0.340  0.7192 -0.0402  0.6971
 5015TIP3    H136680   0.181   3.846   0.332 -1.3606  0.8716  2.1958
 5015TIP3    H236681   0.159   3.719   0.252  1.5941  1.6002  0.0649
 5016TIP3   OH236682   1.000   2.623   1.310  0.0672  0.1196 -0.2458
 5016TIP3    H136683   0.950   2.696   1.274  0.4134  0.3549 -0.2518
 5016TIP3    H236684   1.048   2.661   1.384 -0.7732 -0.3927  0.5878
 5017TIP3   OH236685   1.397   5.652   1.320  0.0511 -0.2848 -0.2590
 5017TIP3    H136686   1.484   5.654   1.280 -0.0438  0.6713 -0.4231
 5017TIP3    H236687   1.412   5.611   1.405  0.4648 -1.1733 -0.7365
 5018TIP3   OH236688   4.123   4.527   1.349 -0.6192  0.3760 -0.2381
 5018TIP3    H136689   4.071   4.605   1.330 -1.2415  0.2328  0.7941
 5018TIP3    H236690   4.214   4.555   1.336 -0.9129  0.6565 -1.9634
 5019TIP3   OH236691   2.854   5.087   7.905  0.2164 -0.3237  0.8044
 5019TIP3    H136692   2.879   5.114   7.816  0.4469 -3.8811 -0.3498
 5019TIP3    H236693   2.763   5.117   7.914 -0.6582 -1.9155 -1.6429
 5020TIP3   OH236694   0.497   5.538   7.512 -0.7023  0.0696  0.0812
 5020TIP3    H136695   0.450   5.482   7.451 -0.0807  0.1777 -0.5102
 5020TIP3    H236696   0.580   5.558   7.467 -0.5040  0.6559  0.6964
 5021TIP3   OH236697   3.279   2.921   1.906 -0.2138 -0.4886  0.2535
 5021TIP3    H136698   3.245   2.838   1.941  2.6999 -1.0944  1.9794
 5021TIP3    H236699   3.345   2.894   1.841 -0.8782  0.5566 -0.8937
 5022TIP3   OH236700   5.607   1.926   6.162  0.3266 -0.3093 -0.2515
 5022TIP3    H136701   5.615   1.881   6.078  0.1266 -1.0004  0.0921
 5022TIP3    H236702   5.529   1.981   6.152  0.4922 -0.1368 -0.6278
 5023TIP3   OH236703   6.528   2.118   6.319  0.2343  0.2217  0.0556
 5023TIP3    H136704   6.523   2.057   6.393 -1.2259  0.3544  0.0909
 5023TIP3    H236705   6.587   2.187   6.349  1.5318 -0.9123  0.1911
 5024TIP3   OH236706   3.790   0.051   0.442  0.6218  0.9958 -0.3210
 5024TIP3    H136707   3.794   0.032   0.349  0.6565  0.3179 -0.1851
 5024TIP3    H236708   3.738  -0.020   0.480  2.4325  0.0024  0.4734
 5025TIP3   OH236709   2.220   2.950   7.015  0.3480  0.1252  0.2212
 5025TIP3    H136710   2.167   2.892   7.069 -2.0087  1.0105 -1.0166
 5025TIP3    H236711   2.259   2.893   6.949 -2.7880 -0.0745 -1.6526
 5026TIP3   OH236712   2.883   4.806   7.984 -0.0639  0.2066 -0.3910
 5026TIP3    H136713   2.789   4.794   8.000 -0.0134  0.0130 -0.2358
 5026TIP3    H236714   2.893   4.899   7.965  0.0740  0.7734  2.1174
 5027TIP3   OH236715   2.634   5.307   0.415 -0.0219 -1.0189  0.0948
 5027TIP3    H136716   2.678   5.322   0.332  1.3321 -1.0863  0.7736
 5027TIP3    H236717   2.649   5.388   0.465 -0.5253 -1.1135  0.4128
 5028TIP3   OH236718   6.146   0.584   6.854  0.5202  0.2052  0.5591
 5028TIP3    H136719   6.098   0.634   6.788  1.6508 -1.7467 -1.9265
 5028TIP3    H236720   6.079   0.538   6.904 -0.3592  1.3905  0.5002
 5029TIP3   OH236721   6.264   3.349   7.712 -0.0551 -0.2961 -0.1416
 5029TIP3    H136722   6.255   3.267   7.760 -1.2192  0.4595  0.9885
 5029TIP3    H236723   6.309   3.407   7.773 -0.6606  0.3786 -0.3260
 5030TIP3   OH236724   6.258   3.287   1.151  0.2413  0.1755 -0.3355
 5030TIP3    H136725   6.168   3.268   1.177  0.7885 -2.5715 -0.1422
 5030TIP3    H236726   6.309   3.275   1.231  0.8239  1.8756 -0.4051
 5031TIP3   OH236727   3.260   0.329   7.970 -0.0702  0.2094  0.1935
 5031TIP3    H136728   3.217   0.263   7.916 -0.9405  0.3536  0.6990
 5031TIP3    H236729   3.202   0.341   8.045  1.7690 -1.0168  1.9120
 5032TIP3   OH236730   3.743   4.486   8.455 -0.2847 -0.2452  0.0703
 5032TIP3    H136731   3.779   4.572   8.433  0.9703 -1.1153 -1.5371
 5032TIP3    H236732   3.664   4.479   8.403 -0.2174 -0.1828 -0.0413
 5033TIP3   OH236733   0.097   6.821   6.310 -0.4802 -0.1274 -0.6231
 5033TIP3    H136734   0.158   6.748   6.317 -0.2296 -0.1147 -2.2448
 5033TIP3    H236735   0.063   6.833   6.399 -0.2396 -1.9554 -0.2450
 5034TIP3   OH236736   3.466   1.025   0.533 -0.2112  0.1692 -0.5211
 5034TIP3    H136737   3.424   0.964   0.473 -0.8426  0.2724 -0.1936
 5034TIP3    H236738   3.494   1.098   0.477 -1.5023  0.6371 -0.6053
 5035TIP3   OH236739   6.465   4.909   0.300 -0.2093 -0.5177 -0.0218
 5035TIP3    H136740   6.381   4.949   0.277  0.3057  1.2524  0.9764
 5035TIP3    H236741   6.528   4.950   0.241  0.5818  1.5472  2.0575
 5036TIP3   OH236742   5.352   4.620   7.230 -0.6410  0.8605 -0.4493
 5036TIP3    H136743   5.406   4.543   7.248 -0.9905  0.9365  1.0503
 5036TIP3    H236744   5.310   4.601   7.147  0.7544  0.2713 -1.0598
 5037TIP3   OH236745   2.104   6.443   2.054  0.4492  0.4545  0.2713
 5037TIP3    H136746   2.177   6.403   2.006  1.1818  0.9989  0.9077
 5037TIP3    H236747   2.091   6.386   2.130  1.4408  1.3176  1.1359
 5038TIP3   OH236748   1.857   5.008   6.975  0.2171 -0.3076 -0.2309
 5038TIP3    H136749   1.761   5.003   6.979  0.0698 -0.4661 -2.5282
 5038TIP3    H236750   1.881   4.943   6.909  2.1012 -1.5915  1.6178
 5039TIP3   OH236751   1.717   3.346   8.553 -0.1668 -0.3039 -0.1067
 5039TIP3    H136752   1.669   3.376   8.630 -0.9333 -0.2547 -0.5906
 5039TIP3    H236753   1.790   3.408   8.545  1.2236 -1.5946  1.8303
 5040TIP3   OH236754   1.067   3.005   1.550 -0.4600 -0.4223 -0.3161
 5040TIP3    H136755   1.125   2.930   1.561  0.1770 -0.0409 -0.9385
 5040TIP3    H236756   0.993   2.988   1.608  1.4213  0.2563  2.4757
 5041TIP3   OH236757   6.856   6.059   1.479 -0.0629  0.0778  0.1277
 5041TIP3    H136758   6.858   6.154   1.489  0.1569  0.1247 -0.3172
 5041TIP3    H236759   6.897   6.044   1.394 -0.5580 -0.3774 -0.0349
 5042TIP3   OH236760   1.641   4.908   0.194  0.2867 -0.1251 -0.1564
 5042TIP3    H136761   1.631   4.827   0.245  2.3335 -0.9082 -0.8886
 5042TIP3    H236762   1.657   4.878   0.105 -1.8311  1.1990 -1.0355
 5043TIP3   OH236763   1.532   2.589   1.310  0.4946 -0.0673 -1.1591
 5043TIP3    H136764   1.495   2.502   1.292  0.4808 -0.2676 -0.2152
 5043TIP3    H236765   1.627   2.575   1.305  0.5256 -0.4091  0.1220
 5044TIP3   OH236766   3.072   4.458   8.448 -0.6295 -0.3262 -0.2980
 5044TIP3    H136767   3.133   4.394   8.413 -0.0440  0.9440 -1.6545
 5044TIP3    H236768   3.002   4.463   8.383 -0.6669  0.4161 -0.2108
 5045TIP3   OH236769   5.973   1.551   6.779 -0.4648  0.0395  0.4207
 5045TIP3    H136770   5.885   1.543   6.814 -0.2623 -2.0957  0.5839
 5045TIP3    H236771   6.018   1.609   6.839 -1.2633 -0.2897  1.3591
 5046TIP3   OH236772   5.055   6.838   8.505 -0.2454  0.0182 -0.0206
 5046TIP3    H136773   4.976   6.828   8.558 -0.2331  0.1277  0.0182
 5046TIP3    H236774   5.027   6.817   8.416 -0.1031 -0.8823  0.1382
 5047TIP3   OH236775   3.605   3.177   7.980  0.6504  0.0327 -0.5182
 5047TIP3    H136776   3.638   3.147   8.065  0.7462  0.1758 -0.5061
 5047TIP3    H236777   3.510   3.182   7.993  0.7348  0.8748 -0.1606
 5048TIP3   OH236778   3.505   5.995   0.851  0.7987  0.5941 -0.0207
 5048TIP3    H136779   3.482   6.057   0.782 -1.1948 -0.5781 -0.4682
 5048TIP3    H236780   3.557   5.928   0.807 -0.4256 -0.1235 -0.4181
 5049TIP3   OH236781   5.805   3.837   0.317 -0.4399  0.3874 -0.1885
 5049TIP3    H136782   5.853   3.889   0.253  0.0525 -0.9782 -0.9671
 5049TIP3    H236783   5.721   3.819   0.275 -1.1834  1.7052  0.6591
 5050TIP3   OH236784   3.529   1.140   0.771 -0.0756  0.5659  0.5498
 5050TIP3    H136785   3.552   1.231   0.754  0.0478  0.6434  1.1190
 5050TIP3    H236786   3.505   1.105   0.685  0.4621  0.9666  0.2301
 5051TIP3   OH236787   6.748   2.939   0.573 -0.0103 -0.1179  0.6212
 5051TIP3    H136788   6.817   2.951   0.507  0.7028 -3.9017  0.4309
 5051TIP3    H236789   6.676   2.994   0.542  1.3155  0.4469 -1.7367
 5052TIP3   OH236790   1.245   6.505   7.201  0.0403  0.0637 -0.2575
 5052TIP3    H136791   1.310   6.456   7.251 -2.0160 -1.6346  0.9422
 5052TIP3    H236792   1.232   6.586   7.251 -0.9614 -0.9895  1.3145
 5053TIP3   OH236793   5.031   6.808   6.826 -0.1242 -0.2791  0.0291
 5053TIP3    H136794   5.019   6.880   6.887 -1.0600 -0.9830  0.7075
 5053TIP3    H236795   5.067   6.737   6.880  2.2890  0.1215 -0.9177
 5054TIP3   OH236796   2.134   5.880   7.103 -0.2316  0.0440  0.6019
 5054TIP3    H136797   2.054   5.831   7.123 -0.1095  0.0362  1.0760
 5054TIP3    H236798   2.113   5.971   7.124 -0.9579  0.4797 -1.6717
 5055TIP3   OH236799   6.377   5.552   2.159  0.6656 -0.0759  0.4295
 5055TIP3    H136800   6.410   5.481   2.104 -1.7610 -1.0138  0.0866
 5055TIP3    H236801   6.325   5.509   2.226 -0.3530  1.3357  0.5962
 5056TIP3   OH236802   0.152   5.570   8.137 -0.6455  0.0066 -0.7733
 5056TIP3    H136803   0.065   5.576   8.175  0.2387 -3.1813  2.2031
 5056TIP3    H236804   0.188   5.658   8.146 -1.9427  0.3474  2.3998
 5057TIP3   OH236805   1.955   1.407   5.816  0.2907  0.1045  0.4856
 5057TIP3    H136806   1.917   1.399   5.904 -0.3775 -2.7872  0.0301
 5057TIP3    H236807   1.880   1.423   5.759  0.0861 -2.1252  0.0196
 5058TIP3   OH236808   4.637   5.096   6.167  0.3793  0.2415 -0.0162
 5058TIP3    H136809   4.593   5.014   6.191  1.1036 -0.7369 -1.7988
 5058TIP3    H236810   4.722   5.091   6.211 -0.1365  0.7645  1.0755
 5059TIP3   OH236811   0.655   6.862   0.820  0.9559 -0.2386 -0.0331
 5059TIP3    H136812   0.699   6.887   0.902  0.3977  0.0980  0.1706
 5059TIP3    H236813   0.564   6.848   0.845  0.5437  0.9298 -0.7822
 5060TIP3   OH236814   6.603   0.607   8.268  0.0788 -0.1773  0.0811
 5060TIP3    H136815   6.514   0.586   8.240 -1.1310  0.8426  2.8443
 5060TIP3    H236816   6.618   0.552   8.345  1.4563  0.3919  0.2482
 5061TIP3   OH236817   6.105   2.207   0.317  0.3893  0.4326 -0.0211
 5061TIP3    H136818   6.136   2.118   0.300  1.5879  1.1299 -1.8019
 5061TIP3    H236819   6.118   2.220   0.411 -0.4369 -1.4773  0.3911
 5062TIP3   OH236820   3.664   4.855   0.940  0.5415 -0.3254 -0.5957
 5062TIP3    H136821   3.626   4.941   0.956  0.7645 -0.7588  3.0069
 5062TIP3    H236822   3.594   4.805   0.898 -0.8425  0.6409  0.4635
 5063TIP3   OH236823   4.380   1.070   8.606 -0.6631  0.2886 -0.3161
 5063TIP3    H136824   4.328   1.026   8.539 -0.2742 -1.5696  0.5290
 5063TIP3    H236825   4.463   1.022   8.608 -0.6958  0.2278  1.5134
 5064TIP3   OH236826   0.193   2.645   1.482 -0.3701 -0.5109 -0.2665
 5064TIP3    H136827   0.199   2.708   1.553 -0.9089  0.7737 -1.3212
 5064TIP3    H236828   0.259   2.579   1.502  0.1547  0.3481  0.9039
 5065TIP3   OH236829   2.455   4.643   8.621 -0.2403 -0.3305 -0.5852
 5065TIP3    H136830   2.467   4.711   8.688 -1.2867 -0.4372 -0.2723
 5065TIP3    H236831   2.385   4.588   8.656  1.1169 -2.0640 -0.4534
 5066TIP3   OH236832   1.182   1.900   1.086  0.2584  0.2889 -0.3324
 5066TIP3    H136833   1.158   1.987   1.118  0.9252  1.3126 -2.4614
 5066TIP3    H236834   1.182   1.908   0.991  4.3083 -0.8722 -0.6219
 5067TIP3   OH236835   5.758   2.086   0.223  0.6336  0.4887  0.3162
 5067TIP3    H136836   5.774   2.178   0.243  1.1885  0.3373  0.5740
 5067TIP3    H236837   5.773   2.040   0.306 -2.3623  0.4574  0.9674
 5068TIP3   OH236838   1.588   0.543   6.736 -0.4147 -0.4003 -0.5261
 5068TIP3    H136839   1.561   0.470   6.681 -2.0725  0.8531 -1.4415
 5068TIP3    H236840   1.511   0.599   6.743  1.0388  1.7330 -0.5871
 5069TIP3   OH236841   1.520   3.257   7.809  0.4154  0.0869  0.6053
 5069TIP3    H136842   1.544   3.166   7.792 -0.7403 -0.1894  0.3131
 5069TIP3    H236843   1.466   3.253   7.888 -0.6306  0.3453 -0.0757
 5070TIP3   OH236844   4.408   3.821   8.547 -0.0421 -0.4486  0.0370
 5070TIP3    H136845   4.316   3.796   8.536  0.0111 -0.4654 -0.3974
 5070TIP3    H236846   4.415   3.906   8.505  0.4683 -1.1147 -1.2835
 5071TIP3   OH236847   2.846   0.811   0.660 -0.0971  0.2849  0.5087
 5071TIP3    H136848   2.758   0.794   0.693 -0.4829  1.5954  0.1982
 5071TIP3    H236849   2.835   0.879   0.594  0.9774 -0.5775 -0.6085
 5072TIP3   OH236850   2.986   3.435   0.138 -0.3740 -0.0871 -0.0625
 5072TIP3    H136851   2.934   3.428   0.058 -0.1876  0.1464 -0.2035
 5072TIP3    H236852   3.039   3.514   0.126 -0.6742  0.2102  0.4757
 5073TIP3   OH236853   4.312   0.821   6.975  0.0323 -0.0408 -0.6016
 5073TIP3    H136854   4.347   0.782   7.055 -0.9458 -1.0033 -0.6076
 5073TIP3    H236855   4.330   0.755   6.907 -2.0688 -0.7684 -0.5294
 5074TIP3   OH236856   6.789   4.163   8.049  0.2144  0.0036 -0.2317
 5074TIP3    H136857   6.779   4.254   8.019 -0.1722 -0.5735 -1.9965
 5074TIP3    H236858   6.819   4.171   8.139  1.2881  1.9021 -0.6821
 5075TIP3   OH236859   1.982   3.008   0.989 -0.4024 -0.7660 -0.4088
 5075TIP3    H136860   1.974   2.989   1.083 -2.6370  0.1086 -0.3704
 5075TIP3    H236861   2.060   2.958   0.962  0.7702 -0.4344  2.0291
 5076TIP3   OH236862   2.171   4.445   1.034 -0.1982  0.0455  0.1221
 5076TIP3    H136863   2.227   4.439   1.111 -0.2706 -1.7386  0.0747
 5076TIP3    H236864   2.083   4.457   1.068 -0.3110 -1.3190  0.3876
 5077TIP3   OH236865   4.059   5.261   6.723  0.1641  0.0613 -0.0396
 5077TIP3    H136866   4.108   5.343   6.730  0.9728 -0.2027 -1.8597
 5077TIP3    H236867   4.125   5.195   6.702 -0.4173 -1.1760  1.8536
 5078TIP3   OH236868   2.238   4.035   7.208  0.4130  0.0277 -0.3349
 5078TIP3    H136869   2.204   4.062   7.294 -0.8139 -1.9698 -0.1454
 5078TIP3    H236870   2.291   3.958   7.226 -0.3474 -0.7777 -1.4226
 5079TIP3   OH236871   5.409   4.994   1.142  0.3722  0.1502  0.1430
 5079TIP3    H136872   5.470   4.926   1.169 -0.4385 -0.3184  0.8818
 5079TIP3    H236873   5.345   4.998   1.214 -0.6379  0.3903 -0.7381
 5080TIP3   OH236874   2.336   4.377   2.167  0.0393 -0.0473 -0.1340
 5080TIP3    H136875   2.299   4.322   2.236 -1.9550  0.8778 -0.4007
 5080TIP3    H236876   2.387   4.317   2.113 -0.2908 -1.2046  0.8076
 5081TIP3   OH236877   2.002   2.012   0.773  0.9000  0.2200  0.1336
 5081TIP3    H136878   1.924   1.959   0.763  0.8024  0.0244  1.6947
 5081TIP3    H236879   2.072   1.961   0.732  0.7263 -0.9196  1.2094
 5082TIP3   OH236880   1.519   1.809   8.112 -0.3958  0.4203  0.2935
 5082TIP3    H136881   1.588   1.854   8.160 -0.6061 -0.7548  1.7756
 5082TIP3    H236882   1.438   1.850   8.143 -0.4582  1.1276 -0.7202
 5083TIP3   OH236883   3.980   5.714   7.770 -0.0406 -0.2746 -0.6620
 5083TIP3    H136884   4.040   5.715   7.696 -0.4591 -1.6186 -1.0417
 5083TIP3    H236885   4.037   5.723   7.847  0.3026  2.4114 -1.1260
 5084TIP3   OH236886   3.669   1.326   6.123 -0.0481 -0.2505 -0.1956
 5084TIP3    H136887   3.601   1.333   6.190 -0.2663 -0.7349 -0.3597
 5084TIP3    H236888   3.713   1.411   6.125 -2.4506  1.1852 -2.0238
 5085TIP3   OH236889   1.055   3.398   8.473 -0.0431  0.5984  0.3292
 5085TIP3    H136890   1.044   3.304   8.465 -1.8739  0.9085 -1.9439
 5085TIP3    H236891   0.993   3.424   8.541 -1.9288  0.4483 -1.2464
 5086TIP3   OH236892   6.842   4.446   7.931 -0.1497  0.1838  0.0952
 5086TIP3    H136893   6.866   4.498   8.007 -1.4897 -0.7453  1.1978
 5086TIP3    H236894   6.777   4.499   7.885  0.9495  0.9223 -0.6777
 5087TIP3   OH236895   0.119   5.222   0.769  0.3192 -0.0162  0.5363
 5087TIP3    H136896   0.088   5.141   0.727 -1.0909  0.1948  1.1247
 5087TIP3    H236897   0.118   5.202   0.863 -1.6890  1.1893  0.8167
 5088TIP3   OH236898   2.354   0.867   1.092 -0.1339 -0.2154  0.4725
 5088TIP3    H136899   2.340   0.784   1.136 -3.7541  0.3575  0.7250
 5088TIP3    H236900   2.298   0.863   1.015  1.1758  1.2445 -0.6114
 5089TIP3   OH236901   6.208   4.492   7.116  0.3068  0.3333  0.0201
 5089TIP3    H136902   6.297   4.503   7.151 -0.4946  0.5084  2.1402
 5089TIP3    H236903   6.177   4.581   7.101  0.5410  0.2663 -0.8907
 5090TIP3   OH236904   1.113   3.784   7.687 -0.3544 -0.1955  0.6795
 5090TIP3    H136905   1.131   3.774   7.780 -0.0587 -0.6013  0.5810
 5090TIP3    H236906   1.186   3.740   7.643 -1.6516 -2.0322  0.2727
 5091TIP3   OH236907   4.269   3.417   0.733 -0.2848  0.0541 -0.0297
 5091TIP3    H136908   4.334   3.467   0.782 -0.6066  1.5973 -1.0983
 5091TIP3    H236909   4.185   3.454   0.758 -0.5486 -0.0806 -0.6774
 5092TIP3   OH236910   4.301   3.526   2.156  0.0589  0.3703  0.1131
 5092TIP3    H136911   4.207   3.513   2.174  0.2917 -1.9702 -0.0723
 5092TIP3    H236912   4.340   3.541   2.242  0.0416 -2.8793  0.8191
 5093TIP3   OH236913   1.627   6.780   0.017 -0.0795 -0.2164  0.1909
 5093TIP3    H136914   1.691   6.746   0.080  0.4989 -2.3987 -1.4755
 5093TIP3    H236915   1.607   6.706  -0.040 -0.8577  1.5596 -1.9828
 5094TIP3   OH236916   5.081   3.574   1.394 -0.1408  0.0076 -0.3417
 5094TIP3    H136917   5.173   3.574   1.420 -0.9655  0.6876  3.1018
 5094TIP3    H236918   5.082   3.545   1.302  3.4381 -0.1451 -0.4044
 5095TIP3   OH236919   6.873   5.878   0.452 -0.0579  0.5217 -0.1000
 5095TIP3    H136920   6.834   5.876   0.540  0.4335 -0.4271  0.1128
 5095TIP3    H236921   6.899   5.969   0.440 -0.8258  0.8215  0.4225
 5096TIP3   OH236922   1.294   4.166   2.070 -0.4245 -0.0595  0.5192
 5096TIP3    H136923   1.389   4.181   2.074 -0.2827 -0.8621  0.2082
 5096TIP3    H236924   1.276   4.106   2.142 -0.6241 -0.3104  0.2583
 5097TIP3   OH236925   3.329   2.982   0.870  0.7289  0.3409  0.0557
 5097TIP3    H136926   3.418   2.994   0.905  1.2680  1.8594 -1.6654
 5097TIP3    H236927   3.302   3.070   0.844  0.2791 -0.5708 -2.9524
 5098TIP3   OH236928   6.751   0.383   1.151  0.3612 -0.0861  0.3228
 5098TIP3    H136929   6.698   0.428   1.085  1.3175  0.4067 -0.1245
 5098TIP3    H236930   6.838   0.421   1.142  0.6084 -0.3119  1.5968
 5099TIP3   OH236931   6.697   4.718   0.925 -0.5848 -0.0942 -0.0075
 5099TIP3    H136932   6.662   4.647   0.979 -1.5957 -1.9961 -2.9270
 5099TIP3    H236933   6.684   4.796   0.978 -1.6093 -1.7776  2.4295
 5100TIP3   OH236934   2.683   3.687   7.937 -0.6724  0.3528 -0.0621
 5100TIP3    H136935   2.756   3.665   7.995  0.1774  1.4620 -0.6732
 5100TIP3    H236936   2.720   3.686   7.849 -1.2642  1.4118 -0.3475
 5101TIP3   OH236937   3.068   3.710   1.497  0.6276 -0.0204  0.0233
 5101TIP3    H136938   3.057   3.804   1.512  0.4937 -0.3603  2.6292
 5101TIP3    H236939   2.986   3.671   1.528  0.0893 -0.9579 -2.3579
 5102TIP3   OH236940   2.448   3.830   7.187  0.0849  0.3516  0.5337
 5102TIP3    H136941   2.507   3.904   7.181 -0.6481  0.8379 -1.6444
 5102TIP3    H236942   2.493   3.758   7.142 -0.3026  0.2655  0.2704
 5103TIP3   OH236943   2.690   6.349   7.065 -0.1461  0.4253  0.0790
 5103TIP3    H136944   2.744   6.277   7.096 -0.6812 -0.3279 -0.6855
 5103TIP3    H236945   2.740   6.386   6.992 -0.1737  0.3985  0.0462
 5104TIP3   OH236946   6.680   4.767   7.294  0.5943  0.2927 -0.1785
 5104TIP3    H136947   6.741   4.822   7.345  2.9485 -1.4301 -0.9830
 5104TIP3    H236948   6.708   4.778   7.204 -0.8036 -0.0054 -0.6716
 5105TIP3   OH236949   0.848   5.862   7.953 -0.1160  0.8504  0.6736
 5105TIP3    H136950   0.771   5.875   8.009 -0.7801  2.8374 -0.6000
 5105TIP3    H236951   0.860   5.946   7.909  0.8539 -0.3889 -1.5726
 5106TIP3   OH236952   3.319   2.589   6.923  0.8747 -0.6451  0.0872
 5106TIP3    H136953   3.313   2.524   6.992  2.6570 -3.1794 -1.9626
 5106TIP3    H236954   3.230   2.624   6.914 -0.0293 -2.4523  1.5866
 5107TIP3   OH236955   4.817   5.277   7.302 -0.0606 -0.1109 -0.1238
 5107TIP3    H136956   4.897   5.322   7.328 -0.1942  0.7170 -1.1142
 5107TIP3    H236957   4.802   5.303   7.211 -2.0251  0.6247  0.3449
 5108TIP3   OH236958   3.951   3.254   6.714 -0.7115  0.0551 -0.3052
 5108TIP3    H136959   3.998   3.270   6.632 -1.2500 -0.8124 -0.7972
 5108TIP3    H236960   3.865   3.221   6.687 -1.0606  0.1697  0.6049
 5109TIP3   OH236961   4.418   1.202   0.544  0.1961 -0.6181 -0.6397
 5109TIP3    H136962   4.376   1.229   0.625  0.7083  1.6762 -1.0690
 5109TIP3    H236963   4.419   1.106   0.548  0.5319 -0.5642  2.1984
 5110TIP3   OH236964   1.224   1.021   0.049  0.0887 -0.4082 -0.2997
 5110TIP3    H136965   1.282   0.961   0.097  0.6639  1.0291  0.8938
 5110TIP3    H236966   1.183   1.074   0.118 -0.9447  0.0830 -1.2770
 5111TIP3   OH236967   4.444   3.366   8.262  0.2573 -0.0371 -0.1047
 5111TIP3    H136968   4.498   3.413   8.325 -0.5030  2.0277 -0.8760
 5111TIP3    H236969   4.506   3.314   8.211  1.1487  0.0685  0.8487
 5112TIP3   OH236970   1.025   5.304   8.512 -0.1899  0.4650  0.6566
 5112TIP3    H136971   0.955   5.251   8.473  0.4208 -1.2750  1.7832
 5112TIP3    H236972   0.979   5.369   8.565 -0.9796 -0.5202  1.2116
 5113TIP3   OH236973   1.581   2.067   7.807 -0.3260  0.4555 -0.4150
 5113TIP3    H136974   1.558   1.978   7.836 -0.4039 -0.0736 -1.9993
 5113TIP3    H236975   1.518   2.086   7.737 -0.0852  1.6229 -0.3248
 5114TIP3   OH236976   3.939   4.871   6.746 -0.1935  0.0943 -0.0412
 5114TIP3    H136977   4.017   4.893   6.695  0.3277  1.0903  1.1411
 5114TIP3    H236978   3.969   4.869   6.836 -1.2158 -1.0916  0.2966
 5115TIP3   OH236979   2.403   3.945   2.160  0.1520  0.1266 -0.1892
 5115TIP3    H136980   2.469   3.985   2.216  0.4026  1.4184 -1.3512
 5115TIP3    H236981   2.404   3.998   2.080 -2.6909  0.5809 -0.0353
 5116TIP3   OH236982   3.569   1.251   8.668 -0.2024  0.7413 -0.0099
 5116TIP3    H136983   3.563   1.252   8.763  0.4460  0.9161  0.0311
 5116TIP3    H236984   3.535   1.165   8.642  0.5172  0.3193  0.4377
 5117TIP3   OH236985   3.177   0.684   1.137 -0.1503  0.2931 -0.5516
 5117TIP3    H136986   3.092   0.716   1.105 -0.5772 -0.1190  0.1607
 5117TIP3    H236987   3.238   0.708   1.067 -0.8525  0.5611 -1.0952
 5118TIP3   OH236988   0.580   2.238   0.458  0.2666 -0.2295 -0.4722
 5118TIP3    H136989   0.637   2.173   0.416 -1.1410 -1.8298 -0.0343
 5118TIP3    H236990   0.499   2.235   0.408 -0.9443 -1.1793  1.4086
 5119TIP3   OH236991   6.854   6.637   6.782  0.0200 -0.3626  0.1549
 5119TIP3    H136992   6.918   6.569   6.759 -0.3516 -0.6573 -0.0146
 5119TIP3    H236993   6.773   6.589   6.799 -0.5705  0.1315 -1.1683
 5120TIP3   OH236994   5.677   2.404   0.151  0.0646 -0.2472  0.1326
 5120TIP3    H136995   5.606   2.388   0.089 -0.3590 -1.1147  0.8241
 5120TIP3    H236996   5.757   2.402   0.098 -0.2716 -1.2610 -0.3547
 5121TIP3   OH236997   1.802   0.162   1.544  0.0776  0.4513 -0.0897
 5121TIP3    H136998   1.769   0.073   1.535 -0.6543  0.6587  0.4437
 5121TIP3    H236999   1.789   0.183   1.637  2.4590  0.2684  0.3576
 5122TIP3   OH237000   0.358   2.713   6.769 -0.0869 -0.3055  0.5404
 5122TIP3    H137001   0.451   2.734   6.777  0.3879 -2.0819  0.0918
 5122TIP3    H237002   0.346   2.689   6.678 -0.9489 -0.2749  0.6371
 5123TIP3   OH237003   4.466   1.602   0.669  0.0539  0.8366  0.0938
 5123TIP3    H137004   4.471   1.697   0.682 -2.7859  1.2816 -1.4342
 5123TIP3    H237005   4.530   1.585   0.599  0.5222  1.6120  0.3125
 5124TIP3   OH237006   6.373   0.469   1.701 -0.4391  0.0761 -0.1709
 5124TIP3    H137007   6.336   0.546   1.657  1.6609  1.1868 -0.1375
 5124TIP3    H237008   6.461   0.496   1.726 -0.5776 -1.4559  2.3098
 5125TIP3   OH237009   6.829   6.329   1.130  0.0686  0.1228  0.1568
 5125TIP3    H137010   6.803   6.293   1.045  0.1779 -0.4630  0.3638
 5125TIP3    H237011   6.776   6.281   1.193 -0.3356  0.8741  0.3943
 5126TIP3   OH237012   6.871   1.467   7.150 -0.9868  0.4451  0.0551
 5126TIP3    H137013   6.931   1.519   7.095 -0.7328  0.5872  0.4575
 5126TIP3    H237014   6.927   1.434   7.220 -1.3606  0.4799  0.3703
 5127TIP3   OH237015   1.827   1.609   0.921  0.5155 -0.7156 -0.9746
 5127TIP3    H137016   1.896   1.569   0.868  2.1966  0.0749  0.4943
 5127TIP3    H237017   1.768   1.649   0.858 -0.5785 -4.3120 -2.4705
 5128TIP3   OH237018   5.472   5.599   2.766  0.3818 -0.4017 -0.6420
 5128TIP3    H137019   5.418   5.623   2.691 -0.8486  1.7452  0.8314
 5128TIP3    H237020   5.561   5.622   2.740 -0.0411  0.4263 -1.3834
 5129TIP3   OH237021   6.224   6.183   0.752  0.0798 -0.2712  0.4785
 5129TIP3    H137022   6.312   6.146   0.760 -0.0658 -0.5939  0.5954
 5129TIP3    H237023   6.228   6.265   0.801  0.8100  0.5837 -0.9606
 5130TIP3   OH237024   3.158   5.733   0.915  0.2929  0.1994  0.2888
 5130TIP3    H137025   3.203   5.735   0.831 -1.0865 -1.0413 -0.5485
 5130TIP3    H237026   3.207   5.793   0.971  1.5664  0.6409 -1.2324
 5131TIP3   OH237027   2.720   5.040   8.412  0.1526 -0.3154 -0.1206
 5131TIP3    H137028   2.725   4.981   8.336  0.0815 -1.9557  1.0914
 5131TIP3    H237029   2.636   5.019   8.452  0.4021  0.1827  0.6802
 5132TIP3   OH237030   0.922   5.042   0.663  0.3412  0.0273  0.5300
 5132TIP3    H137031   0.830   5.033   0.691 -0.1320 -2.1787 -1.4509
 5132TIP3    H237032   0.965   4.965   0.699  1.0487  0.2220  0.1030
 5133TIP3   OH237033   6.133   2.297   6.241 -0.3294  0.0786 -0.4248
 5133TIP3    H137034   6.052   2.323   6.198 -0.7166  0.2146  0.3642
 5133TIP3    H237035   6.198   2.292   6.171 -1.0262 -0.0612 -1.0660
 5134TIP3   OH237036   6.803   6.837   0.284  0.0738 -0.1998 -0.3358
 5134TIP3    H137037   6.716   6.799   0.287  0.0116 -0.0576 -0.2977
 5134TIP3    H237038   6.815   6.862   0.192 -0.5067  1.0919 -0.0966
 5135TIP3   OH237039   5.113   2.860   0.672  0.2816 -0.3068  0.2215
 5135TIP3    H137040   5.189   2.905   0.636 -0.9669  1.7424 -0.0014
 5135TIP3    H237041   5.113   2.884   0.765 -1.1618  1.4279 -0.1663
 5136TIP3   OH237042   5.912   4.662   0.542  0.3794  0.1051 -0.0386
 5136TIP3    H137043   5.942   4.585   0.495 -2.0089 -0.9802  0.0538
 5136TIP3    H237044   5.902   4.729   0.474 -2.1643 -1.1824 -1.0799
 5137TIP3   OH237045   1.043   1.555   7.689 -0.2742  0.9268  0.1703
 5137TIP3    H137046   1.126   1.509   7.702 -1.0082 -0.3282  0.5800
 5137TIP3    H237047   1.018   1.584   7.776 -1.0889 -0.1924  0.3266
 5138TIP3   OH237048   1.065   6.321   7.123  1.2188  0.1038 -0.1018
 5138TIP3    H137049   1.003   6.376   7.075  1.0421 -0.7894 -0.9204
 5138TIP3    H237050   1.136   6.381   7.147  0.4058  0.9803  0.2113
 5139TIP3   OH237051   5.639   6.247   7.728 -0.0159  0.2760  0.4543
 5139TIP3    H137052   5.604   6.233   7.816 -0.8392  2.2629  0.4706
 5139TIP3    H237053   5.733   6.261   7.742 -0.0729  0.1860  0.9574
 5140TIP3   OH237054   2.219   1.946   1.559 -0.1995  0.2403 -0.4005
 5140TIP3    H137055   2.163   2.023   1.560 -0.9796 -0.2911 -1.3604
 5140TIP3    H237056   2.172   1.883   1.504  1.1884 -0.3225 -0.9954
 5141TIP3   OH237057   2.106   3.039   0.530 -0.0568  0.1622 -0.3037
 5141TIP3    H137058   2.028   3.014   0.579 -1.5285  1.2467 -1.9526
 5141TIP3    H237059   2.086   3.126   0.496  1.6080  0.1866 -1.3365
 5142TIP3   OH237060   2.214   2.844   0.356 -0.0301 -0.0930 -0.1736
 5142TIP3    H137061   2.178   2.909   0.416  1.4740  1.1203 -0.5236
 5142TIP3    H237062   2.274   2.792   0.410  2.9173  2.2945 -0.8868
 5143TIP3   OH237063   2.442   3.710   1.535 -0.0280 -0.0906  0.5477
 5143TIP3    H137064   2.430   3.804   1.523 -2.7891 -0.3059  0.9689
 5143TIP3    H237065   2.392   3.688   1.614 -1.4277 -2.2049 -0.7962
 5144TIP3   OH237066   4.656   3.840   6.735 -0.3419 -0.3531  0.3181
 5144TIP3    H137067   4.720   3.826   6.666 -0.1762 -1.5026  0.6792
 5144TIP3    H237068   4.658   3.760   6.787 -1.9779 -0.3708  0.4253
 5145TIP3   OH237069   6.357   5.218   1.543  0.3102 -0.3945  0.2027
 5145TIP3    H137070   6.428   5.215   1.480 -0.7339 -1.9052 -0.9652
 5145TIP3    H237071   6.383   5.158   1.613  0.5081 -0.3889  0.1317
 5146TIP3   OH237072   1.301   0.034   6.200  0.0905  0.1071  0.3519
 5146TIP3    H137073   1.324  -0.024   6.272  0.6430  1.3653  1.2330
 5146TIP3    H237074   1.207   0.025   6.191 -0.1495  0.6696  1.9366
 5147TIP3   OH237075   4.960   2.173   8.440  0.2239 -0.4631  0.3476
 5147TIP3    H137076   4.892   2.216   8.491  1.0106 -0.5959  1.5319
 5147TIP3    H237077   5.033   2.235   8.439  0.1657 -0.3902 -0.7775
 5148TIP3   OH237078   6.368   1.458   7.150 -0.5544  0.1165 -0.1275
 5148TIP3    H137079   6.389   1.551   7.158 -1.4549  0.2787  0.4883
 5148TIP3    H237080   6.345   1.431   7.239 -0.5832 -0.6249 -0.3523
 5149TIP3   OH237081   4.234   6.856   1.099 -0.2387  0.3511  0.7715
 5149TIP3    H137082   4.303   6.921   1.092 -2.4675  2.6737 -2.1979
 5149TIP3    H237083   4.153   6.906   1.087 -2.2000 -2.7363  0.0294
 5150TIP3   OH237084   3.207   3.416   0.877 -0.3547  1.2020  0.0995
 5150TIP3    H137085   3.164   3.370   0.949  0.6188  1.5013  0.8964
 5150TIP3    H237086   3.212   3.507   0.905 -0.4833  1.4314 -0.6014
 5151TIP3   OH237087   0.372   4.215   7.133 -0.2072  0.0722 -0.1090
 5151TIP3    H137088   0.447   4.246   7.082  0.6505  1.6415  1.9549
 5151TIP3    H237089   0.303   4.279   7.116  0.0865  0.6095  0.6537
 5152TIP3   OH237090   2.095   3.541   0.693  0.3063 -0.0398  0.8854
 5152TIP3    H137091   2.164   3.512   0.632  0.7101  2.3789  0.0803
 5152TIP3    H237092   2.077   3.631   0.666 -3.3457 -0.6228  0.9750
 5153TIP3   OH237093   1.000   0.772   2.397 -0.1896 -0.0854 -0.4113
 5153TIP3    H137094   1.079   0.817   2.426  0.6978 -1.4480 -0.6429
 5153TIP3    H237095   1.028   0.683   2.378 -1.8043 -0.6233 -0.4371
 5154TIP3   OH237096   0.261   0.373   1.352  0.1370  0.2948 -0.0603
 5154TIP3    H137097   0.350   0.393   1.378 -0.6091  2.0175  1.3955
 5154TIP3    H237098   0.231   0.307   1.415  0.1698  0.2153 -0.1282
 5155TIP3   OH237099   6.518   5.067   7.114 -0.3884  0.2707  0.1161
 5155TIP3    H137100   6.601   5.071   7.067  0.4431 -0.2811  1.4713
 5155TIP3    H237101   6.511   5.152   7.157  0.2426 -0.2045  1.2034
 5156TIP3   OH237102   2.289   0.073   7.187 -0.3478 -0.3836  0.2345
 5156TIP3    H137103   2.321   0.163   7.180  1.6168 -1.0563 -0.1306
 5156TIP3    H237104   2.195   0.080   7.168 -0.3503  1.6289  0.6827
 5157TIP3   OH237105   1.247   5.956   0.010 -0.0866  0.0117 -0.0757
 5157TIP3    H137106   1.220   5.889  -0.053 -1.0820  0.4563 -0.1386
 5157TIP3    H237107   1.309   5.911   0.068  2.7617  0.1453 -2.7344
 5158TIP3   OH237108   1.593   5.490   7.755  0.7559  0.1241  0.0209
 5158TIP3    H137109   1.516   5.435   7.738  0.2977  0.5892  0.5565
 5158TIP3    H237110   1.560   5.562   7.809  1.9201 -0.6359  1.8186
 5159TIP3   OH237111   4.308   1.667   7.642 -0.1167  0.5108  0.0416
 5159TIP3    H137112   4.220   1.687   7.674  0.2818  1.2266  0.7474
 5159TIP3    H237113   4.364   1.674   7.720  0.6400  0.6333 -0.4958
 5160TIP3   OH237114   2.708   0.365   1.153  0.3430 -0.7061 -0.3277
 5160TIP3    H137115   2.738   0.314   1.228  0.5210 -0.6533 -0.3635
 5160TIP3    H237116   2.690   0.299   1.085  0.5330 -0.7244 -0.3604
 5161TIP3   OH237117   0.876   6.555   1.292  0.0891  0.1585 -0.1278
 5161TIP3    H137118   0.836   6.592   1.214 -0.6469 -1.9814 -0.8557
 5161TIP3    H237119   0.851   6.614   1.363  0.6666  2.0786 -1.4563
 5162TIP3   OH237120   3.289   4.608   0.943 -0.2728  0.1395 -0.2294
 5162TIP3    H137121   3.310   4.541   0.879  0.8591  3.9148 -4.2989
 5162TIP3    H237122   3.210   4.651   0.909 -2.0181 -0.0153  3.1349
 5163TIP3   OH237123   2.417   6.763   2.363  0.0754 -0.8355 -0.4021
 5163TIP3    H137124   2.343   6.720   2.320 -1.3839  0.3564  0.7825
 5163TIP3    H237125   2.485   6.766   2.295 -2.2111  1.2677 -2.8645
 5164TIP3   OH237126   6.343   2.280   8.142 -0.5768 -0.4137  0.2476
 5164TIP3    H137127   6.267   2.316   8.189 -0.2534  0.8802 -0.1702
 5164TIP3    H237128   6.413   2.280   8.207 -0.0760  1.5640 -0.2067
 5165TIP3   OH237129   5.600   2.514   1.688 -0.1859 -0.0511  0.4783
 5165TIP3    H137130   5.694   2.495   1.689  0.0376  1.0285  1.6262
 5165TIP3    H237131   5.594   2.609   1.698 -1.3883  0.0060 -0.4962
 5166TIP3   OH237132   4.811   1.362   8.501 -0.0791  0.3108 -0.2030
 5166TIP3    H137133   4.891   1.411   8.481  0.2085  0.3340  0.9687
 5166TIP3    H237134   4.767   1.414   8.568  0.0252 -0.8190  0.7644
 5167TIP3   OH237135   3.913   4.718   7.706 -0.2553 -0.5817  0.5102
 5167TIP3    H137136   3.851   4.754   7.643  0.1943 -1.0396 -0.2067
 5167TIP3    H237137   3.991   4.698   7.654  1.4500  2.1901  1.7156
 5168TIP3   OH237138   3.589   0.523   7.181 -0.0213 -0.3096  0.4868
 5168TIP3    H137139   3.540   0.499   7.103  1.6143  2.1769 -1.4927
 5168TIP3    H237140   3.626   0.441   7.213 -1.5413 -1.5356 -0.7364
 5169TIP3   OH237141   5.975   6.829   8.657  0.0562  0.2842 -0.2444
 5169TIP3    H137142   5.893   6.811   8.610 -0.1742 -0.1742  0.3146
 5169TIP3    H237143   5.947   6.862   8.742  0.4753  1.3592 -0.5100
 5170TIP3   OH237144   5.300   2.482   1.438  0.3323  0.1583  0.5481
 5170TIP3    H137145   5.378   2.488   1.383 -0.6258  2.8191 -0.6583
 5170TIP3    H237146   5.237   2.542   1.398 -0.5944  1.9590  4.2916
 5171TIP3   OH237147   0.007   3.782   8.292  0.4705 -1.0233 -0.6243
 5171TIP3    H137148  -0.028   3.709   8.240 -0.2783 -0.2575 -1.2422
 5171TIP3    H237149   0.031   3.848   8.227  1.0675 -0.6845 -0.0704
 5172TIP3   OH237150   4.626   3.311   0.558 -0.5757 -0.3685  0.1155
 5172TIP3    H137151   4.681   3.385   0.537 -0.7575 -0.3556 -0.3376
 5172TIP3    H237152   4.648   3.288   0.648 -0.4764  0.1936  0.2342
 5173TIP3   OH237153   4.381   4.583   8.016 -0.2415  0.6779 -0.0642
 5173TIP3    H137154   4.352   4.492   8.022  0.9217  0.3933  2.9931
 5173TIP3    H237155   4.321   4.632   8.071  0.2505  1.4499 -0.1883
 5174TIP3   OH237156   5.871   1.907   1.083 -0.2270  0.3698  0.2041
 5174TIP3    H137157   5.816   1.829   1.092  1.1445 -0.8199 -1.1909
 5174TIP3    H237158   5.819   1.967   1.031 -0.7496 -0.1815  0.0783
 5175TIP3   OH237159   1.552   5.510   7.461 -0.1940 -0.8945 -0.8475
 5175TIP3    H137160   1.646   5.494   7.464 -0.0476 -0.1085 -0.9966
 5175TIP3    H237161   1.527   5.521   7.553  0.2329  0.8705 -0.9137
 5176TIP3   OH237162   0.778   4.035   0.025  0.2964 -0.2857  0.9483
 5176TIP3    H137163   0.837   4.069   0.093 -0.7567 -0.9970  2.2699
 5176TIP3    H237164   0.692   4.071   0.048 -0.0004 -0.1246 -0.3298
 5177TIP3   OH237165   1.722   4.606   1.506 -0.0302  0.1756  0.6359
 5177TIP3    H137166   1.710   4.527   1.453 -2.4811  0.4962  0.6008
 5177TIP3    H237167   1.684   4.676   1.453  0.6170  1.1091  1.3765
 5178TIP3   OH237168   0.243   3.573   8.472 -0.8657  0.9833  0.3555
 5178TIP3    H137169   0.289   3.633   8.413 -1.3230  1.3389  0.3570
 5178TIP3    H237170   0.292   3.579   8.554 -0.0014  0.2087 -0.0781
 5179TIP3   OH237171   3.640   2.693   7.921 -0.2829 -0.4954 -0.2512
 5179TIP3    H137172   3.621   2.618   7.865  1.7694 -2.1201  1.0540
 5179TIP3    H237173   3.698   2.657   7.989  2.1516  2.5791 -0.4887
 5180TIP3   OH237174   5.184   5.275   2.004 -0.4534  0.2949 -0.2476
 5180TIP3    H137175   5.163   5.291   2.096  0.0444  2.2036 -0.4308
 5180TIP3    H237176   5.119   5.211   1.976 -0.4918 -0.4723  1.4692
 5181TIP3   OH237177   3.407   0.638   7.378  0.1432  0.3100 -0.4339
 5181TIP3    H137178   3.481   0.607   7.326 -0.1117 -0.2937 -0.4436
 5181TIP3    H237179   3.428   0.610   7.468 -0.5797 -0.8300 -0.6053
 5182TIP3   OH237180   4.187   0.050   1.475 -0.0010  0.4458 -0.0912
 5182TIP3    H137181   4.146   0.046   1.562 -1.9462 -2.7642 -1.0173
 5182TIP3    H237182   4.118   0.084   1.418  0.1788 -0.5174 -0.8982
 5183TIP3   OH237183   4.648   1.789   0.959 -0.8774 -0.2587  0.3047
 5183TIP3    H137184   4.635   1.763   0.868 -2.5114 -1.3925  0.8280
 5183TIP3    H237185   4.724   1.737   0.988  1.2853  1.9259 -1.0413
 5184TIP3   OH237186   5.450   0.688   6.539 -0.1390  0.1813  0.2895
 5184TIP3    H137187   5.389   0.704   6.611  0.5491  0.1763  0.8961
 5184TIP3    H237188   5.414   0.737   6.465 -0.7087  0.4248  0.7214
 5185TIP3   OH237189   2.120   2.448   0.633  0.0511 -0.2878 -0.0554
 5185TIP3    H137190   2.065   2.523   0.612 -0.0019 -0.2820  0.1077
 5185TIP3    H237191   2.060   2.382   0.668  0.2581  0.0170  0.9102
 5186TIP3   OH237192   5.172   2.375   8.436  0.4989  0.2052 -0.7329
 5186TIP3    H137193   5.138   2.398   8.350  1.3544  1.0150 -0.8712
 5186TIP3    H237194   5.262   2.407   8.436  1.9005 -3.2819 -0.9780
 5187TIP3   OH237195   5.981   3.390   7.075 -0.3332 -0.4051  0.6830
 5187TIP3    H137196   5.994   3.438   6.994 -0.4750 -0.6019  0.5440
 5187TIP3    H237197   5.892   3.412   7.102 -0.8225 -1.4722  0.0245
 5188TIP3   OH237198   0.914   1.319   5.631  0.0935 -0.2901 -0.2300
 5188TIP3    H137199   0.840   1.293   5.576 -0.6993  2.1049 -0.4251
 5188TIP3    H237200   0.934   1.408   5.603  3.1831 -0.8937 -0.2609
 5189TIP3   OH237201   6.656   1.810   0.865  0.5697  0.3047  0.1434
 5189TIP3    H137202   6.726   1.840   0.807 -0.7113  2.3022 -0.4863
 5189TIP3    H237203   6.649   1.879   0.932  0.7433 -1.0259  1.6066
 5190TIP3   OH237204   1.524   2.700   2.123  0.0831 -0.5956 -0.2226
 5190TIP3    H137205   1.602   2.730   2.170 -0.6790  0.1831  0.5743
 5190TIP3    H237206   1.461   2.679   2.192 -0.3809 -1.3373 -0.8526
 5191TIP3   OH237207   1.816   2.206   1.404  0.1558  0.0506 -0.2784
 5191TIP3    H137208   1.852   2.148   1.471 -0.2999  0.5192  0.3794
 5191TIP3    H237209   1.766   2.271   1.452 -2.5558 -1.2122 -1.1905
 5192TIP3   OH237210   5.379   5.987   1.132 -0.0434  0.1761  0.4246
 5192TIP3    H137211   5.473   5.969   1.144 -0.2693 -0.6875  0.9675
 5192TIP3    H237212   5.350   6.023   1.216 -0.4233 -0.5506  0.6061
 5193TIP3   OH237213   5.185   2.032   6.799  0.5299  0.0166 -0.0529
 5193TIP3    H137214   5.201   2.002   6.709  0.2040 -0.0199 -0.0992
 5193TIP3    H237215   5.121   2.103   6.790  1.1388  0.6000  0.0753
 5194TIP3   OH237216   4.078   3.800   8.353 -0.0390  0.1002  0.5813
 5194TIP3    H137217   4.047   3.858   8.283  3.9988  1.7683 -0.1070
 5194TIP3    H237218   4.099   3.859   8.425  1.7828 -0.7495  0.8060
 5195TIP3   OH237219   3.026   0.922   0.828  0.0134  0.5141 -0.4317
 5195TIP3    H137220   2.943   0.878   0.811  1.1164 -2.0905  0.4371
 5195TIP3    H237221   3.051   0.959   0.743 -2.0327  1.4603 -0.6814
 5196TIP3   OH237222   0.236   0.496   7.803 -0.3016  0.1278  0.0577
 5196TIP3    H137223   0.144   0.509   7.828  0.2765 -0.1142  2.5154
 5196TIP3    H237224   0.286   0.539   7.873  1.4760 -0.4995 -0.7798
 5197TIP3   OH237225   3.530   5.910   0.245 -0.2909 -0.1128 -1.0993
 5197TIP3    H137226   3.616   5.952   0.249  0.0578 -0.8697  1.2689
 5197TIP3    H237227   3.541   5.828   0.294 -2.1215 -0.7191 -1.5968
 5198TIP3   OH237228   1.575   2.232   0.844 -0.7656 -0.4299  0.1441
 5198TIP3    H137229   1.484   2.260   0.851 -1.0899 -1.7603  1.8127
 5198TIP3    H237230   1.623   2.294   0.898 -0.7668 -0.1434 -0.1787
 5199TIP3   OH237231   5.616   0.679   1.123  0.0919 -0.0555 -0.4070
 5199TIP3    H137232   5.620   0.597   1.173  1.2972  0.7705  0.9281
 5199TIP3    H237233   5.556   0.660   1.051  0.3147 -2.1037 -0.1202
 5200TIP3   OH237234   2.992   5.289   8.650 -0.1208  0.1344  0.3435
 5200TIP3    H137235   2.903   5.254   8.654 -0.3094  0.1780 -2.0042
 5200TIP3    H237236   3.042   5.222   8.602  0.9749  0.4023  1.0625
 5201TIP3   OH237237   2.983   5.513   7.813 -0.2634  0.1638 -0.5740
 5201TIP3    H137238   3.056   5.472   7.766  0.2144  0.3105  0.0388
 5201TIP3    H237239   2.976   5.600   7.774  0.2505  0.3508 -0.2558
 5202TIP3   OH237240   0.200   4.082   1.203 -0.0359  0.1442 -0.2896
 5202TIP3    H137241   0.261   4.087   1.277 -0.7670  1.1400  0.2884
 5202TIP3    H237242   0.186   4.174   1.178 -3.3489  0.2922  1.4079
 5203TIP3   OH237243   3.777   5.443   0.212 -0.0407 -0.4095  0.2253
 5203TIP3    H137244   3.838   5.423   0.141 -0.4055 -0.9591  0.0616
 5203TIP3    H237245   3.739   5.358   0.235 -2.2122  0.1568 -0.9850
 5204TIP3   OH237246   5.712   6.547   7.710  0.4266  0.6949  0.4807
 5204TIP3    H137247   5.650   6.500   7.766 -1.3790  0.2811 -1.6998
 5204TIP3    H237248   5.769   6.478   7.676  0.3954  0.6753  0.4663
 5205TIP3   OH237249   0.676   2.709   0.944  0.3364  0.4170 -0.4675
 5205TIP3    H137250   0.744   2.703   0.877  0.9337 -1.2681  0.2148
 5205TIP3    H237251   0.724   2.705   1.027 -0.5638 -0.8217  0.0249
 5206TIP3   OH237252   4.901   3.303   8.453  0.2120  0.6461  0.4215
 5206TIP3    H137253   4.955   3.270   8.525 -0.1839  0.7412  0.7690
 5206TIP3    H237254   4.877   3.224   8.404 -1.8733  0.1737  2.0328
 5207TIP3   OH237255   3.279   1.145   1.996 -0.0438  0.0427  0.3152
 5207TIP3    H137256   3.303   1.054   2.015  0.7592 -0.0294 -0.9264
 5207TIP3    H237257   3.188   1.152   2.024 -0.3081 -1.3198 -0.1345
 5208TIP3   OH237258   5.908   1.997   8.295  0.1687  0.3836  0.3125
 5208TIP3    H137259   5.899   1.953   8.210 -0.6270 -0.4911  0.8224
 5208TIP3    H237260   5.981   1.952   8.337  0.5067  0.7592  0.1320
 5209TIP3   OH237261   3.674   3.109   1.696  0.3273  0.8207 -0.2118
 5209TIP3    H137262   3.690   3.202   1.712  1.0181  0.5543  0.8272
 5209TIP3    H237263   3.761   3.069   1.699 -0.1169 -0.1242  1.3990
 5210TIP3   OH237264   2.181   2.953   2.409  0.1039 -0.7331 -0.4993
 5210TIP3    H137265   2.201   2.897   2.484 -0.9182 -2.3626 -1.3773
 5210TIP3    H237266   2.095   2.923   2.379  0.1754  0.3489 -1.8930
 5211TIP3   OH237267   2.113   5.584   8.588  0.3233  0.3487  0.6578
 5211TIP3    H137268   2.071   5.662   8.624 -0.1543  1.1693 -1.5239
 5211TIP3    H237269   2.121   5.525   8.663 -2.7520  1.0072  1.6791
 5212TIP3   OH237270   4.250   0.418   0.910  0.5409 -0.3677  0.2593
 5212TIP3    H137271   4.213   0.330   0.920  0.7503 -0.9709 -2.9395
 5212TIP3    H237272   4.186   0.465   0.856 -0.5390  2.2542  3.4532
 5213TIP3   OH237273   6.405   1.998   1.845  0.4341  0.0882  0.6851
 5213TIP3    H137274   6.384   2.087   1.874 -1.9642 -0.5291  1.0090
 5213TIP3    H237275   6.449   1.958   1.920  0.0679  0.5092  1.1315
 5214TIP3   OH237276   4.867   1.935   0.195  0.3137  0.4624  0.3699
 5214TIP3    H137277   4.879   1.902   0.106 -0.5838 -0.4850  0.5800
 5214TIP3    H237278   4.889   1.860   0.251 -1.5340  0.2622  0.8745
 5215TIP3   OH237279   2.888   1.073   7.846  0.2590  0.4310  0.0824
 5215TIP3    H137280   2.919   1.008   7.782 -0.5090  0.8466 -0.7382
 5215TIP3    H237281   2.801   1.098   7.815  0.2667  1.3641  0.7557
 5216TIP3   OH237282   0.855   0.497   8.536  0.3117  0.0183 -0.0416
 5216TIP3    H137283   0.879   0.563   8.601  1.2507 -0.4108  0.0686
 5216TIP3    H237284   0.937   0.478   8.490  0.0791 -1.1104 -0.0203
 5217TIP3   OH237285   2.799   5.517   1.794  0.5206  0.1332 -0.0259
 5217TIP3    H137286   2.747   5.596   1.781 -0.9199 -0.8306 -0.2885
 5217TIP3    H237287   2.861   5.541   1.863  1.6968  2.2093 -1.6775
 5218TIP3   OH237288   0.489   5.297   0.906 -0.5332  0.3187 -0.4002
 5218TIP3    H137289   0.509   5.312   0.814 -3.1670 -0.1362 -1.1234
 5218TIP3    H237290   0.463   5.383   0.940 -2.3208  0.0142 -0.8942
 5219TIP3   OH237291   4.193   2.942   1.334 -0.5702 -0.3522 -0.4706
 5219TIP3    H137292   4.165   3.032   1.321 -1.4945 -0.1525  2.2091
 5219TIP3    H237293   4.223   2.913   1.248 -2.4947  1.7153 -1.9487
 5220TIP3   OH237294   4.782   6.399   7.692  0.4625 -0.0581  0.4501
 5220TIP3    H137295   4.704   6.409   7.638  1.0952  1.9443 -0.2086
 5220TIP3    H237296   4.852   6.378   7.630  0.7654 -0.0887  0.7960
 5221TIP3   OH237297   1.078   1.656   1.080  0.2894  0.1430 -0.7024
 5221TIP3    H137298   1.078   1.752   1.090  0.7140  0.0024  1.1750
 5221TIP3    H237299   1.169   1.634   1.058 -0.4086  0.3466 -4.3265
 5222TIP3   OH237300   3.885   0.063   8.245 -0.7308 -0.0550  0.6469
 5222TIP3    H137301   3.886   0.158   8.236  0.1427 -0.2220 -1.5498
 5222TIP3    H237302   3.969   0.042   8.284 -0.1794 -0.0282 -0.4985
 5223TIP3   OH237303   4.024   5.180   0.195  0.3299 -0.0337  0.4615
 5223TIP3    H137304   4.021   5.207   0.103  1.2104 -0.3605  0.3258
 5223TIP3    H237305   4.100   5.122   0.200  0.0423 -0.3514  1.3108
 5224TIP3   OH237306   4.408   3.123   6.664  0.1034  0.3981 -0.3678
 5224TIP3    H137307   4.451   3.038   6.675 -0.6904 -0.1602 -1.4615
 5224TIP3    H237308   4.315   3.103   6.662 -0.2858  1.5958  1.8949
 5225TIP3   OH237309   3.499   1.185   7.884 -0.1488  0.4270 -0.2962
 5225TIP3    H137310   3.485   1.121   7.814  0.4029  0.3336 -0.3253
 5225TIP3    H237311   3.552   1.138   7.949  1.1875  1.1785 -0.8143
 5226TIP3   OH237312   4.760   1.383   1.351  0.1332  0.1030 -0.4970
 5226TIP3    H137313   4.835   1.325   1.361  0.7454  0.9506 -0.1130
 5226TIP3    H237314   4.735   1.374   1.259  0.9664  0.1383 -0.7328
 5227TIP3   OH237315   4.683   1.858   8.273 -0.5362 -0.3703  0.4003
 5227TIP3    H137316   4.760   1.910   8.248 -0.6455 -0.6165 -0.4906
 5227TIP3    H237317   4.715   1.767   8.272 -0.4718 -0.3664  1.4582
 5228TIP3   OH237318   5.412   6.177   6.758 -0.8281  0.4845 -0.1936
 5228TIP3    H137319   5.401   6.248   6.696 -0.9431 -0.2534 -1.0322
 5228TIP3    H237320   5.379   6.099   6.713  0.6859 -0.3888  0.1018
 5229TIP3   OH237321   0.119   1.620   6.980 -0.1071 -0.2083 -0.4965
 5229TIP3    H137322   0.077   1.607   6.895  0.7973 -1.2803 -0.8004
 5229TIP3    H237323   0.203   1.575   6.973  0.4377  0.5665  0.6249
 5230TIP3   OH237324   1.452   3.853   6.429 -0.1683 -0.1529 -0.1076
 5230TIP3    H137325   1.359   3.858   6.451 -0.1636  3.2105 -0.3899
 5230TIP3    H237326   1.454   3.848   6.334 -0.0056 -1.3867 -0.0651
 5231TIP3   OH237327   2.270   1.094   1.783 -0.3890 -0.0319 -0.5817
 5231TIP3    H137328   2.286   1.155   1.711 -1.0480  0.6689 -0.1438
 5231TIP3    H237329   2.211   1.141   1.842  1.2983  0.0245  1.1880
 5232TIP3   OH237330   4.206   3.598   0.183  0.1281  0.0019 -0.3481
 5232TIP3    H137331   4.176   3.590   0.092  1.7514  0.5087 -0.9699
 5232TIP3    H237332   4.188   3.513   0.222  0.2173 -0.5224 -1.4139
 5233TIP3   OH237333   0.155   4.738   8.194  0.1328  0.0836 -0.4210
 5233TIP3    H137334   0.227   4.713   8.135 -0.5640 -0.4874 -1.0509
 5233TIP3    H237335   0.142   4.831   8.178  0.8957  0.2493 -0.1173
 5234TIP3   OH237336   0.932   3.177   8.571 -0.2771  0.6014 -0.1128
 5234TIP3    H137337   0.885   3.162   8.489  0.4981 -1.0012 -0.2965
 5234TIP3    H237338   0.867   3.220   8.628 -1.5217 -0.2818 -0.8210
 5235TIP3   OH237339   5.947   0.475   8.589 -0.1397 -0.3939  0.3358
 5235TIP3    H137340   5.892   0.405   8.624  0.2238 -0.2857  1.1404
 5235TIP3    H237341   5.979   0.522   8.666 -0.6518  0.8754 -0.1930
 5236TIP3   OH237342   5.622   1.867   8.260 -0.5418 -0.1502  0.5591
 5236TIP3    H137343   5.619   1.862   8.356 -1.5387  1.8626  0.6759
 5236TIP3    H237344   5.685   1.935   8.241 -1.2123  0.2860 -0.1673
 5237TIP3   OH237345   6.848   4.917   8.624 -0.3415  0.2311  0.3602
 5237TIP3    H137346   6.839   4.917   8.529 -0.1751 -2.2340  0.2646
 5237TIP3    H237347   6.943   4.920   8.639 -0.3190 -0.3187  0.3784
 5238TIP3   OH237348   2.848   0.693   7.772 -0.3962 -0.1766 -0.0591
 5238TIP3    H137349   2.840   0.725   7.682  1.1702 -0.1411 -0.2025
 5238TIP3    H237350   2.763   0.651   7.789 -1.2921  1.1407 -1.0011
 5239TIP3   OH237351   6.880   5.451   0.636  0.1667 -0.5127  0.0037
 5239TIP3    H137352   6.827   5.399   0.575 -0.6701 -0.0988  0.3591
 5239TIP3    H237353   6.939   5.387   0.676  1.0355 -0.7196 -1.5387
 5240TIP3   OH237354   2.989   2.811   7.303  0.5522  0.3029  0.1742
 5240TIP3    H137355   3.083   2.796   7.305  0.7891  0.8836 -2.4838
 5240TIP3    H237356   2.980   2.906   7.298 -0.1630  0.2518  0.3888
 5241TIP3   OH237357   4.230   3.402   1.533  0.0942 -0.1760 -0.3049
 5241TIP3    H137358   4.219   3.327   1.591  0.5309  0.0440  0.0713
 5241TIP3    H237359   4.308   3.381   1.481 -0.0862 -0.2127 -0.5615
 5242TIP3   OH237360   2.792   0.003   7.703  0.0588  0.1969 -0.0754
 5242TIP3    H137361   2.857  -0.043   7.755  0.8095 -1.0829 -2.0434
 5242TIP3    H237362   2.820  -0.010   7.612 -1.6542  1.6107 -0.8651
 5243TIP3   OH237363   1.206   3.553   7.035  0.2310 -0.5940 -0.3675
 5243TIP3    H137364   1.167   3.468   7.053  0.1073 -0.6201 -0.7580
 5243TIP3    H237365   1.196   3.565   6.941  2.9200 -1.4762 -0.8647
 5244TIP3   OH237366   3.086   0.036   1.197  0.5360 -0.1296 -0.4845
 5244TIP3    H137367   3.074  -0.045   1.246 -2.9138  0.6241  0.2111
 5244TIP3    H237368   3.077   0.010   1.105  0.1467 -0.6504 -0.3021
 5245TIP3   OH237369   1.477   0.938   6.738  0.1217 -0.2269  0.2049
 5245TIP3    H137370   1.407   0.993   6.772 -0.1706 -1.0693  1.0232
 5245TIP3    H237371   1.481   0.864   6.799  0.5068 -1.1046 -0.8431
 5246TIP3   OH237372   5.238   2.035   8.520 -0.6561  0.0084  0.4516
 5246TIP3    H137373   5.220   1.992   8.436 -1.3616 -0.2708  0.7439
 5246TIP3    H237374   5.157   2.027   8.569 -0.1253 -0.1638  1.3161
 5247TIP3   OH237375   5.486   1.828   1.594  0.1022  0.1491  0.3717
 5247TIP3    H137376   5.488   1.919   1.624 -0.1424  0.4057 -0.3727
 5247TIP3    H237377   5.532   1.779   1.663  2.2419  1.1460 -0.2823
 5248TIP3   OH237378   1.048   0.041   6.138  0.7901  0.0604  0.8073
 5248TIP3    H137379   1.062   0.045   6.043  3.1634  0.1464  1.1025
 5248TIP3    H237380   0.955   0.018   6.147  0.6743 -0.7220 -1.5391
 5249TIP3   OH237381   1.866   3.099   0.098  0.1891  0.1258  0.3689
 5249TIP3    H137382   1.932   3.169   0.096  0.1715  0.1329 -1.2085
 5249TIP3    H237383   1.788   3.140   0.135  0.3007  0.8401 -0.1768
 5250TIP3   OH237384   2.107   5.994   2.114  0.3637 -0.5370 -0.5680
 5250TIP3    H137385   2.094   6.074   2.165  1.4562 -0.4421 -0.4199
 5250TIP3    H237386   2.036   5.936   2.142  1.0919 -0.5952  1.2868
 5251TIP3   OH237387   2.740   4.020   1.577  0.5050 -0.0940 -0.2369
 5251TIP3    H137388   2.815   3.962   1.560 -0.2016 -1.6294  1.5171
 5251TIP3    H237389   2.750   4.092   1.515  4.1438  0.4463  0.7569
 5252TIP3   OH237390   5.328   1.441   6.052  0.2764 -0.1779  0.1078
 5252TIP3    H137391   5.297   1.529   6.028 -0.9209 -0.8554 -0.9712
 5252TIP3    H237392   5.405   1.427   5.996 -0.4279 -0.3829 -0.8326
 5253TIP3   OH237393   5.088   1.109   8.559  1.2326 -0.0371  0.1163
 5253TIP3    H137394   5.163   1.099   8.618 -0.9247 -4.4969  2.5775
 5253TIP3    H237395   5.015   1.132   8.616 -0.2329 -0.7126 -1.3933
 5254TIP3   OH237396   6.114   1.812   1.043  0.4368 -0.3970  0.2171
 5254TIP3    H137397   6.037   1.866   1.063 -0.1875 -1.0480 -0.3889
 5254TIP3    H237398   6.161   1.862   0.975  1.7077  1.0279  2.0337
 5255TIP3   OH237399   2.659   1.600   1.711  0.1912  0.9588  0.3550
 5255TIP3    H137400   2.657   1.621   1.804  0.6104 -0.3654  0.6718
 5255TIP3    H237401   2.572   1.563   1.693  1.1709 -1.8796  1.0032
 5256TIP3   OH237402   3.821   4.621   7.370  0.3411 -0.1949 -0.1565
 5256TIP3    H137403   3.915   4.614   7.353 -0.0749 -0.7945 -2.5147
 5256TIP3    H237404   3.803   4.715   7.367  0.5887 -0.1711 -1.5965
 5257TIP3   OH237405   1.644   3.797   1.117  0.4691  0.2779 -0.2549
 5257TIP3    H137406   1.665   3.882   1.078 -0.1957  0.3932 -0.3816
 5257TIP3    H237407   1.582   3.817   1.187  1.7471  0.0819  0.9775
 5258TIP3   OH237408   0.551   2.940   6.548  0.5159  0.3752  0.0491
 5258TIP3    H137409   0.607   2.984   6.484 -0.1798 -2.1507 -2.5068
 5258TIP3    H237410   0.581   2.849   6.547 -3.2203 -1.0260 -1.1760
 5259TIP3   OH237411   2.273   3.966   0.340 -0.3871  0.1978 -0.3061
 5259TIP3    H137412   2.264   3.874   0.365  1.4091  0.5812  2.2111
 5259TIP3    H237413   2.334   3.965   0.266 -1.6172 -0.6914 -1.3436
 5260TIP3   OH237414   0.672   1.386   8.146 -0.5555 -0.3876  0.6025
 5260TIP3    H137415   0.661   1.411   8.238  0.6493 -0.1201  0.6927
 5260TIP3    H237416   0.614   1.445   8.098  0.0248  0.5833  1.0657
 5261TIP3   OH237417   2.247   5.626   6.776 -0.2440  0.0195 -0.2845
 5261TIP3    H137418   2.225   5.625   6.683 -1.1781  0.1240 -0.0780
 5261TIP3    H237419   2.232   5.536   6.805 -0.4365  0.1013 -0.1305
 5262TIP3   OH237420   3.552   1.939   1.565  0.2088  0.4157 -0.1253
 5262TIP3    H137421   3.626   1.888   1.531  0.0361  0.3646 -0.4187
 5262TIP3    H237422   3.491   1.946   1.492 -0.0258  0.5610  0.0828
 5263TIP3   OH237423   6.665   5.924   6.987  0.1270  0.0636 -0.3570
 5263TIP3    H137424   6.710   5.903   6.906 -0.9946 -1.3361 -0.6662
 5263TIP3    H237425   6.582   5.964   6.959  0.5986  1.4896  0.1718
 5264TIP3   OH237426   5.688   6.167   0.421  0.9277 -0.1730  0.0525
 5264TIP3    H137427   5.652   6.171   0.509 -0.8358  0.8265 -0.6693
 5264TIP3    H237428   5.745   6.090   0.422  0.8666 -0.2492  2.0032
 5265TIP3   OH237429   6.520   3.967   6.342 -0.2880 -0.2196 -0.1379
 5265TIP3    H137430   6.435   3.955   6.299  0.0482  1.6909 -1.4563
 5265TIP3    H237431   6.547   4.055   6.317  2.9939 -1.4507 -1.3866
 5266TIP3   OH237432   4.020   1.244   0.185  0.0813  0.9616 -0.1521
 5266TIP3    H137433   3.940   1.273   0.141 -0.0147  0.6666 -0.1698
 5266TIP3    H237434   4.089   1.258   0.121 -0.3005 -1.2231 -1.0997
 5267TIP3   OH237435   2.725   6.695   0.908 -0.3512  0.0300  0.1914
 5267TIP3    H137436   2.782   6.652   0.843  1.1501  1.5810  0.4244
 5267TIP3    H237437   2.663   6.745   0.856  1.6878  2.3602 -0.1594
 5268TIP3   OH237438   1.596   0.368   6.479 -0.3026  0.1472  0.6472
 5268TIP3    H137439   1.541   0.315   6.422 -0.4277  0.0013  0.8982
 5268TIP3    H237440   1.670   0.393   6.425 -0.4622  0.0850  0.3956
 5269TIP3   OH237441   3.609   4.253   1.794  0.0904 -0.1949 -0.2746
 5269TIP3    H137442   3.522   4.271   1.829 -0.7743 -1.8770 -1.4283
 5269TIP3    H237443   3.609   4.290   1.706 -0.1464 -1.7930 -0.9773
 5270TIP3   OH237444   0.946   3.161   7.421 -0.1653 -0.4529  0.6689
 5270TIP3    H137445   0.966   3.067   7.415 -1.4851 -0.7853  1.1534
 5270TIP3    H237446   1.025   3.200   7.458  0.4055 -1.3699  0.4516
 5271TIP3   OH237447   0.827   5.656   0.502 -0.5571  0.1734  0.2658
 5271TIP3    H137448   0.788   5.569   0.505 -0.1157 -0.1758 -2.1432
 5271TIP3    H237449   0.907   5.648   0.554 -1.3184 -0.3798  1.3981
 5272TIP3   OH237450   1.671   4.017   7.363 -0.3164 -0.5432 -0.4628
 5272TIP3    H137451   1.733   3.980   7.427 -0.9536  0.5141  0.8151
 5272TIP3    H237452   1.677   3.958   7.288  0.4648 -1.8538  0.5678
 5273TIP3   OH237453   6.895   6.447   7.320 -0.6920  0.3583  1.0567
 5273TIP3    H137454   6.815   6.498   7.309  0.1537  1.9234  1.7839
 5273TIP3    H237455   6.965   6.507   7.292  0.2087 -1.1154  0.0152
 5274TIP3   OH237456   3.327   4.720   0.555 -0.2230 -0.4696 -0.4282
 5274TIP3    H137457   3.408   4.762   0.527  0.3761 -2.0567 -1.2007
 5274TIP3    H237458   3.289   4.781   0.618  1.1037  0.7328 -0.7436
 5275TIP3   OH237459   3.859   5.548   7.108  0.4462  0.0177 -0.2302
 5275TIP3    H137460   3.812   5.465   7.101  0.5266  0.0492 -1.2794
 5275TIP3    H237461   3.902   5.559   7.024  3.0502 -0.4062  0.9639
 5276TIP3   OH237462   1.444   2.322   1.240  1.0074  0.1990  0.0095
 5276TIP3    H137463   1.438   2.240   1.191  2.0525 -0.0338  0.2597
 5276TIP3    H237464   1.355   2.357   1.238  0.7766 -0.4105 -1.0038
 5277TIP3   OH237465   0.498   1.991   1.242  0.0405 -0.3742  0.1860
 5277TIP3    H137466   0.422   1.987   1.184  0.5300  1.3110 -0.6577
 5277TIP3    H237467   0.522   2.084   1.243  1.5621 -0.7431  1.1196
 5278TIP3   OH237468   0.639   6.533   8.171 -0.2571 -0.3585 -0.0824
 5278TIP3    H137469   0.693   6.454   8.166  2.6817  1.5813 -1.5919
 5278TIP3    H237470   0.656   6.579   8.089  0.0191  2.9327  1.6588
 5279TIP3   OH237471   0.833   0.109   8.439  0.5389  0.1580  0.0670
 5279TIP3    H137472   0.781   0.127   8.362  1.4810  0.9514 -0.4078
 5279TIP3    H237473   0.774   0.124   8.513  0.2558  1.6816 -0.4307
 5280TIP3   OH237474   3.159   2.494   6.462  0.2076 -0.1232  0.2307
 5280TIP3    H137475   3.159   2.429   6.392  0.8928 -3.6148  3.1981
 5280TIP3    H237476   3.071   2.488   6.500 -0.0638  1.5119 -0.0709
 5281TIP3   OH237477   1.314   5.298   6.685 -0.0088  0.1498  0.2610
 5281TIP3    H137478   1.257   5.249   6.625 -0.1794 -2.2510  2.1929
 5281TIP3    H237479   1.361   5.359   6.629 -0.4164 -1.6682 -2.2652
 5282TIP3   OH237480   0.334   6.541   8.426  0.0315 -0.2885 -0.1835
 5282TIP3    H137481   0.359   6.461   8.473 -0.9292  1.0368  2.8573
 5282TIP3    H237482   0.392   6.608   8.461 -1.1527  0.9079 -0.4626
 5283TIP3   OH237483   3.737   3.998   1.074  0.2802 -0.1790 -0.3307
 5283TIP3    H137484   3.799   4.041   1.132 -1.4123 -0.4343  1.8034
 5283TIP3    H237485   3.666   3.969   1.132 -0.7256 -1.9545 -2.2998
 5284TIP3   OH237486   6.234   0.400   0.073  0.3407  0.5078  0.4886
 5284TIP3    H137487   6.149   0.443   0.076 -0.5035 -1.0094 -0.3354
 5284TIP3    H237488   6.217   0.311   0.103  1.1674 -0.4845 -1.7748
 5285TIP3   OH237489   3.606   6.655   0.816  0.3351 -0.5374  0.3335
 5285TIP3    H137490   3.642   6.643   0.903  1.5938  3.1129  0.5000
 5285TIP3    H237491   3.527   6.708   0.830 -0.7437 -1.8319 -0.6168
 5286TIP3   OH237492   2.384   4.051   1.894 -0.0712 -0.4667 -0.5927
 5286TIP3    H137493   2.292   4.053   1.921  0.3939 -1.1381  1.2295
 5286TIP3    H237494   2.402   4.139   1.862 -1.0728 -0.0261  0.0100
 5287TIP3   OH237495   3.312   1.506   7.067 -0.0110 -0.0059 -0.1102
 5287TIP3    H137496   3.242   1.507   7.001  0.2946 -1.6413 -0.5096
 5287TIP3    H237497   3.336   1.598   7.078 -2.2804  0.6193  0.1147
 5288TIP3   OH237498   5.896   2.063   1.356 -0.3033 -0.0486  0.0016
 5288TIP3    H137499   5.883   1.989   1.296 -0.9341  0.1783 -0.1497
 5288TIP3    H237500   5.820   2.120   1.341  0.3297  0.7814 -0.0891
 5289TIP3   OH237501   4.891   2.272   0.813  0.5371  0.3563  0.7519
 5289TIP3    H137502   4.927   2.240   0.896 -0.5069  0.4950  1.2664
 5289TIP3    H237503   4.881   2.366   0.826  0.5754  0.4149  0.3790
 5290TIP3   OH237504   2.160   5.290   8.209 -0.5899 -0.6219  0.6727
 5290TIP3    H137505   2.116   5.318   8.290 -0.5088  0.5392  0.3321
 5290TIP3    H237506   2.186   5.372   8.167  0.4245 -1.2498  0.0470
 5291TIP3   OH237507   1.812   0.010   8.474  0.5226  0.0477  0.2572
 5291TIP3    H137508   1.781   0.055   8.553  1.3466  0.2880  0.4544
 5291TIP3    H237509   1.831  -0.079   8.504 -0.0765 -0.1294  0.1122
 5292TIP3   OH237510   0.098   6.016   2.111 -0.5525 -0.4026 -0.5462
 5292TIP3    H137511   0.069   5.928   2.134  0.4599 -0.8871 -1.0443
 5292TIP3    H237512   0.143   6.047   2.189  0.2594 -0.8684 -0.8139
 5293TIP3   OH237513   6.781   2.365   7.483  0.0400  0.0292 -0.1768
 5293TIP3    H137514   6.810   2.375   7.392  3.3130  2.4375  0.9168
 5293TIP3    H237515   6.810   2.277   7.508  3.5428  0.9970 -0.2644
 5294TIP3   OH237516   2.666   1.739   7.697 -0.2566 -0.2596  0.3990
 5294TIP3    H137517   2.665   1.643   7.705  0.1585 -0.1331  2.6916
 5294TIP3    H237518   2.758   1.763   7.708 -0.3989  0.4189  0.1659
 5295TIP3   OH237519   1.014   5.650   1.111  0.3918  0.8575  0.2561
 5295TIP3    H137520   0.965   5.731   1.098  2.5337  2.4885  1.5842
 5295TIP3    H237521   1.105   5.675   1.094  0.8724 -2.1879 -2.9611
 5296TIP3   OH237522   4.451   3.422   8.539  0.5757 -0.2671 -1.1865
 5296TIP3    H137523   4.504   3.346   8.513  1.7319  0.6979 -1.7261
 5296TIP3    H237524   4.513   3.495   8.542 -0.3389  0.4908  0.2410
 5297TIP3   OH237525   0.734   4.551   7.532  0.0110  0.1865  0.1800
 5297TIP3    H137526   0.787   4.597   7.467  0.5426 -0.0987  0.4013
 5297TIP3    H237527   0.789   4.478   7.561 -0.1961  0.3335  0.9842
 5298TIP3   OH237528   5.742   1.408   5.612 -0.7366  0.3422  0.4345
 5298TIP3    H137529   5.799   1.354   5.556 -0.5777  0.6847  0.2641
 5298TIP3    H237530   5.750   1.369   5.699  0.4659  0.9401  0.5998
 5299TIP3   OH237531   6.715   2.088   0.708 -0.0807 -0.3504  0.3361
 5299TIP3    H137532   6.725   2.129   0.794  1.1429 -1.6997  0.8888
 5299TIP3    H237533   6.621   2.082   0.695 -0.2959  2.1255  0.4329
 5300TIP3   OH237534   2.872   2.272   6.997  0.5178 -0.0559 -0.2118
 5300TIP3    H137535   2.842   2.218   6.924  4.6525 -0.4643 -1.9006
 5300TIP3    H237536   2.884   2.210   7.069  2.7769 -1.0760 -1.3603
 5301TIP3   OH237537   0.651   6.016   6.325  0.7913 -0.1215  0.1080
 5301TIP3    H137538   0.610   5.935   6.357 -0.4040  0.2807 -0.3905
 5301TIP3    H237539   0.718   5.985   6.264 -0.5235 -0.7300 -1.0941
 5302TIP3   OH237540   6.530   5.594   7.826 -0.2447  0.4491  0.0803
 5302TIP3    H137541   6.577   5.660   7.877 -1.0064 -0.4443  2.0277
 5302TIP3    H237542   6.454   5.571   7.880 -1.0930 -0.5562 -1.4725
 5303TIP3   OH237543   3.924   6.296   7.302 -0.4196  0.2157 -0.0087
 5303TIP3    H137544   4.014   6.326   7.300 -0.5182  0.5466  0.3546
 5303TIP3    H237545   3.925   6.211   7.257 -0.0066  0.4113 -0.3652
 5304TIP3   OH237546   4.229   5.956   2.352  0.2467  0.0154  0.3234
 5304TIP3    H137547   4.286   6.027   2.382 -0.2993  0.0502  1.3039
 5304TIP3    H237548   4.202   5.983   2.264  0.6424  0.6688  0.4000
 5305TIP3   OH237549   5.039   2.769   6.772 -0.7972  0.4679  0.7512
 5305TIP3    H137550   5.033   2.678   6.799  1.2971 -0.1029 -0.5393
 5305TIP3    H237551   4.951   2.789   6.737 -1.6349 -0.6510  2.1114
 5306TIP3   OH237552   0.605   4.677   0.924  0.1889 -0.0761  0.3807
 5306TIP3    H137553   0.553   4.754   0.901 -0.1191  0.1683  1.7980
 5306TIP3    H237554   0.549   4.628   0.985  0.1581 -1.7194 -0.8941
 5307TIP3   OH237555   1.910   1.500   7.057  0.2154 -0.4012 -0.5130
 5307TIP3    H137556   1.943   1.473   6.972  0.5949 -2.2817  0.1968
 5307TIP3    H237557   1.984   1.491   7.116 -0.3993 -0.4162  0.2781
 5308TIP3   OH237558   3.259   2.767   1.622 -0.0362 -0.2266 -0.5653
 5308TIP3    H137559   3.183   2.823   1.614  0.1274  0.1424  0.3748
 5308TIP3    H237560   3.333   2.822   1.596  0.3353  0.5671  1.9666
 5309TIP3   OH237561   4.744   0.116   7.370  0.1118 -0.4599  0.3160
 5309TIP3    H137562   4.706   0.077   7.449  1.2661 -0.6638  0.7867
 5309TIP3    H237563   4.817   0.058   7.348  1.2047  0.8502  0.4244
 5310TIP3   OH237564   5.944   5.323   0.210 -0.0686  0.4249  0.0904
 5310TIP3    H137565   6.023   5.357   0.253  1.9335 -1.3792 -1.9158
 5310TIP3    H237566   5.917   5.249   0.266  1.0735 -0.3894 -0.3964
 5311TIP3   OH237567   0.847   1.755   5.784 -0.6340 -0.1769  0.1374
 5311TIP3    H137568   0.807   1.797   5.860 -0.4647  1.2158 -0.5267
 5311TIP3    H237569   0.859   1.663   5.811 -0.6128  0.2823  1.7711
 5312TIP3   OH237570   0.286   4.494   1.666  0.3619  0.2426  0.4480
 5312TIP3    H137571   0.264   4.422   1.606  0.3195 -0.2002  0.9856
 5312TIP3    H237572   0.364   4.533   1.628  0.2738  0.0351  0.0430
 5313TIP3   OH237573   5.305   3.768   1.641  0.2867 -0.7534 -0.1326
 5313TIP3    H137574   5.388   3.738   1.679 -0.1978  0.5665  2.1074
 5313TIP3    H237575   5.246   3.694   1.652  1.0195 -1.5803 -1.4349
 5314TIP3   OH237576   5.922   5.631   7.463  0.0354 -0.5643 -0.1763
 5314TIP3    H137577   5.854   5.678   7.414  0.2378  0.5823  0.6111
 5314TIP3    H237578   5.874   5.580   7.527 -0.1098  1.9797  1.9278
 5315TIP3   OH237579   5.188   1.412   0.890 -0.4650 -0.4363  0.4980
 5315TIP3    H137580   5.212   1.412   0.982  1.3970 -1.3503  0.0718
 5315TIP3    H237581   5.194   1.320   0.864 -1.7242 -0.3037 -0.3696
 5316TIP3   OH237582   6.586   1.302   8.323  0.3160 -0.1079 -0.5285
 5316TIP3    H137583   6.499   1.273   8.350  0.1091  0.3995 -0.6487
 5316TIP3    H237584   6.583   1.397   8.331  0.7926 -0.0750 -0.7343
 5317TIP3   OH237585   5.883   2.455   6.387 -0.1427 -0.5184  0.1838
 5317TIP3    H137586   5.798   2.430   6.423  0.5381 -2.2989  0.6788
 5317TIP3    H237587   5.883   2.417   6.299 -0.2271  0.3090 -0.1754
 5318TIP3   OH237588   1.712   3.550   1.753  0.1329 -0.2807  0.7559
 5318TIP3    H137589   1.678   3.568   1.840 -0.0490  0.1315  0.6019
 5318TIP3    H237590   1.750   3.463   1.760 -1.6004 -1.0788  0.7420
 5319TIP3   OH237591   0.591   6.714   6.576  0.3191 -0.1008 -0.2540
 5319TIP3    H137592   0.499   6.737   6.590  0.1963 -0.8081  0.1326
 5319TIP3    H237593   0.617   6.764   6.499 -0.2867  0.3809 -0.1527
 5320TIP3   OH237594   4.755   5.737   7.300 -0.1769 -0.2247  0.1745
 5320TIP3    H137595   4.776   5.724   7.207  0.3311  0.0550  0.2459
 5320TIP3    H237596   4.840   5.749   7.342 -0.1403 -3.0728  1.1286
 5321TIP3   OH237597   0.910   1.559   7.230 -0.5449 -0.0785 -0.3155
 5321TIP3    H137598   0.897   1.549   7.325 -0.9641  0.5791 -0.2982
 5321TIP3    H237599   0.831   1.605   7.200 -0.2294  0.0737 -0.9183
 5322TIP3   OH237600   1.567   3.368   1.060 -0.3287 -1.0408 -0.0319
 5322TIP3    H137601   1.488   3.419   1.078 -1.1781 -0.8623 -3.5006
 5322TIP3    H237602   1.637   3.417   1.101 -1.5712  1.0375 -0.2525
 5323TIP3   OH237603   3.774   3.960   2.154 -0.4944 -0.4246  0.6172
 5323TIP3    H137604   3.703   3.901   2.179  0.4455 -0.9640  2.1519
 5323TIP3    H237605   3.844   3.942   2.218 -0.1653  2.3562  1.1631
 5324TIP3   OH237606   5.165   6.656   7.764 -0.3397  0.1035  0.1488
 5324TIP3    H137607   5.181   6.565   7.789  2.1507 -0.0197 -1.5092
 5324TIP3    H237608   5.181   6.706   7.843 -0.2026 -0.7855  0.6922
 5325TIP3   OH237609   0.660   4.375   8.134 -0.6009  0.4556 -0.4844
 5325TIP3    H137610   0.684   4.461   8.099 -2.2687  1.3569  0.4694
 5325TIP3    H237611   0.566   4.367   8.116 -0.5199 -1.0578 -0.3184
 5326TIP3   OH237612   0.512   4.939   7.432  0.4006 -0.3161  0.6310
 5326TIP3    H137613   0.531   4.871   7.367  0.1317  1.2393 -1.1799
 5326TIP3    H237614   0.587   4.998   7.427  0.4805 -0.2768  1.9380
 5327TIP3   OH237615   0.754   0.578   8.243  0.6866  0.0475  0.1313
 5327TIP3    H137616   0.825   0.521   8.211  1.7730  1.1969  0.4219
 5327TIP3    H237617   0.772   0.589   8.336  0.3320  0.6309  0.1368
 5328TIP3   OH237618   3.798   4.353   0.384 -0.2442 -0.4066  0.0550
 5328TIP3    H137619   3.820   4.342   0.477 -0.7375  0.1547  0.2388
 5328TIP3    H237620   3.717   4.304   0.373  0.6507 -1.8683 -0.4678
 5329TIP3   OH237621   3.402   5.032   1.011 -0.4287  0.3322 -0.4044
 5329TIP3    H137622   3.359   5.064   0.931 -0.8597  0.1268 -0.2577
 5329TIP3    H237623   3.436   5.110   1.054 -1.0855  0.5456 -0.2724
 5330TIP3   OH237624   4.744   4.440   1.179 -0.4457  0.0324  0.5546
 5330TIP3    H137625   4.805   4.513   1.192 -1.7305  1.1654  0.4988
 5330TIP3    H237626   4.683   4.472   1.111 -0.6107 -1.3793  0.0026
 5331TIP3   OH237627   4.579   1.902   7.387  0.4656 -0.5724 -0.1223
 5331TIP3    H137628   4.627   1.973   7.344  0.0463 -0.0999  0.1752
 5331TIP3    H237629   4.571   1.834   7.320 -1.0952  0.5679 -1.1455
 5332TIP3   OH237630   4.219   1.170   6.522  0.1433  0.0102  0.2332
 5332TIP3    H137631   4.189   1.183   6.431  1.4013  0.6703 -0.1084
 5332TIP3    H237632   4.161   1.101   6.556 -1.8349  1.2980 -0.3362
 5333TIP3   OH237633   3.855   4.561   0.237  0.3181  0.0764  0.0258
 5333TIP3    H137634   3.817   4.485   0.280  1.3176 -1.7342 -2.0935
 5333TIP3    H237635   3.928   4.526   0.185 -0.4140  2.1307 -2.6525
 5334TIP3   OH237636   0.980   2.142   8.002  0.1693 -0.1158  0.1364
 5334TIP3    H137637   0.966   2.175   7.914 -0.0590 -1.6032 -0.4189
 5334TIP3    H237638   1.075   2.132   8.009  0.4584  2.4639  1.0484
 5335TIP3   OH237639   0.067   4.744   0.473 -0.6983  0.1026 -1.1006
 5335TIP3    H137640   0.106   4.802   0.407  1.0657  0.8873  0.5680
 5335TIP3    H237641   0.105   4.772   0.556 -1.6819 -1.8806  0.0879
 5336TIP3   OH237642   0.554   0.813   0.370  0.0760  0.0847  0.0581
 5336TIP3    H137643   0.559   0.851   0.458  1.2336  0.4754 -0.1581
 5336TIP3    H237644   0.585   0.882   0.312 -1.5169  0.1321 -0.7710
 5337TIP3   OH237645   1.568   0.914   8.550  0.0451  0.1221  0.4080
 5337TIP3    H137646   1.596   0.840   8.605 -0.4399 -0.0164  0.4745
 5337TIP3    H237647   1.523   0.873   8.476  1.6712  0.2506 -0.6942
 5338TIP3   OH237648   5.420   3.934   7.061  0.1690  0.2802  0.1137
 5338TIP3    H137649   5.420   3.839   7.061  0.5140  0.2777  0.1612
 5338TIP3    H237650   5.356   3.958   6.993  1.4689 -0.0128 -1.2772
 5339TIP3   OH237651   0.908   6.081   1.717 -0.6114  0.6846  0.7409
 5339TIP3    H137652   0.968   6.023   1.669 -2.3338 -1.1051  0.6204
 5339TIP3    H237653   0.966   6.142   1.763  1.2285 -0.0084 -0.5233
 5340TIP3   OH237654   6.380   1.856   8.103 -0.1337  0.2372 -0.3994
 5340TIP3    H137655   6.347   1.918   8.038 -0.3303  1.0901  0.4847
 5340TIP3    H237656   6.313   1.788   8.108 -0.7732  0.8769 -0.1220
 5341TIP3   OH237657   1.575   5.134   1.415  0.3093  0.1304 -0.1545
 5341TIP3    H137658   1.620   5.157   1.333 -0.3702  1.9532 -0.0721
 5341TIP3    H237659   1.578   5.214   1.467 -1.0418 -0.3800  0.7737
 5342TIP3   OH237660   2.462   1.901   2.540 -0.0073  0.4776 -0.4534
 5342TIP3    H137661   2.531   1.959   2.507 -0.3152  0.6654 -0.7662
 5342TIP3    H237662   2.385   1.923   2.488 -0.0989 -0.2893 -0.6592
 5343TIP3   OH237663   3.663   5.633   1.846  0.5282 -0.7826  0.0772
 5343TIP3    H137664   3.713   5.714   1.831  1.4960 -1.0331  1.7285
 5343TIP3    H237665   3.657   5.593   1.759 -1.1274  1.6715 -1.0457
 5344TIP3   OH237666   1.456   0.063   7.365 -0.3690  0.2619 -0.3619
 5344TIP3    H137667   1.493  -0.008   7.416 -0.6989  0.0489 -0.4125
 5344TIP3    H237668   1.531   0.115   7.337 -0.2077  0.4985  0.5073
 5345TIP3   OH237669   2.835   5.463   6.660  0.6973 -0.0396 -0.6918
 5345TIP3    H137670   2.919   5.509   6.664 -0.1361  1.5997 -1.2426
 5345TIP3    H237671   2.770   5.532   6.657 -0.6856 -1.2837 -0.5299
 5346TIP3   OH237672   1.964   4.925   0.682  0.3755  0.1841  0.2614
 5346TIP3    H137673   1.877   4.886   0.688  0.0231  1.0924  1.1242
 5346TIP3    H237674   1.982   4.929   0.588  0.8008 -2.8397  0.1070
 5347TIP3   OH237675   1.597   6.173   1.682  0.5449  0.1632 -0.7486
 5347TIP3    H137676   1.558   6.215   1.759  1.9272  0.4123 -0.1438
 5347TIP3    H237677   1.523   6.142   1.631 -0.5208  2.6960 -0.8610
 5348TIP3   OH237678   1.361   3.205   8.622  0.4811  0.0385  0.0193
 5348TIP3    H137679   1.291   3.139   8.620 -1.5042  1.7593  3.0417
 5348TIP3    H237680   1.324   3.280   8.574  1.4430  0.0477 -0.7351
 5349TIP3   OH237681   5.733   3.490   7.150 -0.1543 -0.3427  0.6901
 5349TIP3    H137682   5.751   3.497   7.244  0.2076 -1.0018  0.6751
 5349TIP3    H237683   5.656   3.434   7.145  0.1678 -0.7818  0.5733
 5350TIP3   OH237684   5.742   5.907   0.860  0.2903  0.3388  0.4529
 5350TIP3    H137685   5.837   5.921   0.855  0.5004 -0.6489  1.3651
 5350TIP3    H237686   5.714   5.959   0.935  0.0101  1.0634 -0.1434
 5351TIP3   OH237687   3.657   5.470   1.216  0.2207 -0.0776  0.2481
 5351TIP3    H137688   3.734   5.516   1.248  0.6810 -0.5162 -0.2064
 5351TIP3    H237689   3.689   5.383   1.191 -0.0447  0.3205 -1.6218
 5352TIP3   OH237690   0.002   1.999   0.520 -0.1877  0.0748  0.2184
 5352TIP3    H137691  -0.028   1.958   0.440  1.4287 -1.0663  0.1388
 5352TIP3    H237692  -0.078   2.027   0.565 -1.1929 -0.6800 -1.0443
 5353TIP3   OH237693   0.311   0.189   6.690 -0.0178  0.2192  0.1368
 5353TIP3    H137694   0.218   0.211   6.687 -0.3288 -0.9395  0.6045
 5353TIP3    H237695   0.317   0.120   6.755  1.3865  1.1953  1.1001
 5354TIP3   OH237696   1.260   2.563   1.448 -0.2055  0.1395  0.0018
 5354TIP3    H137697   1.350   2.532   1.456 -0.1084  0.3190 -0.3800
 5354TIP3    H237698   1.218   2.501   1.388  0.4491  1.6912 -2.1318
 5355TIP3   OH237699   2.143   5.822   1.887 -0.1452  0.1978  0.8835
 5355TIP3    H137700   2.099   5.744   1.920  0.6602 -0.0095  1.5070
 5355TIP3    H237701   2.150   5.880   1.963  0.3262  0.3762  0.7144
 5356TIP3   OH237702   3.073   0.580   0.842  0.5261  0.3517 -0.1121
 5356TIP3    H137703   3.030   0.614   0.764  0.8626 -1.9709 -1.4254
 5356TIP3    H237704   3.003   0.538   0.892  0.2719  2.0272  1.0105
 5357TIP3   OH237705   5.000   1.907   8.482 -0.4648 -0.3784 -0.0734
 5357TIP3    H137706   4.986   1.998   8.455  1.7710  0.1317  0.2785
 5357TIP3    H237707   4.936   1.893   8.552  0.0671  1.4083  0.8437
 5358TIP3   OH237708   0.201   1.896   7.015 -0.5236 -0.0525  0.5002
 5358TIP3    H137709   0.133   1.958   7.042 -0.0314 -0.5754  3.2018
 5358TIP3    H237710   0.154   1.814   7.000 -0.7838  0.2123 -0.1976
 5359TIP3   OH237711   4.706   4.089   8.295  0.1041 -0.6627 -0.1452
 5359TIP3    H137712   4.775   4.027   8.273 -0.9611 -1.6493 -0.7843
 5359TIP3    H237713   4.680   4.127   8.211  1.7403  1.8276  0.3434
 5360TIP3   OH237714   6.549   3.703   7.689  0.2977  0.0662  0.5183
 5360TIP3    H137715   6.643   3.689   7.675  0.3802  0.9967  0.0726
 5360TIP3    H237716   6.535   3.794   7.664 -1.1397 -0.6767 -1.5982
 5361TIP3   OH237717   0.190   0.392   6.105 -0.4887 -0.0686  0.3475
 5361TIP3    H137718   0.239   0.372   6.025 -1.5321  0.3683 -0.4391
 5361TIP3    H237719   0.141   0.471   6.083 -0.0244  0.6417  1.7871
 5362TIP3   OH237720   4.262   3.915   8.078 -0.0946  0.4136 -0.5622
 5362TIP3    H137721   4.241   3.986   8.140 -1.2324 -0.3595 -0.0337
 5362TIP3    H237722   4.179   3.872   8.061  0.9240 -2.8501  1.6736
 5363TIP3   OH237723   4.266   2.099   7.908  0.8147 -0.3466 -0.5253
 5363TIP3    H137724   4.357   2.072   7.895  0.9445  0.6334 -1.7625
 5363TIP3    H237725   4.270   2.194   7.919  0.2455 -0.5678  2.6557
 5364TIP3   OH237726   1.912   1.022   7.639 -0.0919 -0.1561 -0.3028
 5364TIP3    H137727   1.825   0.984   7.650 -0.1049 -0.1449 -0.3681
 5364TIP3    H237728   1.969   0.946   7.623  0.1921 -0.3304  1.3997
 5365TIP3   OH237729   3.509   0.656   7.732 -0.3548 -0.2088 -0.9272
 5365TIP3    H137730   3.453   0.625   7.804  0.4794  0.6852  0.1414
 5365TIP3    H237731   3.579   0.706   7.775  2.3603 -2.7664 -2.0500
 5366TIP3   OH237732   4.021   4.272   8.419 -0.0852  0.2648  0.0431
 5366TIP3    H137733   3.981   4.295   8.335  0.0874 -1.9964 -0.7303
 5366TIP3    H237734   4.076   4.347   8.441  0.3178  0.6875 -2.1655
 5367TIP3   OH237735   1.638   3.214   1.676 -0.4582  0.4430 -0.2081
 5367TIP3    H137736   1.628   3.128   1.635 -1.9129  0.8919 -0.8849
 5367TIP3    H237737   1.663   3.195   1.766 -0.9146 -0.6950 -0.3041
 5368TIP3   OH237738   4.908   4.591   8.258  0.3984  0.2229  0.3526
 5368TIP3    H137739   4.839   4.608   8.322  0.1139  0.4106 -0.0017
 5368TIP3    H237740   4.881   4.510   8.215  0.8696 -0.2061  0.8426
 5369TIP3   OH237741   1.050   5.127   7.154 -0.5505  0.4416  0.2274
 5369TIP3    H137742   0.960   5.099   7.134 -1.2489  1.3715  1.8659
 5369TIP3    H237743   1.084   5.060   7.213  0.1853 -0.3659 -1.0612
 5370TIP3   OH237744   5.077   3.937   7.573 -0.3900  0.1426 -0.1952
 5370TIP3    H137745   5.110   3.859   7.527  0.4602  0.4072 -0.0559
 5370TIP3    H237746   5.137   4.007   7.547 -0.5843  0.5459  0.4180
 5371TIP3   OH237747   0.368   1.200   7.228  0.1626  0.4013  0.2959
 5371TIP3    H137748   0.442   1.253   7.199  0.7631 -1.3675 -1.6369
 5371TIP3    H237749   0.408   1.118   7.257 -0.9353  0.0368  0.8260
 5372TIP3   OH237750   6.633   2.114   1.302  0.3118  0.4903 -0.0497
 5372TIP3    H137751   6.638   2.123   1.397  2.1723  1.5557 -0.1923
 5372TIP3    H237752   6.610   2.202   1.271 -1.5454 -0.1281 -0.5670
 5373TIP3   OH237753   5.335   4.809   1.779  0.1312 -0.2566  0.1399
 5373TIP3    H137754   5.295   4.881   1.826  1.0439  1.5137 -1.6507
 5373TIP3    H237755   5.406   4.778   1.836 -0.5180 -0.0368  1.0848
 5374TIP3   OH237756   6.392   0.071   8.519  0.3006 -0.3405  0.3744
 5374TIP3    H137757   6.296   0.073   8.515  0.2425 -0.7222  1.2709
 5374TIP3    H237758   6.419   0.032   8.436 -0.2108  1.7112 -0.8236
 5375TIP3   OH237759   3.146   4.306   0.485  0.9344 -0.1287  0.9269
 5375TIP3    H137760   3.204   4.234   0.508 -0.6446 -1.4884  0.8957
 5375TIP3    H237761   3.113   4.339   0.568  1.8943  0.7992  0.9570
 5376TIP3   OH237762   1.407   2.654   1.848  0.2940  0.4408  0.3299
 5376TIP3    H137763   1.446   2.688   1.929 -1.9611 -0.7032  1.9903
 5376TIP3    H237764   1.313   2.664   1.861 -0.1189  1.3619 -2.7294
 5377TIP3   OH237765   1.938   2.044   7.399  0.2119  0.4069 -0.1930
 5377TIP3    H137766   1.937   2.009   7.488  1.8855 -1.7609 -0.9497
 5377TIP3    H237767   1.993   2.123   7.406  0.5387  0.1215  0.6412
 5378TIP3   OH237768   5.855   4.850   1.263  0.3874  0.3230 -0.5170
 5378TIP3    H137769   5.901   4.806   1.192  2.0480  0.0535  0.6630
 5378TIP3    H237770   5.908   4.927   1.282  0.3031  0.0723  0.8077
 5379TIP3   OH237771   4.575   1.156   6.267 -0.8480 -0.6163 -0.0355
 5379TIP3    H137772   4.630   1.103   6.210  0.5942  1.0432 -0.2226
 5379TIP3    H237773   4.505   1.188   6.211  0.1928  0.4586 -0.7554
 5380TIP3   OH237774   2.594   0.195   6.978 -0.1329  0.4001 -0.5397
 5380TIP3    H137775   2.676   0.171   7.022 -0.4886 -1.7264 -0.9607
 5380TIP3    H237776   2.621   0.253   6.907  0.9035  0.3732 -0.1819
 5381TIP3   OH237777   2.472   1.421   0.082 -0.0501  0.1504 -0.5149
 5381TIP3    H137778   2.546   1.361   0.070 -0.6630 -0.4636 -1.3572
 5381TIP3    H237779   2.398   1.363   0.103 -0.8776  0.4862 -2.3293
 5382TIP3   OH237780   6.797   0.945   2.122  0.6671  0.0444 -0.7878
 5382TIP3    H137781   6.823   0.962   2.213 -1.0794  1.1553 -0.4393
 5382TIP3    H237782   6.854   0.874   2.093  3.0436  1.3925  0.3230
 5383TIP3   OH237783   5.666   0.287   8.367  0.2602 -0.5273 -0.2161
 5383TIP3    H137784   5.753   0.263   8.401  0.6834 -1.0133 -1.5935
 5383TIP3    H237785   5.625   0.204   8.344 -1.0392 -0.3925  1.4162
 5384TIP3   OH237786   5.396   6.222   1.633 -0.2638 -0.3698  0.6025
 5384TIP3    H137787   5.452   6.233   1.556  1.3817  0.8629  1.8979
 5384TIP3    H237788   5.316   6.271   1.612  0.3994  0.4362 -0.0993
 5385TIP3   OH237789   6.802   4.129   1.771 -0.7021  0.1337  0.2317
 5385TIP3    H137790   6.791   4.061   1.837  0.9639  0.4727  0.8941
 5385TIP3    H237791   6.788   4.211   1.819  1.0334  0.4058  0.3286
 5386TIP3   OH237792   4.476   5.642   7.416  0.2210  0.2333  0.2636
 5386TIP3    H137793   4.526   5.674   7.341 -0.3621  1.6677  0.4393
 5386TIP3    H237794   4.384   5.652   7.390 -0.0380 -2.6602 -0.1785
 5387TIP3   OH237795   4.661   5.357   8.569 -0.0655 -0.8436 -0.0910
 5387TIP3    H137796   4.696   5.285   8.622 -0.8124 -0.0624  1.5082
 5387TIP3    H237797   4.586   5.318   8.523  0.0199 -1.2914  0.1469
 5388TIP3   OH237798   5.051   4.362   6.748  0.5366  0.1935 -0.4539
 5388TIP3    H137799   5.120   4.301   6.773  0.2957 -0.2819 -0.9231
 5388TIP3    H237800   4.989   4.309   6.697  0.4455  0.8812 -1.0739
 5389TIP3   OH237801   6.745   5.541   0.214  0.2774 -0.5343 -0.0141
 5389TIP3    H137802   6.724   5.616   0.159 -0.5090  0.1395  1.1830
 5389TIP3    H237803   6.832   5.560   0.248  0.1655 -0.2609  0.1222
 5390TIP3   OH237804   3.733   5.771   8.322 -0.1768  0.6361  0.2651
 5390TIP3    H137805   3.657   5.714   8.339  0.3057 -0.2060 -0.3585
 5390TIP3    H237806   3.772   5.784   8.409  0.3887 -0.9592  0.2767
 5391TIP3   OH237807   1.994   1.111   8.430 -0.5614  0.1654 -0.1107
 5391TIP3    H137808   1.923   1.088   8.491 -1.1594  0.4418 -0.7003
 5391TIP3    H237809   1.958   1.181   8.376 -0.3079 -0.6000 -1.3004
 5392TIP3   OH237810   4.639   6.041   8.186 -0.4060  0.1271 -0.2394
 5392TIP3    H137811   4.627   5.983   8.111 -0.9245 -3.2287  2.1695
 5392TIP3    H237812   4.551   6.066   8.212 -0.3183  0.2179 -0.0269
 5393TIP3   OH237813   3.635   4.932   1.233  0.5169  0.2686  0.4905
 5393TIP3    H137814   3.571   4.878   1.187 -0.2012  0.8864  0.7460
 5393TIP3    H237815   3.717   4.917   1.186  0.1932 -0.5282  0.1551
 5394TIP3   OH237816   5.957   2.978   7.706  0.4971  0.2030  0.1920
 5394TIP3    H137817   6.030   3.011   7.653  1.6969 -0.1450  1.5678
 5394TIP3    H237818   5.924   2.902   7.657  0.0959  1.2042 -1.1530
 5395TIP3   OH237819   0.584   4.239   1.783 -0.1751 -0.6996  0.1743
 5395TIP3    H137820   0.562   4.151   1.815 -1.7078 -0.3902  0.0301
 5395TIP3    H237821   0.599   4.227   1.689 -2.0578 -0.5598 -0.1776
 5396TIP3   OH237822   5.338   2.779   0.950 -0.6464 -1.0973 -0.0007
 5396TIP3    H137823   5.394   2.856   0.937 -0.3963 -1.1179  0.9380
 5396TIP3    H237824   5.266   2.811   1.003 -2.6380 -0.5784 -2.7663
 5397TIP3   OH237825   6.093   2.904   1.215 -0.4584 -0.7977 -0.6608
 5397TIP3    H137826   6.086   2.835   1.280 -2.3811  1.3636  1.6024
 5397TIP3    H237827   6.183   2.935   1.223 -0.7863 -0.2224  1.4636
 5398TIP3   OH237828   1.724   3.360   7.610 -0.0385 -0.0978  0.3280
 5398TIP3    H137829   1.696   3.321   7.692 -0.9791 -0.3720 -0.1087
 5398TIP3    H237830   1.646   3.361   7.555  0.1637  1.5525 -0.0106
 5399TIP3   OH237831   4.501   4.568   0.755 -0.2303 -0.2357  0.4849
 5399TIP3    H137832   4.486   4.490   0.809  1.6179 -0.6359  0.4695
 5399TIP3    H237833   4.594   4.564   0.732  0.0737  2.2998  1.0127
 5400TIP3   OH237834   1.330   3.088   7.163 -0.5989  0.1405 -0.0068
 5400TIP3    H137835   1.277   3.008   7.171  0.7222 -1.0673 -2.3442
 5400TIP3    H237836   1.412   3.067   7.207  0.4703 -0.5562 -2.2200
 5401TIP3   OH237837   1.114   0.742   0.283  0.4057  0.1150  0.6429
 5401TIP3    H137838   1.053   0.792   0.338  0.5995  0.0953  0.8780
 5401TIP3    H237839   1.186   0.802   0.265 -0.3946  0.6661 -0.9324
 5402TIP3   OH237840   2.914   4.147   1.233 -0.3134  0.0800 -0.2675
 5402TIP3    H137841   2.868   4.064   1.249  0.1977 -0.2113 -0.2835
 5402TIP3    H237842   2.983   4.150   1.299  2.6985 -1.7916 -2.9775
 5403TIP3   OH237843   1.064   4.616   1.675 -0.4046  0.4199  0.0183
 5403TIP3    H137844   1.006   4.645   1.605 -0.6031  1.2029  0.4994
 5403TIP3    H237845   1.152   4.624   1.638 -0.5739 -1.2345 -0.8873
 5404TIP3   OH237846   6.238   4.433   1.924  0.3526  0.2589  0.2318
 5404TIP3    H137847   6.245   4.470   2.012 -0.3035  1.6270 -0.2639
 5404TIP3    H237848   6.145   4.441   1.903  0.4793 -0.2144 -0.5323
 5405TIP3   OH237849   6.684   2.284   6.474  0.0742 -0.3808  0.2636
 5405TIP3    H137850   6.759   2.249   6.522 -0.4030 -0.2290  1.1378
 5405TIP3    H237851   6.611   2.276   6.534 -0.3550  0.7056 -0.0830
 5406TIP3   OH237852   0.900   0.523   7.916  0.2598  0.3964  0.5208
 5406TIP3    H137853   0.808   0.497   7.911  0.8807 -2.0575  0.8977
 5406TIP3    H237854   0.926   0.504   8.006  1.2237  0.8389  0.3541
 5407TIP3   OH237855   2.446   1.433   1.653  0.2091  0.6037  0.7901
 5407TIP3    H137856   2.379   1.501   1.654  2.0173  2.8375 -3.5951
 5407TIP3    H237857   2.413   1.366   1.594  0.5571  0.1424  1.1036
 5408TIP3   OH237858   6.582   0.726   1.023  0.2473 -0.0969 -0.1097
 5408TIP3    H137859   6.615   0.650   0.975 -0.0550  0.5924 -1.4632
 5408TIP3    H237860   6.487   0.713   1.025  0.0537  0.8768 -1.5406
 5409TIP3   OH237861   2.342   0.711   7.434  0.0371  0.2774 -0.5873
 5409TIP3    H137862   2.431   0.697   7.400 -0.2395 -0.5415 -0.9982
 5409TIP3    H237863   2.355   0.750   7.520  0.8069 -0.1497 -0.5029
 5410TIP3   OH237864   3.119   3.669   7.095  0.2835 -0.0154 -0.5674
 5410TIP3    H137865   3.211   3.677   7.121  0.1602  0.8726 -0.3620
 5410TIP3    H237866   3.115   3.589   7.043  0.9599 -0.6637  0.3435
 5411TIP3   OH237867   6.386   1.495   5.684 -0.0223  0.2199 -0.4596
 5411TIP3    H137868   6.295   1.468   5.697 -0.0646  0.2480 -0.6910
 5411TIP3    H237869   6.380   1.588   5.660  0.1066  0.3734  0.1068
 5412TIP3   OH237870   0.446   6.775   8.533 -0.3864  0.1561 -0.9293
 5412TIP3    H137871   0.451   6.752   8.626  0.8429 -1.5135 -1.3516
 5412TIP3    H237872   0.455   6.870   8.532  0.0578  0.1686  0.6463
 5413TIP3   OH237873   2.453   3.054   6.197  0.3937  0.0881 -0.3173
 5413TIP3    H137874   2.500   3.086   6.120 -0.5403 -0.2818 -1.0639
 5413TIP3    H237875   2.509   2.985   6.232  0.9245  0.3997 -0.5421
 5414TIP3   OH237876   3.660   0.842   1.421 -0.0560  0.2590 -0.0444
 5414TIP3    H137877   3.639   0.854   1.329 -2.2339 -0.1589  0.3417
 5414TIP3    H237878   3.683   0.749   1.429 -1.1897 -0.0246  0.0390
 5415TIP3   OH237879   4.048   2.362   6.197 -0.1651 -0.2255  0.8797
 5415TIP3    H137880   4.024   2.414   6.120  2.4973  0.3028  0.3099
 5415TIP3    H237881   3.970   2.363   6.252 -1.1136  2.0813 -0.3576
 5416TIP3   OH237882   0.225   1.363   6.087 -0.1534  0.1649 -0.4915
 5416TIP3    H137883   0.311   1.400   6.067 -0.2428 -0.0028 -1.2193
 5416TIP3    H237884   0.184   1.429   6.143  0.5372  0.1327  0.0737
 5417TIP3   OH237885   3.129   2.652   8.646  0.4124 -0.1925  0.5407
 5417TIP3    H137886   3.143   2.659   8.552  0.2383  0.3129  0.5508
 5417TIP3    H237887   3.092   2.565   8.658 -0.2089  0.0016  0.0627
 5418TIP3   OH237888   2.883   3.415   8.150 -0.1624  0.1136 -0.0734
 5418TIP3    H137889   2.895   3.501   8.108  0.3889  0.0001 -0.1557
 5418TIP3    H237890   2.957   3.363   8.119  0.3676  0.0911  1.1979
 5419TIP3   OH237891   4.588   1.813   7.679  0.3473  0.1927  0.1649
 5419TIP3    H137892   4.575   1.837   7.587  0.5386  2.8897  0.7647
 5419TIP3    H237893   4.669   1.762   7.678  0.7792  0.8468 -1.0855
 5420TIP3   OH237894   2.303   3.496   0.485 -0.3103 -0.0440  0.1301
 5420TIP3    H137895   2.377   3.460   0.436 -0.9421 -0.6254 -0.4330
 5420TIP3    H237896   2.242   3.525   0.417 -1.1162 -0.6775  0.5683
 5421TIP3   OH237897   1.101   2.429   2.190  0.3247  0.0405 -0.5525
 5421TIP3    H137898   1.065   2.516   2.207 -0.8900 -0.6259  0.5355
 5421TIP3    H237899   1.172   2.420   2.254 -0.7563 -0.4290  0.6362
 5422TIP3   OH237900   0.206   1.051   8.513  0.0271  0.0866  0.3321
 5422TIP3    H137901   0.201   1.143   8.539  0.0416  0.3707 -0.6496
 5422TIP3    H237902   0.134   1.009   8.561 -0.8122  0.8601 -0.2143
 5423TIP3   OH237903   0.880   3.079   1.375  0.1422 -0.3375 -0.0088
 5423TIP3    H137904   0.816   3.140   1.414 -1.8412 -2.7509  0.7437
 5423TIP3    H237905   0.951   3.076   1.439 -0.5411 -0.1337  0.7799
 5424TIP3   OH237906   1.411   0.941   7.183 -0.2085 -0.9450  0.0831
 5424TIP3    H137907   1.369   0.933   7.268  1.5965  1.8660  1.3781
 5424TIP3    H237908   1.501   0.911   7.198  0.0275 -0.7675 -0.9094
 5425TIP3   OH237909   2.730   2.934   7.800 -0.0255 -0.3793 -0.0115
 5425TIP3    H137910   2.806   2.896   7.755  0.1534  0.1439 -0.1515
 5425TIP3    H237911   2.767   2.983   7.873 -0.1814  0.3832 -0.4365
 5426TIP3   OH237912   5.143   5.288   7.702  0.3518  0.3494 -0.2277
 5426TIP3    H137913   5.143   5.296   7.797  0.0148 -0.5497 -0.1417
 5426TIP3    H237914   5.052   5.302   7.676  0.2833 -0.2668 -0.3335
 5427TIP3   OH237915   6.146   6.602   0.058  0.3133  0.0201  0.1725
 5427TIP3    H137916   6.105   6.600   0.144 -0.3794  0.1373 -0.1402
 5427TIP3    H237917   6.122   6.687   0.022  0.8453  0.0913 -0.0211
 5428TIP3   OH237918   5.721   2.775   7.211 -0.3637 -0.1559  0.2988
 5428TIP3    H137919   5.698   2.704   7.272 -0.2034 -1.6803 -1.3357
 5428TIP3    H237920   5.810   2.754   7.183 -0.8735 -0.2315 -1.3943
 5429TIP3   OH237921   1.028   5.725   7.432  0.1027 -0.1180 -0.2638
 5429TIP3    H137922   1.119   5.711   7.404 -0.3873  0.7381 -2.5591
 5429TIP3    H237923   0.979   5.729   7.350 -1.9001  0.2370  0.8899
 5430TIP3   OH237924   4.325   6.474   1.185 -0.0924 -0.0614 -0.1168
 5430TIP3    H137925   4.300   6.548   1.241 -0.9431 -0.7480  0.4373
 5430TIP3    H237926   4.368   6.413   1.244  0.6921  0.0113 -0.5930
 5431TIP3   OH237927   1.732   2.602   7.327 -0.0520  0.0874  0.1842
 5431TIP3    H137928   1.800   2.563   7.382 -0.4659  0.3150  0.8576
 5431TIP3    H237929   1.660   2.621   7.386 -0.9445 -0.6889 -0.6309
 5432TIP3   OH237930   2.782   6.892   6.698 -0.2743  0.6128 -0.6766
 5432TIP3    H137931   2.865   6.890   6.649  0.7580  1.8335  0.9266
 5432TIP3    H237932   2.747   6.979   6.681 -0.6221  0.5312 -0.3727
 5433TIP3   OH237933   5.023   0.921   6.500 -0.5584  0.2301 -0.0800
 5433TIP3    H137934   5.050   0.851   6.441  3.1717  1.0399  0.4426
 5433TIP3    H237935   4.941   0.954   6.463 -0.6135 -2.1315 -2.2547
 5434TIP3   OH237936   6.522   2.381   1.410  0.5301 -0.1048  0.7229
 5434TIP3    H137937   6.482   2.319   1.470 -0.1495  0.2064  0.6039
 5434TIP3    H237938   6.447   2.426   1.368  0.9337 -1.1327 -1.2182
 5435TIP3   OH237939   3.460   3.793   0.073  0.1346 -0.1143  0.7466
 5435TIP3    H137940   3.544   3.749   0.089  0.7193  0.4340 -0.6057
 5435TIP3    H237941   3.460   3.868   0.132 -1.4496 -2.4969  4.0517
 5436TIP3   OH237942   5.670   0.570   8.541 -0.3941  0.4837 -0.5801
 5436TIP3    H137943   5.753   0.523   8.527 -0.2227  0.2435  1.0347
 5436TIP3    H237944   5.682   0.614   8.625 -0.8855  2.7603 -1.6248
 5437TIP3   OH237945   0.263   5.364   7.924 -0.0837 -0.2090  0.1026
 5437TIP3    H137946   0.213   5.373   7.843 -1.6448 -0.4122  1.0016
 5437TIP3    H237947   0.230   5.435   7.980 -1.3749 -1.9476  1.6863
 5438TIP3   OH237948   5.457   1.448   1.581  0.2880  0.3149  0.3979
 5438TIP3    H137949   5.452   1.355   1.604  0.2570  0.4264  0.8462
 5438TIP3    H237950   5.478   1.492   1.663  0.7904  0.6583  0.0921
 5439TIP3   OH237951   6.345   4.222   7.795 -0.1435  0.2998 -0.3961
 5439TIP3    H137952   6.411   4.154   7.806 -1.4782 -0.8263  1.0346
 5439TIP3    H237953   6.334   4.230   7.700 -0.0159 -1.5691 -0.5932
 5440TIP3   OH237954   4.115   1.202   7.616  0.2302 -0.3637 -0.6179
 5440TIP3    H137955   4.144   1.202   7.707 -0.5465 -0.2454 -0.3551
 5440TIP3    H237956   4.034   1.254   7.617 -1.0218 -2.2214 -0.9627
 5441TIP3   OH237957   4.849   0.435   6.469  0.3528 -0.4465 -0.3868
 5441TIP3    H137958   4.863   0.518   6.514 -2.0627 -0.3214  0.2683
 5441TIP3    H237959   4.931   0.419   6.422  0.5730  2.7758 -1.3159
 5442TIP3   OH237960   5.794   5.624   6.027  0.2486 -0.3078  0.1067
 5442TIP3    H137961   5.734   5.663   5.963  0.8559  1.0523  0.3224
 5442TIP3    H237962   5.881   5.654   5.999  0.6096 -0.4946  1.0096
 5443TIP3   OH237963   2.041   6.015   0.233  0.1117 -0.1436 -0.3650
 5443TIP3    H137964   2.024   5.929   0.272 -1.2288  0.2530 -0.0079
 5443TIP3    H237965   2.130   6.009   0.198  0.6839 -1.1183  1.1508
 5444TIP3   OH237966   5.993   5.132   1.740 -0.1217 -0.3278  0.4839
 5444TIP3    H137967   5.905   5.094   1.742 -0.4790  0.4881  1.1446
 5444TIP3    H237968   6.039   5.091   1.812 -0.1626 -0.3058  0.5232
 5445TIP3   OH237969   1.403   6.331   7.674 -0.0254  0.3010 -0.1619
 5445TIP3    H137970   1.456   6.251   7.670  1.9864  1.5978 -0.9116
 5445TIP3    H237971   1.334   6.316   7.610 -0.0865 -1.0890  0.1880
 5446TIP3   OH237972   4.816   3.546   7.615  0.1123 -0.4893 -0.1854
 5446TIP3    H137973   4.847   3.529   7.526 -2.3768 -1.3195 -0.9716
 5446TIP3    H237974   4.853   3.475   7.667  0.8825 -0.4878 -0.7018
 5447TIP3   OH237975   4.126   5.221   8.015 -0.4421  0.1374  0.4358
 5447TIP3    H137976   4.149   5.255   7.928  0.9278  3.8522  2.0349
 5447TIP3    H237977   4.181   5.143   8.025 -0.4291 -0.2332 -1.8802
 5448TIP3   OH237978   6.623   6.153   1.685 -0.4792 -0.1197  0.2741
 5448TIP3    H137979   6.673   6.181   1.609 -0.6825 -1.0453 -0.2114
 5448TIP3    H237980   6.685   6.103   1.738 -0.4187  0.2729  0.5872
 5449TIP3   OH237981   4.071   6.095   6.785  0.0887 -0.2979 -0.4379
 5449TIP3    H137982   4.144   6.156   6.775  0.5355 -0.7535  0.0177
 5449TIP3    H237983   4.003   6.130   6.727 -1.1480  2.8123  2.5373
 5450TIP3   OH237984   2.049   2.813   7.169 -0.2189  0.3722  0.8722
 5450TIP3    H137985   1.954   2.804   7.177 -0.3202 -0.1865 -0.5125
 5450TIP3    H237986   2.077   2.850   7.252 -1.6941  0.8864  1.1793
 5451TIP3   OH237987   5.992   5.188   0.775 -0.0195  0.4324  0.2409
 5451TIP3    H137988   5.925   5.250   0.746 -0.4564  0.7114  1.8024
 5451TIP3    H237989   5.949   5.134   0.841  0.0314 -2.2721 -1.7208
 5452TIP3   OH237990   6.094   4.033   7.719 -0.0368 -0.2054  0.3296
 5452TIP3    H137991   6.060   3.995   7.639  0.0560 -0.0715  0.2256
 5452TIP3    H237992   6.089   4.128   7.705  1.0119 -0.1780  0.0295
 5453TIP3   OH237993   4.397   0.045   0.166  0.3846  0.5031 -0.1548
 5453TIP3    H137994   4.417   0.008   0.252 -0.0291  1.7719  0.5059
 5453TIP3    H237995   4.435   0.133   0.169  0.0923  0.6723 -1.1665
 5454TIP3   OH237996   6.117   3.314   0.640  0.9054 -0.2604  0.3839
 5454TIP3    H137997   6.179   3.323   0.713  1.2528 -0.1746  0.0807
 5454TIP3    H237998   6.107   3.219   0.629  0.0165 -0.2851  1.2391
 5455TIP3   OH237999   3.079   2.085   6.426 -0.0338  0.3317 -0.3877
 5455TIP3    H138000   3.003   2.083   6.368 -0.7105 -0.9653  0.4735
 5455TIP3    H238001   3.130   2.160   6.397 -2.5947  2.4570  0.1649
 5456TIP3   OH238002   4.515   3.006   6.296 -0.4237 -0.1306 -0.5237
 5456TIP3    H138003   4.510   3.101   6.305 -0.2381 -0.0870 -0.8789
 5456TIP3    H238004   4.450   2.973   6.359  1.6409  0.1164  1.9075
 5457TIP3   OH238005   5.120   0.960   1.466  1.1705  0.0332 -0.2598
 5457TIP3    H138006   5.103   0.941   1.558  2.1839  0.9701  0.1362
 5457TIP3    H238007   5.118   0.874   1.423  0.6757 -0.4048  0.6305
 5458TIP3   OH238008   2.062   4.535   0.445 -0.1017 -0.0899  0.2469
 5458TIP3    H138009   2.120   4.611   0.444 -0.9403  0.6084 -2.1094
 5458TIP3    H238010   1.983   4.566   0.490 -0.4608  0.5017 -0.7495
 5459TIP3   OH238011   0.390   5.880   6.551  0.0521 -0.1704 -1.0745
 5459TIP3    H138012   0.323   5.895   6.485 -0.9681  1.0950  0.1955
 5459TIP3    H238013   0.460   5.835   6.504 -0.3195  1.3233 -3.1884
 5460TIP3   OH238014   1.426   4.531   0.253  0.0012  0.2266 -0.3665
 5460TIP3    H138015   1.429   4.489   0.339  2.2234 -0.7275 -0.8482
 5460TIP3    H238016   1.333   4.529   0.228 -0.9061  1.5749  2.4599
 5461TIP3   OH238017   4.146   2.222   7.053 -0.0698  0.7697  0.0435
 5461TIP3    H138018   4.196   2.142   7.066 -0.9895  0.0247 -0.8206
 5461TIP3    H238019   4.086   2.225   7.128 -1.4074 -0.4578 -0.9022
 5462TIP3   OH238020   6.442   3.509   7.844 -0.6732 -0.3170 -0.6406
 5462TIP3    H138021   6.375   3.524   7.911  0.6312  0.2613  0.5767
 5462TIP3    H238022   6.476   3.597   7.824 -0.1428 -0.6228 -1.1019
 5463TIP3   OH238023   4.499   6.330   6.687 -0.0524  0.3076  0.0751
 5463TIP3    H138024   4.587   6.295   6.703 -0.0009  0.6112  0.4720
 5463TIP3    H238025   4.506   6.374   6.602  0.3368  0.8381  0.3778
 5464TIP3   OH238026   2.247   1.295   6.971 -0.8347  0.2769  0.2687
 5464TIP3    H138027   2.211   1.212   7.002  1.8214 -1.2120 -0.3025
 5464TIP3    H238028   2.297   1.329   7.045 -1.2863  0.9979  0.2528
 5465TIP3   OH238029   0.695   2.182   2.148 -0.2833 -0.2025  0.1441
 5465TIP3    H138030   0.694   2.129   2.228  1.8848 -0.3861  0.1082
 5465TIP3    H238031   0.633   2.252   2.164 -2.8361 -2.3648  0.4323
 5466TIP3   OH238032   3.717   1.443   7.928  0.6646  0.1354 -0.2033
 5466TIP3    H138033   3.660   1.499   7.875  1.2012  2.1106  1.1847
 5466TIP3    H238034   3.659   1.374   7.960 -0.5791  1.1233 -0.2203
 5467TIP3   OH238035   2.911   2.172   1.854  0.2278 -0.3845  0.1091
 5467TIP3    H138036   2.961   2.092   1.867 -0.2211 -0.8604 -0.9380
 5467TIP3    H238037   2.913   2.216   1.939  3.2711  0.1316 -0.1066
 5468TIP3   OH238038   1.917   0.868   8.337 -0.3150 -0.7079  0.0250
 5468TIP3    H138039   1.965   0.949   8.354  1.1220 -1.4196 -0.5345
 5468TIP3    H238040   1.830   0.898   8.310  0.8724  0.7675 -2.5311
 5469TIP3   OH238041   0.474   4.081   8.223 -0.5025  0.4105 -0.1954
 5469TIP3    H138042   0.442   4.146   8.161 -0.3792  0.5429 -0.1219
 5469TIP3    H238043   0.398   4.063   8.279 -0.3870  0.9057  0.1337
 5470TIP3   OH238044   5.073   3.754   6.909  0.3231 -0.0184  0.3477
 5470TIP3    H138045   5.077   3.659   6.899 -0.2411 -0.4914  3.4950
 5470TIP3    H238046   5.143   3.787   6.854  1.1071 -2.3378 -0.1425
 5471TIP3   OH238047   0.863   3.087   6.953 -0.2022  0.1403  0.0346
 5471TIP3    H138048   0.828   3.052   6.871 -0.4698  1.2390 -0.3341
 5471TIP3    H238049   0.941   3.034   6.969 -0.4273 -0.4300 -0.6515
 5472TIP3   OH238050   6.714   5.844   2.270  0.1638 -0.5311 -0.0536
 5472TIP3    H138051   6.795   5.793   2.257 -0.1177 -1.1381  0.5370
 5472TIP3    H238052   6.651   5.804   2.210  0.3338  0.0179 -0.5988
 5473TIP3   OH238053   6.125   6.425   8.159 -0.5070  0.0178 -0.2293
 5473TIP3    H138054   6.128   6.338   8.120 -0.5708  0.1421 -0.5101
 5473TIP3    H238055   6.082   6.480   8.094 -0.1461  0.3381 -0.2039
 5474TIP3   OH238056   3.682   4.081   8.002  0.2879  0.2485 -0.7804
 5474TIP3    H138057   3.747   4.010   8.002 -1.7273 -1.7152  0.1629
 5474TIP3    H238058   3.700   4.130   7.922  2.7562 -0.3165 -0.6719
 5475TIP3   OH238059   0.770   5.903   0.400 -0.1846 -0.0924  0.0050
 5475TIP3    H138060   0.694   5.892   0.343 -0.4658 -1.0758  0.5348
 5475TIP3    H238061   0.814   5.817   0.397 -0.3193 -0.2336  1.4045
 5476TIP3   OH238062   3.843   4.484   6.418 -0.3592  0.2860  0.2361
 5476TIP3    H138063   3.758   4.455   6.385  0.3645 -1.0106 -0.5510
 5476TIP3    H238064   3.822   4.555   6.479 -1.9821  0.1353 -0.1100
 5477TIP3   OH238065   3.737   1.471   0.396 -0.1745  0.4955 -0.1483
 5477TIP3    H138066   3.752   1.509   0.310  2.4645 -2.4760 -1.1908
 5477TIP3    H238067   3.674   1.401   0.381  0.1826  0.0581  0.3486
 5478TIP3   OH238068   5.949   6.438   0.853 -0.0982 -0.4552 -0.0568
 5478TIP3    H138069   5.896   6.433   0.773 -0.7599  0.2923  0.3191
 5478TIP3    H238070   5.925   6.522   0.892 -0.5861 -1.2781  1.4782
 5479TIP3   OH238071   6.875   4.150   6.475 -0.1107 -0.2630 -0.3006
 5479TIP3    H138072   6.951   4.209   6.477  0.9508 -1.6024 -0.2540
 5479TIP3    H238073   6.885   4.094   6.552 -1.7341  0.2194  0.2972
 5480TIP3   OH238074   2.844   2.540   8.330  0.0635  0.3668 -0.1057
 5480TIP3    H138075   2.777   2.539   8.262  0.3739  0.0952 -0.4129
 5480TIP3    H238076   2.821   2.466   8.388 -0.4796  0.8955  0.3666
 5481TIP3   OH238077   5.896   1.441   0.426  0.7782  0.8960 -0.2912
 5481TIP3    H138078   5.820   1.461   0.371  0.1359 -4.2609 -1.8124
 5481TIP3    H238079   5.860   1.410   0.508  0.9361 -2.3746 -1.3092
 5482TIP3   OH238080   3.991   4.174   7.726  0.8488  0.0018 -0.3634
 5482TIP3    H138081   4.066   4.115   7.739  1.3032  0.4751 -0.7676
 5482TIP3    H238082   3.998   4.203   7.635  1.1036  1.2847  0.0334
 5483TIP3   OH238083   1.129   0.122   7.774 -0.1089  0.2109  0.1916
 5483TIP3    H138084   1.194   0.151   7.711 -1.5241 -2.9793 -3.1073
 5483TIP3    H238085   1.155   0.033   7.798 -2.9629 -1.1318 -1.1420
 5484TIP3   OH238086   0.735   4.925   8.158 -0.2734  0.8176  0.4614
 5484TIP3    H138087   0.782   4.907   8.240  0.4992 -1.0870 -0.3537
 5484TIP3    H238088   0.804   4.952   8.097 -0.2586 -1.2864 -0.5380
 5485TIP3   OH238089   4.264   5.498   6.418 -0.3238 -0.1636  0.0026
 5485TIP3    H138090   4.250   5.531   6.329  0.5830 -0.1181 -0.1269
 5485TIP3    H238091   4.194   5.540   6.469 -1.7136 -1.2564 -0.9173
 5486TIP3   OH238092   5.704   0.565   6.990 -0.1406 -0.2769  0.1351
 5486TIP3    H138093   5.792   0.554   7.027 -0.7310 -0.5242  1.5084
 5486TIP3    H238094   5.650   0.593   7.063 -1.1276  0.3422 -0.7972
 5487TIP3   OH238095   0.199   4.439   7.117  0.3552 -0.7616  0.1398
 5487TIP3    H138096   0.246   4.482   7.045  0.0441 -0.2230  0.2486
 5487TIP3    H238097   0.107   4.442   7.092 -0.2927  2.8949  2.1718
 5488TIP3   OH238098   6.680   6.807   0.840 -0.1406  0.3578 -0.3328
 5488TIP3    H138099   6.605   6.754   0.869 -0.1078  0.6618  0.3180
 5488TIP3    H238100   6.744   6.743   0.809  0.3851 -0.0889  1.5606
 5489TIP3   OH238101   0.872   5.991   2.147  0.4182  0.2648  0.3277
 5489TIP3    H138102   0.920   5.937   2.084  0.4635 -0.4310  0.9326
 5489TIP3    H238103   0.785   5.951   2.152  0.7180 -0.3125  1.4153
 5490TIP3   OH238104   4.971   3.076   0.512 -0.6371 -0.3209  0.0832
 5490TIP3    H138105   4.987   3.116   0.598 -1.0077 -2.0625  1.0340
 5490TIP3    H238106   5.040   3.010   0.505 -0.5096 -0.0734 -1.0606
 5491TIP3   OH238107   6.681   0.552   8.539 -0.0151  0.5260  0.1855
 5491TIP3    H138108   6.749   0.607   8.576  0.0619  0.4721  0.1238
 5491TIP3    H238109   6.611   0.553   8.604 -0.5373  1.7132 -0.3749
 5492TIP3   OH238110   6.780   4.825   6.952  0.0976 -0.4576  0.6084
 5492TIP3    H138111   6.762   4.917   6.933  1.8673 -0.1536  0.2457
 5492TIP3    H238112   6.727   4.777   6.889 -1.4857  0.2539  1.3323
 5493TIP3   OH238113   5.709   1.500   0.243 -0.1505 -0.3653 -0.7340
 5493TIP3    H138114   5.726   1.443   0.167  0.5381 -0.9527 -0.1605
 5493TIP3    H238115   5.636   1.555   0.216  1.2260  0.7015 -2.5079
 5494TIP3   OH238116   6.295   0.440   7.312  0.7564  0.0890 -0.3829
 5494TIP3    H138117   6.319   0.463   7.401  1.4153 -0.7692 -0.3247
 5494TIP3    H238118   6.222   0.498   7.291  0.3805  0.0806  0.8271
 5495TIP3   OH238119   6.059   4.721   0.778 -0.5896 -0.4963  0.2084
 5495TIP3    H138120   6.066   4.630   0.809 -0.5446 -0.4773  0.2540
 5495TIP3    H238121   6.011   4.714   0.695 -2.4001 -0.3739  1.1945
 5496TIP3   OH238122   0.509   3.732   6.571  0.0706 -0.0668 -0.3348
 5496TIP3    H138123   0.443   3.674   6.535  0.0074  0.3618 -0.9227
 5496TIP3    H238124   0.579   3.674   6.600  1.4148 -0.3685 -3.6792
 5497TIP3   OH238125   2.191   5.424   7.634  0.1095  0.0103 -0.1413
 5497TIP3    H138126   2.173   5.361   7.564  1.9082  0.8984 -1.4703
 5497TIP3    H238127   2.229   5.500   7.590 -0.1600  1.2572  1.6440
 5498TIP3   OH238128   0.906   4.501   0.180  0.1275 -0.0647  0.5047
 5498TIP3    H138129   0.877   4.474   0.267 -0.0388  1.0255  0.8081
 5498TIP3    H238130   0.889   4.425   0.124 -0.6749 -0.4376  1.2295
 5499TIP3   OH238131   1.376   3.691   7.662 -0.6014 -0.1450 -0.1653
 5499TIP3    H138132   1.412   3.625   7.721 -0.5486 -0.0793 -0.1235
 5499TIP3    H238133   1.446   3.709   7.600 -0.6852 -0.2715 -0.2958
 5500TIP3   OH238134   2.587   3.484   0.448  0.2340 -0.0645 -0.6974
 5500TIP3    H138135   2.572   3.494   0.354 -1.1533 -0.8348 -0.5889
 5500TIP3    H238136   2.649   3.411   0.455  1.2216  0.7344 -1.0444
 5501TIP3   OH238137   6.308   4.111   1.452 -0.3697  0.0421 -0.3452
 5501TIP3    H138138   6.398   4.084   1.470  0.1994  1.8358 -0.2954
 5501TIP3    H238139   6.282   4.060   1.376  0.3261 -1.2109  0.2307
 5502TIP3   OH238140   2.714   3.463   8.362  0.1019  0.5392  0.0566
 5502TIP3    H138141   2.667   3.380   8.362 -0.0463  0.5858 -1.9811
 5502TIP3    H238142   2.778   3.455   8.291 -0.4627  2.4484 -0.7201
 5503TIP3   OH238143   1.866   1.295   8.244  0.1046 -0.2973 -0.1356
 5503TIP3    H138144   1.918   1.286   8.164  1.0543 -1.1746  0.5564
 5503TIP3    H238145   1.907   1.367   8.291 -1.4922  1.3881 -1.1603
 5504TIP3   OH238146   4.005   2.006   0.750  0.5273  0.1227 -0.3555
 5504TIP3    H138147   3.997   2.102   0.748  2.0925  0.3069  0.7286
 5504TIP3    H238148   3.952   1.976   0.676 -0.7480  1.7628 -0.1712
 5505TIP3   OH238149   2.894   4.728   0.958  0.2933 -0.0680 -0.1900
 5505TIP3    H138150   2.821   4.676   0.926 -0.3255 -0.0729  1.1702
 5505TIP3    H238151   2.964   4.713   0.894 -0.8051 -0.2542 -1.3716
 5506TIP3   OH238152   6.107   5.695   6.694  0.1361  0.2366 -0.6608
 5506TIP3    H138153   6.024   5.736   6.716  0.3967  1.0892 -1.2419
 5506TIP3    H238154   6.090   5.648   6.612  0.2342  0.4701 -0.8184
 5507TIP3   OH238155   1.959   4.545   7.218 -0.4100  0.0814 -0.0706
 5507TIP3    H138156   1.887   4.606   7.200  1.4780  2.4445 -0.1824
 5507TIP3    H238157   1.935   4.464   7.173 -2.4488  1.1439 -1.0099
 5508TIP3   OH238158   0.977   0.440   8.168  0.5710  0.3032 -0.3384
 5508TIP3    H138159   0.997   0.348   8.150  2.5390  0.3173  1.3226
 5508TIP3    H238160   1.056   0.473   8.212 -0.4336  2.5525 -0.1005
 5509TIP3   OH238161   6.489   3.216   0.914  0.2050  0.2369  0.3301
 5509TIP3    H138162   6.479   3.240   0.822  1.9165  2.0797  0.5730
 5509TIP3    H238163   6.410   3.251   0.956  0.3777  1.1882 -0.1208
 5510TIP3   OH238164   5.998   3.462   8.005  0.5114 -0.1030 -0.1396
 5510TIP3    H138165   5.925   3.524   8.018 -0.7084 -1.3612 -0.6796
 5510TIP3    H238166   5.958   3.376   8.020  1.9040 -0.8289 -0.4881
 5511TIP3   OH238167   4.976   5.596   0.498 -0.2012 -0.0299 -0.3830
 5511TIP3    H138168   5.009   5.672   0.545 -1.6630 -0.0093  0.7061
 5511TIP3    H238169   5.021   5.597   0.414  1.5173  0.7027  0.4965
 5512TIP3   OH238170   2.089   5.495   1.590  1.0649 -0.1384  0.0479
 5512TIP3    H138171   2.085   5.440   1.512 -0.8303  0.7548 -0.5671
 5512TIP3    H238172   2.144   5.447   1.652  3.0864 -0.6075 -2.0007
 5513TIP3   OH238173   6.226   3.600   7.967  0.7424  0.0096  0.4362
 5513TIP3    H138174   6.150   3.543   7.981  1.2562 -0.1010  3.6222
 5513TIP3    H238175   6.188   3.687   7.949 -0.0860 -0.4499 -0.0911
 5514TIP3   OH238176   0.727   4.934   1.364 -0.4416  0.0321  0.6000
 5514TIP3    H138177   0.743   4.960   1.273 -1.1823 -2.2218 -0.2550
 5514TIP3    H238178   0.809   4.953   1.409 -0.3433  1.9694 -0.3239
 5515TIP3   OH238179   3.781   4.886   7.517  0.8763 -0.1826 -0.0091
 5515TIP3    H138180   3.702   4.909   7.468  0.5998 -1.0824 -0.0057
 5515TIP3    H238181   3.844   4.954   7.493  0.2860  0.2301 -0.4547
 5516TIP3   OH238182   1.583   2.155   8.640 -0.0974  0.1173 -0.6419
 5516TIP3    H138183   1.612   2.240   8.606 -0.9669 -0.1325 -2.0794
 5516TIP3    H238184   1.621   2.150   8.728  0.6190  1.6431 -0.8371
 5517TIP3   OH238185   2.125   5.221   7.459 -0.0473  0.9677  0.4809
 5517TIP3    H138186   2.166   5.192   7.377 -1.0407 -0.4863  0.4689
 5517TIP3    H238187   2.092   5.141   7.499 -2.2445  1.9945  0.8428
 5518TIP3   OH238188   2.388   2.120   0.475  0.0909 -0.0247 -0.2299
 5518TIP3    H138189   2.358   2.207   0.503  0.3249 -0.3788  1.1941
 5518TIP3    H238190   2.374   2.064   0.551  4.7535 -0.1318  0.7908
 5519TIP3   OH238191   2.324   0.029   0.302 -0.0692 -1.0642 -0.1765
 5519TIP3    H138192   2.287  -0.049   0.259  1.8257 -1.7344 -0.6908
 5519TIP3    H238193   2.404  -0.003   0.344  1.2391  0.7752 -1.1435
 5520TIP3   OH238194   5.509   1.144   0.137 -0.5307 -0.0488  0.4926
 5520TIP3    H138195   5.550   1.215   0.087  1.3258 -0.9654  0.6274
 5520TIP3    H238196   5.560   1.066   0.114 -1.3331 -0.9964  1.7752
 5521TIP3   OH238197   2.234   6.344   0.661 -0.2778 -0.0592  0.3927
 5521TIP3    H138198   2.318   6.387   0.651 -0.0305 -0.1833  1.8145
 5521TIP3    H238199   2.176   6.391   0.600  0.8274 -0.0853 -0.7212
 5522TIP3   OH238200   5.450   0.876   8.506  0.1842 -0.4821 -0.4606
 5522TIP3    H138201   5.531   0.898   8.459 -0.0451  0.5044 -0.4173
 5522TIP3    H238202   5.425   0.790   8.473  0.2575  0.0065 -1.8290
 5523TIP3   OH238203   2.841   5.495   2.438  0.0162  0.0817  0.5374
 5523TIP3    H138204   2.763   5.500   2.494  0.3821  0.6338  1.0191
 5523TIP3    H238205   2.899   5.434   2.484 -0.5687 -1.2345 -0.4026
 5524TIP3   OH238206   6.237   1.564   6.490  0.2493  0.0094 -0.2541
 5524TIP3    H138207   6.204   1.505   6.558  1.1241  0.7088  0.8042
 5524TIP3    H238208   6.266   1.505   6.420  0.2751 -0.7703  0.3913
 5525TIP3   OH238209   2.498   4.624   1.698 -0.6583  0.5449 -0.1131
 5525TIP3    H138210   2.495   4.530   1.680 -0.1737  0.5438 -0.1838
 5525TIP3    H238211   2.408   4.646   1.721 -0.6092 -0.0917  0.7092
 5526TIP3   OH238212   5.870   6.177   0.966 -0.6755  0.1326 -0.5637
 5526TIP3    H138213   5.898   6.127   0.890  1.4551 -1.5058  1.1597
 5526TIP3    H238214   5.903   6.266   0.950 -1.2782  0.1140 -2.0277
 5527TIP3   OH238215   5.519   6.804   6.734  0.0947 -0.2653 -0.1358
 5527TIP3    H138216   5.612   6.785   6.743  0.3118 -1.2376 -3.3450
 5527TIP3    H238217   5.516   6.887   6.685 -0.7828  0.2317  0.7013
 5528TIP3   OH238218   5.087   3.463   0.756  0.5710  0.2935  0.7635
 5528TIP3    H138219   5.023   3.407   0.800  1.3397 -0.0172  1.5352
 5528TIP3    H238220   5.107   3.531   0.821  0.6600  0.6726  0.3437
 5529TIP3   OH238221   5.350   5.699   7.960  0.0018  0.5271 -0.0881
 5529TIP3    H138222   5.263   5.690   7.920  0.8114 -1.3142 -1.6224
 5529TIP3    H238223   5.341   5.771   8.021 -2.7532  0.0454  0.2111
 5530TIP3   OH238224   4.616   3.598   0.391  0.3021 -0.0487 -0.3742
 5530TIP3    H138225   4.568   3.571   0.312  0.6195  1.4690 -1.1193
 5530TIP3    H238226   4.550   3.638   0.447 -0.3002 -2.7750  1.0232
 5531TIP3   OH238227   4.573   6.422   8.484  1.1746  0.0007  0.3702
 5531TIP3    H138228   4.559   6.342   8.534  2.0657 -0.0934  0.4914
 5531TIP3    H238229   4.487   6.446   8.451  1.0353 -1.5246 -0.4539
 5532TIP3   OH238230   1.770   4.063   7.799 -0.3517 -0.3846  0.0052
 5532TIP3    H138231   1.800   4.062   7.708 -2.8899 -1.4187 -0.9351
 5532TIP3    H238232   1.738   3.974   7.814  0.4191 -0.3568  2.0909
 5533TIP3   OH238233   3.540   3.129   1.215  0.4829 -0.4799  0.1159
 5533TIP3    H138234   3.560   3.167   1.130  0.3941 -0.9110 -0.0982
 5533TIP3    H238235   3.463   3.177   1.245 -1.4415 -2.4303 -1.4557
 5534TIP3   OH238236   5.448   6.647   1.032 -0.3901  0.6751 -0.5686
 5534TIP3    H138237   5.413   6.714   1.091  2.1603  1.4318  0.2115
 5534TIP3    H238238   5.481   6.579   1.091 -2.2178 -1.0016 -1.3337
 5535TIP3   OH238239   1.613   2.826   8.062  0.2293  0.7948 -0.1386
 5535TIP3    H138240   1.583   2.817   8.152 -0.5102  0.8482 -0.3678
 5535TIP3    H238241   1.672   2.901   8.063 -0.4777  1.3487  0.1343
 5536TIP3   OH238242   5.065   6.074   6.690  0.1763  0.1480 -0.2467
 5536TIP3    H138243   5.150   6.040   6.717  0.2692  0.7567  0.2553
 5536TIP3    H238244   5.066   6.166   6.717 -0.7618  0.0865  0.0457
 5537TIP3   OH238245   4.801   0.947   6.838  0.1284  0.5270 -0.5166
 5537TIP3    H138246   4.841   1.001   6.770  0.6961  0.7817  0.0048
 5537TIP3    H238247   4.710   0.939   6.812  0.6484 -0.7158 -2.1639
 5538TIP3   OH238248   3.554   3.566   1.152  0.7005  0.3229 -0.9566
 5538TIP3    H138249   3.581   3.658   1.154  0.4435  0.4252 -1.8052
 5538TIP3    H238250   3.519   3.549   1.239 -0.6096  1.4409 -1.2449
 5539TIP3   OH238251   0.399   5.879   0.610  0.2900 -0.4914 -0.1041
 5539TIP3    H138252   0.361   5.806   0.660 -0.7069 -1.5635 -2.3087
 5539TIP3    H238253   0.337   5.951   0.621  0.7726 -0.2460  1.2604
 5540TIP3   OH238254   3.898   2.125   1.467  0.1143 -0.5192  0.6222
 5540TIP3    H138255   3.957   2.123   1.542  1.5390 -1.8455 -0.4796
 5540TIP3    H238256   3.906   2.038   1.428  2.7112  1.2896 -3.4978
 5541TIP3   OH238257   3.675   5.789   0.673 -0.1701  0.1272 -0.0754
 5541TIP3    H138258   3.607   5.723   0.679  0.8319 -0.9652 -0.2272
 5541TIP3    H238259   3.734   5.756   0.605  0.6791  0.8685  0.2797
 5542TIP3   OH238260   4.115   0.768   1.494 -0.3521  1.0178 -0.2922
 5542TIP3    H138261   4.166   0.742   1.571 -1.2747 -0.7586 -0.2278
 5542TIP3    H238262   4.086   0.857   1.513  1.9790  1.7872  0.0334
 5543TIP3   OH238263   4.481   2.635   6.997 -0.1795 -0.4689 -0.5913
 5543TIP3    H138264   4.410   2.669   6.943  0.3349  0.7772 -0.5413
 5543TIP3    H238265   4.439   2.602   7.076 -0.5600  3.2104  0.9354
 5544TIP3   OH238266   2.649   3.634   1.145  0.1344  0.1687  0.5085
 5544TIP3    H138267   2.583   3.623   1.214 -0.5497  1.5765  0.0898
 5544TIP3    H238268   2.728   3.595   1.183 -1.1650 -2.7064  0.5445
 5545TIP3   OH238269   2.679   6.888   1.943 -0.9758 -0.2717  0.0056
 5545TIP3    H138270   2.728   6.893   1.860 -0.5329  0.0959  0.2830
 5545TIP3    H238271   2.655   6.978   1.961 -1.0444 -0.3483  0.2944
 5546TIP3   OH238272   2.824   1.142   6.355 -0.3469 -0.1655  0.3129
 5546TIP3    H138273   2.831   1.082   6.430 -1.9064 -0.6119  0.1339
 5546TIP3    H238274   2.733   1.170   6.355  0.0013  1.0615 -0.5155
 5547TIP3   OH238275   0.695   0.773   0.028 -0.0938  0.4082  0.2473
 5547TIP3    H138276   0.648   0.707   0.079 -0.8286  0.0419 -0.8659
 5547TIP3    H238277   0.788   0.750   0.040 -0.3260 -0.7318  0.0345
 5548TIP3   OH238278   6.270   2.400   6.682 -0.1471  0.3930  0.1615
 5548TIP3    H138279   6.331   2.457   6.635 -0.5470  1.1085  0.5085
 5548TIP3    H238280   6.215   2.362   6.613  0.0333  0.5244 -0.0549
 5549TIP3   OH238281   4.772   4.158   1.077  0.0141 -0.0531  0.2838
 5549TIP3    H138282   4.826   4.235   1.058  1.3841 -0.9318  0.4930
 5549TIP3    H238283   4.780   4.145   1.172 -0.2808 -0.4054  0.2642
 5550TIP3   OH238284   3.080   5.221   8.086  0.5144 -0.1113 -0.3878
 5550TIP3    H138285   3.096   5.162   8.160 -1.1929 -0.5119 -0.2982
 5550TIP3    H238286   3.003   5.184   8.042 -0.5109  1.9295 -0.4493
 5551TIP3   OH238287   2.917   5.738   1.447  0.3701  0.1029  0.2528
 5551TIP3    H138288   2.904   5.829   1.474 -0.7252  0.1542 -0.4036
 5551TIP3    H238289   2.859   5.727   1.373 -0.7639 -1.6144  1.3433
 5552TIP3   OH238290   3.545   1.606   0.028 -0.2242  0.0695 -0.4366
 5552TIP3    H138291   3.493   1.638   0.102 -0.1658  1.5426 -0.9909
 5552TIP3    H238292   3.632   1.590   0.065 -0.6536 -0.9667  0.1786
 5553TIP3   OH238293   5.909   6.472   7.917  0.2904  0.2943  0.5798
 5553TIP3    H138294   5.815   6.485   7.899  0.7882  0.6365 -2.3480
 5553TIP3    H238295   5.923   6.378   7.903  0.7373  0.6099 -1.4981
 5554TIP3   OH238296   6.742   4.745   6.250 -0.0745 -0.3210  0.5313
 5554TIP3    H138297   6.764   4.826   6.298 -0.1449 -0.6520  1.1392
 5554TIP3    H238298   6.789   4.752   6.167  0.9197 -0.2199  1.0896
 5555TIP3   OH238299   6.785   6.866   0.009 -0.0592  0.5180 -0.0192
 5555TIP3    H138300   6.690   6.875   0.005 -0.0274  0.5019 -1.8490
 5555TIP3    H238301   6.818   6.941  -0.040  0.7018 -1.3162 -2.5427
 5556TIP3   OH238302   2.698   2.933   0.727 -0.3216  0.3681 -0.1161
 5556TIP3    H138303   2.768   2.948   0.790 -0.9416  1.8129  0.2833
 5556TIP3    H238304   2.630   2.887   0.777 -1.2833  2.4790  0.6905
 5557TIP3   OH238305   0.330   0.554   6.730  0.5713  0.0653 -0.2412
 5557TIP3    H138306   0.368   0.475   6.690  0.2890 -0.4086  0.4009
 5557TIP3    H238307   0.346   0.623   6.666  1.4577 -0.3646 -0.5085
 5558TIP3   OH238308   5.320   1.590   8.475  0.0617 -0.2655 -0.3280
 5558TIP3    H138309   5.299   1.499   8.455 -0.6044 -0.0142 -0.8060
 5558TIP3    H238310   5.268   1.641   8.414 -0.0237  0.4632  0.3317
 5559TIP3   OH238311   4.888   4.516   8.645 -0.1275 -0.3030 -0.0314
 5559TIP3    H138312   4.849   4.591   8.599  0.7719  1.7360  2.3071
 5559TIP3    H238313   4.948   4.478   8.581 -1.4168  0.2358 -1.6484
 5560TIP3   OH238314   1.969   0.321   1.829  0.1893 -0.6386 -0.2726
 5560TIP3    H138315   2.036   0.317   1.896  1.8842 -0.2966 -1.8633
 5560TIP3    H238316   1.917   0.241   1.842  1.7031 -1.5802  0.2139
 5561TIP3   OH238317   0.676   0.554   0.341 -0.3514  0.2874  0.1315
 5561TIP3    H138318   0.629   0.498   0.403 -1.6376  0.5365 -0.5768
 5561TIP3    H238319   0.654   0.643   0.368 -0.6679  0.4010 -0.4862
 5562TIP3   OH238320   3.087   3.355   8.449 -0.7304 -0.1272  0.9860
 5562TIP3    H138321   2.997   3.322   8.445 -1.1085  0.9532 -1.8295
 5562TIP3    H238322   3.078   3.446   8.477 -0.5672  0.0918  0.3371
 5563TIP3   OH238323   2.783   1.444   0.727  0.6558 -0.2898  0.4348
 5563TIP3    H138324   2.809   1.355   0.749 -0.7479 -0.8904 -0.2488
 5563TIP3    H238325   2.860   1.497   0.747  0.7009 -1.2580  3.3887
 5564TIP3   OH238326   1.122   0.378   5.990  0.0625 -0.0559  0.6106
 5564TIP3    H138327   1.207   0.381   5.947 -0.2517  0.6134  0.0181
 5564TIP3    H238328   1.076   0.305   5.947 -0.5920  1.1903 -0.8722
 5565TIP3   OH238329   0.493   3.833   6.215 -0.1036 -0.3996 -0.1710
 5565TIP3    H138330   0.566   3.772   6.206  0.6247  0.3441  0.6063
 5565TIP3    H238331   0.522   3.897   6.280 -1.7589 -0.5548  0.7819
 5566TIP3   OH238332   1.938   3.416   7.950 -0.2449  0.2701  0.6758
 5566TIP3    H138333   1.983   3.497   7.925 -0.3534  0.3608  0.7714
 5566TIP3    H238334   1.979   3.390   8.032  1.1237 -0.8212 -0.3018
 5567TIP3   OH238335   5.031   5.344   7.006  0.1244  0.1807  0.1715
 5567TIP3    H138336   4.949   5.296   7.017  0.0431  0.4928  1.0001
 5567TIP3    H238337   5.011   5.433   7.035  0.7469  0.2653  0.3548
 5568TIP3   OH238338   4.545   2.210   1.801  0.3177  0.8664 -0.0033
 5568TIP3    H138339   4.533   2.115   1.794 -0.5518  1.0827 -2.8680
 5568TIP3    H238340   4.604   2.221   1.876  1.9485 -2.0849 -0.6575
 5569TIP3   OH238341   2.911   0.810   1.089  0.5443  0.1715  0.1363
 5569TIP3    H138342   2.859   0.870   1.034  1.1177  0.0607 -0.5468
 5569TIP3    H238343   2.847   0.747   1.123  0.3004 -0.3204 -1.1722
 5570TIP3   OH238344   4.851   3.862   7.695 -0.4808  0.6853 -0.4471
 5570TIP3    H138345   4.799   3.858   7.615 -0.4681  0.9260 -0.4685
 5570TIP3    H238346   4.940   3.878   7.664 -0.1237 -1.1657 -0.5046
 5571TIP3   OH238347   4.839   3.507   1.511  0.1720  0.1484 -0.7559
 5571TIP3    H138348   4.922   3.530   1.470  0.5440  0.0980 -0.0516
 5571TIP3    H238349   4.862   3.446   1.581 -0.8143 -2.4934 -2.6104
 5572TIP3   OH238350   6.359   0.061   0.402 -0.1180  0.4020  0.1476
 5572TIP3    H138351   6.329   0.016   0.481  0.8675  1.8023  1.3708
 5572TIP3    H238352   6.454   0.070   0.414  0.3550 -0.8498 -2.0064
 5573TIP3   OH238353   4.758   2.110   7.912  0.3109  0.2602 -0.0617
 5573TIP3    H138354   4.799   2.194   7.893  0.2105  0.2904 -0.1458
 5573TIP3    H238355   4.751   2.107   8.007 -0.6269  0.7984 -0.1014
 5574TIP3   OH238356   6.307   4.352   7.560 -0.8577  0.3474  0.3545
 5574TIP3    H138357   6.255   4.283   7.520 -0.7063  1.0363 -1.1195
 5574TIP3    H238358   6.244   4.423   7.576 -0.6687  0.6026 -0.0046
 5575TIP3   OH238359   6.399   3.063   8.494  0.1613 -0.0520 -0.1182
 5575TIP3    H138360   6.363   3.078   8.582 -0.8679 -0.4645 -0.4496
 5575TIP3    H238361   6.389   3.147   8.449 -0.4528 -0.1772 -0.2234
 5576TIP3   OH238362   5.725   6.862   6.013 -0.1573  0.1826 -0.0907
 5576TIP3    H138363   5.749   6.908   5.933  0.4922  1.9233  1.0416
 5576TIP3    H238364   5.772   6.909   6.082 -1.0229 -1.0055  1.3582
 5577TIP3   OH238365   4.963   3.208   0.267 -0.1337  0.0129  0.0717
 5577TIP3    H138366   4.971   3.190   0.361 -2.1946  0.0376  0.2975
 5577TIP3    H238367   4.941   3.123   0.228 -1.8783  0.4536  0.0136
 5578TIP3   OH238368   0.358   0.029   0.358  0.7915 -0.2645  0.1139
 5578TIP3    H138369   0.375   0.002   0.448 -2.2312  0.1665  0.8997
 5578TIP3    H238370   0.339  -0.052   0.312  0.7881 -0.3284  0.2273
 5579TIP3   OH238371   6.400   4.970   6.662  0.3510  0.0073  0.4128
 5579TIP3    H138372   6.433   4.910   6.730 -0.7769  0.0517  1.0269
 5579TIP3    H238373   6.305   4.968   6.673  0.1913  0.4650 -0.8084
 5580TIP3   OH238374   2.687   1.205   0.020 -0.1984  0.0226  0.0520
 5580TIP3    H138375   2.753   1.136   0.008 -1.4223 -1.3619  0.8993
 5580TIP3    H238376   2.623   1.190  -0.049  0.7203  1.8841 -1.2940
 5581TIP3   OH238377   0.390   0.014   0.943 -0.1401 -0.0372  0.5757
 5581TIP3    H138378   0.299  -0.017   0.936 -1.3713  3.0314  1.2431
 5581TIP3    H238379   0.399   0.042   1.034  0.9269  1.2241  0.1057
 5582TIP3   OH238380   2.035   4.655   8.056  0.7036 -0.5713 -0.0312
 5582TIP3    H138381   2.066   4.746   8.050  0.4331 -0.4219  0.8025
 5582TIP3    H238382   1.948   4.657   8.018 -0.7272  0.2421  2.9917
 5583TIP3   OH238383   2.131   2.652   8.396 -0.1264 -0.2014  0.0840
 5583TIP3    H138384   2.221   2.626   8.415  0.1666  1.0687  0.5388
 5583TIP3    H238385   2.085   2.570   8.381  0.5752 -1.0272  2.1792
 5584TIP3   OH238386   5.293   1.715   6.036 -0.5246 -0.0552 -0.5954
 5584TIP3    H138387   5.323   1.790   5.985 -0.4286  0.5563  0.3305
 5584TIP3    H238388   5.198   1.719   6.031 -0.5105 -0.7221 -1.7273
 5585TIP3   OH238389   6.683   5.207   7.503 -0.0485 -0.3421 -0.3970
 5585TIP3    H138390   6.692   5.267   7.577  0.6392  0.1791 -0.8946
 5585TIP3    H238391   6.650   5.126   7.542  0.5516 -0.1620  0.5223
 5586TIP3   OH238392   2.604   2.778   8.002 -0.1718  0.4681 -0.0863
 5586TIP3    H138393   2.616   2.825   7.919  0.8328 -0.3219 -0.4176
 5586TIP3    H238394   2.694   2.763   8.033 -0.5510  1.3067  1.4712
 5587TIP3   OH238395   5.000   6.326   7.504  0.1352  0.0435  0.0061
 5587TIP3    H138396   5.083   6.306   7.462  0.8952  0.8388  1.0913
 5587TIP3    H238397   4.934   6.306   7.437  1.3443  2.7609 -2.1652
 5588TIP3   OH238398   1.502   1.538   6.657 -0.1326 -0.1915  0.1616
 5588TIP3    H138399   1.434   1.495   6.708 -0.0016 -0.2877  0.2581
 5588TIP3    H238400   1.582   1.526   6.709 -0.5695  2.8049  1.7215
 5589TIP3   OH238401   5.195   1.549   5.753 -0.4299 -0.7237 -0.2146
 5589TIP3    H138402   5.120   1.608   5.752 -0.1502 -0.3734 -0.9834
 5589TIP3    H238403   5.171   1.477   5.694 -0.6346 -1.2187  0.4580
 5590TIP3   OH238404   3.853   1.158   6.243  0.4891 -0.1182 -0.3057
 5590TIP3    H138405   3.813   1.071   6.235  0.5509 -0.1187 -0.6606
 5590TIP3    H238406   3.784   1.219   6.219 -0.7554  0.2205  3.5581
 5591TIP3   OH238407   5.308   1.016   0.009  0.8069  0.1572 -0.5100
 5591TIP3    H138408   5.360   1.069   0.069  1.1706  1.0417 -1.5573
 5591TIP3    H238409   5.370   0.951  -0.025  0.5172 -0.5569  0.3088
 5592TIP3   OH238410   4.158   3.235   8.651 -0.0229  0.1186 -0.6189
 5592TIP3    H138411   4.151   3.146   8.685  1.0505  0.1858 -0.1996
 5592TIP3    H238412   4.166   3.290   8.729 -2.8233  0.8600 -0.7274
 5593TIP3   OH238413   5.616   1.527   1.252  0.6905 -0.3731 -0.6307
 5593TIP3    H138414   5.592   1.578   1.329  3.3171 -2.2283  1.6049
 5593TIP3    H238415   5.653   1.592   1.191  0.2504  0.9001  0.4138
 5594TIP3   OH238416   1.625   2.969   7.569  0.6267  0.8443 -0.3073
 5594TIP3    H138417   1.691   3.005   7.628  0.2918  0.3751  0.3781
 5594TIP3    H238418   1.563   2.924   7.628 -0.2029  1.1277 -0.9480
 5595TIP3   OH238419   6.832   4.034   1.276  0.4846  0.0241  0.6159
 5595TIP3    H138420   6.834   4.076   1.362 -0.7216 -0.3783  0.8610
 5595TIP3    H238421   6.923   4.039   1.245  0.5006  2.2879  0.8502
 5596TIP3   OH238422   6.316   3.445   8.268  0.0952 -0.1594  0.3451
 5596TIP3    H138423   6.303   3.457   8.174  0.8674  2.2943  0.4736
 5596TIP3    H238424   6.254   3.376   8.293  0.2683 -1.2516 -2.0317
 5597TIP3   OH238425   0.367   0.248   1.629 -0.1045 -0.2635 -0.2009
 5597TIP3    H138426   0.285   0.260   1.677  0.4938  1.5005  0.4557
 5597TIP3    H238427   0.406   0.169   1.666 -1.1429 -0.6879  0.0108
 5598TIP3   OH238428   1.240   2.858   0.098  1.0889 -0.4748 -0.3917
 5598TIP3    H138429   1.202   2.909   0.026  2.0887  0.0421 -0.5630
 5598TIP3    H238430   1.173   2.860   0.167  1.0741  1.0291 -0.4234
 5599TIP3   OH238431   6.806   6.030   8.093 -0.1307  0.5466  0.2327
 5599TIP3    H138432   6.856   6.024   8.012 -0.2170 -1.2246  0.2755
 5599TIP3    H238433   6.720   6.062   8.066 -0.7962 -1.8691 -0.7182
 5600TIP3   OH238434   1.993   4.956   0.408 -0.0889  0.1913 -0.3192
 5600TIP3    H138435   1.905   4.965   0.371 -0.2070  1.0760  0.1357
 5600TIP3    H238436   2.032   4.883   0.361 -1.6922 -1.3795  0.6649
 5601TIP3   OH238437   6.389   3.547   7.251 -0.6306  0.2216 -0.3785
 5601TIP3    H138438   6.329   3.476   7.230  1.6150 -1.5487 -1.2117
 5601TIP3    H238439   6.396   3.545   7.347  1.1375 -2.3341 -0.4537
 5602TIP3   OH238440   2.107   0.793   8.591  0.1974  0.3695  0.1196
 5602TIP3    H138441   2.090   0.791   8.685  1.4772  0.3087  0.3672
 5602TIP3    H238442   2.021   0.790   8.550 -0.4794  2.0488  1.3135
 5603TIP3   OH238443   0.425   6.044   1.178 -0.5707 -0.2122  0.2281
 5603TIP3    H138444   0.462   6.050   1.266 -2.9456  1.7066  1.2081
 5603TIP3    H238445   0.396   6.133   1.158 -0.6115 -0.7225 -2.2931
 5604TIP3   OH238446   5.282   0.703   6.784 -0.1014  0.0444  0.3171
 5604TIP3    H138447   5.209   0.765   6.783  0.3693  0.6158  0.5052
 5604TIP3    H238448   5.261   0.642   6.854  0.1357  0.8844  1.1512
 5605TIP3   OH238449   2.891   3.622   6.877  0.1208 -0.0703 -0.3444
 5605TIP3    H138450   2.854   3.550   6.826  0.0239 -0.0479 -0.3056
 5605TIP3    H238451   2.979   3.634   6.841 -0.2680  0.5407 -1.1223
 5606TIP3   OH238452   0.622   5.824   8.612 -0.0938 -0.0998  0.2490
 5606TIP3    H138453   0.707   5.833   8.569 -0.5419  3.5210 -0.2160
 5606TIP3    H238454   0.573   5.763   8.556  1.6056 -0.9628 -0.3813
 5607TIP3   OH238455   0.904   1.563   0.852 -0.0100 -0.1559  0.1223
 5607TIP3    H138456   0.884   1.518   0.935  0.7597  0.4578  0.6435
 5607TIP3    H238457   0.947   1.496   0.799  1.0932 -0.0696  0.8807
 5608TIP3   OH238458   1.112   5.595   7.119 -0.3309 -0.2020 -0.6821
 5608TIP3    H138459   1.166   5.592   7.040  0.1975 -1.1599 -0.2983
 5608TIP3    H238460   1.068   5.680   7.114  2.2947  1.3042 -0.2867
 5609TIP3   OH238461   3.373   4.629   8.566 -0.2480  0.6028 -0.4236
 5609TIP3    H138462   3.374   4.536   8.591 -1.0761  0.7308  0.1179
 5609TIP3    H238463   3.441   4.669   8.619 -0.6290  0.4961  0.1542
 5610TIP3   OH238464   0.115   4.915   0.245  0.0280 -0.2824 -0.1041
 5610TIP3    H138465   0.208   4.920   0.224 -0.3489  0.0267 -1.8620
 5610TIP3    H238466   0.072   4.908   0.160 -1.5754 -0.1716  0.6655
 5611TIP3   OH238467   5.869   4.269   0.394  0.4845  0.3189  0.4273
 5611TIP3    H138468   5.939   4.272   0.459  1.0181  0.7513 -0.1546
 5611TIP3    H238469   5.802   4.328   0.428  1.0277  1.0225  0.2893
 5612TIP3   OH238470   1.860   5.722   7.699 -0.0787  0.2835 -0.1540
 5612TIP3    H138471   1.788   5.702   7.759  1.0318 -0.1833  1.0804
 5612TIP3    H238472   1.876   5.816   7.711  0.1034  0.2033  0.2715
 5613TIP3   OH238473   6.761   1.888   1.394 -0.5822 -0.3537 -0.5410
 5613TIP3    H138474   6.706   1.950   1.348  0.6590  0.4496 -1.0073
 5613TIP3    H238475   6.738   1.898   1.486 -0.5386  0.6612 -0.6342
 5614TIP3   OH238476   2.558   1.564   0.775 -0.1719 -0.4093 -0.0317
 5614TIP3    H138477   2.582   1.650   0.740 -3.0444  0.4905 -0.0211
 5614TIP3    H238478   2.636   1.510   0.760  2.0762  2.3645  0.7789
 5615TIP3   OH238479   6.322   5.712   0.344 -0.0403  0.0714  0.2085
 5615TIP3    H138480   6.305   5.779   0.277  2.9381  0.6951 -0.0315
 5615TIP3    H238481   6.335   5.631   0.294 -0.0590  0.0615  0.2195
 5616TIP3   OH238482   2.404   1.648   7.506  0.2675 -0.0154  0.6919
 5616TIP3    H138483   2.346   1.605   7.568 -0.6664  0.0481 -0.1238
 5616TIP3    H238484   2.349   1.670   7.432  1.3637 -0.0893 -0.1797
 5617TIP3   OH238485   2.256   2.789   1.723 -1.0083  0.0429 -0.5730
 5617TIP3    H138486   2.248   2.884   1.719  3.5558  0.7532  0.6630
 5617TIP3    H238487   2.178   2.759   1.770 -2.6236  3.1381 -1.0993
 5618TIP3   OH238488   2.355   5.608   1.421 -0.1621 -0.1129 -0.7231
 5618TIP3    H138489   2.369   5.651   1.336  1.9592 -1.7130 -1.2931
 5618TIP3    H238490   2.443   5.584   1.450 -0.9144 -0.3691  1.5541
 5619TIP3   OH238491   0.103   0.546   0.067  0.1852  0.4187 -0.1357
 5619TIP3    H138492   0.105   0.637   0.038 -0.5941  0.7523  0.8432
 5619TIP3    H238493   0.184   0.509   0.031  0.2583  1.3467 -0.9870
 5620TIP3   OH238494   2.160   2.321   8.553  0.9092  0.1072  0.2619
 5620TIP3    H138495   2.090   2.316   8.618  0.0816  0.1758 -0.6200
 5620TIP3    H238496   2.120   2.360   8.476  1.7337 -0.5166 -0.5120
 5621TIP3   OH238497   5.428   2.887   1.245 -0.4294 -0.1607 -0.6583
 5621TIP3    H138498   5.427   2.888   1.341  1.4062 -0.9460 -0.5843
 5621TIP3    H238499   5.356   2.944   1.219  0.0126  1.3482  1.1961
 5622TIP3   OH238500   0.448   4.142   0.426  0.0094 -0.4916  0.2377
 5622TIP3    H138501   0.443   4.220   0.482 -1.0719 -0.7328  0.4914
 5622TIP3    H238502   0.471   4.071   0.486  1.6540 -0.2823 -0.0962
 5623TIP3   OH238503   1.813   0.285   7.723 -0.8997  0.8645 -0.8092
 5623TIP3    H138504   1.784   0.329   7.643 -1.0908  0.8491 -0.7491
 5623TIP3    H238505   1.733   0.246   7.759 -1.0190  1.8043 -0.0184
 5624TIP3   OH238506   3.610   4.369   0.051 -0.5415 -0.3199 -0.3347
 5624TIP3    H138507   3.522   4.369   0.012  0.0804 -1.0837 -1.7993
 5624TIP3    H238508   3.653   4.292   0.014  0.6930 -0.0564  0.5012
 5625TIP3   OH238509   1.324   0.929   7.536 -0.0344  0.0858  0.2048
 5625TIP3    H138510   1.274   0.965   7.609  0.8627  2.0010 -0.0719
 5625TIP3    H238511   1.272   0.855   7.505 -1.3199  0.3479  1.6319
 5626TIP3   OH238512   1.377   0.740   6.905 -0.6704 -0.3267  0.3424
 5626TIP3    H138513   1.289   0.703   6.897 -0.6332 -0.2221 -0.7364
 5626TIP3    H238514   1.412   0.702   6.985 -1.3130 -1.1963  0.2279
 5627TIP3   OH238515   2.758   3.943   7.495  0.1793  0.0156  0.7443
 5627TIP3    H138516   2.739   3.928   7.402  0.1457 -0.8499  0.8857
 5627TIP3    H238517   2.785   4.034   7.499  0.2138  0.0520 -0.1268
 5628TIP3   OH238518   4.792   1.707   0.717 -0.3376  0.7129 -0.2899
 5628TIP3    H138519   4.804   1.621   0.757  0.3991  1.4022  1.0673
 5628TIP3    H238520   4.769   1.689   0.626 -2.1364 -0.9388  0.4388
 5629TIP3   OH238521   5.175   5.191   7.175 -0.1433 -0.2813 -0.4926
 5629TIP3    H138522   5.164   5.250   7.249  1.7722  0.0920 -0.4513
 5629TIP3    H238523   5.113   5.223   7.109  0.7881  1.7730 -0.4508
 5630TIP3   OH238524   1.083   2.728   1.562  0.9598  0.4951  0.2761
 5630TIP3    H138525   1.092   2.734   1.657  0.1699 -1.8164  0.5645
 5630TIP3    H238526   1.151   2.665   1.535  0.5463  0.3846 -0.5579
 5631TIP3   OH238527   0.668   6.233   1.631 -0.2876  0.3768 -0.1087
 5631TIP3    H138528   0.706   6.321   1.628 -0.7975  0.5930 -0.3868
 5631TIP3    H238529   0.733   6.180   1.677  0.0632  0.8801 -0.0192
 5632TIP3   OH238530   3.198   1.542   6.383 -0.0637 -0.2962 -0.0657
 5632TIP3    H138531   3.257   1.583   6.447 -0.4156 -1.0516  0.7665
 5632TIP3    H238532   3.132   1.609   6.364 -0.4358 -0.3372  1.0148
 5633TIP3   OH238533   2.956   2.544   0.420  0.5746 -0.2342  0.4804
 5633TIP3    H138534   2.954   2.602   0.497 -1.5176  0.5607 -0.0938
 5633TIP3    H238535   2.873   2.562   0.375 -0.0461 -3.4875  0.0907
 5634TIP3   OH238536   2.805   4.246   7.553 -0.2032 -0.0507 -0.3965
 5634TIP3    H138537   2.868   4.184   7.589 -0.6341 -0.6329 -0.6331
 5634TIP3    H238538   2.852   4.329   7.549  0.0328 -0.0970  0.9813
 5635TIP3   OH238539   3.487   5.362   8.156 -0.3308 -0.2501  0.0589
 5635TIP3    H138540   3.407   5.312   8.140 -0.3897 -0.3255  0.5854
 5635TIP3    H238541   3.483   5.435   8.094 -1.0573  0.0321  0.4230
 5636TIP3   OH238542   3.386   2.944   0.500  0.1602  0.1324  0.2466
 5636TIP3    H138543   3.319   2.940   0.431  1.1774 -3.0552 -0.7702
 5636TIP3    H238544   3.422   2.855   0.502  2.4072  0.9867  2.7208
 5637TIP3   OH238545   4.295   3.207   1.212  0.0957 -0.0259 -0.4401
 5637TIP3    H138546   4.201   3.200   1.226  0.1458 -0.8893 -0.4374
 5637TIP3    H238547   4.330   3.241   1.294 -0.2133  0.2993 -0.4424
 5638TIP3   OH238548   2.901   4.698   8.283  0.3866  0.2433  0.4801
 5638TIP3    H138549   2.918   4.609   8.253  1.2702  0.5731  0.0010
 5638TIP3    H238550   2.969   4.714   8.348 -1.3408 -0.3778  2.5877
 5639TIP3   OH238551   4.672   0.033   1.758  0.1934  0.0122  0.0116
 5639TIP3    H138552   4.619  -0.021   1.699 -0.3773  1.2848 -0.6833
 5639TIP3    H238553   4.719  -0.030   1.813 -1.6002 -1.1606  0.2664
 5640TIP3   OH238554   4.657   4.500   1.423  0.1801 -0.1511  0.1419
 5640TIP3    H138555   4.705   4.481   1.342  2.2329  1.8076  0.8112
 5640TIP3    H238556   4.704   4.451   1.490 -1.0539 -1.1435  0.3285
 5641TIP3   OH238557   3.115   1.042   1.630  0.6467  0.2216  0.1200
 5641TIP3    H138558   3.171   1.064   1.555 -2.3234  2.4080 -1.6653
 5641TIP3    H238559   3.120   1.119   1.687 -0.6200  0.5238 -0.1575
 5642TIP3   OH238560   0.954   4.237   0.894  0.1675 -0.5381 -0.1620
 5642TIP3    H138561   0.981   4.198   0.977  1.4080  1.7243  0.5975
 5642TIP3    H238562   1.009   4.193   0.829  1.1384 -0.4800  0.5836
 5643TIP3   OH238563   4.426   5.175   8.504  0.0826 -0.3038 -0.0559
 5643TIP3    H138564   4.434   5.213   8.416  0.3145  0.5468  0.3224
 5643TIP3    H238565   4.485   5.100   8.503 -1.0957 -1.2790 -1.1238
 5644TIP3   OH238566   1.099   1.496   1.480 -0.1507  0.0836  0.2583
 5644TIP3    H138567   1.141   1.417   1.512  1.0602 -0.2750 -1.9929
 5644TIP3    H238568   1.111   1.493   1.385  0.3778  3.1982  0.1111
 5645TIP3   OH238569   5.897   3.380   0.480  0.5756  0.8450 -0.0233
 5645TIP3    H138570   5.927   3.378   0.389  0.4226  1.3882 -0.0890
 5645TIP3    H238571   5.959   3.324   0.527  0.2730  0.0317 -0.5704
 5646TIP3   OH238572   4.927   2.336   0.339 -0.1866  0.0041  0.7014
 5646TIP3    H138573   4.847   2.284   0.345  0.5357 -1.1338  0.9730
 5646TIP3    H238574   4.903   2.422   0.373 -1.5787  0.0471 -0.3252
 5647TIP3   OH238575   5.662   5.302   0.149  0.2986  0.1126 -0.1713
 5647TIP3    H138576   5.631   5.300   0.058  0.5077 -0.3717 -0.2338
 5647TIP3    H238577   5.757   5.298   0.143  0.2841 -0.9713  0.0903
 5648TIP3   OH238578   1.301   4.912   0.126  0.0672 -0.4045  0.4577
 5648TIP3    H138579   1.258   4.883   0.046  0.2636  0.4448  0.0473
 5648TIP3    H238580   1.250   4.987   0.156 -0.3830 -1.0881  1.4780
 5649TIP3   OH238581   0.473   5.787   1.301 -0.2477  0.0797 -0.0490
 5649TIP3    H138582   0.402   5.845   1.275 -0.2668 -0.0749 -0.3479
 5649TIP3    H238583   0.432   5.721   1.357 -0.1525  0.5893  0.6263
 5650TIP3   OH238584   1.066   2.499   7.710 -0.7824 -0.2449  0.3073
 5650TIP3    H138585   1.078   2.520   7.617 -0.1854 -1.0601  0.1922
 5650TIP3    H238586   1.035   2.581   7.749 -1.1429  0.0810 -0.6251
 5651TIP3   OH238587   4.853   4.535   0.613 -0.4239  0.6228  0.1908
 5651TIP3    H138588   4.787   4.522   0.545 -1.2578  0.4765  1.0268
 5651TIP3    H238589   4.871   4.448   0.647 -0.7693  0.8131  0.8739
 5652TIP3   OH238590   4.072   4.778   6.402 -0.3137 -0.6704  0.0805
 5652TIP3    H138591   4.158   4.816   6.422 -0.6517  1.6041 -2.2804
 5652TIP3    H238592   4.086   4.683   6.410  3.0053 -0.5293 -2.0934
 5653TIP3   OH238593   1.194   1.825   8.574  0.2072  0.8411 -0.1513
 5653TIP3    H138594   1.246   1.888   8.624 -0.1609 -1.9676  4.4305
 5653TIP3    H238595   1.229   1.740   8.600 -3.9518 -1.0497  0.0923
 5654TIP3   OH238596   5.031   0.575   1.033 -0.1202 -0.2184  0.0401
 5654TIP3    H138597   5.011   0.578   0.939  0.5821 -1.0057 -0.1504
 5654TIP3    H238598   4.993   0.655   1.069  0.9647  0.8926 -1.1848
 5655TIP3   OH238599   0.482   5.656   7.872 -1.1501  0.0197 -0.0181
 5655TIP3    H138600   0.392   5.687   7.878 -0.8007  0.9054  1.2413
 5655TIP3    H238601   0.495   5.605   7.952 -0.6551 -0.4202 -0.3749
 5656TIP3   OH238602   2.547   3.555   8.675  0.2660  0.5079  0.5519
 5656TIP3    H138603   2.627   3.573   8.725 -1.2183 -1.9746  4.2750
 5656TIP3    H238604   2.547   3.621   8.606  5.8342  0.1989 -0.2493
 5657TIP3   OH238605   1.953   3.939   0.962 -0.0375 -0.0418  0.1094
 5657TIP3    H138606   1.886   3.954   0.895 -2.0123  0.9408  2.1730
 5657TIP3    H238607   1.981   3.849   0.948 -1.7368 -0.4627 -0.8939
 5658TIP3   OH238608   0.749   1.858   7.614  0.2402 -0.5213 -0.4124
 5658TIP3    H138609   0.833   1.894   7.645  1.2902 -2.2229 -1.1413
 5658TIP3    H238610   0.693   1.935   7.603  1.8406  0.7221 -0.3187
 5659TIP3   OH238611   4.250   1.869   0.828 -0.1970 -0.1441 -0.5663
 5659TIP3    H138612   4.316   1.849   0.763 -1.2131 -0.3523 -1.5567
 5659TIP3    H238613   4.177   1.905   0.778 -1.2847 -0.9889  0.3638
 5660TIP3   OH238614   1.301   1.959   6.212 -0.3572  0.0047 -0.7791
 5660TIP3    H138615   1.249   1.974   6.134 -1.9862  0.0797  0.2647
 5660TIP3    H238616   1.245   1.904   6.268  0.6727  0.1155  0.4072
 5661TIP3   OH238617   1.785   4.946   1.403  0.1738  0.2912  0.3831
 5661TIP3    H138618   1.698   4.972   1.434 -0.7586 -0.8769 -1.0832
 5661TIP3    H238619   1.806   5.011   1.336 -0.4976 -0.5170 -0.6556
 5662TIP3   OH238620   0.671   5.221   1.552 -0.4592  0.0680 -0.2677
 5662TIP3    H138621   0.761   5.252   1.564 -1.3640  2.1818  2.1052
 5662TIP3    H238622   0.677   5.126   1.557  1.5413  0.2008  0.9975
 5663TIP3   OH238623   5.238   5.558   0.345 -0.7016  0.3423  0.6717
 5663TIP3    H138624   5.311   5.534   0.288 -1.3831 -1.7769  0.5945
 5663TIP3    H238625   5.278   5.568   0.431 -0.1775 -0.0025  0.4786
 5664TIP3   OH238626   4.152   4.724   7.521  0.6954  0.2560  0.4040
 5664TIP3    H138627   4.224   4.781   7.549 -1.1932  1.6798  2.8600
 5664TIP3    H238628   4.121   4.762   7.439  1.1767  1.1695  0.6331
 5665TIP3   OH238629   6.127   0.452   7.696  0.1277 -0.3639 -0.1183
 5665TIP3    H138630   6.092   0.509   7.765  0.1316 -1.6043  0.9519
 5665TIP3    H238631   6.052   0.433   7.640 -0.3122 -0.8462  0.6210
 5666TIP3   OH238632   1.320   5.881   0.760  0.0326 -0.1475 -0.1140
 5666TIP3    H138633   1.372   5.863   0.838 -0.4447  0.1737  0.2868
 5666TIP3    H238634   1.376   5.855   0.687  1.4523  1.8322  0.2126
 5667TIP3   OH238635   3.008   0.106   8.010 -0.0522  0.2761  0.4333
 5667TIP3    H138636   2.953   0.053   8.068 -0.5905  0.8042  0.4044
 5667TIP3    H238637   2.983   0.196   8.028  0.1925  0.4753 -0.2013
 5668TIP3   OH238638   4.571   0.223   7.176  0.1969 -0.2180 -0.1924
 5668TIP3    H138639   4.641   0.199   7.237  0.0482 -1.9625 -0.6700
 5668TIP3    H238640   4.589   0.315   7.156  1.8104 -0.3517  0.4054
 5669TIP3   OH238641   3.401   3.054   7.099  0.1291 -0.1714 -0.2396
 5669TIP3    H138642   3.481   3.024   7.056  0.2879 -1.1600  0.6783
 5669TIP3    H238643   3.411   3.024   7.190 -0.3038  1.6045  0.4267
 5670TIP3   OH238644   5.949   4.814   6.804  0.0626 -0.1095 -0.3923
 5670TIP3    H138645   5.908   4.861   6.876  1.1364  0.8582 -0.3898
 5670TIP3    H238646   5.883   4.750   6.777 -0.6150 -0.0349  0.9910
 5671TIP3   OH238647   0.208   6.287   0.841  0.0471 -0.0004  0.1048
 5671TIP3    H138648   0.176   6.299   0.930 -0.2537 -0.1762  0.0241
 5671TIP3    H238649   0.242   6.372   0.816 -1.5961  0.5800 -0.2824
 5672TIP3   OH238650   0.493   5.785   0.954 -0.4000  0.2300 -0.1028
 5672TIP3    H138651   0.453   5.771   0.868  0.0515  0.4850 -0.3571
 5672TIP3    H238652   0.571   5.837   0.936  0.8730 -1.4820  0.1945
 5673TIP3   OH238653   0.258   3.178   8.642  0.1257 -0.0809 -0.8178
 5673TIP3    H138654   0.324   3.204   8.706  0.1827 -0.2166 -0.8220
 5673TIP3    H238655   0.231   3.260   8.600 -1.2664  0.2958  0.6810
 5674TIP3   OH238656   5.945   5.813   1.507 -0.0640  0.0225 -0.3516
 5674TIP3    H138657   5.978   5.743   1.451  0.1688  0.4794 -0.7910
 5674TIP3    H238658   5.971   5.787   1.596 -1.2326 -1.1572 -0.3285
 5675TIP3   OH238659   1.022   5.647   8.304 -0.0012 -0.5092  0.2840
 5675TIP3    H138660   1.064   5.561   8.311 -0.4215 -0.7006  0.4758
 5675TIP3    H238661   0.967   5.641   8.226  2.3249  0.6145 -1.5685
 5676TIP3   OH238662   5.543   0.054   1.391  0.5845  0.0528  0.3464
 5676TIP3    H138663   5.603   0.096   1.452  1.3326 -0.0630 -0.2904
 5676TIP3    H238664   5.556  -0.040   1.406  0.5525  0.0275  0.2173
 5677TIP3   OH238665   5.334   4.004   0.792  0.1797 -0.3456  0.6770
 5677TIP3    H138666   5.375   4.087   0.818 -0.3267 -0.0952  0.7043
 5677TIP3    H238667   5.356   3.995   0.699  1.4882 -0.9425  1.0331
 5678TIP3   OH238668   3.241   2.843   1.301 -0.3905  0.3244 -0.1160
 5678TIP3    H138669   3.309   2.848   1.368  0.6060 -3.0186 -0.6609
 5678TIP3    H238670   3.159   2.847   1.350  0.2427  0.8999  0.9410
 5679TIP3   OH238671   5.777   0.342   7.200 -0.2612 -0.2616  0.0710
 5679TIP3    H138672   5.744   0.281   7.266  0.1744  0.0075  0.5439
 5679TIP3    H238673   5.759   0.429   7.236  0.6607 -0.1078  0.1977
 5680TIP3   OH238674   4.312   1.215   6.936 -0.0169 -0.1830 -0.2876
 5680TIP3    H138675   4.347   1.252   7.017  0.5138 -1.1528 -0.0573
 5680TIP3    H238676   4.263   1.138   6.964 -1.8841  0.8259 -0.6696
 5681TIP3   OH238677   3.012   0.331   0.146  0.3213  0.0614  0.0122
 5681TIP3    H138678   2.983   0.417   0.117  1.5153 -0.3020 -2.5079
 5681TIP3    H238679   3.098   0.346   0.186  0.3905  0.0720 -0.1421
 5682TIP3   OH238680   3.705   3.030   7.209  0.2991 -0.1692 -0.7745
 5682TIP3    H138681   3.748   3.111   7.183 -2.3779  1.5407 -0.2288
 5682TIP3    H238682   3.677   2.989   7.127  2.0628 -0.8563 -1.0778
 5683TIP3   OH238683   6.413   3.505   6.881  0.4099  0.3843 -0.3227
 5683TIP3    H138684   6.438   3.468   6.796 -0.9951  0.5853 -0.8488
 5683TIP3    H238685   6.467   3.458   6.944  1.6744  0.4141 -1.3346
 5684TIP3   OH238686   4.314   1.621   6.729  0.1181 -0.3558  0.6475
 5684TIP3    H138687   4.325   1.526   6.725 -0.0098 -0.3820  0.8590
 5684TIP3    H238688   4.236   1.638   6.675  1.6920 -0.0615 -1.6478
 5685TIP3   OH238689   2.662   2.278   0.548  0.3291 -0.5260  0.0566
 5685TIP3    H138690   2.623   2.350   0.597 -0.0502 -1.0703  0.5648
 5685TIP3    H238691   2.588   2.226   0.519  0.5767 -0.4683 -0.7064
 5686TIP3   OH238692   0.987   6.710   1.997  0.5571 -0.2528 -0.4327
 5686TIP3    H138693   0.896   6.730   2.021 -0.2944 -1.7469 -2.1345
 5686TIP3    H238694   1.012   6.638   2.054  0.0179 -0.9894 -1.0874
 5687TIP3   OH238695   4.265   2.250   7.581 -0.4534  0.3866  0.2983
 5687TIP3    H138696   4.305   2.294   7.657  0.8464  0.3192 -0.3201
 5687TIP3    H238697   4.218   2.320   7.535  1.2952  1.1229 -0.4763
 5688TIP3   OH238698   0.344   4.283   7.426  0.1769 -0.0703  0.0159
 5688TIP3    H138699   0.331   4.296   7.332 -0.4439 -0.8245 -0.0178
 5688TIP3    H238700   0.384   4.364   7.456 -0.5617  0.5898 -0.7206
 5689TIP3   OH238701   4.097   5.406   1.120 -0.3918 -0.0541 -0.3969
 5689TIP3    H138702   4.058   5.492   1.104  1.8431  1.0408 -0.3436
 5689TIP3    H238703   4.117   5.373   1.032 -0.4773 -0.1215 -0.3903
 5690TIP3   OH238704   5.704   2.013   0.888 -0.1776  0.0988 -0.2756
 5690TIP3    H138705   5.724   1.983   0.799  1.4694 -3.2315  1.0589
 5690TIP3    H238706   5.612   1.991   0.901 -1.0525  2.4527 -1.6842
 5691TIP3   OH238707   4.257   0.989   0.169 -0.2383  0.3520 -0.3633
 5691TIP3    H138708   4.263   1.010   0.076  1.3209  0.4883 -0.2465
 5691TIP3    H238709   4.297   1.064   0.213  1.0932 -0.7128  0.2982
 5692TIP3   OH238710   2.553   5.684   0.520 -0.1401 -0.6572  0.1593
 5692TIP3    H138711   2.500   5.613   0.553 -0.3928 -1.4624 -1.8315
 5692TIP3    H238712   2.556   5.748   0.591 -0.8614 -2.1342  1.5584
 5693TIP3   OH238713   4.361   4.665   1.811 -0.3173  0.2772 -0.2223
 5693TIP3    H138714   4.447   4.640   1.845 -0.7515 -0.6305  0.2330
 5693TIP3    H238715   4.362   4.637   1.720  0.2288  1.1729 -0.4986
 5694TIP3   OH238716   5.337   4.384   1.806 -0.1101 -0.1645 -0.2056
 5694TIP3    H138717   5.399   4.317   1.777  0.1691 -0.3775  0.8423
 5694TIP3    H238718   5.351   4.390   1.900  0.1768  1.6887 -0.3295
 5695TIP3   OH238719   5.811   2.172   7.231  0.3286  0.6970 -0.6134
 5695TIP3    H138720   5.841   2.210   7.314 -0.3333  3.3205 -1.4784
 5695TIP3    H238721   5.879   2.195   7.168 -1.0683  2.4547 -1.5872
 5696TIP3   OH238722   4.288   1.233   0.789 -0.7446  0.1110  0.5271
 5696TIP3    H138723   4.234   1.159   0.762  1.4939 -1.6657  0.6458
 5696TIP3    H238724   4.246   1.309   0.748 -1.9479 -1.4633 -1.3505
 5697TIP3   OH238725   1.786   2.299   6.418 -0.3436  0.1653 -0.1388
 5697TIP3    H138726   1.772   2.354   6.496 -1.0444 -0.5898  0.2842
 5697TIP3    H238727   1.865   2.249   6.438 -0.7534 -0.3303  0.2805
 5698TIP3   OH238728   5.963   5.433   1.054  0.6951  0.1882  0.1275
 5698TIP3    H138729   5.899   5.376   1.096  1.5081 -1.7775 -1.1394
 5698TIP3    H238730   5.917   5.467   0.977  0.7633 -0.1845 -0.0787
 5699TIP3   OH238731   6.546   5.844   1.832 -0.0695 -0.2081  0.8760
 5699TIP3    H138732   6.571   5.799   1.912  1.8057  0.0013  0.4530
 5699TIP3    H238733   6.624   5.894   1.807 -0.2479 -1.0286 -1.6046
 5700TIP3   OH238734   2.568   5.546   0.827 -0.1908  0.6425  0.1650
 5700TIP3    H138735   2.599   5.458   0.804 -3.4485 -0.4631 -0.5108
 5700TIP3    H238736   2.617   5.605   0.769  1.3414 -0.7792 -0.0627
 5701TIP3   OH238737   1.879   0.425   0.717 -0.2717  0.0767 -0.2008
 5701TIP3    H138738   1.867   0.358   0.785  0.7680  2.7694  2.9166
 5701TIP3    H238739   1.944   0.388   0.658  0.0932 -1.7563  1.2482
 5702TIP3   OH238740   2.125   6.046   8.237  0.2825 -0.5875  0.2872
 5702TIP3    H138741   2.122   6.005   8.323  0.8446 -1.3253 -0.0356
 5702TIP3    H238742   2.114   6.139   8.254 -2.0416 -0.9199  0.9533
 5703TIP3   OH238743   0.243   1.303   7.014  0.3112  0.4245 -0.1304
 5703TIP3    H138744   0.321   1.355   6.996  0.7223 -0.6613 -1.7833
 5703TIP3    H238745   0.265   1.252   7.092  1.0727  0.4742 -0.3093
 5704TIP3   OH238746   0.292   5.717   7.581 -0.4346  0.7032 -0.0788
 5704TIP3    H138747   0.237   5.667   7.642 -0.6347 -0.5342 -1.2363
 5704TIP3    H238748   0.365   5.659   7.561 -0.5799  0.9357 -1.3262
 5705TIP3   OH238749   1.825   5.387   6.598 -0.4012  0.1296  0.6409
 5705TIP3    H138750   1.765   5.458   6.620  0.0658  1.1101 -1.0520
 5705TIP3    H238751   1.770   5.308   6.598 -2.1671  1.1843 -2.3658
 5706TIP3   OH238752   3.955   4.744   1.349 -0.1964 -0.4726 -0.0957
 5706TIP3    H138753   3.941   4.785   1.264  0.1371 -0.8954 -0.3556
 5706TIP3    H238754   4.018   4.802   1.393  0.3665 -0.7611 -0.5076
 5707TIP3   OH238755   0.855   2.167   0.461 -0.6090 -0.0699 -0.4107
 5707TIP3    H138756   0.806   2.084   0.466  1.3156 -1.1977  1.9008
 5707TIP3    H238757   0.882   2.173   0.369 -0.4950 -2.2107 -0.5713
 5708TIP3   OH238758   4.087   2.636   8.471  0.2943 -0.0319 -0.4701
 5708TIP3    H138759   4.014   2.632   8.409  0.6281  0.9799 -0.9481
 5708TIP3    H238760   4.063   2.707   8.531  0.6201 -0.0838 -0.2782
 5709TIP3   OH238761   1.409   6.166   1.389  0.2189 -0.3398 -0.1978
 5709TIP3    H138762   1.422   6.157   1.294  0.7099 -0.9427 -0.0727
 5709TIP3    H238763   1.352   6.093   1.412  0.2154 -0.2744 -0.0024
 5710TIP3   OH238764   0.020   3.762   1.690  0.1551  0.5639  0.2010
 5710TIP3    H138765   0.074   3.750   1.769  0.7365 -1.4198 -0.4244
 5710TIP3    H238766  -0.065   3.789   1.724  0.6239  0.5725  1.4509
 5711TIP3   OH238767   5.692   2.882   0.363  0.0367  0.0722 -0.3369
 5711TIP3    H138768   5.689   2.803   0.309 -0.0280 -0.8913  1.0252
 5711TIP3    H238769   5.679   2.953   0.301  1.1672 -0.8985 -1.7579
 5712TIP3   OH238770   1.827   2.132   7.928 -0.6251  0.1423 -0.5103
 5712TIP3    H138771   1.745   2.097   7.892 -0.7814  1.0344 -1.0508
 5712TIP3    H238772   1.815   2.227   7.926  0.9739  0.3537 -1.9278
 5713TIP3   OH238773   6.353   1.213   8.405 -0.3678 -0.0282  0.4285
 5713TIP3    H138774   6.300   1.278   8.451  0.9041  2.2252 -1.1137
 5713TIP3    H238775   6.319   1.129   8.435 -4.3574  1.2386  0.0799
 5714TIP3   OH238776   4.914   6.192   0.953 -0.7509  0.2612  0.0264
 5714TIP3    H138777   4.868   6.228   1.029 -0.1585 -0.2285  0.6353
 5714TIP3    H238778   4.956   6.113   0.987 -2.1119 -1.0883 -1.2978
 5715TIP3   OH238779   5.318   1.223   1.655  0.1149  0.4449  0.1328
 5715TIP3    H138780   5.325   1.150   1.717  1.3864  1.0072  0.6896
 5715TIP3    H238781   5.248   1.197   1.596 -0.8142 -0.3399  1.5058
 5716TIP3   OH238782   5.983   2.751   0.668  0.0321  0.0512  0.2182
 5716TIP3    H138783   5.915   2.684   0.676 -0.0688  0.3027  1.8509
 5716TIP3    H238784   6.033   2.744   0.750  1.8534  0.0129 -0.8304
 5717TIP3   OH238785   3.708   0.395   1.312 -0.9009  0.2234  0.4503
 5717TIP3    H138786   3.783   0.435   1.356 -0.1042 -1.5578  0.7671
 5717TIP3    H238787   3.723   0.411   1.219  0.3601 -0.8648  0.4408
 5718TIP3   OH238788   0.900   6.337   1.519  0.0464  0.3208 -0.2442
 5718TIP3    H138789   0.857   6.392   1.454 -0.9620  0.6010  0.6431
 5718TIP3    H238790   0.884   6.247   1.489  1.6315  0.4496 -1.6516
 5719TIP3   OH238791   3.570   4.690   0.765 -0.3041 -0.1492  0.3342
 5719TIP3    H138792   3.498   4.632   0.739  0.9998 -1.1387 -1.2749
 5719TIP3    H238793   3.579   4.751   0.691  0.7678 -0.3288  0.2965
 5720TIP3   OH238794   3.635   2.082   7.813  0.3114 -0.5439  0.2389
 5720TIP3    H138795   3.661   2.115   7.727  0.8424 -1.8731 -0.1298
 5720TIP3    H238796   3.718   2.064   7.858  0.0353 -0.6319  0.7227
 5721TIP3   OH238797   4.257   1.106   7.392  0.0540  0.3685 -0.0523
 5721TIP3    H138798   4.180   1.062   7.358  0.9497 -0.7289 -0.7212
 5721TIP3    H238799   4.229   1.144   7.475 -1.0767 -0.3773 -0.0814
 5722TIP3   OH238800   5.641   6.879   0.922 -0.3160 -0.4527  0.1187
 5722TIP3    H138801   5.649   6.951   0.859  1.8139  0.5033  1.3838
 5722TIP3    H238802   5.553   6.844   0.908 -1.5389  2.5768 -0.3509
 5723TIP3   OH238803   5.544   0.842   6.811  0.2938 -0.4871 -0.6879
 5723TIP3    H138804   5.488   0.768   6.786 -0.5842  0.1448 -0.6265
 5723TIP3    H238805   5.484   0.908   6.843  1.1334 -0.0017 -0.0657
 5724TIP3   OH238806   1.916   1.265   0.884 -0.1455 -0.2653  0.1343
 5724TIP3    H138807   1.823   1.274   0.906  0.0849 -0.0851  1.0740
 5724TIP3    H238808   1.951   1.206   0.951  0.3617 -0.5530 -0.3776
 5725TIP3   OH238809   5.840   5.783   6.719 -0.5063 -0.3923  0.2770
 5725TIP3    H138810   5.792   5.787   6.802  0.4914 -1.4659  0.9313
 5725TIP3    H238811   5.777   5.815   6.654 -1.0813  1.1114  1.5190
 5726TIP3   OH238812   0.102   1.527   6.436 -0.1463 -0.3187  0.5170
 5726TIP3    H138813   0.036   1.503   6.371 -1.4843  0.1775  1.6493
 5726TIP3    H238814   0.074   1.613   6.468  1.2214  0.0289  0.8199
 5727TIP3   OH238815   3.354   0.324   0.560 -0.2473 -0.9763 -0.4370
 5727TIP3    H138816   3.277   0.287   0.603 -0.8775 -1.2664 -1.7574
 5727TIP3    H238817   3.322   0.402   0.516  0.0766 -1.3941 -1.4507
 5728TIP3   OH238818   1.053   4.936   1.831  0.7389 -0.4958 -0.0826
 5728TIP3    H138819   1.136   4.889   1.818 -0.1497 -2.8147  1.8255
 5728TIP3    H238820   0.987   4.867   1.825 -0.9316  1.0321  0.1382
 5729TIP3   OH238821   4.241   6.688   6.122 -0.7469  1.2874 -0.0479
 5729TIP3    H138822   4.154   6.722   6.141 -0.7285  2.0827 -1.2388
 5729TIP3    H238823   4.280   6.671   6.208 -3.1914 -2.1751  0.5734
 5730TIP3   OH238824   3.436   2.203   0.944  0.1200 -0.3686 -0.2207
 5730TIP3    H138825   3.391   2.284   0.969  1.0450  0.3185 -0.7158
 5730TIP3    H238826   3.481   2.175   1.024  0.2718 -0.0635 -0.1966
 5731TIP3   OH238827   1.024   5.410   0.789  0.5744  0.2297 -0.4065
 5731TIP3    H138828   0.985   5.482   0.838  2.4460  0.2563  1.1667
 5731TIP3    H238829   1.106   5.446   0.755  0.5598 -0.5828 -1.3429
 5732TIP3   OH238830   2.540   2.957   6.991  0.0962  0.0751  0.4481
 5732TIP3    H138831   2.501   2.986   7.073 -0.9301 -0.2486  0.0888
 5732TIP3    H238832   2.499   2.873   6.972 -1.2154  1.0616 -1.4004
 5733TIP3   OH238833   0.125   0.819   0.250 -0.1761 -0.5716  0.6945
 5733TIP3    H138834   0.063   0.878   0.292  0.5638  0.9637 -0.3187
 5733TIP3    H238835   0.074   0.776   0.181 -0.3136  0.0700  0.3966
 5734TIP3   OH238836   0.533   0.879   0.641 -0.1518  0.1885 -0.2763
 5734TIP3    H138837   0.451   0.897   0.688 -0.6930  1.4920 -1.6389
 5734TIP3    H238838   0.590   0.953   0.664 -0.5316  1.0014 -1.8713
 5735TIP3   OH238839   2.532   2.872   2.233 -0.1147 -0.1238 -0.0636
 5735TIP3    H138840   2.508   2.961   2.257  0.1441  0.2157 -1.0002
 5735TIP3    H238841   2.605   2.850   2.291 -0.2286  0.2432  0.2183
 5736TIP3   OH238842   3.117   1.873   6.671 -0.7030 -0.1164 -0.1533
 5736TIP3    H138843   3.027   1.866   6.639 -0.1568  1.5510 -2.3653
 5736TIP3    H238844   3.162   1.925   6.604  1.6384  0.0790  1.4343
 5737TIP3   OH238845   2.804   4.645   2.609  0.2565  0.1148  0.0777
 5737TIP3    H138846   2.813   4.568   2.553 -0.2407 -1.0391  1.5321
 5737TIP3    H238847   2.877   4.640   2.671  0.4847  1.0714 -0.0866
 5738TIP3   OH238848   3.095   4.843   1.132  0.0571 -0.6233 -0.7235
 5738TIP3    H138849   3.031   4.783   1.094 -1.4626  0.0240  0.6879
 5738TIP3    H238850   3.128   4.796   1.209 -1.4449  0.4072  0.6314
 5739TIP3   OH238851   6.448   1.921   6.573 -0.1865  0.3507  0.2457
 5739TIP3    H138852   6.509   1.855   6.542  1.6264  2.1175 -0.1968
 5739TIP3    H238853   6.368   1.873   6.596  0.5430 -1.7583 -1.3918
 5740TIP3   OH238854   4.392   4.555   1.310 -0.0181  0.3243  0.3835
 5740TIP3    H138855   4.406   4.613   1.235  0.7601 -0.0993  0.1894
 5740TIP3    H238856   4.481   4.530   1.337 -0.3212 -0.1159  0.9790
 5741TIP3   OH238857   5.967   2.358   0.126  0.8842 -0.3726 -0.1170
 5741TIP3    H138858   5.996   2.299   0.196 -2.7724 -1.4379  0.7136
 5741TIP3    H238859   5.962   2.444   0.167 -0.2041 -0.7968  0.6800
 5742TIP3   OH238860   6.674   0.319   0.114 -0.2709 -0.3233  0.3556
 5742TIP3    H138861   6.616   0.393   0.098  0.5501  0.2977  0.2185
 5742TIP3    H238862   6.615   0.248   0.141 -1.0629  0.3661  0.4676
 5743TIP3   OH238863   5.326   1.393   1.911 -0.2941 -0.8114 -0.5455
 5743TIP3    H138864   5.391   1.459   1.937 -1.9273  1.2060 -1.3175
 5743TIP3    H238865   5.378   1.314   1.894  1.8900  0.5448 -0.6221
 5744TIP3   OH238866   3.638   1.814   0.364  0.2316 -0.2673 -0.0094
 5744TIP3    H138867   3.703   1.764   0.414  0.3284 -0.8574 -0.7087
 5744TIP3    H238868   3.686   1.847   0.288  0.5513  2.1780  1.1574
 5745TIP3   OH238869   5.870   5.590   0.561 -0.3015  0.2881 -0.6611
 5745TIP3    H138870   5.868   5.505   0.517 -1.1107  1.3206 -2.7904
 5745TIP3    H238871   5.787   5.631   0.538 -0.2756  1.3630  0.9869
 5746TIP3   OH238872   1.348   1.620   8.610  0.3909  0.3063 -0.1136
 5746TIP3    H138873   1.387   1.566   8.541  1.0759 -1.8168  1.8328
 5746TIP3    H238874   1.261   1.584   8.624  0.7630 -0.1949  1.0431
 5747TIP3   OH238875   0.615   6.448   6.644  0.3303 -0.0815  0.0781
 5747TIP3    H138876   0.603   6.528   6.593  2.7465 -0.6734 -1.6351
 5747TIP3    H238877   0.590   6.377   6.585  0.3362 -0.6835  0.7770
 5748TIP3   OH238878   4.455   0.692   7.267 -0.6876 -0.5001 -0.1232
 5748TIP3    H138879   4.462   0.650   7.353  0.2719  0.0273  0.0623
 5748TIP3    H238880   4.474   0.784   7.284  3.1750 -0.9119 -1.4203
 5749TIP3   OH238881   3.037   4.647   0.455  0.0029 -0.0695 -0.2998
 5749TIP3    H138882   3.131   4.641   0.435 -0.2700 -0.4056 -1.5456
 5749TIP3    H238883   3.000   4.565   0.422 -0.6056 -0.3559  1.0124
 5750TIP3   OH238884   5.495   3.955   1.062 -0.0600  0.1247 -0.2327
 5750TIP3    H138885   5.472   3.996   0.979 -0.0233 -0.3712 -0.4926
 5750TIP3    H238886   5.577   3.998   1.088  0.0272  0.1539 -0.5495
 5751TIP3   OH238887   5.026   5.981   1.047  0.0909 -0.2758 -0.0168
 5751TIP3    H138888   5.010   5.911   0.983  0.6759 -0.1762 -0.2790
 5751TIP3    H238889   4.995   5.945   1.130 -1.5646 -0.0473 -0.5019
 5752TIP3   OH238890   1.724   0.299   0.227  0.4624 -0.4493  0.2704
 5752TIP3    H138891   1.676   0.354   0.289 -1.6493 -1.0422 -0.7495
 5752TIP3    H238892   1.764   0.231   0.282 -0.2402 -0.1906  1.1358
 5753TIP3   OH238893   6.394   0.153   6.818 -0.0568 -0.2132  0.3178
 5753TIP3    H138894   6.355   0.116   6.897  0.9302 -0.3503  0.7531
 5753TIP3    H238895   6.484   0.174   6.843 -0.1574  1.1118 -0.3413
 5754TIP3   OH238896   4.022   2.696   8.018 -0.2508 -0.3742 -0.4651
 5754TIP3    H138897   4.010   2.670   8.109  0.3864  0.3192 -0.1653
 5754TIP3    H238898   4.039   2.790   8.022  0.1771 -0.4065 -1.2637
 5755TIP3   OH238899   0.215   5.168   7.208 -0.2255  0.2152  0.1361
 5755TIP3    H138900   0.129   5.209   7.203 -1.2847 -1.7291  1.0683
 5755TIP3    H238901   0.204   5.098   7.273  1.8967 -0.4574 -0.1617
 5756TIP3   OH238902   3.816   1.483   1.392  0.2635  0.5957 -0.1305
 5756TIP3    H138903   3.737   1.491   1.338 -0.2839  0.5371  0.6405
 5756TIP3    H238904   3.806   1.552   1.458  0.2092 -0.2534  0.7690
 5757TIP3   OH238905   4.674   5.248   6.767  0.5338  0.0453  0.3322
 5757TIP3    H138906   4.641   5.158   6.773  0.4770  0.1593  4.0479
 5757TIP3    H238907   4.607   5.294   6.717  1.2196 -2.1532 -2.8898
 5758TIP3   OH238908   0.266   0.123   1.947  0.1860 -0.0938 -0.0154
 5758TIP3    H138909   0.239   0.051   1.890 -0.2039  0.7888 -0.9608
 5758TIP3    H238910   0.342   0.089   1.994  1.3970 -0.3875 -2.0695
 5759TIP3   OH238911   5.735   0.100   0.454  0.2129  0.0169 -0.2473
 5759TIP3    H138912   5.674   0.137   0.391  0.5268 -0.3638 -0.7864
 5759TIP3    H238913   5.697   0.016   0.478  0.5908 -0.2917 -0.7037
 5760TIP3   OH238914   0.600   1.089   6.388 -0.2503 -0.0415 -0.0224
 5760TIP3    H138915   0.504   1.088   6.392 -0.2599 -1.3681 -0.1577
 5760TIP3    H238916   0.627   1.137   6.466 -0.9951 -1.4646  1.1492
 5761TIP3   OH238917   6.150   6.337   7.396  0.0542 -0.3439 -0.2878
 5761TIP3    H138918   6.094   6.412   7.374 -0.6190  0.0633  2.4432
 5761TIP3    H238919   6.171   6.297   7.311 -2.7743  0.6303 -1.5765
 5762TIP3   OH238920   1.084   1.831   6.300 -0.3220  0.7318  0.2597
 5762TIP3    H138921   1.004   1.780   6.294 -0.2467  0.5561  0.6976
 5762TIP3    H238922   1.055   1.919   6.324 -0.5539  1.2301 -1.7110
 5763TIP3   OH238923   5.633   2.158   7.962  0.3521  0.3950 -0.1414
 5763TIP3    H138924   5.630   2.210   7.881  3.2813  0.5295 -0.2823
 5763TIP3    H238925   5.724   2.129   7.968  0.1764  0.1848  3.0289
 5764TIP3   OH238926   3.891   0.106   7.225 -0.1404 -0.0384  0.4200
 5764TIP3    H138927   3.964   0.167   7.241 -0.3505  0.5012 -0.6389
 5764TIP3    H238928   3.900   0.081   7.133 -0.9165 -0.4804  0.4583
 5765TIP3   OH238929   5.695   6.342   0.056 -0.2300  0.4098 -0.0153
 5765TIP3    H138930   5.702   6.393  -0.025 -0.9923  1.3746  0.4966
 5765TIP3    H238931   5.650   6.261   0.029  1.0286 -0.0380 -0.8460
 5766TIP3   OH238932   2.861   6.332   0.784 -0.1796 -0.2566  0.2000
 5766TIP3    H138933   2.863   6.421   0.748  0.7752 -0.6660 -0.8478
 5766TIP3    H238934   2.769   6.315   0.801 -0.5323  0.4625 -0.8371
 5767TIP3   OH238935   2.375   0.429   1.761 -0.2156  0.0101  0.6038
 5767TIP3    H138936   2.450   0.489   1.763 -0.3741  0.2923 -0.7561
 5767TIP3    H238937   2.321   0.456   1.836  0.9287 -0.0654  1.4763
 5768TIP3   OH238938   2.087   0.740   0.493 -0.6916  0.1839 -0.0138
 5768TIP3    H138939   2.059   0.699   0.411  0.2308  0.2478 -0.3695
 5768TIP3    H238940   2.113   0.667   0.549  1.3462  0.2498 -0.7940
 5769TIP3   OH238941   4.436   2.393   8.174 -0.3048 -0.1835  0.1810
 5769TIP3    H138942   4.530   2.409   8.172 -0.1453 -0.8294  1.5321
 5769TIP3    H238943   4.422   2.340   8.252 -1.4573 -2.2503 -1.3267
 5770TIP3   OH238944   4.470   3.311   7.385 -0.1149 -0.4226  0.1551
 5770TIP3    H138945   4.464   3.331   7.479 -1.0198 -0.2129  0.0681
 5770TIP3    H238946   4.506   3.222   7.382  1.2906  0.1043  0.6425
 5771TIP3   OH238947   1.258   6.614   8.134 -0.4500  0.1149 -0.0031
 5771TIP3    H138948   1.166   6.612   8.161 -0.7289 -0.3774 -0.9580
 5771TIP3    H238949   1.285   6.522   8.137  0.0961  0.2832  0.5151
 5772TIP3   OH238950   1.860   3.610   7.682 -0.2606  0.2681 -0.4826
 5772TIP3    H138951   1.930   3.619   7.617  1.2035  0.0651  0.9941
 5772TIP3    H238952   1.818   3.526   7.662  0.3381  0.0928 -1.0077
 5773TIP3   OH238953   4.522   5.307   1.168 -0.4320 -0.0225  0.4072
 5773TIP3    H138954   4.554   5.396   1.151 -1.4189  0.0842 -1.1481
 5773TIP3    H238955   4.503   5.305   1.261  0.3973  1.1228  0.6187
 5774TIP3   OH238956   2.168   0.523   6.374  0.2097  0.0940 -0.4370
 5774TIP3    H138957   2.187   0.429   6.370  0.9901  0.2836 -2.7607
 5774TIP3    H238958   2.084   0.532   6.330 -1.6214  0.1838  2.7935
 5775TIP3   OH238959   1.277   6.839   8.009 -0.6189 -0.4819  0.6964
 5775TIP3    H138960   1.257   6.810   7.920 -2.9228  1.5909  0.4239
 5775TIP3    H238961   1.256   6.764   8.064 -2.1870 -0.8056 -0.2917
 5776TIP3   OH238962   0.459   0.740   8.444 -0.3274  0.3451 -0.4506
 5776TIP3    H138963   0.445   0.771   8.534 -1.8995  0.9180 -0.8638
 5776TIP3    H238964   0.371   0.733   8.408  0.3491  2.2446 -2.6803
 5777TIP3   OH238965   0.492   6.292   0.424  0.1039 -0.2464  0.1850
 5777TIP3    H138966   0.521   6.239   0.350 -1.0425 -0.8856  0.1625
 5777TIP3    H238967   0.518   6.242   0.501  0.3850 -0.0908  0.1891
 5778TIP3   OH238968   0.478   3.180   2.358 -0.0245 -0.2772 -0.3693
 5778TIP3    H138969   0.501   3.136   2.440 -1.3651  0.7692  0.6370
 5778TIP3    H238970   0.399   3.134   2.328  0.9006 -1.1529 -1.5154
 5779TIP3   OH238971   5.758   0.921   8.448 -0.0676  0.0094 -0.1370
 5779TIP3    H138972   5.848   0.910   8.416 -0.7981 -1.8464 -1.7218
 5779TIP3    H238973   5.769   0.948   8.540  2.0981 -0.2561 -0.2609
 5780TIP3   OH238974   5.289   1.102   0.294 -0.1881  0.1874 -1.0684
 5780TIP3    H138975   5.380   1.109   0.267 -0.1215 -1.3472 -1.3472
 5780TIP3    H238976   5.288   1.132   0.385  0.1314  2.4626 -1.7583
 5781TIP3   OH238977   5.086   2.980   1.370 -0.3337  0.1831 -0.3307
 5781TIP3    H138978   5.083   3.075   1.382  0.2932  0.2327 -0.5262
 5781TIP3    H238979   5.033   2.945   1.441 -1.3839  0.7248 -0.8232
 5782TIP3   OH238980   6.758   3.235   0.809 -0.2491 -0.0383 -0.1994
 5782TIP3    H138981   6.671   3.228   0.848 -0.7344 -0.2255 -1.2652
 5782TIP3    H238982   6.796   3.313   0.848 -0.2192 -0.8705  1.5439
 5783TIP3   OH238983   5.676   5.316   7.483  0.1461  0.3055  0.3312
 5783TIP3    H138984   5.661   5.265   7.562  0.9951  1.0132  0.9820
 5783TIP3    H238985   5.640   5.402   7.502 -0.6596  0.1612 -0.4911
 5784TIP3   OH238986   3.273   1.429   0.705  0.2659 -0.6116 -0.3461
 5784TIP3    H138987   3.335   1.407   0.775  0.5865  0.5244 -0.2671
 5784TIP3    H238988   3.327   1.463   0.634 -0.2328  0.1352 -0.3774
 5785TIP3   OH238989   6.199   0.213   7.464 -0.1458 -0.6656 -0.1727
 5785TIP3    H138990   6.260   0.217   7.391 -0.3201  2.3134 -0.3078
 5785TIP3    H238991   6.251   0.243   7.539 -1.0017  0.4071  0.0175
 5786TIP3   OH238992   3.680   4.171   0.891  0.3070 -0.0376 -0.1371
 5786TIP3    H138993   3.703   4.102   0.953  2.6337  1.9053  1.3132
 5786TIP3    H238994   3.589   4.193   0.912  0.4496 -0.7234  1.2887
 5787TIP3   OH238995   3.887   1.935   8.203  0.3176 -0.0917  0.0652
 5787TIP3    H138996   3.847   1.877   8.268 -2.1839 -1.2305 -2.3293
 5787TIP3    H238997   3.814   1.984   8.166  1.9532  2.1743 -0.4190
 5788TIP3   OH238998   5.327   5.398   0.844  0.2681 -0.5112  0.3880
 5788TIP3    H138999   5.407   5.401   0.897 -0.1159  1.1854  0.9416
 5788TIP3    H239000   5.282   5.480   0.864 -0.9382 -0.7963 -0.9829
 5789TIP3   OH239001   1.726   5.310   8.496 -0.1106  0.3529  0.4536
 5789TIP3    H139002   1.639   5.300   8.457 -0.2186 -0.6431  0.9119
 5789TIP3    H239003   1.756   5.220   8.510  1.5595  0.6369 -0.9372
 5790TIP3   OH239004   3.641   0.369   7.825  0.6277  0.2220  0.2200
 5790TIP3    H139005   3.659   0.288   7.873  0.6707  1.1365  1.8153
 5790TIP3    H239006   3.725   0.394   7.787  0.5044 -0.7336 -0.7147
 5791TIP3   OH239007   3.248   1.588   6.766  0.5124  0.5156 -0.1706
 5791TIP3    H139008   3.276   1.626   6.683  0.4615  0.3468 -0.2664
 5791TIP3    H239009   3.216   1.500   6.743  0.4322  0.4939  0.0160
 5792TIP3   OH239010   6.086   2.498   1.164 -0.0040 -0.0576  0.0624
 5792TIP3    H139011   5.998   2.466   1.145  0.3570 -1.8452  1.0867
 5792TIP3    H239012   6.120   2.436   1.229  1.9168  0.7259 -0.1194
 5793TIP3   OH239013   3.059   0.365   8.154  0.2986  0.7163  0.4051
 5793TIP3    H139014   3.029   0.359   8.245 -1.6673  2.3399 -0.0518
 5793TIP3    H239015   2.978   0.378   8.104  1.2037 -1.2593 -1.7391
 5794TIP3   OH239016   2.063   4.824   7.487 -0.0628 -0.4250 -0.2907
 5794TIP3    H139017   2.023   4.891   7.542 -0.7496 -0.3500 -0.8547
 5794TIP3    H239018   2.134   4.787   7.540 -0.5299 -0.1707  0.5266
 5795TIP3   OH239019   4.065   1.050   0.765  0.1955  0.4639 -0.4576
 5795TIP3    H139020   3.981   1.088   0.791 -0.2753  0.0627 -1.3721
 5795TIP3    H239021   4.043   0.962   0.735  0.7658  0.7843 -1.8558
 5796TIP3   OH239022   0.806   1.445   7.869  0.0488  0.0540 -0.2237
 5796TIP3    H139023   0.742   1.516   7.877 -1.6188 -1.3738 -0.5931
 5796TIP3    H239024   0.868   1.462   7.940 -0.9630  1.2173  0.4300
 5797TIP3   OH239025   5.682   3.727   8.386  0.2772  0.2268  0.1721
 5797TIP3    H139026   5.697   3.794   8.452 -0.7939  0.4481  0.2082
 5797TIP3    H239027   5.737   3.752   8.312 -1.1242  1.9438 -0.3518
 5798TIP3   OH239028   6.085   3.403   1.521  0.1780  0.0916  0.2109
 5798TIP3    H139029   6.045   3.475   1.570 -2.3354 -0.9919 -0.0943
 5798TIP3    H239030   6.118   3.443   1.440  0.3792  1.1469  0.8046
 5799TIP3   OH239031   1.946   3.199   7.584 -0.7370  0.4911  0.9678
 5799TIP3    H139032   1.856   3.221   7.562 -0.3152  1.2767 -0.0867
 5799TIP3    H239033   1.954   3.219   7.678 -1.7510  0.0493  1.1517
 5800TIP3   OH239034   1.171   3.983   6.445 -0.0888  0.5037  0.2941
 5800TIP3    H139035   1.098   3.963   6.387  1.4993 -2.8466 -0.8096
 5800TIP3    H239036   1.230   4.037   6.392 -0.1703  0.2649 -0.0420
 5801TIP3   OH239037   3.015   1.814   0.332 -0.0173  0.6750 -0.3623
 5801TIP3    H139038   3.025   1.852   0.245  0.1755  0.5715 -0.3858
 5801TIP3    H239039   3.083   1.746   0.337 -0.3922  0.2974 -0.3417
 5802TIP3   OH239040   3.335   5.148   7.222 -1.0760 -0.1790  0.8937
 5802TIP3    H139041   3.275   5.214   7.256 -0.1199  1.6044 -0.6989
 5802TIP3    H239042   3.409   5.148   7.283  0.0402  2.0614 -0.3425
 5803TIP3   OH239043   3.904   1.475   8.430  0.1488  0.2890  0.3077
 5803TIP3    H139044   3.895   1.418   8.353 -1.5441 -2.3233  2.2675
 5803TIP3    H239045   3.998   1.491   8.436  0.4394 -0.3585 -1.6321
 5804TIP3   OH239046   1.171   6.109   6.953  0.0132  0.0128 -0.0052
 5804TIP3    H139047   1.149   6.167   7.026  1.2030 -0.2018  0.5507
 5804TIP3    H239048   1.180   6.022   6.994 -0.6992 -0.3767 -0.6505
 5805TIP3   OH239049   6.089   5.252   7.036 -0.1713  0.0779 -0.1655
 5805TIP3    H139050   6.119   5.298   7.114  2.1866  0.7066 -1.3703
 5805TIP3    H239051   6.027   5.312   6.994 -1.2422 -0.1556  1.0363
 5806TIP3   OH239052   5.676   4.557   7.399  0.5027  0.5094 -0.5979
 5806TIP3    H139053   5.645   4.481   7.349 -2.3355  0.2763  1.2733
 5806TIP3    H239054   5.674   4.629   7.336  1.2837 -0.5408 -1.8874
 5807TIP3   OH239055   2.866   4.819   7.467  0.5893  0.0785  0.6544
 5807TIP3    H139056   2.820   4.827   7.551  1.9547 -1.0490  1.5536
 5807TIP3    H239057   2.953   4.854   7.484  1.1096 -0.8089 -0.0946
 5808TIP3   OH239058   2.424   0.539   1.458 -0.4443 -0.6007  0.6348
 5808TIP3    H139059   2.432   0.590   1.539 -0.3451 -0.0558  0.2891
 5808TIP3    H239060   2.399   0.452   1.487 -0.0816 -0.4986  1.2796
 5809TIP3   OH239061   3.124   1.843   7.122 -0.1016 -0.3784 -0.5416
 5809TIP3    H139062   3.148   1.904   7.052 -0.1004 -1.1166 -1.1951
 5809TIP3    H239063   3.207   1.803   7.148  0.2093  1.3130  1.2738
 5810TIP3   OH239064   1.308   2.624   1.008  0.1955  0.4888 -0.1152
 5810TIP3    H139065   1.352   2.543   0.984  2.0001  0.8110  1.8166
 5810TIP3    H239066   1.377   2.691   1.006 -0.0369  1.0156  3.0258
 5811TIP3   OH239067   4.004   4.436   7.026  0.2015 -0.1330 -0.4478
 5811TIP3    H139068   4.052   4.517   7.038  2.6101 -1.3586 -1.1044
 5811TIP3    H239069   3.931   4.460   6.969 -0.1321  1.8460  0.7172
 5812TIP3   OH239070   2.411   2.118   1.121 -0.1728  0.0804  0.2348
 5812TIP3    H139071   2.327   2.072   1.123 -0.8762  1.3054 -0.0985
 5812TIP3    H239072   2.412   2.165   1.038  1.3156 -0.7216 -0.2431
 5813TIP3   OH239073   3.029   1.353   7.417 -0.2146 -0.2821 -0.2595
 5813TIP3    H139074   2.963   1.380   7.353 -0.4712 -0.0730  0.0910
 5813TIP3    H239075   2.979   1.333   7.496  0.0647 -0.8922 -0.2339
 5814TIP3   OH239076   4.452   5.103   7.396  0.6601 -0.7707  0.1680
 5814TIP3    H139077   4.457   5.074   7.488 -1.9747  1.4988  1.1750
 5814TIP3    H239078   4.399   5.036   7.353 -0.2646 -0.5589  0.9568
 5815TIP3   OH239079   0.901   0.088   0.716  0.1710 -0.1660  0.8568
 5815TIP3    H139080   0.958   0.128   0.781 -0.4095  0.9787  0.6841
 5815TIP3    H239081   0.819   0.137   0.722 -0.8810 -1.8515  1.2033
 5816TIP3   OH239082   5.834   4.534   6.333  0.7584  0.6260  0.2001
 5816TIP3    H139083   5.759   4.563   6.386  1.0982  2.2745 -0.1465
 5816TIP3    H239084   5.796   4.486   6.260 -0.0238  1.7857 -0.1882
 5817TIP3   OH239085   0.448   2.790   0.189  0.2423 -0.3912  0.5156
 5817TIP3    H139086   0.390   2.743   0.249  1.3980 -0.6894  1.4423
 5817TIP3    H239087   0.433   2.749   0.104 -1.8176  0.3975  0.4507
 5818TIP3   OH239088   1.034   1.891   7.054  0.4656  0.1321  0.2975
 5818TIP3    H139089   1.083   1.816   7.087  0.4292  0.5877  1.4679
 5818TIP3    H239090   0.963   1.853   7.002 -0.2774 -0.7378  1.8604
 5819TIP3   OH239091   4.724   4.300   0.790  0.4377 -0.4135 -0.0118
 5819TIP3    H139092   4.796   4.293   0.853 -0.0077  1.5575  0.8153
 5819TIP3    H239093   4.716   4.213   0.752  1.2930 -1.4402  2.0398
 5820TIP3   OH239094   0.022   4.029   0.756  0.4015 -0.3612  0.3109
 5820TIP3    H139095   0.095   4.050   0.814 -0.9460 -0.2411  2.0507
 5820TIP3    H239096  -0.031   4.109   0.755  0.0067 -0.6207 -0.5289
 5821TIP3   OH239097   4.438   6.228   8.623 -0.3183 -0.5732  0.4258
 5821TIP3    H139098   4.462   6.162   8.689 -2.5948 -1.8158  0.1166
 5821TIP3    H239099   4.362   6.273   8.661 -0.8705 -0.4371 -0.7824
 5822TIP3   OH239100   3.693   4.280   6.775 -0.5515  0.3012 -0.2271
 5822TIP3    H139101   3.649   4.216   6.830  0.6326 -0.0629  0.3293
 5822TIP3    H239102   3.671   4.254   6.686  0.0742 -1.0224 -0.0206
 5823TIP3   OH239103   4.605   5.713   8.330 -0.0211  0.8792 -0.3024
 5823TIP3    H139104   4.625   5.767   8.406  0.9824  0.8118 -0.5089
 5823TIP3    H239105   4.527   5.664   8.355  0.0170  1.2257  0.4982
 5824TIP3   OH239106   0.108   6.766   7.493  0.6116 -0.3220 -0.1114
 5824TIP3    H139107   0.033   6.741   7.438  0.6900  2.1494 -1.5142
 5824TIP3    H239108   0.090   6.725   7.577 -2.3468  0.1010 -0.3938
 5825TIP3   OH239109   0.476   4.868   1.533 -0.4505 -0.5875  0.0945
 5825TIP3    H139110   0.524   4.920   1.597 -0.3185 -0.5871 -0.0036
 5825TIP3    H239111   0.522   4.883   1.450 -2.2360  1.5844 -0.5813
 5826TIP3   OH239112   3.379   0.722   8.180  0.7151 -0.3852 -0.1283
 5826TIP3    H139113   3.314   0.671   8.228  2.0222 -1.5038  0.5307
 5826TIP3    H239114   3.399   0.669   8.104 -0.7067  0.9818 -1.5359
 5827TIP3   OH239115   0.242   0.713   1.022 -0.7117 -0.0443 -0.5882
 5827TIP3    H139116   0.197   0.629   1.035  2.2038 -1.8700 -1.3997
 5827TIP3    H239117   0.216   0.766   1.097 -0.4945 -2.7288  1.5315
 5828TIP3   OH239118   6.535   4.128   1.649  1.0017 -0.5525  0.1655
 5828TIP3    H139119   6.504   4.207   1.694 -0.6830 -1.5710  0.8935
 5828TIP3    H239120   6.618   4.108   1.691  0.8868  0.1910  0.7775
 5829TIP3   OH239121   1.224   1.275   8.169  0.6458 -0.4809 -0.5352
 5829TIP3    H139122   1.294   1.328   8.132  0.9845 -0.6415 -0.1275
 5829TIP3    H239123   1.145   1.326   8.154  0.4918 -1.3576 -3.1748
 5830TIP3   OH239124   3.023   3.534   1.837  0.3873  0.4256  0.0051
 5830TIP3    H139125   2.990   3.467   1.897  0.8409  0.4452  0.2791
 5830TIP3    H239126   3.074   3.485   1.772  0.9044  0.5289  0.3337
 5831TIP3   OH239127   1.480   1.293   1.521  0.5216  0.2483 -0.2899
 5831TIP3    H139128   1.409   1.253   1.570  0.6734 -0.0481 -0.3068
 5831TIP3    H239129   1.496   1.376   1.565  2.7769 -1.3233  2.2206
 5832TIP3   OH239130   5.040   0.931   0.367 -0.7710  0.0971 -0.2576
 5832TIP3    H139131   4.993   0.848   0.371 -1.3893  0.4589  0.2519
 5832TIP3    H239132   5.086   0.929   0.283 -1.2106 -0.5243 -0.4909
 5833TIP3   OH239133   5.718   0.893   8.078  0.1540  0.0542 -0.2833
 5833TIP3    H139134   5.693   0.832   8.147 -2.3255  0.0808 -1.0572
 5833TIP3    H239135   5.642   0.951   8.068  1.2530  1.3646 -1.6181
 5834TIP3   OH239136   2.950   3.426   7.378 -0.1619  0.6818  0.1897
 5834TIP3    H139137   2.862   3.391   7.395 -0.2705  0.2954 -0.9952
 5834TIP3    H239138   2.956   3.427   7.282  1.1339  0.6866  0.2556
 5835TIP3   OH239139   1.749   3.985   0.750  0.4323  0.4143 -0.3583
 5835TIP3    H139140   1.715   3.924   0.685 -0.7196  0.9837 -0.3214
 5835TIP3    H239141   1.786   4.057   0.698 -0.7965  1.0354 -0.4228
 5836TIP3   OH239142   1.288   2.125   6.915 -0.4186  0.5525 -0.2365
 5836TIP3    H139143   1.328   2.074   6.844 -0.3120  1.0752 -0.5546
 5836TIP3    H239144   1.311   2.076   6.995  1.4558  1.1806 -0.3349
 5837TIP3   OH239145   2.741   6.021   0.433  0.3621  0.7955  0.0055
 5837TIP3    H139146   2.660   6.067   0.454  0.3170  0.4861  0.5083
 5837TIP3    H239147   2.810   6.077   0.470  0.3377  0.6854  0.2108
 5838TIP3   OH239148   5.076   5.405   7.301 -0.3339 -0.6291  0.3261
 5838TIP3    H139149   5.100   5.463   7.373 -0.4572 -0.8746  0.5672
 5838TIP3    H239150   5.073   5.462   7.224  0.4692 -0.4891  0.3905
 5839TIP3   OH239151   4.041   1.896   1.667  0.4634  0.2166  0.3961
 5839TIP3    H139152   4.072   1.844   1.741  0.1836  0.0914  0.4269
 5839TIP3    H239153   4.067   1.846   1.590 -1.0356 -0.6878  0.4492
 5840TIP3   OH239154   0.080   1.789   7.651 -0.3472 -0.2444  0.2584
 5840TIP3    H139155   0.079   1.717   7.714 -0.6635  0.4948  1.1280
 5840TIP3    H239156  -0.013   1.806   7.633 -0.4100  1.4833  1.9078
 5841TIP3   OH239157   5.921   5.616   7.171 -0.6368 -0.1018  0.4373
 5841TIP3    H139158   5.867   5.550   7.127 -1.8198 -0.1540  1.9001
 5841TIP3    H239159   5.940   5.578   7.256  5.8861 -2.3362 -1.3971
 5842TIP3   OH239160   3.792   4.637   2.298  0.1930 -0.2731 -0.3546
 5842TIP3    H139161   3.798   4.684   2.381 -0.8597  1.9577 -1.4481
 5842TIP3    H239162   3.698   4.622   2.286  0.1718  0.7917 -1.7978
 5843TIP3   OH239163   6.142   6.740   1.075 -0.2155 -0.7974 -0.4466
 5843TIP3    H139164   6.226   6.717   1.114 -0.2526  0.9912  0.7993
 5843TIP3    H239165   6.079   6.680   1.116  0.3142 -1.6280 -0.8173
 5844TIP3   OH239166   1.519   6.449   7.940 -0.1780 -0.2565  0.3096
 5844TIP3    H139167   1.510   6.367   7.987  1.3463 -0.7637 -0.2139
 5844TIP3    H239168   1.448   6.447   7.875  0.3288 -1.5580 -0.2447
 5845TIP3   OH239169   4.522   0.121   1.023  0.3116  0.5290 -0.5928
 5845TIP3    H139170   4.482   0.163   0.946 -2.5150  1.0059  0.9809
 5845TIP3    H239171   4.565   0.192   1.069  0.1583  0.6636 -0.6541
 5846TIP3   OH239172   3.796   0.317   8.263 -0.5754  0.3260 -0.1058
 5846TIP3    H139173   3.703   0.334   8.252 -0.7038 -1.0548 -1.4124
 5846TIP3    H239174   3.838   0.398   8.233 -1.3232  0.6691 -0.2455
 5847TIP3   OH239175   1.918   2.625   8.044 -0.2322  0.4985 -0.2999
 5847TIP3    H139176   1.886   2.689   8.108  0.3562  0.3786  0.1131
 5847TIP3    H239177   1.940   2.548   8.096  3.4301  1.4990 -0.1353
 5848TIP3   OH239178   5.051   4.185   1.444  0.2892  0.0205  0.3958
 5848TIP3    H139179   5.127   4.147   1.400  0.3723  1.4607 -0.7954
 5848TIP3    H239180   4.976   4.145   1.400  0.3645 -0.0615  0.3402
 5849TIP3   OH239181   2.861   2.153   0.683  0.1846  0.0353  0.3642
 5849TIP3    H139182   2.788   2.183   0.629 -0.7425 -2.0377  0.3399
 5849TIP3    H239183   2.878   2.064   0.653  1.7207 -0.0695  1.4170
 5850TIP3   OH239184   5.969   1.714   7.655  0.1309  0.4088 -0.1001
 5850TIP3    H139185   5.941   1.637   7.704  0.0255 -1.0083 -2.2656
 5850TIP3    H239186   5.896   1.733   7.597  1.9951 -1.0142 -3.1340
 5851TIP3   OH239187   0.425   2.088   0.259  0.4007  0.2410  0.3140
 5851TIP3    H139188   0.338   2.110   0.226  1.9860  0.9377 -3.9869
 5851TIP3    H239189   0.407   2.035   0.337 -3.7948  1.1027  0.2173
 5852TIP3   OH239190   1.473   3.401   7.478  0.0191 -0.4182 -0.6044
 5852TIP3    H139191   1.423   3.321   7.467 -3.4340  1.4381  0.1523
 5852TIP3    H239192   1.436   3.462   7.415 -0.1487  1.6859  1.3876
 5853TIP3   OH239193   2.313   5.513   6.028  0.1608  0.3933 -1.0414
 5853TIP3    H139194   2.285   5.423   6.042  1.9625 -0.4179 -2.2174
 5853TIP3    H239195   2.348   5.541   6.113 -0.2710 -0.0708 -0.7111
 5854TIP3   OH239196   5.798   5.733   6.287 -0.0650 -0.0124  0.5301
 5854TIP3    H139197   5.732   5.777   6.233 -0.3920 -1.0378  0.0788
 5854TIP3    H239198   5.841   5.672   6.227  0.5182 -0.1670  1.0986
 5855TIP3   OH239199   2.674   1.278   7.040  0.4048 -0.5689  0.1834
 5855TIP3    H139200   2.748   1.339   7.034  1.7316 -2.0166  0.8655
 5855TIP3    H239201   2.670   1.235   6.955  1.1785 -1.3457  0.5168
 5856TIP3   OH239202   4.971   1.485   6.361  0.8551  0.2666 -0.8838
 5856TIP3    H139203   4.931   1.499   6.447  0.3437 -0.9788 -0.9024
 5856TIP3    H239204   4.929   1.550   6.304  0.4127  0.3842 -0.4305
 5857TIP3   OH239205   0.227   3.390   0.744 -0.0154 -0.3682  0.2516
 5857TIP3    H139206   0.223   3.365   0.652 -0.3131  1.7657 -0.3548
 5857TIP3    H239207   0.138   3.417   0.766  0.6094  1.8065  0.3255
 5858TIP3   OH239208   6.740   5.093   6.907  0.0983 -0.1518 -0.3572
 5858TIP3    H139209   6.723   5.187   6.899  1.8981  0.1845 -0.6983
 5858TIP3    H239210   6.787   5.084   6.989 -1.2042 -0.9622  0.3254
 5859TIP3   OH239211   2.019   1.496   0.750  0.4911 -0.3681 -0.2967
 5859TIP3    H139212   2.001   1.410   0.786 -1.3649 -0.5530 -1.5177
 5859TIP3    H239213   2.102   1.523   0.790 -0.7861 -1.0280  3.1337
 5860TIP3   OH239214   3.090   3.496   6.532 -0.1549  0.8634 -0.5698
 5860TIP3    H139215   2.999   3.512   6.510 -0.2625  1.3757  0.1976
 5860TIP3    H239216   3.139   3.528   6.456 -0.6702 -1.2043 -1.8522
 5861TIP3   OH239217   5.071   3.322   8.176  0.2018 -0.4009 -0.0386
 5861TIP3    H139218   4.998   3.306   8.115  1.2041 -0.4726 -1.2558
 5861TIP3    H239219   5.146   3.340   8.119  0.8774  0.9044  1.1999
 5862TIP3   OH239220   1.593   2.685   0.954  0.5342  0.3274 -0.3378
 5862TIP3    H139221   1.647   2.722   0.884  3.2301 -2.6687 -0.0378
 5862TIP3    H239222   1.634   2.715   1.035  0.0554  0.2620 -0.0665
 5863TIP3   OH239223   5.830   1.712   7.388 -0.1181  0.4337 -0.2116
 5863TIP3    H139224   5.834   1.739   7.296 -0.6031  0.2333 -0.2925
 5863TIP3    H239225   5.823   1.617   7.385  2.4162  0.1670  0.0847
 5864TIP3   OH239226   6.021   5.968   7.444 -0.4268  0.0103  0.5793
 5864TIP3    H139227   6.023   5.974   7.349 -0.5439  0.7736  0.6166
 5864TIP3    H239228   6.105   6.005   7.472  0.3678 -1.8038  0.7182
 5865TIP3   OH239229   5.495   2.475   0.588  0.4441 -0.1070 -0.2285
 5865TIP3    H139230   5.485   2.401   0.529 -0.5984 -0.1949  0.0263
 5865TIP3    H239231   5.539   2.438   0.665 -1.0239 -0.7408  0.3474
 5866TIP3   OH239232   5.272   4.079   1.327 -0.6898  0.2405 -0.0612
 5866TIP3    H139233   5.364   4.106   1.321 -0.8303  0.4137 -1.8479
 5866TIP3    H239234   5.237   4.092   1.239 -2.2194 -0.5991  0.3863
 5867TIP3   OH239235   2.468   2.851   0.956 -0.1690 -0.6835 -0.5981
 5867TIP3    H139236   2.523   2.775   0.939  0.5139 -0.0788 -1.1839
 5867TIP3    H239237   2.403   2.821   1.018  1.5731 -1.1139  1.1091
 5868TIP3   OH239238   4.271   2.169   0.784  0.1123 -0.2253  0.0290
 5868TIP3    H139239   4.196   2.210   0.741 -0.1686 -2.1364 -1.4792
 5868TIP3    H239240   4.232   2.099   0.837  0.8106 -2.2123 -1.9266
 5869TIP3   OH239241   4.819   5.720   6.038 -0.3256 -0.0216 -0.5037
 5869TIP3    H139242   4.774   5.660   5.978 -0.1545 -1.5021  0.7855
 5869TIP3    H239243   4.903   5.679   6.055 -0.2014  0.5841  0.4195
 5870TIP3   OH239244   4.753   5.680   1.113  0.2059 -0.3790 -0.0826
 5870TIP3    H139245   4.751   5.672   1.208 -1.0238  0.6327  0.0001
 5870TIP3    H239246   4.720   5.596   1.081  0.7105 -0.7573  0.3691
 5871TIP3   OH239247   0.933   6.069   6.850  0.2654  0.3899 -0.0822
 5871TIP3    H139248   1.025   6.088   6.868  0.2755 -1.8745  3.1060
 5871TIP3    H239249   0.891   6.155   6.848  2.2614  1.4175 -0.7592
 5872TIP3   OH239250   0.801   6.413   1.856  0.1384  0.4917 -0.4570
 5872TIP3    H139251   0.879   6.358   1.862 -0.7764 -0.8190 -0.2021
 5872TIP3    H239252   0.810   6.475   1.929  1.1742  0.6998 -0.7385
 5873TIP3   OH239253   6.818   4.397   0.346 -0.2351  0.4336  0.5911
 5873TIP3    H139254   6.822   4.303   0.329 -1.8527  0.5816 -0.9828
 5873TIP3    H239255   6.881   4.412   0.416  1.9718 -1.4176 -0.8689
 5874TIP3   OH239256   0.990   3.279   0.306 -0.6192  0.3296 -0.2674
 5874TIP3    H139257   0.906   3.323   0.303 -1.2131 -0.7876 -0.6769
 5874TIP3    H239258   0.971   3.190   0.277  0.6288 -0.0539  0.0441
 5875TIP3   OH239259   1.864   3.723   1.584  0.0727  0.6989  1.0252
 5875TIP3    H139260   1.839   3.814   1.599 -0.2039  0.6120  1.1130
 5875TIP3    H239261   1.792   3.672   1.622  0.7734  0.4179  1.9953
 5876TIP3   OH239262   6.756   2.737   6.208  0.1026 -0.5899 -0.5253
 5876TIP3    H139263   6.704   2.744   6.128 -0.3882 -0.6573 -0.2205
 5876TIP3    H239264   6.770   2.643   6.220 -0.1165 -0.6034 -0.3551
 5877TIP3   OH239265   0.854   5.456   8.635  0.6183  0.0349 -0.7932
 5877TIP3    H139266   0.844   5.534   8.691  1.3901  0.4977 -1.2703
 5877TIP3    H239267   0.794   5.471   8.562 -1.2193 -1.0913  0.4234
 5878TIP3   OH239268   6.202   1.318   7.400 -0.2211 -0.7418 -0.1398
 5878TIP3    H139269   6.283   1.280   7.367 -0.5716 -0.5941 -1.2056
 5878TIP3    H239270   6.143   1.317   7.325 -0.7675  0.3894  0.2568
 5879TIP3   OH239271   3.872   5.598   1.309 -0.6462 -0.1800  0.3718
 5879TIP3    H139272   3.952   5.651   1.302  0.6879 -2.3265 -2.0138
 5879TIP3    H239273   3.804   5.662   1.331  1.4621  1.9371  1.2219
 5880TIP3   OH239274   5.921   6.379   7.620 -0.0821  0.2162 -0.0119
 5880TIP3    H139275   5.930   6.380   7.524  0.2489 -0.2569  0.0109
 5880TIP3    H239276   6.003   6.416   7.652 -0.1385  0.2510  0.0934
 5881TIP3   OH239277   3.296   5.756   0.695  0.2438  0.1966 -1.0056
 5881TIP3    H139278   3.253   5.794   0.618 -0.0554  0.0079 -0.9295
 5881TIP3    H239279   3.376   5.717   0.660 -0.4065 -0.8325 -1.3985
 5882TIP3   OH239280   1.163   6.689   1.704 -0.5128 -0.3590 -0.3988
 5882TIP3    H139281   1.151   6.595   1.710 -1.9286 -0.2660 -1.3091
 5882TIP3    H239282   1.165   6.708   1.610 -1.8178  0.6690 -0.2538
 5883TIP3   OH239283   1.287   1.131   6.330  0.5205  0.4034 -0.0657
 5883TIP3    H139284   1.381   1.141   6.348  0.1149  0.4552  2.3571
 5883TIP3    H239285   1.283   1.075   6.253  2.5396  0.1742 -0.0531
 5884TIP3   OH239286   5.380   1.639   1.405  0.0700  0.0455 -0.3780
 5884TIP3    H139287   5.408   1.580   1.475  0.0663  0.3580 -0.1090
 5884TIP3    H239288   5.394   1.726   1.441  0.9638  0.2230 -1.1125
 5885TIP3   OH239289   4.292   2.321   1.383 -0.1132  0.3065 -0.2467
 5885TIP3    H139290   4.300   2.252   1.317 -0.0592  0.1244 -0.0494
 5885TIP3    H239291   4.268   2.275   1.463 -0.5661  0.5687 -0.2255
 5886TIP3   OH239292   0.111   6.744   8.181 -0.4054  0.3164 -0.3674
 5886TIP3    H139293   0.062   6.798   8.120 -0.1025 -0.9594 -1.7982
 5886TIP3    H239294   0.199   6.780   8.180 -0.0220 -0.5646 -1.8624
 5887TIP3   OH239295   1.268   5.754   1.077  0.0639 -0.1797 -0.4148
 5887TIP3    H139296   1.336   5.811   1.042 -0.6036  1.7150  1.1905
 5887TIP3    H239297   1.309   5.713   1.154  0.0793 -0.7942 -0.7417
 5888TIP3   OH239298   3.882   5.061   1.733 -0.0803 -0.3347  0.2041
 5888TIP3    H139299   3.891   4.974   1.772  1.0879 -1.4071 -2.2217
 5888TIP3    H239300   3.824   5.047   1.658  0.6151  0.8276 -0.5734
 5889TIP3   OH239301   6.850   1.053   8.287 -0.2909  0.4133  0.2369
 5889TIP3    H139302   6.830   0.999   8.210 -1.7048 -1.2526  1.7122
 5889TIP3    H239303   6.927   1.104   8.260 -0.6816 -0.1647 -2.2430
 5890TIP3   OH239304   1.783   2.808   7.169 -0.2699  0.2268  0.1456
 5890TIP3    H139305   1.735   2.803   7.086  0.7474  0.4998 -0.4734
 5890TIP3    H239306   1.767   2.723   7.211  0.7428 -0.6799 -1.2130
 5891TIP3   OH239307   6.472   0.761   6.226 -0.2818 -0.9266  0.2081
 5891TIP3    H139308   6.433   0.677   6.202  0.3087 -0.5865 -2.2468
 5891TIP3    H239309   6.548   0.738   6.279 -0.3024 -1.9267 -0.1796
 5892TIP3   OH239310   0.248   4.831   8.481 -0.2966  0.0703  0.4866
 5892TIP3    H139311   0.243   4.917   8.439 -0.7142 -0.3635 -0.3648
 5892TIP3    H239312   0.245   4.769   8.409 -1.6027 -0.7156  1.1895
 5893TIP3   OH239313   0.173   6.208   7.728  0.7981  0.8177 -0.0235
 5893TIP3    H139314   0.230   6.285   7.729  0.8269  0.8130 -0.8618
 5893TIP3    H239315   0.169   6.182   7.636 -1.8796  1.7802 -0.2458
 5894TIP3   OH239316   0.374   5.696   1.714  0.2554 -0.1955 -0.3175
 5894TIP3    H139317   0.325   5.775   1.691  1.0060  0.7743  1.1756
 5894TIP3    H239318   0.432   5.725   1.785 -1.7437 -2.8089  2.6675
 5895TIP3   OH239319   4.488   5.307   7.234 -0.3448  0.6286  0.0053
 5895TIP3    H139320   4.579   5.291   7.259 -0.2843  1.1795  0.1661
 5895TIP3    H239321   4.440   5.231   7.266  0.2473 -0.2925 -1.2169
 5896TIP3   OH239322   6.709   5.322   8.371 -0.2650 -0.1669 -0.2821
 5896TIP3    H139323   6.754   5.400   8.403 -0.5900 -0.0480 -0.1078
 5896TIP3    H239324   6.620   5.353   8.351  0.0414 -0.1370 -1.7089
 5897TIP3   OH239325   3.024   0.312   0.981  0.1652  0.1698 -0.0058
 5897TIP3    H139326   3.025   0.366   1.060 -1.1715  0.9573 -0.4880
 5897TIP3    H239327   3.117   0.305   0.956  0.8863 -1.9308  2.7837
 5898TIP3   OH239328   1.405   0.575   8.634 -1.0295 -0.3797 -0.9182
 5898TIP3    H139329   1.341   0.530   8.689  0.5549 -0.2968  1.1187
 5898TIP3    H239330   1.476   0.512   8.624  0.6695  1.1125  0.9414
 5899TIP3   OH239331   6.218   6.165   8.274 -0.3416  0.6649 -0.2439
 5899TIP3    H139332   6.164   6.188   8.350  0.9005 -2.2973  1.7118
 5899TIP3    H239333   6.304   6.144   8.311 -0.6830 -4.7612 -1.6505
 5900TIP3   OH239334   1.841   6.640   0.613 -0.1787 -0.3586  0.1089
 5900TIP3    H139335   1.771   6.650   0.678 -0.5145  1.8821 -0.5044
 5900TIP3    H239336   1.799   6.661   0.530  1.1975  1.1297 -0.2549
 5901TIP3   OH239337   4.802   0.375   7.652  0.0101 -0.2711  0.2192
 5901TIP3    H139338   4.892   0.403   7.667 -0.3698 -0.0861  2.4804
 5901TIP3    H239339   4.811   0.290   7.608  1.3094 -0.5323  0.9290
 5902TIP3   OH239340   6.265   4.832   7.723 -0.3773 -0.1138  0.0492
 5902TIP3    H139341   6.320   4.814   7.647 -0.3577 -1.9250  0.4369
 5902TIP3    H239342   6.231   4.746   7.749 -2.1555  0.7490  0.7602
 5903TIP3   OH239343   4.667   5.140   5.899  0.3988 -0.2197 -0.1497
 5903TIP3    H139344   4.711   5.060   5.871 -0.5294 -0.8899  0.2484
 5903TIP3    H239345   4.654   5.128   5.993  2.2016  1.3791  0.3741
 5904TIP3   OH239346   5.344   5.973   8.477 -0.5584 -0.2699  0.0484
 5904TIP3    H139347   5.262   5.942   8.516 -0.1751 -0.2904  0.8578
 5904TIP3    H239348   5.342   6.068   8.492  0.1124 -0.4104  1.1721
 5905TIP3   OH239349   1.621   0.285   6.979  0.7010 -0.4756 -0.0565
 5905TIP3    H139350   1.531   0.270   6.949  0.7502 -0.8013 -0.0490
 5905TIP3    H239351   1.645   0.203   7.023 -0.0131  0.6111  2.5322
 5906TIP3   OH239352   5.684   3.202   7.512 -1.0101  0.6004 -0.4128
 5906TIP3    H139353   5.649   3.113   7.514  1.3275 -0.3926 -0.1816
 5906TIP3    H239354   5.668   3.236   7.600  1.9878 -1.3369  1.0533
 5907TIP3   OH239355   0.792   6.668   7.934  0.2672 -0.0659  0.0432
 5907TIP3    H139356   0.798   6.737   8.000 -2.1208  0.9891 -0.7134
 5907TIP3    H239357   0.865   6.685   7.874  0.8388  0.6276  0.9178
 5908TIP3   OH239358   1.717   3.908   7.108  0.3636  0.5259 -0.5185
 5908TIP3    H139359   1.726   3.834   7.048 -0.9560  0.3658 -0.5312
 5908TIP3    H239360   1.703   3.984   7.051 -0.5499  0.4260 -0.4369
 5909TIP3   OH239361   1.192   6.027   8.071  0.3205 -0.0325  0.3218
 5909TIP3    H139362   1.098   6.020   8.055  0.2975 -0.4423  0.6147
 5909TIP3    H239363   1.215   5.945   8.114  0.7317  0.2415  0.6373
 5910TIP3   OH239364   3.588   2.458   7.510 -0.0368  0.2366  0.4063
 5910TIP3    H139365   3.609   2.470   7.602 -0.8611  0.5476  0.5596
 5910TIP3    H239366   3.493   2.460   7.506 -0.0075  0.3994 -0.4780
 5911TIP3   OH239367   2.141   5.006   7.897 -0.6755 -0.1469 -0.1539
 5911TIP3    H139368   2.118   5.016   7.989  0.1337  0.1807  0.0216
 5911TIP3    H239369   2.206   5.075   7.880 -0.9777 -0.0571 -1.0282
 5912TIP3   OH239370   6.113   4.489   0.357 -0.0266 -0.2367  0.8796
 5912TIP3    H139371   6.117   4.453   0.445 -1.1277 -1.6419  0.4101
 5912TIP3    H239372   6.189   4.451   0.312 -0.0119 -0.2991  0.9581
 5913TIP3   OH239373   0.209   3.353   0.477  0.5290 -0.4985 -0.3073
 5913TIP3    H139374   0.136   3.412   0.463  0.1330 -0.6999  0.8491
 5913TIP3    H239375   0.169   3.270   0.503  1.1318 -0.8715 -0.5317
 5914TIP3   OH239376   4.851   2.924   8.058 -0.3470 -0.7785 -0.1578
 5914TIP3    H139377   4.804   2.885   7.985 -0.2514 -2.4254  0.6267
 5914TIP3    H239378   4.912   2.856   8.088 -0.1248 -0.0266  1.2193
 5915TIP3   OH239379   6.609   1.905   8.635  0.0238 -0.3406 -0.1115
 5915TIP3    H139380   6.617   1.935   8.544 -0.6284 -1.0238 -0.4057
 5915TIP3    H239381   6.698   1.911   8.670  0.1190  0.7963 -0.5104
 5916TIP3   OH239382   1.258   2.347   7.504 -0.1431  0.4330  0.9033
 5916TIP3    H139383   1.243   2.439   7.523 -0.0348  1.2273 -2.2858
 5916TIP3    H239384   1.173   2.315   7.473  0.3513  0.1179 -0.1673
 5917TIP3   OH239385   4.455   1.005   6.489 -0.5320  0.8367  0.5109
 5917TIP3    H139386   4.500   1.037   6.411 -1.1594 -0.7079 -0.5437
 5917TIP3    H239387   4.362   1.007   6.466 -0.7538  0.6648  1.3484
 5918TIP3   OH239388   5.532   0.979   0.648  0.1421 -0.0207 -0.0666
 5918TIP3    H139389   5.598   1.028   0.696 -1.6009 -0.3980  2.9786
 5918TIP3    H239390   5.573   0.958   0.564  2.2627  3.4215 -0.0652
 5919TIP3   OH239391   4.925   5.442   0.867  0.0561 -0.0288 -0.0920
 5919TIP3    H139392   4.945   5.403   0.782  2.4149  0.1036  0.3440
 5919TIP3    H239393   4.992   5.509   0.880  0.6806 -1.0196  2.4759
 5920TIP3   OH239394   3.679   5.820   8.625  0.4510  0.4352  0.0477
 5920TIP3    H139395   3.696   5.727   8.616  0.8967  0.6660 -2.2799
 5920TIP3    H239396   3.765   5.858   8.645  0.5335  0.4625 -0.3450
 5921TIP3   OH239397   0.746   3.245   0.082  0.0138 -0.0242 -0.2660
 5921TIP3    H139398   0.767   3.163   0.127  0.1322  0.4668  0.6086
 5921TIP3    H239399   0.651   3.252   0.089  0.1002  0.4473  0.6604
 5922TIP3   OH239400   4.640   4.475   0.484 -0.2842  0.2066 -0.1436
 5922TIP3    H139401   4.596   4.410   0.538  1.5367 -1.0098 -0.0154
 5922TIP3    H239402   4.571   4.533   0.455 -1.9286 -1.5382  0.0871
 5923TIP3   OH239403   2.925   0.360   6.455  0.1887  0.1421 -0.5836
 5923TIP3    H139404   2.868   0.422   6.501  0.8924  1.3692 -1.2870
 5923TIP3    H239405   2.931   0.395   6.366 -1.1216 -2.1512 -1.6551
 5924TIP3   OH239406   5.302   1.479   8.072 -0.3677 -0.2374  0.2314
 5924TIP3    H139407   5.212   1.511   8.070  0.1529  1.3362  0.0328
 5924TIP3    H239408   5.353   1.554   8.103  1.0220 -0.7019 -0.8345
 5925TIP3   OH239409   6.183   5.936   7.698 -0.1732  0.1185  0.1949
 5925TIP3    H139410   6.183   5.894   7.784  2.5208  0.1158  0.2697
 5925TIP3    H239411   6.254   6.000   7.703 -0.8274  1.0339 -1.6228
 5926TIP3   OH239412   6.441   4.591   1.472  0.3563 -0.6547  0.2052
 5926TIP3    H139413   6.448   4.524   1.540  0.3809  0.9318  1.8584
 5926TIP3    H239414   6.461   4.673   1.518  1.4299  0.3764 -1.9803
 5927TIP3   OH239415   2.924   3.646   8.039  0.3443 -0.0638  0.3470
 5927TIP3    H139416   2.937   3.739   8.057  0.0013 -0.0044  0.3021
 5927TIP3    H239417   3.009   3.616   8.008  0.4027  0.2850  0.1570
 5928TIP3   OH239418   4.319   2.606   0.116 -0.4528 -0.1276  0.4949
 5928TIP3    H139419   4.389   2.664   0.086 -1.0990  1.6589  2.2422
 5928TIP3    H239420   4.361   2.520   0.122  0.6164  0.1593 -1.8604
 5929TIP3   OH239421   4.715   5.538   7.492  0.3448 -0.0577  0.1157
 5929TIP3    H139422   4.767   5.566   7.417  0.0180  1.3417  0.3808
 5929TIP3    H239423   4.625   5.560   7.469  0.2738  0.6493  1.0229
 5930TIP3   OH239424   0.672   1.274   0.596 -0.0799  0.2863 -0.0536
 5930TIP3    H139425   0.699   1.186   0.622  2.6450  0.6975 -1.2401
 5930TIP3    H239426   0.682   1.326   0.676 -0.1804 -0.1580  0.2542
 5931TIP3   OH239427   1.459   5.044   8.601 -0.2352  0.1949  0.4445
 5931TIP3    H139428   1.392   5.089   8.550 -2.4296 -0.9263  2.1358
 5931TIP3    H239429   1.460   5.090   8.685  0.3700 -0.4413  0.8032
 5932TIP3   OH239430   5.720   2.441   7.186  0.7343  0.3006 -0.3221
 5932TIP3    H139431   5.716   2.509   7.254  0.9462 -1.7564  1.9187
 5932TIP3    H239432   5.808   2.404   7.194  0.2690 -0.9402 -0.7089
 5933TIP3   OH239433   3.209   5.461   0.927  0.3701  0.4563  0.1890
 5933TIP3    H139434   3.248   5.459   0.840  1.7316  2.3990  0.6934
 5933TIP3    H239435   3.185   5.553   0.940  1.5389  0.5158  2.3980
 5934TIP3   OH239436   2.603   0.585   7.790  0.5943 -0.1364 -0.1085
 5934TIP3    H139437   2.611   0.534   7.870  1.1826 -0.0681 -0.1255
 5934TIP3    H239438   2.564   0.668   7.818 -0.6928 -0.7032 -0.1306
 5935TIP3   OH239439   2.786   6.643   8.154 -1.0031  0.2108  0.1205
 5935TIP3    H139440   2.717   6.620   8.216 -0.9856  2.1835  0.9495
 5935TIP3    H239441   2.741   6.653   8.070 -1.2425 -1.1345  0.0591
 5936TIP3   OH239442   3.997   3.505   7.915  0.1643 -0.5966  0.0185
 5936TIP3    H139443   4.034   3.460   7.991  2.2777 -1.4403 -1.4153
 5936TIP3    H239444   3.993   3.597   7.942 -0.0101 -0.9962  1.4470
 5937TIP3   OH239445   6.790   4.401   1.619  0.3547 -0.0792  0.0357
 5937TIP3    H139446   6.703   4.361   1.627  0.7552 -1.0456 -0.2512
 5937TIP3    H239447   6.848   4.339   1.665  0.8858  0.5735  0.2512
 5938TIP3   OH239448   0.241   0.538   7.533  0.2921  0.6838 -0.2051
 5938TIP3    H139449   0.294   0.618   7.540  1.4213 -0.0949  0.4318
 5938TIP3    H239450   0.233   0.507   7.623  2.0056 -1.2502 -0.6420
 5939TIP3   OH239451   0.838   0.757   2.151  0.0534  0.3561  0.0343
 5939TIP3    H139452   0.899   0.763   2.225 -1.3425 -0.1489  1.2583
 5939TIP3    H239453   0.803   0.668   2.155  2.1544 -0.7901 -3.0820
 5940TIP3   OH239454   1.174   4.075   1.847  0.0387 -0.2150 -0.3011
 5940TIP3    H139455   1.241   4.008   1.838 -0.6307 -0.7372 -1.6176
 5940TIP3    H239456   1.210   4.137   1.911  0.1211 -2.4820  2.0282
 5941TIP3   OH239457   4.284   1.981   7.399  0.2996  0.0061 -0.3024
 5941TIP3    H139458   4.314   2.059   7.445 -1.0681  0.0778  0.5102
 5941TIP3    H239459   4.349   1.914   7.421  0.5930  0.4881  0.3377
 5942TIP3   OH239460   4.527   4.262   7.689 -0.4692 -0.4264  0.2078
 5942TIP3    H139461   4.613   4.227   7.667  0.3745 -0.7564  3.4586
 5942TIP3    H239462   4.545   4.331   7.753 -2.5191  1.4314 -1.0648
 5943TIP3   OH239463   1.706   2.412   1.037 -0.1844  0.0646 -0.0495
 5943TIP3    H139464   1.653   2.487   1.010 -1.1457  0.4981  2.6754
 5943TIP3    H239465   1.744   2.439   1.121  2.4716 -1.1602 -0.7503
 5944TIP3   OH239466   3.462   1.006   7.675 -0.2212 -0.3830  0.2195
 5944TIP3    H139467   3.468   0.989   7.581 -0.6577 -0.0625  0.1294
 5944TIP3    H239468   3.379   0.965   7.701 -0.9958  1.0385  0.1108
 5945TIP3   OH239469   1.892   3.318   1.757  0.3547 -0.4322 -0.3937
 5945TIP3    H139470   1.871   3.226   1.774 -1.5326 -0.0368 -0.3382
 5945TIP3    H239471   1.933   3.348   1.838  0.2251 -1.0255 -0.1007
 5946TIP3   OH239472   1.175   6.293   7.459 -0.0976  0.7263  0.3998
 5946TIP3    H139473   1.119   6.358   7.415 -1.5687 -2.0877 -2.2953
 5946TIP3    H239474   1.121   6.258   7.529 -1.1290 -0.6013 -0.9728
 5947TIP3   OH239475   3.059   0.461   7.781  0.0407  0.3763  0.1824
 5947TIP3    H139476   2.979   0.433   7.825  0.0152  0.4873  0.2074
 5947TIP3    H239477   3.114   0.383   7.778 -0.0602  0.3053  0.1843
 5948TIP3   OH239478   2.197   1.127   7.202 -0.2912  0.4050 -0.2167
 5948TIP3    H139479   2.165   1.089   7.284  1.7558  2.6348  1.7670
 5948TIP3    H239480   2.252   1.059   7.163 -0.2444 -0.2373  0.9319
 5949TIP3   OH239481   6.194   5.457   0.304 -0.5059  0.1099 -0.1355
 5949TIP3    H139482   6.232   5.378   0.344 -0.3482  0.8840  1.2957
 5949TIP3    H239483   6.258   5.483   0.237 -0.5337 -0.9287 -0.5910
 5950TIP3   OH239484   1.750   5.943   0.062  0.2465  0.1880  0.0868
 5950TIP3    H139485   1.687   6.008   0.092 -0.6472 -0.1193 -1.0345
 5950TIP3    H239486   1.715   5.860   0.095  0.0821  0.0247 -0.4818
 5951TIP3   OH239487   4.734   3.104   0.399 -0.1703  0.2480 -0.0696
 5951TIP3    H139488   4.826   3.109   0.426 -0.0551  0.5486 -0.4970
 5951TIP3    H239489   4.697   3.188   0.423  0.0062  0.6317 -1.0590
 5952TIP3   OH239490   2.747   2.527   1.928 -0.0562 -0.2653 -0.3148
 5952TIP3    H139491   2.784   2.615   1.918 -2.8573  1.1728  0.8159
 5952TIP3    H239492   2.773   2.500   2.016  0.0882 -0.1937 -0.3349
 5953TIP3   OH239493   6.788   2.925   7.710 -0.3382 -0.2013 -0.4997
 5953TIP3    H139494   6.706   2.961   7.676 -0.8762 -0.3116  0.6605
 5953TIP3    H239495   6.847   2.927   7.634 -0.9926  1.1196 -1.0132
 5954TIP3   OH239496   2.618   5.488   2.040  0.7936  0.2156 -0.2780
 5954TIP3    H139497   2.693   5.430   2.048  0.0769 -0.7991 -0.6970
 5954TIP3    H239498   2.648   5.559   1.983  1.3751 -0.2976 -0.6202
 5955TIP3   OH239499   1.400   2.373   0.557  0.7158  0.4381  0.4271
 5955TIP3    H139500   1.369   2.411   0.475  1.2569  0.5645  0.2739
 5955TIP3    H239501   1.437   2.288   0.531 -0.3999 -0.1638  0.7517
 5956TIP3   OH239502   2.593   0.519   8.102  0.3836  0.3201 -0.5567
 5956TIP3    H139503   2.617   0.609   8.082 -0.1947  0.5073 -0.4388
 5956TIP3    H239504   2.528   0.526   8.172  3.2174 -0.3791  2.3936
 5957TIP3   OH239505   2.801   4.919   0.158  0.4429 -0.3491  0.2501
 5957TIP3    H139506   2.709   4.945   0.161  0.3964 -0.1080 -1.8914
 5957TIP3    H239507   2.812   4.879   0.072  2.8773  1.8416 -0.6178
 5958TIP3   OH239508   5.199   3.726   0.202 -0.2352 -0.3065  0.1131
 5958TIP3    H139509   5.226   3.781   0.275  0.8620  1.0196 -1.2140
 5958TIP3    H239510   5.211   3.636   0.233  1.2428  0.2312  1.1930
 5959TIP3   OH239511   3.860   4.214   7.187 -0.1261  0.1684 -0.0361
 5959TIP3    H139512   3.875   4.292   7.134  1.8811 -0.5018 -0.5503
 5959TIP3    H239513   3.885   4.239   7.276 -0.1403  0.3038 -0.0714
 5960TIP3   OH239514   6.784   2.816   0.211 -0.2721  0.0885  0.2496
 5960TIP3    H139515   6.839   2.821   0.133 -0.4177 -1.9642 -0.0314
 5960TIP3    H239516   6.840   2.850   0.281  0.4892  0.2813 -0.4356
 5961TIP3   OH239517   0.259   2.244   1.290 -0.1435 -0.6156 -0.1966
 5961TIP3    H139518   0.172   2.205   1.275 -0.2610 -0.9418  1.1204
 5961TIP3    H239519   0.269   2.241   1.386  1.6263 -1.2572 -0.3674
 5962TIP3   OH239520   0.836   1.066   7.435 -0.3641 -0.3352 -0.4543
 5962TIP3    H139521   0.757   1.021   7.463  0.5221 -0.7611  1.5526
 5962TIP3    H239522   0.850   1.133   7.502  0.3480  0.4969 -1.4080
 5963TIP3   OH239523   3.864   1.321   1.597 -0.0733  0.2234  0.7360
 5963TIP3    H139524   3.820   1.370   1.528  0.1603  0.1342  0.5226
 5963TIP3    H239525   3.854   1.376   1.675 -1.7979 -0.4617  1.0286
 5964TIP3   OH239526   5.243   1.705   7.748  0.9643 -0.0543  1.0669
 5964TIP3    H139527   5.291   1.739   7.824  0.1124  0.0558  1.5633
 5964TIP3    H239528   5.154   1.692   7.780  0.7126 -0.4690  0.2123
 5965TIP3   OH239529   2.887   3.082   7.986  0.6481 -0.1784 -0.0449
 5965TIP3    H139530   2.979   3.067   7.964  1.1165  0.2185  1.4864
 5965TIP3    H239531   2.871   3.021   8.059 -1.4065 -2.9789 -2.5987
 5966TIP3   OH239532   3.287   6.752   6.056 -0.4629  0.6461  0.0392
 5966TIP3    H139533   3.244   6.672   6.085 -0.4720  0.3125 -0.8727
 5966TIP3    H239534   3.282   6.811   6.132 -1.1030  0.0488  0.4696
 5967TIP3   OH239535   6.511   3.298   1.650  0.4076 -0.1210  0.0275
 5967TIP3    H139536   6.467   3.256   1.724  0.6297 -3.2124 -1.4368
 5967TIP3    H239537   6.601   3.312   1.681 -0.2132  1.4249  1.2799
 5968TIP3   OH239538   3.232   4.511   1.758 -0.9585 -0.3261 -0.6722
 5968TIP3    H139539   3.290   4.451   1.804  0.0612 -1.3578 -3.1034
 5968TIP3    H239540   3.290   4.581   1.726 -1.9686  1.5156  1.2452
 5969TIP3   OH239541   6.367   4.487   7.874 -0.0274  0.0685 -0.1423
 5969TIP3    H139542   6.378   4.394   7.853  0.8322  0.5904 -2.3406
 5969TIP3    H239543   6.453   4.525   7.859 -0.8495  1.5564 -1.4475
 5970TIP3   OH239544   2.674   2.227   7.269  0.3021  0.2801 -0.0209
 5970TIP3    H139545   2.681   2.194   7.359  1.2871 -0.8358 -0.4905
 5970TIP3    H239546   2.660   2.149   7.216 -0.8360  0.9854 -0.8015
 5971TIP3   OH239547   4.927   6.619   0.756  0.3891  0.4320 -0.4582
 5971TIP3    H139548   4.994   6.606   0.689  1.1472 -0.7091  0.4715
 5971TIP3    H239549   4.877   6.537   0.755  1.2126 -0.1440  1.1880
 5972TIP3   OH239550   2.564   3.226   8.437 -0.1633 -0.0025  0.0114
 5972TIP3    H139551   2.475   3.245   8.468  0.2234  1.0027  0.5636
 5972TIP3    H239552   2.552   3.162   8.367 -1.3884  0.6575 -0.4183
 5973TIP3   OH239553   1.840   5.652   0.608 -0.4639 -0.1642  0.5693
 5973TIP3    H139554   1.801   5.673   0.523 -0.1124  0.6867  0.6021
 5973TIP3    H239555   1.924   5.698   0.607  0.0620 -1.0919  0.9257
 5974TIP3   OH239556   3.727   1.089   1.257 -0.1731  0.3921 -0.1512
 5974TIP3    H139557   3.661   1.142   1.301  0.2734  0.3712  0.5531
 5974TIP3    H239558   3.809   1.112   1.300  0.0796 -0.6216 -0.0726
 5975TIP3   OH239559   5.379   4.460   0.552  0.0149 -0.0973  0.3297
 5975TIP3    H139560   5.341   4.452   0.639  0.0488  2.1266  0.6031
 5975TIP3    H239561   5.304   4.481   0.496  0.5292  3.1475  0.6770
 5976TIP3   OH239562   1.807   1.726   6.925 -0.4113  0.1212 -0.1541
 5976TIP3    H139563   1.724   1.687   6.896 -0.5195  0.6766 -0.5936
 5976TIP3    H239564   1.847   1.658   6.979  0.1002 -1.2223 -2.0909
 5977TIP3   OH239565   6.254   3.382   0.863 -0.7514  0.2773  0.6294
 5977TIP3    H139566   6.282   3.473   0.871  0.3543  0.1109 -0.8238
 5977TIP3    H239567   6.234   3.355   0.953 -0.2847  1.6965  1.1880
 5978TIP3   OH239568   6.086   0.390   8.363  0.0278 -0.3574 -0.3496
 5978TIP3    H139569   6.134   0.311   8.387 -1.2074 -0.9534  0.2256
 5978TIP3    H239570   6.048   0.421   8.445  1.9289  1.8821 -0.1960
 5979TIP3   OH239571   1.123   2.859   7.800  0.5277 -0.0469 -0.4113
 5979TIP3    H139572   1.087   2.787   7.852 -0.7081  1.1003  0.3722
 5979TIP3    H239573   1.143   2.927   7.864 -0.7001  1.2751 -1.3834
 5980TIP3   OH239574   1.885   2.945   0.662  0.1620  0.3324  0.0881
 5980TIP3    H139575   1.893   2.857   0.701  0.8396 -0.5735 -1.9492
 5980TIP3    H239576   1.857   2.929   0.572  1.7476  2.1105 -0.7873
 5981TIP3   OH239577   0.989   3.081   2.189 -0.1652  0.1202  0.0469
 5981TIP3    H139578   0.920   3.137   2.224 -1.2970  0.0747 -1.9721
 5981TIP3    H239579   1.068   3.135   2.192 -0.8155  1.0876  0.0498
 5982TIP3   OH239580   6.419   5.512   7.554  0.0301  0.4541 -0.0570
 5982TIP3    H139581   6.327   5.531   7.575  0.3439  0.7614  1.1563
 5982TIP3    H239582   6.469   5.561   7.620  0.9948 -1.5449  0.7956
 5983TIP3   OH239583   1.876   2.113   6.718 -0.0227  0.1988  0.2338
 5983TIP3    H139584   1.851   2.079   6.804 -1.0719 -1.3145 -0.6101
 5983TIP3    H239585   1.855   2.206   6.721  0.2953  0.2458  1.7206
 5984TIP3   OH239586   6.035   1.963   6.957 -0.3646 -0.3990  0.0803
 5984TIP3    H139587   6.050   2.058   6.960 -2.6270  0.1927 -2.8474
 5984TIP3    H239588   6.118   1.926   6.928 -0.4657  1.1675 -2.4735
 5985TIP3   OH239589   5.870   1.374   5.859  0.3189  0.7511 -0.6263
 5985TIP3    H139590   5.946   1.316   5.853 -0.5424 -0.3271 -1.4185
 5985TIP3    H239591   5.905   1.461   5.839  1.3179  0.2509 -1.1532
 5986TIP3   OH239592   5.405   3.845   8.509 -0.0033  0.5454 -0.0336
 5986TIP3    H139593   5.496   3.838   8.540  0.6927  2.0115 -1.5922
 5986TIP3    H239594   5.381   3.936   8.525 -0.7147  0.5174 -0.8881
 5987TIP3   OH239595   2.290   5.696   8.233 -0.1549  0.3076  0.0618
 5987TIP3    H139596   2.214   5.645   8.207 -0.6596  1.8610 -1.6854
 5987TIP3    H239597   2.365   5.650   8.195 -0.3228 -0.5079  0.6870
 5988TIP3   OH239598   6.482   6.781   2.123 -0.0370 -0.2357 -0.1756
 5988TIP3    H139599   6.552   6.717   2.135  0.7211  0.0574 -2.5872
 5988TIP3    H239600   6.412   6.731   2.081  0.3181  0.3197 -1.4857
 5989TIP3   OH239601   2.596   5.114   7.854 -0.0473  0.2396 -0.2714
 5989TIP3    H139602   2.579   5.110   7.948 -0.0090  0.6228 -0.2476
 5989TIP3    H239603   2.596   5.207   7.833  3.1156  0.3594 -0.0905
 5990TIP3   OH239604   6.792   1.821   8.125  0.3705  0.3871 -0.4026
 5990TIP3    H139605   6.751   1.904   8.099  0.9557  0.3339 -1.5607
 5990TIP3    H239606   6.720   1.759   8.130  0.1604  0.5452 -1.3564
 5991TIP3   OH239607   5.781   3.624   1.063  0.1051  0.9688  0.6688
 5991TIP3    H139608   5.699   3.672   1.076  0.4490  1.5557  0.6907
 5991TIP3    H239609   5.760   3.559   0.995  0.1120  2.3362 -0.6817
 5992TIP3   OH239610   3.956   4.499   0.542  0.2666  0.5355 -0.1825
 5992TIP3    H139611   3.898   4.494   0.466  0.3508  1.2116 -0.2912
 5992TIP3    H239612   4.034   4.451   0.514  0.7300  1.6768 -0.9246
 5993TIP3   OH239613   5.468   6.858   7.051  0.5576 -0.0321  0.2627
 5993TIP3    H139614   5.461   6.789   6.985 -0.7923  0.6776 -0.3703
 5993TIP3    H239615   5.404   6.923   7.025  0.9130  0.8829  1.5625
 5994TIP3   OH239616   3.341   6.460   0.926  0.0258 -0.0016  0.5420
 5994TIP3    H139617   3.350   6.463   0.831 -0.0900 -0.1108  0.5267
 5994TIP3    H239618   3.430   6.447   0.958  0.4624  2.5367  0.5777
 5995TIP3   OH239619   6.423   1.668   6.189 -0.1015  0.1837 -0.0745
 5995TIP3    H139620   6.468   1.693   6.269 -1.3330  0.6786  0.4933
 5995TIP3    H239621   6.419   1.572   6.192  2.5515 -0.0297 -1.0915
 5996TIP3   OH239622   5.464   4.478   8.431  0.1129  0.2793  0.4524
 5996TIP3    H139623   5.506   4.414   8.373  1.6191 -0.0967  1.8882
 5996TIP3    H239624   5.400   4.427   8.481 -0.3362  0.3736 -0.0130
 5997TIP3   OH239625   4.996   4.350   7.129 -0.3386 -0.0558  0.2465
 5997TIP3    H139626   4.987   4.284   7.060  0.5851  0.3283 -0.2691
 5997TIP3    H239627   5.063   4.409   7.096 -0.3935  0.5418  1.1743
 5998TIP3   OH239628   4.801   1.049   6.419  0.1612  0.2871 -0.3328
 5998TIP3    H139629   4.714   1.085   6.437  0.5851  1.8344 -1.2655
 5998TIP3    H239630   4.798   1.023   6.327  0.2962 -0.8861 -0.0276
 5999TIP3   OH239631   5.188   3.368   6.448 -0.3214 -0.2636 -0.3687
 5999TIP3    H139632   5.178   3.280   6.413 -1.6930 -0.3869  0.2692
 5999TIP3    H239633   5.100   3.393   6.476  0.0760  1.2349 -0.3577
 6000TIP3   OH239634   1.020   3.794   2.060  0.0890 -0.3225  0.0316
 6000TIP3    H139635   0.945   3.849   2.038  1.2397  0.7937 -1.3374
 6000TIP3    H239636   1.054   3.831   2.142  0.8347  1.0780 -0.8586
 6001TIP3   OH239637   2.626   4.229   8.075 -0.0534 -0.3358  0.0690
 6001TIP3    H139638   2.645   4.212   8.167  0.8735  0.7813  0.1038
 6001TIP3    H239639   2.708   4.210   8.029 -0.2524 -0.0648 -0.4170
 6002TIP3   OH239640   2.473   1.956   2.145 -0.3598 -0.5477 -0.8392
 6002TIP3    H139641   2.399   1.942   2.204  0.9502  0.1601  1.0958
 6002TIP3    H239642   2.503   2.045   2.164  2.6702 -1.7017  0.5718
 6003TIP3   OH239643   3.170   1.179   0.751  0.1993 -0.0222  0.3566
 6003TIP3    H139644   3.213   1.258   0.719  1.5146 -0.5147  0.8177
 6003TIP3    H239645   3.149   1.129   0.672  0.6407  0.1660  0.1138
 6004TIP3   OH239646   3.802   0.676   6.671  0.4184  0.3024 -0.2260
 6004TIP3    H139647   3.826   0.733   6.597  0.5219 -0.7138 -0.9985
 6004TIP3    H239648   3.812   0.732   6.748  1.5313  1.0328 -0.8635
 6005TIP3   OH239649   0.118   5.376   1.527  0.3488  0.4537  0.0582
 6005TIP3    H139650   0.145   5.369   1.619  0.1630  1.5356  0.2092
 6005TIP3    H239651   0.173   5.313   1.481  0.1657 -0.3906  0.9664
 6006TIP3   OH239652   1.099   6.530   1.000 -0.2146  1.1304  0.5000
 6006TIP3    H139653   1.050   6.551   1.079  0.3974 -0.0051  1.2027
 6006TIP3    H239654   1.033   6.522   0.932 -1.0422 -0.3782  1.4318
 6007TIP3   OH239655   2.060   3.372   7.406 -0.5918  0.4358  0.1750
 6007TIP3    H139656   2.024   3.305   7.464  0.7331  0.5216  1.1718
 6007TIP3    H239657   2.152   3.380   7.434 -0.1560  1.1452 -1.3472
 6008TIP3   OH239658   6.388   5.299   7.782 -0.3763  0.2004  0.0357
 6008TIP3    H139659   6.395   5.364   7.852  2.4269  0.0696 -0.0235
 6008TIP3    H239660   6.416   5.346   7.703 -1.9051 -0.1158 -0.7470
 6009TIP3   OH239661   6.394   5.209   1.144 -0.3419  0.0266 -0.0407
 6009TIP3    H139662   6.408   5.115   1.161  0.6320  0.1353 -0.1533
 6009TIP3    H239663   6.300   5.217   1.129 -0.4603 -0.9112  0.1236
 6010TIP3   OH239664   4.355   1.232   0.251 -0.1071 -0.1863 -0.4549
 6010TIP3    H139665   4.369   1.229   0.345 -0.8468 -1.6064 -0.3595
 6010TIP3    H239666   4.441   1.253   0.214  0.4282 -0.6820  0.4851
 6011TIP3   OH239667   3.570   2.122   1.155  0.4101 -0.2175  0.4765
 6011TIP3    H139668   3.563   2.149   1.247 -1.5403 -1.0220  0.6164
 6011TIP3    H239669   3.563   2.026   1.158 -3.5611 -0.1588 -0.6744
 6012TIP3   OH239670   2.272   2.677   2.191  0.0537  0.0618 -0.0523
 6012TIP3    H139671   2.310   2.592   2.212 -1.7310 -0.6269  0.6351
 6012TIP3    H239672   2.241   2.711   2.275 -0.4050  0.7747 -0.4980
 6013TIP3   OH239673   2.832   5.275   7.009 -0.2617 -0.1301  0.3582
 6013TIP3    H139674   2.886   5.195   7.014  2.0448  0.8791 -3.6704
 6013TIP3    H239675   2.756   5.249   6.956 -1.0544 -0.2692  1.5264
 6014TIP3   OH239676   3.428   6.405   0.082 -0.4378 -0.0546 -0.0381
 6014TIP3    H139677   3.400   6.432  -0.005 -0.6770 -0.2225 -0.0144
 6014TIP3    H239678   3.445   6.487   0.128 -0.3699  0.0357 -0.2240
 6015TIP3   OH239679   1.529   1.549   0.431 -0.0086 -0.2403 -0.1973
 6015TIP3    H139680   1.458   1.488   0.453  1.6332 -1.9948  0.4665
 6015TIP3    H239681   1.579   1.559   0.512  2.3648 -1.6272 -1.3923
 6016TIP3   OH239682   3.157   6.149   6.795 -0.2012  0.0312  0.0297
 6016TIP3    H139683   3.062   6.147   6.780  0.0245  0.0361 -1.5421
 6016TIP3    H239684   3.195   6.109   6.718  1.0887 -0.2435  0.7682
 6017TIP3   OH239685   6.527   4.024   7.902  0.5836 -0.2098 -0.2093
 6017TIP3    H139686   6.544   3.931   7.888  0.1747 -0.6900  2.1454
 6017TIP3    H239687   6.594   4.052   7.965  0.3577  0.9757 -0.4676
 6018TIP3   OH239688   2.272   2.596   7.506  0.1695 -0.3764  0.1038
 6018TIP3    H139689   2.288   2.564   7.595  2.0512  1.5377  0.5345
 6018TIP3    H239690   2.356   2.585   7.461 -1.1326 -2.8028 -2.0321
 6019TIP3   OH239691   2.080   0.286   0.569 -0.3219 -0.0206  0.4302
 6019TIP3    H139692   2.081   0.239   0.485  0.3667  0.5363  0.1175
 6019TIP3    H239693   2.070   0.217   0.635 -0.8462 -0.4693 -0.1055
 6020TIP3   OH239694   5.081   3.554   8.350  0.3315  0.0300 -0.2077
 6020TIP3    H139695   5.058   3.461   8.347 -0.8729  0.3162 -0.1509
 6020TIP3    H239696   5.130   3.563   8.432 -0.9679 -0.2582  0.6357
 6021TIP3   OH239697   0.601   4.585   2.006  0.2251 -0.1974  0.0760
 6021TIP3    H139698   0.678   4.529   1.993  0.7974  0.3277  1.0333
 6021TIP3    H239699   0.638   4.671   2.026 -0.5956 -0.1657  1.5772
 6022TIP3   OH239700   3.751   1.762   1.845  0.7422  0.7045 -0.1898
 6022TIP3    H139701   3.827   1.814   1.869 -1.3786  4.5641 -0.9057
 6022TIP3    H239702   3.702   1.752   1.927  1.3058 -0.5745  0.0118
 6023TIP3   OH239703   4.271   6.708   7.646 -0.3820 -0.0970  0.0216
 6023TIP3    H139704   4.268   6.634   7.585 -0.4164 -0.8091  0.8728
 6023TIP3    H239705   4.223   6.678   7.723 -1.2552  1.1731  0.0164
 6024TIP3   OH239706   3.453   2.720   7.715 -0.4991 -0.1260  0.1939
 6024TIP3    H139707   3.493   2.798   7.752  2.0255 -1.5696  0.7701
 6024TIP3    H239708   3.410   2.678   7.789 -1.2837  0.3789  0.0267
 6025TIP3   OH239709   0.909   5.066   6.396 -0.5714  0.2491 -0.3564
 6025TIP3    H139710   0.846   5.036   6.330  0.9208 -1.5930 -1.0534
 6025TIP3    H239711   0.927   4.988   6.449 -1.8724  1.6996  2.4648
 6026TIP3   OH239712   1.111   1.014   0.897 -0.0480  0.1376 -0.2685
 6026TIP3    H139713   1.162   1.058   0.965 -0.8132 -0.1806  0.5280
 6026TIP3    H239714   1.152   0.928   0.887  0.2725  0.3103 -0.4578
 6027TIP3   OH239715   1.913   0.907   1.939  0.1211  0.3837  0.8823
 6027TIP3    H139716   1.882   0.895   1.850 -0.2583  1.6344  0.8198
 6027TIP3    H239717   2.008   0.902   1.933  0.0597 -0.7369  0.6244
 6028TIP3   OH239718   4.528   4.605   0.157  0.3115 -0.0717  0.2503
 6028TIP3    H139719   4.433   4.614   0.146 -0.1384 -1.5230  2.2950
 6028TIP3    H239720   4.547   4.653   0.238  1.2905 -0.0354  0.0090
 6029TIP3   OH239721   6.366   4.357   1.100 -0.6893  0.5615 -0.0881
 6029TIP3    H139722   6.274   4.334   1.115 -0.8450  2.3999  2.2662
 6029TIP3    H239723   6.415   4.284   1.135 -1.2499  1.3674  2.5585
 6030TIP3   OH239724   0.270   2.217   7.181 -0.2033 -0.0014  0.1397
 6030TIP3    H139725   0.180   2.184   7.176  0.3356 -1.3541 -1.9688
 6030TIP3    H239726   0.319   2.145   7.222  0.0610  0.4094  0.5491
 6031TIP3   OH239727   1.874   4.243   8.048 -0.2264  0.8952  0.1998
 6031TIP3    H139728   1.859   4.171   7.987  0.2441 -0.8704  2.0594
 6031TIP3    H239729   1.815   4.226   8.121  2.4303  0.2239  2.3677
 6032TIP3   OH239730   0.908   6.121   7.215  0.3448  0.1927  0.2411
 6032TIP3    H139731   0.954   6.199   7.183 -1.3895  1.1218 -0.1000
 6032TIP3    H239732   0.818   6.150   7.227 -0.7606 -2.1733 -1.5107
 6033TIP3   OH239733   2.619   0.174   7.309  0.0505  0.1773  0.3653
 6033TIP3    H139734   2.672   0.147   7.235 -0.4735 -0.2909  0.1502
 6033TIP3    H239735   2.672   0.240   7.355 -0.0969  1.3608 -1.0857
 6034TIP3   OH239736   1.282   4.821   0.406  0.0203 -0.5976 -0.7782
 6034TIP3    H139737   1.204   4.767   0.415  0.6959 -1.3802  0.8972
 6034TIP3    H239738   1.318   4.798   0.320  0.3386 -2.9228 -0.0829
 6035TIP3   OH239739   2.290   5.067   6.340 -0.0262  0.0723  0.0040
 6035TIP3    H139740   2.346   5.038   6.413 -0.2344 -0.2185  0.0483
 6035TIP3    H239741   2.232   5.132   6.379 -1.9598 -1.9799  0.7554
 6036TIP3   OH239742   4.837   4.353   8.123  0.6326  0.3051  0.1723
 6036TIP3    H139743   4.890   4.283   8.086  0.7613  2.0825 -3.4761
 6036TIP3    H239744   4.749   4.317   8.131  1.1134 -0.8411  0.4062
 6037TIP3   OH239745   5.041   0.660   8.098 -0.0735  0.3861  0.0185
 6037TIP3    H139746   5.099   0.709   8.156  0.1719 -0.4149  0.4614
 6037TIP3    H239747   4.958   0.708   8.102  0.8704  2.3403 -1.6704
 6038TIP3   OH239748   1.151   1.395   0.606 -0.4019  0.3663  0.7321
 6038TIP3    H139749   1.165   1.436   0.691  1.0097  0.2906  0.5597
 6038TIP3    H239750   1.147   1.468   0.544 -0.0740  0.3538  0.6961
 6039TIP3   OH239751   0.361   5.454   0.379  0.0596  0.9095 -0.2819
 6039TIP3    H139752   0.360   5.439   0.473 -0.2597 -0.1641 -0.4387
 6039TIP3    H239753   0.370   5.548   0.369  1.8417  0.9025  0.8126
 6040TIP3   OH239754   4.565   0.377   1.141 -0.1480 -0.2439 -0.1810
 6040TIP3    H139755   4.609   0.374   1.225  0.6911 -0.6490 -0.6254
 6040TIP3    H239756   4.554   0.470   1.122 -0.3100 -0.1510  0.3526
 6041TIP3   OH239757   3.104   4.357   2.490 -0.0646 -0.2727 -0.1155
 6041TIP3    H139758   3.017   4.394   2.477 -0.2411 -0.8202 -0.5278
 6041TIP3    H239759   3.124   4.312   2.408  0.8901  0.4087 -0.2688
 6042TIP3   OH239760   5.247   5.256   0.363 -0.4616 -0.0340  0.1005
 6042TIP3    H139761   5.327   5.225   0.321 -0.3215  0.9022 -0.3538
 6042TIP3    H239762   5.271   5.341   0.401 -1.0618 -0.0491  0.5381
 6043TIP3   OH239763   1.822   4.643   0.554  0.0529 -0.2496  0.1795
 6043TIP3    H139764   1.757   4.578   0.526 -0.0645  0.4231 -1.2314
 6043TIP3    H239765   1.769   4.719   0.579  0.1900 -0.6585  1.7965
 6044TIP3   OH239766   5.441   1.280   8.196  0.1700  0.1672  0.2834
 6044TIP3    H139767   5.529   1.316   8.190  0.4844 -0.4498  0.9864
 6044TIP3    H239768   5.384   1.348   8.162  0.6509  1.6696  2.3092
 6045TIP3   OH239769   2.015   5.965   8.007 -0.2463 -0.2383  0.3717
 6045TIP3    H139770   2.051   5.982   8.094  0.4855 -1.3157  0.3040
 6045TIP3    H239771   2.036   5.873   7.990 -0.8550 -0.1916 -0.7198
 6046TIP3   OH239772   2.633   6.407   7.673 -0.0878 -0.3818 -0.8108
 6046TIP3    H139773   2.725   6.382   7.674 -0.8050 -3.4392 -0.4620
 6046TIP3    H239774   2.618   6.449   7.757  1.2056  1.4165 -1.4060
 6047TIP3   OH239775   1.546   6.403   1.455  0.1777  0.2218 -0.1565
 6047TIP3    H139776   1.600   6.414   1.533  0.8832 -2.3967 -0.1844
 6047TIP3    H239777   1.510   6.315   1.462 -1.7287  0.8180 -1.6236
 6048TIP3   OH239778   0.026   1.240   5.838  0.0204 -1.0442 -0.1413
 6048TIP3    H139779   0.031   1.160   5.891 -0.8387 -1.4184 -0.5968
 6048TIP3    H239780  -0.052   1.227   5.784 -0.5378  0.4095  0.2790
 6049TIP3   OH239781   1.725   1.686   6.529 -0.5298  0.1501 -0.1633
 6049TIP3    H139782   1.641   1.641   6.521  0.1356 -1.6513  2.0340
 6049TIP3    H239783   1.791   1.616   6.528  0.8627  1.3997 -0.3362
 6050TIP3   OH239784   1.218   2.630   0.726 -0.0346 -0.5206  0.9456
 6050TIP3    H139785   1.184   2.708   0.682  2.3455 -0.2374 -0.5947
 6050TIP3    H239786   1.235   2.657   0.816 -0.1969  0.4383  0.6912
 6051TIP3   OH239787   3.527   0.749   0.505  0.1215 -0.1969  0.1616
 6051TIP3    H139788   3.494   0.700   0.581  1.6427 -0.1440  0.9016
 6051TIP3    H239789   3.615   0.775   0.531  0.4806  0.2644 -1.4488
 6052TIP3   OH239790   2.910   1.390   1.037 -0.0141  0.2837 -0.4779
 6052TIP3    H139791   2.851   1.429   1.101  0.4431 -0.1757  0.2433
 6052TIP3    H239792   2.926   1.460   0.973 -0.4881  0.7461 -0.0969
 6053TIP3   OH239793   2.208   3.597   1.331  0.1953  0.0931 -0.2428
 6053TIP3    H139794   2.202   3.646   1.413  0.4070  0.3252 -0.3655
 6053TIP3    H239795   2.118   3.598   1.297  0.4607  1.7363 -1.0114
 6054TIP3   OH239796   1.033   3.313   1.014 -0.1885  0.1661 -0.0021
 6054TIP3    H139797   0.991   3.234   1.050 -0.3918 -0.0603 -0.7216
 6054TIP3    H239798   1.019   3.380   1.080  0.9025 -0.6566  1.1166
 6055TIP3   OH239799   5.793   2.677   1.040 -0.0196  0.3256  0.7522
 6055TIP3    H139800   5.744   2.708   1.116  1.3516  0.2334  1.7209
 6055TIP3    H239801   5.807   2.583   1.056 -1.1091 -0.0754 -0.4364
 6056TIP3   OH239802   3.769   6.065   1.488  0.0812 -0.4113  0.2183
 6056TIP3    H139803   3.834   6.047   1.556  0.6588  0.0624 -0.1977
 6056TIP3    H239804   3.687   6.031   1.524  0.5556 -1.0419  0.7451
 6057TIP3   OH239805   1.044   6.245   7.684 -0.4287 -0.2604 -0.0020
 6057TIP3    H139806   0.996   6.324   7.709  1.2437  0.8381 -0.1595
 6057TIP3    H239807   1.087   6.217   7.765 -1.0300 -1.0448  0.0561
 6058TIP3   OH239808   6.049   6.581   0.333  0.0757  0.0271 -0.1623
 6058TIP3    H139809   6.050   6.494   0.372 -0.8297 -0.9070 -2.1062
 6058TIP3    H239810   6.018   6.638   0.404 -2.3576 -1.7200  0.3213
 6059TIP3   OH239811   0.130   6.798   0.808 -0.3028 -0.1446 -0.8801
 6059TIP3    H139812   0.062   6.751   0.761 -1.0208  1.1428 -1.1671
 6059TIP3    H239813   0.181   6.842   0.740  1.0369 -1.3137 -0.6976
 6060TIP3   OH239814   5.136   3.646   0.951 -0.1948 -0.0472 -0.7381
 6060TIP3    H139815   5.044   3.671   0.946 -0.0068  0.3994 -2.3557
 6060TIP3    H239816   5.171   3.701   1.022 -0.9352  0.5886 -0.8499
 6061TIP3   OH239817   1.654   6.285   8.433  0.3146 -0.4002  0.0907
 6061TIP3    H139818   1.562   6.276   8.457  0.0984 -1.2673 -0.9570
 6061TIP3    H239819   1.675   6.203   8.388  1.3209  0.1831 -0.5457
 6062TIP3   OH239820   4.007   0.350   0.098  0.5341 -0.5582 -0.1316
 6062TIP3    H139821   3.960   0.310   0.024  0.4598 -1.8366  0.5703
 6062TIP3    H239822   4.010   0.280   0.164  1.4120  0.2608  0.7135
 6063TIP3   OH239823   2.718   5.381   0.159  0.0102 -0.4458 -0.3377
 6063TIP3    H139824   2.724   5.313   0.091  1.1243 -0.9099  0.1903
 6063TIP3    H239825   2.636   5.425   0.141 -2.0737 -3.5326  0.7859
 6064TIP3   OH239826   1.251   0.379   2.146 -0.9193  0.3160 -0.0081
 6064TIP3    H139827   1.235   0.381   2.052 -1.6756 -0.4502  0.0930
 6064TIP3    H239828   1.236   0.288   2.172 -0.7052  0.5105  0.8528
 6065TIP3   OH239829   3.490   5.602   0.593 -0.0503  0.4137  0.3047
 6065TIP3    H139830   3.537   5.590   0.510 -0.2839 -0.3375  0.2680
 6065TIP3    H239831   3.440   5.521   0.603  0.6101  0.1507  1.5891
 6066TIP3   OH239832   4.823   5.638   8.166 -0.0569  0.8284  0.0760
 6066TIP3    H139833   4.884   5.708   8.189  0.2150  0.7296 -0.3442
 6066TIP3    H239834   4.763   5.634   8.240  0.7047  0.6348  0.7074
 6067TIP3   OH239835   3.645   1.656   2.295 -0.3962  0.2058  0.3801
 6067TIP3    H139836   3.581   1.656   2.367 -0.4912 -0.2720  0.3022
 6067TIP3    H239837   3.717   1.602   2.328 -1.0766 -1.2476 -0.4216
 6068TIP3   OH239838   6.185   5.704   7.552 -0.4404 -0.1007  0.1829
 6068TIP3    H139839   6.099   5.691   7.511 -0.4281  0.9352 -0.1837
 6068TIP3    H239840   6.185   5.795   7.581  0.4086 -0.1913  0.4954
 6069TIP3   OH239841   5.574   3.749   1.217 -0.3132 -0.3789  0.0854
 6069TIP3    H139842   5.538   3.805   1.148  1.0075 -1.3032 -1.4012
 6069TIP3    H239843   5.534   3.783   1.297 -0.8386  1.6158 -0.9412
 6070TIP3   OH239844   2.381   1.765   7.851  0.6112  0.1876  0.3011
 6070TIP3    H139845   2.436   1.771   7.930 -0.1527  1.8610  0.7477
 6070TIP3    H239846   2.292   1.777   7.883  0.1625 -0.4810 -0.6657
 6071TIP3   OH239847   3.811   3.095   0.973 -0.1504 -0.5741  0.0819
 6071TIP3    H139848   3.848   3.157   0.911 -1.2396  1.5584  1.4625
 6071TIP3    H239849   3.717   3.110   0.970 -0.3094 -1.0477  1.5863
 6072TIP3   OH239850   5.536   3.592   6.803  0.6936 -0.6287 -0.5593
 6072TIP3    H139851   5.530   3.600   6.899  1.0078 -0.5782 -0.5439
 6072TIP3    H239852   5.445   3.585   6.774  0.5064  0.7223 -0.3667
 6073TIP3   OH239853   6.400   2.528   1.819  0.6679 -0.1921  0.0628
 6073TIP3    H139854   6.480   2.501   1.773  0.3270 -2.5907  0.7393
 6073TIP3    H239855   6.338   2.456   1.804  0.2112 -0.6577  3.3322
 6074TIP3   OH239856   3.963   0.796   0.685 -0.0069 -0.2989 -0.2433
 6074TIP3    H139857   3.983   0.755   0.601 -0.0973 -1.0763  0.1085
 6074TIP3    H239858   3.875   0.832   0.674 -0.1120 -0.6040 -0.4041
 6075TIP3   OH239859   5.844   5.455   1.770 -0.2721  0.0650 -0.1469
 6075TIP3    H139860   5.917   5.404   1.805 -0.5372  0.3497  0.8385
 6075TIP3    H239861   5.879   5.543   1.758 -0.6096  0.3608  0.9287
 6076TIP3   OH239862   0.679   0.344   1.037 -0.5271 -0.1617 -0.3203
 6076TIP3    H139863   0.637   0.260   1.059  0.1602 -0.4901 -0.2407
 6076TIP3    H239864   0.689   0.341   0.942 -3.8181  1.4058 -0.8841
 6077TIP3   OH239865   3.893   6.251   6.628  0.6277 -0.4816  0.6242
 6077TIP3    H139866   3.881   6.334   6.674 -0.8005 -1.8137  2.8457
 6077TIP3    H239867   3.839   6.259   6.550  1.9942  1.3118 -0.2213
 6078TIP3   OH239868   2.453   3.731   0.514  0.1000 -0.5727  0.0631
 6078TIP3    H139869   2.524   3.741   0.451  1.8381 -0.3802  1.9283
 6078TIP3    H239870   2.431   3.638   0.510  0.8528 -0.7500 -0.1613
 6079TIP3   OH239871   2.839   3.092   6.481  0.2490 -0.0271  0.6906
 6079TIP3    H139872   2.925   3.132   6.487  0.4844 -0.4297  0.0862
 6079TIP3    H239873   2.778   3.164   6.496  0.6711  0.5017 -0.0565
 6080TIP3   OH239874   4.541   4.727   0.407 -0.5352 -0.4480 -0.1536
 6080TIP3    H139875   4.489   4.781   0.467 -1.9353  0.5476 -2.1369
 6080TIP3    H239876   4.616   4.781   0.384 -1.2702  0.2214 -1.1265
 6081TIP3   OH239877   4.648   0.817   1.323 -0.5974 -0.4573  0.5382
 6081TIP3    H139878   4.602   0.889   1.280  0.3641  0.4143  0.9112
 6081TIP3    H239879   4.579   0.765   1.365 -1.4917 -0.9706 -1.4807
 6082TIP3   OH239880   4.533   1.010   5.882 -0.2222 -0.1096 -0.1180
 6082TIP3    H139881   4.563   0.931   5.839  0.6313  0.3731 -0.4278
 6082TIP3    H239882   4.571   1.082   5.831 -1.3856  0.5221 -0.1529
 6083TIP3   OH239883   2.744   0.677   1.678 -0.4637  0.5338  0.2559
 6083TIP3    H139884   2.832   0.713   1.689 -0.3085  0.0523  0.6082
 6083TIP3    H239885   2.745   0.596   1.728 -0.8826  0.1503 -0.3507
 6084TIP3   OH239886   4.090   2.487   6.488  0.2078  0.0120 -0.8378
 6084TIP3    H139887   4.170   2.497   6.436  0.0587 -0.3635 -1.1448
 6084TIP3    H239888   4.023   2.462   6.424 -0.5258  1.8241 -0.8567
 6085TIP3   OH239889   2.473   5.028   8.520 -0.6551  0.5631 -0.0095
 6085TIP3    H139890   2.410   5.099   8.512 -2.0026 -0.6083 -0.2912
 6085TIP3    H239891   2.463   4.997   8.610  0.5591  1.2687  0.3887
 6086TIP3   OH239892   4.080   1.442   1.280 -0.0522 -0.1066 -0.0643
 6086TIP3    H139893   4.130   1.524   1.286  1.8305 -0.9380 -2.3862
 6086TIP3    H239894   4.011   1.450   1.346  1.0844  2.6100  0.9309
 6087TIP3   OH239895   0.391   6.452   0.122 -0.9243 -0.0633 -0.4889
 6087TIP3    H139896   0.350   6.368   0.141  0.5844 -1.1798 -1.8356
 6087TIP3    H239897   0.481   6.429   0.097 -0.1791  2.0509  0.0679
 6088TIP3   OH239898   3.460   4.392   6.953 -0.4665 -0.2639  0.1244
 6088TIP3    H139899   3.454   4.299   6.973 -0.0170 -0.0165  1.5004
 6088TIP3    H239900   3.500   4.431   7.030 -1.1818  1.1659 -0.1847
 6089TIP3   OH239901   5.650   2.645   0.255 -0.5154 -0.0771  0.2566
 6089TIP3    H139902   5.556   2.663   0.258 -0.5668 -0.2189 -0.4368
 6089TIP3    H239903   5.656   2.553   0.231 -0.2119 -0.5289  1.9388
 6090TIP3   OH239904   2.486   6.826   2.763 -0.2438 -0.5570  0.2552
 6090TIP3    H139905   2.460   6.863   2.847  3.8160  1.9456  0.6586
 6090TIP3    H239906   2.410   6.841   2.706 -1.8429  0.8566  2.5963
 6091TIP3   OH239907   6.615   6.659   6.898  0.0738  0.2211 -0.7513
 6091TIP3    H139908   6.523   6.644   6.920  0.5977 -1.0472  0.7322
 6091TIP3    H239909   6.646   6.719   6.966 -0.1278  2.3440 -2.4289
 6092TIP3   OH239910   3.599   2.184   1.425 -0.2167  0.8950 -0.3601
 6092TIP3    H139911   3.694   2.174   1.433 -0.2322  1.4083  0.5865
 6092TIP3    H239912   3.563   2.115   1.479 -0.3537  1.9694  0.9775
 6093TIP3   OH239913   2.147   1.074   2.168  0.0424  0.0131  0.2022
 6093TIP3    H139914   2.163   1.018   2.243 -0.2594 -1.4414 -0.7817
 6093TIP3    H239915   2.127   1.014   2.096 -0.4685  1.3846 -0.8574
 6094TIP3   OH239916   1.941   5.928   1.731 -0.1898 -0.1394  0.2773
 6094TIP3    H139917   1.878   5.969   1.790 -1.3729 -1.5108  0.0032
 6094TIP3    H239918   2.001   5.881   1.788 -1.1519 -1.2143  0.4213
 6095TIP3   OH239919   3.068   4.899   0.211  0.9734 -0.2210  0.0998
 6095TIP3    H139920   2.975   4.921   0.202  1.3842  0.9183 -1.9342
 6095TIP3    H239921   3.070   4.803   0.205 -0.1059 -0.3135  0.8176
 6096TIP3   OH239922   5.282   6.104   7.856  0.3758  0.1063  0.2919
 6096TIP3    H139923   5.305   6.060   7.773  0.4553  0.0711  0.3325
 6096TIP3    H239924   5.187   6.095   7.862  0.4979 -1.0420  0.8508
 6097TIP3   OH239925   3.378   2.320   6.570  0.2217 -0.2510 -0.3311
 6097TIP3    H139926   3.470   2.310   6.545  0.0654 -3.1889 -0.1312
 6097TIP3    H239927   3.333   2.334   6.487  0.6822 -0.6672 -0.6617
 6098TIP3   OH239928   2.231   3.475   0.955 -0.2151  0.8502 -0.3335
 6098TIP3    H139929   2.174   3.494   0.880  0.2810  0.1720 -0.8980
 6098TIP3    H239930   2.201   3.389   0.986  0.6161  0.3977 -0.7609
 6099TIP3   OH239931   2.744   0.088   8.464 -0.3255  0.5058 -0.2814
 6099TIP3    H139932   2.673   0.151   8.478 -0.2806  0.2815  1.1251
 6099TIP3    H239933   2.723   0.015   8.522  0.7853  0.2088 -0.2243
 6100TIP3   OH239934   6.577   1.166   0.215 -0.4894  0.4202 -0.1432
 6100TIP3    H139935   6.569   1.261   0.201 -3.1200  0.2438 -0.1575
 6100TIP3    H239936   6.567   1.156   0.310 -1.4828  0.0749 -0.2756
 6101TIP3   OH239937   4.152   1.893   6.419 -0.2301 -0.1525  0.2048
 6101TIP3    H139938   4.170   1.970   6.366  0.7639 -0.5243 -0.0295
 6101TIP3    H239939   4.201   1.908   6.500  0.3458 -0.7297 -0.0271
 6102TIP3   OH239940   6.893   0.293   7.667  0.0374  0.0963 -0.1968
 6102TIP3    H139941   6.893   0.384   7.637  1.4538 -0.2532 -1.4299
 6102TIP3    H239942   6.801   0.269   7.673 -0.3432  0.8667 -2.2828
 6103TIP3   OH239943   6.549   1.428   8.055  0.1070 -0.3610  0.2364
 6103TIP3    H139944   6.478   1.371   8.025  0.3238 -0.3903 -0.2350
 6103TIP3    H239945   6.610   1.368   8.099  0.7783 -0.6651 -1.0438
 6104TIP3   OH239946   5.793   6.497   7.114  0.1756 -0.0579  0.4005
 6104TIP3    H139947   5.728   6.441   7.072 -0.9328  1.3444  0.1790
 6104TIP3    H239948   5.745   6.576   7.138  1.8904  1.2411 -0.2353
 6105TIP3   OH239949   2.585   2.872   1.804  0.1128 -0.4624  0.1641
 6105TIP3    H139950   2.534   2.819   1.866 -0.5625  1.0122  0.9154
 6105TIP3    H239951   2.676   2.857   1.829 -0.0353 -1.5523  0.1109
 6106TIP3   OH239952   5.815   2.409   1.087  0.2532  0.8995  0.1709
 6106TIP3    H139953   5.859   2.352   1.024  0.5287 -0.6104  1.6526
 6106TIP3    H239954   5.728   2.371   1.098  0.0724  1.3733  0.4142
 6107TIP3   OH239955   2.171   4.213   8.639 -0.1999 -0.2937 -0.0771
 6107TIP3    H139956   2.145   4.229   8.548 -1.8670  0.7550  0.5269
 6107TIP3    H239957   2.154   4.120   8.653  1.4214 -0.7890 -1.2193
 6108TIP3   OH239958   2.050   3.949   0.009 -0.5672 -0.6205 -0.3436
 6108TIP3    H139959   2.033   3.862   0.045 -2.1654 -0.6309 -1.0270
 6108TIP3    H239960   2.039   4.008   0.083  0.3442 -0.9825  0.0839
 6109TIP3   OH239961   3.469   3.438   8.483  0.1904 -0.2319  0.1817
 6109TIP3    H139962   3.492   3.348   8.506  0.4170 -0.0321  0.7768
 6109TIP3    H239963   3.424   3.431   8.399  0.1555 -0.9051  0.2488
 6110TIP3   OH239964   2.003   5.505   7.826 -0.1054  0.9991 -0.0440
 6110TIP3    H139965   2.077   5.496   7.765 -0.2418 -0.2528 -0.0481
 6110TIP3    H239966   1.961   5.587   7.800 -1.7512 -0.7073 -3.4436
 6111TIP3   OH239967   3.080   2.387   6.879 -0.2911  0.3167 -0.3861
 6111TIP3    H139968   3.083   2.482   6.876 -0.1698  0.2955 -1.6916
 6111TIP3    H239969   2.990   2.366   6.904 -0.0946  0.7732  0.7196
 6112TIP3   OH239970   5.999   1.769   1.421  0.1477 -0.0312 -0.0559
 6112TIP3    H139971   5.980   1.762   1.515  1.1583  2.5511  0.4328
 6112TIP3    H239972   6.089   1.739   1.412 -0.2859 -1.2565 -0.3935
 6113TIP3   OH239973   2.488   4.613   6.748  0.1791 -0.4270 -0.6375
 6113TIP3    H139974   2.568   4.627   6.697  1.0874 -0.1008  0.8232
 6113TIP3    H239975   2.440   4.546   6.699  1.0626 -0.2165 -1.8437
 6114TIP3   OH239976   4.208   4.691   6.610  0.4334 -0.3289  0.4265
 6114TIP3    H139977   4.297   4.727   6.611  1.0034 -1.6268 -0.8027
 6114TIP3    H239978   4.156   4.756   6.657  1.8130  1.0341  0.1669
 6115TIP3   OH239979   1.256   0.146   6.808 -0.2791  0.4207 -0.2476
 6115TIP3    H139980   1.348   0.124   6.802 -0.0488  1.1093  0.6194
 6115TIP3    H239981   1.220   0.121   6.723  0.7733  0.4884 -0.7242
 6116TIP3   OH239982   1.684   4.636   0.198 -0.3482 -0.3180 -0.2081
 6116TIP3    H139983   1.753   4.579   0.233 -1.2417 -1.9924 -1.0110
 6116TIP3    H239984   1.603   4.596   0.230 -1.0838 -0.6290 -2.3177
 6117TIP3   OH239985   1.179   6.322   6.671  1.0111 -0.3943  0.3228
 6117TIP3    H139986   1.084   6.320   6.681  1.1031 -0.2748  1.3298
 6117TIP3    H239987   1.196   6.277   6.588  0.0450  0.1097 -0.1535
 6118TIP3   OH239988   6.851   3.036   1.403  0.3242 -0.3282 -0.1776
 6118TIP3    H139989   6.852   2.961   1.343 -1.8827  0.4634 -1.3300
 6118TIP3    H239990   6.937   3.034   1.446  0.9220 -2.5676 -1.3149
 6119TIP3   OH239991   3.838   6.862   7.474 -0.5368 -0.5385 -0.6284
 6119TIP3    H139992   3.743   6.850   7.470 -0.5515 -0.1966 -1.6032
 6119TIP3    H239993   3.856   6.932   7.411  0.2054  0.3919  0.5762
 6120TIP3   OH239994   6.500   1.905   7.737  0.0955  0.0221  0.1951
 6120TIP3    H139995   6.474   1.987   7.778 -0.9811  2.3780 -4.5338
 6120TIP3    H239996   6.429   1.844   7.759 -0.2895  1.0160  1.8864
 6121TIP3   OH239997   2.351   2.324   1.545 -0.2445 -0.1222  0.6023
 6121TIP3    H139998   2.298   2.404   1.546 -0.8198 -0.4280 -0.9320
 6121TIP3    H239999   2.387   2.321   1.456 -0.1968 -1.5315  0.6477
 6122TIP3   OH240000   0.656   4.515   1.315  0.4650 -0.5845 -0.0883
 6122TIP3    H140001   0.572   4.514   1.268  1.4727 -0.6247 -1.9643
 6122TIP3    H240002   0.699   4.434   1.289  1.6689  0.0868 -0.2510
 6123TIP3   OH240003   6.255   5.769   1.874 -0.3465  0.0648  0.0657
 6123TIP3    H140004   6.302   5.696   1.915 -1.7414 -0.6031  0.5478
 6123TIP3    H240005   6.321   5.837   1.864  1.1682 -1.4551 -0.9570
 6124TIP3   OH240006   5.633   5.737   0.589 -0.6991 -0.4288  0.1344
 6124TIP3    H140007   5.667   5.772   0.671  0.0823  0.2178 -0.4348
 6124TIP3    H240008   5.582   5.809   0.552  0.4549 -0.0495 -0.7854
 6125TIP3   OH240009   6.240   1.500   7.954 -0.0586 -0.5112 -0.0050
 6125TIP3    H140010   6.237   1.533   8.044  2.6122 -0.3928  0.1202
 6125TIP3    H240011   6.277   1.412   7.961  0.2111 -0.4919 -0.9647
 6126TIP3   OH240012   2.375   3.972   0.595 -0.6425 -0.1302 -0.0904
 6126TIP3    H140013   2.423   3.892   0.574 -0.1998  0.0523  0.1965
 6126TIP3    H240014   2.331   3.996   0.514 -0.0837 -0.1966 -0.4217
 6127TIP3   OH240015   3.052   0.461   1.237 -0.7239  0.2689 -0.0443
 6127TIP3    H140016   3.091   0.543   1.206 -1.7223  0.9092  0.3799
 6127TIP3    H240017   2.995   0.486   1.309 -1.1328 -0.7906  0.0200
 6128TIP3   OH240018   0.377   6.452   8.170  0.4103 -0.1750 -0.8828
 6128TIP3    H140019   0.466   6.468   8.201  0.2319 -2.9319  1.5535
 6128TIP3    H240020   0.322   6.465   8.248 -0.4691 -4.3127 -0.5952
 6129TIP3   OH240021   5.610   6.377   8.206 -0.0576  0.2962 -0.3561
 6129TIP3    H140022   5.562   6.370   8.123  0.5770 -2.4995 -0.6017
 6129TIP3    H240023   5.600   6.291   8.246  3.3372  0.0886  0.3418
 6130TIP3   OH240024   1.020   1.299   1.898  0.0006  0.3619 -0.1472
 6130TIP3    H140025   0.953   1.233   1.916  1.5464 -1.0814  0.5500
 6130TIP3    H240026   0.974   1.383   1.908 -1.6165 -0.5594  0.6076
 6131TIP3   OH240027   5.761   3.418   6.423 -0.1286 -0.6482 -0.1275
 6131TIP3    H140028   5.681   3.389   6.467 -0.1499 -1.4358 -0.6629
 6131TIP3    H240029   5.825   3.350   6.442  0.0777 -0.6132 -0.6885
 6132TIP3   OH240030   6.435   2.157   7.565 -0.5331  0.3354 -0.2325
 6132TIP3    H140031   6.362   2.200   7.610 -0.2111  0.2089  0.4208
 6132TIP3    H240032   6.398   2.073   7.537 -0.9017  0.6542 -0.7171
 6133TIP3   OH240033   5.179   4.930   7.460  0.3428  0.2293  0.3363
 6133TIP3    H140034   5.218   4.925   7.547  0.9278  1.1956  0.1512
 6133TIP3    H240035   5.244   4.890   7.402  0.0344 -0.2467  0.3110
 6134TIP3   OH240036   0.851   3.446   7.375 -0.5315  0.1825  0.1837
 6134TIP3    H140037   0.904   3.366   7.372  1.4723  1.4385 -0.2037
 6134TIP3    H240038   0.915   3.517   7.365 -2.1727  1.8701  1.0391
 6135TIP3   OH240039   1.541   6.738   1.124  0.8410 -0.7163  0.1597
 6135TIP3    H140040   1.461   6.755   1.074  0.0046  0.0966  1.7065
 6135TIP3    H240041   1.516   6.671   1.187 -0.0724  2.6300  3.7123
 6136TIP3   OH240042   0.546   6.515   6.310  0.1162 -0.2646  0.0304
 6136TIP3    H140043   0.453   6.513   6.288  0.0525 -2.7637  0.2459
 6136TIP3    H240044   0.584   6.578   6.249 -1.7000  0.8987  0.0270
 6137TIP3   OH240045   0.013   6.622   7.054  0.2383  0.1134  0.5463
 6137TIP3    H140046   0.039   6.539   7.015 -1.2889  0.6178 -1.7344
 6137TIP3    H240047  -0.007   6.678   6.979 -2.5347  1.2862  2.0451
 6138TIP3   OH240048   5.711   3.831   0.747 -0.2170  0.7505  0.3643
 6138TIP3    H140049   5.733   3.753   0.696 -1.7228  0.2974  0.3546
 6138TIP3    H240050   5.722   3.904   0.687 -2.6821  0.1687 -0.9438
 6139TIP3   OH240051   3.136   6.193   7.067 -0.4547 -0.1696  0.0987
 6139TIP3    H140052   3.188   6.134   7.122  0.3549  0.8596  0.4551
 6139TIP3    H240053   3.126   6.145   6.984 -0.1240 -0.9538  0.5041
 6140TIP3   OH240054   0.601   3.240   7.021 -0.0670  0.5201  0.0894
 6140TIP3    H140055   0.685   3.208   7.053 -0.5040 -0.6865  0.0909
 6140TIP3    H240056   0.594   3.207   6.932 -1.4392 -1.2739  0.7874
 6141TIP3   OH240057   1.311   3.001   1.862  0.1478  0.1961  0.6275
 6141TIP3    H140058   1.294   3.094   1.851 -0.3024  0.2180  1.4371
 6141TIP3    H240059   1.225   2.960   1.861  0.4121 -0.3724 -0.9624
 6142TIP3   OH240060   1.365   3.977   7.384  0.2650 -0.0239  0.8621
 6142TIP3    H140061   1.379   3.952   7.292 -0.0439  0.6526  0.6255
 6142TIP3    H240062   1.436   3.935   7.431  0.1056 -0.8494  0.3915
 6143TIP3   OH240063   4.359   6.127   8.181 -0.0615 -0.2751 -0.9852
 6143TIP3    H140064   4.355   6.093   8.092  1.0111  0.1357 -1.2034
 6143TIP3    H240065   4.291   6.195   8.183  0.9849  0.8397 -1.9994
 6144TIP3   OH240066   0.020   4.705   7.149 -0.0536 -0.2672  0.3942
 6144TIP3    H140067  -0.016   4.621   7.121  1.0272 -0.3533 -0.8508
 6144TIP3    H240068  -0.012   4.767   7.083  0.4253  0.0068  0.4134
 6145TIP3   OH240069   1.702   3.780   7.834 -0.6113 -0.1590  0.1935
 6145TIP3    H140070   1.775   3.736   7.792 -1.0540 -0.0597 -0.6896
 6145TIP3    H240071   1.630   3.716   7.831 -0.8644  0.1253  0.1088
 6146TIP3   OH240072   6.763   6.200   6.968  0.0922  0.6481  0.3696
 6146TIP3    H140073   6.687   6.243   7.007 -0.6762  1.1287 -1.5529
 6146TIP3    H240074   6.746   6.106   6.979  0.0282  0.7669  1.3718
 6147TIP3   OH240075   5.155   0.201   7.503 -0.3014 -0.2225  0.0224
 6147TIP3    H140076   5.074   0.165   7.538 -0.8797 -1.4073 -2.3072
 6147TIP3    H240077   5.129   0.285   7.465  0.2058  0.7860  1.8058
 6148TIP3   OH240078   3.469   4.546   1.621 -0.1010 -0.3276 -0.6660
 6148TIP3    H140079   3.471   4.605   1.546  1.7256 -1.0686 -1.2458
 6148TIP3    H240080   3.439   4.463   1.584 -1.5088 -0.1098 -0.0807
 6149TIP3   OH240081   3.897   2.055   7.907  0.1400 -0.1307 -0.4873
 6149TIP3    H140082   3.942   2.014   7.981  0.6317  1.5472  0.1908
 6149TIP3    H240083   3.963   2.062   7.839 -0.3265 -1.7252 -1.1774
 6150TIP3   OH240084   2.299   6.755   6.967 -0.2043 -0.1654  0.2301
 6150TIP3    H140085   2.284   6.773   7.060  2.1159  0.6628  0.5076
 6150TIP3    H240086   2.382   6.798   6.947  0.6964 -2.5030 -1.5758
 6151TIP3   OH240087   2.004   0.785   7.536 -0.5194  0.3699  0.6684
 6151TIP3    H140088   1.967   0.710   7.489  1.0465  0.7946 -1.3691
 6151TIP3    H240089   2.047   0.746   7.612 -1.4336 -0.5510  0.7412
 6152TIP3   OH240090   2.194   6.752   0.671 -0.2639 -0.1885 -0.0269
 6152TIP3    H140091   2.132   6.694   0.715 -0.7348  0.0086 -0.4241
 6152TIP3    H240092   2.230   6.699   0.599 -0.0020 -0.2897  0.1791
 6153TIP3   OH240093   5.531   3.969   6.119 -0.0902  0.2288 -0.4445
 6153TIP3    H140094   5.551   4.039   6.182 -2.3579 -0.2030  0.8676
 6153TIP3    H240095   5.532   4.012   6.034 -0.6714  1.7008  0.2576
 6154TIP3   OH240096   3.353   5.343   6.060  0.4293  0.2252 -0.0928
 6154TIP3    H140097   3.279   5.339   6.122 -1.1890  3.0336 -1.6193
 6154TIP3    H240098   3.350   5.259   6.015 -2.0970  0.3291 -0.3005
 6155TIP3   OH240099   3.561   5.290   6.537  0.0555  0.1014  0.0469
 6155TIP3    H140100   3.490   5.272   6.476 -2.2743  4.3516  1.1077
 6155TIP3    H240101   3.554   5.220   6.603 -0.9900 -1.3746 -1.5330
 6156TIP3   OH240102   5.520   1.389   6.740 -0.7152  0.1858 -0.4341
 6156TIP3    H140103   5.461   1.370   6.813 -1.6065  0.8230 -0.9754
 6156TIP3    H240104   5.545   1.303   6.706 -0.6877 -0.1025  0.3020
 6157TIP3   OH240105   6.671   0.443   6.272 -0.0315 -0.3897  0.3637
 6157TIP3    H140106   6.581   0.413   6.259 -0.0728 -0.0972 -0.0621
 6157TIP3    H240107   6.665   0.508   6.342 -0.1956 -0.1715  0.1480
 6158TIP3   OH240108   0.594   3.290   1.679  0.0358 -0.4470  0.0169
 6158TIP3    H140109   0.673   3.295   1.731  0.4978  0.9165 -0.7552
 6158TIP3    H240110   0.621   3.246   1.598 -0.5386 -2.0067  0.6317
 6159TIP3   OH240111   3.388   3.858   6.551 -1.2124  0.5343  0.1842
 6159TIP3    H140112   3.381   3.949   6.523  0.9939  1.7509  3.0667
 6159TIP3    H240113   3.463   3.824   6.502 -0.5290  1.0746  0.8231
 6160TIP3   OH240114   5.690   0.497   1.380  0.2800  0.3753  0.1036
 6160TIP3    H140115   5.748   0.519   1.307 -1.1195  0.2201 -1.0937
 6160TIP3    H240116   5.731   0.420   1.421  1.4359  0.8753 -0.0763
 6161TIP3   OH240117   2.776   0.190   0.226  0.5243 -0.5336  0.0844
 6161TIP3    H140118   2.769   0.094   0.220  1.3083 -0.5110 -2.3622
 6161TIP3    H240119   2.864   0.209   0.196 -0.3413  1.0664 -1.6507
 6162TIP3   OH240120   3.772   5.879   7.861  0.2872  0.3114 -0.0036
 6162TIP3    H140121   3.713   5.829   7.917 -0.2000 -0.6612 -1.3179
 6162TIP3    H240122   3.849   5.823   7.850 -0.2157 -0.1561 -1.3977
 6163TIP3   OH240123   4.201   3.537   8.604  0.2570 -0.4603 -0.4735
 6163TIP3    H140124   4.287   3.496   8.596  0.3566 -0.2571 -0.4339
 6163TIP3    H240125   4.160   3.523   8.519  0.2063 -0.8360 -0.3880
 6164TIP3   OH240126   5.406   4.021   7.453  0.5233  1.1365  0.6168
 6164TIP3    H140127   5.436   3.972   7.530 -0.8205 -0.7394  0.0283
 6164TIP3    H240128   5.351   4.091   7.489  0.5532  0.7667  1.3950
 6165TIP3   OH240129   0.897   4.426   0.431 -0.0060  0.2007 -0.7447
 6165TIP3    H140130   0.874   4.467   0.515  0.8844 -0.8704  0.0483
 6165TIP3    H240131   0.987   4.398   0.442 -0.2436 -1.0067 -1.6409
 6166TIP3   OH240132   6.111   5.759   0.932 -0.2651 -0.6448  0.2841
 6166TIP3    H140133   6.163   5.683   0.957  2.0568  0.8235  0.2500
 6166TIP3    H240134   6.131   5.774   0.840 -1.4499 -0.5531  0.0308
 6167TIP3   OH240135   3.096   4.601   0.146  0.5842 -0.1124 -0.5116
 6167TIP3    H140136   3.009   4.566   0.166  0.4396 -0.9518 -2.4206
 6167TIP3    H240137   3.107   4.588   0.052  2.3964  0.8757 -0.4948
 6168TIP3   OH240138   0.219   0.013   8.426 -0.4448 -0.1458 -0.4796
 6168TIP3    H140139   0.162   0.010   8.349 -0.4599 -0.0458 -0.4732
 6168TIP3    H240140   0.244  -0.078   8.441 -1.1939 -0.2880 -0.0443
 6169TIP3   OH240141   3.239   3.554   0.401  0.2544  0.3243 -0.2756
 6169TIP3    H140142   3.221   3.621   0.335 -1.3772 -0.1605 -0.3655
 6169TIP3    H240143   3.225   3.599   0.484 -1.4716 -0.0128 -0.3409
 6170TIP3   OH240144   4.113   2.412   7.404  0.6696 -0.1306 -0.8059
 6170TIP3    H140145   4.094   2.467   7.329 -1.4210 -1.2397 -1.1558
 6170TIP3    H240146   4.113   2.472   7.479 -1.6545  0.3927 -1.1555
 6171TIP3   OH240147   4.386   6.314   7.727  0.6253  0.6126  0.0248
 6171TIP3    H140148   4.468   6.333   7.682  0.3426 -0.1509 -0.8472
 6171TIP3    H240149   4.318   6.329   7.662  0.1330  0.3932  0.4771
 6172TIP3   OH240150   0.004   5.327   7.385  0.1531  0.0207 -0.1619
 6172TIP3    H140151   0.007   5.417   7.351 -0.6130  0.0524 -0.1591
 6172TIP3    H240152  -0.081   5.320   7.426  0.0443 -0.8394 -0.5148
 6173TIP3   OH240153   5.862   3.687   0.533 -0.5040  0.1407 -0.4752
 6173TIP3    H140154   5.839   3.597   0.512  1.1616 -0.1243 -1.3206
 6173TIP3    H240155   5.854   3.735   0.451  0.5787  0.3151 -0.4971
 6174TIP3   OH240156   1.221   0.746   7.333 -0.0439 -0.0512  0.2057
 6174TIP3    H140157   1.164   0.816   7.300 -1.4093 -0.3342  1.8465
 6174TIP3    H240158   1.174   0.665   7.314 -0.1189 -0.3043  1.3810
 6175TIP3   OH240159   6.041   4.977   7.665 -0.0407  0.0084 -0.1414
 6175TIP3    H140160   6.073   5.065   7.687  2.2990 -0.1843 -2.2991
 6175TIP3    H240161   6.115   4.920   7.682 -0.5290 -1.0971 -1.5102
 6176TIP3   OH240162   6.193   4.593   1.301 -0.5728  0.0327 -0.3100
 6176TIP3    H140163   6.158   4.504   1.309  2.9043 -1.4257  0.6344
 6176TIP3    H240164   6.279   4.588   1.343 -0.2330  3.8835 -0.2620
 6177TIP3   OH240165   6.704   0.177   8.193 -0.0582 -0.0529 -0.6952
 6177TIP3    H140166   6.795   0.149   8.191  0.0015  0.1545 -0.8816
 6177TIP3    H240167   6.705   0.257   8.245 -0.5533 -1.5762  1.8395
 6178TIP3   OH240168   2.292   5.219   7.816 -0.3084 -0.3522  0.4103
 6178TIP3    H140169   2.340   5.152   7.767  0.5080 -0.3134  1.1522
 6178TIP3    H240170   2.306   5.300   7.767  0.3845 -0.3431  0.6143
 6179TIP3   OH240171   3.075   1.967   7.445  0.1186  0.6621  0.1675
 6179TIP3    H140172   3.034   1.899   7.392  3.3693 -0.0089 -1.8147
 6179TIP3    H240173   3.046   2.049   7.406 -2.5065  0.4748  1.5163
 6180TIP3   OH240174   0.315   5.128   1.697 -0.5748  0.0205  0.2629
 6180TIP3    H140175   0.255   5.197   1.728 -1.1557 -0.1082 -0.5140
 6180TIP3    H240176   0.397   5.145   1.743 -1.0356  0.5659  0.9123
 6181TIP3   OH240177   0.536   1.365   7.075  0.2942  0.2583 -0.4739
 6181TIP3    H140178   0.572   1.434   7.019  1.2975  0.8071  0.7937
 6181TIP3    H240179   0.599   1.357   7.147 -0.4915 -1.0572  0.0976
 6182TIP3   OH240180   5.819   4.876   7.819 -0.5706 -0.3574 -0.3620
 6182TIP3    H140181   5.845   4.783   7.817 -0.3159 -0.3140  0.4166
 6182TIP3    H240182   5.899   4.924   7.796 -0.2893 -0.2793  0.7191
 6183TIP3   OH240183   3.478   0.451   6.937 -0.6973 -0.5388  0.4473
 6183TIP3    H140184   3.525   0.437   6.855 -0.5927  0.0301  0.4122
 6183TIP3    H240185   3.446   0.541   6.932  0.7216  0.0753  1.7510
 6184TIP3   OH240186   4.790   3.741   1.380  0.1516 -0.5408 -0.0920
 6184TIP3    H140187   4.815   3.649   1.393 -0.6345 -0.5364  1.7874
 6184TIP3    H240188   4.766   3.771   1.468 -1.0045  1.0510 -0.9174
 6185TIP3   OH240189   6.537   3.062   0.418  0.5033  0.0560  0.4263
 6185TIP3    H140190   6.443   3.080   0.412  0.4681 -0.0676  0.6006
 6185TIP3    H240191   6.567   3.060   0.327  0.0111 -1.6448  0.2652
 6186TIP3   OH240192   3.848   1.272   7.743 -0.6357  0.5223  0.2258
 6186TIP3    H140193   3.824   1.320   7.822 -1.9387  0.0027  0.1762
 6186TIP3    H240194   3.877   1.340   7.682  0.8422  0.8734  1.2931
 6187TIP3   OH240195   2.910   1.198   0.865  0.1187 -0.4365 -0.7002
 6187TIP3    H140196   2.915   1.251   0.944  0.5731 -1.3504 -0.0889
 6187TIP3    H240197   3.001   1.186   0.837 -0.0196 -0.3408 -1.2127
 6188TIP3   OH240198   4.652   3.892   0.213 -0.2715  0.4185  0.3598
 6188TIP3    H140199   4.586   3.852   0.157 -1.2793  1.9959  0.3621
 6188TIP3    H240200   4.621   3.877   0.303 -0.3492  0.6700  0.3777
 6189TIP3   OH240201   5.285   4.500   0.840 -0.3680 -0.0260 -0.3603
 6189TIP3    H140202   5.338   4.554   0.898  0.9410 -0.9822 -0.6276
 6189TIP3    H240203   5.203   4.548   0.830  0.6051  1.6994 -0.2859
 6190TIP3   OH240204   3.421   3.352   1.373  0.0574 -0.0979 -0.4044
 6190TIP3    H140205   3.453   3.391   1.454 -0.2454 -0.9547  0.1413
 6190TIP3    H240206   3.353   3.290   1.401 -0.4854  0.0421 -1.3605
 6191TIP3   OH240207   3.854   1.037   0.025  0.1310  0.2842  0.3325
 6191TIP3    H140208   3.916   1.075  -0.037  0.7575  0.5238  1.0801
 6191TIP3    H240209   3.804   1.112   0.057  0.9490  0.4207  1.3485
 6192TIP3   OH240210   5.516   2.477   1.280 -0.3939  0.3616  0.3466
 6192TIP3    H140211   5.540   2.569   1.276 -1.4209  0.6839  1.1627
 6192TIP3    H240212   5.496   2.453   1.189 -1.2077  1.2608  0.2685
 6193TIP3   OH240213   5.419   2.247   1.527 -0.1974  0.1643  0.6197
 6193TIP3    H140214   5.436   2.341   1.533 -0.7727  0.3138  0.0963
 6193TIP3    H240215   5.349   2.240   1.461  0.1183 -0.6583  0.3609
 6194TIP3   OH240216   1.801   4.507   2.021  0.0408 -0.1885  0.7848
 6194TIP3    H140217   1.822   4.600   2.013 -0.5519 -0.1543 -0.8313
 6194TIP3    H240218   1.706   4.505   2.033  0.1402 -0.5748  1.5870
 6195TIP3   OH240219   2.732   2.184   6.022  0.0634 -0.0237  0.4287
 6195TIP3    H140220   2.654   2.136   5.994 -0.6824  0.8936  0.8609
 6195TIP3    H240221   2.720   2.272   5.985  0.5534  0.3259  1.0790
 6196TIP3   OH240222   5.839   5.270   7.275  0.0398 -0.0841 -0.8731
 6196TIP3    H140223   5.923   5.287   7.318 -0.1291  0.3253 -0.6976
 6196TIP3    H240224   5.778   5.250   7.347  0.1222 -0.9866 -1.0424
 6197TIP3   OH240225   6.454   3.754   1.875 -0.1387  0.1680  0.3322
 6197TIP3    H140226   6.364   3.789   1.872  0.5573  2.0483 -1.3238
 6197TIP3    H240227   6.444   3.665   1.906 -2.3977  0.8876  1.9595
 6198TIP3   OH240228   4.996   1.469   0.293  0.3908  0.4874  0.3521
 6198TIP3    H140229   5.000   1.393   0.235 -2.0946 -1.7254  2.7781
 6198TIP3    H240230   5.035   1.438   0.375 -1.1798  1.6207  1.5866
 6199TIP3   OH240231   0.113   1.768   1.324  0.2013 -0.2184  0.3145
 6199TIP3    H140232   0.028   1.807   1.343  0.8498  0.1702  2.6903
 6199TIP3    H240233   0.106   1.740   1.233 -2.0283  0.9036  0.0622
 6200TIP3   OH240234   4.572   2.938   0.274 -0.2282 -0.0980  0.1901
 6200TIP3    H140235   4.619   3.006   0.322  0.1098 -1.2134  1.4895
 6200TIP3    H240236   4.489   2.928   0.320 -0.5530 -0.1145 -0.3918
 6201TIP3   OH240237   6.860   4.515   8.201  0.5414 -0.5819  0.2576
 6201TIP3    H140238   6.868   4.450   8.271  1.7234 -1.1713 -0.4041
 6201TIP3    H240239   6.922   4.584   8.225 -0.2050 -0.0055  0.5934
 6202TIP3   OH240240   4.178   1.017   8.153  0.0670  0.4186  0.1043
 6202TIP3    H140241   4.142   1.090   8.202  0.7059  0.3037  0.7586
 6202TIP3    H240242   4.210   1.056   8.071 -2.7479  0.3168 -1.1530
 6203TIP3   OH240243   0.931   1.640   8.201  0.0715 -0.4321 -0.1817
 6203TIP3    H140244   0.970   1.723   8.228  0.0526 -0.5613  0.2547
 6203TIP3    H240245   0.862   1.664   8.140 -0.3015 -0.0912  0.3723
 6204TIP3   OH240246   2.678   4.454   6.885 -0.2297  0.2134  0.9983
 6204TIP3    H140247   2.625   4.374   6.884  0.2229 -0.1351 -1.5790
 6204TIP3    H240248   2.620   4.521   6.848  0.4411  0.3118  0.1116
 6205TIP3   OH240249   0.193   2.568   0.846  0.2075 -0.3783  1.1848
 6205TIP3    H140250   0.245   2.542   0.771 -0.5155 -0.4632  0.7056
 6205TIP3    H240251   0.221   2.510   0.917 -2.1178 -3.3145 -0.0991
 6206TIP3   OH240252   3.298   5.918   7.062 -0.1699 -0.1213 -0.0085
 6206TIP3    H140253   3.258   5.891   6.979  0.1752 -0.6450 -0.0027
 6206TIP3    H240254   3.384   5.952   7.037 -0.4669  0.6941  0.0207
 6207TIP3   OH240255   3.316   6.315   7.416 -0.5525 -0.2965 -0.5270
 6207TIP3    H140256   3.296   6.273   7.500 -3.0033 -0.0246 -0.9124
 6207TIP3    H240257   3.337   6.242   7.358  1.7047 -0.4557  0.3895
 6208TIP3   OH240258   1.428   4.210   0.412 -0.3654 -0.1599 -0.0129
 6208TIP3    H140259   1.413   4.116   0.418 -0.1672 -0.2447 -0.7605
 6208TIP3    H240260   1.492   4.229   0.481  1.3175 -0.9651 -1.2621
 6209TIP3   OH240261   3.541   0.164   8.553 -0.7795 -0.3557  0.3857
 6209TIP3    H140262   3.480   0.231   8.521  0.7941  0.8546 -0.1592
 6209TIP3    H240263   3.567   0.116   8.474 -0.0274 -0.0294  0.4385
 6210TIP3   OH240264   6.186   0.865   6.521 -1.0276 -0.1010 -0.2556
 6210TIP3    H140265   6.258   0.822   6.567 -1.5299 -2.5229 -1.5663
 6210TIP3    H240266   6.227   0.938   6.475  0.2764 -0.3969  0.3863
 6211TIP3   OH240267   6.819   2.442   1.295 -0.4085  0.1638  0.0623
 6211TIP3    H140268   6.772   2.360   1.283  0.4128 -0.1224 -1.4510
 6211TIP3    H240269   6.751   2.508   1.306 -1.0973 -0.5474  0.1482
 6212TIP3   OH240270   2.005   4.729   1.033 -0.2844 -0.4804 -0.4575
 6212TIP3    H140271   1.994   4.676   0.954 -0.7912  0.8544 -1.3242
 6212TIP3    H240272   2.017   4.818   1.000  0.8493 -0.0901  0.9433
 6213TIP3   OH240273   2.367   4.546   0.628  0.1239  0.1087  0.1624
 6213TIP3    H140274   2.450   4.565   0.586  0.0729 -1.4548 -0.7410
 6213TIP3    H240275   2.332   4.632   0.654  2.1788  0.7581  0.9550
 6214TIP3   OH240276   5.449   5.445   7.178  0.0873  0.7506 -0.3263
 6214TIP3    H140277   5.436   5.360   7.137  1.0685  0.8661 -0.8989
 6214TIP3    H240278   5.534   5.439   7.221  0.3821  1.5798 -0.7599
 6215TIP3   OH240279   0.271   1.706   8.632 -0.5644 -0.2546 -0.1063
 6215TIP3    H140280   0.334   1.679   8.699 -0.6871  0.0405  0.1297
 6215TIP3    H240281   0.324   1.757   8.570 -0.0099 -2.2260 -1.3602
 6216TIP3   OH240282   2.062   0.606   7.059  0.1035  0.6850 -0.6918
 6216TIP3    H140283   2.015   0.630   6.979 -1.2648  1.7488  0.3760
 6216TIP3    H240284   2.006   0.639   7.130  1.0744 -0.5878  0.7165
 6217TIP3   OH240285   1.934   5.388   1.006 -0.4759 -0.0077  0.9118
 6217TIP3    H140286   1.968   5.326   1.071  1.2094  0.5802  0.6285
 6217TIP3    H240287   1.938   5.340   0.923  0.9606  0.5012  0.6706
 6218TIP3   OH240288   5.998   3.950   7.477 -0.3696 -0.3256 -0.6066
 6218TIP3    H140289   5.988   3.874   7.419  0.0812 -0.6171 -0.3031
 6218TIP3    H240290   5.910   3.964   7.512 -0.7751  0.1893 -1.7583
 6219TIP3   OH240291   1.065   0.844   8.594 -0.0089  0.3154  0.2460
 6219TIP3    H140292   1.141   0.889   8.631 -0.4059  0.7742  0.5107
 6219TIP3    H240293   1.013   0.914   8.554 -0.6347  0.0953  0.6642
 6220TIP3   OH240294   0.223   3.969   8.004  0.4926  0.1454  0.2883
 6220TIP3    H140295   0.152   4.017   7.961  0.9842  2.4678  1.8611
 6220TIP3    H240296   0.292   3.964   7.938  0.1106  0.8843 -0.1799
 6221TIP3   OH240297   0.555   2.431   1.046  0.8019 -0.2653  0.3769
 6221TIP3    H140298   0.629   2.395   0.997  0.4537 -0.5285  0.0427
 6221TIP3    H240299   0.560   2.526   1.030 -0.4426 -0.5131 -1.7838
 6222TIP3   OH240300   6.698   1.842   7.545 -0.2250  0.3264  0.3610
 6222TIP3    H140301   6.680   1.812   7.456  2.4046 -0.1234 -0.1010
 6222TIP3    H240302   6.612   1.847   7.586 -1.6095  1.1858 -2.3763
 6223TIP3   OH240303   5.959   2.587   7.377  0.0269  0.2198  0.2750
 6223TIP3    H140304   5.945   2.497   7.406 -1.5169  0.4022  0.1830
 6223TIP3    H240305   6.006   2.578   7.294  0.5768 -0.4547  0.6395
 6224TIP3   OH240306   2.422   5.855   6.073  0.1410 -0.4850 -0.3301
 6224TIP3    H140307   2.383   5.790   6.132  1.9146 -1.4777 -0.1606
 6224TIP3    H240308   2.481   5.804   6.018  0.4970  0.8094 -1.1853
 6225TIP3   OH240309   4.998   3.662   0.592 -0.3442 -0.7771 -0.1251
 6225TIP3    H140310   4.969   3.633   0.505 -3.0324  0.6492  0.1807
 6225TIP3    H240311   5.014   3.581   0.641 -1.7583 -1.6597 -1.0559
 6226TIP3   OH240312   0.525   0.130   8.529  0.2800 -0.4243  0.1928
 6226TIP3    H140313   0.499   0.197   8.466  0.4195 -1.1673 -0.6718
 6226TIP3    H240314   0.590   0.174   8.585  0.4985  0.1134 -0.4688
 6227TIP3   OH240315   2.843   2.216   0.959  0.4441  0.2832  0.1046
 6227TIP3    H140316   2.907   2.157   0.999  0.4716 -0.6312 -1.2360
 6227TIP3    H240317   2.846   2.195   0.866 -2.3209 -0.3331  0.0629
 6228TIP3   OH240318   0.424   3.501   1.683  0.3342  0.3852  0.4941
 6228TIP3    H140319   0.353   3.437   1.682  0.2711  0.4639 -0.3776
 6228TIP3    H240320   0.503   3.450   1.667  0.0058  0.8147 -3.4130
 6229TIP3   OH240321   3.702   2.890   0.728 -0.8774  0.1778  0.4329
 6229TIP3    H140322   3.647   2.813   0.744 -2.4846  0.0154 -4.2253
 6229TIP3    H240323   3.687   2.946   0.804 -3.4444 -2.0960  1.7952
 6230TIP3   OH240324   0.301   3.537   6.536  0.0985  0.5916  1.1915
 6230TIP3    H140325   0.346   3.455   6.559  0.6977  0.5024 -0.1812
 6230TIP3    H240326   0.250   3.515   6.458 -0.6446  1.2511  1.4806
 6231TIP3   OH240327   6.652   6.664   8.456  0.0759 -0.2085  0.0921
 6231TIP3    H140328   6.619   6.731   8.397 -0.1367 -0.7937 -0.4689
 6231TIP3    H240329   6.745   6.657   8.435 -0.2405 -1.2790 -1.0628
 6232TIP3   OH240330   3.389   4.804   1.159  0.4453  0.0054 -0.6326
 6232TIP3    H140331   3.395   4.868   1.088  0.9998  0.9804  0.2574
 6232TIP3    H240332   3.317   4.747   1.134  0.1910  0.7429 -1.6490
 6233TIP3   OH240333   0.868   1.751   1.356 -0.0003 -0.3589  0.3986
 6233TIP3    H140334   0.795   1.690   1.365 -1.2000  0.8917 -0.3785
 6233TIP3    H240335   0.871   1.772   1.263 -1.1220  2.4428  0.8939
 6234TIP3   OH240336   6.877   5.616   7.291  0.3596 -0.5160  0.3397
 6234TIP3    H140337   6.943   5.684   7.284 -0.8372  0.6582  0.0762
 6234TIP3    H240338   6.806   5.646   7.234  0.0737 -2.3153 -0.3136
 6235TIP3   OH240339   5.251   6.632   7.293 -0.1942 -0.4979  0.7201
 6235TIP3    H140340   5.185   6.661   7.357 -1.5549  0.1434 -0.8998
 6235TIP3    H240341   5.307   6.709   7.280  0.1662 -0.6713  1.2260
 6236TIP3   OH240342   5.620   3.820   7.299 -0.5881  0.0829 -0.8185
 6236TIP3    H140343   5.655   3.762   7.367  1.7630  0.1904 -1.8318
 6236TIP3    H240344   5.564   3.881   7.347 -0.5387 -1.0340  0.7366
 6237TIP3   OH240345   6.447   3.041   8.115 -0.5858  0.1275 -0.1119
 6237TIP3    H140346   6.459   3.130   8.082 -1.3983  0.0195 -0.7097
 6237TIP3    H240347   6.490   2.986   8.050 -0.6594  0.0380 -0.0841
 6238TIP3   OH240348   1.906   6.680   8.589 -0.6606 -0.2401  0.1784
 6238TIP3    H140349   1.926   6.613   8.525 -0.8287 -0.0690 -0.0544
 6238TIP3    H240350   1.943   6.647   8.671 -1.3767 -0.9594  0.2242
 6239TIP3   OH240351   0.062   4.679   0.828  0.0406 -0.6881 -1.0824
 6239TIP3    H140352  -0.034   4.684   0.834  0.0623 -1.4146  0.2219
 6239TIP3    H240353   0.092   4.767   0.851 -0.3049 -0.4472 -1.5260
 6240TIP3   OH240354   0.238   5.933   8.167 -0.0931 -0.4555  0.8884
 6240TIP3    H140355   0.328   5.948   8.197  0.3912 -2.8784  0.8338
 6240TIP3    H240356   0.209   6.019   8.136  1.7975  0.6302  1.9216
 6241TIP3   OH240357   1.659   4.321   7.817 -0.4574 -0.7578 -0.4511
 6241TIP3    H140358   1.578   4.278   7.792  0.2968 -1.3616 -1.9976
 6241TIP3    H240359   1.726   4.253   7.812  0.2479 -0.1439  0.2206
 6242TIP3   OH240360   0.751   5.541   1.128  0.0185  0.1218 -0.3388
 6242TIP3    H140361   0.735   5.501   1.213 -0.5607 -0.8085 -0.8660
 6242TIP3    H240362   0.844   5.564   1.129 -0.1821  0.9588  0.8772
 6243TIP3   OH240363   6.393   6.064   7.231  0.0323  0.5722  0.1276
 6243TIP3    H140364   6.392   6.153   7.197 -1.5142  0.2220 -0.8211
 6243TIP3    H240365   6.381   6.009   7.154 -0.5971 -0.3870  0.8922
 6244TIP3   OH240366   4.244   4.572   0.196 -0.0821 -0.0738 -0.3322
 6244TIP3    H140367   4.219   4.530   0.278 -1.6973 -0.8906 -1.1816
 6244TIP3    H240368   4.194   4.525   0.129  1.9376 -0.1174 -1.9194
 6245TIP3   OH240369   3.003   5.505   8.092  0.4286 -0.1906  0.0616
 6245TIP3    H140370   2.994   5.534   8.001  1.0988  1.4975  0.5067
 6245TIP3    H240371   3.023   5.411   8.084  3.2826  0.4412 -1.7136
 6246TIP3   OH240372   5.469   5.931   2.490  0.2789  0.6034  0.0882
 6246TIP3    H140373   5.512   6.005   2.533  1.5512 -0.3460  0.5208
 6246TIP3    H240374   5.509   5.928   2.403 -0.6549  1.1416 -0.3769
 6247TIP3   OH240375   4.089   1.733   1.003  0.2977 -0.1300 -0.0802
 6247TIP3    H140376   4.144   1.779   0.939 -1.0761  1.5331 -0.1313
 6247TIP3    H240377   4.131   1.751   1.087 -0.9353  2.5032  0.0762
 6248TIP3   OH240378   6.546   3.968   1.430 -0.0582  0.0378  0.6570
 6248TIP3    H140379   6.627   3.935   1.392  1.7099  3.0914  1.3935
 6248TIP3    H240380   6.573   4.006   1.514 -1.8145  2.7423  0.1430
 6249TIP3   OH240381   4.934   6.079   7.703 -0.2319 -0.4044  0.4778
 6249TIP3    H140382   4.951   6.140   7.631 -0.0984  1.1233  1.7581
 6249TIP3    H240383   4.904   5.999   7.659 -0.0069  0.4156 -1.2786
 6250TIP3   OH240384   4.305   4.740   8.488 -0.0112  0.4695  0.2682
 6250TIP3    H140385   4.276   4.821   8.448 -0.3612  0.0790 -0.2931
 6250TIP3    H240386   4.389   4.761   8.529  0.6323  0.7533 -1.1350
 6251TIP3   OH240387   2.222   4.900   1.851 -0.0260  0.1809  0.6077
 6251TIP3    H140388   2.178   4.815   1.842  0.9969 -0.4274  1.2369
 6251TIP3    H240389   2.247   4.905   1.943  0.8658  0.6848  0.3465
 6252TIP3   OH240390   0.779   5.602   7.510 -0.3257  0.2688  0.0550
 6252TIP3    H140391   0.759   5.636   7.597 -0.1873  1.2553 -0.2808
 6252TIP3    H240392   0.764   5.676   7.452  0.8726  0.0171 -0.6031
 6253TIP3   OH240393   4.094   1.012   2.097 -0.3706  0.9082  0.0051
 6253TIP3    H140394   4.028   1.030   2.030 -0.8569  1.9444  0.7381
 6253TIP3    H240395   4.045   1.013   2.179  0.2263 -0.3062  0.3857
 6254TIP3   OH240396   5.554   0.364   5.808  0.1762 -0.6386 -0.5871
 6254TIP3    H140397   5.582   0.446   5.768  2.9297 -0.0829  2.1325
 6254TIP3    H240398   5.634   0.311   5.811 -1.1060 -2.6766 -0.4894
 6255TIP3   OH240399   5.463   3.394   7.138 -0.2046  0.5971 -0.1624
 6255TIP3    H140400   5.512   3.319   7.172 -1.1210  0.5098  1.0053
 6255TIP3    H240401   5.438   3.367   7.049 -0.7016 -0.5721  0.3128
 6256TIP3   OH240402   5.698   3.263   8.339  0.1566  0.2516  0.0210
 6256TIP3    H140403   5.681   3.172   8.366 -0.2768  1.1644  3.2469
 6256TIP3    H240404   5.617   3.290   8.295  0.8655 -1.3030 -2.4673
 6257TIP3   OH240405   3.673   1.814   7.117  0.3766  0.1829 -0.1200
 6257TIP3    H140406   3.675   1.869   7.039  0.2613  0.6464  0.2063
 6257TIP3    H240407   3.765   1.796   7.137  0.4059 -1.6943 -1.5910
 6258TIP3   OH240408   1.026   0.192   8.105 -0.1946 -0.1172 -0.0132
 6258TIP3    H140409   1.030   0.166   8.013 -1.5526 -1.7531  0.3339
 6258TIP3    H240410   1.116   0.185   8.136  0.1848 -0.1013 -1.0713
 6259TIP3   OH240411   5.005   6.119   0.712 -0.2293 -0.0151  0.1832
 6259TIP3    H140412   4.964   6.121   0.798 -0.5207 -0.6202  0.0649
 6259TIP3    H240413   5.069   6.190   0.714 -1.5689  1.2333  0.2296
 6260TIP3   OH240414   3.469   0.654   0.731 -0.2275  0.2631 -0.8856
 6260TIP3    H140415   3.549   0.648   0.783  0.2350  1.1605 -1.4677
 6260TIP3    H240416   3.404   0.694   0.789 -0.2623 -0.4588 -0.4155
 6261TIP3   OH240417   4.635   3.243   0.823  0.1104  0.2565  0.5943
 6261TIP3    H140418   4.596   3.158   0.801 -2.1818  1.3726 -0.0129
 6261TIP3    H240419   4.582   3.275   0.896  1.6554  0.7049  1.5426
 6262TIP3   OH240420   2.342   4.235   8.208 -0.4861 -0.2016 -0.1158
 6262TIP3    H140421   2.413   4.250   8.146  0.7778 -1.8871  0.8810
 6262TIP3    H240422   2.278   4.303   8.186  1.9737  2.2792 -0.1591
 6263TIP3   OH240423   4.885   2.191   1.074 -0.0388  0.2840  0.0963
 6263TIP3    H140424   4.854   2.176   1.164 -1.3189  2.3659  0.0716
 6263TIP3    H240425   4.954   2.126   1.061 -2.2003 -2.4659  1.3379
 6264TIP3   OH240426   4.192   2.750   7.376 -1.2002 -0.0766  0.4456
 6264TIP3    H140427   4.122   2.713   7.323 -0.0263 -1.1921 -0.3937
 6264TIP3    H240428   4.188   2.701   7.458  0.2330 -2.1035 -0.5960
 6265TIP3   OH240429   1.375   0.325   1.529 -0.3490 -0.2590  0.1818
 6265TIP3    H140430   1.391   0.417   1.508  0.4419 -0.2808  0.6542
 6265TIP3    H240431   1.294   0.325   1.580 -0.9348  0.0501 -0.7202
 6266TIP3   OH240432   0.263   6.822   7.127  0.8174 -0.4146 -0.3208
 6266TIP3    H140433   0.186   6.877   7.140  1.1815  0.8578 -2.8831
 6266TIP3    H240434   0.234   6.734   7.153 -0.4569  0.5472  1.7727
 6267TIP3   OH240435   0.794   1.956   6.937  0.0456 -1.0740  0.0212
 6267TIP3    H140436   0.824   1.986   6.851  1.6857 -0.9041  0.6038
 6267TIP3    H240437   0.772   1.864   6.924 -3.4381 -0.1907 -1.4039
 6268TIP3   OH240438   5.185   5.055   1.589 -0.0431 -0.4269 -0.2870
 6268TIP3    H140439   5.262   5.058   1.646 -1.6221 -0.3060  1.9809
 6268TIP3    H240440   5.130   5.128   1.619 -0.5572  0.2222 -2.6274
 6269TIP3   OH240441   3.933   4.282   8.168  0.1001 -0.3741  0.0725
 6269TIP3    H140442   3.948   4.188   8.156  0.5853 -0.1264 -1.4229
 6269TIP3    H240443   3.922   4.316   8.080 -0.0176  1.0015  0.5955
 6270TIP3   OH240444   5.078   0.887   6.750 -0.5056 -0.0478  0.4993
 6270TIP3    H140445   5.067   0.972   6.793 -0.2274  0.2862 -0.0693
 6270TIP3    H240446   5.084   0.908   6.656  0.5113 -0.5977  0.4271
 6271TIP3   OH240447   2.488   5.369   2.335 -0.1510 -0.2486  0.6818
 6271TIP3    H140448   2.452   5.366   2.246 -0.1949 -0.5901  0.7089
 6271TIP3    H240449   2.530   5.284   2.347 -0.6965 -0.4554  1.2129
 6272TIP3   OH240450   0.987   4.573   0.716  0.3188 -0.3440  0.1337
 6272TIP3    H140451   1.041   4.651   0.702 -0.7903  0.6309  0.9792
 6272TIP3    H240452   1.043   4.500   0.694  1.6537  0.6744  0.0413
 6273TIP3   OH240453   3.600   6.680   7.488 -0.2808  0.0531 -0.2814
 6273TIP3    H140454   3.666   6.611   7.499 -1.6070 -1.4884 -1.5107
 6273TIP3    H240455   3.608   6.734   7.567  1.1207 -1.2096  0.4951
 6274TIP3   OH240456   5.859   6.384   6.833 -0.1476 -0.3582 -0.2786
 6274TIP3    H140457   5.910   6.337   6.899  0.4710 -1.4289 -1.4743
 6274TIP3    H240458   5.772   6.343   6.836 -0.4908  0.3660  0.6132
 6275TIP3   OH240459   0.253   1.282   1.574  0.1922  0.2346 -0.2473
 6275TIP3    H140460   0.279   1.338   1.501 -0.7540 -0.1238 -0.8838
 6275TIP3    H240461   0.203   1.211   1.533 -0.7916  0.2957  0.8043
 6276TIP3   OH240462   3.768   1.868   0.113 -0.3855 -0.2785 -1.0335
 6276TIP3    H140463   3.807   1.944   0.157  3.4314 -1.8321 -1.3917
 6276TIP3    H240464   3.751   1.898   0.024 -1.2454  0.7964 -0.5358
 6277TIP3   OH240465   2.211   1.538   6.327  0.0086 -0.8123  0.1041
 6277TIP3    H140466   2.185   1.550   6.235  0.0892  1.9100  0.3613
 6277TIP3    H240467   2.260   1.455   6.327  1.2573 -0.2047 -2.6153
 6278TIP3   OH240468   3.533   2.766   2.157 -0.3016  0.9211 -0.2365
 6278TIP3    H140469   3.588   2.824   2.209 -1.4918  0.6325  1.4063
 6278TIP3    H240470   3.570   2.679   2.169 -0.6292  0.8413  0.2362
 6279TIP3   OH240471   2.919   6.011   8.298  0.2843 -0.2628 -0.4085
 6279TIP3    H140472   2.926   5.979   8.388 -0.6249 -0.3153 -0.3498
 6279TIP3    H240473   2.979   6.085   8.294  0.9177 -0.7464  0.0163
 6280TIP3   OH240474   4.406   5.813   0.132 -0.7085 -0.2261 -0.2848
 6280TIP3    H140475   4.315   5.781   0.136 -0.5922 -0.7160 -1.2655
 6280TIP3    H240476   4.453   5.756   0.193 -0.6433 -1.5481 -1.4880
 6281TIP3   OH240477   3.476   2.953   7.347 -0.2314  0.4055 -0.0588
 6281TIP3    H140478   3.470   2.949   7.443  1.1498  0.6265  0.0702
 6281TIP3    H240479   3.568   2.931   7.329 -0.8082 -1.0340 -1.4364
 6282TIP3   OH240480   1.810   5.553   8.017 -0.0088 -0.1671 -0.3032
 6282TIP3    H140481   1.727   5.544   7.970  0.7665  0.0661 -1.7847
 6282TIP3    H240482   1.877   5.528   7.953  1.1269  0.5647  0.5520
 6283TIP3   OH240483   4.824   3.501   0.105 -0.4998  0.1001  0.4772
 6283TIP3    H140484   4.801   3.566   0.039 -0.5932 -0.2167  0.1917
 6283TIP3    H240485   4.753   3.437   0.101  0.0119 -0.4619  0.1550
 6284TIP3   OH240486   1.264   3.219   1.520 -0.0832  0.0861 -1.1241
 6284TIP3    H140487   1.280   3.230   1.613 -0.6806  0.6425 -1.0826
 6284TIP3    H240488   1.205   3.144   1.514  0.5393 -0.4170 -1.1142
 6285TIP3   OH240489   0.031   1.706   1.067 -0.1047 -0.2228  0.2123
 6285TIP3    H140490   0.107   1.726   1.012 -0.1271 -0.7664 -0.0150
 6285TIP3    H240491  -0.044   1.720   1.010 -0.1472 -0.3614  0.2347
 6286TIP3   OH240492   5.102   4.567   1.332 -0.5752  0.1600 -0.4286
 6286TIP3    H140493   5.070   4.522   1.411  2.1127 -3.8690 -1.3384
 6286TIP3    H240494   5.186   4.604   1.358 -1.2041  1.7894 -0.6226
 6287TIP3   OH240495   4.558   3.005   1.640 -0.5539 -0.3196 -0.8411
 6287TIP3    H140496   4.471   2.968   1.626  0.3830 -2.9181 -0.3790
 6287TIP3    H240497   4.617   2.930   1.630  1.5598  1.2096 -0.3347
 6288TIP3   OH240498   4.311   0.911   8.395 -0.4653  0.8457 -0.2797
 6288TIP3    H140499   4.307   0.816   8.405 -3.4069  1.0005  0.8995
 6288TIP3    H240500   4.265   0.928   8.313  1.9830  1.2169 -1.6850
 6289TIP3   OH240501   2.599   4.197   6.895 -1.2884 -0.0085 -0.5008
 6289TIP3    H140502   2.617   4.119   6.844 -1.4254  0.4010 -1.1923
 6289TIP3    H240503   2.613   4.171   6.986  0.0777 -0.4398 -0.8183
 6290TIP3   OH240504   0.466   1.019   1.543  0.1352  0.1047  0.1873
 6290TIP3    H140505   0.458   1.010   1.638 -0.9718  0.4711  0.1426
 6290TIP3    H240506   0.385   1.062   1.516  0.4467  0.0243 -0.9251
 6291TIP3   OH240507   1.335   4.190   0.997 -0.3127  0.0460 -0.3910
 6291TIP3    H140508   1.342   4.271   0.945 -0.3968 -0.1224 -0.6687
 6291TIP3    H240509   1.425   4.167   1.018 -0.3299  0.7399  0.5210
 6292TIP3   OH240510   6.285   5.476   6.683  0.2096  0.2582  0.0463
 6292TIP3    H140511   6.305   5.431   6.601 -2.4459 -1.2028  0.0596
 6292TIP3    H240512   6.252   5.562   6.656  1.0930  0.4943 -0.2914
 6293TIP3   OH240513   3.437   1.506   0.469 -0.0699 -0.1318  0.6578
 6293TIP3    H140514   3.456   1.430   0.413 -1.3854 -0.7639  1.0081
 6293TIP3    H240515   3.520   1.526   0.511  0.2105 -1.7184  0.9372
 6294TIP3   OH240516   0.736   2.863   7.189 -0.1201 -0.7179 -0.1004
 6294TIP3    H140517   0.726   2.920   7.265  0.1536 -0.3463 -0.3386
 6294TIP3    H240518   0.821   2.820   7.203 -1.0398 -2.3467  0.9120
 6295TIP3   OH240519   6.269   3.108   7.833  0.3002  0.8589 -0.1771
 6295TIP3    H140520   6.347   3.054   7.818  0.3734  1.1394 -0.8434
 6295TIP3    H240521   6.229   3.071   7.912  0.8294  0.3897 -0.1223
 6296TIP3   OH240522   2.301   5.048   1.128  0.4813 -0.0796 -0.0423
 6296TIP3    H140523   2.324   5.026   1.218  2.5947  1.1147 -0.2366
 6296TIP3    H240524   2.374   5.014   1.076 -0.5904 -0.5357 -1.2960
 6297TIP3   OH240525   5.955   6.326   0.385 -0.0857 -0.1163  0.2680
 6297TIP3    H140526   5.879   6.274   0.411  0.2270 -0.7996 -0.1579
 6297TIP3    H240527   6.030   6.268   0.398  0.2349  0.0852 -0.5594
 6298TIP3   OH240528   3.774   0.280   0.595 -0.1018  0.1245  0.4103
 6298TIP3    H140529   3.780   0.195   0.552 -1.6311 -1.3946  2.9561
 6298TIP3    H240530   3.862   0.316   0.589  0.2312 -0.8427 -2.1023
 6299TIP3   OH240531   5.508   3.668   7.059  0.2373 -0.5046 -0.1056
 6299TIP3    H140532   5.452   3.592   7.074 -1.0659  0.4317 -0.0774
 6299TIP3    H240533   5.541   3.691   7.146 -1.0261  0.1988  0.1999
 6300TIP3   OH240534   6.810   5.752   1.526  0.6239 -0.2046  0.0631
 6300TIP3    H140535   6.823   5.726   1.617  1.4234 -0.0441  0.0008
 6300TIP3    H240536   6.825   5.846   1.525  1.5216 -0.3400 -0.3842
 6301TIP3   OH240537   1.679   5.609   1.875 -0.5548 -0.1191  0.2093
 6301TIP3    H140538   1.718   5.630   1.960 -3.0896  0.5169  1.3159
 6301TIP3    H240539   1.695   5.515   1.864  1.9460  0.2512  0.1433
 6302TIP3   OH240540   2.263   3.212   8.144 -0.0997 -0.0083 -0.4065
 6302TIP3    H140541   2.195   3.279   8.138 -0.0014  0.0663 -0.6639
 6302TIP3    H240542   2.228   3.149   8.207  0.3858  0.9698  0.9141
 6303TIP3   OH240543   0.602   2.634   7.407 -0.6655  0.3281 -0.0208
 6303TIP3    H140544   0.583   2.545   7.378  0.6451 -0.1890  0.5952
 6303TIP3    H240545   0.535   2.689   7.365 -0.0449 -0.6137 -2.4217
 6304TIP3   OH240546   4.585   5.103   7.916 -0.7299  0.2853  0.3699
 6304TIP3    H140547   4.629   5.103   7.831  0.5916  0.1690  1.0303
 6304TIP3    H240548   4.607   5.188   7.955 -1.1274  0.2397  0.7049
 6305TIP3   OH240549   1.660   2.945   6.938 -0.4102  0.0679 -0.2456
 6305TIP3    H140550   1.574   2.904   6.930  0.1580 -1.3848  0.6960
 6305TIP3    H240551   1.662   3.010   6.868 -1.3210 -1.5990 -1.9084
 6306TIP3   OH240552   6.287   4.147   7.197  0.0297 -0.8142 -0.1946
 6306TIP3    H140553   6.360   4.208   7.205 -1.8360  1.3016  2.0463
 6306TIP3    H240554   6.268   4.144   7.103 -0.4564  2.9914 -0.3496
 6307TIP3   OH240555   5.284   6.549   1.337 -0.0407 -0.0517 -0.4916
 6307TIP3    H140556   5.204   6.602   1.341 -0.7156 -1.0174 -1.0023
 6307TIP3    H240557   5.257   6.467   1.297  1.3104 -0.2149 -1.1312
 6308TIP3   OH240558   1.068   1.866   8.326  0.1062  0.2349  0.2193
 6308TIP3    H140559   1.037   1.957   8.331 -0.3482  0.0326  1.5957
 6308TIP3    H240560   1.121   1.855   8.405  0.9624 -0.4279 -0.4261
 6309TIP3   OH240561   2.294   1.215   6.713  0.2559  0.5674  0.1784
 6309TIP3    H140562   2.275   1.244   6.802 -0.6463  0.2722  0.1011
 6309TIP3    H240563   2.342   1.133   6.724  0.5607  0.7723  0.3891
 6310TIP3   OH240564   4.670   4.100   0.539 -0.3166 -0.1129  0.1490
 6310TIP3    H140565   4.730   4.036   0.577  0.3266 -0.3388 -1.1788
 6310TIP3    H240566   4.583   4.067   0.560  0.0075 -0.1287  1.5394
 6311TIP3   OH240567   5.196   3.220   8.468 -0.5730  0.1480 -0.2105
 6311TIP3    H140568   5.136   3.267   8.410 -0.9147 -0.6395 -0.4949
 6311TIP3    H240569   5.192   3.270   8.550  0.6663  1.8656 -1.1184
 6312TIP3   OH240570   0.414   0.249   7.157  1.0747  0.3462 -0.2593
 6312TIP3    H140571   0.403   0.247   7.062  0.7427  0.1422 -0.2184
 6312TIP3    H240572   0.339   0.300   7.189  0.5147 -0.6083 -0.0170
 6313TIP3   OH240573   3.659   3.689   0.373  0.2172 -0.4537  0.0808
 6313TIP3    H140574   3.684   3.719   0.285  0.1799 -0.5155  0.0487
 6313TIP3    H240575   3.585   3.745   0.397 -0.8980 -1.5450 -0.6360
 6314TIP3   OH240576   0.567   5.669   8.163  0.0316 -0.5481  0.6797
 6314TIP3    H140577   0.519   5.692   8.242  2.2489 -1.1257  2.3083
 6314TIP3    H240578   0.587   5.753   8.121  1.0923 -0.0193  2.1824
 6315TIP3   OH240579   3.927   5.845   0.487 -0.0687  0.0453  0.2133
 6315TIP3    H140580   3.960   5.757   0.469 -1.5554 -0.3635 -0.6620
 6315TIP3    H240581   4.001   5.903   0.469  0.6412 -0.9509 -0.1444
 6316TIP3   OH240582   5.252   0.458   0.349 -0.3892 -0.0210  0.8515
 6316TIP3    H140583   5.306   0.472   0.426 -0.0095 -1.6969  0.9304
 6316TIP3    H240584   5.178   0.516   0.360 -0.1224  0.0727  2.2672
 6317TIP3   OH240585   3.883   0.033   1.175  0.6588 -0.3139 -0.0333
 6317TIP3    H140586   3.954   0.072   1.225  1.1811 -3.0071  1.5264
 6317TIP3    H240587   3.914   0.033   1.085  1.1997  1.4772  0.1124
 6318TIP3   OH240588   5.146   0.945   5.595 -0.5863  0.1183  0.0450
 6318TIP3    H140589   5.098   0.922   5.515  0.5123  0.4631 -0.7484
 6318TIP3    H240590   5.079   0.974   5.656 -1.5108 -0.6503 -0.5656
 6319TIP3   OH240591   2.338   5.754   1.184  0.0948 -0.0330 -0.1285
 6319TIP3    H140592   2.281   5.722   1.114 -0.0615 -1.0431  0.4354
 6319TIP3    H240593   2.311   5.845   1.197 -0.4806 -0.1036 -0.7709
 6320TIP3   OH240594   5.081   0.980   7.125 -0.3166  0.3222 -0.1392
 6320TIP3    H140595   5.140   0.937   7.187  0.1986  2.1943  0.7303
 6320TIP3    H240596   5.046   0.908   7.072 -0.4476 -1.2973  2.0138
 6321TIP3   OH240597   3.416   1.681   0.943  0.3464  0.5965  0.2449
 6321TIP3    H140598   3.371   1.633   1.012  0.1230  1.4360  0.6865
 6321TIP3    H240599   3.353   1.686   0.872  0.0453  1.0294  0.5418
 6322TIP3   OH240600   3.228   4.398   6.822 -0.4766  0.2029  0.5873
 6322TIP3    H140601   3.200   4.313   6.854  1.2661 -0.0883  1.4245
 6322TIP3    H240602   3.319   4.406   6.848  0.3132  1.0718 -2.0291
 6323TIP3   OH240603   3.318   4.728   8.174  0.1453  0.4443  0.0043
 6323TIP3    H140604   3.262   4.747   8.099  1.1294  3.0189 -0.1800
 6323TIP3    H240605   3.387   4.672   8.138 -0.2953  0.2925 -0.6236
 6324TIP3   OH240606   4.998   5.041   0.604 -0.3996 -0.1492 -0.4664
 6324TIP3    H140607   4.920   4.997   0.638 -0.9280  0.5357 -0.7622
 6324TIP3    H240608   5.033   5.091   0.678  0.3483 -1.2392 -0.0594
 6325TIP3   OH240609   5.659   4.605   8.584  0.1454 -0.0789 -0.8440
 6325TIP3    H140610   5.692   4.520   8.613 -1.0162 -0.3993 -0.4177
 6325TIP3    H240611   5.571   4.587   8.553  0.5670  0.6512 -2.5632
 6326TIP3   OH240612   1.635   1.333   0.140  0.1793  0.0683  0.1048
 6326TIP3    H140613   1.639   1.237   0.135  0.9946  0.0864  0.3424
 6326TIP3    H240614   1.563   1.350   0.201  1.4446 -0.4537  1.8421
 6327TIP3   OH240615   6.425   5.056   1.765 -0.1030  0.4598  0.0142
 6327TIP3    H140616   6.400   5.047   1.857  0.4321 -1.7279  0.0026
 6327TIP3    H240617   6.515   5.087   1.767 -0.1077  0.4560  0.2337
 6328TIP3   OH240618   5.887   2.361   6.137 -0.2346  0.7906 -0.4196
 6328TIP3    H140619   5.892   2.373   6.042  1.4678  0.3677 -0.4185
 6328TIP3    H240620   5.804   2.314   6.151  1.4543 -3.1622 -2.1925
 6329TIP3   OH240621   3.076   2.925   8.652 -0.0533 -0.2110 -0.5575
 6329TIP3    H140622   3.155   2.953   8.699 -0.4825 -0.1789  0.1769
 6329TIP3    H240623   3.099   2.842   8.612  0.6118  0.2068 -1.0494
 6330TIP3   OH240624   2.287   2.092   8.533  0.2088  0.1271  0.0882
 6330TIP3    H140625   2.247   2.178   8.520 -1.1125 -0.3625  0.7701
 6330TIP3    H240626   2.230   2.048   8.596  1.5061 -0.8270  0.6606
 6331TIP3   OH240627   3.193   5.903   0.492  0.5311 -0.1877 -0.7363
 6331TIP3    H140628   3.174   5.899   0.398 -0.9629  1.6140 -0.5781
 6331TIP3    H240629   3.235   5.988   0.504 -0.5579  0.2314  0.3707
 6332TIP3   OH240630   1.387   4.927   0.766  0.1479  0.1129  0.2770
 6332TIP3    H140631   1.375   5.007   0.714 -1.0989 -0.3384 -0.1707
 6332TIP3    H240632   1.466   4.886   0.729  0.4208  0.8048  0.0794
 6333TIP3   OH240633   0.737   1.015   1.458  0.0281 -0.1392  0.2704
 6333TIP3    H140634   0.647   1.024   1.490 -0.1988  2.2040 -0.8209
 6333TIP3    H240635   0.733   0.944   1.394 -1.0434 -0.1097  0.2888
 6334TIP3   OH240636   2.609   4.389   8.414  0.4776  0.3483 -0.1505
 6334TIP3    H140637   2.555   4.371   8.337 -0.5573  0.4602  0.5292
 6334TIP3    H240638   2.585   4.320   8.477 -0.4022  1.5627  0.9089
 6335TIP3   OH240639   0.201   1.218   8.272 -0.3860  0.6067  0.2585
 6335TIP3    H140640   0.293   1.244   8.282 -0.3124 -0.4367  3.1105
 6335TIP3    H240641   0.151   1.292   8.308 -0.7608  1.4257 -1.8165
 6336TIP3   OH240642   5.157   1.386   0.495 -0.5847 -0.4406 -0.2471
 6336TIP3    H140643   5.172   1.440   0.573  0.4732 -1.3619  0.2137
 6336TIP3    H240644   5.243   1.382   0.453 -0.9548 -0.6809 -0.9845
 6337TIP3   OH240645   1.074   4.115   1.128  0.5306  1.1158  0.1889
 6337TIP3    H140646   1.146   4.133   1.068  0.9550  0.1141  0.3837
 6337TIP3    H240647   1.043   4.027   1.105 -1.3356  1.9184 -0.5803
 6338TIP3   OH240648   4.433   5.363   6.694  0.0878 -0.2603 -0.2284
 6338TIP3    H140649   4.393   5.360   6.781 -0.6952  0.7979 -0.5398
 6338TIP3    H240650   4.374   5.312   6.639  0.8027 -1.2874 -0.0757
 6339TIP3   OH240651   6.165   5.586   0.641 -0.0403  0.4140 -0.0174
 6339TIP3    H140652   6.071   5.569   0.630  0.2165 -0.5695 -0.8676
 6339TIP3    H240653   6.202   5.500   0.661  0.6934  0.7943  0.2785
 6340TIP3   OH240654   5.249   6.390   7.862  0.2716  0.4827  0.1538
 6340TIP3    H140655   5.245   6.296   7.847 -0.5989  0.6772 -0.9680
 6340TIP3    H240656   5.168   6.410   7.910 -0.6222  0.9505 -1.4886
 6341TIP3   OH240657   4.234   6.145   0.564 -0.1479 -0.2670 -0.4096
 6341TIP3    H140658   4.227   6.136   0.659 -0.6399  0.5569 -0.3614
 6341TIP3    H240659   4.325   6.125   0.545  0.1967  0.5110  0.3518
 6342TIP3   OH240660   4.869   1.016   7.733  0.8850  0.0739 -0.2892
 6342TIP3    H140661   4.875   0.925   7.704 -2.0124 -0.2553 -0.1523
 6342TIP3    H240662   4.838   1.010   7.823  3.5290  1.2263  0.8086
 6343TIP3   OH240663   4.774   6.222   0.130 -0.2281 -0.3718 -0.6861
 6343TIP3    H140664   4.702   6.159   0.130  0.2370 -1.0217  1.8190
 6343TIP3    H240665   4.737   6.300   0.170  0.7486 -1.2289  2.1046
 6344TIP3   OH240666   4.408   2.374   0.441  0.3349  0.3163  0.3028
 6344TIP3    H140667   4.446   2.322   0.512  0.1797  0.7397  0.7088
 6344TIP3    H240668   4.322   2.334   0.426  1.9609 -2.5312 -2.6486
 6345TIP3   OH240669   1.011   4.920   8.656 -0.1924  0.3237 -0.2031
 6345TIP3    H140670   1.085   4.880   8.609 -0.1800  1.1244 -0.8875
 6345TIP3    H240671   0.951   4.847   8.671 -1.5013  0.4006 -3.9595
 6346TIP3   OH240672   2.008   2.665   0.450  0.2066 -0.1283  0.0011
 6346TIP3    H140673   1.986   2.690   0.539  1.5274  0.2313  0.2447
 6346TIP3    H240674   1.924   2.641   0.410 -0.4893  0.4098  1.1077
 6347TIP3   OH240675   5.487   0.751   1.699  0.1411 -0.0461  0.0259
 6347TIP3    H140676   5.484   0.662   1.664  2.6202  0.0081 -0.4641
 6347TIP3    H240677   5.565   0.791   1.660 -0.2018  1.9477  1.1899
 6348TIP3   OH240678   3.685   4.959   0.160  0.0853  0.1034  0.1809
 6348TIP3    H140679   3.761   4.932   0.213 -0.0256  1.0374  0.8373
 6348TIP3    H240680   3.612   4.960   0.222 -0.3914 -0.3980 -0.3598
 6349TIP3   OH240681   6.533   3.926   7.054 -0.0181  0.2327  0.5189
 6349TIP3    H140682   6.452   3.915   7.004 -1.2055  0.0030  2.3843
 6349TIP3    H240683   6.576   3.840   7.049  0.0222  0.2880 -0.2750
 6350TIP3   OH240684   3.021   6.315   0.252  0.0748  0.1651 -0.7838
 6350TIP3    H140685   2.937   6.270   0.260  1.3307 -1.9959  1.6751
 6350TIP3    H240686   3.067   6.268   0.182  0.4735 -0.9054  0.1687
 6351TIP3   OH240687   1.141   3.708   8.000  0.1993  0.0384 -0.0071
 6351TIP3    H140688   1.130   3.616   7.976  1.8935  0.3274 -2.2071
 6351TIP3    H240689   1.071   3.725   8.063 -0.3031 -2.6767  0.2849
 6352TIP3   OH240690   0.429   3.155   0.503  0.1590  0.6554  0.1337
 6352TIP3    H140691   0.517   3.191   0.511 -0.4145  2.1146  0.2635
 6352TIP3    H240692   0.374   3.232   0.485 -1.3806  0.1009  2.1072
 6353TIP3   OH240693   4.044   5.139   2.099  0.1899  0.4150 -0.6879
 6353TIP3    H140694   3.988   5.195   2.152 -0.3497 -0.3991 -0.3850
 6353TIP3    H240695   4.024   5.162   2.008 -0.8748 -0.0893 -0.5898
 6354TIP3   OH240696   4.749   0.169   0.830 -0.2198 -0.0494  0.0025
 6354TIP3    H140697   4.819   0.108   0.854 -1.4270 -1.3166  0.4398
 6354TIP3    H240698   4.754   0.238   0.895  0.1132 -0.5600  0.5270
 6355TIP3   OH240699   1.984   4.737   8.554 -0.2621  0.2197 -0.7374
 6355TIP3    H140700   1.892   4.728   8.578 -1.1543 -2.5250 -4.2782
 6355TIP3    H240701   2.014   4.647   8.540  2.9642  1.0367  0.1357
 6356TIP3   OH240702   6.796   3.728   6.679 -0.0808  0.4913  0.2925
 6356TIP3    H140703   6.874   3.765   6.638  0.9683 -0.0654  1.6705
 6356TIP3    H240704   6.813   3.634   6.683 -0.3212  0.4721  1.5545
 6357TIP3   OH240705   2.679   1.610   7.371  0.3061 -0.0010  0.2487
 6357TIP3    H140706   2.691   1.524   7.411 -0.9747  0.4573  1.7064
 6357TIP3    H240707   2.596   1.641   7.405  0.1240  1.2960 -1.2552
 6358TIP3   OH240708   5.771   5.610   1.323  0.1581  0.0525  0.3227
 6358TIP3    H140709   5.849   5.572   1.362 -1.4324 -1.1548  2.5075
 6358TIP3    H240710   5.803   5.655   1.245  2.8543 -1.3026  0.5462
 6359TIP3   OH240711   3.925   3.254   1.522  0.1491  0.0499  0.1088
 6359TIP3    H140712   3.874   3.304   1.586 -1.0772 -2.1046  0.9336
 6359TIP3    H240713   3.925   3.164   1.557 -0.3286 -1.1791 -2.7723
 6360TIP3   OH240714   3.082   0.254   7.275 -0.0060 -0.0273 -0.1736
 6360TIP3    H140715   3.149   0.298   7.223  0.2603  0.8545  0.8895
 6360TIP3    H240716   3.121   0.246   7.363 -0.8901 -0.4464  0.1932
 6361TIP3   OH240717   5.785   1.863   6.820  0.2010  0.8718  0.0447
 6361TIP3    H140718   5.840   1.904   6.887  0.3437  0.0111  0.4626
 6361TIP3    H240719   5.743   1.937   6.776 -0.1831  1.4399  1.3114
 6362TIP3   OH240720   5.988   1.198   6.784  0.1406  1.2992 -0.0551
 6362TIP3    H140721   6.051   1.234   6.846  0.6863  0.6453 -0.2289
 6362TIP3    H240722   6.022   1.112   6.761 -1.3086  0.5069  0.5986
 6363TIP3   OH240723   1.166   6.650   0.274 -0.1907 -0.4121  0.3371
 6363TIP3    H140724   1.127   6.728   0.312  0.6321  0.4331 -0.5177
 6363TIP3    H240725   1.101   6.581   0.287 -0.4458  0.1222  2.1589
 6364TIP3   OH240726   3.516   5.189   1.326 -0.4218  0.0564 -0.2331
 6364TIP3    H140727   3.563   5.127   1.270 -1.6799 -1.4971  0.3295
 6364TIP3    H240728   3.462   5.240   1.266 -0.0378 -0.0218 -0.6453
 6365TIP3   OH240729   0.765   2.771   8.583 -0.0546  0.2618 -0.1415
 6365TIP3    H140730   0.701   2.837   8.609 -0.2395  0.0818 -0.1388
 6365TIP3    H240731   0.770   2.711   8.658  0.1839  0.3237 -0.1054
 6366TIP3   OH240732   6.681   6.416   6.282  0.3004  0.2776  0.3134
 6366TIP3    H140733   6.611   6.383   6.226 -1.3035 -0.1802  2.4542
 6366TIP3    H240734   6.719   6.489   6.233 -0.2474 -0.8006 -1.8087
 6367TIP3   OH240735   0.119   0.481   2.103 -0.0156 -0.7561  0.2584
 6367TIP3    H140736   0.072   0.397   2.106 -1.4834  0.0261  0.1933
 6367TIP3    H240737   0.198   0.462   2.053 -0.5982 -1.9873 -0.2560
 6368TIP3   OH240738   1.614   1.518   1.655  0.3241  0.2483 -0.0977
 6368TIP3    H140739   1.655   1.540   1.572  1.9535  0.7142  0.7806
 6368TIP3    H240740   1.548   1.586   1.669 -1.1471 -0.7647 -1.7476
 6369TIP3   OH240741   4.308   1.048   1.928  0.8629 -0.6920  0.3434
 6369TIP3    H140742   4.254   1.037   2.006 -1.4448 -2.5692 -1.3478
 6369TIP3    H240743   4.391   1.006   1.951 -0.3118 -2.6515  1.3499
 6370TIP3   OH240744   4.141   6.104   2.106 -0.0350  0.3567 -0.1126
 6370TIP3    H140745   4.076   6.040   2.077  0.8500 -0.4513 -0.3988
 6370TIP3    H240746   4.124   6.182   2.052 -0.0607 -0.2346 -0.9808
 6371TIP3   OH240747   4.453   3.343   1.016 -0.2314 -0.1417  0.4708
 6371TIP3    H140748   4.460   3.416   1.077  0.7580  0.0937  0.0979
 6371TIP3    H240749   4.443   3.266   1.072  1.9301 -0.0850  1.0228
 6372TIP3   OH240750   3.068   2.687   6.950 -0.3931 -0.0386 -0.1521
 6372TIP3    H140751   2.974   2.669   6.938 -0.0663 -1.0006 -1.5865
 6372TIP3    H240752   3.072   2.749   7.023 -2.2808  1.5474 -1.2921
 6373TIP3   OH240753   5.009   5.628   0.226 -0.7453  0.1433 -0.2780
 6373TIP3    H140754   4.949   5.563   0.189  0.3994 -0.3085 -1.3934
 6373TIP3    H240755   5.092   5.582   0.235 -0.3292  1.0057  0.4370
 6374TIP3   OH240756   3.662   6.127   1.044 -0.2517  0.2088  0.0722
 6374TIP3    H140757   3.602   6.076   0.989  0.7296  0.0425 -0.8914
 6374TIP3    H240758   3.625   6.215   1.042 -1.1830 -0.1537  0.5862
 6375TIP3   OH240759   1.772   5.299   7.640  0.0716 -0.4782  0.7798
 6375TIP3    H140760   1.838   5.266   7.700  2.2563  1.4850 -0.3785
 6375TIP3    H240761   1.729   5.370   7.688  1.6712  0.9512  0.1681
 6376TIP3   OH240762   3.445   0.187   7.237  0.0404  0.0493  0.4055
 6376TIP3    H140763   3.539   0.197   7.224 -0.1482 -1.1998 -2.9938
 6376TIP3    H240764   3.407   0.269   7.208  0.0002  0.5526  1.7755
 6377TIP3   OH240765   0.168   2.580   7.407 -0.0661 -0.6321 -0.4663
 6377TIP3    H140766   0.139   2.528   7.332 -0.4887  0.3262 -0.9905
 6377TIP3    H240767   0.249   2.622   7.377  0.3465 -1.0825  0.0007
 6378TIP3   OH240768   5.954   1.738   1.714  0.2086  0.3497  0.4982
 6378TIP3    H140769   5.993   1.756   1.800 -0.7196 -0.4493  1.1040
 6378TIP3    H240770   5.982   1.649   1.694  1.9175  1.1265 -0.8961
 6379TIP3   OH240771   6.264   0.429   8.011  0.9159  0.6250 -0.2014
 6379TIP3    H140772   6.200   0.482   7.964 -0.1735  0.9885  1.6080
 6379TIP3    H240773   6.349   0.461   7.981  0.3481 -0.6685 -3.5581
 6380TIP3   OH240774   0.336   4.033   1.463 -0.2980  0.5192 -0.0588
 6380TIP3    H140775   0.345   4.008   1.555 -1.9642  1.9523  0.5421
 6380TIP3    H240776   0.383   4.115   1.456 -0.9369  0.8733 -0.2535
 6381TIP3   OH240777   2.650   2.582   0.640 -0.1213  0.3702 -0.1490
 6381TIP3    H140778   2.711   2.595   0.712  0.7473 -1.4581 -0.4947
 6381TIP3    H240779   2.690   2.626   0.566 -1.4566  3.0683  0.5855
 6382TIP3   OH240780   0.176   3.816   6.867 -1.1336 -0.3509  0.2531
 6382TIP3    H140781   0.231   3.894   6.876  1.2757 -2.1282  2.3805
 6382TIP3    H240782   0.164   3.806   6.772  2.7571 -0.1072 -0.4371
 6383TIP3   OH240783   1.782   5.164   1.221 -0.3341  0.3158  0.2800
 6383TIP3    H140784   1.875   5.181   1.209 -0.4391  1.5568  1.0062
 6383TIP3    H240785   1.742   5.191   1.138 -0.1294  0.5350  0.2523
 6384TIP3   OH240786   0.775   2.564   0.106  0.4172 -0.6243 -0.1142
 6384TIP3    H140787   0.743   2.600   0.189 -0.1360 -1.1288 -0.1020
 6384TIP3    H240788   0.870   2.570   0.113  0.3636 -0.2579  0.3743
 6385TIP3   OH240789   4.724   4.650   8.449  0.0278 -0.5815  0.0991
 6385TIP3    H140790   4.646   4.602   8.478 -1.7400  1.3072 -1.3058
 6385TIP3    H240791   4.705   4.741   8.470  2.0729 -0.1205  0.1015
 6386TIP3   OH240792   5.702   0.135   7.575  0.1415 -0.1833 -0.0110
 6386TIP3    H140793   5.661   0.065   7.626  1.2860 -1.4701 -0.8014
 6386TIP3    H240794   5.791   0.141   7.609 -0.2878  1.7860  0.8956
 6387TIP3   OH240795   5.842   5.705   1.061  0.1442 -0.0831  0.7063
 6387TIP3    H140796   5.932   5.711   1.029 -0.3457 -0.6003 -0.8799
 6387TIP3    H240797   5.790   5.687   0.983 -1.5204  1.5147  1.3654
 6388TIP3   OH240798   0.854   6.497   7.037 -0.0820  0.1546 -0.2624
 6388TIP3    H140799   0.775   6.469   6.989 -1.1644 -0.0320  1.5238
 6388TIP3    H240800   0.907   6.543   6.972 -1.6019  0.1678 -1.5529
 6389TIP3   OH240801   4.163   2.220   0.457  0.2963  0.3064 -0.1789
 6389TIP3    H140802   4.145   2.261   0.372  1.2191  1.2722  0.0575
 6389TIP3    H240803   4.091   2.248   0.513  0.8627  1.6209 -0.0448
 6390TIP3   OH240804   3.156   4.710   1.350 -0.1751 -0.0136 -0.5884
 6390TIP3    H140805   3.224   4.645   1.369 -1.9502 -2.0206 -0.6817
 6390TIP3    H240806   3.083   4.685   1.406 -1.0270  1.8059 -0.8065
 6391TIP3   OH240807   5.540   0.018   7.903  0.4017  0.2494 -0.2279
 6391TIP3    H140808   5.484   0.069   7.844 -0.3644  0.1156  0.3744
 6391TIP3    H240809   5.606   0.081   7.933 -0.3587  0.8382  0.2746
 6392TIP3   OH240810   3.900   5.090   1.417 -0.1345  0.2731 -0.0443
 6392TIP3    H140811   3.828   5.142   1.453 -0.1469  0.7596 -0.7612
 6392TIP3    H240812   3.954   5.069   1.493  0.4632  2.2784  0.1282
 6393TIP3   OH240813   2.013   2.642   0.967 -0.0020  1.2654 -0.1440
 6393TIP3    H140814   1.952   2.661   1.039  0.1432 -0.4044  0.4579
 6393TIP3    H240815   2.096   2.677   0.997  0.0632  0.5575  0.5458
 6394TIP3   OH240816   4.200   0.427   6.891 -0.3622  0.2721 -0.5166
 6394TIP3    H140817   4.281   0.453   6.935 -0.0795  1.3117 -1.6022
 6394TIP3    H240818   4.131   0.463   6.946 -0.2430 -2.2691  1.5075
 6395TIP3   OH240819   0.272   3.693   1.829  0.0621  0.3466  0.1531
 6395TIP3    H140820   0.242   3.648   1.907 -1.1051  0.9464  0.0817
 6395TIP3    H240821   0.341   3.638   1.793 -0.8415 -1.0116  0.4520
 6396TIP3   OH240822   1.674   1.497   7.667  0.1146 -0.1350  0.3859
 6396TIP3    H140823   1.677   1.510   7.762  1.4278  0.9233  0.2179
 6396TIP3    H240824   1.673   1.402   7.656 -0.3427 -0.2686  1.4596
 6397TIP3   OH240825   1.130   5.283   1.745  0.1779 -0.0722  0.1199
 6397TIP3    H140826   1.189   5.340   1.695 -0.6376  1.2304  0.5876
 6397TIP3    H240827   1.095   5.222   1.681 -0.1031  0.9512 -0.7364
 6398TIP3   OH240828   3.470   2.384   0.694 -0.1886 -0.1707  1.0797
 6398TIP3    H140829   3.387   2.426   0.716 -0.0216  0.3601  0.7432
 6398TIP3    H240830   3.478   2.311   0.755 -1.0096 -0.3694  0.9650
 6399TIP3   OH240831   1.387   3.943   0.039 -0.0336 -0.0919 -0.1637
 6399TIP3    H140832   1.439   3.863   0.042  0.7107  0.3737 -0.3643
 6399TIP3    H240833   1.414   3.986  -0.043 -1.4053 -0.2800 -0.7479
 6400TIP3   OH240834   5.323   5.620   2.125  0.8697  0.0138  1.0045
 6400TIP3    H140835   5.285   5.562   2.191  2.0375 -0.2183  1.5120
 6400TIP3    H240836   5.336   5.703   2.171  2.6445 -0.4507  1.4231
 6401TIP3   OH240837   2.823   0.373   8.021 -0.1190  0.1866 -0.3344
 6401TIP3    H140838   2.771   0.331   7.953  0.5134 -0.9146 -0.1633
 6401TIP3    H240839   2.765   0.439   8.059 -0.4132  0.9702 -2.0573
 6402TIP3   OH240840   1.196   3.337   0.753  0.5050  0.6041 -0.4494
 6402TIP3    H140841   1.119   3.315   0.805  1.3283  1.2843  1.1064
 6402TIP3    H240842   1.168   3.322   0.662 -0.0896 -3.4135  0.2119
 6403TIP3   OH240843   6.346   0.150   1.230 -0.1834 -0.1212 -0.0982
 6403TIP3    H140844   6.302   0.081   1.280  2.2678 -0.2413  2.1273
 6403TIP3    H240845   6.276   0.210   1.205 -1.7711 -0.8216  2.3361
 6404TIP3   OH240846   6.312   0.530   8.285  0.1731 -0.2793  0.5173
 6404TIP3    H140847   6.225   0.509   8.321  0.1810 -1.5873 -0.2042
 6404TIP3    H240848   6.321   0.475   8.208  1.4596  0.1994  0.2981
 6405TIP3   OH240849   1.751   4.159   0.436  0.0388 -0.1925  0.2559
 6405TIP3    H140850   1.839   4.123   0.421  0.0985 -0.8465  1.9125
 6405TIP3    H240851   1.759   4.209   0.517 -0.7988  0.9826 -0.3599
 6406TIP3   OH240852   2.081   1.247   1.886  0.7298 -0.6462  0.1304
 6406TIP3    H140853   2.032   1.241   1.804 -0.6939  0.3285  0.8541
 6406TIP3    H240854   2.088   1.341   1.904 -0.0340 -0.8487  1.6857
 6407TIP3   OH240855   1.723   1.979   7.256 -0.5442 -0.3640  0.0283
 6407TIP3    H140856   1.792   2.008   7.316 -1.2082 -1.0870  1.1698
 6407TIP3    H240857   1.654   1.945   7.313 -2.1917  1.0279 -1.0206
 6408TIP3   OH240858   5.890   2.980   0.554  0.1833  0.0635 -0.0067
 6408TIP3    H140859   5.814   2.957   0.499  1.8691 -1.2477 -1.9161
 6408TIP3    H240860   5.929   2.896   0.578  2.1286  0.7157 -0.7070
 6409TIP3   OH240861   4.465   0.585   0.808  0.0152 -0.0750 -0.6522
 6409TIP3    H140862   4.404   0.529   0.856 -0.2114 -0.7150 -1.6381
 6409TIP3    H240863   4.427   0.672   0.814  1.0252  0.2736  1.9890
 6410TIP3   OH240864   3.038   1.339   1.798 -0.2803  0.0450 -0.0102
 6410TIP3    H140865   2.959   1.340   1.851  1.2511  0.5776  2.3873
 6410TIP3    H240866   3.025   1.410   1.734 -1.3045  0.7938  0.9948
 6411TIP3   OH240867   6.011   3.749   7.709  0.6369  0.3021  0.5967
 6411TIP3    H140868   6.036   3.676   7.654 -0.9310 -0.0907  0.3694
 6411TIP3    H240869   6.085   3.811   7.702  1.1601 -0.4343 -0.6444
 6412TIP3   OH240870   3.705   3.807   8.426  0.1302  0.5692  0.8876
 6412TIP3    H140871   3.764   3.758   8.483  1.5440  0.7916 -0.3228
 6412TIP3    H240872   3.630   3.749   8.414  1.1098 -0.6964  0.6687
 6413TIP3   OH240873   5.766   5.038   7.167  0.0246 -0.5195  0.0969
 6413TIP3    H140874   5.818   4.973   7.214  3.5882  1.4687 -0.6937
 6413TIP3    H240875   5.785   5.121   7.212 -2.7195  0.3507 -0.1665
 6414TIP3   OH240876   3.158   3.995   0.916  0.2185 -0.4685  0.0062
 6414TIP3    H140877   3.093   4.058   0.946  0.6269  0.2895 -0.6578
 6414TIP3    H240878   3.107   3.924   0.878 -0.2300 -0.1470  0.0005
 6415TIP3   OH240879   3.065   3.213   6.537  0.2682 -0.1878 -0.5773
 6415TIP3    H140880   3.069   3.308   6.554  1.3364  0.0062 -1.7730
 6415TIP3    H240881   3.105   3.174   6.615  1.1462  0.4322 -0.6961
 6416TIP3   OH240882   2.212   3.416   1.781 -0.2073  0.0474 -0.5831
 6416TIP3    H140883   2.186   3.332   1.818 -0.3470 -0.0446 -0.8821
 6416TIP3    H240884   2.214   3.400   1.686 -0.1227  0.3489 -0.6324
 6417TIP3   OH240885   0.314   0.492   6.996  0.6126 -0.3370  0.1289
 6417TIP3    H140886   0.330   0.521   6.906 -1.0005 -3.7772 -1.4780
 6417TIP3    H240887   0.273   0.567   7.039 -0.4038  0.8471 -2.6521
 6418TIP3   OH240888   1.329   4.613   6.556 -0.2863  0.1777 -0.0291
 6418TIP3    H140889   1.409   4.618   6.504 -0.0564  1.1078  0.3919
 6418TIP3    H240890   1.279   4.691   6.531 -0.4914  0.2609  0.6248
 6419TIP3   OH240891   1.870   3.842   6.229 -0.2969 -0.4911  0.0605
 6419TIP3    H140892   1.944   3.853   6.169 -1.0566  0.7325 -0.6840
 6419TIP3    H240893   1.839   3.753   6.212  1.4409 -1.3153  0.9290
 6420TIP3   OH240894   6.504   0.256   8.008 -0.1414  0.2553  0.2298
 6420TIP3    H140895   6.581   0.234   8.060 -0.1148 -0.8582 -0.2493
 6420TIP3    H240896   6.526   0.339   7.966 -0.6142  1.8076  2.8500
 6421TIP3   OH240897   4.744   6.886   0.279  0.2439 -0.1873 -0.3024
 6421TIP3    H140898   4.787   6.801   0.264  2.4245  0.5522  1.1508
 6421TIP3    H240899   4.816   6.944   0.306 -1.4096  1.7367  0.1941
 6422TIP3   OH240900   6.429   1.008   1.158  0.3487  0.2534 -0.2425
 6422TIP3    H140901   6.420   1.093   1.114 -0.7803 -0.2416 -1.0170
 6422TIP3    H240902   6.493   1.024   1.227  1.5677  1.2664 -1.5320
 6423TIP3   OH240903   0.940   2.055   1.654 -0.0929  0.1853 -0.2384
 6423TIP3    H140904   0.977   1.993   1.592  0.3198  0.9550 -0.7690
 6423TIP3    H240905   1.011   2.074   1.715 -0.2179  0.1446 -0.0777
 6424TIP3   OH240906   5.483   0.687   2.195 -0.1333  0.3504  0.0334
 6424TIP3    H140907   5.496   0.593   2.209  0.7945  0.4365 -0.1864
 6424TIP3    H240908   5.449   0.693   2.105 -1.9886  0.1103  0.6735
 6425TIP3   OH240909   5.028   2.530   1.733  0.4083 -0.6672 -0.3720
 6425TIP3    H140910   5.052   2.622   1.720  0.7276 -0.6943  0.0304
 6425TIP3    H240911   4.942   2.522   1.692 -0.2510  0.1453  0.8049
 6426TIP3   OH240912   4.437   1.390   7.914 -0.4269 -0.1346 -0.2010
 6426TIP3    H140913   4.512   1.389   7.855 -0.2946  0.1315 -0.0422
 6426TIP3    H240914   4.413   1.483   7.920 -0.5284 -0.1761  0.0468
 6427TIP3   OH240915   3.065   3.820   1.827  0.7876 -0.3690  0.2521
 6427TIP3    H140916   3.092   3.844   1.916 -1.1424 -1.1758  1.1207
 6427TIP3    H240917   3.050   3.726   1.831  1.7100 -0.6201 -1.2638
 6428TIP3   OH240918   1.768   2.018   1.616 -0.3702 -0.1156 -0.8885
 6428TIP3    H140919   1.794   1.940   1.568  0.3605  0.5277 -1.5718
 6428TIP3    H240920   1.831   2.026   1.687  0.2067  0.4204 -1.4458
 6429TIP3   OH240921   2.370   4.403   6.609  0.2262 -0.0893 -0.0254
 6429TIP3    H140922   2.383   4.344   6.534 -0.3482 -0.6697  0.3265
 6429TIP3    H240923   2.322   4.351   6.673 -1.2934  1.1046 -0.1455
 6430TIP3   OH240924   3.358   3.345   7.596  0.4417 -0.4185  0.2488
 6430TIP3    H140925   3.281   3.340   7.653  0.4301 -2.5382  0.1236
 6430TIP3    H240926   3.328   3.392   7.519 -1.0461 -1.9496 -0.1736
 6431TIP3   OH240927   3.739   3.715   8.036  0.2474 -0.3298  0.1534
 6431TIP3    H140928   3.734   3.620   8.029 -0.6305 -0.2161 -1.2967
 6431TIP3    H240929   3.647   3.743   8.043  0.3786  0.4794 -1.0341
 6432TIP3   OH240930   0.370   1.911   0.483 -0.3325  0.2237 -0.5984
 6432TIP3    H140931   0.327   1.835   0.444  0.9577 -0.5436 -0.5803
 6432TIP3    H240932   0.337   1.914   0.572 -1.2873  0.4019 -0.9469
 6433TIP3   OH240933   0.925   4.027   7.771 -0.7914  0.0265  0.0158
 6433TIP3    H140934   0.874   4.106   7.792 -0.8063 -0.2413  1.0141
 6433TIP3    H240935   0.972   4.050   7.691  0.0367  1.4474  0.8753
 6434TIP3   OH240936   2.698   4.857   8.205 -0.4007  0.0397 -0.1405
 6434TIP3    H140937   2.749   4.780   8.230 -1.0654 -0.6606 -0.8950
 6434TIP3    H240938   2.622   4.822   8.158 -0.6615  1.1596 -0.5878
 6435TIP3   OH240939   0.899   4.553   1.408  0.1417 -0.1392 -0.2662
 6435TIP3    H140940   0.813   4.549   1.366 -1.1548  0.1526  2.1680
 6435TIP3    H240941   0.959   4.578   1.338 -1.5426 -1.4440 -2.2941
 6436TIP3   OH240942   3.032   5.028   8.473  0.7181  0.0481  0.3746
 6436TIP3    H140943   3.046   5.030   8.378 -0.0238  0.2103  0.2677
 6436TIP3    H240944   2.948   4.985   8.484  0.0834  1.3821  0.8789
 6437TIP3   OH240945   2.997   0.136   6.595 -0.2011 -0.3059  0.4612
 6437TIP3    H140946   3.089   0.116   6.576 -0.2021 -1.2298  1.3081
 6437TIP3    H240947   2.972   0.200   6.529  0.8463 -0.5746 -0.2245
 6438TIP3   OH240948   4.602   6.419   0.229  0.2839  0.0261 -0.2300
 6438TIP3    H140949   4.531   6.361   0.257 -0.5216  0.2015 -1.7743
 6438TIP3    H240950   4.595   6.496   0.286 -0.3850 -0.2147  0.0212
 6439TIP3   OH240951   5.738   3.716   7.690 -0.4030 -0.1227  0.8723
 6439TIP3    H140952   5.833   3.726   7.701 -0.2434 -0.3216 -0.2952
 6439TIP3    H240953   5.708   3.803   7.663 -0.5626 -0.0713  1.1990
 6440TIP3   OH240954   5.389   6.826   0.525  0.3667  0.6233  0.1951
 6440TIP3    H140955   5.421   6.825   0.615  1.0705  0.0063 -0.0546
 6440TIP3    H240956   5.461   6.789   0.473 -0.8556 -1.1764 -0.3342
 6441TIP3   OH240957   0.501   4.448   7.882  0.6460  0.0759  0.1099
 6441TIP3    H140958   0.532   4.528   7.839  1.8694 -0.2574  0.3475
 6441TIP3    H240959   0.467   4.394   7.811  1.8126 -0.0930 -0.3268
 6442TIP3   OH240960   2.517   6.820   1.530 -0.6079 -0.3066 -0.3130
 6442TIP3    H140961   2.444   6.866   1.570 -0.6654  0.3098 -1.1219
 6442TIP3    H240962   2.592   6.879   1.541 -0.4564 -0.4751 -0.4234
 6443TIP3   OH240963   0.425   2.860   0.872 -0.1140 -0.1567  0.1870
 6443TIP3    H140964   0.504   2.889   0.826  0.6207 -0.3227  1.2861
 6443TIP3    H240965   0.457   2.792   0.932 -1.1513 -0.4278  0.4516
 6444TIP3   OH240966   6.610   4.449   8.594 -0.1130  0.3260 -0.2348
 6444TIP3    H140967   6.566   4.373   8.633  0.5284 -0.4509 -0.9817
 6444TIP3    H240968   6.551   4.476   8.523 -0.0288  0.1120 -0.3874
 6445TIP3   OH240969   1.097   2.275   6.705 -0.5198  0.6927 -0.5738
 6445TIP3    H140970   1.137   2.233   6.781  0.1422  1.2022 -0.6256
 6445TIP3    H240971   1.140   2.235   6.629 -0.2054  1.1340 -0.6341
 6446TIP3   OH240972   6.784   3.244   1.761  0.0189 -0.0586  0.0475
 6446TIP3    H140973   6.835   3.323   1.742  0.1913 -0.0801  0.4177
 6446TIP3    H240974   6.850   3.177   1.782 -0.1752  0.5045  2.8811
 6447TIP3   OH240975   5.646   1.012   0.389  0.2145 -0.1327  0.0020
 6447TIP3    H140976   5.732   1.007   0.431  0.4870 -1.6212 -0.6663
 6447TIP3    H240977   5.651   1.091   0.335  0.7410  0.4283  0.8378
 6448TIP3   OH240978   3.263   2.696   0.527 -0.2269  0.1656 -0.6700
 6448TIP3    H140979   3.239   2.707   0.619  0.9732 -0.3447 -0.2747
 6448TIP3    H240980   3.222   2.770   0.482 -1.5149 -0.0315  0.1282
 6449TIP3   OH240981   1.170   4.293   1.342  0.3702 -0.1202  0.3621
 6449TIP3    H140982   1.215   4.228   1.396 -0.3569 -0.6468  0.3493
 6449TIP3    H240983   1.150   4.247   1.261  0.4229  0.3135  0.1029
 6450TIP3   OH240984   1.325   6.207   1.783  0.2159 -0.0194  0.1221
 6450TIP3    H140985   1.286   6.291   1.761  0.8866  0.1396 -0.5120
 6450TIP3    H240986   1.378   6.226   1.861  0.0991  0.0651  0.1821
 6451TIP3   OH240987   5.382   5.729   8.642  0.5791 -0.3744  0.1520
 6451TIP3    H140988   5.325   5.796   8.680 -1.2277 -1.5093 -0.3830
 6451TIP3    H240989   5.454   5.777   8.603  0.0635  1.1415  0.9885
 6452TIP3   OH240990   2.555   5.334   1.295  1.1861  0.2365  0.4309
 6452TIP3    H140991   2.544   5.242   1.316  1.3612  0.3431  1.0136
 6452TIP3    H240992   2.488   5.353   1.229 -0.0567  0.1366  1.6210
 6453TIP3   OH240993   6.329   6.794   0.646  0.0703 -0.3491 -0.2193
 6453TIP3    H140994   6.354   6.758   0.731  2.7166  0.7757 -0.4244
 6453TIP3    H240995   6.248   6.842   0.663  1.1588  0.8654  1.9976
 6454TIP3   OH240996   2.831   6.700   6.487  0.1756 -0.0291  0.2728
 6454TIP3    H140997   2.787   6.760   6.427  1.4657  0.4354 -0.2539
 6454TIP3    H240998   2.777   6.701   6.565 -1.3033 -0.2998 -0.7050
 6455TIP3   OH240999   1.959   0.316   7.091 -0.1545 -0.5249 -0.4561
 6455TIP3    H141000   2.037   0.360   7.126 -0.8560 -0.7671  1.4846
 6455TIP3    H241001   1.904   0.388   7.060 -0.1725 -0.1821  0.3367
 6456TIP3   OH241002   6.737   0.008   6.730 -0.7543 -0.5498  0.5377
 6456TIP3    H141003   6.748  -0.074   6.780 -1.1026 -0.3749  0.9048
 6456TIP3    H241004   6.699   0.069   6.792  0.6994  0.3004  0.6491
 6457TIP3   OH241005   5.416   4.960   0.038  0.3671 -0.2448  0.5836
 6457TIP3    H141006   5.419   4.925  -0.051 -1.5401 -1.7880  1.0606
 6457TIP3    H241007   5.358   5.035   0.033  1.3114  0.4898  0.3128
 6458TIP3   OH241008   2.858   2.046   6.259 -0.6155 -0.4821  0.1232
 6458TIP3    H141009   2.826   1.958   6.242 -1.2565 -0.1060 -0.7043
 6458TIP3    H241010   2.883   2.079   6.172  0.4930 -0.1762  0.5404
 6459TIP3   OH241011   5.530   1.544   5.494 -0.4443  0.0169 -0.5435
 6459TIP3    H141012   5.611   1.493   5.504  0.5524  1.1967 -2.1743
 6459TIP3    H241013   5.465   1.480   5.465  0.8279 -0.3748 -2.7385
 6460TIP3   OH241014   5.866   0.593   7.347 -0.1431  0.5690  0.0748
 6460TIP3    H141015   5.929   0.591   7.275 -0.9821  1.6905 -0.7163
 6460TIP3    H241016   5.820   0.676   7.337 -2.2820 -0.5460  0.1743
 6461TIP3   OH241017   6.562   4.266   0.434 -0.2221 -0.5170 -0.1752
 6461TIP3    H141018   6.641   4.291   0.388 -0.4121  0.4201 -0.0161
 6461TIP3    H241019   6.577   4.175   0.461  0.5478 -0.5376 -0.6512
 6462TIP3   OH241020   3.101   3.666   2.082  0.6544 -0.3218  0.0786
 6462TIP3    H141021   3.024   3.653   2.137  1.4379  2.1698  1.9588
 6462TIP3    H241022   3.081   3.619   2.001 -2.9831  0.4643  0.3517
 6463TIP3   OH241023   6.063   3.567   0.758  0.4447  0.6371  0.0026
 6463TIP3    H141024   5.987   3.592   0.707 -1.5265 -1.4711  1.6910
 6463TIP3    H241025   6.104   3.497   0.708  1.0244  1.4245 -0.6558
 6464TIP3   OH241026   0.692   1.990   7.946  0.0451  0.0000 -0.6194
 6464TIP3    H141027   0.741   2.071   7.931  0.3011  0.1066  0.7085
 6464TIP3    H241028   0.601   2.014   7.926  0.2042  0.4443 -0.8271
 6465TIP3   OH241029   4.818   1.636   7.947 -0.1178 -0.1225  0.6142
 6465TIP3    H141030   4.889   1.675   7.896  0.3974 -2.9448 -1.0509
 6465TIP3    H241031   4.807   1.548   7.910 -1.4751 -1.4468  3.7364
 6466TIP3   OH241032   0.891   6.427   8.503  0.1139 -0.0512  0.2427
 6466TIP3    H141033   0.976   6.388   8.524  1.0376  1.2575 -0.9075
 6466TIP3    H241034   0.865   6.387   8.420 -0.5617 -0.6750  0.7421
 6467TIP3   OH241035   1.262   6.792   7.267  0.2608  0.0720 -0.6043
 6467TIP3    H141036   1.254   6.809   7.174 -0.0770  0.4760 -0.5039
 6467TIP3    H241037   1.325   6.857   7.299  0.4699 -0.1441 -0.5700
 6468TIP3   OH241038   5.207   1.062   8.097 -0.5424  0.1373  0.1504
 6468TIP3    H141039   5.154   1.118   8.041 -0.9948 -1.6153 -1.2997
 6468TIP3    H241040   5.161   1.061   8.181 -2.4805 -0.7687 -0.8534
 6469TIP3   OH241041   2.833   6.006   1.033  0.7327 -0.2905 -0.8602
 6469TIP3    H141042   2.924   6.034   1.022  0.0030  2.6035 -0.2259
 6469TIP3    H241043   2.820   6.003   1.127 -0.2475  0.8914 -0.9432
 6470TIP3   OH241044   1.781   2.405   8.562  0.2798  0.6361 -0.0938
 6470TIP3    H141045   1.834   2.405   8.482 -0.1328 -0.6476 -0.3897
 6470TIP3    H241046   1.717   2.475   8.548  0.8362  1.0797 -0.4516
 6471TIP3   OH241047   2.016   2.117   6.457 -0.4801 -0.2767 -0.8477
 6471TIP3    H141048   2.077   2.114   6.383  0.0532 -0.6910 -0.4015
 6471TIP3    H241049   2.068   2.086   6.532 -0.5959  1.4549 -0.0014
 6472TIP3   OH241050   3.261   3.423   1.714  0.4351 -0.5434  0.4257
 6472TIP3    H141051   3.271   3.330   1.731 -1.3290 -1.0958 -1.1831
 6472TIP3    H241052   3.347   3.452   1.683  1.2111 -1.4276  1.6861
 6473TIP3   OH241053   4.987   3.012   6.952 -0.3926 -0.0832  0.0883
 6473TIP3    H141054   5.043   2.973   6.885 -1.6980 -0.1976 -0.9645
 6473TIP3    H241055   4.898   3.006   6.917 -1.1126 -0.0271  1.7720
 6474TIP3   OH241056   1.852   5.386   0.440 -0.4834  0.8284  0.2767
 6474TIP3    H141057   1.760   5.410   0.434 -0.3619  0.9321 -2.3650
 6474TIP3    H241058   1.889   5.448   0.502 -1.9694  1.5276  0.5138
 6475TIP3   OH241059   6.256   2.368   7.174  0.2601 -0.8998  0.1244
 6475TIP3    H141060   6.311   2.374   7.096  0.3218 -1.3153  0.1330
 6475TIP3    H241061   6.172   2.403   7.148  1.0451  1.5632  0.6258
 6476TIP3   OH241062   6.461   5.535   7.282  0.0475 -0.5432  0.2248
 6476TIP3    H141063   6.491   5.612   7.234 -0.4216 -0.2658  0.3644
 6476TIP3    H241064   6.488   5.551   7.373 -1.1173  0.0459  0.4881
 6477TIP3   OH241065   1.658   5.621   1.271 -0.1917  1.0510 -0.3622
 6477TIP3    H141066   1.711   5.543   1.290 -0.7546  1.1484  1.8944
 6477TIP3    H241067   1.683   5.646   1.182  1.8770 -0.2132 -0.1963
 6478TIP3   OH241068   6.518   0.681   1.355  0.2204 -0.0388  0.1560
 6478TIP3    H141069   6.541   0.609   1.414 -3.1524  0.4874  2.3981
 6478TIP3    H241070   6.560   0.757   1.393  0.1832 -0.1275  0.3779
 6479TIP3   OH241071   5.666   3.151   1.181 -0.0491 -0.2896  0.3497
 6479TIP3    H141072   5.705   3.071   1.215 -0.6987  0.2563  2.5457
 6479TIP3    H241073   5.720   3.174   1.105  1.8239 -1.3538  1.2945
 6480TIP3   OH241074   3.045   6.856   0.926 -0.9979  0.6994 -0.0973
 6480TIP3    H141075   3.119   6.917   0.929  1.0751 -1.5093 -2.1671
 6480TIP3    H241076   2.986   6.893   0.861 -0.2174  0.9913 -0.6550
 6481TIP3   OH241077   2.953   6.208   1.927 -0.0432  0.1639 -0.1256
 6481TIP3    H141078   2.951   6.163   2.011 -0.5205 -0.6084 -0.5457
 6481TIP3    H241079   2.916   6.295   1.946 -0.0823  0.0181  0.4770
 6482TIP3   OH241080   1.716   0.826   7.694  0.0744  0.2851  0.2775
 6482TIP3    H141081   1.700   0.735   7.671 -0.2406  0.5374 -0.5348
 6482TIP3    H241082   1.782   0.822   7.763  0.1238 -0.5529  0.1896
 6483TIP3   OH241083   5.587   3.818   2.049 -0.2513  0.0764  0.0487
 6483TIP3    H141084   5.653   3.885   2.031 -0.4183  0.5670  1.2121
 6483TIP3    H241085   5.625   3.738   2.013  0.1778  0.6806 -0.9048
 6484TIP3   OH241086   1.701   4.705   8.626 -0.2137 -0.3127 -0.1882
 6484TIP3    H141087   1.686   4.666   8.713 -0.9044 -0.8356 -0.5322
 6484TIP3    H241088   1.618   4.693   8.580 -0.2491  1.0271 -0.5208
 6485TIP3   OH241089   4.492   0.927   2.091  0.6337  0.1632  0.1753
 6485TIP3    H141090   4.431   0.864   2.129 -0.7802  0.2136 -1.8881
 6485TIP3    H241091   4.530   0.882   2.016 -1.3091  2.0381 -2.0928
 6486TIP3   OH241092   4.252   3.880   0.400 -0.7040  0.3587  0.3303
 6486TIP3    H141093   4.158   3.892   0.386 -0.7103  0.8316  0.7686
 6486TIP3    H241094   4.293   3.910   0.319 -0.9218  0.2155  0.1648
 6487TIP3   OH241095   2.076   0.206   6.836 -0.0062  0.1864 -0.2877
 6487TIP3    H141096   2.015   0.256   6.890 -1.4696  0.6466 -2.2715
 6487TIP3    H241097   2.104   0.134   6.893 -2.1090  0.1815  0.8294
 6488TIP3   OH241098   1.195   1.120   0.634  0.1201 -0.3319  0.0809
 6488TIP3    H141099   1.186   1.104   0.728  0.5272 -0.2045  0.1458
 6488TIP3    H241100   1.187   1.215   0.625  2.3816 -0.0685  0.2861
 6489TIP3   OH241101   3.203   2.084   0.376  0.3190  0.3258 -0.1875
 6489TIP3    H141102   3.176   2.140   0.449  0.2335 -1.6638  1.3927
 6489TIP3    H241103   3.164   1.999   0.396  1.2374 -0.5680 -2.0034
 6490TIP3   OH241104   5.348   4.232   7.002 -0.2994 -0.2101  0.7209
 6490TIP3    H141105   5.422   4.172   7.011  1.2763  1.0934 -2.0920
 6490TIP3    H241106   5.282   4.182   6.955  0.6669 -0.1018 -0.8386
 6491TIP3   OH241107   3.874   1.052   8.366  0.2248  0.1054 -0.0961
 6491TIP3    H141108   3.799   1.111   8.360  1.1412  1.1428 -2.6190
 6491TIP3    H241109   3.949   1.110   8.381  0.7240 -0.8125  1.2032
 6492TIP3   OH241110   1.191   3.925   1.470  0.3916 -0.0786  0.0704
 6492TIP3    H141111   1.250   4.000   1.468 -1.1772  1.1886 -0.9030
 6492TIP3    H241112   1.161   3.921   1.561  3.0420 -1.7153  1.0063
 6493TIP3   OH241113   0.114   0.249   0.858  0.0417  0.1789  0.2510
 6493TIP3    H141114   0.081   0.312   0.794 -0.4741 -1.5596 -1.2924
 6493TIP3    H241115   0.037   0.197   0.883  0.8128 -1.3544 -0.3764
 6494TIP3   OH241116   3.217   1.397   0.180  0.2931 -0.0659 -0.4578
 6494TIP3    H141117   3.293   1.348   0.214 -0.6646 -1.6134 -0.4515
 6494TIP3    H241118   3.243   1.422   0.091  0.7907 -0.6267 -0.4791
 6495TIP3   OH241119   6.040   4.528   7.538  0.3058 -0.0684 -0.3112
 6495TIP3    H141120   6.060   4.608   7.490 -2.3566  0.6941 -0.2674
 6495TIP3    H241121   5.988   4.475   7.477 -0.5135 -0.4350  0.6676
 6496TIP3   OH241122   6.861   2.620   0.708  0.3210  0.2902  0.3030
 6496TIP3    H141123   6.948   2.619   0.749  1.2450  0.4624 -1.5269
 6496TIP3    H241124   6.867   2.689   0.641 -0.5276 -1.0648 -1.2370
 6497TIP3   OH241125   1.537   1.188   6.403 -0.1945 -0.0211  0.4601
 6497TIP3    H141126   1.605   1.233   6.353  0.9100 -1.9774  0.1025
 6497TIP3    H241127   1.584   1.150   6.477 -1.3236  0.4901  1.4555
 6498TIP3   OH241128   0.517   0.913   6.000  0.1662  0.9625 -0.9337
 6498TIP3    H141129   0.479   0.974   5.936  1.3579  0.6514 -1.9799
 6498TIP3    H241130   0.608   0.902   5.971  0.3218 -0.3316 -0.0218
 6499TIP3   OH241131   1.290   1.533   2.135  0.8319 -0.3801  0.4196
 6499TIP3    H141132   1.264   1.571   2.051 -1.0510 -0.8749  0.7454
 6499TIP3    H241133   1.279   1.438   2.123  3.5699 -0.7799  0.2628
 6500TIP3   OH241134   3.348   1.554   1.189  0.0925  0.2524 -0.0809
 6500TIP3    H141135   3.338   1.587   1.278 -0.2300  1.3413 -0.5046
 6500TIP3    H241136   3.301   1.471   1.189  1.9642 -0.9145  1.3472
 6501TIP3   OH241137   6.860   4.563   1.359 -0.5271  0.3487  0.5226
 6501TIP3    H141138   6.883   4.655   1.352 -0.3988  0.2972  0.2420
 6501TIP3    H241139   6.852   4.547   1.453 -1.9175  0.9820  0.5385
 6502TIP3   OH241140   5.175   0.732   1.306  0.2875  0.1357 -0.0427
 6502TIP3    H141141   5.135   0.648   1.328  0.6671 -0.5094 -1.6500
 6502TIP3    H241142   5.269   0.714   1.301  0.3281  0.5248 -0.8928
 6503TIP3   OH241143   5.242   3.468   7.315  0.0147 -0.5033 -0.0710
 6503TIP3    H141144   5.225   3.520   7.237 -0.4717 -1.2077 -0.4447
 6503TIP3    H241145   5.321   3.419   7.294  0.8097  0.4813  0.4985
 6504TIP3   OH241146   4.627   4.254   0.316  0.8124  0.1951 -0.1524
 6504TIP3    H141147   4.656   4.344   0.332  2.7186 -0.2732 -0.7093
 6504TIP3    H241148   4.682   4.201   0.373  0.7498 -0.7186 -0.9291
 6505TIP3   OH241149   6.845   3.659   7.637 -0.1100 -0.2678  0.4921
 6505TIP3    H141150   6.931   3.683   7.672 -0.0932  2.1903 -0.9384
 6505TIP3    H241151   6.800   3.616   7.710  1.3220  0.9788  2.2031
 6506TIP3   OH241152   1.688   6.563   1.718  0.2847  0.4688  0.2974
 6506TIP3    H141153   1.639   6.495   1.764  2.6053 -2.7638 -1.5951
 6506TIP3    H241154   1.774   6.562   1.759  0.6459  1.6413 -0.3973
 6507TIP3   OH241155   2.416   3.375   2.080  0.2711 -0.3526  0.4910
 6507TIP3    H141156   2.339   3.326   2.050  0.3471 -0.1671 -0.0185
 6507TIP3    H241157   2.491   3.325   2.049  0.3673 -0.6329  1.1489
 6508TIP3   OH241158   4.202   4.419   0.423  0.1138  0.0853 -0.0164
 6508TIP3    H141159   4.280   4.385   0.465  1.1511  2.1967 -0.1479
 6508TIP3    H241160   4.166   4.343   0.375 -0.9744 -2.3826  4.1674
 6509TIP3   OH241161   5.129   1.938   1.433  0.1349  0.5834 -0.3589
 6509TIP3    H141162   5.166   1.900   1.512  0.3698  1.8054  0.1482
 6509TIP3    H241163   5.155   1.878   1.363 -0.1042 -0.5306  0.4749
 6510TIP3   OH241164   2.512   1.835   8.292  0.2910  0.0415 -0.6406
 6510TIP3    H141165   2.565   1.861   8.368 -0.7164 -1.3540  0.6189
 6510TIP3    H241166   2.442   1.900   8.288 -1.3116 -1.3639  1.5118
 6511TIP3   OH241167   1.540   6.771   8.121 -0.2795  0.0102  0.1663
 6511TIP3    H141168   1.535   6.676   8.131 -1.7644  0.1071  0.5166
 6511TIP3    H241169   1.472   6.792   8.057  0.8135  0.7359 -0.7956
 6512TIP3   OH241170   2.839   5.759   2.268 -0.1145 -0.3418  0.0441
 6512TIP3    H141171   2.780   5.825   2.233  1.7650  1.0656 -0.6358
 6512TIP3    H241172   2.783   5.682   2.283 -2.5752  1.6364  1.8082
 6513TIP3   OH241173   1.345   1.881   1.347 -0.1151 -0.2817  0.5821
 6513TIP3    H141174   1.300   1.929   1.277 -0.9800 -3.0997 -0.9511
 6513TIP3    H241175   1.437   1.903   1.336 -0.5789  1.9163  0.7364
 6514TIP3   OH241176   1.683   0.108   1.015  0.4404  0.0525 -0.3267
 6514TIP3    H141177   1.750   0.176   1.025  0.2778  0.0307  1.1849
 6514TIP3    H241178   1.602   0.150   1.042  0.5439 -1.0510  1.9201
 6515TIP3   OH241179   5.323   5.580   1.617  0.3577 -0.4358 -0.3381
 6515TIP3    H141180   5.413   5.611   1.603  1.0177 -1.7852  0.6706
 6515TIP3    H241181   5.315   5.571   1.712 -1.3211  0.9341 -0.3074
 6516TIP3   OH241182   5.889   0.276   6.820  0.6712  0.3035 -0.7995
 6516TIP3    H141183   5.799   0.244   6.827  0.9820 -0.7190 -1.3238
 6516TIP3    H241184   5.882   0.354   6.766  0.1288  0.0474 -1.1122
 6517TIP3   OH241185   0.167   1.385   7.340 -0.0574 -0.1573 -0.0070
 6517TIP3    H141186   0.229   1.315   7.318 -0.7450 -0.9398  0.4933
 6517TIP3    H241187   0.156   1.379   7.435 -0.1551  0.6119  0.0387
 6518TIP3   OH241188   2.620   4.722   6.564  0.0354  0.3281 -0.1353
 6518TIP3    H141189   2.546   4.738   6.504  0.8918  0.9555 -1.0591
 6518TIP3    H241190   2.698   4.734   6.510  0.8422  0.6354  1.0504
 6519TIP3   OH241191   0.024   3.102   8.572  0.5743  0.4645 -0.8137
 6519TIP3    H141192   0.031   3.023   8.625 -0.3041  0.7112 -0.3106
 6519TIP3    H241193   0.114   3.132   8.563  0.8021  0.0992  0.0660
 6520TIP3   OH241194   3.459   1.378   6.293  0.5634 -0.4044 -0.2854
 6520TIP3    H141195   3.368   1.365   6.320  1.2178 -1.5117  1.4978
 6520TIP3    H241196   3.486   1.458   6.338  0.6782 -0.4230 -0.3217
 6521TIP3   OH241197   1.390   2.396   6.321 -0.2303 -0.1868 -0.2397
 6521TIP3    H141198   1.478   2.413   6.287 -0.8778  0.7974 -1.4945
 6521TIP3    H241199   1.372   2.470   6.380 -0.9658  0.7280 -1.5517
 6522TIP3   OH241200   6.718   4.619   0.457  0.0359 -0.3423  0.1251
 6522TIP3    H141201   6.797   4.664   0.487  0.1623 -0.1039 -0.5397
 6522TIP3    H241202   6.750   4.548   0.401 -0.2210 -0.1513 -0.2682
 6523TIP3   OH241203   3.518   3.966   0.763 -0.1394  0.4758  0.0251
 6523TIP3    H141204   3.499   3.925   0.848 -0.9697 -0.9501 -0.8198
 6523TIP3    H241205   3.583   4.033   0.784  0.1551 -0.2645  1.6962
 6524TIP3   OH241206   3.190   6.488   1.531 -0.6958 -0.4173 -0.5566
 6524TIP3    H141207   3.229   6.414   1.577  0.5213 -0.0372 -0.9618
 6524TIP3    H241208   3.225   6.483   1.442 -1.0558  0.3076 -0.7490
 6525TIP3   OH241209   0.662   1.967   0.410  0.5301 -0.0305 -0.2553
 6525TIP3    H141210   0.701   1.998   0.328  2.4471 -2.9990 -0.6051
 6525TIP3    H241211   0.568   1.963   0.393  0.4076  2.9858 -0.9341
 6526TIP3   OH241212   1.195   0.801   0.660  0.3688 -0.4399  0.1349
 6526TIP3    H141213   1.114   0.770   0.701  0.7295  1.0333  2.0961
 6526TIP3    H241214   1.169   0.877   0.608  0.3345 -0.6656 -0.1834
 6527TIP3   OH241215   4.308   3.652   0.873  0.6910 -0.0996  0.1343
 6527TIP3    H141216   4.253   3.627   0.947  0.4171 -3.1279 -0.9456
 6527TIP3    H241217   4.255   3.716   0.825 -0.6932 -0.7821  0.6819
 6528TIP3   OH241218   6.658   5.169   1.749  0.2013  0.5686  0.1834
 6528TIP3    H141219   6.743   5.136   1.780 -0.2861  0.4218  1.3850
 6528TIP3    H241220   6.673   5.263   1.735 -0.1319  1.1509  3.0850
 6529TIP3   OH241221   0.248   5.081   8.350 -0.3451  0.2506  0.0200
 6529TIP3    H141222   0.212   5.131   8.276 -0.3255  0.8201  0.3937
 6529TIP3    H241223   0.342   5.097   8.346 -0.5411  2.2010  1.5340
 6530TIP3   OH241224   4.635   0.275   6.698  0.0170 -0.0947  0.0540
 6530TIP3    H141225   4.709   0.242   6.648  0.8842 -0.1926  1.3457
 6530TIP3    H241226   4.645   0.370   6.697  1.0490 -0.1617  1.4792
 6531TIP3   OH241227   2.299   5.832   7.318 -0.1202  0.6277  0.1921
 6531TIP3    H141228   2.273   5.831   7.226  0.0291 -1.3691  0.1088
 6531TIP3    H241229   2.217   5.818   7.366 -0.0165  0.2397  0.2635
 6532TIP3   OH241230   0.276   2.556   8.418  0.1378  0.1235 -0.0564
 6532TIP3    H141231   0.253   2.586   8.331 -2.0194 -0.7704  0.1460
 6532TIP3    H241232   0.337   2.484   8.403 -0.1375  0.0405 -0.8300
 6533TIP3   OH241233   2.746   2.115   7.504  0.1895  0.1401 -0.0127
 6533TIP3    H141234   2.823   2.065   7.530 -0.2228 -0.0575  0.8640
 6533TIP3    H241235   2.674   2.073   7.551  0.0073  2.3905  1.9097
 6534TIP3   OH241236   3.151   1.204   8.619 -0.0963  0.2568  0.0889
 6534TIP3    H141237   3.169   1.171   8.707 -0.8337  1.2182  0.6135
 6534TIP3    H241238   3.217   1.272   8.606 -0.6290  0.8140  0.3027
 6535TIP3   OH241239   6.715   3.429   8.058  0.3611 -0.6243  0.2769
 6535TIP3    H141240   6.763   3.492   8.112 -0.5857  0.0330  0.3836
 6535TIP3    H241241   6.734   3.456   7.968 -0.2443 -0.0019  0.3238
 6536TIP3   OH241242   5.558   2.251   1.070 -0.2919  0.6766  0.0632
 6536TIP3    H141243   5.464   2.267   1.064 -0.1751  0.8621 -2.1449
 6536TIP3    H241244   5.565   2.156   1.081 -0.7358  0.8742  2.6019
 6537TIP3   OH241245   1.257   5.491   0.663 -0.1638 -0.4198  0.5390
 6537TIP3    H141246   1.214   5.548   0.599  1.5799 -0.2211 -0.5235
 6537TIP3    H241247   1.349   5.490   0.637  0.2273 -2.0781  1.7747
 6538TIP3   OH241248   1.852   6.033   0.538 -0.3463 -0.1570 -0.3188
 6538TIP3    H141249   1.829   6.044   0.446 -1.2201  0.4261 -0.0537
 6538TIP3    H241250   1.801   6.101   0.583  1.4436  0.7701  0.4057
 6539TIP3   OH241251   1.201   1.343   1.270 -0.1005 -0.4322 -0.1332
 6539TIP3    H141252   1.200   1.269   1.209 -0.5865 -0.5214 -0.0207
 6539TIP3    H241253   1.293   1.355   1.292  0.0842 -0.3929 -0.8985
 6540TIP3   OH241254   3.765   2.528   1.963  0.0447 -1.1023  0.5807
 6540TIP3    H141255   3.848   2.554   2.003  0.4501 -1.2662 -0.1395
 6540TIP3    H241256   3.704   2.520   2.037  1.1151 -2.7009  1.3415
 6541TIP3   OH241257   0.552   4.910   0.409 -0.2096 -0.2545  0.0462
 6541TIP3    H141258   0.612   4.905   0.335 -0.2912 -0.4604 -0.0047
 6541TIP3    H241259   0.503   4.829   0.406 -1.5540  0.5598 -0.8141
 6542TIP3   OH241260   3.058   0.401   2.160  0.0723 -0.1858 -0.3061
 6542TIP3    H141261   2.991   0.370   2.098  2.0072 -2.5186 -1.3844
 6542TIP3    H241262   3.014   0.398   2.245 -1.7716  0.2430 -1.1911
 6543TIP3   OH241263   3.133   6.231   8.121 -0.1078 -0.2320 -0.1063
 6543TIP3    H141264   3.053   6.282   8.123 -0.3836 -0.6723  0.8637
 6543TIP3    H241265   3.201   6.290   8.153  0.3533  0.7344 -2.6697
 6544TIP3   OH241266   5.543   2.737   6.678  0.3327  0.1850  0.2768
 6544TIP3    H141267   5.531   2.647   6.646 -1.2248  0.4795 -0.0508
 6544TIP3    H241268   5.541   2.730   6.773 -0.7335 -0.0330  0.2494
 6545TIP3   OH241269   1.177   0.956   6.753  0.0503  0.2591 -0.6078
 6545TIP3    H141270   1.159   0.955   6.847 -0.9113  0.5870 -0.7766
 6545TIP3    H241271   1.117   0.891   6.716  1.4183 -0.9293 -0.8506
 6546TIP3   OH241272   0.043   0.389   1.725  0.1580 -0.2305 -0.1878
 6546TIP3    H141273   0.018   0.345   1.806  1.8814 -0.8231  0.0417
 6546TIP3    H241274  -0.022   0.359   1.661 -1.4846  0.5673  1.0168
 6547TIP3   OH241275   4.118   1.164   6.277  0.2716 -0.6271  0.5181
 6547TIP3    H141276   4.138   1.209   6.195  0.1682 -1.9982 -0.2932
 6547TIP3    H241277   4.023   1.163   6.281  0.2880  0.2556  1.1264
 6548TIP3   OH241278   0.911   0.442   6.831  0.2587  0.2364  0.0428
 6548TIP3    H141279   0.973   0.492   6.885  0.5081  0.9327 -0.8615
 6548TIP3    H241280   0.870   0.508   6.775 -0.0839 -0.4576 -0.5333
 6549TIP3   OH241281   4.869   0.140   7.897 -0.1379  0.5402  0.0993
 6549TIP3    H141282   4.796   0.081   7.918 -0.1234  0.7693  0.8108
 6549TIP3    H241283   4.927   0.134   7.973  1.2701 -0.6629 -1.0080
 6550TIP3   OH241284   0.813   1.189   1.242  0.4066 -0.3974 -0.4579
 6550TIP3    H141285   0.800   1.133   1.319  0.3352 -0.5716 -0.5935
 6550TIP3    H241286   0.778   1.274   1.267  0.5045 -0.4187 -0.2519
 6551TIP3   OH241287   2.923   6.136   2.176  0.0591  0.6071  0.8652
 6551TIP3    H141288   2.835   6.162   2.204 -0.4150 -0.2091  0.1722
 6551TIP3    H241289   2.968   6.112   2.258 -0.2433  1.3357  1.2545
 6552TIP3   OH241290   5.948   2.348   7.472 -0.0729 -0.3430  0.7446
 6552TIP3    H141291   6.010   2.278   7.493  0.9443  0.9507  2.1808
 6552TIP3    H241292   5.931   2.392   7.555 -2.3416 -0.1618  0.2477
 6553TIP3   OH241293   5.842   1.616   0.747 -0.0831  0.3169 -0.2194
 6553TIP3    H141294   5.806   1.532   0.720 -0.3408  0.4628 -0.3389
 6553TIP3    H241295   5.857   1.607   0.841 -2.0466  0.8082  0.1953
 6554TIP3   OH241296   4.851   2.396   6.927 -0.9468 -0.0607 -0.0818
 6554TIP3    H141297   4.829   2.460   6.859 -0.7676  0.7481  0.6004
 6554TIP3    H241298   4.946   2.382   6.918 -0.2893  2.3577  1.8563
 6555TIP3   OH241299   1.751   0.613   7.257  0.0845 -0.5315  0.2129
 6555TIP3    H141300   1.657   0.617   7.242  0.0757 -1.1900  0.0502
 6555TIP3    H241301   1.790   0.608   7.169  0.2425 -0.7050  0.2904
 6556TIP3   OH241302   6.750   3.564   1.459  0.4102  0.3752  0.2550
 6556TIP3    H141303   6.730   3.563   1.552  2.2962 -0.7617  0.7001
 6556TIP3    H241304   6.757   3.471   1.435  0.8504  0.6676 -0.7949
 6557TIP3   OH241305   2.059   0.968   5.996  0.4861 -0.3317 -0.3148
 6557TIP3    H141306   1.987   1.017   6.035 -0.1505 -1.5176  0.0780
 6557TIP3    H241307   2.083   1.018   5.919 -0.2049  0.5275  0.0076
 6558TIP3   OH241308   4.300   4.618   7.242  0.2161  0.6581  0.0666
 6558TIP3    H141309   4.266   4.551   7.300 -0.6302  2.1223  1.3215
 6558TIP3    H241310   4.264   4.597   7.156 -1.4348  0.4498  0.7781
 6559TIP3   OH241311   3.321   1.028   8.121 -0.0801 -0.5954  0.5453
 6559TIP3    H141312   3.389   1.017   8.188 -0.4836 -4.3084  0.5625
 6559TIP3    H241313   3.241   1.043   8.170  0.2074  0.9257  0.6230
 6560TIP3   OH241314   3.228   4.013   6.771 -0.2336 -0.0230 -0.2809
 6560TIP3    H141315   3.271   3.929   6.785  3.8698  2.0162  1.2168
 6560TIP3    H241316   3.236   4.030   6.677  1.0439 -0.3567 -0.2461
 6561TIP3   OH241317   0.371   3.459   0.299 -0.8668 -0.0199 -0.3930
 6561TIP3    H141318   0.303   3.398   0.327  0.5286 -1.3752  0.1496
 6561TIP3    H241319   0.428   3.468   0.375  1.0537 -1.0270 -1.6402
 6562TIP3   OH241320   0.048   5.434   7.093  0.3345 -0.1897  0.5185
 6562TIP3    H141321   0.038   5.507   7.153 -0.4208  1.4185 -1.4339
 6562TIP3    H241322  -0.041   5.403   7.076  0.4614 -0.1446 -0.3005
 6563TIP3   OH241323   6.434   0.959   1.778 -0.0685  0.0959  0.2566
 6563TIP3    H141324   6.374   1.025   1.814 -1.1696 -0.8059  0.1582
 6563TIP3    H241325   6.512   0.964   1.834 -0.5920  0.6967  0.9604
 6564TIP3   OH241326   6.099   0.562   1.307 -0.0560  0.1052  0.2530
 6564TIP3    H141327   6.168   0.628   1.302 -0.2934  0.3015 -0.7099
 6564TIP3    H241328   6.031   0.595   1.248  0.5550 -1.8295 -1.6272
 6565TIP3   OH241329   1.523   2.908   0.733  0.0102  0.0983 -0.2716
 6565TIP3    H141330   1.514   3.003   0.726 -2.1932 -0.1694 -2.6686
 6565TIP3    H241331   1.485   2.887   0.818  1.1611  1.3891  0.5999
 6566TIP3   OH241332   0.451   1.878   8.521  0.1839  0.2010 -0.3091
 6566TIP3    H141333   0.499   1.934   8.581 -1.5337  1.8977 -0.4209
 6566TIP3    H241334   0.409   1.938   8.460 -0.2242 -1.3313 -1.6191
 6567TIP3   OH241335   2.770   2.453   7.507  0.1800  0.3992  0.3879
 6567TIP3    H141336   2.763   2.357   7.504  1.1370  0.2442  1.9984
 6567TIP3    H241337   2.864   2.470   7.507  0.0196  1.3133  0.4876
 6568TIP3   OH241338   5.940   2.884   0.158 -0.0586 -0.2137 -0.4269
 6568TIP3    H141339   5.874   2.833   0.110 -2.5758  0.7399  1.7702
 6568TIP3    H241340   5.971   2.824   0.226 -2.2427  0.6758  1.4882
 6569TIP3   OH241341   6.653   1.290   7.006  0.4061 -0.3881  0.1772
 6569TIP3    H141342   6.641   1.245   7.090 -0.0018  0.5900  0.6644
 6569TIP3    H241343   6.714   1.361   7.026 -1.7293  1.5186  0.3228
 6570TIP3   OH241344   3.264   5.287   8.415 -0.0144 -0.2645 -0.0528
 6570TIP3    H141345   3.279   5.293   8.320  0.0900  0.6147  0.0074
 6570TIP3    H241346   3.245   5.377   8.441  1.9883 -0.1245  1.0817
 6571TIP3   OH241347   4.062   3.578   6.784 -0.7644 -0.3212 -0.1191
 6571TIP3    H141348   4.149   3.539   6.779 -0.1503  0.7267  1.4095
 6571TIP3    H241349   4.063   3.646   6.717 -0.7594 -0.9187 -0.7400
 6572TIP3   OH241350   2.366   2.579   8.463  0.1684 -0.2399 -0.7828
 6572TIP3    H141351   2.379   2.538   8.548  1.6719 -1.2413 -1.4535
 6572TIP3    H241352   2.441   2.638   8.454 -0.3841  0.4246 -1.1013
 6573TIP3   OH241353   0.882   1.522   5.934  0.3921  0.4343  0.2672
 6573TIP3    H141354   0.868   1.608   5.973 -2.2188 -0.4952  1.6240
 6573TIP3    H241355   0.819   1.465   5.978  0.5490 -1.7303 -2.0612
 6574TIP3   OH241356   4.036   1.381   1.011  0.1528 -0.8008 -0.3658
 6574TIP3    H141357   4.050   1.388   1.106  0.6706 -0.9044 -0.4292
 6574TIP3    H241358   4.109   1.430   0.973 -1.5588  1.6656 -0.6882
 6575TIP3   OH241359   6.865   2.081   7.480  0.6615  0.1633 -0.1637
 6575TIP3    H141360   6.865   1.986   7.495  2.6254  0.0121 -0.7351
 6575TIP3    H241361   6.889   2.119   7.565 -2.3548  0.3715  0.6897
 6576TIP3   OH241362   2.616   6.311   0.891  0.2463  0.0150 -0.5606
 6576TIP3    H141363   2.590   6.223   0.918 -1.1825  0.4435 -0.4407
 6576TIP3    H241364   2.593   6.367   0.965 -1.3245  0.8471 -1.6195
 6577TIP3   OH241365   4.651   0.469   7.910 -0.0052  0.1825  0.0379
 6577TIP3    H141366   4.590   0.444   7.842 -0.3634  0.9870  0.0469
 6577TIP3    H241367   4.737   0.449   7.874 -0.1257  1.5184 -1.0880
 6578TIP3   OH241368   5.449   5.504   0.161  0.1611 -0.3457  0.3546
 6578TIP3    H141369   5.532   5.457   0.151 -0.1158 -1.0419  1.1907
 6578TIP3    H241370   5.421   5.523   0.072 -0.1070 -2.4928 -0.0717
 6579TIP3   OH241371   1.073   3.451   1.899  0.2503 -0.5777 -0.0883
 6579TIP3    H141372   1.034   3.433   1.985  1.5966 -1.8095  0.2951
 6579TIP3    H241373   1.113   3.537   1.908  2.1713 -1.5319  1.2408
 6580TIP3   OH241374   5.833   4.392   1.150 -0.2615 -0.0299  0.2438
 6580TIP3    H141375   5.749   4.432   1.174  0.0003 -0.0883  1.3134
 6580TIP3    H241376   5.878   4.379   1.234  0.5625 -0.5638 -0.2691
 6581TIP3   OH241377   1.632   4.454   0.517  0.5720  0.1710  0.3768
 6581TIP3    H141378   1.690   4.379   0.537 -0.9344 -1.1208  0.1073
 6581TIP3    H241379   1.569   4.455   0.588 -1.2434 -0.7474 -1.1222
 6582TIP3   OH241380   3.731   2.945   0.411  0.1406  0.1550  0.0311
 6582TIP3    H141381   3.777   2.890   0.475 -0.5877 -1.0754 -0.4725
 6582TIP3    H241382   3.690   3.013   0.464  0.6499 -0.0696  0.7325
 6583TIP3   OH241383   1.476   0.086   5.976  0.1069 -0.1364 -0.3619
 6583TIP3    H141384   1.444   0.057   6.061 -0.9104 -0.1918 -0.7413
 6583TIP3    H241385   1.561   0.127   5.994 -0.5835  0.8274  0.8390
 6584TIP3   OH241386   6.011   4.741   6.411 -0.2480  0.4879  0.4759
 6584TIP3    H141387   5.950   4.813   6.392 -0.3555  0.0995 -0.7919
 6584TIP3    H241388   5.960   4.661   6.393 -0.4019  0.0212  2.6630
 6585TIP3   OH241389   0.739   3.779   0.650 -0.2703 -0.3426 -0.4738
 6585TIP3    H141390   0.790   3.709   0.690 -1.4970 -0.8081  0.3363
 6585TIP3    H241391   0.770   3.783   0.559  1.0281 -0.7425 -0.0698
 6586TIP3   OH241392   0.638   5.925   8.113 -0.1611  0.3036  0.3141
 6586TIP3    H141393   0.645   5.991   8.182  0.4308  0.1581  0.3965
 6586TIP3    H241394   0.585   5.967   8.045 -2.7213 -0.3298  1.7781
 6587TIP3   OH241395   0.143   5.363   8.499  0.4708 -0.7834  0.2751
 6587TIP3    H141396   0.083   5.421   8.451 -2.0203 -2.9156  0.5876
 6587TIP3    H241397   0.124   5.380   8.591 -0.7517 -2.4270  0.3717
 6588TIP3   OH241398   0.743   3.533   1.259  0.2000  0.0339  0.1497
 6588TIP3    H141399   0.649   3.522   1.246  0.2450  0.6577 -0.7416
 6588TIP3    H241400   0.771   3.592   1.189  1.2408 -0.0704  0.4575
 6589TIP3   OH241401   5.004   1.878   0.843  0.3648 -0.0274 -0.2526
 6589TIP3    H141402   4.976   1.787   0.835 -3.4460  1.0828 -1.2769
 6589TIP3    H241403   4.992   1.915   0.756 -1.7836  2.2699  0.9064
 6590TIP3   OH241404   2.929   1.908   0.628  0.1655 -0.2001 -0.5537
 6590TIP3    H141405   2.925   1.818   0.657 -0.2380  0.6680  2.3283
 6590TIP3    H241406   2.884   1.908   0.543 -0.7356 -2.4760 -0.1352
 6591TIP3   OH241407   5.677   4.132   1.137  0.5314 -0.0297  0.0148
 6591TIP3    H141408   5.753   4.186   1.113  0.6531 -0.4307 -0.5392
 6591TIP3    H241409   5.605   4.195   1.146  0.5516  0.1943 -1.1211
 6592TIP3   OH241410   1.828   2.941   0.398  0.6027  0.4261  0.2572
 6592TIP3    H141411   1.888   2.998   0.349 -1.3937  2.2758 -0.1843
 6592TIP3    H241412   1.757   2.923   0.336 -0.1939 -0.2175  1.3352
 6593TIP3   OH241413   6.076   0.599   7.920 -0.7831 -0.3558  0.1058
 6593TIP3    H141414   6.005   0.592   7.983  0.1485  1.0215  1.3852
 6593TIP3    H241415   6.098   0.692   7.919 -0.4524 -0.4119 -1.9379
 6594TIP3   OH241416   1.798   3.983   1.662  0.0965  0.8225 -0.4071
 6594TIP3    H141417   1.705   3.984   1.641 -0.1149  0.5964  0.4834
 6594TIP3    H241418   1.825   4.074   1.658 -0.5158  1.0731  0.8248
 6595TIP3   OH241419   6.137   2.428   0.715 -0.3362  0.0396 -0.1473
 6595TIP3    H141420   6.130   2.504   0.774 -1.9512 -0.8435  0.8583
 6595TIP3    H241421   6.063   2.438   0.655  1.9930  1.6282 -3.0346
 6596TIP3   OH241422   1.403   3.932   7.825  0.2692  0.2693 -0.2656
 6596TIP3    H141423   1.429   3.902   7.912 -1.0349 -0.0383  0.0411
 6596TIP3    H241424   1.397   3.852   7.773  0.7495  0.4216 -0.5582
 6597TIP3   OH241425   5.527   5.483   2.488 -0.1529  0.3431 -0.1315
 6597TIP3    H141426   5.535   5.436   2.571  0.9621  1.5297  0.4781
 6597TIP3    H241427   5.563   5.422   2.423  0.7364  0.1130  0.5497
 6598TIP3   OH241428   6.595   5.580   0.487 -0.1300  0.9200 -0.0578
 6598TIP3    H141429   6.665   5.623   0.536 -1.4114 -0.1103  2.9087
 6598TIP3    H241430   6.609   5.486   0.502 -1.0773  0.5938 -1.0474
 6599TIP3   OH241431   2.077   2.163   1.536  0.0179 -0.0587 -0.4705
 6599TIP3    H141432   2.037   2.237   1.581  4.3987  1.2534  1.7809
 6599TIP3    H241433   2.137   2.203   1.473  0.1946 -1.8091 -1.4666
 6600TIP3   OH241434   6.754   3.629   2.300 -0.4736  0.0141  0.1424
 6600TIP3    H141435   6.802   3.691   2.246 -0.9314  0.5751  0.3668
 6600TIP3    H241436   6.717   3.682   2.371 -0.1592 -0.6527  0.8269
 6601TIP3   OH241437   4.742   3.718   1.757  0.3725  0.2453 -0.1294
 6601TIP3    H141438   4.819   3.724   1.701  1.8801  1.8542  1.9394
 6601TIP3    H241439   4.752   3.634   1.802  0.0623 -0.2584 -0.9781
 6602TIP3   OH241440   5.626   3.881   7.894  0.5925  0.5058  0.1519
 6602TIP3    H141441   5.625   3.787   7.877 -1.4318  0.6450 -0.8785
 6602TIP3    H241442   5.718   3.905   7.896  1.1273 -1.3916 -0.2101
 6603TIP3   OH241443   4.444   1.345   5.832  0.0561 -0.3528  0.6829
 6603TIP3    H141444   4.521   1.297   5.800  0.0422  0.0491  0.0145
 6603TIP3    H241445   4.417   1.399   5.757 -1.4203 -1.1527  0.5954
 6604TIP3   OH241446   4.795   5.481   0.151 -0.3354 -0.4396  0.2982
 6604TIP3    H141447   4.753   5.429   0.083 -0.8718 -0.0265  0.3074
 6604TIP3    H241448   4.770   5.572   0.132 -0.3120 -0.2957  0.9168
 6605TIP3   OH241449   2.889   3.601   1.268 -0.2226 -0.0732  0.2578
 6605TIP3    H141450   2.952   3.539   1.306 -0.0166  0.6403  1.1354
 6605TIP3    H241451   2.884   3.672   1.333  0.1701  1.2314 -1.0761
 6606TIP3   OH241452   2.528   2.535   7.416 -0.1083  0.1084 -0.0451
 6606TIP3    H141453   2.613   2.526   7.458 -0.0358  0.0182 -0.2087
 6606TIP3    H241454   2.543   2.596   7.344 -0.4113  0.8920  0.5491
 6607TIP3   OH241455   0.545   4.230   0.976  0.2474 -0.0898 -0.0101
 6607TIP3    H141456   0.491   4.271   1.043  1.3320 -0.4441  1.1121
 6607TIP3    H241457   0.486   4.170   0.930 -0.7077  0.7756  0.0506
 6608TIP3   OH241458   2.973   4.418   0.327 -0.0283  0.3339  0.1659
 6608TIP3    H141459   3.043   4.390   0.387 -0.1092  0.7254  0.4405
 6608TIP3    H241460   2.945   4.336   0.285  0.8739  0.2248 -0.2515
 6609TIP3   OH241461   1.568   4.547   1.745 -0.1394  0.6173 -0.5079
 6609TIP3    H141462   1.571   4.594   1.829 -0.9811 -0.4016  0.1092
 6609TIP3    H241463   1.641   4.583   1.695  0.3980  1.2198  0.6745
 6610TIP3   OH241464   6.574   1.673   8.136  0.1514 -0.6187 -0.1844
 6610TIP3    H141465   6.527   1.595   8.104 -1.8072  0.4850 -0.1090
 6610TIP3    H241466   6.509   1.743   8.135  1.6219  0.8305  0.6525
 6611TIP3   OH241467   6.519   1.059   8.174 -0.1068 -0.5539 -0.2597
 6611TIP3    H141468   6.592   0.997   8.171 -0.1069 -0.5815  0.1710
 6611TIP3    H241469   6.554   1.134   8.223 -1.4784 -2.1243  3.5344
 6612TIP3   OH241470   3.235   1.790   0.686 -0.1942  0.3946 -0.4376
 6612TIP3    H141471   3.234   1.863   0.748 -1.0728 -0.2730  0.3739
 6612TIP3    H241472   3.275   1.825   0.607  1.2998  1.1812  0.6186
 6613TIP3   OH241473   5.938   0.823   2.383  0.6132 -0.2176  0.5696
 6613TIP3    H141474   5.908   0.831   2.293 -0.2159 -0.0438  0.8444
 6613TIP3    H241475   6.033   0.832   2.379  0.4764  1.1240 -0.1317
 6614TIP3   OH241476   5.831   3.778   8.133  0.0653 -0.4923 -0.2008
 6614TIP3    H141477   5.906   3.780   8.192  0.7522 -2.2860 -0.9268
 6614TIP3    H241478   5.840   3.856   8.079 -0.1666  0.7942  1.5193
 6615TIP3   OH241479   3.583   4.056   7.156  0.1211  0.1553 -0.5065
 6615TIP3    H141480   3.496   4.079   7.189 -0.3068 -1.4979 -0.3859
 6615TIP3    H241481   3.643   4.102   7.214 -0.6743  0.3722  0.1672
 6616TIP3   OH241482   5.968   3.239   6.364 -0.6087 -0.0395 -0.8433
 6616TIP3    H141483   6.024   3.215   6.439  0.6624 -0.8649 -2.0104
 6616TIP3    H241484   6.021   3.301   6.314 -0.9831 -0.3642 -1.6509
 6617TIP3   OH241485   5.848   3.911   1.210  0.1685  0.6022 -0.0643
 6617TIP3    H141486   5.800   3.833   1.239 -0.1226  0.6239 -0.4664
 6617TIP3    H241487   5.781   3.964   1.166  0.3811  1.0511  0.1584
 6618TIP3   OH241488   0.052   0.731   7.991 -0.3021 -0.0871 -0.1143
 6618TIP3    H141489  -0.007   0.656   7.990 -0.4894  0.0605 -0.4640
 6618TIP3    H241490   0.139   0.694   7.974 -0.5184 -0.1251 -1.1681
 6619TIP3   OH241491   1.312   0.131   7.120 -0.2103 -0.0626  0.1362
 6619TIP3    H141492   1.300   0.226   7.110  0.3186  0.0418  0.4703
 6619TIP3    H241493   1.395   0.122   7.167  1.2218 -0.7713 -2.3454
 6620TIP3   OH241494   0.358   6.467   1.571  0.2719 -0.5280  0.3408
 6620TIP3    H141495   0.447   6.474   1.608  0.1561  0.2119  0.4933
 6620TIP3    H241496   0.300   6.478   1.647  0.0472 -2.2919  0.4496
 6621TIP3   OH241497   2.233   4.351   0.771 -0.3380 -0.0729  0.5469
 6621TIP3    H141498   2.266   4.420   0.714  3.2880 -2.0303 -0.0324
 6621TIP3    H241499   2.219   4.394   0.856 -0.0624  1.7066 -0.2777
 6622TIP3   OH241500   2.362   4.608   7.867  0.1025 -0.2317  0.1063
 6622TIP3    H141501   2.351   4.640   7.957  1.5377 -0.2484  0.3047
 6622TIP3    H241502   2.345   4.685   7.812  0.6272  0.1317  0.4516
 6623TIP3   OH241503   3.131   4.710   8.491  0.1956  0.9683 -0.4600
 6623TIP3    H141504   3.226   4.710   8.487  0.2657  1.1581  0.7058
 6623TIP3    H241505   3.107   4.618   8.498  0.3258  0.9465 -0.2941
 6624TIP3   OH241506   0.869   6.774   0.292  0.0264  0.3920 -0.4003
 6624TIP3    H141507   0.833   6.749   0.207  0.5889  0.8701 -0.7841
 6624TIP3    H241508   0.937   6.838   0.272 -0.8791  1.6879  0.5193
 6625TIP3   OH241509   2.827   4.810   0.423  0.8253  0.2362 -0.5072
 6625TIP3    H141510   2.814   4.834   0.331 -2.6692 -0.1026 -0.2546
 6625TIP3    H241511   2.914   4.772   0.427  1.4662  1.1709 -3.4583
 6626TIP3   OH241512   0.088   2.264   0.874  0.4154  0.4085  0.3326
 6626TIP3    H141513   0.160   2.296   0.821  1.3579 -1.7023  0.2527
 6626TIP3    H241514   0.125   2.253   0.962 -0.1481  0.4369  0.5835
 6627TIP3   OH241515   1.856   6.535   7.754  0.3600 -0.7063 -0.1212
 6627TIP3    H141516   1.817   6.571   7.834  0.6203 -2.8878  1.0553
 6627TIP3    H241517   1.924   6.598   7.730  0.3957 -0.0933  1.4728
 6628TIP3   OH241518   2.753   3.312   0.249 -0.2119  0.2705 -0.1245
 6628TIP3    H141519   2.839   3.278   0.274 -0.0515  0.0579 -0.9284
 6628TIP3    H241520   2.744   3.288   0.157 -2.2569 -2.0298  0.5829
 6629TIP3   OH241521   4.437   3.295   6.445  0.3986  0.8510 -0.3801
 6629TIP3    H141522   4.431   3.229   6.514  0.2615 -0.9948 -2.0575
 6629TIP3    H241523   4.396   3.373   6.482 -1.1212 -0.5528  1.0414
 6630TIP3   OH241524   2.296   5.928   0.190 -0.1752 -0.3182  0.3032
 6630TIP3    H141525   2.359   5.984   0.234  1.6329 -0.5645 -1.8126
 6630TIP3    H241526   2.339   5.842   0.186 -0.0265 -0.1744 -2.3356
 6631TIP3   OH241527   5.020   1.762   7.488 -0.2152  0.6231 -0.2268
 6631TIP3    H141528   5.071   1.840   7.466 -2.0152  1.5550 -1.3430
 6631TIP3    H241529   4.990   1.728   7.404 -1.8961  0.4681  0.3861
 6632TIP3   OH241530   5.528   6.131   8.288  0.4129 -0.1151 -0.1196
 6632TIP3    H141531   5.449   6.103   8.242  0.4253  0.0309 -0.2286
 6632TIP3    H241532   5.582   6.052   8.295  1.6297  0.3780 -2.7270
 6633TIP3   OH241533   3.306   2.226   6.829 -0.4369 -0.2452 -0.1540
 6633TIP3    H141534   3.246   2.286   6.874  1.8735  1.5148  0.7627
 6633TIP3    H241535   3.320   2.267   6.743  0.9114  0.4324  0.3603
 6634TIP3   OH241536   6.382   2.958   2.061  0.1415  0.8410  0.1350
 6634TIP3    H141537   6.428   2.884   2.022 -0.6557 -1.3654  3.0091
 6634TIP3    H241538   6.292   2.949   2.031 -0.0701  0.2660  0.9020
 6635TIP3   OH241539   0.668   5.949   6.952  0.2434 -0.5059 -0.2307
 6635TIP3    H141540   0.623   6.033   6.964  1.5531  0.1825  0.1201
 6635TIP3    H241541   0.761   5.973   6.942  0.4722 -1.8021 -1.6877
 6636TIP3   OH241542   1.543   6.119   1.141 -0.2610  0.5704 -0.1005
 6636TIP3    H141543   1.579   6.042   1.185 -2.3141 -0.0056  0.6754
 6636TIP3    H241544   1.613   6.147   1.081  1.0127 -1.1165  0.5103
 6637TIP3   OH241545   3.864   5.395   1.870  0.0531 -0.1107  0.0623
 6637TIP3    H141546   3.841   5.481   1.906 -0.7059 -0.2057 -0.1756
 6637TIP3    H241547   3.782   5.345   1.875  0.3619 -0.6497 -0.2854
 6638TIP3   OH241548   4.954   0.638   6.636  0.5235  0.0688 -0.6089
 6638TIP3    H141549   4.960   0.723   6.680  3.4057 -0.3958  0.0517
 6638TIP3    H241550   5.021   0.642   6.568  0.3251 -1.4900 -0.9253
 6639TIP3   OH241551   2.606   5.045   1.306  0.5036 -0.1837 -0.1461
 6639TIP3    H141552   2.564   5.008   1.384 -0.0607  0.0071 -0.3501
 6639TIP3    H241553   2.656   4.972   1.268  1.9713  0.0914  1.1765
 6640TIP3   OH241554   4.515   2.236   0.691 -0.0044  0.1422  0.1555
 6640TIP3    H141555   4.432   2.200   0.723  0.4343 -0.8646  0.2203
 6640TIP3    H241556   4.581   2.202   0.752  0.5190  0.4486 -0.2307
 6641TIP3   OH241557   5.581   6.564   7.293  0.3885 -0.1815  0.4374
 6641TIP3    H141558   5.490   6.564   7.262  0.5679  0.5726 -0.1217
 6641TIP3    H241559   5.574   6.586   7.386 -0.0873 -1.5114  0.7396
 6642TIP3   OH241560   3.243   1.998   7.718  0.1816  0.1144  0.2918
 6642TIP3    H141561   3.271   1.955   7.637  0.0045  1.1111 -0.3036
 6642TIP3    H241562   3.165   2.048   7.694 -1.3922 -1.4996  1.6147
 6643TIP3   OH241563   0.009   0.193   1.404 -0.0141  0.0839 -0.0280
 6643TIP3    H141564  -0.020   0.284   1.411  0.3693  0.2069  0.0237
 6643TIP3    H241565  -0.062   0.142   1.443 -0.0527  0.3958  0.3203
 6644TIP3   OH241566   0.229   4.329   0.790  0.0108 -0.2738 -0.0810
 6644TIP3    H141567   0.280   4.253   0.817 -2.0362 -1.3071  1.1141
 6644TIP3    H241568   0.202   4.370   0.873  0.4563  1.3702 -0.7020
 6645TIP3   OH241569   6.768   0.424   0.367  0.5940  0.5750 -0.5647
 6645TIP3    H141570   6.714   0.394   0.295 -0.4124 -0.1377  0.4604
 6645TIP3    H241571   6.785   0.346   0.419 -0.9662  1.4693  1.4314
 6646TIP3   OH241572   1.930   2.950   1.779 -0.1187 -0.0528  0.3293
 6646TIP3    H141573   1.967   2.868   1.811 -2.8378 -1.3592  0.4351
 6646TIP3    H241574   1.836   2.933   1.774 -0.7692  3.0479  0.2144
 6647TIP3   OH241575   2.837   2.976   8.229 -0.5250 -0.0346 -0.4695
 6647TIP3    H141576   2.806   3.066   8.215 -1.5577 -0.4894 -1.1848
 6647TIP3    H241577   2.864   2.975   8.321  1.3543  1.5273 -0.9320
 6648TIP3   OH241578   1.120   4.010   0.049 -0.5617 -0.0710  0.1039
 6648TIP3    H141579   1.066   3.931   0.040  0.8166 -0.8001 -5.3088
 6648TIP3    H241580   1.209   3.982   0.028  0.6521  2.4254  1.3543
 6649TIP3   OH241581   2.883   6.151   7.142 -0.3103  0.0119 -0.2740
 6649TIP3    H141582   2.869   6.065   7.103 -0.6713 -0.9060  1.7451
 6649TIP3    H241583   2.973   6.174   7.119 -0.3638 -0.7001 -1.2054
 6650TIP3   OH241584   5.270   6.132   6.444  0.0677  0.2834 -0.0619
 6650TIP3    H141585   5.272   6.039   6.468 -1.0341  0.1657 -0.3773
 6650TIP3    H241586   5.178   6.149   6.422  0.2925  1.4077 -0.1733
 6651TIP3   OH241587   6.839   5.010   0.659 -0.5282 -0.2808  0.2934
 6651TIP3    H141588   6.835   5.050   0.572 -0.5872 -1.9421 -0.5082
 6651TIP3    H241589   6.779   4.936   0.654  0.5719 -1.2778  1.2765
 6652TIP3   OH241590   2.432   3.731   8.337 -0.0561  0.3978 -0.1256
 6652TIP3    H141591   2.499   3.767   8.279 -0.9276  1.6014 -0.4337
 6652TIP3    H241592   2.381   3.807   8.366 -0.8605 -0.3979  0.6590
 6653TIP3   OH241593   3.842   3.980   0.501  0.0425 -0.0564 -0.2231
 6653TIP3    H141594   3.783   3.962   0.428  0.0955 -0.7551 -0.1020
 6653TIP3    H241595   3.912   4.032   0.464  0.1203 -0.4889 -0.6918
 6654TIP3   OH241596   0.052   0.740   1.992  0.0391  0.1981 -0.6473
 6654TIP3    H141597   0.077   0.664   2.045 -0.5655  0.0168 -0.6210
 6654TIP3    H241598   0.079   0.717   1.903 -0.4380 -0.1806 -0.6929
 6655TIP3   OH241599   5.543   5.269   1.532  0.1517 -0.4079  0.3431
 6655TIP3    H141600   5.526   5.321   1.454  2.1638 -1.6343 -1.0144
 6655TIP3    H241601   5.632   5.293   1.558  1.2683 -3.1955 -0.4866
 6656TIP3   OH241602   4.035   2.133   7.695 -0.1890  0.5037  0.7523
 6656TIP3    H141603   4.054   2.051   7.649 -0.4539  0.7694  0.1508
 6656TIP3    H241604   4.117   2.183   7.690 -0.1939  0.5000  0.6294
 6657TIP3   OH241605   3.275   4.754   7.679 -0.3545 -0.7095  0.4123
 6657TIP3    H141606   3.190   4.736   7.639  0.3507 -1.2868 -0.8732
 6657TIP3    H241607   3.315   4.668   7.690  0.7548 -0.3447 -0.5990
 6658TIP3   OH241608   0.647   4.953   6.310  0.1574 -0.5351 -0.4260
 6658TIP3    H141609   0.662   4.869   6.355  1.1260  0.2503  0.8004
 6658TIP3    H241610   0.556   4.975   6.330  0.1548 -0.8903 -0.0239
 6659TIP3   OH241611   4.771   2.578   7.931 -0.1130 -0.1089  0.0647
 6659TIP3    H141612   4.809   2.534   7.855 -0.0278  0.7832 -0.4261
 6659TIP3    H241613   4.692   2.620   7.897  0.8163  1.7254  0.0445
 6660TIP3   OH241614   6.131   1.304   2.059  0.6957 -0.7447  0.2049
 6660TIP3    H141615   6.142   1.326   2.151  1.8941  0.8481 -0.2625
 6660TIP3    H241616   6.088   1.219   2.059  0.0202 -0.4570  2.2181
 6661TIP3   OH241617   1.741   2.392   7.789  0.3806  0.1731  0.5829
 6661TIP3    H141618   1.668   2.403   7.850 -0.5399  2.2093 -0.7482
 6661TIP3    H241619   1.707   2.334   7.721 -0.4081  1.8001 -0.4912
 6662TIP3   OH241620   2.598   5.525   1.486  0.0489  0.4391  0.4296
 6662TIP3    H141621   2.692   5.506   1.489 -0.0301 -0.5217 -1.5096
 6662TIP3    H241622   2.564   5.467   1.418 -2.0205  0.5491  1.2967
 6663TIP3   OH241623   5.838   4.435   2.070 -0.1746 -0.0435 -0.7055
 6663TIP3    H141624   5.825   4.492   2.146  0.7764  1.0312 -1.3172
 6663TIP3    H241625   5.775   4.365   2.082 -1.0646  0.8890  0.3227
 6664TIP3   OH241626   2.737   3.629   0.752  0.2361  0.0645 -0.0528
 6664TIP3    H141627   2.657   3.630   0.806  0.0890 -1.9540 -0.1315
 6664TIP3    H241628   2.806   3.603   0.813  0.4380 -0.2439 -0.4128
 6665TIP3   OH241629   5.630   5.895   5.989  0.0876  0.1691  0.7257
 6665TIP3    H141630   5.581   5.889   6.071 -0.7453 -2.1364  0.1385
 6665TIP3    H241631   5.563   5.907   5.922  0.8166  2.9649  0.3606
 6666TIP3   OH241632   1.347   2.186   7.260  0.0804 -0.1371  0.0588
 6666TIP3    H141633   1.348   2.224   7.348  1.3075 -1.1248  0.5035
 6666TIP3    H241634   1.258   2.202   7.228 -0.0576  1.2090  1.0364
 6667TIP3   OH241635   0.165   4.047   2.390  0.0694 -0.1044 -0.2376
 6667TIP3    H141636   0.086   4.034   2.338  0.1076 -0.7003 -0.1527
 6667TIP3    H241637   0.234   4.001   2.342  0.4427  0.7104 -0.4941
 6668TIP3   OH241638   1.227   0.612   6.661 -0.3879 -0.2021  0.3285
 6668TIP3    H141639   1.267   0.526   6.650 -1.0111 -0.2800 -1.5521
 6668TIP3    H241640   1.194   0.612   6.751  0.6383 -1.4733  0.7307
 6669TIP3   OH241641   3.688   5.054   8.415  0.0360  0.0113  0.1098
 6669TIP3    H141642   3.725   4.999   8.485  1.8600  1.2828  0.1975
 6669TIP3    H241643   3.667   4.992   8.345  1.2607 -0.9139  0.5241
 6670TIP3   OH241644   2.209   4.714   2.667 -0.1524 -0.1953 -0.2356
 6670TIP3    H141645   2.266   4.790   2.656 -0.8269  0.2469 -0.7124
 6670TIP3    H241646   2.270   4.642   2.686  0.5260  0.3651 -0.2166
 6671TIP3   OH241647   1.538   3.848   0.342 -0.2330  0.3981 -0.0958
 6671TIP3    H141648   1.630   3.827   0.354 -0.6170 -1.4459 -0.0316
 6671TIP3    H241649   1.510   3.793   0.269 -1.4215  0.4751  0.2813
 6672TIP3   OH241650   0.009   2.756   6.667 -0.6684 -0.1010 -0.6656
 6672TIP3    H141651   0.063   2.733   6.592 -0.9537 -0.9576 -0.6268
 6672TIP3    H241652  -0.049   2.680   6.679 -1.0374  0.2759  0.0446
 6673TIP3   OH241653   3.912   4.972   0.480  0.1187  1.1705  0.0711
 6673TIP3    H141654   3.899   4.931   0.394  0.8984  1.4007 -0.1668
 6673TIP3    H241655   3.976   4.915   0.523 -0.1743  1.1291  0.4539
 6674TIP3   OH241656   0.070   1.307   7.674 -0.0817 -0.2974 -0.3876
 6674TIP3    H141657  -0.009   1.256   7.658  0.2467 -0.3829 -1.9056
 6674TIP3    H241658   0.041   1.398   7.675 -0.4925 -0.4151  1.1796
 6675TIP3   OH241659   0.494   5.975   5.991 -0.3101 -0.0360  0.6309
 6675TIP3    H141660   0.408   5.952   6.027 -0.2227 -0.7874  0.3665
 6675TIP3    H241661   0.517   5.903   5.933  0.8576 -0.2281  1.3002
 6676TIP3   OH241662   4.721   0.067   2.067  0.1596  0.4464  0.5688
 6676TIP3    H141663   4.648   0.011   2.095 -0.3813  0.5252 -0.6385
 6676TIP3    H241664   4.772   0.011   2.007  0.7638  0.5913  0.9378
 6677TIP3   OH241665   2.458   3.441   0.229  0.2472 -0.1271 -0.1426
 6677TIP3    H141666   2.426   3.351   0.237 -0.7495 -0.0149 -2.0389
 6677TIP3    H241667   2.463   3.456   0.134  0.8483  1.6626  0.1276
 6678TIP3   OH241668   1.760   1.567   7.919 -0.2926  0.3507 -0.3441
 6678TIP3    H141669   1.785   1.562   8.011 -1.7828 -0.5172  0.0418
 6678TIP3    H241670   1.748   1.661   7.903  1.3192  0.6392 -0.0699
 6679TIP3   OH241671   5.236   1.581   0.672  0.6189  0.3955  0.3329
 6679TIP3    H141672   5.197   1.520   0.735  0.1573  0.0355 -0.2948
 6679TIP3    H241673   5.328   1.588   0.699  1.1879 -2.0907 -0.6896
 6680TIP3   OH241674   4.618   3.637   7.218  0.1988 -0.1798 -0.1388
 6680TIP3    H141675   4.592   3.551   7.185 -0.4749  0.0200 -0.1410
 6680TIP3    H241676   4.690   3.663   7.161  0.3369 -0.6984 -0.2033
 6681TIP3   OH241677   2.730   4.584   8.536 -0.3906  0.4697  0.0994
 6681TIP3    H141678   2.644   4.617   8.562 -0.2200 -0.7034  2.4166
 6681TIP3    H241679   2.711   4.502   8.489 -0.5580 -0.1392  1.1931
 6682TIP3   OH241680   0.046   0.676   7.003  0.4937  0.5575 -0.0143
 6682TIP3    H141681  -0.025   0.720   7.049  0.4683  1.5285 -0.9649
 6682TIP3    H241682   0.070   0.603   7.061 -1.4324  0.0510  0.2056
 6683TIP3   OH241683   6.586   0.667   7.562  0.3472  0.1634 -0.4464
 6683TIP3    H141684   6.564   0.730   7.630  0.1447  0.3971 -0.7235
 6683TIP3    H241685   6.503   0.622   7.543  0.8689 -1.5962  1.1468
 6684TIP3   OH241686   0.812   1.676   0.110 -0.3707 -0.1616  0.5733
 6684TIP3    H141687   0.720   1.676   0.134 -1.2883 -0.8355 -2.4669
 6684TIP3    H241688   0.837   1.584   0.108 -0.6254 -0.2384 -1.6526
 6685TIP3   OH241689   6.849   6.606   0.732 -0.3898 -0.5253  0.2336
 6685TIP3    H141690   6.869   6.585   0.640  0.8562 -0.9628  0.5874
 6685TIP3    H241691   6.789   6.536   0.760 -0.8834 -0.3159 -0.2777
 6686TIP3   OH241692   4.690   0.578   8.198 -0.3096 -0.0777 -0.1918
 6686TIP3    H141693   4.676   0.486   8.222  1.4421  0.1219  1.9512
 6686TIP3    H241694   4.668   0.582   8.105 -0.1603 -2.7273 -0.4254
 6687TIP3   OH241695   0.376   6.344   6.876  0.1746 -0.2277 -0.4125
 6687TIP3    H141696   0.414   6.427   6.848 -1.2532  0.4376 -0.4818
 6687TIP3    H241697   0.368   6.292   6.796  0.9648 -0.4059 -0.3855
 6688TIP3   OH241698   4.988   1.233   7.193  0.0299 -0.2579  0.2358
 6688TIP3    H141699   4.914   1.247   7.134 -0.6659 -0.8257  0.9636
 6688TIP3    H241700   5.022   1.148   7.168 -0.3776 -0.5797  0.7687
 6689TIP3   OH241701   5.317   0.974   1.750 -0.1599  0.0954  0.0875
 6689TIP3    H141702   5.221   0.971   1.755 -0.1101 -0.0821  1.1302
 6689TIP3    H241703   5.343   0.885   1.725 -0.1808 -0.4563  1.8830
 6690TIP3   OH241704   4.337   0.515   7.589  0.0174  0.5467 -0.9030
 6690TIP3    H141705   4.369   0.598   7.623  0.9260 -0.0440 -0.2664
 6690TIP3    H241706   4.250   0.535   7.554 -1.1862  1.1637  2.1096
 6691TIP3   OH241707   1.304   6.529   1.986  0.2331 -0.1038  0.0478
 6691TIP3    H141708   1.360   6.493   1.918  0.5945 -1.2692  0.9333
 6691TIP3    H241709   1.281   6.454   2.041 -0.9642  0.6145  0.5673
 6692TIP3   OH241710   4.263   1.141   1.184 -0.0546  0.1250  0.3028
 6692TIP3    H141711   4.250   1.170   1.274  0.3479  1.8059 -0.1347
 6692TIP3    H241712   4.270   1.223   1.133 -0.1382 -0.7759 -1.2265
 6693TIP3   OH241713   0.324   6.770   6.604 -0.4020 -0.8272 -0.6130
 6693TIP3    H141714   0.329   6.809   6.691 -2.7591 -0.9925 -0.3506
 6693TIP3    H241715   0.240   6.800   6.569  0.9576  0.1738 -3.3188
 6694TIP3   OH241716   3.140   2.863   6.728  0.2102  0.3657  0.3756
 6694TIP3    H141717   3.107   2.795   6.786  2.6171 -2.4292 -1.2486
 6694TIP3    H241718   3.088   2.854   6.648  1.4622 -0.6304 -0.3628
 6695TIP3   OH241719   2.853   5.584   8.489  0.2734  0.5913  0.0284
 6695TIP3    H141720   2.881   5.528   8.561  0.9108 -1.2530 -1.5782
 6695TIP3    H241721   2.772   5.544   8.457 -0.5753  1.9888  0.3296
 6696TIP3   OH241722   0.611   1.449   6.787  0.4889 -0.0830 -0.3661
 6696TIP3    H141723   0.645   1.360   6.783  0.9037  0.1004 -1.0887
 6696TIP3    H241724   0.680   1.503   6.749 -0.4845  0.3328 -1.6120
 6697TIP3   OH241725   0.522   1.506   7.944  0.0797 -0.3645  0.1264
 6697TIP3    H141726   0.546   1.530   7.854 -1.6028  1.0971  0.0094
 6697TIP3    H241727   0.447   1.448   7.935  1.4821 -2.3668  0.5765
 6698TIP3   OH241728   6.612   1.854   6.875  0.4254  0.1791  0.5904
 6698TIP3    H141729   6.668   1.874   6.950 -0.2524  0.0203  1.1425
 6698TIP3    H241730   6.668   1.802   6.817  0.8198 -0.0644  1.1818
 6699TIP3   OH241731   4.013   0.169   6.637  0.3917 -0.1257 -0.3754
 6699TIP3    H141732   3.946   0.194   6.574  0.7012  0.2583 -0.5579
 6699TIP3    H241733   4.059   0.096   6.595  0.5536  0.0848 -0.5669
 6700TIP3   OH241734   4.022   0.624   6.972  0.0642 -0.1514 -0.7583
 6700TIP3    H141735   4.040   0.654   6.883  0.2150 -0.5056 -0.8503
 6700TIP3    H241736   3.989   0.701   7.018  1.6805  0.5007 -0.6261
 6701TIP3   OH241737   2.547   4.469   7.250  0.3724 -0.0735  1.0846
 6701TIP3    H141738   2.643   4.462   7.250  0.7362  2.5033 -2.3414
 6701TIP3    H241739   2.528   4.540   7.311  0.8666  0.8630  0.1610
 6702TIP3   OH241740   0.071   4.577   7.386  0.6151 -0.4020 -0.6012
 6702TIP3    H141741   0.046   4.604   7.298  0.3925  0.9542 -0.1376
 6702TIP3    H241742   0.122   4.650   7.420  2.3987 -1.7118 -0.3019
 6703TIP3   OH241743   2.513   1.072   0.726  0.3098 -0.4853 -0.1614
 6703TIP3    H141744   2.477   1.086   0.813 -0.3131 -0.4647 -0.4108
 6703TIP3    H241745   2.495   1.153   0.679  0.8357 -0.4152 -0.2480
 6704TIP3   OH241746   6.571   2.329   1.108 -0.4038 -0.0819  0.8540
 6704TIP3    H141747   6.494   2.380   1.083 -1.1094 -1.3122  0.4278
 6704TIP3    H241748   6.643   2.369   1.059 -0.6185  1.4936  1.7579
 6705TIP3   OH241749   4.782   6.212   7.329  0.0599 -0.6162  0.6102
 6705TIP3    H141750   4.716   6.272   7.295 -0.4268 -1.1513  0.5851
 6705TIP3    H241751   4.836   6.190   7.253 -0.8550 -1.5908  0.2051
 6706TIP3   OH241752   5.772   1.334   8.445  0.0833  0.4129 -0.0361
 6706TIP3    H141753   5.792   1.275   8.372  2.3802  2.4245 -1.1982
 6706TIP3    H241754   5.712   1.399   8.406 -0.4350  0.2744  0.5195
 6707TIP3   OH241755   1.228   1.754   8.084  0.0799 -0.2611  0.6705
 6707TIP3    H141756   1.204   1.783   8.172  0.7429 -0.2979  0.8695
 6707TIP3    H241757   1.283   1.677   8.098  1.5284  0.6676  0.2994
 6708TIP3   OH241758   4.521   4.709   1.023 -0.1660  0.3089 -0.3089
 6708TIP3    H141759   4.529   4.645   0.953 -1.7973 -0.4980  0.1873
 6708TIP3    H241760   4.473   4.782   0.984 -0.2527  0.2592 -0.2969
 6709TIP3   OH241761   5.843   6.202   7.118 -0.3744 -0.0089 -0.4118
 6709TIP3    H141762   5.821   6.276   7.176  0.9204  0.9829 -1.1397
 6709TIP3    H241763   5.918   6.160   7.160  0.8428  0.9677 -1.5276
 6710TIP3   OH241764   0.566   1.004   7.481 -0.1104  0.5554  0.3179
 6710TIP3    H141765   0.550   0.967   7.394 -1.2029  1.4639  0.1161
 6710TIP3    H241766   0.532   0.939   7.542 -0.0524  0.2657  0.0442
 6711TIP3   OH241767   0.921   6.075   6.530  0.2467  0.2628  0.7228
 6711TIP3    H141768   0.860   6.031   6.471  2.1768 -1.8408  0.1798
 6711TIP3    H241769   0.883   6.162   6.542 -1.3451  0.0337 -1.8533
 6712TIP3   OH241770   3.352   0.091   1.222 -0.1646 -0.8740 -0.5158
 6712TIP3    H141771   3.259   0.070   1.221  0.1559 -2.4460 -0.9571
 6712TIP3    H241772   3.394   0.010   1.252  0.9720  0.2725  1.2256
 6713TIP3   OH241773   4.547   6.125   1.519 -0.0881 -0.3880 -0.1563
 6713TIP3    H141774   4.596   6.059   1.470 -0.4085 -1.1156  0.4857
 6713TIP3    H241775   4.471   6.078   1.553  0.2531  0.0328  1.2356
 6714TIP3   OH241776   4.505   2.643   7.920 -0.4124  0.9964 -0.1098
 6714TIP3    H141777   4.506   2.706   7.992  0.4521  0.3617  0.4515
 6714TIP3    H241778   4.447   2.682   7.855 -1.2257  1.5714  0.9365
 6715TIP3   OH241779   1.438   3.676   0.582 -0.4080  0.2648 -0.6437
 6715TIP3    H141780   1.432   3.771   0.584  0.7089  0.3449  0.0032
 6715TIP3    H241781   1.451   3.654   0.490 -0.6332  0.7453 -0.7888
 6716TIP3   OH241782   2.056   6.136   0.802 -0.5239  1.0892  0.9030
 6716TIP3    H141783   2.124   6.105   0.742  0.2519  2.6102  0.9211
 6716TIP3    H241784   2.074   6.091   0.884  0.5279  1.5073  0.9195
 6717TIP3   OH241785   0.978   5.885   7.641 -0.1606 -0.0648 -0.5894
 6717TIP3    H141786   0.884   5.883   7.624 -0.1702 -1.0097 -0.4371
 6717TIP3    H241787   1.015   5.824   7.577  0.2909 -0.1177 -0.2828
 6718TIP3   OH241788   2.391   5.426   6.467 -0.0515  0.3363  0.1232
 6718TIP3    H141789   2.425   5.391   6.385  0.7942  2.5341 -0.5271
 6718TIP3    H241790   2.299   5.444   6.449 -0.2794 -0.6413  0.2041
 6719TIP3   OH241791   1.870   0.892   0.603 -0.1017 -0.1335  0.3982
 6719TIP3    H141792   1.858   0.798   0.598  0.3525 -0.1741 -0.0032
 6719TIP3    H241793   1.963   0.906   0.584 -0.3484  0.4620 -0.4085
 6720TIP3   OH241794   3.733   0.584   7.497  0.3018  0.3898  0.0634
 6720TIP3    H141795   3.668   0.572   7.566 -0.0800  0.1382 -0.3367
 6720TIP3    H241796   3.797   0.514   7.512  0.9862  1.1803  1.0057
 6721TIP3   OH241797   2.912   4.440   8.657  0.0500 -0.6300  0.0184
 6721TIP3    H141798   2.974   4.441   8.585 -1.0246 -1.0316 -0.9417
 6721TIP3    H241799   2.849   4.509   8.636  1.6760  1.8625  2.4355
 6722TIP3   OH241800   6.660   5.304   0.237  0.0034  0.2863 -0.0791
 6722TIP3    H141801   6.671   5.399   0.241  1.5509  0.1287  0.1051
 6722TIP3    H241802   6.698   5.279   0.153 -1.2164 -0.0902 -0.5354
 6723TIP3   OH241803   4.763   2.842   0.564 -0.1478  0.5597  0.1502
 6723TIP3    H141804   4.784   2.933   0.544 -0.1846  0.6042  0.3118
 6723TIP3    H241805   4.671   2.844   0.590  0.0229  0.5747  0.7765
 6724TIP3   OH241806   2.025   2.278   7.549 -0.4714 -0.5764 -0.1137
 6724TIP3    H141807   1.954   2.232   7.594  0.8297 -1.6392  0.9501
 6724TIP3    H241808   2.102   2.223   7.563  0.9333  1.3679  0.2086
 6725TIP3   OH241809   5.213   4.868   7.716 -0.0316 -0.6746 -0.3479
 6725TIP3    H141810   5.208   4.936   7.783 -1.2672 -0.3274 -0.7531
 6725TIP3    H241811   5.122   4.849   7.695  0.3086 -2.1687 -0.5545
 6726TIP3   OH241812   4.364   3.254   0.530 -0.3416 -0.2671  0.0146
 6726TIP3    H141813   4.432   3.315   0.502  0.2072 -1.2667 -0.9074
 6726TIP3    H241814   4.325   3.294   0.608 -1.8404  2.5977 -2.0389
 6727TIP3   OH241815   3.813   3.373   1.307  0.2927 -0.4335 -0.0053
 6727TIP3    H141816   3.846   3.372   1.397 -1.3345  1.7104  0.7034
 6727TIP3    H241817   3.734   3.320   1.310  0.3569 -0.5466 -0.2554
 6728TIP3   OH241818   3.549   3.307   1.008  0.3091  0.0477 -0.0668
 6728TIP3    H141819   3.571   3.344   0.922 -2.7848  1.8140 -0.2275
 6728TIP3    H241820   3.548   3.382   1.067 -1.3288 -0.5215  0.6788
 6729TIP3   OH241821   1.547   0.799   8.060 -0.3088  0.6280 -0.0362
 6729TIP3    H141822   1.486   0.796   7.986 -3.2372  0.7469  2.1827
 6729TIP3    H241823   1.569   0.708   8.077 -1.0765  0.4367  0.0024
 6730TIP3   OH241824   1.039   5.065   8.259 -0.6165 -0.0117 -0.2338
 6730TIP3    H141825   1.049   4.976   8.225 -1.3871 -0.1767 -0.0422
 6730TIP3    H241826   1.013   5.116   8.183 -4.1610 -0.7226  0.3656
 6731TIP3   OH241827   3.159   1.648   1.699  0.1208  0.0319 -0.2069
 6731TIP3    H141828   3.066   1.627   1.701 -0.2982  1.6889 -0.5171
 6731TIP3    H241829   3.163   1.741   1.722  1.7896 -0.2248  0.7111
 6732TIP3   OH241830   5.249   6.606   6.195 -0.0960 -0.3399 -0.5622
 6732TIP3    H141831   5.179   6.657   6.155 -0.6734 -1.6867 -1.3332
 6732TIP3    H241832   5.323   6.615   6.135 -0.0394 -0.0272 -0.4468
 6733TIP3   OH241833   4.718   4.952   7.462  0.5100  0.1479  0.1834
 6733TIP3    H141834   4.782   4.980   7.396  1.2022  0.1661  0.8428
 6733TIP3    H241835   4.656   4.898   7.414 -0.0492  1.6494 -0.8439
 6734TIP3   OH241836   1.913   6.763   8.152 -0.1749 -0.1669  0.2034
 6734TIP3    H141837   1.836   6.750   8.207 -0.3154 -0.5083 -0.0709
 6734TIP3    H241838   1.926   6.679   8.108  0.0881  0.0253 -0.0923
 6735TIP3   OH241839   5.246   4.484   7.019  0.4445  0.1314 -0.1363
 6735TIP3    H141840   5.262   4.392   7.039  1.4578  0.0358 -1.2865
 6735TIP3    H241841   5.281   4.496   6.931 -0.6656  1.3646 -0.4316
 6736TIP3   OH241842   6.401   2.148   7.879  0.4747 -0.2362 -0.2151
 6736TIP3    H141843   6.353   2.197   7.813  0.1543  0.9383  0.8490
 6736TIP3    H241844   6.377   2.189   7.962  0.9319 -1.6104  0.6404
 6737TIP3   OH241845   5.210   2.983   8.038 -0.0190  0.0698 -0.7734
 6737TIP3    H141846   5.264   3.063   8.040 -0.0636  0.1746 -2.6057
 6737TIP3    H241847   5.120   3.015   8.034 -0.0860 -0.0846 -0.5240
 6738TIP3   OH241848   5.249   1.701   0.960  0.9145 -0.1950  0.5975
 6738TIP3    H141849   5.320   1.646   0.927  0.6506 -0.2020  0.0311
 6738TIP3    H241850   5.235   1.766   0.892 -1.8103 -2.1186 -0.8760
 6739TIP3   OH241851   4.331   3.045   7.638 -0.6695 -0.9691 -0.0765
 6739TIP3    H141852   4.333   3.067   7.545  1.4938 -1.8673 -0.2906
 6739TIP3    H241853   4.412   3.082   7.673 -0.3021 -2.6568  0.9510
 6740TIP3   OH241854   1.350   0.796   6.506 -0.3957 -0.1768 -0.3876
 6740TIP3    H141855   1.386   0.864   6.563 -0.3969  2.0047 -2.8228
 6740TIP3    H241856   1.300   0.740   6.566  0.1878  1.5131  1.8511
 6741TIP3   OH241857   4.661   2.439   8.569 -0.0237 -0.2413 -0.3266
 6741TIP3    H141858   4.626   2.527   8.571 -0.8391 -0.5586  1.4383
 6741TIP3    H241859   4.755   2.451   8.557  0.4180  1.1341  3.2531
 6742TIP3   OH241860   3.134   3.425   6.967  0.0295 -0.1686  0.4107
 6742TIP3    H141861   3.183   3.373   7.030 -1.1987 -0.6551  0.9860
 6742TIP3    H241862   3.089   3.360   6.912  0.4963  0.2589 -0.4934
 6743TIP3   OH241863   0.053   1.842   0.010 -0.3065 -0.0303 -0.4984
 6743TIP3    H141864   0.139   1.807  -0.012  0.0994  0.6921 -0.0981
 6743TIP3    H241865   0.013   1.774   0.064 -0.6174 -1.0453 -1.9399
 6744TIP3   OH241866   4.346   2.955   0.475  0.0751 -0.4779 -0.3378
 6744TIP3    H141867   4.259   2.947   0.435  0.5139 -0.3415 -1.3504
 6744TIP3    H241868   4.358   3.049   0.489 -0.0504 -0.5200  0.0563
 6745TIP3   OH241869   4.409   2.485   7.463  0.5443  0.5037  0.4218
 6745TIP3    H141870   4.409   2.390   7.465 -0.9135  0.4711 -0.0588
 6745TIP3    H241871   4.471   2.510   7.532 -1.7536 -0.7898  3.1688
 6746TIP3   OH241872   0.894   5.679   0.119 -0.5231 -0.3229 -0.2310
 6746TIP3    H141873   0.815   5.659   0.169  0.4806 -0.4241  1.3888
 6746TIP3    H241874   0.966   5.645   0.173  0.6675  0.2096 -1.4173
 6747TIP3   OH241875   0.584   4.484   7.029 -0.6044 -0.1951 -0.1599
 6747TIP3    H141876   0.535   4.416   6.984 -1.4729  0.1531  0.2440
 6747TIP3    H241877   0.663   4.496   6.976 -2.7477  2.0730 -3.1586
 6748TIP3   OH241878   3.002   2.932   1.132  0.1795  0.3331 -0.0719
 6748TIP3    H141879   3.069   2.996   1.157  0.4465 -0.2147  0.6092
 6748TIP3    H241880   3.016   2.858   1.190  1.0396 -1.1328 -2.0463
 6749TIP3   OH241881   5.285   2.342   0.830 -0.4357  0.3533  0.1206
 6749TIP3    H141882   5.335   2.288   0.768  0.0419  0.5295  0.3477
 6749TIP3    H241883   5.280   2.427   0.788  1.3143  0.9522  1.0264
 6750TIP3   OH241884   3.501   4.846   6.809  0.1156 -0.0952 -0.0669
 6750TIP3    H141885   3.520   4.830   6.716 -0.0253 -2.6301  0.2456
 6750TIP3    H241886   3.436   4.779   6.832  1.2041 -0.4920  2.1788
 6751TIP3   OH241887   2.734   3.257   0.973 -0.1180  0.5790  0.0408
 6751TIP3    H141888   2.791   3.332   0.954  1.2745 -0.1726  1.0159
 6751TIP3    H241889   2.652   3.295   1.003  0.8617  1.7529  1.3882
 6752TIP3   OH241890   2.287   5.586   7.874 -0.3240 -0.3039  0.2739
 6752TIP3    H141891   2.374   5.602   7.911  0.3340  1.0390 -1.7122
 6752TIP3    H241892   2.301   5.518   7.808 -1.4747 -2.6256  2.2697
 6753TIP3   OH241893   4.306   3.657   1.413 -0.2063 -0.4197  0.0273
 6753TIP3    H141894   4.369   3.633   1.482  0.3631 -0.4759 -0.5094
 6753TIP3    H241895   4.227   3.607   1.436 -0.0349 -0.4208  0.6540
 6754TIP3   OH241896   0.102   1.508   8.090 -0.9078  0.2847  0.8773
 6754TIP3    H141897   0.067   1.477   8.173 -2.1536  0.3887  0.4137
 6754TIP3    H241898   0.155   1.585   8.114  0.8980 -1.1783  1.8390
 6755TIP3   OH241899   1.271   6.199   0.761 -0.4362  0.5314 -0.0225
 6755TIP3    H141900   1.310   6.132   0.704 -1.0293 -1.7493  2.0521
 6755TIP3    H241901   1.180   6.204   0.733 -0.7125 -0.5446  0.6220
 6756TIP3   OH241902   4.733   6.324   1.151 -0.3123 -0.4091 -0.0884
 6756TIP3    H141903   4.809   6.303   1.206 -0.7067 -0.6610  0.3704
 6756TIP3    H241904   4.680   6.382   1.205 -1.6700 -2.1826  0.5975
 6757TIP3   OH241905   5.073   1.614   8.104  0.2011 -0.5240 -0.7000
 6757TIP3    H141906   5.005   1.592   8.040 -0.3492 -0.5250 -0.1237
 6757TIP3    H241907   5.100   1.703   8.081  0.4836 -0.7697 -1.3424
 6758TIP3   OH241908   1.711   6.349   0.326 -0.1140 -0.1519  0.0462
 6758TIP3    H141909   1.634   6.322   0.276 -0.4017  1.0765 -0.2124
 6758TIP3    H241910   1.679   6.365   0.415  0.0927 -0.8213  0.2478
 6759TIP3   OH241911   6.030   5.737   0.321 -0.1671  0.2109 -0.0039
 6759TIP3    H141912   5.962   5.676   0.349  0.0786  0.0168  0.1750
 6759TIP3    H241913   6.109   5.683   0.313  0.1504  0.5835  0.5567
 6760TIP3   OH241914   4.336   2.564   6.371 -0.5676 -0.2197  0.0085
 6760TIP3    H141915   4.329   2.638   6.312  0.9315  0.8314  1.0869
 6760TIP3    H241916   4.400   2.506   6.331 -0.5840 -0.1844 -0.0673
 6761TIP3   OH241917   5.059   0.255   8.077  0.5933  0.9187 -0.2800
 6761TIP3    H141918   5.058   0.318   8.148  2.0072 -0.4781  1.0706
 6761TIP3    H241919   5.152   0.238   8.061  0.3039 -1.4941  0.1045
 6762TIP3   OH241920   4.451   3.288   6.933  0.2155  0.5051  0.1685
 6762TIP3    H141921   4.403   3.212   6.965  1.2682  0.0661  0.7371
 6762TIP3    H241922   4.498   3.256   6.856 -0.4115  0.9448 -0.4115
 6763TIP3   OH241923   1.674   5.666   0.087 -0.1419 -0.1719  0.0938
 6763TIP3    H141924   1.734   5.592   0.088 -0.0979 -0.1314  0.6092
 6763TIP3    H241925   1.658   5.683  -0.006  0.8323 -0.0301 -0.0604
 6764TIP3   OH241926   2.999   5.230   7.386  0.1364  0.6087 -0.1358
 6764TIP3    H141927   2.938   5.301   7.370  0.6656  0.7647 -1.6044
 6764TIP3    H241928   2.969   5.190   7.468 -1.1442  1.4795 -0.1586
 6765TIP3   OH241929   4.595   2.908   7.595  0.0845  0.1870 -0.2014
 6765TIP3    H141930   4.613   2.968   7.523 -0.9423  2.3233  1.1957
 6765TIP3    H241931   4.543   2.960   7.657 -1.2599 -2.3027  0.9245
 6766TIP3   OH241932   1.908   6.119   8.556  0.3526 -0.5554  0.2383
 6766TIP3    H141933   1.880   6.077   8.637 -1.9286  1.9163  0.8966
 6766TIP3    H241934   1.844   6.090   8.491  1.1657 -1.2070 -0.2763
 6767TIP3   OH241935   3.433   4.271   7.854 -0.3598  0.2112  0.6796
 6767TIP3    H141936   3.513   4.237   7.814 -1.0572  0.8751 -1.3906
 6767TIP3    H241937   3.384   4.193   7.880 -1.0687 -0.4345 -2.2321
 6768TIP3   OH241938   0.918   3.764   8.134 -0.3224  0.2616 -0.6328
 6768TIP3    H141939   0.876   3.812   8.062 -2.7139  0.9089  1.0512
 6768TIP3    H241940   0.859   3.692   8.152  0.7641 -0.4850  0.0437
 6769TIP3   OH241941   6.695   6.550   1.203 -1.0824  0.2147  0.0668
 6769TIP3    H141942   6.774   6.496   1.195 -1.3864 -0.0874 -1.1818
 6769TIP3    H241943   6.703   6.592   1.288 -0.0481 -0.5638  0.3765
 6770TIP3   OH241944   5.359   3.325   6.896 -0.2760 -0.1144  0.0112
 6770TIP3    H141945   5.311   3.245   6.916 -0.4401  0.3818  1.7764
 6770TIP3    H241946   5.292   3.387   6.867  0.0007 -0.9299 -2.6141
 6771TIP3   OH241947   2.207   6.677   2.158  0.2299 -0.0645 -0.5114
 6771TIP3    H141948   2.158   6.608   2.114  1.6515 -2.7146  1.7164
 6771TIP3    H241949   2.291   6.681   2.112 -0.2829  1.0764 -1.3774
 6772TIP3   OH241950   2.040   3.938   5.927 -0.4420 -0.3289 -0.1488
 6772TIP3    H141951   2.099   3.945   6.002  0.7806 -0.3557 -1.0711
 6772TIP3    H241952   2.029   4.028   5.897 -2.0950 -0.1513  0.9031
 6773TIP3   OH241953   6.257   5.859   8.393  0.1862 -0.2224  0.4455
 6773TIP3    H141954   6.241   5.796   8.322  1.4292  0.2157 -0.2576
 6773TIP3    H241955   6.312   5.927   8.353  1.1032 -0.0773  1.8747
 6774TIP3   OH241956   5.142   4.374   1.137  0.1574 -0.3604  0.1008
 6774TIP3    H141957   5.102   4.409   1.217  0.9312 -0.1002  0.3865
 6774TIP3    H241958   5.235   4.392   1.148  0.2702 -0.3112 -0.8711
 6775TIP3   OH241959   3.160   6.889   7.142  0.3969  0.0277 -0.1407
 6775TIP3    H141960   3.233   6.834   7.170  0.6760  1.0321  1.1674
 6775TIP3    H241961   3.169   6.970   7.192 -1.1164  0.5234 -0.6011
 6776TIP3   OH241962   6.737   1.344   7.378 -0.1763  0.4442  0.5961
 6776TIP3    H141963   6.777   1.381   7.300  1.0286 -1.7163  0.1189
 6776TIP3    H241964   6.758   1.406   7.448  2.2398  0.4384 -0.0544
 6777TIP3   OH241965   3.482   1.429   7.250  0.5949 -0.1408 -0.1013
 6777TIP3    H141966   3.431   1.430   7.170  0.1860 -1.9157  0.1007
 6777TIP3    H241967   3.435   1.487   7.310  0.4104  0.4709 -0.8238
 6778TIP3   OH241968   6.086   2.028   1.735  0.7184 -0.1814 -0.0715
 6778TIP3    H141969   6.159   1.982   1.776  1.5614  1.9200  0.9528
 6778TIP3    H241970   6.118   2.051   1.648  0.4209 -1.1528 -0.4554
 6779TIP3   OH241971   5.009   6.149   6.358 -0.5473 -0.3256  0.1575
 6779TIP3    H141972   4.934   6.181   6.407 -0.5621 -1.0274  0.5977
 6779TIP3    H241973   4.974   6.127   6.272 -0.4023  1.5023 -0.4067
 6780TIP3   OH241974   1.159   6.491   0.640  0.3010 -0.3557 -0.4529
 6780TIP3    H141975   1.084   6.533   0.599  0.4492  0.4030  0.0313
 6780TIP3    H241976   1.128   6.403   0.663 -0.4123 -0.0818 -0.3332
 6781TIP3   OH241977   5.484   4.932   6.897  0.0173 -0.5812 -0.0899
 6781TIP3    H141978   5.540   4.860   6.926 -1.3800 -1.1035  1.5149
 6781TIP3    H241979   5.410   4.930   6.958  0.6913  3.2511  1.1350
 6782TIP3   OH241980   6.646   2.012   8.389  0.2344  0.5113 -0.5546
 6782TIP3    H141981   6.611   2.101   8.382 -1.6220 -0.1645 -0.5162
 6782TIP3    H241982   6.574   1.956   8.359  1.7356 -0.9350 -1.6295
 6783TIP3   OH241983   2.997   6.605   0.160  0.0944  0.0607  0.3792
 6783TIP3    H141984   2.986   6.519   0.200  0.4045 -0.0056  0.3259
 6783TIP3    H241985   3.076   6.640   0.202  0.8932 -0.3353 -0.7511
 6784TIP3   OH241986   3.107   4.361   7.637  1.2739 -0.0514  0.4353
 6784TIP3    H141987   3.091   4.439   7.583 -1.1067  0.1594  1.3463
 6784TIP3    H241988   3.113   4.394   7.726 -1.5276 -0.9874  1.0616
 6785TIP3   OH241989   1.461   1.858   1.028 -0.0644 -0.2759 -0.1245
 6785TIP3    H141990   1.417   1.860   0.943  0.7886 -0.3770 -0.5839
 6785TIP3    H241991   1.405   1.804   1.083 -1.6992  1.4343 -0.0016
 6786TIP3   OH241992   0.681   0.042   1.452 -0.3160  0.0097  0.3625
 6786TIP3    H141993   0.628   0.056   1.530 -0.2157  0.5627  0.3309
 6786TIP3    H241994   0.727  -0.040   1.470 -0.6145 -0.0909  0.7013
 6787TIP3   OH241995   2.539   4.978   1.004 -0.6024  0.4710  0.0166
 6787TIP3    H141996   2.584   5.057   0.975 -2.0312  2.3384  2.5246
 6787TIP3    H241997   2.598   4.940   1.070  0.5713 -1.2603 -1.9112
 6788TIP3   OH241998   3.350   5.861   1.053  0.3334 -0.2692 -0.2156
 6788TIP3    H141999   3.404   5.910   0.990 -0.2765 -1.0802 -1.4163
 6788TIP3    H242000   3.372   5.899   1.138  0.5546  1.4605 -0.9992
 6789TIP3   OH242001   0.151   5.570   1.844  0.0364  0.0512  0.0691
 6789TIP3    H142002   0.158   5.475   1.854 -0.1247 -0.0259 -0.5279
 6789TIP3    H242003   0.223   5.595   1.787  0.5092  0.3938  0.7932
 6790TIP3   OH242004   4.301   0.628   8.373  0.3833 -0.4794  0.3287
 6790TIP3    H142005   4.346   0.561   8.424 -1.8583 -1.9286  0.5480
 6790TIP3    H242006   4.215   0.637   8.414  0.4158  2.2526  0.0128
 6791TIP3   OH242007   0.908   6.734   7.500 -0.0662  0.2211 -0.2645
 6791TIP3    H142008   0.880   6.690   7.420  0.4061 -1.4215  0.4220
 6791TIP3    H242009   0.892   6.827   7.484 -1.7612 -0.2454 -1.5278
 6792TIP3   OH242010   3.119   2.268   1.283 -0.6319  0.4279  0.3042
 6792TIP3    H142011   3.195   2.325   1.295 -0.8517  0.9953 -0.8342
 6792TIP3    H242012   3.053   2.305   1.341 -0.6169  1.0500 -0.0609
 6793TIP3   OH242013   2.271   0.632   1.225  0.2426 -0.3108  0.2788
 6793TIP3    H142014   2.195   0.578   1.248  0.1369 -0.1508  0.3020
 6793TIP3    H242015   2.346   0.574   1.237  0.0815 -0.6557 -0.3016
 6794TIP3   OH242016   5.055   1.599   6.769  0.1097  0.1120 -0.2008
 6794TIP3    H142017   5.011   1.568   6.848  2.1908 -1.1979  0.5165
 6794TIP3    H242018   5.102   1.678   6.796  0.1262  0.1551 -0.3506
 6795TIP3   OH242019   6.717   2.094   6.800  0.5686 -0.1981 -0.2680
 6795TIP3    H142020   6.740   2.066   6.712 -1.7074 -0.3123 -0.9025
 6795TIP3    H242021   6.680   2.017   6.841 -1.1118  0.5412 -0.2901
 6796TIP3   OH242022   4.907   1.859   6.896 -0.4239 -0.0433  0.0755
 6796TIP3    H142023   4.891   1.915   6.820 -1.9926 -1.0613 -0.3866
 6796TIP3    H242024   5.000   1.838   6.892 -0.0679  1.5233 -0.4234
 6797TIP3   OH242025   6.669   4.692   8.262  0.1587  0.0263  0.2270
 6797TIP3    H142026   6.742   4.635   8.237 -0.2299 -0.5877  0.4665
 6797TIP3    H242027   6.597   4.632   8.282 -1.0121  0.6583 -1.7865
 6798TIP3   OH242028   0.408   5.729   0.366 -0.2644  0.4851 -0.2514
 6798TIP3    H142029   0.424   5.764   0.453  0.5659 -1.2269  0.3287
 6798TIP3    H242030   0.478   5.767   0.312  2.5040 -2.3537  1.0017
 6799TIP3   OH242031   4.844   5.311   1.377 -0.4823 -0.3813 -0.4769
 6799TIP3    H142032   4.852   5.345   1.288  0.6284  1.5049  0.2898
 6799TIP3    H242033   4.750   5.294   1.388 -0.8121  0.5823 -1.6017
 6800TIP3   OH242034   6.029   1.056   8.438  0.6223 -0.1278 -0.1071
 6800TIP3    H142035   6.097   0.993   8.462  1.6073  1.0109  0.1846
 6800TIP3    H242036   6.032   1.123   8.507 -1.8860 -0.8360  0.7915
 6801TIP3   OH242037   6.034   5.061   1.333  0.4870  0.3168 -0.1425
 6801TIP3    H142038   6.090   4.984   1.329  0.8948  0.6081 -0.1057
 6801TIP3    H242039   6.065   5.110   1.409 -0.7381 -0.2152  0.7387
 6802TIP3   OH242040   6.701   6.096   0.208 -0.6115  0.1742  0.1113
 6802TIP3    H142041   6.665   6.123   0.123 -1.9308  2.4414  1.2783
 6802TIP3    H242042   6.737   6.177   0.245  2.0515 -1.2033  0.8041
 6803TIP3   OH242043   4.582   6.123   7.542 -0.4160  0.2292 -0.2371
 6803TIP3    H142044   4.665   6.126   7.494  1.2677  0.7725  2.4848
 6803TIP3    H242045   4.550   6.213   7.541 -0.3292  0.2599 -0.2658
 6804TIP3   OH242046   5.486   3.336   6.452 -0.3577  0.0511 -0.2779
 6804TIP3    H142047   5.489   3.279   6.375 -0.6333 -1.7264  0.9676
 6804TIP3    H242048   5.420   3.402   6.430  0.2688  0.1728 -1.9246
 6805TIP3   OH242049   6.767   5.399   1.639  0.3765 -0.1633  0.3002
 6805TIP3    H142050   6.858   5.385   1.614  0.9664  1.2326  1.5154
 6805TIP3    H242051   6.729   5.445   1.565  0.6583 -0.7079 -0.1943
 6806TIP3   OH242052   4.568   6.664   7.717 -0.5259 -0.2264  0.1697
 6806TIP3    H142053   4.478   6.653   7.747 -0.4343 -2.8579 -0.2866
 6806TIP3    H242054   4.622   6.632   7.789 -0.1161 -1.6754 -0.7372
 6807TIP3   OH242055   3.530   3.130   8.504 -0.0817  0.3031 -0.4628
 6807TIP3    H142056   3.543   3.063   8.571 -0.1907  0.3737 -0.3713
 6807TIP3    H242057   3.437   3.125   8.483  0.0164  0.0585 -0.8445
 6808TIP3   OH242058   2.462   0.246   1.389 -0.4363 -0.1484 -0.3182
 6808TIP3    H142059   2.490   0.199   1.468  1.4523  2.3981  0.6681
 6808TIP3    H242060   2.488   0.188   1.317 -0.8366 -1.8707  0.8657
 6809TIP3   OH242061   6.098   3.106   0.849  0.3388  0.8479 -0.4894
 6809TIP3    H142062   6.045   3.049   0.905 -0.2891 -0.0889 -1.9776
 6809TIP3    H242063   6.157   3.045   0.803  1.5709  1.7039 -0.1045
 6810TIP3   OH242064   5.420   1.841   7.928 -0.0769  0.9843 -0.7816
 6810TIP3    H142065   5.490   1.862   7.868  0.7629 -1.0158 -0.5792
 6810TIP3    H242066   5.447   1.878   8.012 -0.3712  2.1703 -1.1965
 6811TIP3   OH242067   0.368   1.459   1.052 -0.4412  0.1213 -0.1804
 6811TIP3    H142068   0.451   1.502   1.073 -0.9573  1.3991 -0.5912
 6811TIP3    H242069   0.309   1.532   1.032 -1.0891 -0.8294 -1.9689
 6812TIP3   OH242070   0.369   2.501   2.025  0.2836 -0.7817  0.3477
 6812TIP3    H142071   0.306   2.552   2.076  0.4744 -0.1032 -0.0846
 6812TIP3    H242072   0.335   2.411   2.027  0.1492 -0.7194  1.4489
 6813TIP3   OH242073   2.731   0.572   0.522 -0.7882  0.4376 -0.3841
 6813TIP3    H142074   2.669   0.502   0.541  0.0817 -0.1790  0.2134
 6813TIP3    H242075   2.678   0.640   0.480 -1.8660 -0.0737  0.1249
 6814TIP3   OH242076   6.771   5.521   5.988  0.4238 -0.1218  0.0072
 6814TIP3    H142077   6.844   5.506   5.928 -0.2987  0.7332 -1.1432
 6814TIP3    H242078   6.719   5.441   5.983  1.0577 -0.5686  0.5105
 6815TIP3   OH242079   4.342   2.507   7.201 -0.8360  0.2729  0.5851
 6815TIP3    H142080   4.349   2.497   7.296 -1.2800  2.1439  0.8539
 6815TIP3    H242081   4.252   2.538   7.187 -1.0492 -0.7860 -0.5413
 6816TIP3   OH242082   5.401   4.930   8.424  0.2707  0.6542  0.1232
 6816TIP3    H142083   5.400   4.841   8.388  1.7715  0.9893 -0.8071
 6816TIP3    H242084   5.309   4.951   8.439 -0.0827 -1.3498  1.1173
 6817TIP3   OH242085   4.091   0.771   6.762 -0.1453  0.2220 -0.0745
 6817TIP3    H142086   4.078   0.840   6.697 -0.8378 -0.1221 -0.3021
 6817TIP3    H242087   4.186   0.756   6.762  0.2732  2.3623  1.2222
 6818TIP3   OH242088   3.249   2.045   0.830  0.3525  0.2810  0.4559
 6818TIP3    H142089   3.305   2.087   0.895  2.5105 -1.9220  0.1755
 6818TIP3    H242090   3.263   2.096   0.750 -0.7024  1.7409  1.1547
 6819TIP3   OH242091   5.862   1.026   0.599  0.4442  0.0468  0.7341
 6819TIP3    H142092   5.954   1.032   0.627  0.4935  0.8310  0.4467
 6819TIP3    H242093   5.814   1.076   0.664  0.2097 -0.4030  0.9099
 6820TIP3   OH242094   5.770   1.458   7.281 -1.0431  0.2238  0.4949
 6820TIP3    H142095   5.763   1.481   7.189 -2.0108 -0.3412  0.4121
 6820TIP3    H242096   5.773   1.363   7.282  1.0685  0.2574  0.9384
 6821TIP3   OH242097   2.341   0.178   0.052  0.1752 -0.3105 -0.3475
 6821TIP3    H142098   2.341   0.115   0.124 -1.4301 -0.0373 -0.0617
 6821TIP3    H242099   2.293   0.254   0.086  0.8423  0.5030 -1.1588
 6822TIP3   OH242100   4.808   4.073   1.350  0.2735  0.0810  0.1842
 6822TIP3    H142101   4.765   4.096   1.433 -1.0832 -0.3551 -0.3644
 6822TIP3    H242102   4.806   3.977   1.348 -0.3800  0.0983 -0.6694
 6823TIP3   OH242103   5.458   1.594   7.324  0.0346 -0.5924  0.5717
 6823TIP3    H142104   5.506   1.613   7.243 -0.7876 -0.8462  0.0058
 6823TIP3    H242105   5.460   1.499   7.332 -0.7573 -0.6502  0.2744
 6824TIP3   OH242106   2.356   4.738   0.955  0.1994 -0.0800  0.7354
 6824TIP3    H142107   2.428   4.729   0.892  1.5070  0.6447  2.0891
 6824TIP3    H242108   2.278   4.711   0.905  1.1584  0.5877 -1.2322
 6825TIP3   OH242109   0.872   5.800   8.493  0.3887  0.2086  0.3612
 6825TIP3    H142110   0.917   5.747   8.426 -2.1574 -1.0509 -0.4656
 6825TIP3    H242111   0.922   5.784   8.573  1.1390 -1.5314 -0.3923
 6826TIP3   OH242112   2.009   2.459   7.840 -0.2591 -0.1732 -0.2052
 6826TIP3    H142113   1.926   2.446   7.794  0.6131 -0.7398 -1.6749
 6826TIP3    H242114   1.986   2.514   7.916 -2.1427 -1.2298  0.0389
 6827TIP3   OH242115   4.620   4.186   8.048  0.1209 -0.3167  0.2792
 6827TIP3    H142116   4.593   4.098   8.020 -3.5462  0.0478  1.9747
 6827TIP3    H242117   4.596   4.243   7.975 -0.4116 -0.4386  0.3502
 6828TIP3   OH242118   6.028   1.624   8.336 -0.3168  0.4628 -0.6676
 6828TIP3    H142119   6.085   1.555   8.301 -0.7496  0.3533 -1.1574
 6828TIP3    H242120   5.961   1.636   8.269 -1.7373 -0.4494  0.5409
 6829TIP3   OH242121   5.872   2.723   1.594  0.3356  0.0242  0.1067
 6829TIP3    H142122   5.914   2.798   1.637 -0.6449 -0.1481  1.4352
 6829TIP3    H242123   5.860   2.659   1.664 -0.3236 -0.7136 -0.6658
 6830TIP3   OH242124   2.429   0.651   6.771  0.0487  0.0021 -0.0882
 6830TIP3    H142125   2.382   0.629   6.851  0.4090 -0.8715 -0.1028
 6830TIP3    H242126   2.474   0.570   6.746 -1.6166 -0.3409 -2.2736
 6831TIP3   OH242127   3.167   6.448   1.173 -0.5190  0.9908 -0.4971
 6831TIP3    H142128   3.219   6.466   1.095  0.1217 -0.4068 -0.4243
 6831TIP3    H242129   3.077   6.443   1.142 -0.2926  0.6875 -1.1083
 6832TIP3   OH242130   1.333   5.231   1.211 -0.2805 -0.0266  0.5943
 6832TIP3    H142131   1.287   5.313   1.192  0.2454  0.2446  0.4594
 6832TIP3    H242132   1.419   5.242   1.170 -1.2570 -1.9307 -2.3303
 6833TIP3   OH242133   2.235   1.892   7.573 -0.3233 -0.3808  0.5943
 6833TIP3    H142134   2.148   1.872   7.538 -0.8296  0.8693  1.0769
 6833TIP3    H242135   2.244   1.987   7.562  1.3290 -0.5935 -0.2008
 6834TIP3   OH242136   4.101   6.753   7.012 -0.1511 -0.0276 -0.2796
 6834TIP3    H142137   4.042   6.689   6.972 -0.2918 -0.5839  0.7813
 6834TIP3    H242138   4.046   6.830   7.026 -0.3856 -0.2113 -0.1697
 6835TIP3   OH242139   1.799   3.756   7.332  0.1260 -0.0493  0.4826
 6835TIP3    H142140   1.861   3.797   7.272  1.3217  0.1577  1.8376
 6835TIP3    H242141   1.852   3.700   7.388 -1.2058 -1.7829  0.1065
 6836TIP3   OH242142   2.843   0.803   8.264  0.0217 -0.5431  0.4153
 6836TIP3    H142143   2.937   0.806   8.248  0.0299 -0.3344  0.4951
 6836TIP3    H242144   2.824   0.887   8.307 -0.4290  0.0173 -0.8347
 6837TIP3   OH242145   0.802   5.252   0.964  0.3405  0.6698  0.0657
 6837TIP3    H142146   0.753   5.326   0.929 -0.8389  1.2363  2.6923
 6837TIP3    H242147   0.893   5.283   0.968  0.1987  1.2110 -0.7283
 6838TIP3   OH242148   1.705   2.761   8.560  0.2775  0.4867  0.2544
 6838TIP3    H142149   1.678   2.798   8.644 -0.0818 -1.1881  0.9279
 6838TIP3    H242150   1.787   2.716   8.579 -0.8339 -1.6671  0.2646
 6839TIP3   OH242151   3.928   6.554   6.953  0.1746 -0.5587  0.4774
 6839TIP3    H142152   3.863   6.547   7.022  0.2823  1.3042  0.8148
 6839TIP3    H242153   3.878   6.547   6.871 -0.3523  0.1465  0.7347
 6840TIP3   OH242154   1.380   2.137   1.060 -0.4354 -0.1661 -0.2208
 6840TIP3    H142155   1.382   2.180   0.974 -0.6419  1.2901  0.4746
 6840TIP3    H242156   1.412   2.048   1.043 -2.4244 -0.5932 -2.1731
 6841TIP3   OH242157   1.550   3.752   7.484 -0.3193  0.0836  0.0234
 6841TIP3    H142158   1.512   3.719   7.402 -0.2740  2.0628 -0.8527
 6841TIP3    H242159   1.644   3.757   7.467 -0.2262 -0.1749  0.4495
 6842TIP3   OH242160   0.133   4.494   1.011  0.4997 -0.3490  0.5595
 6842TIP3    H142161   0.109   4.561   0.947 -1.7133 -0.2395  1.4121
 6842TIP3    H242162   0.226   4.507   1.026  1.6776 -1.6836 -4.1286
 6843TIP3   OH242163   5.945   5.045   0.153 -0.0647 -0.3190  0.0787
 6843TIP3    H142164   5.854   5.015   0.157  0.1037 -0.8425  0.0052
 6843TIP3    H242165   5.956   5.075   0.062  0.3802 -2.0144 -0.4571
 6844TIP3   OH242166   2.569   2.781   7.618 -1.2242 -0.1915  0.1278
 6844TIP3    H142167   2.508   2.830   7.563 -1.4428 -1.2502 -0.6082
 6844TIP3    H242168   2.606   2.847   7.677 -2.0219  0.7215 -0.3550
 6845TIP3   OH242169   1.478   2.424   8.499 -0.3350  0.0429  0.1713
 6845TIP3    H142170   1.391   2.387   8.514  0.0742 -0.8802  0.3033
 6845TIP3    H242171   1.466   2.518   8.513 -0.9958 -0.2298  1.6189
 6846TIP3   OH242172   2.853   2.279   2.116 -0.0425  0.0156  0.3381
 6846TIP3    H142173   2.848   2.221   2.192  0.8318  1.1099  1.2758
 6846TIP3    H242174   2.903   2.355   2.147  1.2968  0.0271 -1.6487
 6847TIP3   OH242175   4.068   5.742   1.170  0.0096  0.0839  0.2059
 6847TIP3    H142176   4.154   5.763   1.132 -0.0842  1.2972  0.5970
 6847TIP3    H242177   4.006   5.792   1.118 -0.2539  0.7213  1.1033
 6848TIP3   OH242178   1.455   3.820   8.415 -0.0165  0.3848 -0.4796
 6848TIP3    H142179   1.475   3.726   8.411 -0.8337  0.1765  0.0442
 6848TIP3    H242180   1.363   3.826   8.390  0.3111  1.1825 -1.5902
 6849TIP3   OH242181   0.178   6.174   7.450 -0.1268  0.5108 -0.1156
 6849TIP3    H142182   0.192   6.083   7.423 -1.3833 -0.5720  2.5838
 6849TIP3    H242183   0.112   6.207   7.388 -0.2006 -0.6397 -0.6856
 6850TIP3   OH242184   0.042   4.064   1.524  0.2449  0.5034 -0.0287
 6850TIP3    H142185  -0.031   4.068   1.587 -0.4207 -0.0234 -0.7419
 6850TIP3    H242186   0.086   3.982   1.544  1.1488  1.1903  0.9193
 6851TIP3   OH242187   4.629   0.025   8.419  0.1510 -0.2423 -0.2588
 6851TIP3    H142188   4.718   0.003   8.449  1.5487  2.6740 -1.8329
 6851TIP3    H242189   4.572  -0.004   8.490  2.2455 -2.8476  0.5262
 6852TIP3   OH242190   0.697   1.157   5.746  0.4868  0.2823 -0.2022
 6852TIP3    H142191   0.657   1.209   5.677  1.4441  1.3705  0.0431
 6852TIP3    H242192   0.790   1.181   5.744  1.0481 -1.6528 -0.2985
 6853TIP3   OH242193   2.636   1.724   7.006 -0.2338  0.0080 -0.5241
 6853TIP3    H142194   2.542   1.738   7.020 -1.0804 -2.6574 -2.5809
 6853TIP3    H242195   2.649   1.739   6.912  1.3848  0.2088 -0.2963
 6854TIP3   OH242196   0.988   4.558   6.504 -0.2070 -0.5764  0.3788
 6854TIP3    H142197   1.002   4.518   6.589 -0.2914  0.6228  0.9705
 6854TIP3    H242198   0.936   4.493   6.456 -0.0436 -1.3211  1.1855
 6855TIP3   OH242199   1.089   2.935   7.278  0.0308 -0.2467  0.3255
 6855TIP3    H142200   1.177   2.898   7.275  0.0692 -0.3208  1.7842
 6855TIP3    H242201   1.032   2.861   7.256  0.2983 -0.3099 -0.1708
 6856TIP3   OH242202   4.045   5.964   8.452  0.1019  0.0778  0.3532
 6856TIP3    H142203   4.026   5.929   8.365  1.4898 -0.8663  0.3828
 6856TIP3    H242204   4.134   5.998   8.445 -0.9090  3.0060  0.5574
 6857TIP3   OH242205   6.475   4.533   6.559 -0.2358 -0.1429  0.7539
 6857TIP3    H142206   6.416   4.555   6.631 -0.6106 -0.8393  0.6632
 6857TIP3    H242207   6.417   4.520   6.484 -0.1316 -2.3003  0.9884
 6858TIP3   OH242208   3.969   2.106   1.049  0.3029  0.0626  0.6206
 6858TIP3    H142209   3.921   2.042   1.101 -0.5115 -0.6881 -1.0035
 6858TIP3    H242210   3.958   2.078   0.958  0.4988  2.1196 -0.1011
 6859TIP3   OH242211   3.460   4.654   1.369 -0.6773 -0.2194  0.3009
 6859TIP3    H142212   3.548   4.630   1.341 -0.8102 -0.0087 -0.3208
 6859TIP3    H242213   3.430   4.717   1.303 -0.5163  1.3117  1.6401
 6860TIP3   OH242214   2.485   5.773   8.586 -0.3260  0.5653 -0.6170
 6860TIP3    H142215   2.461   5.842   8.647  1.2375  1.1127 -0.5585
 6860TIP3    H242216   2.430   5.698   8.609 -0.6838  1.1863  0.5920
 6861TIP3   OH242217   1.110   4.248   6.568 -0.7607 -0.6371  0.0537
 6861TIP3    H142218   1.076   4.319   6.624  1.6116  0.4177  0.2554
 6861TIP3    H242219   1.145   4.293   6.492  0.8251 -1.5799  0.1958
 6862TIP3   OH242220   3.604   0.296   1.060  0.2872 -0.9652  0.3053
 6862TIP3    H142221   3.569   0.330   0.977 -0.1693 -1.3006  0.3556
 6862TIP3    H242222   3.677   0.240   1.034 -0.3878 -1.7534  0.0626
 6863TIP3   OH242223   2.676   4.195   6.156 -0.1722  0.2118  0.4513
 6863TIP3    H142224   2.754   4.214   6.103 -0.0398 -0.0545  0.5487
 6863TIP3    H242225   2.641   4.114   6.119 -1.4187  1.2496 -0.7388
 6864TIP3   OH242226   2.437   1.386   7.154 -0.0075  0.2810  0.4128
 6864TIP3    H142227   2.522   1.363   7.116  0.0299  2.1378 -0.7240
 6864TIP3    H242228   2.445   1.478   7.179 -1.6698  0.5034  0.2893
 6865TIP3   OH242229   5.431   1.676   8.218 -0.3700  0.2035  0.0246
 6865TIP3    H142230   5.517   1.718   8.220 -0.1529 -0.2682  0.7641
 6865TIP3    H242231   5.373   1.740   8.259 -0.4425  0.6630 -0.7769
 6866TIP3   OH242232   3.206   5.977   8.565  0.6235 -0.0077  0.0998
 6866TIP3    H142233   3.131   5.919   8.556 -0.6347  1.5052  0.2899
 6866TIP3    H242234   3.233   5.997   8.476  1.5700 -1.4732  0.0396
 6867TIP3   OH242235   4.696   3.574   6.515  0.5322 -0.2352  0.0875
 6867TIP3    H142236   4.749   3.652   6.533  1.7449 -1.5848  3.0761
 6867TIP3    H242237   4.606   3.601   6.534  0.8025  0.6933  0.0953
 6868TIP3   OH242238   5.775   4.223   8.199 -0.7292 -0.4007 -0.1328
 6868TIP3    H142239   5.680   4.239   8.205 -0.5800  0.2741  0.6639
 6868TIP3    H242240   5.788   4.190   8.110 -1.9772 -2.4633  0.3738
 6869TIP3   OH242241   1.985   3.288   1.104  0.0738 -0.2355 -0.1668
 6869TIP3    H142242   2.006   3.240   1.024  2.1259 -1.3183  0.9195
 6869TIP3    H242243   1.963   3.219   1.167  0.0434  0.4795  0.6194
 6870TIP3   OH242244   3.373   1.567   7.455 -0.1028  0.4220  0.1299
 6870TIP3    H142245   3.435   1.565   7.529 -1.0144 -2.0303  0.9360
 6870TIP3    H242246   3.287   1.572   7.496 -0.6228 -0.8425 -0.7529
 6871TIP3   OH242247   0.386   2.389   0.207 -0.4218 -0.3288 -0.7945
 6871TIP3    H142248   0.329   2.411   0.133 -0.9444  0.8363 -0.0702
 6871TIP3    H242249   0.358   2.447   0.278  1.9503  0.6272 -0.5264
 6872TIP3   OH242250   4.788   0.921   7.119  0.8046 -0.2788  0.3457
 6872TIP3    H142251   4.718   0.955   7.175 -0.4349 -1.7286 -0.2268
 6872TIP3    H242252   4.757   0.937   7.030  1.8884  0.3427  0.0657
 6873TIP3   OH242253   5.669   4.825   0.109  0.2370  0.2593  0.2426
 6873TIP3    H142254   5.608   4.896   0.088 -0.1596 -0.1871 -0.1465
 6873TIP3    H242255   5.641   4.753   0.053  0.1507 -0.4554  1.1886
 6874TIP3   OH242256   3.378   1.759   7.090  0.3082 -0.2099  0.2286
 6874TIP3    H142257   3.396   1.842   7.046  2.4910 -0.8664 -0.2297
 6874TIP3    H242258   3.460   1.736   7.133  1.5817 -4.5432 -3.6739
 6875TIP3   OH242259   6.459   1.523   7.614  0.4757 -0.1723 -0.0738
 6875TIP3    H142260   6.403   1.594   7.644 -0.9696 -1.7759  1.2521
 6875TIP3    H242261   6.523   1.511   7.685 -1.2554 -2.1640  1.3159
 6876TIP3   OH242262   5.994   5.438   8.626  0.0755 -0.1316 -0.0642
 6876TIP3    H142263   5.978   5.401   8.713 -2.3366  0.5663 -0.1238
 6876TIP3    H242264   5.928   5.507   8.618  0.3970 -0.0338 -2.3771
 6877TIP3   OH242265   1.070   2.448   8.325 -0.2179 -0.4240 -0.2525
 6877TIP3    H142266   1.019   2.527   8.340  0.6947 -0.0467  0.9686
 6877TIP3    H242267   1.119   2.434   8.406  1.2583 -1.0450 -1.2014
 6878TIP3   OH242268   2.802   5.643   7.457  0.2792 -0.7137  0.3427
 6878TIP3    H142269   2.811   5.669   7.549 -0.3682  0.1903  0.1652
 6878TIP3    H242270   2.825   5.721   7.407 -0.7708 -0.7388 -0.2280
 6879TIP3   OH242271   0.708   4.337   0.794 -0.0391  0.1738 -0.4497
 6879TIP3    H142272   0.666   4.296   0.869  1.5287  0.9119  0.8851
 6879TIP3    H242273   0.790   4.289   0.783  1.2585  2.0721  0.3899
 6880TIP3   OH242274   1.115   1.524   0.082  0.1760  0.3466  0.5055
 6880TIP3    H142275   1.185   1.472   0.123  0.4375 -0.6683 -1.1618
 6880TIP3    H242276   1.045   1.461   0.065 -0.6353  1.1007  0.9420
 6881TIP3   OH242277   4.669   6.579   0.933 -0.7903 -0.0673 -0.2914
 6881TIP3    H142278   4.587   6.628   0.939 -0.9695 -0.2414 -1.2038
 6881TIP3    H242279   4.690   6.579   0.839  0.8511  0.9835  0.0301
 6882TIP3   OH242280   3.723   5.540   7.781  0.0171  0.2849  0.1548
 6882TIP3    H142281   3.769   5.603   7.837 -1.3367 -0.3854  2.1376
 6882TIP3    H242282   3.630   5.559   7.796 -0.3940 -0.3922 -1.3666
 6883TIP3   OH242283   1.073   4.602   1.181 -0.2188  0.8963  0.2399
 6883TIP3    H142284   1.151   4.608   1.126 -0.2199  1.6899  0.3158
 6883TIP3    H242285   1.021   4.532   1.142  0.5418  0.3444  0.2057
 6884TIP3   OH242286   4.525   1.527   0.928 -0.0725  0.0037  0.3087
 6884TIP3    H142287   4.520   1.523   0.833 -0.8413  0.5583  0.3161
 6884TIP3    H242288   4.545   1.619   0.948 -1.2754  0.1942  0.7144
 6885TIP3   OH242289   4.264   6.438   1.797 -0.2211  0.6424 -0.2154
 6885TIP3    H142290   4.251   6.514   1.854  0.4662  0.9980 -0.5265
 6885TIP3    H242291   4.352   6.406   1.818 -0.1327  0.5087 -0.7670
 6886TIP3   OH242292   1.015   4.579   8.412  0.1033  0.3329  0.4924
 6886TIP3    H142293   0.932   4.552   8.452  0.4515 -2.8142 -0.5937
 6886TIP3    H242294   0.994   4.584   8.318  0.7714  1.1471  0.3837
 6887TIP3   OH242295   3.183   5.822   6.817  0.2026 -0.7023  0.2735
 6887TIP3    H142296   3.199   5.728   6.829  1.9059 -0.4623  0.0937
 6887TIP3    H242297   3.161   5.831   6.725  0.6568 -0.8579  0.1471
 6888TIP3   OH242298   4.868   5.339   8.174 -0.3313  0.3657  0.4302
 6888TIP3    H142299   4.874   5.383   8.259 -1.4641 -0.4351  0.9469
 6888TIP3    H242300   4.835   5.252   8.195 -3.2717  1.0100 -1.0465
 6889TIP3   OH242301   6.572   2.279   1.862  0.4083  0.0191 -0.4258
 6889TIP3    H142302   6.650   2.247   1.907  1.2350  1.6965 -0.6218
 6889TIP3    H242303   6.603   2.350   1.806 -1.5032  2.2353  1.1241
 6890TIP3   OH242304   0.844   1.431   1.587 -0.0244 -0.1604  0.6502
 6890TIP3    H142305   0.876   1.342   1.600 -1.3231 -1.1965 -2.2658
 6890TIP3    H242306   0.923   1.483   1.572  0.6713 -1.3284  0.0882
 6891TIP3   OH242307   5.946   1.926   0.426  0.3562 -0.2703  0.1973
 6891TIP3    H142308   6.032   1.927   0.383  0.1579 -1.7667 -0.3040
 6891TIP3    H242309   5.961   1.968   0.511  1.6763 -0.8058  0.2537
 6892TIP3   OH242310   3.764   2.250   2.014  0.5020 -0.1037  0.3314
 6892TIP3    H142311   3.793   2.341   2.016 -0.0123  0.0675  0.1683
 6892TIP3    H242312   3.674   2.253   2.047  0.4649 -0.5487  0.2790
 6893TIP3   OH242313   5.774   3.060   0.875 -0.1627  0.2756 -0.3236
 6893TIP3    H142314   5.837   2.990   0.892 -1.2278 -1.0550 -1.6479
 6893TIP3    H242315   5.824   3.141   0.887  1.1960 -0.6976  0.8520
 6894TIP3   OH242316   2.552   4.589   1.134  0.1873 -0.1698  0.4203
 6894TIP3    H142317   2.508   4.661   1.088  1.5022  0.4419  0.0932
 6894TIP3    H242318   2.533   4.604   1.227 -0.7470 -0.2390  0.2535
 6895TIP3   OH242319   5.285   4.978   7.064  1.0734  0.4565 -0.5527
 6895TIP3    H142320   5.253   5.053   7.114 -0.3530 -2.3427  3.2562
 6895TIP3    H242321   5.205   4.933   7.035  1.8363 -0.5418 -1.1632
 6896TIP3   OH242322   0.466   5.131   7.747  0.0810  0.0924  0.2876
 6896TIP3    H142323   0.494   5.217   7.716  1.9069 -0.4220  0.4247
 6896TIP3    H242324   0.445   5.083   7.667  0.3280  0.2428  0.1312
 6897TIP3   OH242325   4.916   3.851   0.314 -0.3986 -0.4738  0.3466
 6897TIP3    H142326   4.924   3.760   0.344 -0.1651 -1.3481 -2.1622
 6897TIP3    H242327   4.831   3.856   0.271  0.3859 -0.0617 -1.2213
 6898TIP3   OH242328   6.866   0.235   8.646  0.1942 -0.0857  0.3001
 6898TIP3    H142329   6.952   0.252   8.684 -0.3956  2.5661  0.6813
 6898TIP3    H242330   6.804   0.267   8.712 -1.0273 -0.5306 -0.5909
 6899TIP3   OH242331   2.986   6.767   7.835  0.0911  0.3225 -0.1975
 6899TIP3    H142332   3.036   6.685   7.831 -0.9495 -0.3130 -0.8967
 6899TIP3    H242333   3.005   6.803   7.922  1.5791  0.0070 -0.3771
 6900TIP3   OH242334   5.747   0.836   7.794 -0.2001 -0.2290 -0.1780
 6900TIP3    H142335   5.806   0.762   7.777 -2.4491 -2.2821  0.3573
 6900TIP3    H242336   5.721   0.825   7.886  0.2184  1.9194  0.2526
 6901TIP3   OH242337   0.807   5.267   8.351  0.4746  0.1615 -0.3814
 6901TIP3    H142338   0.752   5.339   8.381  0.5449 -0.4903  1.4586
 6901TIP3    H242339   0.827   5.288   8.260 -1.1919  1.4013 -0.5125
 6902TIP3   OH242340   5.477   3.423   8.260  0.2922  0.4607  0.1578
 6902TIP3    H142341   5.492   3.489   8.193 -3.7908  1.2531 -0.2215
 6902TIP3    H242342   5.462   3.472   8.341  0.0651 -0.1791  0.5182
 6903TIP3   OH242343   5.603   2.330   0.810  0.0370  0.2128  0.0851
 6903TIP3    H142344   5.655   2.262   0.767  0.9332  1.8872 -1.6322
 6903TIP3    H242345   5.622   2.319   0.903  0.9400 -1.2504 -0.2417
 6904TIP3   OH242346   6.361   4.377   0.811  0.1802  0.5943  0.3676
 6904TIP3    H142347   6.423   4.313   0.776 -1.8599 -1.0616 -0.4205
 6904TIP3    H242348   6.324   4.334   0.888  0.2357  1.7285  1.0577
 6905TIP3   OH242349   0.833   0.142   7.459 -0.0489  0.0506  0.3004
 6905TIP3    H142350   0.803   0.197   7.532  1.0552  0.6019  0.3712
 6905TIP3    H242351   0.759   0.139   7.399 -1.4147 -1.3880  1.9637
 6906TIP3   OH242352   3.504   6.147   0.060  0.2619 -0.2865  0.0290
 6906TIP3    H142353   3.590   6.161   0.022  0.9295  0.6324  1.7418
 6906TIP3    H242354   3.474   6.235   0.084 -1.7524 -0.4305 -1.6799
 6907TIP3   OH242355   2.313   6.868   7.853  0.2486 -0.0435 -0.0590
 6907TIP3    H142356   2.372   6.941   7.874  0.2341  0.7696 -2.4548
 6907TIP3    H242357   2.340   6.841   7.765 -0.7538 -1.9568  0.1714
 6908TIP3   OH242358   4.428   0.826   7.967  0.6076 -0.0629 -0.6563
 6908TIP3    H142359   4.438   0.897   8.031 -2.6767 -0.8792  0.9987
 6908TIP3    H242360   4.444   0.747   8.018  0.5433 -0.6435 -1.5324
 6909TIP3   OH242361   6.634   0.615   7.298 -0.4160 -0.6274 -0.3766
 6909TIP3    H142362   6.717   0.568   7.305  0.0668  0.1163 -1.0260
 6909TIP3    H242363   6.607   0.631   7.389  0.4193 -0.3995 -0.1638
 6910TIP3   OH242364   0.239   2.332   8.117 -0.3276 -0.0885  0.5048
 6910TIP3    H142365   0.289   2.387   8.177  1.0297  1.4331 -1.8372
 6910TIP3    H242366   0.286   2.249   8.115  0.4846  0.3663  0.4628
 6911TIP3   OH242367   4.090   0.504   8.554 -0.1750  0.4210 -0.3757
 6911TIP3    H142368   4.059   0.498   8.644  1.4634  2.3213  0.3815
 6911TIP3    H242369   4.042   0.435   8.508 -1.3735 -0.3240  1.8274
 6912TIP3   OH242370   6.750   3.985   7.584 -0.4155 -0.0949  0.0644
 6912TIP3    H142371   6.656   3.983   7.602 -0.2957 -0.0925  0.7226
 6912TIP3    H242372   6.771   3.895   7.560 -0.9268  0.2825 -1.9982
 6913TIP3   OH242373   3.466   3.836   0.526  0.1025 -0.0388 -0.3165
 6913TIP3    H142374   3.378   3.802   0.541  0.5900 -0.9028  0.7477
 6913TIP3    H242375   3.486   3.886   0.606  0.5787  0.1481 -0.5493
 6914TIP3   OH242376   5.585   4.201   6.269  0.3159  0.1026 -0.5377
 6914TIP3    H142377   5.499   4.225   6.303  0.1191 -0.1876 -0.8198
 6914TIP3    H242378   5.621   4.282   6.234  0.3372  0.3135 -0.0370
 6915TIP3   OH242379   6.487   3.240   0.637  0.3566 -0.1610  0.0096
 6915TIP3    H142380   6.562   3.201   0.592  0.3685  0.4365 -0.5092
 6915TIP3    H242381   6.499   3.335   0.625 -0.6319 -0.0693 -0.3314
 6916TIP3   OH242382   3.904   5.934   0.035  0.1378  0.4232  0.2933
 6916TIP3    H142383   3.985   5.952  -0.013  0.5854 -0.4145  0.7068
 6916TIP3    H242384   3.933   5.890   0.115 -0.6708  0.8902  0.8529
 6917TIP3   OH242385   3.630   4.663   0.054  0.3837  0.0442  0.1347
 6917TIP3    H142386   3.682   4.686   0.131  2.3240 -0.8645 -0.8200
 6917TIP3    H242387   3.641   4.568   0.046 -1.3446 -0.1529 -0.2017
 6918TIP3   OH242388   3.857   5.263   1.184  0.0416 -0.2552  0.2138
 6918TIP3    H142389   3.941   5.295   1.152  0.8047  2.2523  3.9864
 6918TIP3    H242390   3.879   5.197   1.249 -1.1288 -1.5248 -0.6089
 6919TIP3   OH242391   6.241   3.280   6.546 -0.7457  0.2164 -0.4295
 6919TIP3    H142392   6.185   3.210   6.580 -0.6433  0.7167  0.7967
 6919TIP3    H242393   6.196   3.360   6.570  1.1289  0.6845  1.8065
 6920TIP3   OH242394   1.796   5.684   0.345  0.4834  0.2391  0.0528
 6920TIP3    H142395   1.736   5.672   0.271  0.2617 -0.6005  0.3579
 6920TIP3    H242396   1.883   5.668   0.308  0.4913  0.9838 -0.2812
 6921TIP3   OH242397   2.567   4.371   1.843 -0.3164  0.7791  0.5857
 6921TIP3    H142398   2.484   4.415   1.858 -1.3354 -0.5746 -0.7531
 6921TIP3    H242399   2.577   4.311   1.917 -1.4479 -0.3103 -0.0973
 6922TIP3   OH242400   0.860   1.733   8.500  0.5259  0.1078  0.0333
 6922TIP3    H142401   0.886   1.695   8.416 -0.9025  1.0518 -0.8945
 6922TIP3    H242402   0.772   1.699   8.515 -0.1119  1.6610  0.0165
 6923TIP3   OH242403   4.339   4.374   5.861 -0.4748  0.3495 -0.3511
 6923TIP3    H142404   4.340   4.469   5.860  0.2146  0.4207  1.4777
 6923TIP3    H242405   4.426   4.350   5.895 -0.6717 -0.9213 -0.6882
 6924TIP3   OH242406   6.499   4.886   6.399  0.2573 -0.8278 -0.2967
 6924TIP3    H142407   6.581   4.933   6.388 -0.5535  0.4457 -1.2296
 6924TIP3    H242408   6.456   4.928   6.473 -0.1345 -0.5977 -0.6493
 6925TIP3   OH242409   1.534   5.803   1.725 -0.4329  0.0104 -0.1884
 6925TIP3    H142410   1.592   5.756   1.783  0.5695  2.0685  0.5764
 6925TIP3    H242411   1.488   5.735   1.676  0.6868 -1.7139  1.0604
 6926TIP3   OH242412   3.995   6.275   7.936  0.1305  0.0407  0.5278
 6926TIP3    H142413   4.049   6.221   7.878  0.2024  1.3328 -0.6710
 6926TIP3    H242414   3.920   6.220   7.958  0.1901 -0.5384 -0.6702
 6927TIP3   OH242415   1.284   4.148   1.577 -0.3196  0.2339  0.0548
 6927TIP3    H142416   1.237   4.110   1.651  0.1122  1.9802  1.2830
 6927TIP3    H242417   1.367   4.177   1.614  0.2692  0.3595 -1.3189
 6928TIP3   OH242418   1.098   3.562   7.453 -0.0099  0.1635  0.2988
 6928TIP3    H142419   1.128   3.477   7.419  0.6486  0.3074  0.4978
 6928TIP3    H242420   1.122   3.559   7.546  2.2252  1.5055 -0.1745
 6929TIP3   OH242421   3.847   6.340   0.283  0.8369 -0.0515  0.0499
 6929TIP3    H142422   3.819   6.328   0.192 -0.4820  1.5172  0.2024
 6929TIP3    H242423   3.833   6.254   0.323 -2.2933  0.1685 -0.3274
 6930TIP3   OH242424   1.529   6.762   6.831 -0.6101 -0.5776  0.2790
 6930TIP3    H142425   1.601   6.701   6.817  0.1468 -0.5931  3.4196
 6930TIP3    H242426   1.479   6.761   6.749  2.6610 -0.9005 -1.8806
 6931TIP3   OH242427   3.865   2.285   1.223  0.1380 -0.2761 -0.2676
 6931TIP3    H142428   3.905   2.252   1.303 -0.7783 -1.2194 -0.1719
 6931TIP3    H242429   3.898   2.228   1.154  0.5071  0.2004 -0.4907
 6932TIP3   OH242430   1.016   1.743   7.469  0.4931 -0.1009 -0.2580
 6932TIP3    H142431   1.081   1.706   7.529 -0.5977 -0.9414  0.4369
 6932TIP3    H242432   0.975   1.813   7.519  0.0813 -0.3320 -0.2663
 6933TIP3   OH242433   1.307   4.693   1.058  0.1698 -0.4824  0.0754
 6933TIP3    H142434   1.285   4.787   1.057 -0.2818 -0.5894 -0.1102
 6933TIP3    H242435   1.402   4.691   1.071  0.4266  0.0414 -1.4917
 6934TIP3   OH242436   4.384   1.260   6.079 -0.0722  0.2896 -0.3475
 6934TIP3    H142437   4.302   1.215   6.061 -0.2830  0.2314  0.6839
 6934TIP3    H242438   4.405   1.305   5.998 -0.9514  0.0405 -0.7271
 6935TIP3   OH242439   1.693   5.877   0.767  0.8494  0.3818  1.0019
 6935TIP3    H142440   1.721   5.965   0.741  0.5806  0.0813 -0.3859
 6935TIP3    H242441   1.775   5.828   0.775  1.0534  0.9191  2.5014
 6936TIP3   OH242442   1.067   6.496   2.170 -0.2565 -0.5332 -0.1521
 6936TIP3    H142443   1.138   6.441   2.202 -1.1831 -1.2717  0.7080
 6936TIP3    H242444   0.988   6.442   2.179 -1.3895  1.2866  1.8187
 6937TIP3   OH242445   5.628   1.702   7.095  0.8977 -0.6745  0.4728
 6937TIP3    H142446   5.704   1.720   7.151  2.0404 -1.0061 -0.9183
 6937TIP3    H242447   5.633   1.768   7.026  0.0487 -0.8469  0.2383
 6938TIP3   OH242448   3.047   2.483   7.525  0.2534 -0.5264  0.4550
 6938TIP3    H142449   3.099   2.425   7.580  0.9394  0.2529  0.6512
 6938TIP3    H242450   3.072   2.571   7.552 -0.0681 -0.1301 -0.4762
 6939TIP3   OH242451   6.273   0.975   8.524 -0.3508  0.2009  0.8068
 6939TIP3    H142452   6.281   0.879   8.523  1.0432  0.2912 -0.6164
 6939TIP3    H242453   6.354   1.005   8.565  0.8738  0.8128 -1.8559
 6940TIP3   OH242454   0.452   5.809   7.080  0.1822 -0.2579 -0.0911
 6940TIP3    H142455   0.444   5.895   7.121  0.1657  0.1747 -0.9710
 6940TIP3    H242456   0.508   5.824   7.003  0.2843 -1.0583 -0.1906
 6941TIP3   OH242457   6.219   6.261   7.029 -0.1960 -0.6211  0.2568
 6941TIP3    H142458   6.195   6.354   7.034 -0.8423 -0.7360 -0.4619
 6941TIP3    H242459   6.213   6.240   6.935 -0.0012 -1.3684  0.4086
 6942TIP3   OH242460   6.370   6.292   7.884  0.1981  0.0551  0.5382
 6942TIP3    H142461   6.299   6.243   7.924 -0.8529  1.1405  0.0420
 6942TIP3    H242462   6.349   6.384   7.900  0.0265  0.5151 -1.9559
 6943TIP3   OH242463   1.740   5.453   0.760 -0.4083  0.0319  0.0194
 6943TIP3    H142464   1.795   5.526   0.730  0.7028 -0.7578  0.1172
 6943TIP3    H242465   1.745   5.456   0.855 -0.5724 -0.0271  0.0309
 6944TIP3   OH242466   6.012   3.779   8.337 -0.5315  0.0734  0.0113
 6944TIP3    H142467   6.072   3.852   8.323 -0.2006 -0.4798 -1.6056
 6944TIP3    H242468   6.057   3.723   8.400 -0.2526  0.6531  0.3336
 6945TIP3   OH242469   6.121   3.882   0.691  0.3719 -0.1393 -0.2350
 6945TIP3    H142470   6.068   3.803   0.700  0.2812 -0.1156 -0.5533
 6945TIP3    H242471   6.067   3.942   0.640  0.4913  0.0826 -0.1049
 6946TIP3   OH242472   6.734   0.394   6.711 -0.4402 -0.1504 -0.4587
 6946TIP3    H142473   6.809   0.454   6.707 -0.3607 -0.2296 -0.1990
 6946TIP3    H242474   6.673   0.427   6.644 -0.9443  0.9566  0.5044
 6947TIP3   OH242475   0.766   1.188   7.133 -0.0135  0.5031 -0.3487
 6947TIP3    H142476   0.846   1.194   7.081  2.2925  1.0640  2.9420
 6947TIP3    H242477   0.758   1.095   7.155  1.9754  0.7970  2.2087
 6948TIP3   OH242478   3.014   1.222   8.207  0.6264 -0.3926 -0.5713
 6948TIP3    H142479   3.049   1.148   8.257  2.5112  0.6296 -0.2795
 6948TIP3    H242480   3.050   1.299   8.251 -1.5239  0.7346 -0.6982
 6949TIP3   OH242481   1.895   1.046   8.047  0.8286  0.0798  0.3914
 6949TIP3    H142482   1.825   1.027   8.109  0.2466 -1.8595 -0.7708
 6949TIP3    H242483   1.880   1.136   8.020 -0.4573  0.1060  1.1312
 6950TIP3   OH242484   1.964   3.113   8.261 -0.1438  0.6208  0.4693
 6950TIP3    H142485   1.962   3.071   8.347 -0.5991  0.3973  0.3520
 6950TIP3    H242486   1.897   3.181   8.265  0.4564  1.2187  0.5902
 6951TIP3   OH242487   5.953   1.461   7.782 -0.0354  0.4673  0.2545
 6951TIP3    H142488   5.916   1.387   7.734  0.0799  0.7490 -0.2809
 6951TIP3    H242489   5.974   1.425   7.869  1.0040 -0.4145 -0.3287
 6952TIP3   OH242490   1.614   6.731   7.503  0.1710  0.2373  0.2762
 6952TIP3    H142491   1.696   6.781   7.505 -0.9138  2.3006 -1.9976
 6952TIP3    H242492   1.572   6.750   7.587  1.4464  0.1497  0.9532
 6953TIP3   OH242493   2.755   6.784   0.121  0.0946 -0.3711  0.0667
 6953TIP3    H142494   2.846   6.757   0.117  0.9727  2.3104  0.4678
 6953TIP3    H242495   2.731   6.801   0.030  0.4122  0.1217  0.0699
 6954TIP3   OH242496   3.741   2.644   6.672 -0.2452  0.2752  0.3501
 6954TIP3    H142497   3.781   2.731   6.672  0.3023  0.0280  1.3138
 6954TIP3    H242498   3.763   2.608   6.586  0.9561  0.4505  0.5688
 6955TIP3   OH242499   4.899   5.016   7.285 -0.6468  0.0238  0.4640
 6955TIP3    H142500   4.892   5.111   7.288  1.3636  0.2657 -0.8473
 6955TIP3    H242501   4.989   4.997   7.310 -0.5220 -1.4083 -0.8809
 6956TIP3   OH242502   0.600   1.959   1.977  0.2876 -0.6018 -0.1444
 6956TIP3    H142503   0.607   2.035   2.034 -0.6383 -0.5908 -0.0264
 6956TIP3    H242504   0.656   1.893   2.017  0.6841 -0.1558  0.0384
 6957TIP3   OH242505   1.717   2.738   6.648  0.2013 -0.5384  0.3263
 6957TIP3    H142506   1.678   2.668   6.594 -1.7031 -1.2965  2.5311
 6957TIP3    H242507   1.705   2.817   6.596 -0.6777 -1.3586 -0.7897
 6958TIP3   OH242508   0.194   5.239   5.966 -0.4336  0.0529  0.2224
 6958TIP3    H142509   0.143   5.182   6.024  1.2554 -1.6844  0.1133
 6958TIP3    H242510   0.276   5.253   6.013  0.5835 -0.5929 -1.2925
 6959TIP3   OH242511   3.538   6.875   8.029  0.2606 -0.0235 -0.0249
 6959TIP3    H142512   3.473   6.836   8.089 -0.6263 -0.0986 -0.9975
 6959TIP3    H242513   3.619   6.828   8.048  0.0597  0.1199  1.2716
 6960TIP3   OH242514   5.118   5.717   6.706 -0.9490  0.4421  0.3907
 6960TIP3    H142515   5.107   5.625   6.681  1.3789  0.1339  0.2433
 6960TIP3    H242516   5.179   5.714   6.780  0.0458  1.8952 -0.3263
 6961TIP3   OH242517   5.892   1.232   7.628 -0.1826  0.6093 -0.0377
 6961TIP3    H142518   5.903   1.218   7.722  2.8774  0.5516 -0.2937
 6961TIP3    H242519   5.942   1.160   7.588  1.8625  2.7631 -1.6023
 6962TIP3   OH242520   1.546   3.316   0.114 -0.3801  0.3138 -0.3886
 6962TIP3    H142521   1.478   3.287   0.053 -1.0810 -0.7635  0.8507
 6962TIP3    H242522   1.501   3.377   0.173 -0.6266 -1.2652  1.1454
 6963TIP3   OH242523   1.530   3.364   1.475  0.0413  0.2986 -0.6708
 6963TIP3    H142524   1.582   3.330   1.548  1.2453  0.4247 -1.4332
 6963TIP3    H242525   1.460   3.300   1.462  0.8316 -0.6231 -0.5099
 6964TIP3   OH242526   0.963   4.179   8.130 -0.2967 -0.2136  0.2942
 6964TIP3    H142527   0.975   4.139   8.216  1.0473 -0.1580  0.1521
 6964TIP3    H242528   1.044   4.160   8.083 -0.7074  0.4035 -0.7003
 6965TIP3   OH242529   2.435   6.082   0.386 -0.9641  0.6055 -0.7132
 6965TIP3    H142530   2.398   6.033   0.460  1.9158  0.5994  0.8785
 6965TIP3    H242531   2.369   6.148   0.366 -1.8046  0.7804  2.0912
 6966TIP3   OH242532   2.406   6.731   1.977 -0.0874 -0.0078 -0.4611
 6966TIP3    H142533   2.489   6.772   2.001  0.8265 -1.9373 -0.1090
 6966TIP3    H242534   2.432   6.648   1.935 -1.8270 -0.9418  0.2166
 6967TIP3   OH242535   0.219   1.205   0.933 -0.4064 -0.6262  0.7874
 6967TIP3    H142536   0.179   1.292   0.941 -0.9954 -0.7965 -0.1632
 6967TIP3    H242537   0.166   1.149   0.991 -1.3111 -0.7636 -0.1475
 6968TIP3   OH242538   3.905   3.228   7.326 -0.2482 -0.2977  0.1057
 6968TIP3    H142539   3.909   3.275   7.243  0.4578  0.1558  0.3862
 6968TIP3    H242540   3.995   3.199   7.341  0.4807  2.7430  2.4686
 6969TIP3   OH242541   2.250   6.487   6.949  0.4259  0.2226 -0.0390
 6969TIP3    H142542   2.274   6.579   6.942 -2.7728  1.2407  0.9000
 6969TIP3    H242543   2.182   6.484   7.016  0.9189 -2.9646  0.5184
 6970TIP3   OH242544   0.618   6.790   8.293 -0.6377 -0.3305  0.1144
 6970TIP3    H142545   0.625   6.697   8.269 -0.9849 -0.6662  1.2687
 6970TIP3    H242546   0.583   6.789   8.382  1.1595  0.8530  0.8859
 6971TIP3   OH242547   0.266   2.616   0.311  1.1818 -0.8054 -0.2525
 6971TIP3    H142548   0.239   2.650   0.396  1.5393 -2.9957  0.8140
 6971TIP3    H242549   0.184   2.586   0.271  1.2024 -1.4220  0.1395
 6972TIP3   OH242550   3.499   3.272   7.339  0.3514  0.1507 -0.3245
 6972TIP3    H142551   3.472   3.269   7.431  0.9012  1.8082 -0.0826
 6972TIP3    H242552   3.541   3.188   7.324  0.8859  0.1253  1.1518
 6973TIP3   OH242553   4.279   1.901   6.661  0.0345 -0.0795 -0.2267
 6973TIP3    H142554   4.299   1.814   6.697  0.5227 -0.1386 -0.6347
 6973TIP3    H242555   4.363   1.947   6.661 -0.2236  0.4019 -0.0007
 6974TIP3   OH242556   6.349   1.874   0.067  0.0343  0.8315 -0.1328
 6974TIP3    H142557   6.390   1.831  -0.008 -1.5530 -2.5105  0.6958
 6974TIP3    H242558   6.422   1.907   0.119  1.4511 -0.7630 -0.9817
 6975TIP3   OH242559   2.710   0.644   1.154  0.1052  0.3709  0.1138
 6975TIP3    H142560   2.670   0.667   1.238 -0.7870  0.4916 -0.3340
 6975TIP3    H242561   2.710   0.548   1.153 -0.9256  0.3647 -0.2219
 6976TIP3   OH242562   1.103   3.921   0.538  0.2816  0.4392 -0.0229
 6976TIP3    H142563   1.034   3.865   0.503 -0.2886  0.8657  0.4246
 6976TIP3    H242564   1.161   3.935   0.463 -0.0925  0.0569 -0.3931
 6977TIP3   OH242565   5.843   1.864   7.158  0.1309 -0.2523 -0.3504
 6977TIP3    H142566   5.803   1.946   7.187  1.5855 -0.1900  1.7019
 6977TIP3    H242567   5.907   1.891   7.092 -0.3515  0.1074 -0.6750
 6978TIP3   OH242568   1.484   3.761   0.894  0.0200 -0.1563  0.0444
 6978TIP3    H142569   1.536   3.752   0.974  1.1885  0.4835 -0.6224
 6978TIP3    H242570   1.448   3.673   0.879  1.1181 -0.6835  0.3813
 6979TIP3   OH242571   2.289   1.507   0.805 -0.0380 -0.1860  0.2089
 6979TIP3    H142572   2.359   1.572   0.803  1.8202 -2.0405 -2.8609
 6979TIP3    H242573   2.313   1.447   0.875  1.3106 -0.6073 -0.5922
 6980TIP3   OH242574   5.202   1.664   2.028  0.1736  0.5311  0.4863
 6980TIP3    H142575   5.196   1.586   2.083 -1.3128  0.7681  0.6867
 6980TIP3    H242576   5.296   1.674   2.012  0.7539  0.8449  3.5057
 6981TIP3   OH242577   0.640   6.366   8.638  0.4770  0.5376  0.2329
 6981TIP3    H142578   0.697   6.425   8.589  0.3109  1.6308  1.3012
 6981TIP3    H242579   0.691   6.342   8.715  1.2445 -2.1934 -0.9921
 6982TIP3   OH242580   6.868   6.410   8.036  0.4168  0.8147  0.0395
 6982TIP3    H142581   6.835   6.348   7.971  0.7015  0.5553  0.1395
 6982TIP3    H242582   6.872   6.358   8.117 -1.5373  1.5602  0.6657
 6983TIP3   OH242583   4.579   3.590   0.888  0.2954 -0.4762  0.1001
 6983TIP3    H142584   4.580   3.499   0.918 -2.3158 -0.9303 -0.9304
 6983TIP3    H242585   4.488   3.618   0.898  0.4555  1.1391 -2.0742
 6984TIP3   OH242586   2.164   2.228   7.050  0.2251 -0.2779  0.3883
 6984TIP3    H142587   2.218   2.154   7.021 -0.1486  0.2872 -1.9652
 6984TIP3    H242588   2.080   2.189   7.073  0.4713 -0.7447  0.4999
 6985TIP3   OH242589   1.762   4.700   7.112  0.6300  0.3220  0.7997
 6985TIP3    H142590   1.824   4.772   7.105  1.2140 -0.2019  0.5574
 6985TIP3    H242591   1.704   4.711   7.036  0.3389  0.8785  1.0911
 6986TIP3   OH242592   6.873   1.433   8.311 -0.4169  0.7815 -0.0816
 6986TIP3    H142593   6.812   1.360   8.320  0.2347  0.3472  0.9607
 6986TIP3    H242594   6.835   1.502   8.366  1.3871 -0.4397  2.9823
 6987TIP3   OH242595   2.040   6.464   0.505  0.1977 -0.0709 -0.2444
 6987TIP3    H142596   1.980   6.537   0.522 -0.3214 -0.1023 -1.7759
 6987TIP3    H242597   2.014   6.431   0.419  2.6218  0.1565 -1.1653
 6988TIP3   OH242598   3.054   1.051   0.303 -0.0468 -0.1840  0.1676
 6988TIP3    H142599   3.126   1.093   0.255 -0.1228 -0.3518 -0.1011
 6988TIP3    H242600   2.977   1.104   0.282  0.2160  0.7415  1.4719
 6989TIP3   OH242601   3.988   4.112   7.427  0.0336  0.1331  0.3500
 6989TIP3    H142602   3.942   4.178   7.479  0.0671 -1.3482  2.3812
 6989TIP3    H242603   3.928   4.039   7.421  1.4366 -1.2051  1.6560
 6990TIP3   OH242604   5.299   5.358   2.683 -0.3911 -0.0266 -0.6862
 6990TIP3    H142605   5.394   5.355   2.682 -0.3740 -0.9427  0.5194
 6990TIP3    H242606   5.277   5.442   2.723 -0.0415 -0.5424  0.6243
 6991TIP3   OH242607   0.884   3.596   7.729 -0.4031 -0.0283 -0.3443
 6991TIP3    H142608   0.888   3.509   7.770  0.2794  0.7360  1.2770
 6991TIP3    H242609   0.975   3.617   7.710 -0.6379  0.0186 -1.4697
 6992TIP3   OH242610   0.905   5.424   7.029  0.5488  0.7879 -0.2744
 6992TIP3    H142611   0.959   5.501   7.045 -0.2458  1.7614 -1.9345
 6992TIP3    H242612   0.957   5.370   6.970  0.2215  1.1372 -0.8911
 6993TIP3   OH242613   6.696   5.891   1.002 -0.3465 -0.1281  0.5822
 6993TIP3    H142614   6.783   5.873   0.967 -0.6102  0.0769 -0.1946
 6993TIP3    H242615   6.676   5.816   1.057  0.2411 -0.2645  0.6124
 6994TIP3   OH242616   5.712   0.016   1.621  0.0506 -0.1374 -0.5954
 6994TIP3    H142617   5.657   0.046   1.692 -0.6668 -0.0756 -1.1646
 6994TIP3    H242618   5.714  -0.079   1.630 -1.8536 -0.3435 -1.7473
 6995TIP3   OH242619   4.570   2.170   1.398 -0.0263  0.2913 -0.3316
 6995TIP3    H142620   4.546   2.083   1.429 -1.1876  1.0459  1.0038
 6995TIP3    H242621   4.536   2.174   1.308  1.1842 -1.0500 -0.8789
 6996TIP3   OH242622   1.281   3.535   8.530  0.0648 -0.1978  0.4597
 6996TIP3    H142623   1.207   3.479   8.505  0.2172  0.2714 -1.2122
 6996TIP3    H242624   1.249   3.587   8.603 -0.8641 -0.8084  0.5067
 6997TIP3   OH242625   2.987   4.389   2.732 -0.6303  0.0355 -0.4534
 6997TIP3    H142626   3.048   4.373   2.660  1.1831  2.4192  0.4376
 6997TIP3    H242627   2.931   4.311   2.733  1.0768 -1.3458 -2.6161
 6998TIP3   OH242628   2.045   6.140   7.142  0.0793  0.3664  0.0721
 6998TIP3    H142629   2.080   6.155   7.230  1.1594  0.3597 -0.3408
 6998TIP3    H242630   1.950   6.144   7.153  0.1114 -1.4506  1.5857
 6999TIP3   OH242631   4.780   1.035   6.132 -0.7379  0.3197 -0.0079
 6999TIP3    H142632   4.802   0.958   6.080  1.7230  0.7287  0.3241
 6999TIP3    H242633   4.809   1.109   6.078 -0.1983  0.8420  0.9728
 7000TIP3   OH242634   6.255   5.510   1.024  0.2576 -0.3422  0.6001
 7000TIP3    H142635   6.173   5.463   1.037 -0.2954  0.4764  0.1278
 7000TIP3    H242636   6.317   5.443   0.994 -0.8374 -0.5941 -1.2681
 7001TIP3   OH242637   4.992   0.685   0.090  0.6068 -0.3059 -0.3041
 7001TIP3    H142638   4.924   0.752   0.101  0.9627  0.1652 -0.8734
 7001TIP3    H242639   5.030   0.704   0.004  0.8416 -1.1290 -0.3863
 7002TIP3   OH242640   1.725   0.856   2.159 -0.1748  0.0917  0.1366
 7002TIP3    H142641   1.806   0.877   2.113  0.1748  1.5447  1.3058
 7002TIP3    H242642   1.751   0.798   2.230  0.5942  3.2402  2.6799
 7003TIP3   OH242643   5.085   0.338   6.359  0.0653  0.2909 -0.3201
 7003TIP3    H142644   5.123   0.348   6.272  0.9698 -0.2900 -0.0063
 7003TIP3    H242645   5.090   0.244   6.376  1.6350  0.5864  1.1086
 7004TIP3   OH242646   2.956   5.057   1.032 -0.1805 -0.2330  0.0578
 7004TIP3    H142647   2.934   5.028   0.943  0.4122 -1.1258  0.1831
 7004TIP3    H242648   2.995   4.980   1.073 -0.1311  0.2720  0.9853
 7005TIP3   OH242649   5.246   0.806   1.013  0.2878  0.2869  0.3092
 7005TIP3    H142650   5.244   0.717   1.047  1.8378  0.3741  0.7207
 7005TIP3    H242651   5.187   0.855   1.070 -1.3191 -0.6385 -0.5033
 7006TIP3   OH242652   2.839   3.392   8.594  0.3052  0.4066  0.3618
 7006TIP3    H142653   2.782   3.427   8.526  0.9769  0.8819  0.0287
 7006TIP3    H242654   2.814   3.300   8.602 -0.1370  0.4800 -0.1476
 7007TIP3   OH242655   5.081   5.679   7.933 -0.0729  0.6062 -0.2767
 7007TIP3    H142656   5.017   5.612   7.908  0.8934  0.3274 -2.1853
 7007TIP3    H242657   5.049   5.714   8.016 -0.1322 -2.9059  1.3576
 7008TIP3   OH242658   5.512   5.542   6.148 -0.0756 -0.5467 -0.4062
 7008TIP3    H142659   5.489   5.617   6.203 -0.1654  0.3680 -1.6353
 7008TIP3    H242660   5.558   5.581   6.073 -1.3236 -1.5526 -1.7468
 7009TIP3   OH242661   1.860   5.432   1.356 -0.3290 -0.4124 -0.2402
 7009TIP3    H142662   1.870   5.350   1.308  0.4228 -1.9659  2.3690
 7009TIP3    H242663   1.941   5.480   1.339  0.0268 -1.0350 -0.2938
 7010TIP3   OH242664   5.352   3.574   0.665 -0.4075  0.6925 -0.1564
 7010TIP3    H142665   5.285   3.566   0.734  0.5316  0.0752  0.7162
 7010TIP3    H242666   5.335   3.501   0.607 -0.5610  0.6013  0.0013
 7011TIP3   OH242667   4.719   2.881   1.319 -0.2291 -0.0551 -0.2404
 7011TIP3    H142668   4.666   2.854   1.394  0.6487 -1.1938 -0.0102
 7011TIP3    H242669   4.748   2.969   1.342  0.8943 -0.7702  1.2779
 7012TIP3   OH242670   0.256   4.775   7.480 -0.1650 -0.0902 -0.0560
 7012TIP3    H142671   0.266   4.759   7.574  0.9579 -0.4256 -0.2148
 7012TIP3    H242672   0.334   4.824   7.455  0.0726 -0.9168 -1.0041
 7013TIP3   OH242673   4.700   0.763   7.624 -0.1205  0.3779  0.7278
 7013TIP3    H142674   4.606   0.747   7.630 -0.0778  0.5651  2.7240
 7013TIP3    H242675   4.737   0.720   7.701  1.4068  0.5437  0.1357
 7014TIP3   OH242676   4.554   3.071   1.116 -0.3836 -0.8189  0.0032
 7014TIP3    H142677   4.592   2.993   1.156 -0.0200 -1.2811 -1.1754
 7014TIP3    H242678   4.459   3.056   1.120 -0.3469 -0.9461  0.4907
 7015TIP3   OH242679   6.134   2.437   8.290 -0.3378  0.0793 -0.5391
 7015TIP3    H142680   6.090   2.410   8.371 -0.6926  1.5942 -0.1969
 7015TIP3    H242681   6.065   2.431   8.223 -0.2340 -0.4935 -0.5981
 7016TIP3   OH242682   5.798   5.446   7.933 -0.1061 -0.2166 -0.5545
 7016TIP3    H142683   5.824   5.357   7.955 -0.0366 -0.3088 -1.0000
 7016TIP3    H242684   5.719   5.435   7.878 -0.3080  0.0076 -0.3099
 7017TIP3   OH242685   1.153   4.076   7.917 -0.2240 -0.4754 -0.4211
 7017TIP3    H142686   1.092   4.030   7.860 -1.6902 -2.9132  2.7785
 7017TIP3    H242687   1.234   4.026   7.912 -0.7237 -1.4080  0.4295
 7018TIP3   OH242688   1.888   2.618   1.576  0.1486  0.1453  0.5338
 7018TIP3    H142689   1.917   2.654   1.660 -0.0338  0.1659  0.5877
 7018TIP3    H242690   1.877   2.524   1.593 -1.3474  0.3770  0.9389
 7019TIP3   OH242691   0.844   0.784   0.660 -0.4864 -0.1698  0.1788
 7019TIP3    H142692   0.856   0.773   0.754  0.2733  1.8091  0.3625
 7019TIP3    H242693   0.783   0.715   0.635  0.2369 -1.4967  1.8911
 7020TIP3   OH242694   4.476   5.570   1.236 -0.1013  0.7125 -0.0116
 7020TIP3    H142695   4.476   5.630   1.311  1.1883  0.2574  0.3890
 7020TIP3    H242696   4.436   5.620   1.165 -0.8224  1.3542  0.8214
 7021TIP3   OH242697   2.178   6.797   5.936 -0.7195 -0.3272 -0.0459
 7021TIP3    H142698   2.099   6.772   5.983  0.0735 -0.8778  1.0256
 7021TIP3    H242699   2.248   6.796   6.002 -0.1021  1.8357 -0.5825
 7022TIP3   OH242700   2.732   2.079   6.802 -0.0823  0.1972 -0.3716
 7022TIP3    H142701   2.806   2.044   6.753 -0.8314 -1.5711 -0.3022
 7022TIP3    H242702   2.665   2.011   6.797 -0.8367  0.7209  1.5814
 7023TIP3   OH242703   0.280   2.019   1.040  0.9127  0.1207  0.0618
 7023TIP3    H142704   0.297   2.112   1.024  2.1145  0.4012  2.5011
 7023TIP3    H242705   0.194   2.017   1.082  1.6584  0.3859  1.6818
 7024TIP3   OH242706   0.460   4.654   0.446 -0.2391 -0.2248  0.0177
 7024TIP3    H142707   0.428   4.658   0.536 -1.4315 -0.3705 -0.3715
 7024TIP3    H242708   0.395   4.601   0.400  1.6186 -2.2498 -0.4376
 7025TIP3   OH242709   3.787   3.292   7.590  0.1056  0.7435  0.3032
 7025TIP3    H142710   3.866   3.242   7.569  0.4437  1.5452 -0.4306
 7025TIP3    H242711   3.745   3.307   7.505 -1.0342  0.0355  0.7205
 7026TIP3   OH242712   4.659   0.549   6.696  0.2882  0.2222 -0.2068
 7026TIP3    H142713   4.732   0.607   6.718 -0.1394  0.8126 -0.3115
 7026TIP3    H242714   4.608   0.599   6.632  0.1541 -0.4568 -0.6369
 7027TIP3   OH242715   2.768   0.595   6.887 -0.1230  0.2169  0.3984
 7027TIP3    H142716   2.685   0.557   6.917  0.0387 -1.1219 -0.7746
 7027TIP3    H242717   2.819   0.521   6.855  0.5254  1.3028 -1.2246
 7028TIP3   OH242718   5.668   3.312   6.853 -0.0727 -0.4748 -0.0464
 7028TIP3    H142719   5.750   3.326   6.805  0.5078  0.0448  1.0640
 7028TIP3    H242720   5.620   3.393   6.842 -0.2838 -0.6424 -0.3846
 7029TIP3   OH242721   5.264   4.409   8.219 -0.0490  0.0482  0.1044
 7029TIP3    H142722   5.205   4.383   8.290  0.4923  2.7344  1.6865
 7029TIP3    H242723   5.229   4.492   8.188  0.9378 -0.0495 -1.3502
 7030TIP3   OH242724   4.070   5.721   8.603  0.7348 -0.3899 -0.1842
 7030TIP3    H142725   4.034   5.799   8.560 -0.6309 -1.0657 -0.2992
 7030TIP3    H242726   4.097   5.752   8.689 -0.7018  0.0280  0.1435
 7031TIP3   OH242727   3.403   2.070   6.263  0.1230  0.2116  0.0369
 7031TIP3    H142728   3.331   2.032   6.212  0.4774 -1.7125  0.8471
 7031TIP3    H242729   3.403   2.163   6.241 -1.0679 -0.1817 -1.8080
 7032TIP3   OH242730   0.198   1.602   0.759 -0.2239 -0.4854 -0.2389
 7032TIP3    H142731   0.272   1.582   0.701 -1.4712 -1.8904 -1.4288
 7032TIP3    H242732   0.236   1.655   0.828  1.4986  0.6429 -1.9389
 7033TIP3   OH242733   2.819   5.577   6.347 -0.0650 -0.1910  0.3945
 7033TIP3    H142734   2.813   5.636   6.422 -1.2109  1.8226 -1.1624
 7033TIP3    H242735   2.891   5.612   6.294 -1.6621  0.8496 -1.2596
 7034TIP3   OH242736   5.073   6.361   6.743 -0.3375 -0.0547  0.1569
 7034TIP3    H142737   5.119   6.357   6.659 -1.0659  1.3623 -0.3409
 7034TIP3    H242738   5.090   6.450   6.775  0.0853 -0.6236  1.6264
 7035TIP3   OH242739   2.071   5.234   0.372 -1.0961  0.1637 -0.0924
 7035TIP3    H142740   2.040   5.146   0.393  0.1509 -0.1003  0.7500
 7035TIP3    H242741   1.991   5.287   0.364 -1.8175 -0.8624  0.2183
 7036TIP3   OH242742   4.308   4.851   2.093 -0.2729  0.3363 -0.6262
 7036TIP3    H142743   4.375   4.920   2.096 -0.0636  0.1111 -0.0544
 7036TIP3    H242744   4.332   4.791   2.163 -0.4457 -0.3341 -1.1363
 7037TIP3   OH242745   2.255   5.527   7.181 -0.7128 -0.7611 -0.2525
 7037TIP3    H142746   2.322   5.586   7.147  0.1518 -2.2813 -1.3255
 7037TIP3    H242747   2.287   5.503   7.268 -1.4742  0.9200  0.5238
 7038TIP3   OH242748   2.267   3.706   1.105 -0.4801 -0.1077  0.1021
 7038TIP3    H142749   2.261   3.685   1.198 -1.8874  0.4794  0.1693
 7038TIP3    H242750   2.277   3.621   1.061 -0.6325 -0.4508  0.7255
 7039TIP3   OH242751   3.573   4.886   0.578 -1.3139 -0.2943  0.0571
 7039TIP3    H142752   3.617   4.840   0.506 -2.1967 -2.5053  0.8352
 7039TIP3    H242753   3.539   4.966   0.538 -1.9128 -1.5161 -2.0751
 7040TIP3   OH242754   6.506   1.516   0.605 -0.4913 -0.0239  0.9049
 7040TIP3    H142755   6.517   1.611   0.598  1.0944 -0.1707  1.0319
 7040TIP3    H242756   6.582   1.479   0.560  0.0022 -1.2020  2.5920
 7041TIP3   OH242757   4.009   3.759   8.026  0.3760  0.2253 -0.1506
 7041TIP3    H142758   4.001   3.834   7.967 -0.7364  0.0903 -0.1925
 7041TIP3    H242759   3.919   3.730   8.039  0.7680 -0.8870  0.1456
 7042TIP3   OH242760   0.310   5.078   7.544 -0.0683 -0.1944  0.5248
 7042TIP3    H142761   0.309   5.164   7.502  0.9980 -0.9745 -1.2342
 7042TIP3    H242762   0.372   5.027   7.492 -0.7397 -2.0626  1.4631
 7043TIP3   OH242763   2.067   6.508   7.138  0.3062 -0.5204  0.8005
 7043TIP3    H142764   2.047   6.571   7.207 -2.4385 -0.6984  0.2904
 7043TIP3    H242765   2.046   6.423   7.177 -0.5047 -0.6886  0.0190
 7044TIP3   OH242766   2.528   0.079   0.534  0.7050 -0.3353 -0.8288
 7044TIP3    H142767   2.475   0.110   0.607  3.4462 -1.1303  1.6960
 7044TIP3    H242768   2.602   0.140   0.530  0.2156  0.1932 -3.5778
 7045TIP3   OH242769   5.686   2.084   5.860  0.3852 -0.2180  0.2718
 7045TIP3    H142770   5.642   2.087   5.776  1.0530 -1.0450 -0.1220
 7045TIP3    H242771   5.643   2.013   5.908  0.2399  0.0195  0.4998
 7046TIP3   OH242772   4.228   5.032   1.618 -0.2071 -0.7641  0.2103
 7046TIP3    H142773   4.195   4.973   1.685  0.1205  0.2289  1.2714
 7046TIP3    H242774   4.304   5.074   1.658 -0.5454  0.5181 -0.4266
 7047TIP3   OH242775   5.532   2.069   1.684  0.4481  0.5331 -0.5641
 7047TIP3    H142776   5.508   2.142   1.627  0.8463 -0.0870 -1.5692
 7047TIP3    H242777   5.627   2.060   1.672  0.2196 -1.0290 -1.5977
 7048TIP3   OH242778   6.184   6.131   0.188  0.7799 -0.5532  0.0549
 7048TIP3    H142779   6.103   6.162   0.148  0.3276  0.4676  1.6563
 7048TIP3    H242780   6.174   6.151   0.281  2.2256 -1.8477  0.5294
 7049TIP3   OH242781   5.619   4.023   6.464 -0.3135  0.1147  0.3475
 7049TIP3    H142782   5.635   4.041   6.371 -0.5865 -1.9042 -0.1367
 7049TIP3    H242783   5.689   4.070   6.509  0.3912  0.3797 -0.9481
 7050TIP3   OH242784   0.966   1.395   8.108  0.2649  0.3153  0.3652
 7050TIP3    H142785   0.996   1.482   8.134 -0.3660  0.0250  2.2090
 7050TIP3    H242786   0.883   1.383   8.155  0.9090 -1.7224  1.1013
 7051TIP3   OH242787   4.901   3.057   8.644 -0.5176 -0.1544  0.1683
 7051TIP3    H142788   4.902   3.002   8.721  0.2505  0.0330  0.2948
 7051TIP3    H242789   4.945   3.006   8.576 -0.3905  0.0428  0.1019
 7052TIP3   OH242790   1.168   5.726   8.550  0.4518  0.1391  0.5588
 7052TIP3    H142791   1.180   5.633   8.569 -0.9992  0.2960  2.5042
 7052TIP3    H242792   1.130   5.727   8.462 -1.4269 -1.2728  1.2965
 7053TIP3   OH242793   0.491   1.333   0.199  0.1773  0.6642 -0.0358
 7053TIP3    H142794   0.478   1.347   0.292 -1.2389  2.6464 -0.4795
 7053TIP3    H242795   0.506   1.239   0.191 -0.1484  0.3797  2.1214
 7054TIP3   OH242796   2.911   0.528   1.437  0.1351 -0.1161  0.2687
 7054TIP3    H142797   2.901   0.622   1.453 -0.9456 -0.4311  1.6632
 7054TIP3    H242798   2.867   0.486   1.511 -0.2565 -1.7359 -0.8217
 7055TIP3   OH242799   0.183   2.683   6.453  0.2423  0.1464 -0.5425
 7055TIP3    H142800   0.179   2.763   6.401  0.3578 -0.2921 -1.2386
 7055TIP3    H242801   0.277   2.669   6.466  0.2301  0.0010 -0.6138
 7056TIP3   OH242802   5.466   5.471   1.306 -0.4922  0.2654  0.0154
 7056TIP3    H142803   5.523   5.539   1.272 -0.8909  0.9524  0.6818
 7056TIP3    H242804   5.493   5.391   1.261 -0.0350  0.8709 -0.7897
 7057TIP3   OH242805   5.520   3.472   1.174  0.2687 -0.4246 -0.2988
 7057TIP3    H142806   5.471   3.523   1.109 -2.1730 -1.7690  0.3392
 7057TIP3    H242807   5.565   3.537   1.227 -3.1501  1.2793  0.8296
 7058TIP3   OH242808   5.260   3.835   1.137 -0.4881  0.0860 -0.0555
 7058TIP3    H142809   5.330   3.885   1.095  0.9289 -2.6129 -1.1001
 7058TIP3    H242810   5.194   3.901   1.158  1.9452  2.6391  0.2227
 7059TIP3   OH242811   0.556   4.689   7.741 -0.0973  0.4456 -0.9073
 7059TIP3    H142812   0.616   4.721   7.674 -1.0328  2.0067 -1.0509
 7059TIP3    H242813   0.478   4.743   7.732 -0.4544  0.3673  1.0918
 7060TIP3   OH242814   4.412   5.921   7.651 -0.6826  0.6785 -0.2408
 7060TIP3    H142815   4.324   5.942   7.621 -1.1658  1.8778  1.8320
 7060TIP3    H242816   4.469   5.984   7.605 -0.5273 -1.2795 -3.0381
 7061TIP3   OH242817   4.129   5.805   0.221 -0.2300 -0.0189 -0.3252
 7061TIP3    H142818   4.122   5.710   0.230  4.7397 -0.6640 -0.0474
 7061TIP3    H242819   4.150   5.835   0.309 -0.5434  1.1760 -0.6459
 7062TIP3   OH242820   3.721   5.425   7.378 -0.3723  0.3112 -0.0229
 7062TIP3    H142821   3.685   5.461   7.297 -2.6506 -0.4476  0.5841
 7062TIP3    H242822   3.741   5.502   7.432 -2.6548  0.8003  0.2134
 7063TIP3   OH242823   5.809   4.732   8.346 -0.0220 -0.1397 -0.6490
 7063TIP3    H142824   5.772   4.673   8.411 -1.2540 -1.0079 -2.1063
 7063TIP3    H242825   5.797   4.819   8.384  0.1080 -0.6654  0.6703
 7064TIP3   OH242826   1.603   3.074   1.132 -0.1574 -0.3305  0.0210
 7064TIP3    H142827   1.679   3.097   1.079  1.1236  0.2696  2.0133
 7064TIP3    H242828   1.574   3.157   1.169 -0.8091 -0.7875  0.5559
 7065TIP3   OH242829   5.315   6.627   6.465 -0.7077  0.0794 -0.8648
 7065TIP3    H142830   5.301   6.638   6.371  0.7397  0.2194 -1.0778
 7065TIP3    H242831   5.301   6.714   6.502 -0.8623  0.1141 -1.0048
 7066TIP3   OH242832   0.936   4.992   7.983 -0.6182 -0.5196  0.2087
 7066TIP3    H142833   0.951   5.011   7.890 -1.2364 -1.1849 -0.0336
 7066TIP3    H242834   0.980   4.908   7.997 -1.2271 -0.8225  0.3147
 7067TIP3   OH242835   4.900   2.031   8.207  0.5834 -0.3827 -0.3097
 7067TIP3    H142836   4.970   2.026   8.272  0.0633  1.9526  0.5251
 7067TIP3    H242837   4.942   2.068   8.129  0.1686  2.0582  0.5357
 7068TIP3   OH242838   2.033   1.896   2.177  0.2972 -0.1845  0.1066
 7068TIP3    H142839   2.026   1.852   2.092 -1.9695  1.6494 -0.7767
 7068TIP3    H242840   1.984   1.978   2.165  2.5723  1.6181  2.2743
 7069TIP3   OH242841   5.071   4.885   6.464 -0.2027 -0.6438  0.5061
 7069TIP3    H142842   5.104   4.910   6.378 -0.3737 -0.6526  0.4378
 7069TIP3    H242843   4.977   4.900   6.459 -0.2425 -0.8570  0.6176
 7070TIP3   OH242844   3.907   4.837   0.243 -0.0504  0.0782  0.3592
 7070TIP3    H142845   3.995   4.859   0.212 -0.3522 -0.3107 -0.8311
 7070TIP3    H242846   3.902   4.742   0.234 -0.1783 -0.0444  1.5768
 7071TIP3   OH242847   4.810   1.095   7.366 -0.6285 -0.1711 -0.0691
 7071TIP3    H142848   4.866   1.046   7.306 -1.0902  2.7837 -3.2428
 7071TIP3    H242849   4.758   1.028   7.411  0.3036 -2.6559 -2.4237
 7072TIP3   OH242850   2.180   0.983   7.729 -0.5416  0.0028  0.0534
 7072TIP3    H142851   2.127   0.960   7.805 -0.0403  0.4869  0.5527
 7072TIP3    H242852   2.162   1.076   7.714 -0.9077 -0.1684 -0.6438
 7073TIP3   OH242853   1.711   4.027   6.060 -0.0196 -0.8206 -0.4356
 7073TIP3    H142854   1.775   3.982   6.115  0.7729 -0.1271 -0.7822
 7073TIP3    H242855   1.756   4.105   6.029 -1.8063  0.9696  1.2478
 7074TIP3   OH242856   5.436   6.693   1.914 -0.1026 -0.0169  0.3711
 7074TIP3    H142857   5.452   6.767   1.854  0.1403 -1.0309 -0.8484
 7074TIP3    H242858   5.341   6.682   1.912  0.0027 -0.8807 -0.8912
 7075TIP3   OH242859   0.590   6.485   0.986 -0.4412  0.7253  0.2152
 7075TIP3    H142860   0.517   6.534   1.023 -0.0034  1.2733  0.3643
 7075TIP3    H242861   0.668   6.531   1.016 -0.0060 -0.2105  0.5773
 7076TIP3   OH242862   2.527   6.461   1.122  0.0940  0.1961 -0.0008
 7076TIP3    H142863   2.562   6.526   1.183  1.0632  0.1917 -0.5408
 7076TIP3    H242864   2.446   6.500   1.089 -0.1550  0.4337  0.8554
 7077TIP3   OH242865   5.378   6.247   0.359  0.5996  0.7738  0.0798
 7077TIP3    H142866   5.457   6.200   0.332  1.1789  2.2204 -0.9046
 7077TIP3    H242867   5.307   6.204   0.310  0.5654 -1.1484  1.6828
 7078TIP3   OH242868   3.863   5.795   7.249  0.6974 -0.7173  0.2234
 7078TIP3    H142869   3.864   5.710   7.205  0.6693 -2.7148  3.6862
 7078TIP3    H242870   3.923   5.785   7.323 -0.3841  1.7886  1.5948
 7079TIP3   OH242871   0.109   1.580   7.824  0.1283 -0.0819  0.4796
 7079TIP3    H142872   0.074   1.575   7.913  1.2704  0.2943  0.9653
 7079TIP3    H242873   0.202   1.562   7.834  0.0075 -1.7048 -0.8538
 7080TIP3   OH242874   5.244   6.018   1.477  0.2858 -0.3054  0.3106
 7080TIP3    H142875   5.296   6.096   1.455  0.1568 -0.3709 -0.2466
 7080TIP3    H242876   5.293   5.976   1.547  0.3776  0.2559  0.5948
 7081TIP3   OH242877   1.294   1.408   6.275 -0.1066  0.2153 -0.4667
 7081TIP3    H142878   1.279   1.388   6.183 -0.5407 -2.6626  0.1379
 7081TIP3    H242879   1.302   1.322   6.317 -0.4007  1.4239  2.2477
 7082TIP3   OH242880   6.778   6.645   6.194  0.0778 -0.2483 -0.1435
 7082TIP3    H142881   6.763   6.679   6.106  1.7536  0.8930 -0.0277
 7082TIP3    H242882   6.839   6.706   6.234  1.5005 -2.1914  0.8670
 7083TIP3   OH242883   4.281   1.674   6.292  0.2450  0.3659 -0.4801
 7083TIP3    H142884   4.232   1.745   6.332  0.0576 -0.1211  0.1773
 7083TIP3    H242885   4.355   1.717   6.249  0.1866  0.9538 -0.0115
 7084TIP3   OH242886   2.918   5.636   2.031  0.5511 -0.2587  0.1423
 7084TIP3    H142887   2.916   5.561   2.091  1.0853 -0.5014 -0.1399
 7084TIP3    H242888   2.948   5.709   2.086 -1.7527  0.2182  0.8995
 7085TIP3   OH242889   1.634   0.438   0.456  0.0611  0.5881 -0.3082
 7085TIP3    H142890   1.542   0.459   0.438  0.2300  2.0805  0.4471
 7085TIP3    H242891   1.653   0.483   0.538  1.3007 -0.2393 -0.1206
 7086TIP3   OH242892   4.612   5.699   8.618  0.7894  0.7966 -0.8990
 7086TIP3    H142893   4.550   5.750   8.670 -0.6726  0.2474 -2.0329
 7086TIP3    H242894   4.566   5.617   8.600  1.2780  0.9108 -2.9278
 7087TIP3   OH242895   4.699   0.699   0.556 -0.7523 -0.3502  0.2833
 7087TIP3    H142896   4.746   0.782   0.554  1.4818 -1.4910  1.3935
 7087TIP3    H242897   4.660   0.696   0.644 -1.8061 -0.0123 -0.1557
 7088TIP3   OH242898   6.769   4.953   1.108  0.0753  0.4311  1.0401
 7088TIP3    H142899   6.837   4.928   1.046  0.7302  1.0600  1.5016
 7088TIP3    H242900   6.728   5.030   1.069 -2.0601 -1.3384 -0.4674
 7089TIP3   OH242901   1.788   2.254   6.978 -0.3442  0.5686  0.1418
 7089TIP3    H142902   1.734   2.175   6.975 -1.7857  1.5320 -0.4970
 7089TIP3    H242903   1.804   2.269   7.071 -1.1571  0.2468  0.3361
 7090TIP3   OH242904   5.029   0.416   8.309  0.5964  0.3728  0.8349
 7090TIP3    H142905   5.029   0.406   8.404  1.5188  0.3782  0.8435
 7090TIP3    H242906   4.990   0.502   8.294 -1.4902 -0.4674  1.0818
 7091TIP3   OH242907   0.316   0.276   8.064  0.4001 -0.6197  0.3404
 7091TIP3    H142908   0.362   0.360   8.061  0.8824 -0.8425  1.1508
 7091TIP3    H242909   0.368   0.222   8.123 -0.3084 -1.2482  0.4116
 7092TIP3   OH242910   5.874   4.419   8.417 -0.5594 -0.3513 -0.5385
 7092TIP3    H142911   5.818   4.406   8.340 -1.8073 -0.4224  0.3498
 7092TIP3    H242912   5.820   4.392   8.491  0.6555 -0.3896  0.3652
 7093TIP3   OH242913   4.610   4.421   7.908 -0.7152 -0.4096 -0.0911
 7093TIP3    H142914   4.533   4.464   7.947 -0.8535 -2.0684  1.6111
 7093TIP3    H242915   4.684   4.467   7.947 -0.7772  1.0247 -1.5420
 7094TIP3   OH242916   6.018   1.483   6.085  0.0864  0.5010 -0.4069
 7094TIP3    H142917   6.061   1.398   6.085 -2.0782 -0.6786  0.4663
 7094TIP3    H242918   6.047   1.524   6.004  1.8966 -0.6757 -0.4045
 7095TIP3   OH242919   2.452   5.076   7.627 -0.0309 -0.4547 -0.2089
 7095TIP3    H142920   2.498   5.105   7.548  0.4336  2.6243  1.0507
 7095TIP3    H242921   2.515   5.092   7.697 -1.7148  0.3254  1.1702
 7096TIP3   OH242922   2.913   0.678   7.186  0.7033 -0.0121 -0.1744
 7096TIP3    H142923   2.959   0.753   7.225  0.8698  0.0937 -0.5703
 7096TIP3    H242924   2.898   0.619   7.259 -1.7824  1.5407  0.6855
 7097TIP3   OH242925   2.578   6.523   7.925  0.1294  0.0454  0.0704
 7097TIP3    H142926   2.516   6.535   7.997 -2.1534  0.5900 -1.8616
 7097TIP3    H242927   2.581   6.608   7.881  2.7225  0.1925  0.3814
 7098TIP3   OH242928   5.383   4.895   8.101 -0.1571  0.4016 -1.0012
 7098TIP3    H142929   5.353   4.812   8.138 -0.0241  0.9317  0.3596
 7098TIP3    H242930   5.313   4.957   8.122 -0.2699  0.6288 -2.0333
 7099TIP3   OH242931   1.330   2.635   7.970 -0.2018 -0.3998 -0.0858
 7099TIP3    H142932   1.277   2.699   8.018  2.3317  0.4999  1.7297
 7099TIP3    H242933   1.373   2.686   7.901  0.1633 -0.5856  0.0011
 7100TIP3   OH242934   2.139   6.265   7.593 -0.5603  0.0141  0.4227
 7100TIP3    H142935   2.143   6.231   7.683  2.2035  0.7009  0.6732
 7100TIP3    H242936   2.226   6.302   7.579 -1.6101  1.8472 -1.8276
 7101TIP3   OH242937   5.213   4.686   6.634 -0.3416 -0.0079  0.3133
 7101TIP3    H142938   5.186   4.770   6.596  0.2282  0.2973  0.5830
 7101TIP3    H242939   5.239   4.633   6.558 -2.0537 -0.4544 -0.0053
 7102TIP3   OH242940   1.756   1.978   6.977  0.5275  0.6314  0.0280
 7102TIP3    H142941   1.712   1.968   7.061  0.8443 -0.1993  0.1046
 7102TIP3    H242942   1.770   1.888   6.947 -1.1868  0.8854 -1.7662
 7103TIP3   OH242943   0.432   3.445   2.411 -0.5451 -0.5635  0.0245
 7103TIP3    H142944   0.339   3.450   2.391 -0.2632 -0.0920 -1.2720
 7103TIP3    H242945   0.458   3.357   2.384 -0.4595 -0.4271 -0.3408
 7104TIP3   OH242946   2.954   6.434   7.616 -0.6472  0.0822 -0.1620
 7104TIP3    H142947   2.902   6.492   7.560 -0.3991  1.3684  0.8706
 7104TIP3    H242948   3.045   6.459   7.597 -0.5210 -0.2043  0.0612
 7105TIP3   OH242949   3.779   1.083   7.094 -0.6320 -0.2448  0.2915
 7105TIP3    H142950   3.755   1.171   7.063  0.4980 -0.1366 -0.3075
 7105TIP3    H242951   3.791   1.094   7.188  1.2792  0.6834 -0.0168
 7106TIP3   OH242952   1.282   1.412   7.568 -0.4197 -0.0952  0.1492
 7106TIP3    H142953   1.351   1.361   7.611  1.0382  0.0136 -1.8853
 7106TIP3    H242954   1.236   1.348   7.512 -0.1680  0.3348 -0.5640
 7107TIP3   OH242955   1.835   1.184   6.786 -0.2385 -0.2280 -0.5484
 7107TIP3    H142956   1.915   1.233   6.804 -0.2309 -0.5166  0.2112
 7107TIP3    H242957   1.781   1.196   6.865 -0.5146 -0.8904 -0.6341
 7108TIP3   OH242958   6.758   2.092   8.108 -0.6858  0.0534  0.0238
 7108TIP3    H142959   6.745   2.164   8.046  2.0114  1.7929  1.3022
 7108TIP3    H242960   6.745   2.132   8.194  2.7068 -0.3861  0.8723
 7109TIP3   OH242961   2.589   2.595   1.584  0.0272 -0.1903 -0.3619
 7109TIP3    H142962   2.546   2.545   1.653  0.9629  0.4718  0.7502
 7109TIP3    H242963   2.525   2.660   1.557 -0.0555  0.0960  0.5065
 7110TIP3   OH242964   2.881   3.982   0.872 -0.0733  0.0201  0.6396
 7110TIP3    H142965   2.902   3.937   0.954 -1.1448 -0.5176  0.6311
 7110TIP3    H242966   2.823   3.921   0.825 -0.7173  0.9749  0.1666
 7111TIP3   OH242967   4.529   3.928   7.998  0.6221 -0.3967  0.1841
 7111TIP3    H142968   4.446   3.900   8.037  0.3663  0.1715  0.0619
 7111TIP3    H242969   4.584   3.849   7.998  0.3490 -0.5963  0.9673
 7112TIP3   OH242970   1.396   4.583   0.786  0.4194  0.4646 -0.1611
 7112TIP3    H142971   1.416   4.601   0.878  1.1862  1.1497 -0.4490
 7112TIP3    H242972   1.319   4.637   0.767 -1.4735 -1.7398  0.7938
 7113TIP3   OH242973   0.034   6.227   8.237  0.5358 -0.3631  0.4130
 7113TIP3    H142974  -0.001   6.147   8.199 -2.6968  1.4469 -0.7926
 7113TIP3    H242975   0.122   6.235   8.199 -0.4541 -1.4761 -2.3608
 7114TIP3   OH242976   4.062   5.302   8.621  0.0808 -0.2165 -0.4474
 7114TIP3    H142977   4.020   5.369   8.566  0.7053 -0.4854 -1.2743
 7114TIP3    H242978   4.068   5.225   8.565  1.0769 -0.3836 -0.1399
 7115TIP3   OH242979   1.487   1.692   7.215  0.3368 -0.2285  0.3905
 7115TIP3    H142980   1.504   1.731   7.301 -0.4784 -0.6252  0.7430
 7115TIP3    H242981   1.479   1.767   7.156  2.6923  0.0104  0.2811
 7116TIP3   OH242982   6.888   4.181   8.314  0.5606  0.0091  0.0947
 7116TIP3    H142983   6.879   4.272   8.343 -0.1682 -0.1370  0.3399
 7116TIP3    H242984   6.857   4.129   8.388  0.5591 -0.4287 -0.2115
 7117TIP3   OH242985   1.703   3.816   6.847  0.4832 -0.1796  0.2110
 7117TIP3    H142986   1.729   3.737   6.893  0.0684 -0.2759  0.2841
 7117TIP3    H242987   1.783   3.846   6.804  0.9436  0.0306  1.1654
 7118TIP3   OH242988   1.299   5.674   7.443 -0.2853  0.0590  0.0167
 7118TIP3    H142989   1.306   5.740   7.373 -1.7111  1.8958  1.5135
 7118TIP3    H242990   1.390   5.648   7.459  0.4011  2.0267 -0.3293
 7119TIP3   OH242991   1.792   6.254   7.719  0.1945 -0.1048  0.0349
 7119TIP3    H142992   1.698   6.271   7.717 -0.1163 -1.4122  1.5149
 7119TIP3    H242993   1.832   6.341   7.722 -0.9671  0.4661 -0.4236
 7120TIP3   OH242994   5.983   4.489   0.891 -0.1611 -0.4216  0.2429
 7120TIP3    H142995   5.894   4.489   0.856  0.1588 -0.4694 -0.5832
 7120TIP3    H242996   5.981   4.425   0.962 -0.7802 -0.4318  0.2201
 7121TIP3   OH242997   2.198   1.039   0.594  0.2084  0.0914 -0.3414
 7121TIP3    H142998   2.157   1.000   0.517  1.8389  1.2589 -1.8805
 7121TIP3    H242999   2.213   1.130   0.570  1.3255  0.3317  1.1173
 7122TIP3   OH243000   0.598   0.484   7.102 -0.1326  0.2046  0.0518
 7122TIP3    H143001   0.509   0.495   7.068 -0.4298  1.1651  1.0801
 7122TIP3    H243002   0.596   0.403   7.152 -0.5589  0.4605  0.4520
 7123TIP3   OH243003   4.329   4.964   7.616  0.5498  0.1207  0.3059
 7123TIP3    H143004   4.340   4.885   7.670  3.5597 -0.5104 -1.0519
 7123TIP3    H243005   4.334   5.036   7.678 -1.5747 -0.6323  1.4902
 7124TIP3   OH243006   1.276   6.733   0.039  0.2255 -0.0225 -0.1935
 7124TIP3    H143007   1.227   6.694   0.111  0.9593 -1.2002 -0.3176
 7124TIP3    H243008   1.213   6.740  -0.032  0.4091 -2.3571 -0.6482
 7125TIP3   OH243009   4.215   0.524   7.184  0.3192  0.0656 -0.1214
 7125TIP3    H143010   4.135   0.576   7.181  0.8582  0.8770 -0.5588
 7125TIP3    H243011   4.282   0.584   7.215  0.8685 -0.4734 -0.2462
 7126TIP3   OH243012   1.560   3.043   7.308 -0.2051 -0.1936  0.9152
 7126TIP3    H143013   1.644   3.043   7.262 -0.0718  1.7675  1.0954
 7126TIP3    H243014   1.581   3.014   7.397  0.2031 -0.1092  0.8470
 7127TIP3   OH243015   2.955   1.878   8.511  0.4265  0.1114  0.5691
 7127TIP3    H143016   2.926   1.787   8.525  1.1181 -0.1845  0.1103
 7127TIP3    H243017   2.965   1.886   8.416  1.4500  0.3272  0.6858
 7128TIP3   OH243018   0.459   1.612   0.120  0.4818  0.4052  0.4575
 7128TIP3    H143019   0.398   1.638   0.190 -1.1390  0.2675 -0.8532
 7128TIP3    H243020   0.481   1.521   0.140  0.2685  0.4590  0.9553
 7129TIP3   OH243021   2.136   3.747   1.522  0.0894 -0.3260 -0.2194
 7129TIP3    H143022   2.177   3.783   1.600 -1.4490  2.0170 -0.3836
 7129TIP3    H243023   2.048   3.722   1.551 -0.7324  1.1673 -1.2397
 7130TIP3   OH243024   0.229   4.013   0.290 -0.1454 -0.6231 -0.4865
 7130TIP3    H143025   0.142   4.043   0.318 -0.2314 -0.7584 -0.6070
 7130TIP3    H243026   0.289   4.081   0.321 -0.4905  0.4224 -2.0259
 7131TIP3   OH243027   5.667   1.732   1.058 -0.5644  0.5352  0.3613
 7131TIP3    H143028   5.612   1.673   1.006 -1.6582  1.2602  0.6491
 7131TIP3    H243029   5.608   1.803   1.084  0.5298  1.3709  0.6533
 7132TIP3   OH243030   1.198   3.866   6.925  0.4450 -0.1452 -0.2058
 7132TIP3    H143031   1.182   3.937   6.863 -0.5450 -0.0239  0.1729
 7132TIP3    H243032   1.202   3.787   6.871  2.4942  0.2656 -0.7441
 7133TIP3   OH243033   6.100   1.128   0.896 -0.0797  0.5230 -0.1592
 7133TIP3    H143034   6.047   1.106   0.972 -1.4726  0.2094 -1.1821
 7133TIP3    H243035   6.134   1.216   0.914  0.0854  0.2237  1.0523
 7134TIP3   OH243036   4.319   3.006   7.371 -0.0543 -0.0242  0.1357
 7134TIP3    H143037   4.278   2.925   7.342  0.5274 -0.5180  0.6459
 7134TIP3    H243038   4.413   2.992   7.355  0.2678 -0.2463  2.0505
 7135TIP3   OH243039   3.521   3.555   0.609 -0.5207 -0.2854 -0.1011
 7135TIP3    H143040   3.538   3.569   0.703 -1.4164  0.2301 -0.0023
 7135TIP3    H243041   3.511   3.644   0.574 -1.7562 -0.5219 -0.3713
 7136TIP3   OH243042   3.784   3.505   6.772  0.1111 -0.3642 -0.2588
 7136TIP3    H143043   3.790   3.527   6.679  0.6395  0.3241 -0.0640
 7136TIP3    H243044   3.872   3.517   6.806 -0.0710 -0.6464  0.3254
 7137TIP3   OH243045   4.554   5.365   1.935 -0.1365 -0.1249  0.2884
 7137TIP3    H143046   4.627   5.307   1.914 -0.7460 -0.3654 -1.2544
 7137TIP3    H243047   4.476   5.320   1.902 -1.2385 -0.5738  3.2085
 7138TIP3   OH243048   3.442   3.754   6.188  0.1730  0.0227  0.3881
 7138TIP3    H143049   3.502   3.807   6.136 -1.1789  1.2624  0.0056
 7138TIP3    H243050   3.469   3.769   6.279  0.9442 -0.1038  0.1855
 7139TIP3   OH243051   5.382   5.484   8.541  0.3859 -0.0986  0.4477
 7139TIP3    H143052   5.299   5.450   8.507  2.0694 -0.4583 -4.0232
 7139TIP3    H243053   5.367   5.578   8.551 -0.3218  0.0269 -1.4356
 7140TIP3   OH243054   4.149   2.078   1.897  0.1669  0.0669 -0.2567
 7140TIP3    H143055   4.173   2.170   1.901 -0.7412  0.3031 -0.0902
 7140TIP3    H243056   4.106   2.068   1.812 -2.3522  0.4747  0.8827
 7141TIP3   OH243057   5.270   2.272   8.022 -0.2540 -0.3180  0.3342
 7141TIP3    H143058   5.215   2.319   8.084  0.0729  0.4687  0.0406
 7141TIP3    H243059   5.339   2.334   8.000  2.0668 -1.9521  2.3676
 7142TIP3   OH243060   0.180   6.735   1.067  0.4468 -0.5423 -0.7779
 7142TIP3    H143061   0.150   6.752   0.978 -2.1200 -0.4226  0.0222
 7142TIP3    H243062   0.141   6.805   1.119  0.8027 -1.3575  0.6349
 7143TIP3   OH243063   1.797   5.611   8.310 -0.1254  0.1954  0.2602
 7143TIP3    H143064   1.872   5.670   8.303 -0.9053  1.1264 -0.6003
 7143TIP3    H243065   1.804   5.553   8.234 -0.0926  0.0629  0.3639
 7144TIP3   OH243066   0.862   6.423   7.791  0.5824  0.2163 -0.1618
 7144TIP3    H143067   0.917   6.500   7.775 -0.3734  0.8187 -0.6427
 7144TIP3    H243068   0.773   6.458   7.798 -0.2206 -1.0622 -2.6746
 7145TIP3   OH243069   3.800   1.744   8.373  0.3613  0.5307 -0.6338
 7145TIP3    H143070   3.854   1.666   8.381  1.1640  1.1342  0.0595
 7145TIP3    H243071   3.711   1.713   8.391  0.4254 -0.5059 -1.9685
 7146TIP3   OH243072   4.031   3.716   0.780 -0.4422 -1.2360  0.3288
 7146TIP3    H143073   4.009   3.631   0.818 -1.7052 -0.7642  0.6916
 7146TIP3    H243074   3.951   3.744   0.737 -0.1046 -0.1243  0.4112
 7147TIP3   OH243075   1.208   5.470   8.669  0.4167 -0.3239 -0.2904
 7147TIP3    H143076   1.159   5.389   8.661  1.5262 -1.1133  0.6352
 7147TIP3    H243077   1.175   5.511   8.749 -0.0537  0.0931 -0.6895
 7148TIP3   OH243078   0.533   3.368   7.267  0.3774  0.0771 -0.3387
 7148TIP3    H143079   0.548   3.324   7.184  0.8105  0.2008 -0.3249
 7148TIP3    H243080   0.606   3.343   7.323  1.7278  2.3355 -0.9492
 7149TIP3   OH243081   4.956   6.390   7.913  0.4805  0.2257  0.3727
 7149TIP3    H143082   4.926   6.309   7.956 -0.8809 -0.3724 -1.5905
 7149TIP3    H243083   4.905   6.395   7.833  0.8714  2.8325  0.2117
 7150TIP3   OH243084   3.047   1.800   6.353 -0.5774  0.1234 -0.5178
 7150TIP3    H143085   3.039   1.886   6.395  0.1202 -0.6404  1.2822
 7150TIP3    H243086   2.956   1.772   6.340 -0.8319  0.3387  0.6506
 7151TIP3   OH243087   2.680   2.119   8.254 -0.2628 -0.4737  0.2733
 7151TIP3    H143088   2.612   2.186   8.260 -1.4286 -1.4242 -1.4366
 7151TIP3    H243089   2.655   2.065   8.178  2.0297 -1.2854 -0.0023
 7152TIP3   OH243090   4.210   3.242   7.245 -0.0282 -0.2290  0.0603
 7152TIP3    H143091   4.237   3.216   7.157  1.1306  1.0537 -0.0082
 7152TIP3    H243092   4.251   3.178   7.303 -1.3387 -1.4811 -0.3194
 7153TIP3   OH243093   1.126   5.350   0.437 -0.0442 -0.0617 -0.0152
 7153TIP3    H143094   1.156   5.297   0.511  0.3105  0.8133  0.4984
 7153TIP3    H243095   1.032   5.360   0.451 -0.2119 -1.0183 -0.4302
 7154TIP3   OH243096   3.848   2.276   8.385  0.2033  0.1905 -0.0915
 7154TIP3    H143097   3.843   2.273   8.289  1.0875 -0.5191 -0.1359
 7154TIP3    H243098   3.847   2.369   8.407 -1.2602  0.3407 -0.7014
 7155TIP3   OH243099   2.385   1.926   0.672  0.3380  0.3157  0.1003
 7155TIP3    H143100   2.297   1.892   0.655  0.5970  0.0853 -0.8630
 7155TIP3    H243101   2.396   1.919   0.766 -0.6071  0.1673  0.2065
 7156TIP3   OH243102   1.797   3.090   7.163 -0.4525 -0.8422  0.0276
 7156TIP3    H143103   1.832   3.006   7.194 -1.2124 -1.5494 -0.9937
 7156TIP3    H243104   1.763   3.072   7.076 -0.3934  0.6023 -0.3228
 7157TIP3   OH243105   1.584   2.595   1.628 -0.1824  0.3645 -0.1930
 7157TIP3    H143106   1.660   2.653   1.622 -0.9443  1.5035  0.7065
 7157TIP3    H243107   1.543   2.618   1.711 -0.8475 -1.0743 -0.0930
 7158TIP3   OH243108   4.927   5.727   0.910 -0.7311 -0.1106 -0.6261
 7158TIP3    H143109   4.869   5.729   0.986 -0.5586  0.6183 -0.5025
 7158TIP3    H243110   4.875   5.763   0.839 -1.1392 -1.4764 -1.0520
 7159TIP3   OH243111   6.292   6.404   8.660 -0.1072 -0.3453  0.1963
 7159TIP3    H143112   6.373   6.426   8.706  0.9011 -2.3238 -0.5314
 7159TIP3    H243113   6.237   6.482   8.670  1.9773  1.1831  0.4698
 7160TIP3   OH243114   5.279   3.015   7.226  0.5147  0.0175  0.0893
 7160TIP3    H143115   5.256   3.062   7.306 -1.9168  0.8379 -1.0003
 7160TIP3    H243116   5.218   2.940   7.224  0.1409  0.3238 -1.2377
 7161TIP3   OH243117   6.462   4.287   2.071 -0.5660 -0.1273  0.3837
 7161TIP3    H143118   6.387   4.329   2.114  0.3001 -0.2431  2.1301
 7161TIP3    H243119   6.523   4.359   2.056 -0.8838 -0.0840 -0.7405
 7162TIP3   OH243120   5.870   6.271   1.405 -0.2457  0.2361  0.0862
 7162TIP3    H143121   5.966   6.270   1.397 -0.3554  0.6664 -1.6828
 7162TIP3    H243122   5.854   6.253   1.498  1.6289  2.2991  0.9248
 7163TIP3   OH243123   3.992   6.432   7.708  0.0590 -0.3096  0.6461
 7163TIP3    H143124   4.027   6.516   7.737  2.7653 -1.0594 -0.2270
 7163TIP3    H243125   4.000   6.374   7.784 -0.8637 -0.0644  0.9406
 7164TIP3   OH243126   6.648   5.317   8.008 -0.5953 -0.1029 -0.2551
 7164TIP3    H143127   6.663   5.395   8.061  2.6292 -1.3110  0.8392
 7164TIP3    H243128   6.673   5.244   8.064 -0.2378 -1.6856 -2.3322
 7165TIP3   OH243129   1.987   0.688   2.177  0.4083 -0.5227  0.0583
 7165TIP3    H143130   2.067   0.701   2.228  0.3245 -1.2899  0.3980
 7165TIP3    H243131   1.943   0.615   2.220  0.6130 -1.5747 -1.4471
 7166TIP3   OH243132   3.355   1.319   8.076 -0.0477  0.1313  0.2206
 7166TIP3    H143133   3.443   1.292   8.048 -0.4776  0.7672 -1.9230
 7166TIP3    H243134   3.302   1.240   8.067 -0.1036  0.2396 -0.4335
 7167TIP3   OH243135   1.108   0.885   7.711  0.3407  0.0078  0.1176
 7167TIP3    H143136   1.016   0.905   7.727  0.5698  0.8650  0.4588
 7167TIP3    H243137   1.107   0.803   7.662 -0.6434  0.4697 -0.6772
 7168TIP3   OH243138   2.598   0.166   2.149  0.2510 -0.5641  0.8335
 7168TIP3    H143139   2.619   0.088   2.201 -0.5178 -0.6126  1.0778
 7168TIP3    H243140   2.548   0.222   2.209  1.2924  0.3894  0.8471
 7169TIP3   OH243141   3.189   4.932   6.613  0.4755  0.9537  0.4240
 7169TIP3    H143142   3.243   4.961   6.539 -0.9724  2.7179 -0.0069
 7169TIP3    H243143   3.140   4.857   6.579  0.7694  0.9488  0.0053
 7170TIP3   OH243144   5.281   0.729   5.706  0.5295 -0.4459  0.2558
 7170TIP3    H143145   5.228   0.655   5.736  0.6049 -1.7919 -2.6561
 7170TIP3    H243146   5.217   0.795   5.678  0.4140 -0.7530 -0.2109
 7171TIP3   OH243147   1.831   2.467   1.275 -0.0619 -0.5659 -0.1252
 7171TIP3    H143148   1.847   2.379   1.310  0.6490 -0.4475 -0.1565
 7171TIP3    H243149   1.915   2.512   1.281 -0.7364  0.6025  1.2412
 7172TIP3   OH243150   1.063   2.000   7.307 -0.0976  0.6048  0.3076
 7172TIP3    H143151   1.021   1.922   7.343 -0.1921 -0.1081 -1.2299
 7172TIP3    H243152   1.055   1.989   7.212  0.2517  2.2997  0.0530
 7173TIP3   OH243153   3.628   4.335   6.327 -0.2621 -0.6781  0.6431
 7173TIP3    H143154   3.562   4.326   6.259  0.0516 -2.0929  0.5158
 7173TIP3    H243155   3.682   4.257   6.320  2.0754  0.8850  0.0973
 7174TIP3   OH243156   0.045   4.398   8.477  0.2342 -0.2716 -0.0586
 7174TIP3    H143157   0.096   4.347   8.540  0.9976 -0.8475 -1.1133
 7174TIP3    H243158   0.005   4.467   8.529  0.6242 -0.8924  1.1002
 7175TIP3   OH243159   4.662   3.614   8.546  0.2428 -0.1150 -0.1624
 7175TIP3    H143160   4.687   3.576   8.462 -0.3908 -1.1198  0.0886
 7175TIP3    H243161   4.640   3.705   8.526  1.0883 -0.0631 -0.8996
 7176TIP3   OH243162   1.194   0.655   1.711 -0.5476  0.0434 -0.3255
 7176TIP3    H143163   1.233   0.740   1.731  0.0846  0.1106 -1.7409
 7176TIP3    H243164   1.109   0.676   1.673 -0.1679  0.0845 -1.1761
 7177LIG     O143165   4.292   0.577   3.769  0.8744 -0.1015  0.1141
 7177LIG     O243166   4.579   0.269   3.979 -0.0866 -1.0971 -0.2020
 7177LIG     N143167   4.492   0.452   4.103  0.1175  0.6976  0.5221
 7177LIG     N243168   4.283   0.729   4.034 -0.1454  0.1260  0.1202
 7177LIG     N343169   4.419   0.411   3.880  0.3808  0.5606  0.4433
 7177LIG     N443170   4.395   0.645   4.214  0.3708 -0.2460  0.2812
 7177LIG     C143171   4.339   0.610   3.997  0.3869 -0.1939  0.2622
 7177LIG     C243172   4.409   0.564   4.110 -0.1742  0.7385  0.9191
 7177LIG     C343173   4.345   0.535   3.874 -0.1513  0.0599 -0.6833
 7177LIG     C443174   4.498   0.370   3.988 -0.1960 -0.3959 -0.0157
 7177LIG     C543175   4.318   0.745   4.167 -0.3907  0.4351 -0.0372
 7177LIG     C643176   4.578   0.404   4.208  0.1655 -0.2854  0.0490
 7177LIG     C743177   4.202   0.818   3.945 -0.4781  0.1169 -0.0011
 7177LIG     C843178   4.436   0.321   3.763  0.1948  0.2091  0.1386
 7177LIG     H143179   4.282   0.831   4.224 -0.6857  1.0356 -1.1002
 7177LIG     H243180   4.570   0.300   4.247 -1.9670 -0.2489 -0.1429
 7177LIG     H343181   4.569   0.471   4.296 -0.0132 -1.3413  0.8503
 7177LIG     H443182   4.686   0.409   4.182  0.1489 -1.3598 -0.2616
 7177LIG     H543183   4.109   0.768   3.909 -0.2775 -0.7366  0.6423
 7177LIG     H643184   4.265   0.843   3.858 -0.5486  1.4319  0.2940
 7177LIG     H743185   4.172   0.912   3.997  1.7485  0.7255  0.2855
 7177LIG     H843186   4.387   0.342   3.665 -0.1332  2.2573  0.6814
 7177LIG     H943187   4.390   0.223   3.786 -2.6960  1.0238 -1.6397
 7177LIG    H1043188   4.543   0.316   3.734 -0.2481  0.3003 -1.6229
   6.89650   6.89650   8.67939
