Title
43188
    1CHL1    C3    1   4.691   1.157   6.103 -0.2111  0.4296  0.0811
    1CHL1    H3    2   4.801   1.165   6.117 -0.1422 -0.1133 -0.1223
    1CHL1    O3    3   4.636   1.132   6.229 -0.2944  0.8640 -0.0703
    1CHL1   H3'    4   4.540   1.122   6.224 -0.5306  1.8223  1.7732
    1CHL1    C4    5   4.641   1.293   6.049 -0.7166 -0.2144  0.0584
    1CHL1   H4A    6   4.533   1.300   6.077 -0.1331  1.0265  2.2416
    1CHL1   H4B    7   4.694   1.373   6.105 -0.1227 -1.7210  1.7401
    1CHL1    C5    8   4.658   1.316   5.900 -0.4478 -0.3088  0.4884
    1CHL1    C6    9   4.716   1.429   5.856 -0.3767 -0.3305 -0.3215
    1CHL1    H6   10   4.737   1.510   5.928 -0.6127 -0.3619 -0.2151
    1CHL1    C7   11   4.754   1.456   5.715  0.0395  0.5932 -0.6692
    1CHL1   H7A   12   4.737   1.565   5.701 -0.4757  0.6313  0.1751
    1CHL1   H7B   13   4.862   1.432   5.716  0.3691  1.7514  2.8784
    1CHL1    C8   14   4.679   1.364   5.621  0.1857 -0.5766 -0.6227
    1CHL1    H8   15   4.575   1.403   5.630  1.0089  1.1914  2.4049
    1CHL1   C14   16   4.722   1.374   5.481  0.5294 -0.0340 -0.0129
    1CHL1   H14   17   4.829   1.342   5.477 -0.1358 -2.6781  1.0334
    1CHL1   C15   18   4.722   1.509   5.414 -0.0466 -0.9587  0.7442
    1CHL1  H15A   19   4.624   1.560   5.426 -0.1204 -1.0915  0.7045
    1CHL1  H15B   20   4.799   1.578   5.455  0.2907 -0.2319 -1.0077
    1CHL1   C16   21   4.764   1.480   5.269 -0.0195  0.3168 -0.1801
    1CHL1  H16A   22   4.687   1.534   5.210 -1.1139 -1.4380 -0.4185
    1CHL1  H16B   23   4.861   1.527   5.241 -1.7850  3.6309 -1.2551
    1CHL1   C17   24   4.747   1.326   5.259  0.0022 -0.4415  0.6069
    1CHL1   H17   25   4.851   1.290   5.273  1.8859  2.7023 -3.1320
    1CHL1   C13   26   4.669   1.272   5.376  0.6593 -0.1735  0.0260
    1CHL1   C18   27   4.515   1.282   5.353 -0.4459 -0.6095 -0.8823
    1CHL1  H18A   28   4.470   1.259   5.452  4.0213  2.5108  2.2383
    1CHL1  H18B   29   4.480   1.384   5.326 -0.4402 -0.7612 -1.4934
    1CHL1  H18C   30   4.484   1.211   5.273  2.1779 -1.2249 -1.4516
    1CHL1   C12   31   4.712   1.137   5.427 -0.0533  0.3042  0.2150
    1CHL1  H12A   32   4.693   1.052   5.358 -1.3061  0.4793  0.3230
    1CHL1  H12B   33   4.822   1.144   5.441 -0.1792  1.4413  0.7028
    1CHL1   C11   34   4.659   1.113   5.569  0.3344  0.0619 -0.8277
    1CHL1  H11A   35   4.549   1.107   5.559 -0.1478  2.1093  1.9418
    1CHL1  H11B   36   4.708   1.019   5.603  1.7120  1.0440 -0.0253
    1CHL1    C9   37   4.691   1.216   5.675  0.6069 -0.2281 -0.5809
    1CHL1    H9   38   4.797   1.197   5.703 -0.1739  1.2724  4.4592
    1CHL1   C10   39   4.628   1.201   5.811  0.0431  0.0033  0.1477
    1CHL1   C19   40   4.473   1.184   5.796 -0.1833 -0.7482  0.7178
    1CHL1  H19A   41   4.434   1.177   5.900  1.4686  1.6839  1.6076
    1CHL1  H19B   42   4.422   1.275   5.758 -1.6320 -0.9869  1.9850
    1CHL1  H19C   43   4.443   1.096   5.736 -0.4045  0.5304 -1.1242
    1CHL1    C1   44   4.678   1.067   5.867  0.0701 -0.5200  0.2146
    1CHL1   H1A   45   4.625   0.984   5.815 -0.0919  0.6282 -1.5489
    1CHL1   H1B   46   4.788   1.061   5.851  0.1284  1.6030 -0.4159
    1CHL1    C2   47   4.641   1.041   6.010 -0.0973  0.1773  0.0393
    1CHL1   H2A   48   4.679   0.945   6.050  1.0485 -0.2401 -1.9240
    1CHL1   H2B   49   4.531   1.028   6.013 -0.0106 -1.6191 -1.9012
    1CHL1   C20   50   4.714   1.287   5.111  0.2231 -0.4558 -0.0430
    1CHL1   H20   51   4.614   1.332   5.095  0.4214 -0.1268 -0.3543
    1CHL1   C21   52   4.699   1.134   5.090  0.4280 -0.6462  0.5732
    1CHL1  H21A   53   4.784   1.075   5.128  0.8586 -0.3317  0.1139
    1CHL1  H21B   54   4.685   1.111   4.982  2.2507  0.8024 -0.0201
    1CHL1  H21C   55   4.612   1.088   5.141 -0.7712 -0.9525 -1.6196
    1CHL1   C22   56   4.801   1.356   4.998 -0.0576 -0.0655  0.5069
    1CHL1  H22A   57   4.747   1.331   4.904 -2.6305 -1.6078  2.2696
    1CHL1  H22B   58   4.788   1.466   4.995 -0.0808 -0.0162 -3.5302
    1CHL1   C23   59   4.944   1.308   4.985 -0.3215 -0.3415 -0.2586
    1CHL1  H23A   60   4.987   1.346   5.081 -0.5029  0.8399 -0.6373
    1CHL1  H23B   61   4.948   1.197   4.984 -2.1488 -0.4263 -0.9797
    1CHL1   C24   62   5.016   1.371   4.862 -0.1523  0.5021 -0.0716
    1CHL1  H24A   63   4.962   1.332   4.773 -1.0614  0.6589  0.3900
    1CHL1  H24B   64   4.990   1.478   4.847  1.1874  0.7259 -1.0056
    1CHL1   C25   65   5.165   1.337   4.857  0.6948  0.3316  1.1610
    1CHL1   H25   66   5.181   1.230   4.880 -1.4499 -0.5059 -0.8338
    1CHL1   C26   67   5.220   1.367   4.714  0.1303 -0.9940 -0.5286
    1CHL1  H26A   68   5.325   1.332   4.706  1.0402  1.3740  0.2836
    1CHL1  H26B   69   5.157   1.318   4.636  0.7043 -0.4683 -1.3430
    1CHL1  H26C   70   5.228   1.475   4.689  0.7117 -1.7269 -4.0819
    1CHL1   C27   71   5.243   1.420   4.955 -0.1530  0.0517 -0.1191
    1CHL1  H27A   72   5.199   1.404   5.056 -0.8743 -0.7370 -0.5508
    1CHL1  H27B   73   5.349   1.386   4.964 -0.1899 -0.6365 -1.9102
    1CHL1  H27C   74   5.219   1.527   4.939 -0.3134 -0.3079 -2.8248
    2CHL1    C3   75   0.142   3.438   6.305 -0.2096  0.3843 -0.0442
    2CHL1    H3   76   0.087   3.533   6.290  0.3572  0.6195 -0.6900
    2CHL1    O3   77   0.132   3.407   6.443  0.8528 -0.8426 -0.3930
    2CHL1   H3'   78   0.041   3.396   6.470  0.6463 -0.9536 -1.1216
    2CHL1    C4   79   0.078   3.328   6.223 -0.5948  0.9975 -0.3205
    2CHL1   H4A   80   0.110   3.226   6.253  3.2887  1.8043 -1.1844
    2CHL1   H4B   81  -0.028   3.333   6.255  0.4614  3.1462  3.4772
    2CHL1    C5   82   0.090   3.340   6.075 -0.3216  0.4536  0.2881
    2CHL1    C6   83  -0.010   3.337   5.988  0.2679  0.4298 -0.1549
    2CHL1    H6   84  -0.114   3.325   6.022 -0.0905 -2.3074 -1.8828
    2CHL1    C7   85   0.002   3.338   5.837 -0.0399 -0.2109  0.1496
    2CHL1   H7A   86  -0.061   3.260   5.790  1.3471  0.6993 -3.6031
    2CHL1   H7B   87  -0.029   3.435   5.793 -0.7102  0.8285  2.6770
    2CHL1    C8   88   0.154   3.311   5.791 -0.5272  0.5371 -0.5071
    2CHL1    H8   89   0.169   3.204   5.814 -1.0842  0.2861 -1.2499
    2CHL1   C14   90   0.172   3.340   5.644  0.0791  0.7124 -0.3093
    2CHL1   H14   91   0.141   3.446   5.633 -3.7318 -0.1561  0.4726
    2CHL1   C15   92   0.066   3.274   5.549  0.5884 -0.3220 -0.0300
    2CHL1  H15A   93   0.048   3.164   5.554 -0.6643 -0.0766  2.2897
    2CHL1  H15B   94  -0.028   3.333   5.560  1.3657  0.6452  1.8148
    2CHL1   C16   95   0.136   3.293   5.415  0.0597 -0.4900 -0.0810
    2CHL1  H16A   96   0.161   3.189   5.387  1.8321 -0.8260  2.4076
    2CHL1  H16B   97   0.075   3.353   5.344  0.2584  1.5003  1.3571
    2CHL1   C17   98   0.272   3.349   5.444 -0.5983 -0.4279 -0.3109
    2CHL1   H17   99   0.257   3.459   5.445  1.6925 -0.0424  2.3132
    2CHL1   C13  100   0.305   3.313   5.588 -0.1654  0.0993 -0.0959
    2CHL1   C18  101   0.338   3.163   5.601  0.2811 -0.1534  0.4676
    2CHL1  H18A  102   0.357   3.138   5.708  2.4671 -0.1780  0.1195
    2CHL1  H18B  103   0.267   3.089   5.559  1.9469  0.2449 -3.4546
    2CHL1  H18C  104   0.441   3.145   5.564  0.1112 -1.2578  0.5067
    2CHL1   C12  105   0.400   3.405   5.664  0.4824  0.2487 -0.1962
    2CHL1  H12A  106   0.507   3.387   5.641  0.9584  1.8937  0.5789
    2CHL1  H12B  107   0.377   3.508   5.630  0.0889 -0.4017 -2.0109
    2CHL1   C11  108   0.391   3.382   5.817  0.3326  0.1556 -0.8290
    2CHL1  H11A  109   0.437   3.284   5.845  3.0789  1.1198 -1.6104
    2CHL1  H11B  110   0.449   3.465   5.863 -1.3115  0.7137  0.3549
    2CHL1    C9  111   0.253   3.389   5.878 -0.4522  0.1826 -0.3614
    2CHL1    H9  112   0.229   3.497   5.865 -1.0448  0.0602 -0.2816
    2CHL1   C10  113   0.241   3.363   6.031 -0.0927 -0.1352 -0.0707
    2CHL1   C19  114   0.318   3.227   6.063  0.1433  0.4733  0.1786
    2CHL1  H19A  115   0.288   3.172   6.155  0.4394 -0.9772 -0.5630
    2CHL1  H19B  116   0.311   3.150   5.983 -1.1219 -1.9060  2.4353
    2CHL1  H19C  117   0.426   3.241   6.085  0.1608 -1.6051  1.7798
    2CHL1    C1  118   0.301   3.478   6.109  1.0060 -0.0097 -0.6999
    2CHL1   H1A  119   0.410   3.480   6.084  0.9727  0.2326 -0.8332
    2CHL1   H1B  120   0.259   3.576   6.077 -0.2295 -0.4095 -0.3511
    2CHL1    C2  121   0.286   3.457   6.264  0.0895 -0.2697  0.0780
    2CHL1   H2A  122   0.322   3.541   6.327 -1.7691  2.4979 -2.2254
    2CHL1   H2B  123   0.344   3.364   6.279 -1.0065 -0.6939  2.0795
    2CHL1   C20  124   0.382   3.319   5.333 -0.0862 -0.3190 -0.7172
    2CHL1   H20  125   0.416   3.214   5.345 -0.2672 -0.2641  0.4275
    2CHL1   C21  126   0.513   3.398   5.372  0.4485  0.6334  0.1323
    2CHL1  H21A  127   0.585   3.401   5.288  1.6257  1.4520  1.1439
    2CHL1  H21B  128   0.560   3.346   5.459  2.0460  1.6582 -0.0899
    2CHL1  H21C  129   0.483   3.504   5.390  0.0036  0.5862 -0.3038
    2CHL1   C22  130   0.323   3.350   5.188 -0.4795  0.6629 -0.6204
    2CHL1  H22A  131   0.234   3.286   5.172 -0.2629  0.1502  0.1780
    2CHL1  H22B  132   0.291   3.453   5.162  1.4997  1.1362 -1.3835
    2CHL1   C23  133   0.422   3.316   5.077 -0.0687  0.1220 -0.0156
    2CHL1  H23A  134   0.507   3.388   5.078 -0.0011  0.0842 -1.5533
    2CHL1  H23B  135   0.463   3.213   5.089 -2.2345 -1.0198 -1.6268
    2CHL1   C24  136   0.348   3.303   4.945  0.6464 -0.1022  0.2230
    2CHL1  H24A  137   0.246   3.262   4.960 -0.2375  1.7917 -0.3863
    2CHL1  H24B  138   0.335   3.406   4.907  2.6861  0.4069  0.7709
    2CHL1   C25  139   0.431   3.228   4.837  0.7226  0.7193 -0.0908
    2CHL1   H25  140   0.459   3.129   4.877 -0.9293 -0.4200 -1.6291
    2CHL1   C26  141   0.335   3.197   4.716  1.0828  0.2163 -0.5144
    2CHL1  H26A  142   0.326   3.295   4.665  1.0873  0.3478 -0.2663
    2CHL1  H26B  143   0.395   3.129   4.652 -0.1250 -0.7398 -0.6484
    2CHL1  H26C  144   0.234   3.155   4.735  0.9735  0.5470 -0.3522
    2CHL1   C27  145   0.556   3.302   4.798 -0.1009  0.5114  0.8201
    2CHL1  H27A  146   0.606   3.234   4.726 -2.0778 -0.2917  0.1199
    2CHL1  H27B  147   0.536   3.396   4.742  0.1188 -1.0949 -2.1847
    2CHL1  H27C  148   0.617   3.326   4.887 -1.9586 -1.8742  2.8980
    3CHL1    C3  149   1.029   4.378   6.558  0.9377  0.3311 -0.0243
    3CHL1    H3  150   1.077   4.476   6.577  0.8539  0.0119  2.1284
    3CHL1    O3  151   1.013   4.327   6.692 -0.2667 -0.2301 -0.6708
    3CHL1   H3'  152   0.964   4.245   6.679  1.7720 -1.6078 -0.0455
    3CHL1    C4  153   0.891   4.392   6.481 -0.0016  0.2037  0.1383
    3CHL1   H4A  154   0.836   4.296   6.482  0.2832  0.0420  0.5514
    3CHL1   H4B  155   0.828   4.465   6.537 -0.2860 -0.3430  0.5378
    3CHL1    C5  156   0.923   4.437   6.341 -0.5428  0.5241 -0.3860
    3CHL1    C6  157   0.854   4.541   6.294 -0.2006  0.1911 -0.5322
    3CHL1    H6  158   0.778   4.580   6.363 -0.1848 -1.0627  0.2281
    3CHL1    C7  159   0.861   4.583   6.157  0.1102  0.1975  0.5029
    3CHL1   H7A  160   0.763   4.616   6.116  0.4217  0.6953  0.1514
    3CHL1   H7B  161   0.933   4.664   6.134  1.5660 -1.3562 -0.7312
    3CHL1    C8  162   0.919   4.467   6.062 -0.6336 -0.2423 -0.0153
    3CHL1    H8  163   0.850   4.382   6.048  1.4963 -1.7669 -1.9453
    3CHL1   C14  164   0.950   4.525   5.922  0.6104  0.1550  0.2893
    3CHL1   H14  165   1.031   4.597   5.950  0.4130 -0.1594  1.7606
    3CHL1   C15  166   0.842   4.604   5.853  1.2224 -0.1583 -0.4451
    3CHL1  H15A  167   0.745   4.550   5.845  0.9707  0.2614 -0.2403
    3CHL1  H15B  168   0.816   4.704   5.893  2.7179  1.3703 -3.0173
    3CHL1   C16  169   0.897   4.626   5.716 -0.1973 -0.0239  0.0760
    3CHL1  H16A  170   0.818   4.601   5.642 -0.2781  0.2868  0.0556
    3CHL1  H16B  171   0.945   4.725   5.706  0.0926 -0.1211  0.4476
    3CHL1   C17  172   1.015   4.527   5.698 -0.1500  0.5748 -0.3673
    3CHL1   H17  173   1.111   4.578   5.722  1.8632 -2.8107 -0.6159
    3CHL1   C13  174   1.004   4.426   5.818 -0.5783 -0.3576 -0.4145
    3CHL1   C18  175   0.894   4.326   5.786 -0.9624 -0.4247  0.1922
    3CHL1  H18A  176   0.942   4.252   5.718  0.3056 -0.6710  1.3072
    3CHL1  H18B  177   0.847   4.274   5.871 -3.5071  3.5372  1.5172
    3CHL1  H18C  178   0.817   4.387   5.734  0.3967 -0.4493 -2.0021
    3CHL1   C12  179   1.131   4.364   5.881  0.5114 -0.6697  0.4128
    3CHL1  H12A  180   1.168   4.286   5.811 -0.6215 -1.7894  1.0436
    3CHL1  H12B  181   1.202   4.450   5.887 -1.5832  1.5518 -2.9610
    3CHL1   C11  182   1.106   4.302   6.020 -0.2354  0.0504 -0.2471
    3CHL1  H11A  183   1.056   4.205   6.003  1.6831 -1.0646  0.1283
    3CHL1  H11B  184   1.206   4.265   6.051  1.0665  2.8562 -0.7297
    3CHL1    C9  185   1.047   4.401   6.129 -0.2068  0.0473  0.1740
    3CHL1    H9  186   1.124   4.481   6.133 -0.8043  0.6076  1.3504
    3CHL1   C10  187   1.021   4.346   6.266  0.0175 -0.4136 -0.4029
    3CHL1   C19  188   0.973   4.198   6.251  0.1547 -0.0015 -0.1849
    3CHL1  H19A  189   0.941   4.144   6.343 -0.1763  0.8094  0.1869
    3CHL1  H19B  190   0.877   4.203   6.195 -0.4382  0.7749  0.8697
    3CHL1  H19C  191   1.039   4.126   6.199 -0.3168 -1.1502  0.7713
    3CHL1    C1  192   1.155   4.340   6.342 -0.7785  0.6181  0.1823
    3CHL1   H1A  193   1.213   4.264   6.286  0.7639  2.0135 -0.1797
    3CHL1   H1B  194   1.208   4.438   6.343  0.1498  0.1718  2.7413
    3CHL1    C2  195   1.130   4.288   6.489 -0.1164  0.6538  0.0777
    3CHL1   H2A  196   1.224   4.294   6.547 -0.8578  0.7261  1.3020
    3CHL1   H2B  197   1.079   4.189   6.483 -1.5272  1.3796 -0.4503
    3CHL1   C20  198   1.027   4.483   5.554  1.0430 -0.5296  0.4687
    3CHL1   H20  199   0.945   4.411   5.530 -0.9740  2.0280 -0.7507
    3CHL1   C21  200   1.161   4.412   5.541  0.1325  0.5839 -0.5627
    3CHL1  H21A  201   1.186   4.360   5.446  0.9586 -1.6162  0.8167
    3CHL1  H21B  202   1.165   4.326   5.610  1.3103  2.1844  1.4762
    3CHL1  H21C  203   1.246   4.474   5.578  0.6282 -1.2740  1.6057
    3CHL1   C22  204   1.015   4.602   5.445  0.0361 -0.5175 -0.3840
    3CHL1  H22A  205   0.942   4.684   5.464 -0.1416 -0.4113 -1.4432
    3CHL1  H22B  206   1.108   4.662   5.448 -0.0686 -0.3459 -0.5570
    3CHL1   C23  207   1.002   4.546   5.308 -0.3486  0.0043  0.2006
    3CHL1  H23A  208   1.085   4.478   5.279 -0.0791 -1.1529  3.3299
    3CHL1  H23B  209   0.915   4.478   5.313 -0.6360  0.2075 -1.4035
    3CHL1   C24  210   0.989   4.656   5.198 -0.5385  0.1342  0.1739
    3CHL1  H24A  211   0.884   4.692   5.198 -0.1399  1.3600 -0.8792
    3CHL1  H24B  212   1.049   4.745   5.224  0.5158 -0.6588  0.5208
    3CHL1   C25  213   1.046   4.614   5.059  0.4720 -0.3641 -0.2503
    3CHL1   H25  214   1.140   4.555   5.072  0.1233 -1.4729 -2.4090
    3CHL1   C26  215   0.946   4.537   4.975 -0.4653 -0.2889  0.1268
    3CHL1  H26A  216   0.992   4.514   4.877 -0.6475 -3.4485  0.6745
    3CHL1  H26B  217   0.931   4.438   5.023  0.4921 -1.0112 -0.9918
    3CHL1  H26C  218   0.845   4.581   4.964 -0.7810 -1.3388 -1.4583
    3CHL1   C27  219   1.069   4.744   4.984 -0.1671  0.1357 -0.7411
    3CHL1  H27A  220   1.123   4.823   5.040  0.3748 -0.7048 -0.0539
    3CHL1  H27B  221   1.108   4.721   4.883 -1.3641 -3.4016 -0.5146
    3CHL1  H27C  222   0.974   4.799   4.966 -0.7839 -0.6633 -0.0159
    4CHL1    C3  223   0.619   3.829   6.243  0.4604  0.0465 -0.3150
    4CHL1    H3  224   0.513   3.815   6.213  0.7646 -2.3397 -0.4635
    4CHL1    O3  225   0.606   3.822   6.389 -0.6108 -0.1584 -0.0147
    4CHL1   H3'  226   0.692   3.837   6.427 -0.7262  0.4875  0.0086
    4CHL1    C4  227   0.701   3.701   6.208  0.0160  0.0138 -0.3700
    4CHL1   H4A  228   0.789   3.708   6.276  0.8960 -1.8157 -1.2304
    4CHL1   H4B  229   0.635   3.618   6.240 -2.4283  1.8684 -0.2786
    4CHL1    C5  230   0.750   3.696   6.066  0.4667 -0.3262 -0.5258
    4CHL1    C6  231   0.729   3.591   5.984  0.2221 -0.3006 -0.5764
    4CHL1    H6  232   0.683   3.499   6.024 -1.0564  0.7648  0.5191
    4CHL1    C7  233   0.776   3.582   5.839  0.4729  0.1889 -0.4082
    4CHL1   H7A  234   0.826   3.488   5.806 -2.2533 -1.0901 -1.1883
    4CHL1   H7B  235   0.686   3.580   5.774  0.1260 -0.3461  0.0759
    4CHL1    C8  236   0.869   3.701   5.802  0.0025  0.4816  0.1446
    4CHL1    H8  237   0.972   3.670   5.829 -1.4321 -2.8803  2.5042
    4CHL1   C14  238   0.863   3.708   5.646  0.1703 -0.5879 -0.0362
    4CHL1   H14  239   0.757   3.735   5.628 -0.0159  0.0931  1.8895
    4CHL1   C15  240   0.900   3.588   5.563  0.3645 -0.1294 -0.3371
    4CHL1  H15A  241   0.992   3.538   5.600  1.1952  0.3542 -1.6726
    4CHL1  H15B  242   0.819   3.512   5.567  1.0902 -0.8986  2.2354
    4CHL1   C16  243   0.920   3.648   5.423 -0.8827  0.3576 -0.2322
    4CHL1  H16A  244   1.024   3.620   5.398 -0.3027 -0.7265  2.9505
    4CHL1  H16B  245   0.848   3.617   5.344 -1.2180  2.2452 -0.7321
    4CHL1   C17  246   0.928   3.806   5.435 -0.2427 -0.1180 -0.4251
    4CHL1   H17  247   0.819   3.829   5.423 -0.0208  1.2205 -0.0316
    4CHL1   C13  248   0.943   3.829   5.584  0.1791  0.0565  0.9621
    4CHL1   C18  249   1.093   3.815   5.618  0.3641 -0.2192 -0.1925
    4CHL1  H18A  250   1.115   3.804   5.726  0.8379  2.0942 -0.0030
    4CHL1  H18B  251   1.142   3.730   5.567  1.5187 -0.9421  1.9921
    4CHL1  H18C  252   1.140   3.908   5.578  1.3681 -0.8743 -0.5907
    4CHL1   C12  253   0.885   3.965   5.648 -0.1564  0.6024  0.1163
    4CHL1  H12A  254   0.930   4.056   5.603 -0.0508  0.9415  0.8860
    4CHL1  H12B  255   0.776   3.967   5.625 -0.4133  0.4778  1.2360
    4CHL1   C11  256   0.896   3.961   5.800  0.2820  0.1294 -0.2185
    4CHL1  H11A  257   1.007   3.957   5.814  0.0727 -0.6744  1.5390
    4CHL1  H11B  258   0.870   4.061   5.842 -0.3083 -0.3801  0.6584
    4CHL1    C9  259   0.820   3.841   5.861  0.0766 -0.4338 -0.5492
    4CHL1    H9  260   0.719   3.841   5.814 -0.3405 -1.7593  0.2702
    4CHL1   C10  261   0.814   3.830   6.014  0.3151 -0.2406 -0.5498
    4CHL1   C19  262   0.957   3.824   6.077  0.5048  0.5392  0.1211
    4CHL1  H19A  263   1.008   3.727   6.058 -1.8433 -0.5389 -1.1334
    4CHL1  H19B  264   1.014   3.906   6.030  2.6321 -1.5293 -1.1636
    4CHL1  H19C  265   0.956   3.855   6.184  0.0527  0.8763  0.0222
    4CHL1    C1  266   0.727   3.952   6.060 -0.4712 -0.1404  0.5914
    4CHL1   H1A  267   0.781   4.048   6.045  1.2727 -0.9149  1.5188
    4CHL1   H1B  268   0.630   3.964   6.007 -1.0164 -0.0889  1.5808
    4CHL1    C2  269   0.686   3.954   6.207 -0.3669  0.2504  0.6125
    4CHL1   H2A  270   0.612   4.035   6.224  0.5770  0.8997  1.7153
    4CHL1   H2B  271   0.768   3.966   6.280  1.5643 -0.4242 -1.3467
    4CHL1   C20  272   1.015   3.878   5.334  0.1540  0.8435 -0.1504
    4CHL1   H20  273   1.121   3.852   5.354  0.0888  1.1408  0.6143
    4CHL1   C21  274   1.012   4.030   5.350  0.8019  0.1952  0.0516
    4CHL1  H21A  275   1.065   4.085   5.269  0.6257 -2.7429 -2.1932
    4CHL1  H21B  276   1.062   4.062   5.444  1.2679 -0.8385  0.1687
    4CHL1  H21C  277   0.909   4.068   5.363  0.6262 -0.4775  0.6686
    4CHL1   C22  278   0.982   3.837   5.190  0.4104  0.1279  1.2735
    4CHL1  H22A  279   0.983   3.727   5.180  0.6538  0.2848 -0.8092
    4CHL1  H22B  280   0.882   3.872   5.156  1.0073  0.9779  0.3013
    4CHL1   C23  281   1.082   3.882   5.079  1.1920  0.0819 -0.1107
    4CHL1  H23A  282   1.081   3.994   5.076  1.0426  0.1385  1.3575
    4CHL1  H23B  283   1.183   3.847   5.110  2.7687  0.0334 -4.5824
    4CHL1   C24  284   1.058   3.812   4.943  0.3490  0.7749 -0.0035
    4CHL1  H24A  285   1.071   3.703   4.958 -1.5742  0.1262 -2.4332
    4CHL1  H24B  286   0.952   3.827   4.913  0.2335  0.6783  0.3558
    4CHL1   C25  287   1.154   3.864   4.836  1.1797 -0.7931  0.1447
    4CHL1   H25  288   1.255   3.872   4.880  1.5380 -0.5544 -0.7001
    4CHL1   C26  289   1.167   3.780   4.713 -0.0376  0.2834  0.8671
    4CHL1  H26A  290   1.071   3.777   4.657  0.4294  0.3923  0.0490
    4CHL1  H26B  291   1.243   3.820   4.643 -0.4877 -1.6022 -0.7608
    4CHL1  H26C  292   1.201   3.677   4.736 -0.6806 -0.9729 -3.0957
    4CHL1   C27  293   1.127   4.019   4.811 -0.3353 -0.1503  0.4842
    4CHL1  H27A  294   1.128   4.084   4.901 -2.0716 -1.1102  1.2336
    4CHL1  H27B  295   1.205   4.059   4.743 -0.5231 -1.6208 -0.6424
    4CHL1  H27C  296   1.026   4.039   4.768  0.0763 -2.5345 -1.8728
    5CHL1    C3  297   5.975   3.333   5.938 -0.1588  1.0197  0.1344
    5CHL1    H3  298   6.071   3.355   5.886 -1.2755  1.8878 -1.6217
    5CHL1    O3  299   5.989   3.375   6.075 -0.0669 -0.6257 -0.3897
    5CHL1   H3'  300   6.004   3.469   6.090 -0.5132 -0.4338 -1.1016
    5CHL1    C4  301   5.854   3.403   5.882 -0.2458 -0.1620  0.4371
    5CHL1   H4A  302   5.765   3.365   5.938  0.4274 -3.2888 -0.4087
    5CHL1   H4B  303   5.872   3.512   5.890  1.5866 -0.3328 -0.7858
    5CHL1    C5  304   5.833   3.370   5.739 -0.8256 -0.4726 -0.0686
    5CHL1    C6  305   5.845   3.464   5.645 -0.0255  0.1334 -0.1920
    5CHL1    H6  306   5.863   3.568   5.677  0.0642  0.9705 -2.7181
    5CHL1    C7  307   5.829   3.440   5.497 -0.3956 -0.4492 -0.7863
    5CHL1   H7A  308   5.771   3.525   5.454 -0.6912  0.1684  0.7779
    5CHL1   H7B  309   5.930   3.432   5.451  0.8621 -1.2381  1.8997
    5CHL1    C8  310   5.759   3.306   5.466 -0.0772 -0.1563 -0.1668
    5CHL1    H8  311   5.655   3.332   5.495 -0.2295  0.8862 -1.5183
    5CHL1   C14  312   5.743   3.276   5.320 -0.1099 -0.2592 -0.8965
    5CHL1   H14  313   5.849   3.263   5.290  0.1029 -2.4924  0.6260
    5CHL1   C15  314   5.688   3.380   5.219  0.6145  0.1278  0.4493
    5CHL1  H15A  315   5.605   3.433   5.271  1.1287  0.2218  1.1983
    5CHL1  H15B  316   5.762   3.457   5.188 -0.0237  0.4529 -0.3294
    5CHL1   C16  317   5.639   3.296   5.103  0.3662  0.1208  0.2870
    5CHL1  H16A  318   5.530   3.315   5.112  0.4170 -0.1301  1.8231
    5CHL1  H16B  319   5.682   3.335   5.009  0.1985 -2.8133 -1.1010
    5CHL1   C17  320   5.683   3.150   5.132  0.4749  0.2105 -0.2979
    5CHL1   H17  321   5.789   3.152   5.097  0.7901 -0.5539  0.6068
    5CHL1   C13  322   5.674   3.140   5.286  0.2528 -0.5895  0.2513
    5CHL1   C18  323   5.528   3.138   5.337  0.7465 -0.8525  0.2143
    5CHL1  H18A  324   5.457   3.197   5.276  1.7098 -1.5306 -1.6315
    5CHL1  H18B  325   5.487   3.035   5.341  0.4460 -0.7155  0.8794
    5CHL1  H18C  326   5.523   3.176   5.441  0.0536  1.5270 -0.6306
    5CHL1   C12  327   5.764   3.034   5.349  0.9451  0.8789  0.0221
    5CHL1  H12A  328   5.714   2.937   5.327  1.7500  0.5027 -0.1531
    5CHL1  H12B  329   5.863   3.031   5.300 -0.8499 -2.3338 -4.0723
    5CHL1   C11  330   5.770   3.044   5.498 -0.3157  0.0457  0.0065
    5CHL1  H11A  331   5.673   3.024   5.550 -0.6053  1.9756  0.3117
    5CHL1  H11B  332   5.847   2.977   5.541 -0.3086 -0.1270 -0.2820
    5CHL1    C9  333   5.807   3.193   5.549  0.3669 -0.0012 -0.3628
    5CHL1    H9  334   5.914   3.194   5.522  0.2668 -2.0777 -0.9980
    5CHL1   C10  335   5.811   3.221   5.707  0.0692  0.1166  0.0883
    5CHL1   C19  336   5.669   3.186   5.768  0.1911  0.1640 -0.2386
    5CHL1  H19A  337   5.586   3.250   5.732 -1.0128  0.0320  2.1055
    5CHL1  H19B  338   5.634   3.082   5.752  1.0956 -0.3209  0.7832
    5CHL1  H19C  339   5.674   3.188   5.879  1.0980  1.9101 -0.2645
    5CHL1    C1  340   5.924   3.144   5.782 -0.3399 -0.7483  0.2418
    5CHL1   H1A  341   5.909   3.035   5.767  0.2695 -1.1604  2.2474
    5CHL1   H1B  342   6.012   3.178   5.724 -0.8313 -0.1947 -0.1808
    5CHL1    C2  343   5.954   3.178   5.929  0.3047  0.1942 -0.2620
    5CHL1   H2A  344   6.037   3.121   5.975  0.2846  0.6996  0.4121
    5CHL1   H2B  345   5.860   3.150   5.981  0.9113  1.9479  1.8950
    5CHL1   C20  346   5.608   3.044   5.046  0.5342 -0.1456  0.3200
    5CHL1   H20  347   5.538   2.989   5.112  0.3160 -0.9256 -0.5352
    5CHL1   C21  348   5.704   2.929   5.019  0.0591 -0.5940  0.5376
    5CHL1  H21A  349   5.752   2.899   5.114  1.7740  0.2962 -0.0017
    5CHL1  H21B  350   5.786   2.956   4.948  1.0569 -0.0846  1.8388
    5CHL1  H21C  351   5.644   2.848   4.972 -0.4147 -0.6920  1.3116
    5CHL1   C22  352   5.531   3.095   4.922  0.3684 -0.5659  0.2699
    5CHL1  H22A  353   5.450   3.166   4.949  1.5012  1.4492 -1.3849
    5CHL1  H22B  354   5.594   3.165   4.865  0.0522 -0.4853  0.0191
    5CHL1   C23  355   5.453   2.991   4.828 -0.2776  0.0031 -0.2716
    5CHL1  H23A  356   5.533   2.933   4.776 -2.3138 -0.0845 -3.6014
    5CHL1  H23B  357   5.397   2.929   4.902  0.7711 -0.0291  0.5308
    5CHL1   C24  358   5.349   3.060   4.734  0.1761 -0.8715  0.5638
    5CHL1  H24A  359   5.275   3.095   4.809  0.5567  1.9047 -0.2300
    5CHL1  H24B  360   5.395   3.143   4.677 -2.3561  1.2538  1.4227
    5CHL1   C25  361   5.279   2.979   4.624 -0.2538  0.9543  0.1222
    5CHL1   H25  362   5.262   2.877   4.665  0.9303 -0.2995 -2.2813
    5CHL1   C26  363   5.142   3.047   4.594  0.2798  0.0635  0.0668
    5CHL1  H26A  364   5.097   2.998   4.505  1.9192  0.5672 -1.0680
    5CHL1  H26B  365   5.073   3.041   4.682 -0.5209  1.1833 -0.4547
    5CHL1  H26C  366   5.171   3.151   4.567 -0.1726  0.2235  0.1802
    5CHL1   C27  367   5.362   2.942   4.500  0.2701 -0.6404 -0.7768
    5CHL1  H27A  368   5.463   2.899   4.517  0.0820 -0.0803  2.4239
    5CHL1  H27B  369   5.299   2.876   4.437  0.3437 -1.2820 -0.1887
    5CHL1  H27C  370   5.381   3.038   4.446  0.6832  0.7054  1.5916
    6CHL1    C3  371   0.171   2.259   5.977  0.5211  0.3460 -0.1721
    6CHL1    H3  372   0.214   2.158   5.960  1.0985  0.5358  0.1463
    6CHL1    O3  373   0.166   2.284   6.117  0.6278 -0.3989  0.0719
    6CHL1   H3'  374   0.153   2.379   6.121 -1.0064 -0.6285  1.7632
    6CHL1    C4  375   0.251   2.367   5.915 -0.0392  0.0614  0.1255
    6CHL1   H4A  376   0.208   2.465   5.944  0.6611  0.3561  0.2015
    6CHL1   H4B  377   0.355   2.357   5.953 -0.1185 -1.7620 -0.0484
    6CHL1    C5  378   0.264   2.352   5.767  0.7760  0.1055  0.5796
    6CHL1    C6  379   0.383   2.345   5.705 -0.5085 -0.2468 -0.1855
    6CHL1    H6  380   0.473   2.344   5.768 -0.2287  0.9002 -0.5638
    6CHL1    C7  381   0.407   2.321   5.553  0.9067 -0.1914 -0.1211
    6CHL1   H7A  382   0.490   2.390   5.526 -0.0797  1.8899  1.8190
    6CHL1   H7B  383   0.439   2.215   5.539  2.0426  0.0838  0.2148
    6CHL1    C8  384   0.285   2.370   5.480  0.6701 -0.5499  1.0053
    6CHL1    H8  385   0.279   2.481   5.488  2.8021 -0.2391 -1.0299
    6CHL1   C14  386   0.286   2.338   5.331  0.4996  0.2708 -0.7790
    6CHL1   H14  387   0.304   2.228   5.326 -1.2168 -0.0766 -0.0092
    6CHL1   C15  388   0.401   2.392   5.240  1.0349  0.4128 -0.0179
    6CHL1  H15A  389   0.397   2.502   5.252  0.8887  0.3760  0.2809
    6CHL1  H15B  390   0.506   2.358   5.254  0.3383 -1.2632  1.4790
    6CHL1   C16  391   0.350   2.351   5.098 -0.1609  0.3896 -0.2603
    6CHL1  H16A  392   0.359   2.443   5.036  1.5595  0.2458 -0.2713
    6CHL1  H16B  393   0.413   2.269   5.057 -1.1336 -0.2736 -0.4405
    6CHL1   C17  394   0.206   2.295   5.115 -0.3547  0.1588 -0.0819
    6CHL1   H17  395   0.227   2.187   5.135 -2.2673 -0.3575 -0.7244
    6CHL1   C13  396   0.155   2.348   5.253 -0.3899  0.1131 -0.0266
    6CHL1   C18  397   0.112   2.494   5.238  0.9976 -0.1591  0.2898
    6CHL1  H18A  398   0.097   2.537   5.340 -0.9262  0.5781 -0.2444
    6CHL1  H18B  399   0.196   2.554   5.198  1.1802 -0.5752  0.0432
    6CHL1  H18C  400   0.011   2.509   5.193  0.2153  1.6189  2.4294
    6CHL1   C12  401   0.044   2.264   5.310  0.1302  1.0591 -0.2707
    6CHL1  H12A  402  -0.048   2.278   5.251 -0.5462  0.3250  0.5768
    6CHL1  H12B  403   0.070   2.156   5.318 -2.9217  0.2447 -0.2085
    6CHL1   C11  404   0.023   2.310   5.455 -0.0609 -0.0139 -0.1020
    6CHL1  H11A  405  -0.014   2.414   5.454  1.6735  0.6716  1.1952
    6CHL1  H11B  406  -0.043   2.246   5.516  1.0986 -0.4759  0.7151
    6CHL1    C9  407   0.157   2.311   5.540  0.3398  0.5414 -0.1614
    6CHL1    H9  408   0.182   2.203   5.549 -2.0337 -0.2348 -1.7577
    6CHL1   C10  409   0.128   2.355   5.691  0.2804 -0.5985 -0.2084
    6CHL1   C19  410   0.075   2.496   5.691  0.2989  0.0536 -0.6664
    6CHL1  H19A  411  -0.022   2.505   5.638 -0.2802  3.7679  0.6862
    6CHL1  H19B  412   0.042   2.527   5.793  0.2804 -1.2492 -0.2619
    6CHL1  H19C  413   0.147   2.567   5.644  1.2399 -1.0383 -0.9075
    6CHL1    C1  414   0.037   2.242   5.760 -0.7709  0.0921 -0.2637
    6CHL1   H1A  415  -0.065   2.245   5.717 -1.3054  0.5186  0.9795
    6CHL1   H1B  416   0.077   2.143   5.729 -0.1859  0.0328  0.6319
    6CHL1    C2  417   0.029   2.252   5.915 -0.3252  0.9821 -0.0346
    6CHL1   H2A  418  -0.021   2.156   5.941 -0.4637  1.5205  1.8757
    6CHL1   H2B  419  -0.025   2.339   5.956  1.3279  0.7755  2.9302
    6CHL1   C20  420   0.106   2.299   4.992 -0.6560  0.2607 -0.2844
    6CHL1   H20  421   0.005   2.271   5.030 -0.7277  3.4064  2.2273
    6CHL1   C21  422   0.128   2.177   4.904 -0.2509 -1.0387  0.5446
    6CHL1  H21A  423   0.225   2.177   4.849 -0.8267 -1.3491 -0.4925
    6CHL1  H21B  424   0.046   2.175   4.829  0.1137  2.0522 -0.0900
    6CHL1  H21C  425   0.135   2.087   4.969 -0.6673 -2.0037 -0.7020
    6CHL1   C22  426   0.095   2.434   4.914 -0.2482 -0.4714  0.1201
    6CHL1  H22A  427   0.058   2.508   4.988 -0.5033 -0.6389  0.1615
    6CHL1  H22B  428   0.191   2.466   4.867 -1.2234  1.0751 -0.9123
    6CHL1   C23  429  -0.007   2.429   4.798 -0.4761  0.2589  0.6538
    6CHL1  H23A  430   0.028   2.354   4.724 -0.9572 -0.8404  1.5046
    6CHL1  H23B  431  -0.105   2.403   4.843  0.1085 -0.9198  1.2798
    6CHL1   C24  432  -0.013   2.563   4.722 -0.5269 -0.2690 -0.2790
    6CHL1  H24A  433  -0.001   2.646   4.796 -1.9604 -0.7080  0.4956
    6CHL1  H24B  434   0.069   2.559   4.648  0.3030  0.0843  0.5987
    6CHL1   C25  435  -0.141   2.599   4.638 -0.3871 -0.0355  0.8908
    6CHL1   H25  436  -0.161   2.521   4.562 -1.6939  1.0208  0.0827
    6CHL1   C26  437  -0.266   2.608   4.733 -0.0127 -0.4815  0.9115
    6CHL1  H26A  438  -0.292   2.500   4.739  2.1445 -1.1340 -0.3999
    6CHL1  H26B  439  -0.243   2.655   4.831 -1.1716  0.2359  0.8519
    6CHL1  H26C  440  -0.351   2.656   4.681 -1.5585 -3.2894  0.6478
    6CHL1   C27  441  -0.118   2.728   4.559  0.2052  0.7958  0.4334
    6CHL1  H27A  442  -0.185   2.736   4.471  0.7163 -1.7537 -0.2693
    6CHL1  H27B  443  -0.136   2.813   4.628 -0.4413  0.4955  0.6453
    6CHL1  H27C  444  -0.023   2.717   4.502 -0.3362  1.2017 -0.5566
    7CHL1    C3  445   1.088   2.414   6.029  0.5243 -0.1806 -0.0937
    7CHL1    H3  446   1.126   2.314   5.997 -0.1098 -0.3910 -0.1924
    7CHL1    O3  447   1.091   2.429   6.170 -0.2281  0.0426 -0.4375
    7CHL1   H3'  448   1.049   2.512   6.194 -2.1218 -0.3463 -2.1292
    7CHL1    C4  449   1.175   2.527   5.961 -0.1833  0.0662  0.3145
    7CHL1   H4A  450   1.144   2.626   6.003 -1.8001  0.4693 -1.6489
    7CHL1   H4B  451   1.282   2.508   5.980 -0.6277 -3.2074  0.0996
    7CHL1    C5  452   1.140   2.533   5.806  0.3827  0.1222 -0.3131
    7CHL1    C6  453   1.238   2.536   5.719 -0.0626  0.0944 -0.1240
    7CHL1    H6  454   1.343   2.529   5.750  0.0759  1.2167 -0.2953
    7CHL1    C7  455   1.212   2.556   5.573 -0.2913 -0.3470  0.8652
    7CHL1   H7A  456   1.289   2.627   5.537 -1.7161  1.9342  2.1010
    7CHL1   H7B  457   1.215   2.456   5.525 -0.9790 -0.0877  0.2752
    7CHL1    C8  458   1.067   2.608   5.536  0.3759 -0.2904  0.4106
    7CHL1    H8  459   1.062   2.717   5.555  2.4269  0.2224 -1.5706
    7CHL1   C14  460   1.040   2.587   5.383  0.1737 -0.5301  0.3294
    7CHL1   H14  461   1.041   2.477   5.368 -3.5363 -0.4013 -2.1930
    7CHL1   C15  462   1.152   2.639   5.292  1.1512 -0.0113  0.1891
    7CHL1  H15A  463   1.197   2.731   5.337 -1.1504  0.7039  1.1957
    7CHL1  H15B  464   1.231   2.561   5.286  0.8012 -0.2822 -1.0585
    7CHL1   C16  465   1.078   2.658   5.152  1.2204 -0.1614 -0.0954
    7CHL1  H16A  466   1.070   2.768   5.140 -2.1232 -0.0854  1.7163
    7CHL1  H16B  467   1.127   2.625   5.058 -0.9831 -0.5956 -1.1605
    7CHL1   C17  468   0.929   2.604   5.176  0.2527 -0.3486 -1.2310
    7CHL1   H17  469   0.943   2.495   5.156  2.9524 -0.8539  2.3724
    7CHL1   C13  470   0.904   2.637   5.329 -0.8574 -0.0979 -0.3007
    7CHL1   C18  471   0.899   2.791   5.350  0.3540 -0.5300  0.7066
    7CHL1  H18A  472   0.801   2.826   5.312 -0.7204 -1.6334  2.2928
    7CHL1  H18B  473   0.900   2.815   5.459  0.0470  0.0920  0.5757
    7CHL1  H18C  474   0.988   2.849   5.319  0.5070 -1.2777 -0.3006
    7CHL1   C12  475   0.798   2.560   5.411  0.3572  0.4375 -0.2697
    7CHL1  H12A  476   0.699   2.601   5.382 -0.6198 -1.2405  0.5492
    7CHL1  H12B  477   0.789   2.453   5.381  3.1778  0.8927 -3.3583
    7CHL1   C11  478   0.811   2.569   5.560 -0.2144 -0.5242 -0.0409
    7CHL1  H11A  479   0.795   2.674   5.594  0.4063 -0.8744  1.3950
    7CHL1  H11B  480   0.737   2.509   5.618 -0.8301  0.3569  0.1041
    7CHL1    C9  481   0.955   2.528   5.613  0.4086  0.3269  0.1850
    7CHL1    H9  482   0.981   2.422   5.592  1.0311  0.4372  0.3767
    7CHL1   C10  483   0.992   2.535   5.766  0.7461 -0.4580  0.3170
    7CHL1   C19  484   0.921   2.666   5.813 -0.0485 -0.0588  0.3746
    7CHL1  H19A  485   0.944   2.753   5.747  0.3199  0.4826  1.2065
    7CHL1  H19B  486   0.811   2.651   5.802 -0.2125  0.8200  0.7169
    7CHL1  H19C  487   0.943   2.685   5.920 -0.1430 -4.6786  1.4260
    7CHL1    C1  488   0.916   2.424   5.840  0.2991 -0.2813  0.0726
    7CHL1   H1A  489   0.805   2.429   5.841  0.3454  2.0650 -0.4069
    7CHL1   H1B  490   0.949   2.326   5.798  0.1057  0.4535 -1.9268
    7CHL1    C2  491   0.935   2.422   5.991  0.3479 -0.7441  0.1757
    7CHL1   H2A  492   0.881   2.333   6.031 -3.5490  1.5794  0.5986
    7CHL1   H2B  493   0.895   2.515   6.037 -0.1147 -0.0665 -1.5055
    7CHL1   C20  494   0.813   2.650   5.082  0.4247 -0.9225  0.0741
    7CHL1   H20  495   0.763   2.739   5.125 -1.6995 -1.9439 -0.1391
    7CHL1   C21  496   0.711   2.535   5.080 -0.2927  0.0408 -0.3170
    7CHL1  H21A  497   0.677   2.505   5.181  0.3081 -0.6519 -0.3134
    7CHL1  H21B  498   0.752   2.447   5.025  1.9340 -0.1955  1.5670
    7CHL1  H21C  499   0.628   2.578   5.020 -0.3442  0.8764  0.3437
    7CHL1   C22  500   0.858   2.693   4.940 -0.7243  0.6440  0.2567
    7CHL1  H22A  501   0.905   2.794   4.946 -3.4011  2.1245 -1.3680
    7CHL1  H22B  502   0.920   2.621   4.881 -2.4221 -1.5722  1.0619
    7CHL1   C23  503   0.748   2.731   4.844  0.0196  1.0468  0.0651
    7CHL1  H23A  504   0.690   2.639   4.819 -0.4493  0.8504  1.7349
    7CHL1  H23B  505   0.698   2.813   4.899 -0.4509 -0.2411  1.6511
    7CHL1   C24  506   0.798   2.769   4.700  0.0061 -0.2164  0.3750
    7CHL1  H24A  507   0.874   2.848   4.719  0.5316 -1.5105  4.7460
    7CHL1  H24B  508   0.845   2.675   4.662 -0.3414  0.1495 -1.0369
    7CHL1   C25  509   0.687   2.821   4.610 -0.3205 -0.5997 -0.2850
    7CHL1   H25  510   0.602   2.750   4.617 -0.6081 -0.2300  0.0274
    7CHL1   C26  511   0.638   2.963   4.649  0.1161 -0.6220  0.1856
    7CHL1  H26A  512   0.723   3.026   4.685 -0.1991 -1.2265  2.0590
    7CHL1  H26B  513   0.583   3.013   4.566  0.2865 -0.8219 -0.0513
    7CHL1  H26C  514   0.568   2.951   4.734  0.0485 -1.1105  0.0609
    7CHL1   C27  515   0.740   2.825   4.467  0.1367 -0.2281 -0.9223
    7CHL1  H27A  516   0.653   2.810   4.400  1.0083  2.2533 -2.7840
    7CHL1  H27B  517   0.779   2.927   4.447 -5.5988  2.2849 -1.3655
    7CHL1  H27C  518   0.818   2.746   4.461  0.4144 -0.1738  1.0906
    8CHL1    C3  519   3.727   2.443   6.318  0.6904 -0.0119 -1.0800
    8CHL1    H3  520   3.642   2.373   6.325 -0.0308  0.8063 -1.4130
    8CHL1    O3  521   3.723   2.512   6.442  0.1913  0.2816  0.3699
    8CHL1   H3'  522   3.815   2.519   6.470  1.2500 -0.3698 -2.5784
    8CHL1    C4  523   3.863   2.373   6.305  0.3110  0.3190 -0.4202
    8CHL1   H4A  524   3.947   2.444   6.312  1.4280 -1.1107  3.2668
    8CHL1   H4B  525   3.883   2.309   6.394  3.1977  1.3376 -0.2348
    8CHL1    C5  526   3.861   2.300   6.172 -0.1847 -0.2153 -0.1563
    8CHL1    C6  527   3.874   2.167   6.160 -0.3758 -0.4591  0.1256
    8CHL1    H6  528   3.902   2.104   6.246 -1.2902 -2.6149 -1.0666
    8CHL1    C7  529   3.885   2.084   6.026 -0.3139 -0.0981  0.1120
    8CHL1   H7A  530   3.967   2.010   6.039 -0.3692  0.1881  2.4930
    8CHL1   H7B  531   3.792   2.028   6.002 -0.0041  0.4868 -2.8423
    8CHL1    C8  532   3.929   2.181   5.912  0.7637 -0.5282  0.0637
    8CHL1    H8  533   4.025   2.231   5.938 -0.2169 -0.3247  3.7606
    8CHL1   C14  534   3.933   2.116   5.777  0.2408  0.1764 -0.1848
    8CHL1   H14  535   3.834   2.068   5.788  1.8838 -3.4407  0.2860
    8CHL1   C15  536   4.022   1.976   5.761  0.6402 -0.1910  0.4143
    8CHL1  H15A  537   4.125   1.980   5.801  1.1248 -0.9687 -0.7006
    8CHL1  H15B  538   3.965   1.892   5.806 -0.5255  0.2200 -0.2355
    8CHL1   C16  539   4.033   1.971   5.603  0.0070 -0.4236  0.5598
    8CHL1  H16A  540   4.131   1.998   5.559 -0.6716 -0.2097 -0.9026
    8CHL1  H16B  541   3.995   1.874   5.564 -2.1903  0.9358 -0.9522
    8CHL1   C17  542   3.934   2.087   5.549  0.0506  0.1019 -0.2187
    8CHL1   H17  543   3.830   2.047   5.555 -0.1805  0.1218 -3.0461
    8CHL1   C13  544   3.951   2.201   5.653 -0.0378  0.7928  1.2571
    8CHL1   C18  545   4.090   2.267   5.647  0.3641  0.1934  0.4140
    8CHL1  H18A  546   4.095   2.324   5.552  0.0770  1.7268  1.2907
    8CHL1  H18B  547   4.084   2.348   5.723 -1.0385  0.1506  0.3705
    8CHL1  H18C  548   4.173   2.194   5.660 -0.4642 -0.7964  0.2520
    8CHL1   C12  549   3.837   2.310   5.655 -0.5468 -0.1902 -0.3506
    8CHL1  H12A  550   3.837   2.379   5.567  0.7829  1.7112  1.0288
    8CHL1  H12B  551   3.741   2.255   5.658 -1.4701  1.2893 -1.1842
    8CHL1   C11  552   3.841   2.397   5.787 -0.9626 -0.0668 -0.0872
    8CHL1  H11A  553   3.929   2.465   5.783 -0.8856 -0.1805 -0.4364
    8CHL1  H11B  554   3.751   2.462   5.792 -2.3610 -1.9998  3.3013
    8CHL1    C9  555   3.829   2.305   5.913 -0.3285  0.5735 -0.3920
    8CHL1    H9  556   3.731   2.255   5.926  0.3671 -0.8351 -0.3847
    8CHL1   C10  557   3.842   2.386   6.048 -0.7990  0.0218 -0.6884
    8CHL1   C19  558   3.967   2.477   6.041 -0.4449 -0.3375  0.5220
    8CHL1  H19A  559   3.974   2.545   5.954  1.3914 -0.1448  0.7810
    8CHL1  H19B  560   3.958   2.548   6.126 -0.6687  0.3058 -0.0282
    8CHL1  H19C  561   4.060   2.419   6.056 -0.5700 -1.0400 -1.1840
    8CHL1    C1  562   3.716   2.471   6.064  0.0442  0.5269  0.2750
    8CHL1   H1A  563   3.708   2.548   5.984  1.3533  1.3778  0.9118
    8CHL1   H1B  564   3.622   2.411   6.062 -0.7085  1.6795 -1.6034
    8CHL1    C2  565   3.705   2.548   6.201  0.7983  0.6405 -0.1963
    8CHL1   H2A  566   3.608   2.601   6.205  1.0209  1.2550 -1.9049
    8CHL1   H2B  567   3.780   2.630   6.202 -1.4839  2.8276  2.0086
    8CHL1   C20  568   3.936   2.115   5.399 -0.3730 -0.3951  0.0722
    8CHL1   H20  569   3.893   2.214   5.374 -2.5150 -1.0192  1.1141
    8CHL1   C21  570   3.853   2.006   5.332 -0.4599  0.3928 -0.7860
    8CHL1  H21A  571   3.744   2.010   5.356 -0.1508  1.3986  0.5581
    8CHL1  H21B  572   3.899   1.908   5.357 -1.8008 -0.7376 -2.4859
    8CHL1  H21C  573   3.865   2.015   5.222 -1.0536  0.7733 -0.8297
    8CHL1   C22  574   4.076   2.124   5.335 -0.4120  0.1481 -0.6705
    8CHL1  H22A  575   4.126   2.213   5.379 -0.1876 -0.8413  1.1456
    8CHL1  H22B  576   4.130   2.034   5.370  1.2028  1.5082  0.5407
    8CHL1   C23  577   4.085   2.137   5.184 -0.1999 -0.3671 -0.0127
    8CHL1  H23A  578   4.047   2.048   5.128  1.6462 -1.1104 -0.1485
    8CHL1  H23B  579   4.008   2.211   5.153  0.6520  0.4312 -0.2632
    8CHL1   C24  580   4.228   2.167   5.130 -0.0271  0.8134 -0.2854
    8CHL1  H24A  581   4.281   2.236   5.199 -2.7992  1.1727  1.6638
    8CHL1  H24B  582   4.280   2.069   5.128 -2.6278 -0.8250  3.0725
    8CHL1   C25  583   4.234   2.232   4.991 -1.0518 -0.6343  0.2798
    8CHL1   H25  584   4.190   2.162   4.917  3.7386 -1.1211 -2.5099
    8CHL1   C26  585   4.142   2.356   4.973 -0.0060 -0.4729  0.0386
    8CHL1  H26A  586   4.040   2.311   4.980  0.3756 -1.3968 -0.2254
    8CHL1  H26B  587   4.172   2.438   5.042  0.6266 -0.4421 -0.2666
    8CHL1  H26C  588   4.145   2.397   4.870  1.2551 -0.8988 -0.1017
    8CHL1   C27  589   4.377   2.268   4.943 -0.0111  0.1864 -0.2596
    8CHL1  H27A  590   4.379   2.378   4.927  2.3284 -0.1262 -3.0855
    8CHL1  H27B  591   4.468   2.224   4.989  1.1200 -1.2137 -3.5146
    8CHL1  H27C  592   4.385   2.239   4.836  1.1614 -0.3526 -0.0422
    9CHL1    C3  593   6.013   4.465   6.230 -0.7098  0.5902  0.5430
    9CHL1    H3  594   5.921   4.518   6.196  0.9547  2.4653 -1.3417
    9CHL1    O3  595   6.007   4.430   6.368 -0.5444 -0.0148  0.5283
    9CHL1   H3'  596   6.096   4.405   6.394  0.5772  2.3725 -0.6898
    9CHL1    C4  597   6.047   4.341   6.142 -0.8158  0.0681  0.1383
    9CHL1   H4A  598   6.138   4.299   6.190 -0.4622  2.3173  1.5931
    9CHL1   H4B  599   5.966   4.267   6.158 -0.2972 -0.2653  1.3415
    9CHL1    C5  600   6.054   4.393   6.001  0.5455 -0.9577 -0.1389
    9CHL1    C6  601   5.965   4.353   5.915  0.9928  0.5879 -0.3440
    9CHL1    H6  602   5.885   4.281   5.937  1.4365 -0.2728 -1.4762
    9CHL1    C7  603   5.955   4.405   5.779  0.7815 -0.3075 -0.5706
    9CHL1   H7A  604   5.934   4.313   5.721  0.0916 -0.7241  0.3069
    9CHL1   H7B  605   5.890   4.492   5.753  0.2805 -0.5835 -0.2518
    9CHL1    C8  606   6.094   4.454   5.732 -0.0011  0.3144 -1.0185
    9CHL1    H8  607   6.168   4.372   5.735  0.4393  0.7398  0.1994
    9CHL1   C14  608   6.090   4.499   5.586  0.2789  0.3751  0.0833
    9CHL1   H14  609   6.008   4.573   5.587 -1.8768 -1.8244 -1.5367
    9CHL1   C15  610   6.059   4.392   5.477  0.0059 -0.0678 -0.6502
    9CHL1  H15A  611   6.124   4.303   5.493  0.0876  0.4550  2.5013
    9CHL1  H15B  612   5.958   4.344   5.474  0.7556 -1.7381 -0.3501
    9CHL1   C16  613   6.101   4.464   5.348  0.7544  0.4800  0.6369
    9CHL1  H16A  614   6.172   4.391   5.304  0.4587 -0.3779  1.5646
    9CHL1  H16B  615   6.022   4.486   5.274  0.2891  0.6563  1.1816
    9CHL1   C17  616   6.177   4.600   5.387 -0.7539  1.0528 -0.8789
    9CHL1   H17  617   6.098   4.678   5.394 -2.4880 -0.6624 -0.5056
    9CHL1   C13  618   6.214   4.575   5.537 -0.4005 -0.2443  0.3465
    9CHL1   C18  619   6.344   4.484   5.542 -0.1607 -0.2063 -0.6153
    9CHL1  H18A  620   6.353   4.444   5.645 -1.8436 -0.7347 -0.6492
    9CHL1  H18B  621   6.334   4.404   5.466 -0.1671 -1.3382  0.5312
    9CHL1  H18C  622   6.432   4.541   5.507  0.6686 -0.7791  0.4758
    9CHL1   C12  623   6.226   4.706   5.624  0.5012  0.1493  0.3625
    9CHL1  H12A  624   6.310   4.771   5.592 -1.1425  1.4526 -1.5353
    9CHL1  H12B  625   6.128   4.758   5.620  0.6500  0.4426  0.5064
    9CHL1   C11  626   6.250   4.661   5.770 -0.0881 -0.5118 -0.5797
    9CHL1  H11A  627   6.352   4.619   5.777 -0.1075 -0.3782  0.6565
    9CHL1  H11B  628   6.245   4.754   5.830  0.5397 -1.7890  1.6024
    9CHL1    C9  629   6.136   4.566   5.830  0.5194  0.6842  0.8787
    9CHL1    H9  630   6.048   4.634   5.826  0.8877  1.2845  2.4872
    9CHL1   C10  631   6.158   4.505   5.970 -0.0287 -0.2306 -0.0989
    9CHL1   C19  632   6.304   4.438   5.965 -0.2137 -0.0082 -1.0612
    9CHL1  H19A  633   6.303   4.361   5.885 -0.7216 -0.1368 -0.9410
    9CHL1  H19B  634   6.377   4.519   5.946 -1.4542  1.3725 -0.2645
    9CHL1  H19C  635   6.318   4.395   6.067  0.4567 -0.4178 -1.3236
    9CHL1    C1  636   6.134   4.618   6.074 -0.0731 -0.3662  0.1151
    9CHL1   H1A  637   6.221   4.686   6.081 -0.9109  0.7605 -0.2030
    9CHL1   H1B  638   6.041   4.676   6.058  0.3879  1.9575  4.2840
    9CHL1    C2  639   6.128   4.568   6.217 -0.1966  0.2177  0.7043
    9CHL1   H2A  640   6.105   4.646   6.293 -0.4592  0.4646  0.3772
    9CHL1   H2B  641   6.233   4.532   6.225  0.8581  2.6888 -0.7314
    9CHL1   C20  642   6.289   4.637   5.291 -0.2756  0.4631  0.2861
    9CHL1   H20  643   6.355   4.549   5.274 -1.1711 -0.1612 -0.0879
    9CHL1   C21  644   6.356   4.769   5.338  0.8076  0.4229  0.0795
    9CHL1  H21A  645   6.425   4.800   5.256  0.0734  1.6769 -0.0870
    9CHL1  H21B  646   6.420   4.750   5.426  0.9708 -2.6160 -0.5930
    9CHL1  H21C  647   6.280   4.849   5.354  0.0862  0.3845 -2.5428
    9CHL1   C22  648   6.223   4.669   5.156 -0.6572 -0.3921 -0.4385
    9CHL1  H22A  649   6.166   4.583   5.115 -1.6210 -2.0740  3.8508
    9CHL1  H22B  650   6.160   4.760   5.156  1.4319  1.1333  0.1078
    9CHL1   C23  651   6.330   4.694   5.037  0.4695  0.2159 -0.0697
    9CHL1  H23A  652   6.355   4.803   5.042  1.8762 -0.1077  0.4501
    9CHL1  H23B  653   6.413   4.621   5.032 -1.7673 -2.4576 -0.6125
    9CHL1   C24  654   6.259   4.672   4.900  0.5232 -0.6766 -0.1598
    9CHL1  H24A  655   6.246   4.564   4.876 -0.2788 -0.8016  0.7572
    9CHL1  H24B  656   6.164   4.729   4.897 -0.4307 -2.2485 -1.1592
    9CHL1   C25  657   6.349   4.731   4.788  0.9765 -0.4673 -0.4581
    9CHL1   H25  658   6.396   4.826   4.820  1.0761  0.4367 -3.0730
    9CHL1   C26  659   6.463   4.651   4.736  0.0001  0.4136 -0.2473
    9CHL1  H26A  660   6.523   4.721   4.675 -2.0812  1.0089 -1.7015
    9CHL1  H26B  661   6.526   4.622   4.823  1.8696  1.5960 -1.1506
    9CHL1  H26C  662   6.424   4.563   4.680 -0.0303 -2.2156  3.4961
    9CHL1   C27  663   6.268   4.771   4.659 -0.4041 -0.1336  0.0610
    9CHL1  H27A  664   6.338   4.795   4.577  0.2791 -1.0663  0.3545
    9CHL1  H27B  665   6.204   4.689   4.620  1.5222 -1.1961 -1.0122
    9CHL1  H27C  666   6.211   4.865   4.680  0.0460 -0.0246  0.8298
   10CHL1    C3  667   6.640   4.680   6.250  0.4545  0.8039  0.8102
   10CHL1    H3  668   6.601   4.581   6.217  3.2610  0.2677 -1.2614
   10CHL1    O3  669   6.613   4.709   6.385 -0.1310 -0.2805  0.5415
   10CHL1   H3'  670   6.659   4.792   6.398  3.2963 -1.7201 -1.0128
   10CHL1    C4  671   6.795   4.683   6.222 -0.1925 -0.0973 -0.3356
   10CHL1   H4A  672   6.830   4.780   6.264 -1.3446  0.6617 -1.0960
   10CHL1   H4B  673   6.838   4.599   6.281  2.0963  0.6736 -0.8243
   10CHL1    C5  674   6.840   4.674   6.078  0.0215  0.1446  0.0651
   10CHL1    C6  675   6.924   4.578   6.042 -0.1143 -0.5120  0.1565
   10CHL1    H6  676   6.972   4.512   6.116 -0.9113 -0.4776  0.7298
   10CHL1    C7  677   6.947   4.546   5.894  0.7750 -0.5176  0.9172
   10CHL1   H7A  678   7.056   4.534   5.875  0.4078 -1.3781 -0.8587
   10CHL1   H7B  679   6.906   4.447   5.863 -1.2112  0.1969  1.1600
   10CHL1    C8  680   6.903   4.655   5.792 -0.0577  0.2620  0.5941
   10CHL1    H8  681   6.981   4.734   5.801  1.4008 -0.6415 -2.6324
   10CHL1   C14  682   6.892   4.601   5.646 -0.0758 -0.4454 -0.5642
   10CHL1   H14  683   6.801   4.538   5.659 -0.4921  0.5868  2.1716
   10CHL1   C15  684   7.003   4.503   5.588  0.3631  0.2450 -0.3420
   10CHL1  H15A  685   7.106   4.545   5.599  1.6065 -1.7720 -2.9779
   10CHL1  H15B  686   6.995   4.398   5.622 -0.0860  0.7463  1.1831
   10CHL1   C16  687   6.970   4.502   5.442 -0.4268 -0.5435 -0.3147
   10CHL1  H16A  688   7.062   4.533   5.389 -0.1212 -1.1223 -0.1382
   10CHL1  H16B  689   6.947   4.399   5.405 -0.6273 -0.5656 -0.1300
   10CHL1   C17  690   6.858   4.603   5.417  0.5197 -0.2792  0.2117
   10CHL1   H17  691   6.764   4.543   5.420  0.3207  0.0602  0.7160
   10CHL1   C13  692   6.855   4.698   5.537  0.6501 -0.7079 -0.3764
   10CHL1   C18  693   6.963   4.817   5.521  0.1735 -0.1217 -0.3601
   10CHL1  H18A  694   6.934   4.899   5.452  3.1393  2.2748  0.9853
   10CHL1  H18B  695   6.984   4.860   5.621  1.0962 -2.2409  0.4150
   10CHL1  H18C  696   7.058   4.771   5.487  1.3790  1.9857 -0.0267
   10CHL1   C12  697   6.723   4.760   5.577  0.3275  0.2331 -0.3900
   10CHL1  H12A  698   6.690   4.835   5.502 -0.0086  0.0779 -0.4001
   10CHL1  H12B  699   6.640   4.686   5.573  1.1966 -0.7885  0.0299
   10CHL1   C11  700   6.725   4.818   5.720 -0.0952 -0.3357 -0.4000
   10CHL1  H11A  701   6.783   4.912   5.730 -0.5252 -0.2068  1.1385
   10CHL1  H11B  702   6.621   4.845   5.747 -0.3850 -1.9945  0.2947
   10CHL1    C9  703   6.768   4.711   5.824  0.2390  0.3758 -0.1193
   10CHL1    H9  704   6.701   4.623   5.823  1.7418 -0.8877  2.2848
   10CHL1   C10  705   6.758   4.758   5.976  0.2086  0.2698  0.5135
   10CHL1   C19  706   6.801   4.906   5.980  0.2618  0.1755 -0.3612
   10CHL1  H19A  707   6.904   4.919   5.940  0.8544 -0.1482  1.0033
   10CHL1  H19B  708   6.718   4.968   5.940 -0.4831 -1.0831 -0.8186
   10CHL1  H19C  709   6.805   4.926   6.090 -2.5348 -0.8246 -0.0079
   10CHL1    C1  710   6.609   4.756   6.006  0.0818 -0.4708 -0.1587
   10CHL1   H1A  711   6.551   4.820   5.936  1.2571  0.9384  0.1240
   10CHL1   H1B  712   6.568   4.655   5.982  1.8466 -1.3426  0.3326
   10CHL1    C2  713   6.579   4.783   6.152  0.0706 -0.0664 -0.0198
   10CHL1   H2A  714   6.469   4.785   6.170  0.2144  0.0314  0.9159
   10CHL1   H2B  715   6.614   4.886   6.175  1.6069 -0.4406 -0.5742
   10CHL1   C20  716   6.873   4.656   5.275  0.1266  0.2281 -0.4769
   10CHL1   H20  717   6.972   4.705   5.267  0.7172 -0.5898  1.3165
   10CHL1   C21  718   6.773   4.767   5.245  0.6972  0.8014  0.1646
   10CHL1  H21A  719   6.788   4.803   5.142  0.5584 -1.2025 -0.5953
   10CHL1  H21B  720   6.779   4.860   5.305  0.8129  1.1472 -0.3825
   10CHL1  H21C  721   6.672   4.720   5.251  1.7471 -1.6031  0.2607
   10CHL1   C22  722   6.868   4.541   5.167 -0.1835  0.4754 -0.5795
   10CHL1  H22A  723   6.941   4.461   5.191 -0.0815  1.3194  2.2272
   10CHL1  H22B  724   6.765   4.501   5.178  0.0365  0.1396  0.3306
   10CHL1   C23  725   6.887   4.591   5.026  0.1749  0.4822  1.3148
   10CHL1  H23A  726   6.815   4.674   5.010  1.3112  1.4823  1.1486
   10CHL1  H23B  727   6.991   4.629   5.033 -0.0152  1.7336 -1.3068
   10CHL1   C24  728   6.860   4.475   4.925  0.0127 -0.4397 -0.6714
   10CHL1  H24A  729   6.852   4.379   4.980 -1.7955  0.8874  1.5541
   10CHL1  H24B  730   6.752   4.481   4.901 -0.8853 -1.6878  2.5152
   10CHL1   C25  731   6.961   4.466   4.808 -1.0057 -0.4801  0.2654
   10CHL1   H25  732   7.056   4.437   4.857 -1.5097 -0.1911  1.4720
   10CHL1   C26  733   6.929   4.344   4.716 -0.1659 -0.4517 -0.1063
   10CHL1  H26A  734   6.909   4.258   4.783  0.0148 -0.5458 -0.1711
   10CHL1  H26B  735   6.834   4.366   4.663 -1.1759  1.3034  2.2027
   10CHL1  H26C  736   7.016   4.323   4.650 -1.6602 -1.6955 -1.7495
   10CHL1   C27  737   6.998   4.594   4.732 -0.2060  0.5661  0.2736
   10CHL1  H27A  738   6.911   4.639   4.679  2.7014  1.7200 -4.0433
   10CHL1  H27B  739   7.033   4.667   4.808 -0.3123 -2.6293  3.6343
   10CHL1  H27C  740   7.067   4.575   4.647  0.6675  1.9853  0.6316
   11CHL1    C3  741   5.198   1.312   6.399  1.1189 -0.0653  0.0585
   11CHL1    H3  742   5.283   1.367   6.353  1.0673  0.1022  0.1630
   11CHL1    O3  743   5.157   1.382   6.516  0.2417 -0.4248 -0.3167
   11CHL1   H3'  744   5.241   1.385   6.563 -0.0594 -0.1792  0.2195
   11CHL1    C4  745   5.082   1.313   6.300 -0.3752  0.1663  0.2054
   11CHL1   H4A  746   4.997   1.277   6.361 -0.2622  1.9155  1.4395
   11CHL1   H4B  747   5.055   1.419   6.285  0.0509  0.7048  2.7599
   11CHL1    C5  748   5.092   1.225   6.179  0.4002  0.6213  0.5423
   11CHL1    C6  749   5.084   1.273   6.051  0.5492 -0.0983  0.4840
   11CHL1    H6  750   5.067   1.380   6.030 -3.3997 -0.9764 -1.6377
   11CHL1    C7  751   5.092   1.189   5.929 -0.4930  0.0303  0.0592
   11CHL1   H7A  752   5.012   1.215   5.855 -0.5278  1.5852  0.6089
   11CHL1   H7B  753   5.192   1.208   5.885 -0.7755 -0.6902 -0.9509
   11CHL1    C8  754   5.082   1.039   5.962  0.8034 -0.3589  0.2741
   11CHL1    H8  755   4.978   1.005   5.985  0.3701  1.2887  0.8560
   11CHL1   C14  756   5.131   0.964   5.842 -0.9577 -0.3292 -0.0053
   11CHL1   H14  757   5.231   1.005   5.817 -0.4315 -1.1002  0.8145
   11CHL1   C15  758   5.061   0.985   5.708 -0.3161 -0.4692 -0.8348
   11CHL1  H15A  759   4.955   0.965   5.734 -0.5333  2.4678  1.0919
   11CHL1  H15B  760   5.051   1.087   5.664  1.3285 -0.6339 -1.6605
   11CHL1   C16  761   5.121   0.874   5.620 -0.1287 -0.3590  0.6025
   11CHL1  H16A  762   5.040   0.830   5.557  1.2542  1.9565 -3.1147
   11CHL1  H16B  763   5.195   0.923   5.554  0.6686  0.6589  2.2079
   11CHL1   C17  764   5.191   0.774   5.711  0.1585  0.4417  0.2667
   11CHL1   H17  765   5.300   0.794   5.700 -0.3448  2.3426 -2.3587
   11CHL1   C13  766   5.147   0.808   5.859 -0.5948  0.0989 -0.1805
   11CHL1   C18  767   5.005   0.749   5.884  0.1859 -0.1264  0.6356
   11CHL1  H18A  768   4.959   0.796   5.975  0.0247  0.2916  0.3439
   11CHL1  H18B  769   4.935   0.763   5.799  0.7366  2.3154  0.5165
   11CHL1  H18C  770   5.006   0.641   5.909 -1.7161 -0.4216 -0.3740
   11CHL1   C12  771   5.237   0.789   5.978 -0.0219 -0.3693 -0.4486
   11CHL1  H12A  772   5.261   0.685   6.007  1.2678  0.0921  0.2176
   11CHL1  H12B  773   5.338   0.833   5.969  0.5021 -1.3785  0.4573
   11CHL1   C11  774   5.188   0.852   6.103  0.0422 -0.5148 -0.4718
   11CHL1  H11A  775   5.099   0.801   6.144 -0.5536 -0.0459 -1.1554
   11CHL1  H11B  776   5.267   0.841   6.180  0.6979 -0.5977 -1.1426
   11CHL1    C9  777   5.160   1.005   6.084 -0.0305 -0.6427  0.3509
   11CHL1    H9  778   5.266   1.034   6.064 -0.0645  1.2864  2.4870
   11CHL1   C10  779   5.116   1.079   6.210  0.5711  0.3391 -0.4736
   11CHL1   C19  780   4.995   1.009   6.268  0.9472 -0.5551  0.1871
   11CHL1  H19A  781   4.973   1.065   6.362  0.9712 -0.0642 -0.0947
   11CHL1  H19B  782   4.915   1.021   6.193  0.9986 -0.6581  0.1169
   11CHL1  H19C  783   5.003   0.901   6.291 -0.0330 -0.8575 -0.8189
   11CHL1    C1  784   5.237   1.082   6.307 -0.9132 -0.2097  0.4300
   11CHL1   H1A  785   5.252   0.978   6.344 -0.5105 -1.1352 -2.1258
   11CHL1   H1B  786   5.329   1.111   6.253 -0.7280  1.2047  1.4569
   11CHL1    C2  787   5.229   1.174   6.438 -0.5518  0.3503  0.0366
   11CHL1   H2A  788   5.330   1.164   6.483 -0.9559 -2.2000  0.5506
   11CHL1   H2B  789   5.146   1.133   6.499 -0.7227  0.3302 -0.2107
   11CHL1   C20  790   5.179   0.620   5.662 -0.0230  0.2891  0.6234
   11CHL1   H20  791   5.073   0.588   5.657  0.0308 -0.0580  1.5080
   11CHL1   C21  792   5.252   0.538   5.768  0.2781  0.3427  0.1092
   11CHL1  H21A  793   5.283   0.438   5.731 -2.6602 -1.1120  1.3026
   11CHL1  H21B  794   5.180   0.523   5.851 -2.5952  1.1272 -2.0844
   11CHL1  H21C  795   5.346   0.585   5.805  1.9722 -1.9209 -1.0589
   11CHL1   C22  796   5.235   0.603   5.513  0.4960  0.2005  0.6370
   11CHL1  H22A  797   5.222   0.501   5.470  0.3235  0.5077 -0.0552
   11CHL1  H22B  798   5.161   0.658   5.450  0.8560 -0.7134 -0.6246
   11CHL1   C23  799   5.373   0.653   5.494 -0.4010 -0.6831 -0.1023
   11CHL1  H23A  800   5.375   0.763   5.511  0.2111 -0.5220 -1.0693
   11CHL1  H23B  801   5.446   0.614   5.568 -0.8884  0.7671  1.1874
   11CHL1   C24  802   5.426   0.636   5.350  0.1870 -0.0427 -0.8111
   11CHL1  H24A  803   5.365   0.704   5.287  0.6068 -1.1727 -2.5359
   11CHL1  H24B  804   5.529   0.675   5.335  0.4528  0.2768  1.4456
   11CHL1   C25  805   5.421   0.493   5.297 -0.4307  0.2246 -0.3257
   11CHL1   H25  806   5.325   0.440   5.317  0.9194 -1.7933  1.2358
   11CHL1   C26  807   5.447   0.487   5.141  0.0915  0.7240 -0.6583
   11CHL1  H26A  808   5.439   0.381   5.108 -1.8296  0.4178  0.6540
   11CHL1  H26B  809   5.368   0.548   5.093 -0.0049  1.1327  0.0019
   11CHL1  H26C  810   5.551   0.520   5.120  0.7142  1.8725  3.3704
   11CHL1   C27  811   5.532   0.418   5.368  0.1247 -0.0853  0.0859
   11CHL1  H27A  812   5.539   0.309   5.349 -0.9764 -0.2112  0.3133
   11CHL1  H27B  813   5.630   0.466   5.351  1.4434 -2.3760  0.7367
   11CHL1  H27C  814   5.504   0.423   5.476  0.4542  0.2000  0.1581
   12CHL1    C3  815   0.480   1.521   6.057 -0.2267  0.5156  0.1453
   12CHL1    H3  816   0.370   1.531   6.051 -0.4332 -1.1394  0.6935
   12CHL1    O3  817   0.531   1.568   6.185 -0.1721  0.7631  0.4451
   12CHL1   H3'  818   0.621   1.589   6.160 -0.6816  0.7514 -1.5534
   12CHL1    C4  819   0.518   1.375   6.035  0.3699 -0.4014  0.0820
   12CHL1   H4A  820   0.628   1.368   6.051  0.5074  1.1256 -0.0616
   12CHL1   H4B  821   0.468   1.327   6.121  0.3058 -1.7755 -0.6963
   12CHL1    C5  822   0.471   1.313   5.903 -0.3977  0.4289 -0.3130
   12CHL1    C6  823   0.388   1.206   5.894 -0.1876  0.5423  0.3650
   12CHL1    H6  824   0.348   1.159   5.985 -1.4155  2.0169  0.6473
   12CHL1    C7  825   0.341   1.147   5.765 -0.0875 -0.0091  0.6889
   12CHL1   H7A  826   0.352   1.037   5.768  2.9894  0.1524 -1.1481
   12CHL1   H7B  827   0.232   1.165   5.751  0.5085  3.7564 -0.4374
   12CHL1    C8  828   0.416   1.197   5.648 -0.0641  0.0187  0.1361
   12CHL1    H8  829   0.514   1.145   5.653 -0.1756 -0.0983  1.4808
   12CHL1   C14  830   0.346   1.171   5.516 -0.1100 -0.3190  0.3227
   12CHL1   H14  831   0.251   1.229   5.510 -0.9128 -1.5543  0.6915
   12CHL1   C15  832   0.301   1.022   5.497  0.5840 -0.0325 -0.0508
   12CHL1  H15A  833   0.384   0.953   5.520  0.3848  0.1512  1.3597
   12CHL1  H15B  834   0.217   1.014   5.570 -0.4102  1.0875 -1.0267
   12CHL1   C16  835   0.258   1.023   5.351  0.8030  0.5844  0.0175
   12CHL1  H16A  836   0.296   0.935   5.296 -1.4495  0.7554 -1.9578
   12CHL1  H16B  837   0.148   1.038   5.338  0.9163  1.1534 -0.3463
   12CHL1   C17  838   0.319   1.152   5.282  0.6180 -0.0992 -0.6495
   12CHL1   H17  839   0.235   1.225   5.281 -0.1253 -0.9315  0.0192
   12CHL1   C13  840   0.421   1.201   5.390 -0.4035 -0.3148 -0.0108
   12CHL1   C18  841   0.554   1.129   5.377  0.1595  0.4547  0.1372
   12CHL1  H18A  842   0.627   1.163   5.454  0.2383  0.7579 -0.0694
   12CHL1  H18B  843   0.546   1.018   5.387 -1.3523  0.6899  1.9607
   12CHL1  H18C  844   0.602   1.162   5.282 -0.7692  0.3080 -0.3917
   12CHL1   C12  845   0.425   1.359   5.381  0.2874  0.1597  0.3107
   12CHL1  H12A  846   0.504   1.384   5.307  0.4421 -0.4079  0.2778
   12CHL1  H12B  847   0.324   1.403   5.366 -0.9220 -2.4157  0.3588
   12CHL1   C11  848   0.493   1.400   5.516  0.1308  0.2401  0.4298
   12CHL1  H11A  849   0.593   1.354   5.505 -0.7714 -1.4426 -1.2983
   12CHL1  H11B  850   0.502   1.511   5.524 -3.0675  0.7167 -0.7770
   12CHL1    C9  851   0.433   1.351   5.649 -0.6538 -0.2913  0.1054
   12CHL1    H9  852   0.332   1.396   5.654 -1.3862 -1.9067  0.2947
   12CHL1   C10  853   0.513   1.399   5.780 -0.2528  0.7266 -0.9347
   12CHL1   C19  854   0.664   1.373   5.756  0.2131  0.5896  0.2097
   12CHL1  H19A  855   0.706   1.450   5.687 -1.0026  1.9171  0.9059
   12CHL1  H19B  856   0.722   1.389   5.849  1.8842 -0.1596 -0.6603
   12CHL1  H19C  857   0.693   1.269   5.730  1.8047  0.7782  1.0749
   12CHL1    C1  858   0.482   1.551   5.814 -0.6182  0.3971  0.0654
   12CHL1   H1A  859   0.530   1.606   5.729  2.4831  0.0105  1.4259
   12CHL1   H1B  860   0.374   1.573   5.806 -0.5340  0.7596 -0.1068
   12CHL1    C2  861   0.536   1.604   5.950  0.2318 -0.0869  0.0374
   12CHL1   H2A  862   0.520   1.712   5.968 -1.1172 -0.0543 -1.1680
   12CHL1   H2B  863   0.647   1.596   5.951  0.1075 -2.4801  0.3161
   12CHL1   C20  864   0.367   1.123   5.139 -0.0581  0.2253 -0.6140
   12CHL1   H20  865   0.437   1.036   5.142 -1.6971 -1.1116  1.0784
   12CHL1   C21  866   0.432   1.249   5.091  0.4829 -0.1034  0.5554
   12CHL1  H21A  867   0.368   1.336   5.118 -1.1453 -1.6276  1.8586
   12CHL1  H21B  868   0.465   1.244   4.985  0.4774 -1.1109  0.5870
   12CHL1  H21C  869   0.533   1.266   5.135  0.0342  0.4159  1.4132
   12CHL1   C22  870   0.253   1.092   5.046  0.6354 -0.0388  0.0693
   12CHL1  H22A  871   0.152   1.128   5.075  0.4340 -1.5635  1.3596
   12CHL1  H22B  872   0.279   1.141   4.949  0.9321  0.5739  0.4462
   12CHL1   C23  873   0.244   0.944   5.021 -0.2887 -0.6256 -0.1464
   12CHL1  H23A  874   0.337   0.910   4.971 -1.6686 -1.7712 -2.1096
   12CHL1  H23B  875   0.232   0.890   5.117 -0.7526  1.0472  0.7700
   12CHL1   C24  876   0.127   0.904   4.928  0.5592 -0.2876 -0.2836
   12CHL1  H24A  877   0.030   0.941   4.967 -0.2416 -1.8321 -0.7371
   12CHL1  H24B  878   0.146   0.950   4.828 -0.0529 -2.5705 -1.5075
   12CHL1   C25  879   0.122   0.753   4.902 -0.1056  0.3203 -0.2826
   12CHL1   H25  880   0.220   0.711   4.871  0.2749  1.3527 -0.5163
   12CHL1   C26  881   0.066   0.685   5.025  0.1338 -0.0475 -0.0410
   12CHL1  H26A  882  -0.025   0.741   5.055 -0.0281  0.3930 -1.3061
   12CHL1  H26B  883   0.032   0.581   5.003 -0.6048 -0.1143  1.2883
   12CHL1  H26C  884   0.149   0.674   5.098  1.3563 -1.1262 -1.5108
   12CHL1   C27  885   0.014   0.733   4.795 -0.5256 -0.1525 -0.4731
   12CHL1  H27A  886  -0.017   0.626   4.793 -2.4426  0.3467 -0.1409
   12CHL1  H27B  887  -0.078   0.795   4.805  0.0004  0.4771  0.6671
   12CHL1  H27C  888   0.064   0.773   4.704  0.2461 -0.4958 -0.2082
   13CHL1    C3  889   5.347   2.282   6.093  0.0983 -0.1972  1.3410
   13CHL1    H3  890   5.261   2.337   6.048 -0.6578 -0.5625  2.3103
   13CHL1    O3  891   5.334   2.288   6.235  0.4546 -0.0635  0.0389
   13CHL1   H3'  892   5.424   2.269   6.264  1.3241  1.9760 -1.1355
   13CHL1    C4  893   5.357   2.134   6.053 -0.8276 -0.3150 -0.0468
   13CHL1   H4A  894   5.429   2.079   6.116  0.9225  0.1570 -1.5316
   13CHL1   H4B  895   5.260   2.086   6.076  0.0795 -1.5070  1.4218
   13CHL1    C5  896   5.396   2.127   5.907  0.7906  0.7697  0.4432
   13CHL1    C6  897   5.317   2.061   5.821  0.3258  0.0612  0.3217
   13CHL1    H6  898   5.230   2.010   5.866  0.9918 -1.4266 -0.0090
   13CHL1    C7  899   5.330   2.066   5.676  0.3532 -1.3063  0.0626
   13CHL1   H7A  900   5.323   1.964   5.632  1.8452 -0.5357 -2.1438
   13CHL1   H7B  901   5.249   2.131   5.638  0.5084 -0.3172  1.3534
   13CHL1    C8  902   5.471   2.107   5.623 -0.5203 -0.6689 -1.0155
   13CHL1    H8  903   5.544   2.026   5.644 -0.3688 -0.1081  0.7620
   13CHL1   C14  904   5.478   2.143   5.475 -0.7134  0.0824  0.5329
   13CHL1   H14  905   5.417   2.235   5.459  0.1746  0.4873 -0.6564
   13CHL1   C15  906   5.415   2.045   5.369 -0.7265  0.1950 -0.4894
   13CHL1  H15A  907   5.441   1.940   5.395  3.1418  0.9320 -0.8281
   13CHL1  H15B  908   5.305   2.057   5.377 -0.5850  1.2313  0.1302
   13CHL1   C16  909   5.470   2.099   5.237 -0.0715 -0.5027  0.0409
   13CHL1  H16A  910   5.531   2.017   5.194  2.0294  2.2128 -2.5666
   13CHL1  H16B  911   5.389   2.137   5.171  1.3445  0.0117 -1.4725
   13CHL1   C17  912   5.572   2.219   5.269  0.4103  1.2632  0.1250
   13CHL1   H17  913   5.513   2.313   5.271 -0.1290  0.9292  1.9090
   13CHL1   C13  914   5.616   2.195   5.418  0.6438  0.3307  0.6900
   13CHL1   C18  915   5.723   2.083   5.420  0.0395 -0.1301 -0.4160
   13CHL1  H18A  916   5.827   2.123   5.426 -0.6111  2.2508 -2.9297
   13CHL1  H18B  917   5.709   2.009   5.501 -0.1645 -0.6421 -0.9065
   13CHL1  H18C  918   5.719   2.018   5.329  1.2327 -0.2705 -0.3852
   13CHL1   C12  919   5.656   2.313   5.501 -0.3976 -0.3383 -0.2241
   13CHL1  H12A  920   5.754   2.358   5.475  0.0423 -0.6905  0.7862
   13CHL1  H12B  921   5.583   2.395   5.487 -0.8076 -0.8847 -1.3788
   13CHL1   C11  922   5.656   2.287   5.650  0.3370 -0.4025 -0.4343
   13CHL1  H11A  923   5.735   2.210   5.666  0.2222 -0.5603 -0.6244
   13CHL1  H11B  924   5.683   2.380   5.706 -0.6824 -0.5898  0.4094
   13CHL1    C9  925   5.520   2.231   5.702  0.3346  0.1808  0.0428
   13CHL1    H9  926   5.446   2.311   5.680  0.4033  0.2544  0.0786
   13CHL1   C10  927   5.506   2.223   5.857 -0.0711  0.7456 -0.0747
   13CHL1   C19  928   5.635   2.148   5.920  0.2739  0.5971  0.2979
   13CHL1  H19A  929   5.638   2.047   5.875  1.0859  1.7103 -2.3684
   13CHL1  H19B  930   5.730   2.195   5.885  0.2157 -0.1483 -0.9464
   13CHL1  H19C  931   5.630   2.128   6.029  0.7668  1.9159  0.5853
   13CHL1    C1  932   5.496   2.372   5.911 -0.0748  1.2418  1.3785
   13CHL1   H1A  933   5.587   2.429   5.884 -0.5796  0.4692 -2.5191
   13CHL1   H1B  934   5.411   2.423   5.861 -0.3318  1.7455  2.3166
   13CHL1    C2  935   5.475   2.359   6.062  0.8972  0.1151  0.0416
   13CHL1   H2A  936   5.478   2.458   6.114 -0.1915  0.1692  0.0080
   13CHL1   H2B  937   5.548   2.306   6.128  0.8245  1.0008  0.8685
   13CHL1   C20  938   5.681   2.234   5.167 -0.5645 -0.3479 -0.4141
   13CHL1   H20  939   5.735   2.138   5.155  0.5895  0.1222  0.8380
   13CHL1   C21  940   5.774   2.349   5.210 -0.3232  0.3146 -0.2603
   13CHL1  H21A  941   5.849   2.317   5.286 -0.2069 -0.1122 -0.5492
   13CHL1  H21B  942   5.722   2.433   5.260 -0.1979 -0.3441  1.0162
   13CHL1  H21C  943   5.845   2.392   5.136  3.4139  4.3715  4.8690
   13CHL1   C22  944   5.614   2.278   5.031 -0.5399 -0.3161  0.2139
   13CHL1  H22A  945   5.526   2.217   5.000 -1.4644  0.9800  0.1933
   13CHL1  H22B  946   5.572   2.380   5.045  1.4545  0.8799 -1.8819
   13CHL1   C23  947   5.701   2.281   4.907  0.8764  0.9331 -0.5381
   13CHL1  H23A  948   5.786   2.353   4.911  0.4491  1.4092  0.3757
   13CHL1  H23B  949   5.728   2.175   4.887 -0.9624  0.2982  0.1371
   13CHL1   C24  950   5.618   2.345   4.789  0.2462  0.1857  0.4250
   13CHL1  H24A  951   5.664   2.335   4.688 -0.7821 -1.1864  0.0621
   13CHL1  H24B  952   5.520   2.293   4.795  0.1453  0.5024  1.8003
   13CHL1   C25  953   5.584   2.496   4.807 -0.1507 -0.0020  0.4118
   13CHL1   H25  954   5.532   2.497   4.906 -1.6039 -1.2205 -0.3127
   13CHL1   C26  955   5.710   2.585   4.817  0.4184 -0.2094 -0.2262
   13CHL1  H26A  956   5.760   2.558   4.913 -0.3464 -2.2017 -0.3447
   13CHL1  H26B  957   5.781   2.565   4.735 -2.3565 -2.3762 -2.2716
   13CHL1  H26C  958   5.688   2.693   4.804  0.5292 -0.3042 -1.2733
   13CHL1   C27  959   5.473   2.550   4.710  0.4043  0.3117 -0.1114
   13CHL1  H27A  960   5.447   2.657   4.717 -0.3880  0.1229 -0.0676
   13CHL1  H27B  961   5.519   2.556   4.609 -0.0633  1.2214 -0.2820
   13CHL1  H27C  962   5.382   2.487   4.701 -1.6796  3.1687 -0.1402
   14CHL1    C3  963   4.742   4.002   6.144  0.5378 -0.1211  0.4384
   14CHL1    H3  964   4.692   3.906   6.168 -0.1667  0.2530  0.5017
   14CHL1    O3  965   4.754   4.079   6.261 -0.3545 -0.1065 -0.3520
   14CHL1   H3'  966   4.667   4.120   6.257 -0.7019 -0.8836 -1.9702
   14CHL1    C4  967   4.884   3.989   6.073 -0.0715  0.3687  0.6103
   14CHL1   H4A  968   4.939   4.085   6.063 -0.3046  0.4951  0.5436
   14CHL1   H4B  969   4.945   3.931   6.146 -0.3141 -0.0837  0.4527
   14CHL1    C5  970   4.874   3.919   5.932  0.6691  0.0760  0.8747
   14CHL1    C6  971   4.926   3.804   5.905  0.2989  0.5243  0.2523
   14CHL1    H6  972   4.985   3.743   5.976 -0.3162 -0.1493  0.1900
   14CHL1    C7  973   4.910   3.742   5.771  0.3156  0.3155  0.2370
   14CHL1   H7A  974   4.999   3.683   5.741  2.2859  2.4577  1.4411
   14CHL1   H7B  975   4.820   3.677   5.777 -0.0739  0.7803 -0.4817
   14CHL1    C8  976   4.895   3.846   5.660  0.5562  0.0259  0.0835
   14CHL1    H8  977   4.976   3.922   5.652 -0.2505  0.9315  0.3038
   14CHL1   C14  978   4.866   3.785   5.524  0.2595  0.5690  0.0846
   14CHL1   H14  979   4.780   3.716   5.538  0.9703 -0.9265 -2.2830
   14CHL1   C15  980   4.972   3.687   5.463  0.1627 -0.8481 -0.5202
   14CHL1  H15A  981   5.063   3.752   5.463 -2.2188  2.8411  1.4789
   14CHL1  H15B  982   4.982   3.594   5.523 -1.1766 -1.2217 -0.8658
   14CHL1   C16  983   4.909   3.663   5.323  0.3846  0.7243  0.2838
   14CHL1  H16A  984   4.984   3.634   5.247  0.4936 -0.7689  0.9302
   14CHL1  H16B  985   4.840   3.576   5.323 -0.9671  1.7111 -1.5458
   14CHL1   C17  986   4.822   3.785   5.284  0.4881 -0.3964  0.4044
   14CHL1   H17  987   4.718   3.745   5.277  1.0024 -1.5721 -4.1588
   14CHL1   C13  988   4.827   3.878   5.410  0.2494  1.1496  0.0949
   14CHL1   C18  989   4.944   3.981   5.379  0.1325  0.8147  0.2394
   14CHL1  H18A  990   4.900   4.051   5.304  0.2736 -0.0170 -0.6407
   14CHL1  H18B  991   4.985   4.041   5.463 -1.3228 -0.1593  1.7071
   14CHL1  H18C  992   5.032   3.929   5.335 -0.1984 -0.5801  1.1642
   14CHL1   C12  993   4.703   3.951   5.454  0.1175  0.0719 -0.3076
   14CHL1  H12A  994   4.677   4.028   5.378 -1.2019  0.1709  0.2209
   14CHL1  H12B  995   4.613   3.886   5.459 -1.5505  2.3025  0.3892
   14CHL1   C11  996   4.720   4.030   5.589  0.0216 -0.3733 -1.3547
   14CHL1  H11A  997   4.788   4.115   5.565 -0.0790  0.1307  0.0744
   14CHL1  H11B  998   4.625   4.077   5.622  0.9064  2.4441 -2.5034
   14CHL1    C9  999   4.778   3.934   5.700  0.9674  0.4311 -0.2155
   14CHL1    H9 1000   4.698   3.861   5.725  1.2537  0.9346  2.3638
   14CHL1   C10 1001   4.785   3.998   5.836 -1.0406 -0.2966 -0.2503
   14CHL1   C19 1002   4.852   4.132   5.812 -0.0230  0.2496 -0.2159
   14CHL1  H19A 1003   4.941   4.134   5.745 -1.0719  0.4952 -1.6647
   14CHL1  H19B 1004   4.785   4.208   5.766  0.4620 -0.6553 -2.5844
   14CHL1  H19C 1005   4.871   4.189   5.905  1.8372 -0.1754 -0.2874
   14CHL1    C1 1006   4.644   4.023   5.905  0.6936  0.5405  1.0453
   14CHL1   H1A 1007   4.563   4.076   5.851 -0.7922 -2.9321 -0.4341
   14CHL1   H1B 1008   4.593   3.925   5.920  0.0277  0.4214 -1.4531
   14CHL1    C2 1009   4.651   4.081   6.044 -0.6297 -0.7033 -0.2556
   14CHL1   H2A 1010   4.550   4.076   6.090 -0.6350 -1.5985 -0.3411
   14CHL1   H2B 1011   4.663   4.191   6.040 -0.5752 -0.7116 -0.3247
   14CHL1   C20 1012   4.850   3.850   5.146 -0.1117 -0.1991 -0.0967
   14CHL1   H20 1013   4.938   3.918   5.140 -0.3517  0.2812  1.4157
   14CHL1   C21 1014   4.727   3.937   5.108  0.2503  0.1750  0.2729
   14CHL1  H21A 1015   4.730   4.036   5.159 -3.0652  2.3384 -3.1736
   14CHL1  H21B 1016   4.629   3.891   5.133 -0.9799  2.0948 -0.7918
   14CHL1  H21C 1017   4.726   3.950   4.998  1.3357 -3.2481 -0.2708
   14CHL1   C22 1018   4.873   3.743   5.035  0.0321 -0.5551 -0.3558
   14CHL1  H22A 1019   4.889   3.795   4.938  2.0261  1.3767  0.9203
   14CHL1  H22B 1020   4.970   3.691   5.052  1.0649  1.6459  0.9259
   14CHL1   C23 1021   4.753   3.652   5.010 -0.6346  0.2280 -0.5769
   14CHL1  H23A 1022   4.741   3.603   5.109  0.3072  1.4948  0.1956
   14CHL1  H23B 1023   4.662   3.714   4.993 -0.4445  1.1563  1.5043
   14CHL1   C24 1024   4.778   3.540   4.909 -0.1908 -0.1164  0.2308
   14CHL1  H24A 1025   4.787   3.601   4.817 -0.0287  0.9293  0.9203
   14CHL1  H24B 1026   4.869   3.484   4.941 -0.2294 -0.4549 -0.2434
   14CHL1   C25 1027   4.667   3.435   4.898 -0.5272 -0.4287  0.1053
   14CHL1   H25 1028   4.648   3.396   5.000 -1.6296  0.3414  0.2117
   14CHL1   C26 1029   4.526   3.489   4.861 -0.5576  1.3345 -0.1665
   14CHL1  H26A 1030   4.465   3.409   4.814  1.7797 -1.4315  1.2211
   14CHL1  H26B 1031   4.474   3.535   4.947  0.3014  1.1074  0.4898
   14CHL1  H26C 1032   4.558   3.565   4.786  1.1599 -0.6779 -1.5715
   14CHL1   C27 1033   4.717   3.331   4.800 -0.0226  0.1330  0.1191
   14CHL1  H27A 1034   4.817   3.290   4.823  0.1968  0.3297 -0.4610
   14CHL1  H27B 1035   4.650   3.243   4.796 -1.3077  1.1211 -3.0233
   14CHL1  H27C 1036   4.723   3.378   4.700 -2.3483 -1.5253 -0.8854
   15CHL1    C3 1037   6.416   3.167   5.858 -0.2497  0.6661  0.4615
   15CHL1    H3 1038   6.324   3.128   5.906 -3.0156  0.1586 -4.4987
   15CHL1    O3 1039   6.514   3.184   5.956  0.2153 -0.3707 -0.3048
   15CHL1   H3' 1040   6.481   3.246   6.021  0.2509  0.8563 -1.4109
   15CHL1    C4 1041   6.452   3.070   5.740 -0.1289 -0.7066 -0.1257
   15CHL1   H4A 1042   6.555   3.104   5.719 -1.0108  1.8881 -0.5922
   15CHL1   H4B 1043   6.439   2.967   5.780 -0.4775 -0.9191 -0.7603
   15CHL1    C5 1044   6.372   3.083   5.608  0.6007 -0.2602 -0.1895
   15CHL1    C6 1045   6.313   2.979   5.550  0.4115  0.2274 -0.7214
   15CHL1    H6 1046   6.337   2.881   5.592 -0.3384  0.7884  1.1054
   15CHL1    C7 1047   6.246   2.992   5.420  0.7901  0.5065 -0.7985
   15CHL1   H7A 1048   6.285   2.903   5.366 -0.5196 -0.1810 -0.6597
   15CHL1   H7B 1049   6.136   2.978   5.430  0.7401 -0.0846 -1.9465
   15CHL1    C8 1050   6.273   3.125   5.350 -0.4557  0.6172 -0.4369
   15CHL1    H8 1051   6.376   3.111   5.311 -0.1332 -1.5817  1.0193
   15CHL1   C14 1052   6.180   3.140   5.231 -0.8129  0.3382  0.1786
   15CHL1   H14 1053   6.084   3.159   5.282 -1.0195  1.0385 -0.4559
   15CHL1   C15 1054   6.148   3.024   5.128 -0.3690 -0.4294 -0.2009
   15CHL1  H15A 1055   6.239   2.973   5.090  1.0405  1.1129  0.9613
   15CHL1  H15B 1056   6.080   2.941   5.158  0.1210 -0.0146  2.2241
   15CHL1   C16 1057   6.085   3.108   5.010 -0.5980 -0.8414 -0.4131
   15CHL1  H16A 1058   6.122   3.081   4.909 -2.5713 -0.3826 -1.3053
   15CHL1  H16B 1059   5.977   3.082   5.006 -0.6534 -0.6188 -0.3578
   15CHL1   C17 1060   6.094   3.260   5.041  1.0745  0.1479 -0.6414
   15CHL1   H17 1061   6.001   3.285   5.097  0.8870  0.9259 -1.2827
   15CHL1   C13 1062   6.201   3.272   5.149 -0.0031 -0.6076  0.6907
   15CHL1   C18 1063   6.338   3.256   5.078 -0.2794  0.9731  0.2339
   15CHL1  H18A 1064   6.352   3.344   5.013 -1.1674  0.3229 -0.8667
   15CHL1  H18B 1065   6.423   3.243   5.148  0.7874 -0.0891 -1.2004
   15CHL1  H18C 1066   6.336   3.162   5.019  0.5472 -1.0558  3.1918
   15CHL1   C12 1067   6.189   3.391   5.233 -0.2548  0.2591  0.8578
   15CHL1  H12A 1068   6.236   3.471   5.172 -0.3910 -2.2053 -2.8636
   15CHL1  H12B 1069   6.081   3.406   5.256 -1.1104 -1.9794 -1.2422
   15CHL1   C11 1070   6.278   3.378   5.353 -0.2410 -0.5684  0.2063
   15CHL1  H11A 1071   6.384   3.384   5.321 -0.4703  0.9742 -0.3389
   15CHL1  H11B 1072   6.264   3.471   5.413 -1.9544 -0.7779  0.1787
   15CHL1    C9 1073   6.266   3.251   5.439  0.1678 -0.3595 -0.9306
   15CHL1    H9 1074   6.164   3.248   5.483 -0.0951  0.4783 -1.4616
   15CHL1   C10 1075   6.359   3.234   5.561  0.3581 -0.0108  0.1681
   15CHL1   C19 1076   6.498   3.291   5.517 -0.0630 -0.3436 -0.5385
   15CHL1  H19A 1077   6.533   3.241   5.425  2.0654 -0.6083  0.3644
   15CHL1  H19B 1078   6.498   3.401   5.503 -0.8423 -0.1609  0.7292
   15CHL1  H19C 1079   6.568   3.269   5.601 -0.7328  1.9561  0.7101
   15CHL1    C1 1080   6.299   3.316   5.679 -0.2431 -0.5253 -0.0521
   15CHL1   H1A 1081   6.287   3.422   5.648  0.1128  0.5347  3.1619
   15CHL1   H1B 1082   6.197   3.279   5.703  0.4157 -2.0467  0.5124
   15CHL1    C2 1083   6.377   3.312   5.801  0.3453  0.4170 -0.2360
   15CHL1   H2A 1084   6.328   3.372   5.881 -0.6293 -1.1138  0.3726
   15CHL1   H2B 1085   6.472   3.367   5.787 -0.8777  2.1255 -2.6067
   15CHL1   C20 1086   6.099   3.370   4.934 -0.2461  0.0686 -0.0626
   15CHL1   H20 1087   6.134   3.465   4.978 -1.9750 -0.4559  2.6814
   15CHL1   C21 1088   5.950   3.402   4.904  0.2387  0.6890  0.3748
   15CHL1  H21A 1089   5.916   3.308   4.857 -0.1467  0.5234  0.9666
   15CHL1  H21B 1090   5.930   3.487   4.834  1.4862  1.5430  1.0217
   15CHL1  H21C 1091   5.900   3.412   5.003 -0.4990  0.1817  0.0617
   15CHL1   C22 1092   6.181   3.327   4.806  0.4797  0.3245 -0.1075
   15CHL1  H22A 1093   6.268   3.268   4.842 -0.7104 -1.0798  0.5456
   15CHL1  H22B 1094   6.107   3.257   4.764  0.8940 -0.6649  0.7687
   15CHL1   C23 1095   6.212   3.432   4.706  0.1641 -0.5965  0.2428
   15CHL1  H23A 1096   6.167   3.524   4.748 -0.4812 -1.4375  1.4756
   15CHL1  H23B 1097   6.322   3.449   4.703  0.1145 -0.4222 -1.0908
   15CHL1   C24 1098   6.159   3.408   4.567 -0.1509  0.0893  0.1259
   15CHL1  H24A 1099   6.227   3.336   4.518  2.6594  1.7244  1.3944
   15CHL1  H24B 1100   6.056   3.367   4.573  0.2777 -1.2301 -1.0303
   15CHL1   C25 1101   6.174   3.536   4.479  0.1411 -0.2570 -0.5572
   15CHL1   H25 1102   6.128   3.615   4.543  1.4729 -0.9992  1.3896
   15CHL1   C26 1103   6.313   3.565   4.439 -0.7819 -0.5621  0.2624
   15CHL1  H26A 1104   6.318   3.643   4.360  0.3133 -0.9458 -0.0587
   15CHL1  H26B 1105   6.364   3.606   4.529 -0.3655 -0.5265  0.0137
   15CHL1  H26C 1106   6.378   3.479   4.413 -0.2302 -0.0029 -0.2586
   15CHL1   C27 1107   6.082   3.534   4.352 -0.5297  0.0597  0.1225
   15CHL1  H27A 1108   5.979   3.516   4.389 -0.9302 -0.7430 -1.2989
   15CHL1  H27B 1109   6.062   3.633   4.305 -1.8410  0.4851  1.4753
   15CHL1  H27C 1110   6.115   3.457   4.279 -1.3389 -0.3598  0.1870
   16CHL1    C3 1111   4.269   0.637   6.183  0.5420 -0.0531 -0.1438
   16CHL1    H3 1112   4.291   0.533   6.151  0.2311 -0.4959  1.0184
   16CHL1    O3 1113   4.258   0.633   6.326 -0.4400  0.0393  0.0142
   16CHL1   H3' 1114   4.178   0.584   6.346  0.4606 -1.8533 -0.7685
   16CHL1    C4 1115   4.378   0.724   6.134 -0.3607  0.4240  0.8281
   16CHL1   H4A 1116   4.372   0.827   6.176  1.1218  1.7092 -1.8647
   16CHL1   H4B 1117   4.465   0.668   6.175 -2.3361 -3.5902  0.0547
   16CHL1    C5 1118   4.378   0.730   5.984 -0.2486  0.2353  1.0310
   16CHL1    C6 1119   4.495   0.700   5.913 -0.1474 -0.2171 -0.1992
   16CHL1    H6 1120   4.590   0.676   5.964 -0.4661  0.8369  0.9444
   16CHL1    C7 1121   4.501   0.705   5.760 -0.0580 -0.3329  0.2348
   16CHL1   H7A 1122   4.601   0.741   5.728  1.3265 -0.9000  3.4711
   16CHL1   H7B 1123   4.482   0.604   5.717 -2.8454 -0.1981  0.9394
   16CHL1    C8 1124   4.380   0.793   5.709 -0.0980  0.2174  0.4480
   16CHL1    H8 1125   4.390   0.901   5.731 -2.2044  1.1263 -2.5383
   16CHL1   C14 1126   4.378   0.772   5.555  0.2998 -0.0279 -0.4351
   16CHL1   H14 1127   4.348   0.665   5.549  0.1491 -0.0417  0.4176
   16CHL1   C15 1128   4.504   0.781   5.462 -0.1898 -0.5798  0.4842
   16CHL1  H15A 1129   4.560   0.871   5.496 -1.3448  0.1106  0.6143
   16CHL1  H15B 1130   4.568   0.691   5.476  0.4350 -0.1191  0.6519
   16CHL1   C16 1131   4.451   0.788   5.320 -0.3148 -0.1469 -0.2067
   16CHL1  H16A 1132   4.503   0.881   5.290  3.5877 -2.0933 -0.1899
   16CHL1  H16B 1133   4.489   0.702   5.261  0.8495  0.0229  0.2648
   16CHL1   C17 1134   4.302   0.801   5.328  0.8767 -0.2345 -0.5054
   16CHL1   H17 1135   4.280   0.692   5.330  0.4174 -0.2419 -2.8687
   16CHL1   C13 1136   4.270   0.842   5.475 -0.2089 -0.1756 -0.7073
   16CHL1   C18 1137   4.280   0.996   5.490  0.0755  0.3590 -0.6893
   16CHL1  H18A 1138   4.272   1.029   5.596  2.1275 -0.1114 -0.3504
   16CHL1  H18B 1139   4.362   1.046   5.436 -0.7264  1.4471 -0.9295
   16CHL1  H18C 1140   4.193   1.040   5.438  1.2289  1.7895 -1.4616
   16CHL1   C12 1141   4.136   0.799   5.533 -0.2190  0.3456  0.3823
   16CHL1  H12A 1142   4.056   0.869   5.502  0.5144  0.6707 -0.8240
   16CHL1  H12B 1143   4.110   0.692   5.514  0.0852  0.4622 -0.7728
   16CHL1   C11 1144   4.137   0.825   5.685  0.1753  0.4946 -0.0097
   16CHL1  H11A 1145   4.133   0.935   5.704 -0.2972  0.5582 -0.4649
   16CHL1  H11B 1146   4.039   0.789   5.724  0.4605  1.5151  1.7792
   16CHL1    C9 1147   4.245   0.749   5.765  0.8771 -0.2800 -0.4582
   16CHL1    H9 1148   4.227   0.640   5.753 -0.8600 -0.3514  2.1194
   16CHL1   C10 1149   4.245   0.776   5.919  0.6321  0.1166 -0.3357
   16CHL1   C19 1150   4.216   0.924   5.952 -0.5119 -0.1850 -0.0155
   16CHL1  H19A 1151   4.276   0.997   5.893  0.8937 -0.9739  0.3891
   16CHL1  H19B 1152   4.114   0.962   5.932 -0.6897 -0.5235  0.2461
   16CHL1  H19C 1153   4.240   0.950   6.057 -0.3493  1.1816 -0.3741
   16CHL1    C1 1154   4.126   0.695   5.983 -0.3142  0.1542  0.5442
   16CHL1   H1A 1155   4.032   0.737   5.943 -0.3363 -0.5770 -0.1939
   16CHL1   H1B 1156   4.134   0.593   5.938 -3.7052 -0.5343  1.2841
   16CHL1    C2 1157   4.129   0.680   6.134  0.5816 -0.1952 -0.3306
   16CHL1   H2A 1158   4.039   0.631   6.178 -1.5108  1.9941 -1.9071
   16CHL1   H2B 1159   4.113   0.781   6.177  0.1406 -1.4655  2.7504
   16CHL1   C20 1160   4.246   0.873   5.206  1.0091 -0.2478  0.4593
   16CHL1   H20 1161   4.292   0.974   5.204 -0.0848  0.2705 -2.1395
   16CHL1   C21 1162   4.087   0.900   5.219  0.4674  0.6713  0.8692
   16CHL1  H21A 1163   4.063   0.959   5.310  0.9923  0.5844  1.0662
   16CHL1  H21B 1164   4.031   0.804   5.220  2.5553 -0.6792 -0.9397
   16CHL1  H21C 1165   4.048   0.958   5.133 -1.9333  0.6854  1.8803
   16CHL1   C22 1166   4.280   0.806   5.067  0.1025  0.5364 -0.8679
   16CHL1  H22A 1167   4.387   0.779   5.080 -0.0209  1.3346  3.7716
   16CHL1  H22B 1168   4.218   0.714   5.055 -0.1660  0.1175  2.6922
   16CHL1   C23 1169   4.274   0.893   4.941 -0.3097 -0.2928 -0.6055
   16CHL1  H23A 1170   4.173   0.939   4.937 -0.5143 -0.6825  0.0128
   16CHL1  H23B 1171   4.342   0.980   4.952 -0.8580 -0.0813  1.3494
   16CHL1   C24 1172   4.307   0.818   4.816 -0.7056  0.5628 -0.2333
   16CHL1  H24A 1173   4.408   0.773   4.818 -1.1594 -0.4666 -0.0461
   16CHL1  H24B 1174   4.230   0.739   4.801  1.3704 -2.2573  2.6957
   16CHL1   C25 1175   4.312   0.911   4.690  0.2921  0.6901 -0.7548
   16CHL1   H25 1176   4.236   0.992   4.695  0.8943  1.3664 -2.2119
   16CHL1   C26 1177   4.441   0.995   4.680 -0.5680 -0.5226  0.3878
   16CHL1  H26A 1178   4.444   1.043   4.579 -2.0532  1.3183  1.1566
   16CHL1  H26B 1179   4.441   1.075   4.757 -1.1310  0.1574 -0.3019
   16CHL1  H26C 1180   4.534   0.937   4.698 -0.7318 -1.2543 -0.9754
   16CHL1   C27 1181   4.291   0.829   4.563 -0.0036 -0.5813  0.2199
   16CHL1  H27A 1182   4.372   0.754   4.557  0.5825  0.1393 -1.7823
   16CHL1  H27B 1183   4.183   0.803   4.556 -0.6748  2.1041 -0.8116
   16CHL1  H27C 1184   4.317   0.890   4.474  1.2785 -1.6818 -0.1959
   17CHL1    C3 1185   4.661   5.266   5.915  0.2894 -0.2982 -0.4452
   17CHL1    H3 1186   4.632   5.363   5.868 -3.0247 -0.2258  1.3941
   17CHL1    O3 1187   4.625   5.272   6.054 -0.4265  0.3051 -0.1491
   17CHL1   H3' 1188   4.675   5.341   6.099  2.9227 -0.6915 -2.0587
   17CHL1    C4 1189   4.579   5.158   5.843  0.2132 -0.1298 -0.5875
   17CHL1   H4A 1190   4.577   5.065   5.905  0.7037 -0.9721 -1.7927
   17CHL1   H4B 1191   4.471   5.181   5.852 -0.0757 -0.7651 -2.1970
   17CHL1    C5 1192   4.616   5.137   5.704 -0.5371  0.3620  0.6613
   17CHL1    C6 1193   4.524   5.158   5.605 -0.3620 -0.2466 -0.0116
   17CHL1    H6 1194   4.425   5.199   5.632 -0.8076 -1.7223  0.6854
   17CHL1    C7 1195   4.556   5.134   5.459  0.1025 -0.1613  0.1016
   17CHL1   H7A 1196   4.469   5.096   5.400 -0.2675  1.0541 -0.1493
   17CHL1   H7B 1197   4.586   5.226   5.405 -2.7905  1.2458  0.6959
   17CHL1    C8 1198   4.676   5.026   5.454 -0.3463 -0.6049  1.4694
   17CHL1    H8 1199   4.635   4.929   5.490 -4.3352 -0.5575 -2.0975
   17CHL1   C14 1200   4.712   5.012   5.308  0.3161 -0.0763 -0.4275
   17CHL1   H14 1201   4.756   5.110   5.280 -4.5231  2.4099 -0.4623
   17CHL1   C15 1202   4.606   5.010   5.194 -0.2915 -0.1001  0.2244
   17CHL1  H15A 1203   4.507   4.964   5.218  0.4143 -2.0241 -0.3705
   17CHL1  H15B 1204   4.580   5.114   5.166  1.9719  0.3464 -0.4032
   17CHL1   C16 1205   4.661   4.930   5.079 -0.1336 -0.0702 -0.0439
   17CHL1  H16A 1206   4.613   4.830   5.067 -0.6408  0.3150 -1.4402
   17CHL1  H16B 1207   4.635   4.982   4.985  0.2688 -1.9225 -1.2398
   17CHL1   C17 1208   4.815   4.916   5.120 -0.0910 -0.0682 -0.0823
   17CHL1   H17 1209   4.856   5.017   5.099 -1.5674  0.1033 -2.4811
   17CHL1   C13 1210   4.811   4.906   5.280 -0.1261  0.7331  0.4170
   17CHL1   C18 1211   4.761   4.761   5.316 -0.0888 -0.2405  0.5120
   17CHL1  H18A 1212   4.757   4.752   5.427 -1.6687 -1.6432  0.3792
   17CHL1  H18B 1213   4.654   4.755   5.289  0.2293 -1.5718 -0.5266
   17CHL1  H18C 1214   4.826   4.676   5.287  0.1042  0.5699 -1.6140
   17CHL1   C12 1215   4.943   4.933   5.357 -0.8242  0.2974 -0.2519
   17CHL1  H12A 1216   5.018   4.853   5.340 -0.0575  0.5201  1.7618
   17CHL1  H12B 1217   4.984   5.013   5.291  1.4063 -2.6883 -2.7754
   17CHL1   C11 1218   4.918   4.979   5.502  0.2701 -0.5495 -0.0781
   17CHL1  H11A 1219   4.919   4.889   5.566 -0.2012  0.9260  2.1067
   17CHL1  H11B 1220   5.006   5.032   5.545 -1.4685  0.5747  2.2980
   17CHL1    C9 1221   4.797   5.070   5.534  0.0237 -0.2878  0.0726
   17CHL1    H9 1222   4.826   5.173   5.505  2.5230 -0.8000  0.5686
   17CHL1   C10 1223   4.764   5.085   5.691  0.3402 -0.6146 -0.2883
   17CHL1   C19 1224   4.781   4.948   5.758  0.3997  0.1842  0.0417
   17CHL1  H19A 1225   4.717   4.872   5.709 -0.5065  0.2518  1.0762
   17CHL1  H19B 1226   4.886   4.910   5.753  0.9350  1.7415 -1.0841
   17CHL1  H19C 1227   4.742   4.949   5.862 -1.6209 -2.2202 -0.5883
   17CHL1    C1 1228   4.842   5.199   5.757  0.3083  0.6796 -0.1343
   17CHL1   H1A 1229   4.951   5.179   5.756  0.3002  0.5981 -1.3438
   17CHL1   H1B 1230   4.840   5.296   5.704 -0.2115  1.2644  0.9170
   17CHL1    C2 1231   4.807   5.236   5.902  0.4758 -0.3561  1.0053
   17CHL1   H2A 1232   4.860   5.326   5.938 -2.6764  1.4543  1.4958
   17CHL1   H2B 1233   4.838   5.147   5.961  1.4702 -0.5800  0.1585
   17CHL1   C20 1234   4.893   4.812   5.039  0.3245  0.1323 -0.5809
   17CHL1   H20 1235   4.866   4.709   5.071  2.7920 -0.4799 -0.2780
   17CHL1   C21 1236   5.045   4.843   5.058  0.3155  0.6521  0.3679
   17CHL1  H21A 1237   5.081   4.791   5.149 -0.0088  0.2627  0.2779
   17CHL1  H21B 1238   5.072   4.950   5.061 -1.1789  1.0116  2.1622
   17CHL1  H21C 1239   5.086   4.794   4.966 -0.0437  0.1940  0.4467
   17CHL1   C22 1240   4.863   4.827   4.892  0.7747  0.9890  0.6223
   17CHL1  H22A 1241   4.926   4.752   4.839  0.0628 -0.2626  1.5083
   17CHL1  H22B 1242   4.755   4.808   4.871 -0.0817  5.1662  0.4748
   17CHL1   C23 1243   4.880   4.965   4.830  0.4833 -0.5804 -0.3440
   17CHL1  H23A 1244   4.807   5.042   4.863 -0.4939 -1.3442 -0.6779
   17CHL1  H23B 1245   4.976   5.005   4.869  1.2941 -2.2369 -0.5536
   17CHL1   C24 1246   4.884   4.960   4.675 -0.0757  0.3019 -0.5178
   17CHL1  H24A 1247   4.954   4.883   4.636 -0.3836  0.1562 -0.7855
   17CHL1  H24B 1248   4.780   4.930   4.652 -0.0705 -0.7394  0.6972
   17CHL1   C25 1249   4.906   5.099   4.613  0.4771  0.2336 -0.2789
   17CHL1   H25 1250   4.818   5.163   4.637 -0.8381 -1.0670 -1.4801
   17CHL1   C26 1251   5.036   5.147   4.676  0.7098 -0.2038  0.4841
   17CHL1  H26A 1252   5.013   5.180   4.779 -1.5273 -4.9001  1.7524
   17CHL1  H26B 1253   5.112   5.066   4.678 -0.5926 -1.4527  1.1413
   17CHL1  H26C 1254   5.083   5.230   4.619 -0.7672  0.3643  0.0398
   17CHL1   C27 1255   4.908   5.092   4.465 -0.6542 -0.2851 -0.6911
   17CHL1  H27A 1256   4.946   5.191   4.431 -0.0354 -0.3887 -0.3207
   17CHL1  H27B 1257   4.980   5.011   4.440 -0.5295 -0.9988  1.6970
   17CHL1  H27C 1258   4.816   5.068   4.408 -0.6292 -0.6894 -0.5675
   18CHL1    C3 1259   5.925   1.875   6.015 -0.4191  0.1784  0.2437
   18CHL1    H3 1260   5.892   1.975   5.978  1.2682  1.2269  1.3846
   18CHL1    O3 1261   5.973   1.895   6.147  0.2476  0.3278  0.7920
   18CHL1   H3' 1262   6.035   1.823   6.161  0.5107  0.0009 -1.6245
   18CHL1    C4 1263   5.814   1.779   6.020  0.4839  0.5528 -0.1920
   18CHL1   H4A 1264   5.851   1.686   6.068  1.7010  1.6214  1.0222
   18CHL1   H4B 1265   5.737   1.798   6.098  0.0701 -1.2169 -0.1297
   18CHL1    C5 1266   5.763   1.736   5.883 -0.0421 -0.5879  0.0944
   18CHL1    C6 1267   5.639   1.752   5.842 -0.4986  0.2624 -0.4663
   18CHL1    H6 1268   5.564   1.799   5.907 -1.4445 -0.0782 -1.2829
   18CHL1    C7 1269   5.589   1.717   5.703  0.6450 -0.2321  0.1477
   18CHL1   H7A 1270   5.502   1.648   5.710  1.6136 -1.3470  2.3353
   18CHL1   H7B 1271   5.566   1.806   5.641 -1.3109 -0.2598  0.7625
   18CHL1    C8 1272   5.687   1.622   5.624 -0.2265  0.4114  1.1971
   18CHL1    H8 1273   5.672   1.516   5.655  0.3798 -0.4973 -1.3304
   18CHL1   C14 1274   5.654   1.626   5.477 -0.4746 -0.2127  0.0614
   18CHL1   H14 1275   5.657   1.735   5.453 -2.6785 -0.0620  0.2624
   18CHL1   C15 1276   5.508   1.589   5.444  0.0179  0.4555 -0.1117
   18CHL1  H15A 1277   5.474   1.509   5.512  1.3794  0.1274  0.2050
   18CHL1  H15B 1278   5.435   1.672   5.457 -0.1958  0.1084  0.9837
   18CHL1   C16 1279   5.524   1.557   5.294  0.3227  0.5095  0.0629
   18CHL1  H16A 1280   5.492   1.451   5.289  0.3668  0.5315 -0.9191
   18CHL1  H16B 1281   5.454   1.620   5.235 -0.8301  0.6913  1.5590
   18CHL1   C17 1282   5.677   1.565   5.250  0.1202 -0.4576 -0.9929
   18CHL1   H17 1283   5.687   1.669   5.212  2.5288 -1.2751 -2.8174
   18CHL1   C13 1284   5.749   1.553   5.382 -0.2488 -0.2582  0.1189
   18CHL1   C18 1285   5.744   1.406   5.419 -0.3935 -0.0883  0.6161
   18CHL1  H18A 1286   5.643   1.362   5.434 -2.4289  2.7343 -3.1767
   18CHL1  H18B 1287   5.787   1.351   5.333  0.2843 -1.1737  1.6271
   18CHL1  H18C 1288   5.815   1.379   5.500  4.1830  0.7198 -2.7254
   18CHL1   C12 1289   5.889   1.619   5.400  0.6652 -0.2030 -0.9633
   18CHL1  H12A 1290   5.966   1.579   5.332  1.0619  0.5099 -0.9424
   18CHL1  H12B 1291   5.875   1.724   5.365  1.5295 -0.1247 -1.0943
   18CHL1   C11 1292   5.942   1.621   5.550  0.6745  0.5440  0.4201
   18CHL1  H11A 1293   5.976   1.517   5.569  1.5109  0.7027 -0.1120
   18CHL1  H11B 1294   6.035   1.682   5.553  2.1608 -1.5254 -1.1235
   18CHL1    C9 1295   5.831   1.675   5.644  0.1278  0.3745 -0.3502
   18CHL1    H9 1296   5.812   1.780   5.614 -1.3876  0.1883 -0.1127
   18CHL1   C10 1297   5.876   1.681   5.792  0.0888 -0.6747  0.3412
   18CHL1   C19 1298   5.922   1.537   5.839  0.4917  0.0497  0.2433
   18CHL1  H19A 1299   5.935   1.527   5.948 -2.9114  0.9143  0.8404
   18CHL1  H19B 1300   5.854   1.457   5.803 -1.6370  2.3555 -1.2042
   18CHL1  H19C 1301   6.020   1.513   5.790  0.2601  2.2144 -1.4501
   18CHL1    C1 1302   6.001   1.782   5.796 -0.7950  0.5232  0.2748
   18CHL1   H1A 1303   6.088   1.731   5.748 -0.9536  1.2426 -0.8170
   18CHL1   H1B 1304   5.977   1.870   5.733  2.5539 -0.3492 -2.5120
   18CHL1    C2 1305   6.043   1.826   5.931 -0.1586  0.2498 -0.5039
   18CHL1   H2A 1306   6.119   1.907   5.933  0.0921  0.0048  0.9393
   18CHL1   H2B 1307   6.104   1.742   5.971  0.7057  0.4068 -1.4218
   18CHL1   C20 1308   5.711   1.482   5.127 -0.2398  0.7710  0.4963
   18CHL1   H20 1309   5.702   1.375   5.155  0.6163  0.6975  0.5341
   18CHL1   C21 1310   5.858   1.501   5.092  0.6283  0.2060  0.5006
   18CHL1  H21A 1311   5.876   1.466   4.988 -0.8159 -2.1506  0.9522
   18CHL1  H21B 1312   5.926   1.439   5.154 -1.1010 -1.5090  0.7683
   18CHL1  H21C 1313   5.889   1.607   5.101  0.3817  0.2994  0.2639
   18CHL1   C22 1314   5.623   1.508   5.001  0.0352 -0.2104 -0.2462
   18CHL1  H22A 1315   5.642   1.426   4.928  0.5941 -0.9121  0.6574
   18CHL1  H22B 1316   5.517   1.502   5.034 -0.7470  0.9103 -2.3577
   18CHL1   C23 1317   5.636   1.644   4.926 -0.7718  0.1474 -0.7426
   18CHL1  H23A 1318   5.651   1.727   4.998  2.9621 -1.2552  0.3694
   18CHL1  H23B 1319   5.731   1.629   4.869  0.0640 -2.1192  1.1057
   18CHL1   C24 1320   5.523   1.670   4.825 -0.7331  0.0581  0.3449
   18CHL1  H24A 1321   5.501   1.571   4.781  1.3970 -2.0586  3.5785
   18CHL1  H24B 1322   5.429   1.696   4.878 -0.4306  0.1241  0.8583
   18CHL1   C25 1323   5.548   1.769   4.712 -0.7629 -0.6893  0.4397
   18CHL1   H25 1324   5.638   1.737   4.655 -0.1915  1.6533 -0.0968
   18CHL1   C26 1325   5.422   1.782   4.622 -0.4106 -0.1375 -0.5735
   18CHL1  H26A 1326   5.445   1.757   4.517  0.0902 -0.9925 -0.2665
   18CHL1  H26B 1327   5.340   1.725   4.671  1.2402 -2.5119 -0.4241
   18CHL1  H26C 1328   5.390   1.888   4.632 -1.0984 -0.5174  2.1115
   18CHL1   C27 1329   5.588   1.903   4.769 -0.2617 -0.9379  0.3174
   18CHL1  H27A 1330   5.523   1.944   4.850  0.2131  0.7807 -0.1156
   18CHL1  H27B 1331   5.689   1.904   4.815  0.2401  0.2953 -0.7342
   18CHL1  H27C 1332   5.594   1.978   4.687  2.2464  0.3782  1.5669
   19CHL1    C3 1333   3.759   5.627   6.130  0.8354 -0.3369 -0.2565
   19CHL1    H3 1334   3.659   5.655   6.091  0.4560  1.1402  1.6198
   19CHL1    O3 1335   3.772   5.671   6.264  0.1125  0.4146 -0.1777
   19CHL1   H3' 1336   3.780   5.587   6.310  0.1434  1.2040  1.3178
   19CHL1    C4 1337   3.782   5.472   6.120 -0.5446 -0.4727  0.4243
   19CHL1   H4A 1338   3.882   5.460   6.165 -0.9557 -1.2518  1.1610
   19CHL1   H4B 1339   3.703   5.421   6.180  0.0614 -0.5376  1.1800
   19CHL1    C5 1340   3.777   5.439   5.975 -0.0896  0.2388  0.4747
   19CHL1    C6 1341   3.695   5.336   5.937 -0.0090 -0.2463 -0.3251
   19CHL1    H6 1342   3.632   5.279   6.006  1.0297 -0.4501  0.4830
   19CHL1    C7 1343   3.681   5.292   5.790  0.3390  0.0365  0.0361
   19CHL1   H7A 1344   3.692   5.183   5.777  2.7317  0.2988 -0.6076
   19CHL1   H7B 1345   3.577   5.310   5.756  0.1143 -2.0860 -0.5526
   19CHL1    C8 1346   3.785   5.355   5.692 -0.5987 -0.0764 -0.2507
   19CHL1    H8 1347   3.880   5.297   5.702  2.3706  3.9317 -2.2727
   19CHL1   C14 1348   3.742   5.339   5.552 -0.4407 -0.3926  0.2289
   19CHL1   H14 1349   3.647   5.397   5.542  0.4476  0.8668 -1.3671
   19CHL1   C15 1350   3.685   5.207   5.508  0.9292 -0.8652  0.0140
   19CHL1  H15A 1351   3.747   5.127   5.554  0.1539 -2.8392 -2.1662
   19CHL1  H15B 1352   3.578   5.189   5.528  1.6222 -2.6443  2.7215
   19CHL1   C16 1353   3.698   5.211   5.356 -0.3166 -0.3253  0.0665
   19CHL1  H16A 1354   3.761   5.125   5.325  0.6337  0.9683 -1.7456
   19CHL1  H16B 1355   3.596   5.201   5.312  0.1536  0.5456 -1.2650
   19CHL1   C17 1356   3.761   5.355   5.320  0.2842  0.4176  0.1869
   19CHL1   H17 1357   3.673   5.422   5.306 -1.9170 -2.2849  0.0577
   19CHL1   C13 1358   3.834   5.398   5.442 -0.3663  1.0248  0.1798
   19CHL1   C18 1359   3.973   5.321   5.451  0.2813 -0.5501 -0.4674
   19CHL1  H18A 1360   3.952   5.215   5.426 -0.7569 -0.7097  0.9401
   19CHL1  H18B 1361   4.053   5.373   5.394  2.3208 -2.6991  0.2682
   19CHL1  H18C 1362   4.013   5.323   5.555  0.0318  2.7527 -0.3175
   19CHL1   C12 1363   3.848   5.548   5.478  0.5186 -0.4219  0.2726
   19CHL1  H12A 1364   3.926   5.604   5.422  3.2547 -2.0092  2.2430
   19CHL1  H12B 1365   3.750   5.596   5.460  0.7695  0.2545  0.7016
   19CHL1   C11 1366   3.900   5.577   5.617 -0.0157  0.3416  0.6566
   19CHL1  H11A 1367   4.008   5.550   5.622  0.1332  0.8875  0.4119
   19CHL1  H11B 1368   3.901   5.685   5.641 -2.1259  0.0431  2.3777
   19CHL1    C9 1369   3.814   5.504   5.725 -0.0578 -0.3544  0.0849
   19CHL1    H9 1370   3.710   5.541   5.717 -0.3735 -1.2373 -0.0544
   19CHL1   C10 1371   3.858   5.521   5.873 -0.5675  0.5076  0.1876
   19CHL1   C19 1372   3.999   5.478   5.901 -0.6640  0.3373  0.5739
   19CHL1  H19A 1373   4.002   5.368   5.921 -2.7471 -0.0558 -0.9138
   19CHL1  H19B 1374   4.074   5.504   5.824 -0.6366 -0.6639  0.2526
   19CHL1  H19C 1375   4.036   5.520   5.997 -0.7448  2.7212 -0.3766
   19CHL1    C1 1376   3.850   5.671   5.903 -0.6395  0.0903  0.0351
   19CHL1   H1A 1377   3.936   5.722   5.856 -0.9042  0.2874 -0.2420
   19CHL1   H1B 1378   3.754   5.721   5.877 -1.1046 -1.4472 -1.4354
   19CHL1    C2 1379   3.858   5.708   6.050  0.5089 -0.3170 -0.5193
   19CHL1   H2A 1380   3.837   5.816   6.059  0.7049 -0.3119 -0.0826
   19CHL1   H2B 1381   3.960   5.690   6.090  0.4644  3.4721  1.7252
   19CHL1   C20 1382   3.841   5.352   5.188  0.5226  0.4862  0.5071
   19CHL1   H20 1383   3.941   5.306   5.205  0.6685  0.2053 -0.9818
   19CHL1   C21 1384   3.853   5.502   5.150  0.5321 -0.3142  0.0383
   19CHL1  H21A 1385   3.913   5.505   5.056 -0.6447 -2.4262 -0.8463
   19CHL1  H21B 1386   3.889   5.571   5.228  0.5486 -0.9008  0.5573
   19CHL1  H21C 1387   3.751   5.535   5.120  0.6448 -0.9347 -1.1089
   19CHL1   C22 1388   3.775   5.273   5.076  0.6112  0.0331  0.3065
   19CHL1  H22A 1389   3.770   5.168   5.112  0.7775 -0.3958 -0.8602
   19CHL1  H22B 1390   3.671   5.312   5.066  0.7140  0.2561  0.0963
   19CHL1   C23 1391   3.847   5.267   4.940  0.3570  0.5911  0.7834
   19CHL1  H23A 1392   3.873   5.367   4.901  2.5452 -1.2022 -2.8606
   19CHL1  H23B 1393   3.943   5.212   4.950  0.3211  0.4447  0.3308
   19CHL1   C24 1394   3.784   5.181   4.824 -0.1178  0.0302 -0.4217
   19CHL1  H24A 1395   3.730   5.097   4.873 -1.6871  1.3271  0.1541
   19CHL1  H24B 1396   3.724   5.256   4.769  1.0220  1.6178  0.4176
   19CHL1   C25 1397   3.889   5.127   4.731 -0.0214 -0.1057  0.3206
   19CHL1   H25 1398   3.961   5.062   4.785  1.3801  1.3390  0.2537
   19CHL1   C26 1399   3.830   5.049   4.612  0.8563  0.0719 -0.7383
   19CHL1  H26A 1400   3.912   5.005   4.551  0.0465  0.0183 -1.7970
   19CHL1  H26B 1401   3.767   4.967   4.650  1.0831 -0.2121 -0.9731
   19CHL1  H26C 1402   3.776   5.120   4.546 -0.0299 -0.1301 -0.2442
   19CHL1   C27 1403   3.986   5.228   4.672  0.4305 -0.0549  0.3521
   19CHL1  H27A 1404   4.056   5.174   4.604  0.9401 -1.6095  2.0306
   19CHL1  H27B 1405   3.926   5.304   4.618 -0.1399 -1.6484 -1.3758
   19CHL1  H27C 1406   4.045   5.277   4.752  0.5575  0.3517  0.0159
   20CHL1    C3 1407   1.921   1.565   5.818  0.3499 -0.5585 -0.9762
   20CHL1    H3 1408   1.990   1.507   5.753  3.8143  1.4989  0.5794
   20CHL1    O3 1409   1.948   1.542   5.956  0.3120  0.2345 -0.7110
   20CHL1   H3' 1410   1.879   1.589   6.004  0.0402 -0.6430 -0.2219
   20CHL1    C4 1411   1.952   1.714   5.796  0.1248 -0.2745 -0.4178
   20CHL1   H4A 1412   1.893   1.777   5.866 -2.1026 -0.1893 -2.2450
   20CHL1   H4B 1413   2.058   1.722   5.827  0.3154  2.5736 -1.5185
   20CHL1    C5 1414   1.928   1.750   5.648 -0.1037  0.2218 -0.7548
   20CHL1    C6 1415   2.025   1.773   5.563  0.6081  0.6629  0.2332
   20CHL1    H6 1416   2.128   1.780   5.602  0.6369  0.1212  0.2670
   20CHL1    C7 1417   2.010   1.809   5.424 -0.9685 -0.7171  0.3614
   20CHL1   H7A 1418   2.057   1.908   5.403 -4.7786  0.9487 -1.2073
   20CHL1   H7B 1419   2.057   1.738   5.352 -0.4030  0.4932 -0.4894
   20CHL1    C8 1420   1.866   1.830   5.381  0.0540  0.3506  0.3999
   20CHL1    H8 1421   1.837   1.927   5.428 -2.5479  0.5936 -1.4987
   20CHL1   C14 1422   1.852   1.833   5.232  0.1688  1.0803  0.0909
   20CHL1   H14 1423   1.880   1.734   5.189 -1.4558  1.3741 -1.8237
   20CHL1   C15 1424   1.946   1.932   5.139  0.9160  0.2844 -0.1669
   20CHL1  H15A 1425   1.937   2.033   5.184 -0.2821 -0.2222  0.7824
   20CHL1  H15B 1426   2.051   1.897   5.132  0.3998 -1.0082 -2.1973
   20CHL1   C16 1427   1.869   1.924   5.007  0.4071  0.3274 -0.1361
   20CHL1  H16A 1428   1.854   2.023   4.960  2.3633  0.1614 -1.2204
   20CHL1  H16B 1429   1.935   1.872   4.934 -0.5898 -1.0448 -0.1148
   20CHL1   C17 1430   1.736   1.845   5.028 -0.3960 -0.5719  0.8994
   20CHL1   H17 1431   1.766   1.744   4.995 -2.1353 -0.8392  0.0060
   20CHL1   C13 1432   1.710   1.853   5.182  0.0986 -0.1697  0.5532
   20CHL1   C18 1433   1.661   1.996   5.226 -0.2317  0.3009  0.1073
   20CHL1  H18A 1434   1.722   2.070   5.170  0.6177 -0.4813 -0.0176
   20CHL1  H18B 1435   1.552   2.002   5.205 -0.6500 -2.1195  1.2977
   20CHL1  H18C 1436   1.684   2.023   5.331 -0.7475  1.3384 -0.0264
   20CHL1   C12 1437   1.633   1.741   5.238  0.4757  0.2706  0.4405
   20CHL1  H12A 1438   1.528   1.756   5.205  0.7801  1.1823 -0.1551
   20CHL1  H12B 1439   1.663   1.642   5.197 -1.0003 -0.8059  1.8046
   20CHL1   C11 1440   1.632   1.739   5.389 -0.1000  0.3562  0.0013
   20CHL1  H11A 1441   1.580   1.830   5.425  0.7517 -0.0022  2.2541
   20CHL1  H11B 1442   1.581   1.651   5.433  0.9507  0.3012  1.1590
   20CHL1    C9 1443   1.772   1.724   5.446 -0.0011 -0.1543  0.7937
   20CHL1    H9 1444   1.814   1.630   5.404 -0.4611  1.2896 -3.2694
   20CHL1   C10 1445   1.779   1.713   5.602 -0.3534  0.1226 -0.3268
   20CHL1   C19 1446   1.704   1.835   5.660 -0.0426  0.5230  0.1630
   20CHL1  H19A 1447   1.594   1.835   5.642 -0.1470  2.4073  0.5565
   20CHL1  H19B 1448   1.705   1.838   5.771  0.7714  0.5379  0.1593
   20CHL1  H19C 1449   1.737   1.932   5.618 -2.2268 -0.0860 -3.3713
   20CHL1    C1 1450   1.720   1.582   5.656  0.2573  0.0940  0.1095
   20CHL1   H1A 1451   1.609   1.576   5.658  0.3434 -3.2797  0.7760
   20CHL1   H1B 1452   1.748   1.505   5.581  0.9035  0.3556  0.0717
   20CHL1    C2 1453   1.773   1.533   5.793  0.1638  0.2631 -0.0967
   20CHL1   H2A 1454   1.753   1.424   5.803 -1.2298  0.7028  3.5584
   20CHL1   H2B 1455   1.714   1.586   5.871  0.4216 -0.2570  0.4588
   20CHL1   C20 1456   1.629   1.888   4.927 -0.6337 -0.1725 -0.2055
   20CHL1   H20 1457   1.577   1.980   4.962 -0.1824 -0.4737  1.3732
   20CHL1   C21 1458   1.522   1.774   4.919 -0.3200 -0.1000  0.8180
   20CHL1  H21A 1459   1.475   1.776   4.818  0.0632 -1.4518  0.5960
   20CHL1  H21B 1460   1.441   1.788   4.993 -0.3261 -1.8269  1.1627
   20CHL1  H21C 1461   1.581   1.680   4.924  0.9339  0.6583  0.7324
   20CHL1   C22 1462   1.671   1.930   4.781 -0.1774  0.1391 -0.5185
   20CHL1  H22A 1463   1.574   1.943   4.728 -1.7835 -4.3453  0.8227
   20CHL1  H22B 1464   1.730   2.024   4.782  1.1451 -0.6710 -0.4270
   20CHL1   C23 1465   1.746   1.821   4.705  0.3409 -0.3429  0.6465
   20CHL1  H23A 1466   1.847   1.810   4.750 -0.1365  1.2842  2.2420
   20CHL1  H23B 1467   1.689   1.727   4.720  1.0631 -0.7341  0.9530
   20CHL1   C24 1468   1.756   1.845   4.552 -0.2496 -0.1115 -0.9295
   20CHL1  H24A 1469   1.656   1.857   4.505  0.1835  0.8894 -1.6433
   20CHL1  H24B 1470   1.800   1.945   4.530 -1.2287  0.7659  0.8373
   20CHL1   C25 1471   1.840   1.740   4.479 -0.6683  0.8032  0.1956
   20CHL1   H25 1472   1.943   1.724   4.519 -1.4082 -1.9687  1.2148
   20CHL1   C26 1473   1.769   1.602   4.477 -0.1429 -0.0453 -0.3851
   20CHL1  H26A 1474   1.760   1.580   4.585  0.8449 -1.0753 -0.4944
   20CHL1  H26B 1475   1.666   1.607   4.434  0.6732 -0.9928 -2.6105
   20CHL1  H26C 1476   1.826   1.525   4.420  3.1969 -1.0044  3.7426
   20CHL1   C27 1477   1.856   1.790   4.335  0.2033 -0.0263 -0.0949
   20CHL1  H27A 1478   1.901   1.891   4.331  1.7145 -0.6991 -3.1475
   20CHL1  H27B 1479   1.925   1.727   4.274  0.3380  1.0719 -1.1030
   20CHL1  H27C 1480   1.760   1.804   4.281  0.4598 -1.0599 -0.8612
   21CHL1    C3 1481   1.285   1.187   6.289 -0.3393  0.1904 -0.5902
   21CHL1    H3 1482   1.179   1.152   6.291 -0.3833  0.3444  0.2201
   21CHL1    O3 1483   1.341   1.180   6.420  0.5385 -0.4407  1.1182
   21CHL1   H3' 1484   1.433   1.203   6.406 -0.1686  1.2770 -1.2247
   21CHL1    C4 1485   1.380   1.100   6.198  0.5750  0.0048  0.4200
   21CHL1   H4A 1486   1.482   1.142   6.215  0.2325  0.5399  1.1829
   21CHL1   H4B 1487   1.370   0.995   6.234  0.9183 -0.0293  0.4196
   21CHL1    C5 1488   1.362   1.116   6.046  0.0311 -0.1131 -0.3473
   21CHL1    C6 1489   1.351   1.012   5.960  0.1169  0.3135 -0.0473
   21CHL1    H6 1490   1.359   0.908   5.994  3.6548  0.8384  1.1384
   21CHL1    C7 1491   1.328   1.024   5.813  0.6754 -0.7583  0.1129
   21CHL1   H7A 1492   1.395   0.950   5.765 -0.8475 -2.3804  0.3833
   21CHL1   H7B 1493   1.220   1.002   5.795  1.0300 -3.0224  0.4361
   21CHL1    C8 1494   1.369   1.168   5.761 -0.3098  0.7658  0.1393
   21CHL1    H8 1495   1.480   1.177   5.751 -0.2043  1.0952  1.3965
   21CHL1   C14 1496   1.316   1.186   5.621 -0.3079  0.3774 -0.5238
   21CHL1   H14 1497   1.206   1.186   5.635 -0.3612 -1.2441 -0.7829
   21CHL1   C15 1498   1.343   1.074   5.513 -0.7568  0.3986 -0.9141
   21CHL1  H15A 1499   1.449   1.065   5.480 -0.6826 -0.2020 -0.5188
   21CHL1  H15B 1500   1.305   0.973   5.540  1.3967 -0.4542 -0.8747
   21CHL1   C16 1501   1.270   1.138   5.395  0.1483 -0.1137 -0.2997
   21CHL1  H16A 1502   1.312   1.099   5.299 -0.3440 -1.4213 -0.0072
   21CHL1  H16B 1503   1.163   1.107   5.395  0.3794 -0.9243 -0.1760
   21CHL1   C17 1504   1.267   1.291   5.418  1.1708 -1.0248 -0.3894
   21CHL1   H17 1505   1.161   1.310   5.444  1.7582  0.9848  0.7624
   21CHL1   C13 1506   1.348   1.311   5.554  0.4761  0.0553  0.3526
   21CHL1   C18 1507   1.503   1.324   5.527  0.1661  0.3196 -0.5944
   21CHL1  H18A 1508   1.561   1.288   5.615 -2.9830 -2.0364  0.6867
   21CHL1  H18B 1509   1.537   1.277   5.432 -3.0006 -0.2390 -1.5747
   21CHL1  H18C 1510   1.526   1.433   5.517 -2.3480  0.9149 -0.5037
   21CHL1   C12 1511   1.293   1.427   5.644  0.0037  0.5323  0.0041
   21CHL1  H12A 1512   1.321   1.525   5.599  0.8724  1.5031  2.4585
   21CHL1  H12B 1513   1.185   1.403   5.637  0.3691 -1.0856 -0.5453
   21CHL1   C11 1514   1.340   1.420   5.795  0.3368  0.3741  0.0122
   21CHL1  H11A 1515   1.445   1.457   5.798  0.4633 -0.0162  0.5589
   21CHL1  H11B 1516   1.274   1.488   5.853  0.9404  0.4627  0.6226
   21CHL1    C9 1517   1.316   1.277   5.852 -0.1971  0.0948 -0.3782
   21CHL1    H9 1518   1.207   1.262   5.847 -0.0799 -1.1273  0.2518
   21CHL1   C10 1519   1.361   1.261   6.007  0.0953  0.2349  0.5019
   21CHL1   C19 1520   1.500   1.315   6.007  0.3684 -0.0641 -0.5187
   21CHL1  H19A 1521   1.494   1.425   5.998 -0.9006 -0.2270 -2.4348
   21CHL1  H19B 1522   1.570   1.287   6.088  1.3332  1.0447 -0.9374
   21CHL1  H19C 1523   1.556   1.287   5.915  0.6541 -0.5678 -0.1971
   21CHL1    C1 1524   1.266   1.341   6.090  0.2234 -0.1470 -0.6984
   21CHL1   H1A 1525   1.273   1.449   6.063 -0.2120 -0.0960 -0.6078
   21CHL1   H1B 1526   1.163   1.309   6.065  0.9751 -2.0106 -1.6170
   21CHL1    C2 1527   1.291   1.332   6.241  0.0236 -0.9366  0.0535
   21CHL1   H2A 1528   1.220   1.401   6.292 -0.3013 -0.8469 -0.5145
   21CHL1   H2B 1529   1.391   1.374   6.268 -0.9397  0.3488  1.8278
   21CHL1   C20 1530   1.311   1.370   5.295  0.4577 -0.4957  0.2271
   21CHL1   H20 1531   1.414   1.343   5.267  1.6095  0.8806  2.7769
   21CHL1   C21 1532   1.312   1.519   5.330  0.1502 -0.0397 -0.4451
   21CHL1  H21A 1533   1.214   1.565   5.356  0.0309  0.0896 -1.0933
   21CHL1  H21B 1534   1.339   1.582   5.243  1.7986  1.2851  0.9431
   21CHL1  H21C 1535   1.383   1.548   5.410 -1.8323  0.7767  1.0946
   21CHL1   C22 1536   1.220   1.350   5.168  0.2220 -0.0171  0.1602
   21CHL1  H22A 1537   1.202   1.242   5.146 -2.2609  0.4924 -0.6059
   21CHL1  H22B 1538   1.116   1.379   5.195 -0.0469 -2.6578  2.3476
   21CHL1   C23 1539   1.272   1.425   5.043 -0.1988  0.1372  0.0894
   21CHL1  H23A 1540   1.263   1.536   5.044  0.4744  0.2370 -1.2983
   21CHL1  H23B 1541   1.378   1.394   5.027  0.0003  1.5911 -1.7757
   21CHL1   C24 1542   1.200   1.381   4.914  0.2734  0.2557 -0.7356
   21CHL1  H24A 1543   1.213   1.272   4.898 -1.0473  0.1870 -1.5292
   21CHL1  H24B 1544   1.093   1.395   4.942  0.8498  0.4010  1.5949
   21CHL1   C25 1545   1.227   1.453   4.787 -0.3645 -0.0500  0.5239
   21CHL1   H25 1546   1.214   1.558   4.822  1.4439 -0.2233  1.8676
   21CHL1   C26 1547   1.377   1.444   4.747 -0.5458  0.2313  0.1127
   21CHL1  H26A 1548   1.389   1.337   4.721 -1.1538  0.6883 -2.3424
   21CHL1  H26B 1549   1.401   1.500   4.653  2.9367 -0.3896  0.5177
   21CHL1  H26C 1550   1.451   1.471   4.824  0.9374 -0.7758 -0.9008
   21CHL1   C27 1551   1.127   1.417   4.675  0.6198  0.2208 -0.4469
   21CHL1  H27A 1552   1.140   1.484   4.587 -0.0382  1.8152  0.6419
   21CHL1  H27B 1553   1.134   1.309   4.649  1.0885  0.0133  0.5050
   21CHL1  H27C 1554   1.022   1.436   4.705  1.2231  1.1957  1.1861
   22CHL1    C3 1555   4.315   5.702   6.100 -0.2376  0.1877 -0.0357
   22CHL1    H3 1556   4.228   5.635   6.114 -0.4255  0.7812  1.9029
   22CHL1    O3 1557   4.364   5.715   6.227 -0.1984  0.1839  0.2168
   22CHL1   H3' 1558   4.423   5.790   6.217 -1.9849  1.5210 -1.0772
   22CHL1    C4 1559   4.421   5.638   6.011  0.0711 -0.4460  0.0544
   22CHL1   H4A 1560   4.516   5.696   6.014 -0.1021  0.0651 -2.3787
   22CHL1   H4B 1561   4.458   5.540   6.050  0.1425 -0.6235 -0.4504
   22CHL1    C5 1562   4.394   5.628   5.861 -0.6184 -0.4273 -0.0754
   22CHL1    C6 1563   4.394   5.509   5.799  0.0323  0.0058  0.1539
   22CHL1    H6 1564   4.415   5.421   5.861 -0.4814  0.1662  0.5634
   22CHL1    C7 1565   4.372   5.495   5.651  0.2500 -0.0585  0.7126
   22CHL1   H7A 1566   4.451   5.440   5.596 -2.0176 -0.1862 -2.7012
   22CHL1   H7B 1567   4.274   5.445   5.635  0.2289  0.1087  0.2976
   22CHL1    C8 1568   4.363   5.630   5.576 -0.4200  0.0239 -0.0073
   22CHL1    H8 1569   4.467   5.667   5.558 -0.4024 -0.3457 -0.7060
   22CHL1   C14 1570   4.288   5.612   5.447  0.3419  0.4390  0.3620
   22CHL1   H14 1571   4.183   5.585   5.474  0.0678 -0.0164 -1.0929
   22CHL1   C15 1572   4.343   5.505   5.356  0.8273  0.0322 -0.6426
   22CHL1  H15A 1573   4.452   5.517   5.339  0.4529  4.1580 -1.1212
   22CHL1  H15B 1574   4.318   5.402   5.390  2.0727  0.0203  0.2793
   22CHL1   C16 1575   4.270   5.533   5.222 -0.0405  0.0790 -0.4575
   22CHL1  H16A 1576   4.347   5.544   5.144  1.8638 -0.7811  1.2004
   22CHL1  H16B 1577   4.192   5.455   5.206  1.1343 -0.8453 -1.9010
   22CHL1   C17 1578   4.212   5.667   5.236  1.0042 -0.2253  0.4781
   22CHL1   H17 1579   4.106   5.653   5.268  0.1377  1.0672 -1.5787
   22CHL1   C13 1580   4.279   5.733   5.361  0.1552  0.5779  0.4022
   22CHL1   C18 1581   4.417   5.786   5.326 -0.0958  0.3530 -0.1841
   22CHL1  H18A 1582   4.410   5.888   5.282  0.0760  0.5899  0.3231
   22CHL1  H18B 1583   4.495   5.780   5.405 -0.7566 -0.5376  0.4147
   22CHL1  H18C 1584   4.447   5.722   5.241 -2.0574  0.5271 -1.0529
   22CHL1   C12 1585   4.197   5.833   5.439  0.2603 -0.3894 -0.1376
   22CHL1  H12A 1586   4.173   5.923   5.380  0.6741 -1.2242 -1.6242
   22CHL1  H12B 1587   4.097   5.791   5.465 -0.9135  1.8173 -0.9019
   22CHL1   C11 1588   4.262   5.864   5.576  0.0641 -0.2315  0.5128
   22CHL1  H11A 1589   4.359   5.911   5.550  1.3709 -1.6447  2.4845
   22CHL1  H11B 1590   4.205   5.940   5.634  0.7861 -0.3179  1.3652
   22CHL1    C9 1591   4.297   5.737   5.656  0.8159  0.2797 -0.0626
   22CHL1    H9 1592   4.196   5.700   5.685  0.8005  1.6156  1.7568
   22CHL1   C10 1593   4.350   5.758   5.797 -0.5208  0.1554 -0.4112
   22CHL1   C19 1594   4.469   5.851   5.789 -0.0476 -0.1918  0.0714
   22CHL1  H19A 1595   4.516   5.868   5.888 -1.2633  0.1402  0.6142
   22CHL1  H19B 1596   4.547   5.806   5.724 -2.1160 -0.0136 -2.7365
   22CHL1  H19C 1597   4.432   5.950   5.754 -3.1527 -1.2626 -0.0397
   22CHL1    C1 1598   4.238   5.816   5.892  0.3228  0.2524 -0.0853
   22CHL1   H1A 1599   4.205   5.909   5.842 -1.6118 -0.1187  0.4396
   22CHL1   H1B 1600   4.159   5.738   5.902  3.2255 -3.0875 -0.9004
   22CHL1    C2 1601   4.268   5.836   6.041 -0.2958 -0.1408  0.7801
   22CHL1   H2A 1602   4.167   5.851   6.086 -2.7020 -3.4275 -2.8629
   22CHL1   H2B 1603   4.347   5.912   6.060 -0.4455  0.3635 -0.5229
   22CHL1   C20 1604   4.209   5.750   5.105 -0.1729  0.0454  0.3880
   22CHL1   H20 1605   4.316   5.757   5.076 -0.3400  0.1944 -0.2077
   22CHL1   C21 1606   4.143   5.890   5.121  0.4347  0.1703  0.4356
   22CHL1  H21A 1607   4.041   5.876   5.163  0.7782 -0.5180  1.0684
   22CHL1  H21B 1608   4.134   5.928   5.017  1.4751 -0.2076  0.2011
   22CHL1  H21C 1609   4.205   5.955   5.186  1.3692 -1.4913  1.2681
   22CHL1   C22 1610   4.131   5.677   4.988 -0.4811  0.1966 -0.5644
   22CHL1  H22A 1611   4.135   5.566   4.993 -0.2174  0.2099 -0.4632
   22CHL1  H22B 1612   4.021   5.693   4.988 -0.5175  0.5055  2.5692
   22CHL1   C23 1613   4.174   5.720   4.848 -0.2850 -0.0951 -0.4368
   22CHL1  H23A 1614   4.135   5.822   4.825 -1.3970 -0.5630 -0.7190
   22CHL1  H23B 1615   4.284   5.716   4.834  0.1726 -0.8546  2.7331
   22CHL1   C24 1616   4.110   5.626   4.740 -0.2484 -0.1486  0.4542
   22CHL1  H24A 1617   4.139   5.520   4.755 -0.2748 -0.2018  0.1199
   22CHL1  H24B 1618   4.003   5.627   4.773 -0.4789 -0.7878 -0.2516
   22CHL1   C25 1619   4.131   5.662   4.592  0.1117  0.3066 -0.1786
   22CHL1   H25 1620   4.125   5.771   4.572  0.3188  0.6860  1.6766
   22CHL1   C26 1621   4.271   5.626   4.539 -0.7962  0.0490  1.2978
   22CHL1  H26A 1622   4.265   5.638   4.429 -0.1159 -1.3952  1.0822
   22CHL1  H26B 1623   4.346   5.693   4.588  0.2705  0.2126 -0.4772
   22CHL1  H26C 1624   4.294   5.520   4.562  0.5759  0.6304  2.8424
   22CHL1   C27 1625   4.027   5.585   4.500 -0.0592  0.3102  0.0682
   22CHL1  H27A 1626   4.038   5.624   4.397 -1.6810 -0.2452 -0.3449
   22CHL1  H27B 1627   4.033   5.475   4.516 -1.4249  0.5562  3.1203
   22CHL1  H27C 1628   3.928   5.620   4.536 -0.1381 -0.0198  0.1746
   23CHL1    C3 1629   3.084   2.633   5.984 -0.3489 -0.3269  0.2981
   23CHL1    H3 1630   3.037   2.718   5.929 -0.5329 -0.8009 -0.2813
   23CHL1    O3 1631   3.028   2.629   6.115  0.1958 -0.4264  0.4374
   23CHL1   H3' 1632   3.050   2.546   6.158 -2.6435 -2.6848 -2.0039
   23CHL1    C4 1633   3.069   2.494   5.912  0.3509 -0.4983 -0.5506
   23CHL1   H4A 1634   3.105   2.412   5.979 -3.4099 -0.8623  1.3055
   23CHL1   H4B 1635   2.958   2.486   5.908  0.0947  1.2292  1.3845
   23CHL1    C5 1636   3.131   2.495   5.773  0.7379 -0.1009 -0.7556
   23CHL1    C6 1637   3.060   2.494   5.659  0.0319  0.2760 -0.7744
   23CHL1    H6 1638   2.951   2.480   5.659 -0.0761  0.7860 -2.5081
   23CHL1    C7 1639   3.127   2.521   5.530 -0.8846  0.3266 -0.1802
   23CHL1   H7A 1640   3.082   2.462   5.447  0.5218  0.6986 -1.2428
   23CHL1   H7B 1641   3.109   2.630   5.522 -1.4759  0.3718  1.3940
   23CHL1    C8 1642   3.279   2.479   5.536  0.0126  0.0869 -0.2335
   23CHL1    H8 1643   3.284   2.371   5.562  2.0143 -0.5999 -2.9263
   23CHL1   C14 1644   3.343   2.496   5.397 -0.5431  0.2762 -0.5877
   23CHL1   H14 1645   3.336   2.603   5.367 -1.1043  0.2007 -0.7294
   23CHL1   C15 1646   3.281   2.437   5.277 -0.1657 -0.3953 -0.9867
   23CHL1  H15A 1647   3.262   2.331   5.306 -0.5190  0.3980  2.0502
   23CHL1  H15B 1648   3.195   2.494   5.235 -1.1179  1.6835  3.2235
   23CHL1   C16 1649   3.395   2.439   5.172  0.4625 -0.5299  0.2854
   23CHL1  H16A 1650   3.414   2.342   5.122 -0.8234 -0.2685 -0.7469
   23CHL1  H16B 1651   3.380   2.521   5.099  0.3756 -0.5455  0.2860
   23CHL1   C17 1652   3.526   2.491   5.249 -0.0841 -0.4602 -0.3776
   23CHL1   H17 1653   3.535   2.602   5.238  1.2241 -0.6486 -1.5020
   23CHL1   C13 1654   3.492   2.464   5.395  0.0627  0.4975  0.0765
   23CHL1   C18 1655   3.507   2.309   5.426 -0.3824 -0.3062 -0.2727
   23CHL1  H18A 1656   3.463   2.283   5.524 -1.8434  4.1741  0.4857
   23CHL1  H18B 1657   3.455   2.257   5.342  0.7352 -1.3847 -0.3387
   23CHL1  H18C 1658   3.617   2.292   5.420 -0.1965  0.7975 -0.0763
   23CHL1   C12 1659   3.561   2.559   5.497  0.1363  0.5323  0.2986
   23CHL1  H12A 1660   3.672   2.548   5.502 -0.0663 -1.9594  0.6635
   23CHL1  H12B 1661   3.545   2.664   5.466  3.6407  1.2189  0.3372
   23CHL1   C11 1662   3.507   2.546   5.641  0.1644  0.2253  1.0601
   23CHL1  H11A 1663   3.556   2.449   5.662 -2.0818 -1.1030  0.5139
   23CHL1  H11B 1664   3.558   2.619   5.707  0.6904  0.0948  0.8011
   23CHL1    C9 1665   3.350   2.557   5.644 -1.1033 -0.1018  0.1912
   23CHL1    H9 1666   3.326   2.661   5.615 -1.0287  0.2896  1.4633
   23CHL1   C10 1667   3.289   2.526   5.781  0.2893  0.1829 -1.2256
   23CHL1   C19 1668   3.351   2.399   5.838 -0.2015  0.7544  0.1397
   23CHL1  H19A 1669   3.459   2.406   5.862  0.1585  1.4681 -1.5617
   23CHL1  H19B 1670   3.302   2.363   5.932 -1.2174  0.0549 -0.6371
   23CHL1  H19C 1671   3.340   2.308   5.775 -0.9184 -0.0983  1.4264
   23CHL1    C1 1672   3.318   2.650   5.871  0.2723 -0.0041 -0.7854
   23CHL1   H1A 1673   3.419   2.638   5.914 -0.5321 -0.9461  0.9073
   23CHL1   H1B 1674   3.312   2.749   5.821  2.0726  1.0168  0.8841
   23CHL1    C2 1675   3.236   2.656   6.004 -0.3696 -0.2105 -0.0998
   23CHL1   H2A 1676   3.254   2.751   6.059  2.9145 -1.9865  2.2202
   23CHL1   H2B 1677   3.284   2.579   6.068  0.3438 -0.0640 -0.4543
   23CHL1   C20 1678   3.650   2.428   5.182  0.7882 -0.3931 -0.0964
   23CHL1   H20 1679   3.657   2.322   5.215  1.8202  0.3213  2.2549
   23CHL1   C21 1680   3.764   2.518   5.238 -0.4514 -0.1381 -1.0784
   23CHL1  H21A 1681   3.768   2.472   5.339  3.7187 -0.4081 -1.2181
   23CHL1  H21B 1682   3.750   2.628   5.249 -0.2566 -0.0687 -1.4959
   23CHL1  H21C 1683   3.869   2.499   5.206 -0.4551 -2.2090 -0.0572
   23CHL1   C22 1684   3.654   2.440   5.030 -0.6340  0.5589 -0.1261
   23CHL1  H22A 1685   3.748   2.406   4.981  0.3080 -0.2331  2.0751
   23CHL1  H22B 1686   3.573   2.380   4.983 -1.0719  0.1897  1.0719
   23CHL1   C23 1687   3.643   2.590   4.984 -0.1466 -0.1589 -0.1009
   23CHL1  H23A 1688   3.551   2.630   5.033  0.7584  0.3524  1.2406
   23CHL1  H23B 1689   3.730   2.650   5.018  1.0488 -1.9239  0.0911
   23CHL1   C24 1690   3.631   2.611   4.833  0.9096  0.2730 -0.0030
   23CHL1  H24A 1691   3.724   2.565   4.794  0.6054  1.1973 -1.9214
   23CHL1  H24B 1692   3.544   2.551   4.798  0.8555  0.2204  0.2177
   23CHL1   C25 1693   3.612   2.753   4.775 -0.5769 -0.0503  0.1953
   23CHL1   H25 1694   3.521   2.791   4.826 -2.3108 -5.4821  1.8199
   23CHL1   C26 1695   3.717   2.852   4.825  0.4787 -0.0398  0.1984
   23CHL1  H26A 1696   3.822   2.817   4.814  1.2335  2.4642 -1.4962
   23CHL1  H26B 1697   3.708   2.951   4.775 -0.5433 -0.0272  0.3875
   23CHL1  H26C 1698   3.699   2.851   4.934 -0.1505 -1.8539  0.1134
   23CHL1   C27 1699   3.605   2.757   4.623 -0.6677 -0.4425 -0.4702
   23CHL1  H27A 1700   3.706   2.720   4.594 -0.0868 -0.0696  1.0125
   23CHL1  H27B 1701   3.532   2.686   4.578 -1.5491  0.4465 -0.4675
   23CHL1  H27C 1702   3.594   2.865   4.599 -1.4168 -0.6984 -1.3796
   24CHL1    C3 1703   3.335   0.211   5.630 -0.0232  0.3832 -0.3938
   24CHL1    H3 1704   3.228   0.232   5.608 -0.2755  0.8477  1.1440
   24CHL1    O3 1705   3.350   0.224   5.770  0.4915 -0.1528  0.3126
   24CHL1   H3' 1706   3.432   0.177   5.790  0.7837 -1.1045 -2.7094
   24CHL1    C4 1707   3.364   0.063   5.588 -0.0303 -0.3742 -0.7814
   24CHL1   H4A 1708   3.465   0.041   5.628  0.1112  1.2917 -0.1519
   24CHL1   H4B 1709   3.295  -0.003   5.646 -0.7318  1.1814  0.2212
   24CHL1    C5 1710   3.379   0.027   5.441 -0.0322  0.0704  0.0996
   24CHL1    C6 1711   3.318  -0.078   5.379  0.5247 -0.0240 -0.6829
   24CHL1    H6 1712   3.267  -0.146   5.449  0.8129 -0.6484 -1.0703
   24CHL1    C7 1713   3.330  -0.102   5.233 -0.8686  0.8574 -0.6898
   24CHL1   H7A 1714   3.372  -0.204   5.220  0.6756  0.9123  2.6639
   24CHL1   H7B 1715   3.228  -0.087   5.192 -1.3768 -0.1566  0.1731
   24CHL1    C8 1716   3.436  -0.012   5.167  0.3587  0.2352  0.5212
   24CHL1    H8 1717   3.532  -0.061   5.196  0.4015  1.5979  2.9080
   24CHL1   C14 1718   3.410  -0.020   5.015 -0.5987 -0.3887 -0.3877
   24CHL1   H14 1719   3.312   0.028   4.995 -0.2714 -0.6722 -2.9310
   24CHL1   C15 1720   3.411  -0.157   4.949  0.1358  0.6449  0.7451
   24CHL1  H15A 1721   3.491  -0.216   4.999  0.8904  1.7756  0.8914
   24CHL1  H15B 1722   3.313  -0.209   4.938  1.0890 -1.0674 -0.1759
   24CHL1   C16 1723   3.470  -0.134   4.803  0.1521 -0.3913  0.0932
   24CHL1  H16A 1724   3.567  -0.187   4.793  0.7557  0.1661  2.3438
   24CHL1  H16B 1725   3.401  -0.161   4.720  1.6599  0.1848 -1.4174
   24CHL1   C17 1726   3.492   0.019   4.788 -0.9206 -0.0275  0.2353
   24CHL1   H17 1727   3.394   0.066   4.765 -0.6935  1.6261  2.3737
   24CHL1   C13 1728   3.519   0.063   4.934  0.2446 -0.1605  0.4814
   24CHL1   C18 1729   3.662   0.017   4.965 -0.2519  0.8125  0.2188
   24CHL1  H18A 1730   3.742   0.058   4.899  1.2469  1.4927  2.3416
   24CHL1  H18B 1731   3.677   0.044   5.072 -3.5324  0.3040  0.8969
   24CHL1  H18C 1732   3.660  -0.094   4.958  0.1653  0.6856  1.7739
   24CHL1   C12 1733   3.511   0.211   4.971 -0.2783  0.7591 -0.1781
   24CHL1  H12A 1734   3.596   0.276   4.940  1.2752  0.2080  2.6395
   24CHL1  H12B 1735   3.416   0.241   4.920 -1.4591 -2.2263  0.0666
   24CHL1   C11 1736   3.500   0.239   5.125 -0.2093 -0.3059 -0.0581
   24CHL1  H11A 1737   3.606   0.257   5.155 -0.8492  0.0652  2.2043
   24CHL1  H11B 1738   3.454   0.340   5.135 -3.0628 -1.5887  1.0476
   24CHL1    C9 1739   3.432   0.133   5.215 -0.0533  0.0679  0.9321
   24CHL1    H9 1740   3.326   0.159   5.197  0.2477 -0.0509 -1.2560
   24CHL1   C10 1741   3.456   0.137   5.369 -0.5855  0.2562 -0.5089
   24CHL1   C19 1742   3.612   0.133   5.398  0.4050  0.5958  0.0894
   24CHL1  H19A 1743   3.636   0.145   5.506  0.2902 -0.4787  0.2495
   24CHL1  H19B 1744   3.656   0.034   5.372  2.0046  1.6399 -1.4135
   24CHL1  H19C 1745   3.676   0.203   5.339  0.8200  0.1385 -0.0116
   24CHL1    C1 1746   3.426   0.283   5.410 -0.4868  0.5132 -0.1557
   24CHL1   H1A 1747   3.502   0.353   5.371  1.8325 -1.1527  1.1174
   24CHL1   H1B 1748   3.329   0.310   5.363  0.5398  0.9493 -2.1280
   24CHL1    C2 1749   3.419   0.313   5.561 -0.3740  0.1150  0.0950
   24CHL1   H2A 1750   3.379   0.417   5.564 -2.3736 -0.6498  1.6878
   24CHL1   H2B 1751   3.524   0.315   5.599 -1.1739  3.7538  2.7453
   24CHL1   C20 1752   3.597   0.045   4.678 -0.2420 -0.9076  0.2719
   24CHL1   H20 1753   3.692  -0.008   4.700  1.6000  2.1883  0.3687
   24CHL1   C21 1754   3.645   0.194   4.660  0.0729 -0.3616  0.2256
   24CHL1  H21A 1755   3.721   0.201   4.579  0.2217  0.8201  0.4391
   24CHL1  H21B 1756   3.700   0.227   4.751  1.1331 -0.6348 -0.3023
   24CHL1  H21C 1757   3.552   0.252   4.644 -1.1377 -2.1897  0.3238
   24CHL1   C22 1758   3.540  -0.006   4.543  0.4325 -0.8882  0.5948
   24CHL1  H22A 1759   3.621  -0.006   4.467 -0.6398  2.5623 -0.7019
   24CHL1  H22B 1760   3.524  -0.116   4.555 -0.9942 -0.7618  0.0334
   24CHL1   C23 1761   3.416   0.065   4.482 -0.9314 -0.1386  0.6418
   24CHL1  H23A 1762   3.335   0.062   4.558 -0.3055 -1.8936  1.2967
   24CHL1  H23B 1763   3.445   0.172   4.472  0.5052 -0.4778  0.9041
   24CHL1   C24 1764   3.383   0.001   4.346  0.7802  0.0520 -0.0174
   24CHL1  H24A 1765   3.469   0.031   4.281  0.1459  2.6517  0.2521
   24CHL1  H24B 1766   3.380  -0.110   4.345 -2.3223  0.0628 -0.2569
   24CHL1   C25 1767   3.256   0.047   4.289  0.2885  0.0900 -0.3918
   24CHL1   H25 1768   3.189   0.021   4.374  2.3205  4.0521  2.7809
   24CHL1   C26 1769   3.254   0.199   4.270  0.6234 -0.1453 -0.3817
   24CHL1  H26A 1770   3.151   0.234   4.248 -0.3065 -1.4526  1.5524
   24CHL1  H26B 1771   3.286   0.265   4.353  0.7802 -0.3451 -0.2824
   24CHL1  H26C 1772   3.317   0.239   4.188  1.0512  1.3243  0.6258
   24CHL1   C27 1773   3.228  -0.025   4.162  0.4455 -0.2487  0.3307
   24CHL1  H27A 1774   3.145   0.008   4.096  1.5158 -2.0803 -2.0853
   24CHL1  H27B 1775   3.309  -0.040   4.087  0.5832 -0.6556  0.5558
   24CHL1  H27C 1776   3.199  -0.129   4.188  1.3393 -0.9770 -1.4483
   25CHL1    C3 1777   1.480   1.978   6.030  0.0965 -0.6356 -0.4018
   25CHL1    H3 1778   1.581   1.949   5.992 -0.3113 -2.2037 -0.3608
   25CHL1    O3 1779   1.497   1.985   6.178  0.4456  0.3784  0.2490
   25CHL1   H3' 1780   1.524   2.075   6.196  0.3431  0.4435  0.0827
   25CHL1    C4 1781   1.435   2.115   5.986 -0.1656 -0.1864  0.5842
   25CHL1   H4A 1782   1.340   2.145   6.036 -1.4285 -2.0939 -0.5400
   25CHL1   H4B 1783   1.516   2.184   6.019  0.0175  0.6850 -1.5677
   25CHL1    C5 1784   1.414   2.121   5.831 -0.6889 -0.0036 -0.1491
   25CHL1    C6 1785   1.484   2.201   5.755 -0.0330 -0.2161 -0.4671
   25CHL1    H6 1786   1.567   2.254   5.804  1.6309 -2.8391 -0.2156
   25CHL1    C7 1787   1.470   2.207   5.607 -0.4113 -0.1792 -0.0722
   25CHL1   H7A 1788   1.470   2.312   5.571  3.7987 -0.1607 -0.5106
   25CHL1   H7B 1789   1.556   2.156   5.558  1.4339  1.7481  1.0040
   25CHL1    C8 1790   1.331   2.143   5.561 -0.4902  0.3478 -0.2912
   25CHL1    H8 1791   1.254   2.218   5.592 -1.5197 -0.3603 -1.0635
   25CHL1   C14 1792   1.335   2.116   5.409 -0.9595  0.2504 -0.1867
   25CHL1   H14 1793   1.415   2.040   5.393 -0.4675  0.7648 -0.2275
   25CHL1   C15 1794   1.370   2.235   5.316  0.4472  0.4125 -0.2446
   25CHL1  H15A 1795   1.323   2.325   5.361 -1.3534 -0.2568 -0.7173
   25CHL1  H15B 1796   1.477   2.266   5.321  1.0134 -1.4219 -0.2251
   25CHL1   C16 1797   1.325   2.187   5.178 -0.5667 -0.1744 -0.1050
   25CHL1  H16A 1798   1.238   2.242   5.136 -1.0610 -0.1561  0.9240
   25CHL1  H16B 1799   1.411   2.164   5.112 -0.7325 -2.0040  0.2552
   25CHL1   C17 1800   1.250   2.048   5.196 -0.0205 -0.3354 -0.1116
   25CHL1   H17 1801   1.329   1.978   5.160  0.2663  1.1195 -2.5206
   25CHL1   C13 1802   1.212   2.053   5.344  0.0731  0.4322 -0.6650
   25CHL1   C18 1803   1.094   2.150   5.359  0.2544  0.1964 -0.0868
   25CHL1  H18A 1804   1.066   2.157   5.466  1.5672  1.0726  0.2226
   25CHL1  H18B 1805   1.111   2.254   5.325 -2.6921  0.5693 -0.7025
   25CHL1  H18C 1806   1.002   2.117   5.307 -0.0351  2.3985 -1.1003
   25CHL1   C12 1807   1.181   1.922   5.415 -0.6874 -0.2926  0.4870
   25CHL1  H12A 1808   1.087   1.880   5.376 -2.0829  2.8139  0.1671
   25CHL1  H12B 1809   1.261   1.856   5.375 -1.3814 -0.5196 -0.5783
   25CHL1   C11 1810   1.176   1.940   5.565 -0.0762  0.1576 -0.0735
   25CHL1  H11A 1811   1.088   2.002   5.595  0.4702  0.3950  1.1177
   25CHL1  H11B 1812   1.154   1.839   5.607 -1.4951 -0.3112 -1.8012
   25CHL1    C9 1813   1.301   2.008   5.624 -0.5147  0.2660  1.1216
   25CHL1    H9 1814   1.391   1.950   5.597  0.2100  1.3682  1.1224
   25CHL1   C10 1815   1.306   2.019   5.782 -0.5083  0.4063 -0.3539
   25CHL1   C19 1816   1.172   2.054   5.843  1.0689  0.6324 -0.1489
   25CHL1  H19A 1817   1.134   2.150   5.801  0.9473  0.3202 -0.7714
   25CHL1  H19B 1818   1.095   1.976   5.825 -0.3249  1.4988  1.7155
   25CHL1  H19C 1819   1.173   2.068   5.953 -0.5778  1.2534 -0.1879
   25CHL1    C1 1820   1.340   1.881   5.838 -0.1954  0.9598  0.5048
   25CHL1   H1A 1821   1.254   1.822   5.801  0.1228  1.0562 -0.4052
   25CHL1   H1B 1822   1.426   1.835   5.786 -1.2889 -2.4728  1.4937
   25CHL1    C2 1823   1.377   1.874   5.985 -0.1742 -0.9381  0.5755
   25CHL1   H2A 1824   1.389   1.767   6.015  1.9331 -0.6282  0.9936
   25CHL1   H2B 1825   1.290   1.902   6.049  1.1441  1.2808  1.4950
   25CHL1   C20 1826   1.143   2.019   5.082 -0.6527 -0.4788 -0.1429
   25CHL1   H20 1827   1.063   2.095   5.096 -0.7691 -0.5697 -0.3193
   25CHL1   C21 1828   1.077   1.891   5.107  0.3324  0.0941 -0.3520
   25CHL1  H21A 1829   1.020   1.854   5.019  1.1611  1.5675 -1.5351
   25CHL1  H21B 1830   1.017   1.903   5.200  1.7012  3.9628  0.2152
   25CHL1  H21C 1831   1.149   1.807   5.121 -0.1772  0.0578  3.0157
   25CHL1   C22 1832   1.211   2.026   4.941 -0.4073  0.1271 -0.7278
   25CHL1  H22A 1833   1.259   2.126   4.931  2.3553 -1.1576 -1.4369
   25CHL1  H22B 1834   1.291   1.949   4.933  0.0637  0.5727 -0.3319
   25CHL1   C23 1835   1.106   2.011   4.833  0.7773 -0.2300  0.3906
   25CHL1  H23A 1836   1.070   1.905   4.832  0.1498 -0.0215 -0.5131
   25CHL1  H23B 1837   1.012   2.067   4.852  0.6111 -0.6535  0.8553
   25CHL1   C24 1838   1.153   2.058   4.692 -0.1340  0.0639  0.7174
   25CHL1  H24A 1839   1.068   2.052   4.621 -0.3075 -0.2986  0.9539
   25CHL1  H24B 1840   1.184   2.165   4.696  0.2337 -0.0055 -0.2548
   25CHL1   C25 1841   1.265   1.982   4.631 -1.0551 -0.0901  0.6105
   25CHL1   H25 1842   1.344   1.976   4.709  0.7868 -0.5969 -1.1949
   25CHL1   C26 1843   1.213   1.844   4.590  0.2236 -0.5442  0.3268
   25CHL1  H26A 1844   1.118   1.847   4.531  1.3699 -0.8157 -1.6136
   25CHL1  H26B 1845   1.283   1.782   4.531  0.8332  0.9005 -0.4903
   25CHL1  H26C 1846   1.191   1.779   4.678  0.8764 -0.2073  0.7424
   25CHL1   C27 1847   1.318   2.049   4.506  0.4098  0.0342  0.0125
   25CHL1  H27A 1848   1.243   2.046   4.424  2.8977 -3.3735 -2.4609
   25CHL1  H27B 1849   1.355   2.153   4.521 -2.2673  0.9714  0.5808
   25CHL1  H27C 1850   1.402   1.986   4.470  0.2358 -0.8493  1.1122
   26CHL1    C3 1851   5.799   4.981   6.277  0.8556  0.1421 -0.2922
   26CHL1    H3 1852   5.830   5.086   6.297  1.2030 -0.4078  2.5636
   26CHL1    O3 1853   5.771   4.917   6.401 -0.1545 -0.5106 -0.0049
   26CHL1   H3' 1854   5.718   4.987   6.438  0.1567 -0.8415  1.1222
   26CHL1    C4 1855   5.672   4.975   6.187 -0.6046 -0.6519  0.2870
   26CHL1   H4A 1856   5.656   4.866   6.178  0.7630 -0.9208  0.8869
   26CHL1   H4B 1857   5.574   4.999   6.233 -0.0842  1.8556  0.2274
   26CHL1    C5 1858   5.698   5.016   6.043  0.2620 -0.1467 -0.5330
   26CHL1    C6 1859   5.619   5.110   5.993 -0.4317  0.3072  0.0998
   26CHL1    H6 1860   5.529   5.147   6.045 -0.9756  0.0092 -0.6092
   26CHL1    C7 1861   5.643   5.158   5.854  0.1158 -0.0266 -0.4818
   26CHL1   H7A 1862   5.546   5.170   5.800 -0.1049  5.3142  0.5231
   26CHL1   H7B 1863   5.686   5.259   5.868  1.7244 -0.9842  1.9616
   26CHL1    C8 1864   5.738   5.070   5.766  0.5024 -0.7707  0.0282
   26CHL1    H8 1865   5.684   4.977   5.739 -0.9028 -0.0388  0.2417
   26CHL1   C14 1866   5.779   5.136   5.635 -0.1061 -0.6703 -0.0112
   26CHL1   H14 1867   5.842   5.227   5.642  0.1832 -0.8568 -0.2042
   26CHL1   C15 1868   5.668   5.176   5.530  0.7730  0.1718 -0.0023
   26CHL1  H15A 1869   5.594   5.094   5.523 -1.6755  2.4371 -4.1942
   26CHL1  H15B 1870   5.611   5.266   5.562 -1.8990 -1.1669 -0.7215
   26CHL1   C16 1871   5.732   5.180   5.393 -0.7129 -0.5059 -0.0594
   26CHL1  H16A 1872   5.670   5.109   5.334 -1.2745 -2.7325  3.0054
   26CHL1  H16B 1873   5.735   5.284   5.352  4.8595 -1.2441 -2.4561
   26CHL1   C17 1874   5.879   5.138   5.415  0.0446 -0.2731  0.0224
   26CHL1   H17 1875   5.936   5.230   5.439  0.0418  0.4490 -2.4711
   26CHL1   C13 1876   5.877   5.054   5.548  0.5306  0.7644 -0.8204
   26CHL1   C18 1877   5.827   4.904   5.509  0.5531 -0.2182  0.3474
   26CHL1  H18A 1878   5.808   4.840   5.598 -1.7851 -1.3263 -0.8512
   26CHL1  H18B 1879   5.735   4.904   5.448  0.8978 -0.4351 -0.1830
   26CHL1  H18C 1880   5.900   4.852   5.443  2.6223 -0.4053  2.6268
   26CHL1   C12 1881   6.007   5.052   5.635 -0.1884  0.1425  0.6702
   26CHL1  H12A 1882   6.092   5.000   5.587  0.6443  1.8071  0.2779
   26CHL1  H12B 1883   6.031   5.160   5.643 -1.9008  0.7110 -1.1012
   26CHL1   C11 1884   5.986   5.000   5.779 -0.6576  0.6596 -0.1775
   26CHL1  H11A 1885   6.007   4.891   5.773  2.5707  1.1050  0.8928
   26CHL1  H11B 1886   6.077   5.032   5.835 -1.3558 -2.3756  3.0078
   26CHL1    C9 1887   5.863   5.050   5.853 -0.4832 -0.1515 -0.1717
   26CHL1    H9 1888   5.889   5.152   5.889 -2.1416 -0.1266  1.0810
   26CHL1   C10 1889   5.825   4.959   5.979 -0.0072 -0.4692  0.6543
   26CHL1   C19 1890   5.784   4.819   5.936 -0.1969  0.0751 -0.2147
   26CHL1  H19A 1891   5.721   4.814   5.844 -0.2470 -0.8425 -0.1422
   26CHL1  H19B 1892   5.874   4.755   5.922 -0.7043 -0.4108 -1.4658
   26CHL1  H19C 1893   5.728   4.763   6.013 -0.3969 -1.3814 -1.3694
   26CHL1    C1 1894   5.949   4.957   6.068 -0.7729 -0.0761 -0.4965
   26CHL1   H1A 1895   6.018   4.888   6.016 -1.0676  0.1142 -1.1576
   26CHL1   H1B 1896   6.002   5.055   6.070  1.7939 -1.3376 -2.1455
   26CHL1    C2 1897   5.920   4.907   6.212  0.0713  0.4450  0.4582
   26CHL1   H2A 1898   6.004   4.923   6.283  1.1867  0.6018 -0.8420
   26CHL1   H2B 1899   5.901   4.798   6.215  1.6099  0.1413  0.1743
   26CHL1   C20 1900   5.945   5.078   5.288 -0.1243 -0.3069  0.1522
   26CHL1   H20 1901   5.889   4.984   5.270 -1.3501  0.2930  0.7085
   26CHL1   C21 1902   6.097   5.060   5.305 -0.8782 -0.9070 -0.8096
   26CHL1  H21A 1903   6.148   5.159   5.310 -3.0971  0.2619 -0.2885
   26CHL1  H21B 1904   6.147   5.013   5.218  1.4584 -0.7540  0.3468
   26CHL1  H21C 1905   6.134   5.001   5.392  1.1469  0.3994 -0.6998
   26CHL1   C22 1906   5.911   5.162   5.162 -0.3873  0.1819  0.1583
   26CHL1  H22A 1907   5.803   5.147   5.138  0.2509 -3.1008 -1.1653
   26CHL1  H22B 1908   5.921   5.270   5.184  0.4573 -0.1206  1.3239
   26CHL1   C23 1909   5.979   5.109   5.041  0.2962  0.0034  0.3185
   26CHL1  H23A 1910   6.088   5.127   5.049 -0.1310  1.9445  2.6907
   26CHL1  H23B 1911   5.949   5.003   5.027  1.5045 -0.3387  0.2333
   26CHL1   C24 1912   5.939   5.180   4.909  0.5743 -0.1866 -0.2615
   26CHL1  H24A 1913   5.831   5.165   4.890  0.2605 -0.6236  1.7006
   26CHL1  H24B 1914   5.967   5.287   4.921  3.7356 -1.0080  0.6387
   26CHL1   C25 1915   6.019   5.132   4.785 -0.1848  0.4736  0.2094
   26CHL1   H25 1916   6.031   5.022   4.793  0.3152  0.3667 -1.6552
   26CHL1   C26 1917   5.960   5.188   4.659  0.1722  0.1699 -0.1368
   26CHL1  H26A 1918   5.943   5.298   4.663 -0.9151  0.0284 -0.4868
   26CHL1  H26B 1919   6.005   5.155   4.562  2.2789 -1.5792  1.3427
   26CHL1  H26C 1920   5.859   5.145   4.643  0.8134 -0.8668 -1.6034
   26CHL1   C27 1921   6.163   5.192   4.789  0.6050 -0.6891 -0.5438
   26CHL1  H27A 1922   6.235   5.156   4.712  0.0097 -0.0023 -1.4410
   26CHL1  H27B 1923   6.151   5.303   4.785 -0.3683 -0.7361  0.6273
   26CHL1  H27C 1924   6.212   5.172   4.887 -0.2459  0.2790  0.1086
   27CHL1    C3 1925   3.831   6.269   6.174 -0.8653  0.1781  0.3182
   27CHL1    H3 1926   3.731   6.318   6.171 -0.2399  1.4506 -0.0860
   27CHL1    O3 1927   3.885   6.275   6.304 -0.1153  0.3200 -0.0261
   27CHL1   H3' 1928   3.942   6.199   6.309  0.3272  0.5518 -1.2568
   27CHL1    C4 1929   3.795   6.115   6.143 -0.6125  0.1566 -0.4675
   27CHL1   H4A 1930   3.881   6.053   6.176 -1.1699 -1.1048 -1.2809
   27CHL1   H4B 1931   3.715   6.087   6.216  1.2431 -0.2490  1.4949
   27CHL1    C5 1932   3.759   6.090   6.000 -0.1503 -0.2731  0.0640
   27CHL1    C6 1933   3.649   6.031   5.967  0.1371 -0.2257 -0.5456
   27CHL1    H6 1934   3.582   5.997   6.048  0.3529  1.0319  0.1782
   27CHL1    C7 1935   3.595   6.008   5.826  0.0549  0.4380  0.7711
   27CHL1   H7A 1936   3.549   5.908   5.810 -1.3685  1.0059  1.1891
   27CHL1   H7B 1937   3.527   6.090   5.795  0.4717  0.4564 -0.1404
   27CHL1    C8 1938   3.708   6.021   5.726 -0.3282  0.8220  0.6834
   27CHL1    H8 1939   3.785   5.941   5.739 -0.0460  1.4967  4.2282
   27CHL1   C14 1940   3.647   6.022   5.585 -0.9456  1.1015  0.6223
   27CHL1   H14 1941   3.585   6.114   5.571  1.3716  2.4302 -1.8324
   27CHL1   C15 1942   3.542   5.917   5.546 -0.4886  0.2005  0.1662
   27CHL1  H15A 1943   3.569   5.818   5.589 -2.1303 -0.1626  0.4111
   27CHL1  H15B 1944   3.442   5.954   5.576 -0.1205  0.5877  0.9527
   27CHL1   C16 1945   3.551   5.917   5.391 -0.4484  0.0432 -0.1624
   27CHL1  H16A 1946   3.572   5.812   5.361 -1.5580  0.2541 -1.7546
   27CHL1  H16B 1947   3.456   5.947   5.342  0.0407  1.2860 -0.3784
   27CHL1   C17 1948   3.661   6.012   5.348 -0.3405  0.5615  0.7636
   27CHL1   H17 1949   3.617   6.113   5.332 -1.8454 -0.0529  0.8370
   27CHL1   C13 1950   3.751   6.026   5.472 -1.0006 -0.1823 -1.2959
   27CHL1   C18 1951   3.855   5.908   5.470  0.2889 -0.0869  0.3005
   27CHL1  H18A 1952   3.933   5.920   5.392  0.1165 -0.0719  0.1290
   27CHL1  H18B 1953   3.902   5.892   5.570 -0.4112 -1.7208  0.4078
   27CHL1  H18C 1954   3.806   5.809   5.456 -1.7951  0.4171  2.9408
   27CHL1   C12 1955   3.818   6.166   5.494 -0.2605 -0.0082  0.0511
   27CHL1  H12A 1956   3.892   6.194   5.416 -0.8080  1.1201 -0.0850
   27CHL1  H12B 1957   3.736   6.240   5.487 -0.3895 -0.2777 -3.0153
   27CHL1   C11 1958   3.888   6.190   5.633 -0.3704  0.3904  0.1916
   27CHL1  H11A 1959   3.981   6.129   5.630  1.3646  2.7765  1.4215
   27CHL1  H11B 1960   3.928   6.294   5.632 -1.5061  0.8648  1.2589
   27CHL1    C9 1961   3.791   6.152   5.750 -0.0840 -0.1223  0.2113
   27CHL1    H9 1962   3.718   6.236   5.739 -0.5815 -0.4869  0.6567
   27CHL1   C10 1963   3.849   6.150   5.893  0.3030 -0.1683 -0.2485
   27CHL1   C19 1964   3.982   6.075   5.897  0.0267 -0.0038 -0.1876
   27CHL1  H19A 1965   4.045   6.109   5.812 -1.5830 -0.1186 -1.4742
   27CHL1  H19B 1966   4.036   6.078   5.994  1.2160 -2.1186 -0.7265
   27CHL1  H19C 1967   3.955   5.968   5.885 -0.1548 -0.1577  1.4057
   27CHL1    C1 1968   3.876   6.299   5.932 -0.0074  0.9095  0.3780
   27CHL1   H1A 1969   3.946   6.342   5.858  1.9314  0.5794  1.9365
   27CHL1   H1B 1970   3.780   6.356   5.933  0.1954  1.3297  2.5608
   27CHL1    C2 1971   3.925   6.327   6.079 -0.7278 -0.2830 -0.7759
   27CHL1   H2A 1972   3.949   6.434   6.093  0.0717 -0.5074 -0.3522
   27CHL1   H2B 1973   4.026   6.279   6.083 -0.0770  1.0994  1.6552
   27CHL1   C20 1974   3.728   5.969   5.214 -0.4878  0.2062  0.0251
   27CHL1   H20 1975   3.773   5.868   5.226  0.3877  0.7124  1.2655
   27CHL1   C21 1976   3.840   6.068   5.171  0.1484 -0.1100  0.4161
   27CHL1  H21A 1977   3.798   6.170   5.167 -0.5233 -0.3500  1.1322
   27CHL1  H21B 1978   3.884   6.054   5.070 -0.2487  0.8330  0.0997
   27CHL1  H21C 1979   3.927   6.075   5.241  0.0898 -0.9234  0.5902
   27CHL1   C22 1980   3.633   5.955   5.101 -0.1185 -1.0634  0.6460
   27CHL1  H22A 1981   3.533   5.923   5.139  0.8254 -3.0233  1.6682
   27CHL1  H22B 1982   3.624   6.052   5.048  2.0306 -1.8890 -1.3882
   27CHL1   C23 1983   3.692   5.869   4.984 -0.6470 -0.3918 -0.1888
   27CHL1  H23A 1984   3.753   5.936   4.921 -2.1639  1.1058 -0.1485
   27CHL1  H23B 1985   3.750   5.785   5.028 -0.3357 -0.1138 -0.0601
   27CHL1   C24 1986   3.577   5.818   4.893  0.1705 -0.2832 -0.0519
   27CHL1  H24A 1987   3.517   5.752   4.959  0.3544 -0.7565 -0.3530
   27CHL1  H24B 1988   3.513   5.904   4.863  0.5625  1.4636  3.6076
   27CHL1   C25 1989   3.623   5.733   4.769 -0.2510  0.4086  0.2557
   27CHL1   H25 1990   3.534   5.736   4.703 -0.3198  1.1471  0.3744
   27CHL1   C26 1991   3.739   5.795   4.690  0.2199  0.0353  0.2297
   27CHL1  H26A 1992   3.830   5.793   4.753  1.3620 -0.2565 -1.3686
   27CHL1  H26B 1993   3.763   5.735   4.600 -0.5744  0.1372 -0.0628
   27CHL1  H26C 1994   3.718   5.901   4.664  0.7394  0.8520  2.8301
   27CHL1   C27 1995   3.663   5.595   4.808 -0.4318  0.0069  0.2383
   27CHL1  H27A 1996   3.574   5.544   4.851  0.5948 -0.5539  1.8023
   27CHL1  H27B 1997   3.694   5.530   4.724  0.0405  0.6851 -0.1193
   27CHL1  H27C 1998   3.749   5.604   4.877  1.2571 -0.5648 -1.6995
   28CHL1    C3 1999   3.831   1.008   5.889  0.7108  0.3165 -0.2676
   28CHL1    H3 2000   3.928   0.990   5.838  0.4425  0.3969 -0.8172
   28CHL1    O3 2001   3.848   1.051   6.023  0.1394 -0.2946 -0.4496
   28CHL1   H3' 2002   3.756   1.055   6.049 -0.2382 -3.2818 -0.9290
   28CHL1    C4 2003   3.764   1.116   5.806  0.5675  0.3480  0.0203
   28CHL1   H4A 2004   3.659   1.131   5.842  0.2230 -0.3339 -0.6639
   28CHL1   H4B 2005   3.816   1.213   5.816  0.1652  0.5372  0.3242
   28CHL1    C5 2006   3.747   1.084   5.653 -0.2862  0.1534  0.5183
   28CHL1    C6 2007   3.797   1.162   5.557  0.3719 -0.2931  0.5535
   28CHL1    H6 2008   3.859   1.249   5.586  1.4911 -0.1982 -1.8407
   28CHL1    C7 2009   3.780   1.128   5.409 -0.2470 -0.3953 -0.0552
   28CHL1   H7A 2010   3.743   1.213   5.348 -0.5431  0.2626  1.0332
   28CHL1   H7B 2011   3.884   1.102   5.379 -0.1596  1.5317 -1.6030
   28CHL1    C8 2012   3.683   1.006   5.372 -0.5630 -0.0867 -0.1341
   28CHL1    H8 2013   3.581   1.050   5.375 -0.2703  0.5453  1.2309
   28CHL1   C14 2014   3.714   0.947   5.239 -0.0822 -0.2063  0.0318
   28CHL1   H14 2015   3.818   0.907   5.240 -1.4428 -4.4058 -1.8350
   28CHL1   C15 2016   3.705   1.052   5.126 -0.7755  0.4200 -0.6423
   28CHL1  H15A 2017   3.614   1.115   5.138 -1.8287 -1.2536  0.6011
   28CHL1  H15B 2018   3.795   1.116   5.122 -0.2199 -0.1487  1.5607
   28CHL1   C16 2019   3.700   0.963   5.005  0.5498 -0.4674 -0.1644
   28CHL1  H16A 2020   3.607   0.991   4.953  1.9809  2.3778 -1.4018
   28CHL1  H16B 2021   3.789   0.983   4.941 -0.8042 -1.7448 -2.6104
   28CHL1   C17 2022   3.675   0.815   5.049 -0.3586 -0.2589 -0.1520
   28CHL1   H17 2023   3.781   0.782   5.054 -0.1322  0.3626 -0.6718
   28CHL1   C13 2024   3.635   0.823   5.202  0.1990 -0.7244 -0.0249
   28CHL1   C18 2025   3.484   0.856   5.202 -1.2454 -0.9863  0.4572
   28CHL1  H18A 2026   3.430   0.884   5.295 -0.7509 -2.1074  1.0963
   28CHL1  H18B 2027   3.470   0.943   5.134 -0.8462 -2.2466 -1.3140
   28CHL1  H18C 2028   3.414   0.773   5.176  0.9520 -2.3984 -1.2924
   28CHL1   C12 2029   3.675   0.707   5.294  0.1996  0.5870  0.1353
   28CHL1  H12A 2030   3.618   0.612   5.286 -0.3659  0.8613  0.8112
   28CHL1  H12B 2031   3.784   0.692   5.280  0.1187 -0.9687  1.0076
   28CHL1   C11 2032   3.650   0.751   5.443  0.2046 -0.2775  0.3280
   28CHL1  H11A 2033   3.539   0.755   5.451  0.2175 -0.2557  0.5032
   28CHL1  H11B 2034   3.692   0.677   5.514  3.2348  2.0595  1.1985
   28CHL1    C9 2035   3.703   0.902   5.479  0.1908  0.3561 -0.1379
   28CHL1    H9 2036   3.812   0.882   5.468 -0.0245 -0.0215 -1.8455
   28CHL1   C10 2037   3.678   0.946   5.628 -0.1593  0.0591  0.9615
   28CHL1   C19 2038   3.520   0.959   5.647 -0.4686 -0.3538  0.2286
   28CHL1  H19A 2039   3.481   1.031   5.572  1.6970 -1.1467 -1.8155
   28CHL1  H19B 2040   3.470   0.860   5.633 -1.1460  0.0764 -0.4396
   28CHL1  H19C 2041   3.501   0.987   5.752  1.1773 -1.8785  0.9998
   28CHL1    C1 2042   3.735   0.835   5.728 -0.1331  0.2655  0.1643
   28CHL1   H1A 2043   3.665   0.749   5.736 -0.2471  0.4276  1.0516
   28CHL1   H1B 2044   3.834   0.797   5.695  0.1870 -0.1093  1.4781
   28CHL1    C2 2045   3.744   0.884   5.881  0.1799  0.6859  0.1919
   28CHL1   H2A 2046   3.793   0.806   5.944 -0.4754  0.0126 -0.1235
   28CHL1   H2B 2047   3.645   0.907   5.925 -0.1804  2.8338 -1.6085
   28CHL1   C20 2048   3.596   0.733   4.942  0.0390 -0.1420 -0.3262
   28CHL1   H20 2049   3.494   0.778   4.946  0.5791  1.0375  1.1784
   28CHL1   C21 2050   3.606   0.587   4.979 -0.4767  0.0715  0.7595
   28CHL1  H21A 2051   3.542   0.521   4.916  1.4334 -0.2536 -0.9235
   28CHL1  H21B 2052   3.585   0.571   5.087  1.1889  1.4621  1.3418
   28CHL1  H21C 2053   3.710   0.550   4.967 -0.3462  0.8825 -0.8667
   28CHL1   C22 2054   3.652   0.753   4.805  0.6360  0.2635 -0.2206
   28CHL1  H22A 2055   3.645   0.858   4.771  2.7044  0.5474  0.0592
   28CHL1  H22B 2056   3.760   0.725   4.801 -0.1286 -3.0628 -4.1987
   28CHL1   C23 2057   3.591   0.668   4.701  0.3929  0.0013 -0.3414
   28CHL1  H23A 2058   3.619   0.562   4.721 -1.1745 -0.2510  0.7812
   28CHL1  H23B 2059   3.480   0.667   4.714  0.5365 -1.6444  1.3507
   28CHL1   C24 2060   3.632   0.711   4.567  0.0569 -0.1347 -0.5461
   28CHL1  H24A 2061   3.573   0.801   4.539  0.0773  0.5087  1.3705
   28CHL1  H24B 2062   3.741   0.732   4.565  0.1539 -0.6577 -1.4625
   28CHL1   C25 2063   3.606   0.604   4.456 -0.2493  0.6934 -0.0595
   28CHL1   H25 2064   3.675   0.520   4.481 -0.1483  0.8704  0.2521
   28CHL1   C26 2065   3.454   0.560   4.456 -0.0012  0.4431 -0.1411
   28CHL1  H26A 2066   3.380   0.639   4.432  0.4932  0.1313 -3.0202
   28CHL1  H26B 2067   3.437   0.491   4.371 -1.0104 -0.0698  0.4555
   28CHL1  H26C 2068   3.427   0.505   4.549 -1.4088 -1.2154 -1.4648
   28CHL1   C27 2069   3.639   0.668   4.322  0.3295 -0.5086  0.2155
   28CHL1  H27A 2070   3.565   0.749   4.302  0.2219 -0.6443  0.0589
   28CHL1  H27B 2071   3.745   0.703   4.322  0.3330 -0.4243  2.4479
   28CHL1  H27C 2072   3.635   0.604   4.231  4.7890 -0.1448 -0.5040
   29CHL1    C3 2073   1.413   6.424   2.717 -0.0254  0.7911  0.2969
   29CHL1    H3 2074   1.380   6.530   2.723 -3.1757 -0.1369  3.0537
   29CHL1    O3 2075   1.452   6.393   2.578  0.4251  0.3000 -0.0863
   29CHL1   H3' 2076   1.527   6.452   2.566  0.7122  0.5194  2.2864
   29CHL1    C4 2077   1.537   6.409   2.804 -1.0406  0.3720 -0.3504
   29CHL1   H4A 2078   1.576   6.305   2.801 -0.2462  0.3351  3.9158
   29CHL1   H4B 2079   1.615   6.476   2.762 -0.0834 -1.5280 -1.7707
   29CHL1    C5 2080   1.502   6.429   2.952  0.4345  0.0898 -0.1016
   29CHL1    C6 2081   1.568   6.520   3.021  0.0840 -0.5893  0.0706
   29CHL1    H6 2082   1.641   6.580   2.965 -1.9720  1.7969 -0.2175
   29CHL1    C7 2083   1.549   6.549   3.169  0.1372 -0.4144 -0.0917
   29CHL1   H7A 2084   1.646   6.538   3.222  1.1034 -0.6226 -1.8194
   29CHL1   H7B 2085   1.503   6.648   3.187  1.0094 -0.2292  1.2492
   29CHL1    C8 2086   1.462   6.430   3.237  0.2727  0.2044  0.0365
   29CHL1    H8 2087   1.531   6.342   3.242 -0.3148 -0.2919 -0.4236
   29CHL1   C14 2088   1.423   6.485   3.371  0.8042  0.4312 -0.0687
   29CHL1   H14 2089   1.358   6.572   3.347  0.2814  0.6798  2.0568
   29CHL1   C15 2090   1.521   6.537   3.468 -0.2029 -0.1663  0.5442
   29CHL1  H15A 2091   1.609   6.469   3.474  0.7775  0.9915 -0.1588
   29CHL1  H15B 2092   1.566   6.634   3.438 -0.8632 -0.6380 -2.1862
   29CHL1   C16 2093   1.440   6.538   3.602  0.1999 -0.7712 -0.6054
   29CHL1  H16A 2094   1.501   6.507   3.689 -2.4836 -0.8441  1.3862
   29CHL1  H16B 2095   1.421   6.646   3.621  5.0553  0.4064 -1.1150
   29CHL1   C17 2096   1.304   6.465   3.575 -0.1401  0.7317  0.4552
   29CHL1   H17 2097   1.227   6.539   3.547  0.0037  0.7276  0.0371
   29CHL1   C13 2098   1.335   6.385   3.450  0.3630 -0.3836  0.1807
   29CHL1   C18 2099   1.417   6.257   3.492  0.2413  0.4039  0.2910
   29CHL1  H18A 2100   1.342   6.185   3.532 -0.2569  0.5438 -0.3811
   29CHL1  H18B 2101   1.469   6.214   3.403  1.9282 -1.2537  1.9750
   29CHL1  H18C 2102   1.496   6.275   3.568  0.6533  0.8927 -0.2517
   29CHL1   C12 2103   1.210   6.351   3.355 -0.2089  0.3399  0.0509
   29CHL1  H12A 2104   1.133   6.285   3.400  3.2688 -2.9398  1.8681
   29CHL1  H12B 2105   1.153   6.441   3.324  0.6042  0.8090 -0.1177
   29CHL1   C11 2106   1.252   6.295   3.217 -0.2063  0.0193 -0.6625
   29CHL1  H11A 2107   1.296   6.194   3.233  0.6061  0.4941  0.2411
   29CHL1  H11B 2108   1.165   6.280   3.149 -0.1179 -0.3257 -0.7037
   29CHL1    C9 2109   1.344   6.391   3.146  0.0998 -0.0192 -0.1274
   29CHL1    H9 2110   1.287   6.485   3.131 -1.5614 -1.4140 -3.7028
   29CHL1   C10 2111   1.388   6.340   3.009  0.0546 -0.5616  0.4938
   29CHL1   C19 2112   1.449   6.198   3.028 -0.5824 -0.3300 -0.3756
   29CHL1  H19A 2113   1.364   6.128   3.046 -0.5117 -0.0162  1.3662
   29CHL1  H19B 2114   1.492   6.159   2.934  1.1778  0.3525  0.0995
   29CHL1  H19C 2115   1.510   6.186   3.120 -1.0477  0.9507  0.1271
   29CHL1    C1 2116   1.265   6.345   2.912 -0.2627  0.5743  0.4140
   29CHL1   H1A 2117   1.175   6.282   2.928 -0.0766  0.5210  1.3015
   29CHL1   H1B 2118   1.237   6.452   2.905 -1.5035  0.3839  1.7933
   29CHL1    C2 2119   1.301   6.325   2.763  0.2859 -0.4618 -0.5212
   29CHL1   H2A 2120   1.215   6.349   2.698 -0.1854 -0.3558  0.1233
   29CHL1   H2B 2121   1.334   6.221   2.744 -0.0559 -0.9666  1.3825
   29CHL1   C20 2122   1.254   6.404   3.702 -0.2251 -0.5685  0.3177
   29CHL1   H20 2123   1.336   6.340   3.739  2.2266  1.2458 -1.6264
   29CHL1   C21 2124   1.124   6.315   3.673 -0.2722 -0.0148 -0.6549
   29CHL1  H21A 2125   1.081   6.282   3.770  1.1865 -2.1294 -0.6456
   29CHL1  H21B 2126   1.147   6.220   3.619 -2.0459 -0.1371 -1.2850
   29CHL1  H21C 2127   1.042   6.366   3.619 -0.5618 -0.5810 -0.7648
   29CHL1   C22 2128   1.209   6.519   3.794 -0.5162  0.4259 -0.1588
   29CHL1  H22A 2129   1.288   6.596   3.803  2.2680 -2.1430 -0.9121
   29CHL1  H22B 2130   1.117   6.564   3.751 -2.0936 -1.6488  0.8930
   29CHL1   C23 2131   1.163   6.469   3.932  0.0801  0.4175 -0.6677
   29CHL1  H23A 2132   1.134   6.553   3.998 -1.6495 -1.3040  0.8993
   29CHL1  H23B 2133   1.065   6.421   3.912 -0.0417  1.1507 -1.9697
   29CHL1   C24 2134   1.260   6.369   4.002 -0.2016 -0.2123 -0.5972
   29CHL1  H24A 2135   1.215   6.351   4.102  0.7457 -2.3861 -0.5176
   29CHL1  H24B 2136   1.272   6.266   3.962  1.5127  0.1474 -1.0838
   29CHL1   C25 2137   1.403   6.420   4.023 -0.2496 -1.1043  0.3215
   29CHL1   H25 2138   1.428   6.471   3.927 -1.4104 -4.4178 -1.9293
   29CHL1   C26 2139   1.398   6.529   4.133  0.3026  0.0950  0.5178
   29CHL1  H26A 2140   1.306   6.588   4.115 -0.2810 -0.8591  0.3041
   29CHL1  H26B 2141   1.373   6.476   4.227 -2.8548 -2.2959 -1.4691
   29CHL1  H26C 2142   1.488   6.594   4.132 -1.2516  2.3772 -1.1275
   29CHL1   C27 2143   1.502   6.313   4.047 -0.4016 -0.7044 -1.0764
   29CHL1  H27A 2144   1.605   6.351   4.060  0.8057 -4.1697  0.7479
   29CHL1  H27B 2145   1.480   6.273   4.148 -0.1844  1.2768 -0.1887
   29CHL1  H27C 2146   1.506   6.235   3.969  0.1800 -1.6528 -0.1196
   30CHL1    C3 2147   4.404   2.190   3.126  0.0717 -0.3292 -0.3049
   30CHL1    H3 2148   4.352   2.092   3.129 -0.0156 -0.2621  1.6136
   30CHL1    O3 2149   4.421   2.223   2.987 -0.1414  0.8862 -0.0641
   30CHL1   H3' 2150   4.511   2.251   2.972  0.6654 -1.2072  0.4684
   30CHL1    C4 2151   4.319   2.298   3.195 -0.6968 -0.2367 -0.1213
   30CHL1   H4A 2152   4.362   2.395   3.163 -0.6736 -0.3553 -0.4594
   30CHL1   H4B 2153   4.220   2.295   3.145 -0.8913  2.2524 -0.0148
   30CHL1    C5 2154   4.319   2.295   3.349  0.3215 -1.3851  0.0541
   30CHL1    C6 2155   4.210   2.302   3.428  0.0676 -1.1845  0.3145
   30CHL1    H6 2156   4.112   2.313   3.381  1.1893 -0.8937 -2.0677
   30CHL1    C7 2157   4.207   2.299   3.579  0.2007  0.0497 -0.5008
   30CHL1   H7A 2158   4.141   2.379   3.619  0.0812 -0.3395  0.0950
   30CHL1   H7B 2159   4.159   2.205   3.614  2.3912 -0.1991  2.2190
   30CHL1    C8 2160   4.342   2.311   3.647  0.3044  0.1972  0.5772
   30CHL1    H8 2161   4.365   2.419   3.659 -0.0216  0.3666 -0.2459
   30CHL1   C14 2162   4.345   2.251   3.791 -0.1445  0.2975  0.0176
   30CHL1   H14 2163   4.337   2.140   3.792  0.7114  0.2189  1.1481
   30CHL1   C15 2164   4.221   2.293   3.882 -0.4656 -0.1094 -0.0469
   30CHL1  H15A 2165   4.214   2.404   3.885 -2.4909 -0.2121  1.1420
   30CHL1  H15B 2166   4.125   2.250   3.846  0.1612 -1.5309 -0.0661
   30CHL1   C16 2167   4.266   2.242   4.021 -0.1755 -0.0972 -0.5731
   30CHL1  H16A 2168   4.252   2.311   4.107 -0.0007  1.2811 -1.6153
   30CHL1  H16B 2169   4.207   2.149   4.032  1.0434 -1.0091 -1.5077
   30CHL1   C17 2170   4.427   2.210   4.007 -0.2964 -0.0538  0.3795
   30CHL1   H17 2171   4.423   2.102   3.983 -1.4468  0.3427 -1.3593
   30CHL1   C13 2172   4.478   2.279   3.872  0.1404  0.1319 -0.3395
   30CHL1   C18 2173   4.511   2.425   3.899  0.0350 -0.0254 -0.1025
   30CHL1  H18A 2174   4.593   2.440   3.972 -1.8236  1.2804  1.8308
   30CHL1  H18B 2175   4.526   2.472   3.799 -2.0704 -2.5387 -1.7157
   30CHL1  H18C 2176   4.431   2.482   3.951  1.0995  0.6071  0.8967
   30CHL1   C12 2177   4.589   2.210   3.796 -0.1879  0.0740  0.2010
   30CHL1  H12A 2178   4.692   2.236   3.827  0.1962 -0.2227 -0.7707
   30CHL1  H12B 2179   4.571   2.100   3.794 -1.1546  0.2296 -0.3954
   30CHL1   C11 2180   4.594   2.249   3.640 -0.0241  0.2694  0.7656
   30CHL1  H11A 2181   4.638   2.351   3.646 -0.1135  0.3372  0.3021
   30CHL1  H11B 2182   4.667   2.174   3.603 -1.2334 -0.6837  0.2702
   30CHL1    C9 2183   4.456   2.238   3.568 -0.5449  0.0653 -0.6100
   30CHL1    H9 2184   4.436   2.128   3.572  1.2973 -0.3225 -1.0282
   30CHL1   C10 2185   4.455   2.278   3.416 -0.1502 -0.2424  0.1438
   30CHL1   C19 2186   4.536   2.407   3.402 -0.9199 -0.9392 -0.1931
   30CHL1  H19A 2187   4.482   2.481   3.465  0.7030 -0.2115  0.3859
   30CHL1  H19B 2188   4.643   2.390   3.429 -0.4225 -0.0234 -1.5046
   30CHL1  H19C 2189   4.528   2.448   3.299 -0.2043  1.5010  0.6451
   30CHL1    C1 2190   4.523   2.161   3.338 -0.1162 -0.8842 -0.1037
   30CHL1   H1A 2191   4.624   2.158   3.384 -0.4846 -1.0948  0.6953
   30CHL1   H1B 2192   4.475   2.062   3.355 -0.6401 -0.4336  1.1184
   30CHL1    C2 2193   4.537   2.183   3.192 -0.3547 -0.4232  0.7836
   30CHL1   H2A 2194   4.585   2.099   3.138  0.1136  1.1393 -1.3946
   30CHL1   H2B 2195   4.600   2.272   3.170 -1.6141  0.3688  0.2812
   30CHL1   C20 2196   4.500   2.219   4.137  0.0889 -0.3061 -0.5798
   30CHL1   H20 2197   4.512   2.322   4.176  0.6572 -0.9327  1.0014
   30CHL1   C21 2198   4.638   2.174   4.118  0.7564  0.4094  0.2343
   30CHL1  H21A 2199   4.694   2.226   4.038 -1.0691  0.1929 -1.2455
   30CHL1  H21B 2200   4.646   2.066   4.095  1.0011  0.7418 -1.3122
   30CHL1  H21C 2201   4.692   2.182   4.215  0.2467  0.3590  0.5251
   30CHL1   C22 2202   4.432   2.137   4.249  0.1984  0.2108 -0.2260
   30CHL1  H22A 2203   4.326   2.169   4.257  0.4813  0.8966  0.9983
   30CHL1  H22B 2204   4.435   2.028   4.227 -3.4857  0.0824 -0.6650
   30CHL1   C23 2205   4.487   2.165   4.391 -0.0468 -0.3030  0.0100
   30CHL1  H23A 2206   4.586   2.116   4.404  1.0606  1.7974 -0.0604
   30CHL1  H23B 2207   4.504   2.275   4.394  1.9112 -0.5786  1.3159
   30CHL1   C24 2208   4.402   2.123   4.510 -0.0609 -0.0357  0.5756
   30CHL1  H24A 2209   4.439   2.174   4.601 -0.2003 -0.5711  0.9377
   30CHL1  H24B 2210   4.296   2.156   4.500 -0.4301 -0.5568  2.3754
   30CHL1   C25 2211   4.396   1.967   4.533 -0.2170  0.0632  0.4408
   30CHL1   H25 2212   4.349   1.928   4.441  1.9222 -0.2928 -0.5628
   30CHL1   C26 2213   4.537   1.893   4.529  0.1316 -0.2311 -0.1721
   30CHL1  H26A 2214   4.576   1.916   4.630  0.3259  0.2364 -0.3502
   30CHL1  H26B 2215   4.525   1.783   4.526  0.4160 -0.3243  1.2046
   30CHL1  H26C 2216   4.599   1.918   4.441 -0.0164 -2.5865 -1.0006
   30CHL1   C27 2217   4.312   1.920   4.658  0.7686 -0.3260  0.7192
   30CHL1  H27A 2218   4.205   1.944   4.644  0.8287  0.4319  1.5109
   30CHL1  H27B 2219   4.303   1.810   4.671 -1.3790 -1.0537 -4.6102
   30CHL1  H27C 2220   4.342   1.956   4.759  1.0872 -0.9201  0.8434
   31CHL1    C3 2221   5.230   2.201   3.187  0.3055  0.3837 -0.3324
   31CHL1    H3 2222   5.336   2.165   3.187  0.5247  0.9816 -1.6710
   31CHL1    O3 2223   5.210   2.265   3.061 -0.4501 -0.3777 -0.2036
   31CHL1   H3' 2224   5.197   2.196   2.995 -0.5750 -0.1313 -0.4366
   31CHL1    C4 2225   5.135   2.080   3.215  0.2783 -0.0417  0.9190
   31CHL1   H4A 2226   5.029   2.111   3.206 -0.5610 -1.9627  3.1022
   31CHL1   H4B 2227   5.151   2.000   3.139  3.2718 -1.4952  2.8739
   31CHL1    C5 2228   5.150   2.022   3.353 -0.1235  0.6699 -0.8352
   31CHL1    C6 2229   5.184   1.902   3.379  0.5275 -0.1242  0.8344
   31CHL1    H6 2230   5.195   1.838   3.291  1.6198  0.3408  0.6149
   31CHL1    C7 2231   5.188   1.841   3.513  0.1499  0.6057  0.6311
   31CHL1   H7A 2232   5.128   1.748   3.506  0.2419  0.6529 -2.5305
   31CHL1   H7B 2233   5.289   1.800   3.536 -0.0972  0.1416  0.9080
   31CHL1    C8 2234   5.130   1.926   3.629 -0.1775  0.4180  0.1920
   31CHL1    H8 2235   5.021   1.908   3.614 -0.2770  1.0609  0.1255
   31CHL1   C14 2236   5.172   1.870   3.767 -0.7432  0.5778 -0.8941
   31CHL1   H14 2237   5.282   1.882   3.764 -0.3847 -2.0638 -0.2512
   31CHL1   C15 2238   5.156   1.725   3.797 -0.1317 -0.5633  0.9548
   31CHL1  H15A 2239   5.068   1.690   3.738  1.7468 -1.9997 -1.1474
   31CHL1  H15B 2240   5.256   1.681   3.775 -0.9723 -2.1298  0.0132
   31CHL1   C16 2241   5.133   1.721   3.951 -0.6106 -0.1695  0.1694
   31CHL1  H16A 2242   5.030   1.692   3.981  0.0327 -0.3722  2.3487
   31CHL1  H16B 2243   5.193   1.639   3.996  0.2507  0.8293  0.9008
   31CHL1   C17 2244   5.160   1.867   4.002 -0.7663  0.2960 -0.0070
   31CHL1   H17 2245   5.269   1.882   4.010 -0.7446  0.0142  0.2346
   31CHL1   C13 2246   5.116   1.957   3.883  0.5159 -0.2974  0.6693
   31CHL1   C18 2247   4.955   1.955   3.865 -0.2755 -0.2532  0.0105
   31CHL1  H18A 2248   4.918   1.978   3.763 -2.2795 -1.2527  0.4668
   31CHL1  H18B 2249   4.919   1.853   3.890 -0.5504 -0.3562 -0.7894
   31CHL1  H18C 2250   4.913   2.035   3.931  1.3582 -0.2628  1.1173
   31CHL1   C12 2251   5.172   2.098   3.868 -0.2182 -0.1033  0.8461
   31CHL1  H12A 2252   5.147   2.169   3.950 -2.4778 -0.4750  0.5553
   31CHL1  H12B 2253   5.282   2.091   3.881 -0.1057  0.4602  0.2405
   31CHL1   C11 2254   5.134   2.160   3.729  0.0991 -0.7888  0.1733
   31CHL1  H11A 2255   5.026   2.185   3.735  0.2183 -0.4983  1.3361
   31CHL1  H11B 2256   5.191   2.255   3.720  2.1401 -1.9380  0.2192
   31CHL1    C9 2257   5.175   2.068   3.608  0.2076 -0.0062  0.5507
   31CHL1    H9 2258   5.285   2.060   3.618  0.2856 -0.3754 -0.4811
   31CHL1   C10 2259   5.137   2.124   3.459 -0.6307 -0.3803 -0.7650
   31CHL1   C19 2260   4.999   2.172   3.464  0.1661 -0.0021 -0.4647
   31CHL1  H19A 2261   4.921   2.093   3.470  0.1581  0.0386 -0.0477
   31CHL1  H19B 2262   4.985   2.248   3.543 -0.5685  1.1826 -1.6788
   31CHL1  H19C 2263   4.974   2.231   3.373  1.9527  2.4662  0.5347
   31CHL1    C1 2264   5.234   2.250   3.441  0.3018  0.0128 -0.4790
   31CHL1   H1A 2265   5.225   2.319   3.528  1.9488  0.2644 -0.4803
   31CHL1   H1B 2266   5.339   2.216   3.455  0.1591 -0.4134 -0.4226
   31CHL1    C2 2267   5.218   2.309   3.296 -1.2114 -0.0397 -0.5302
   31CHL1   H2A 2268   5.299   2.382   3.277 -1.5748  0.2960 -0.8064
   31CHL1   H2B 2269   5.121   2.363   3.304 -0.6581  1.0122 -0.7812
   31CHL1   C20 2270   5.106   1.909   4.140 -0.0229 -0.0672 -0.5974
   31CHL1   H20 2271   5.002   1.946   4.122  0.1623 -0.0517 -1.7395
   31CHL1   C21 2272   5.196   2.012   4.201  0.1226  0.3610 -0.0978
   31CHL1  H21A 2273   5.235   2.085   4.126 -1.0701  0.4950 -0.6186
   31CHL1  H21B 2274   5.285   1.965   4.247 -0.7279  0.0607  1.2946
   31CHL1  H21C 2275   5.142   2.071   4.278 -2.5943 -2.3752  0.2708
   31CHL1   C22 2276   5.108   1.788   4.239 -0.1143 -0.7472  0.7794
   31CHL1  H22A 2277   5.050   1.700   4.204  1.7167 -1.2709 -1.1210
   31CHL1  H22B 2278   5.208   1.740   4.237  0.0509 -0.4307  1.3721
   31CHL1   C23 2279   5.072   1.826   4.387 -0.3782  0.3735 -0.2225
   31CHL1  H23A 2280   5.165   1.850   4.443 -0.3121 -0.1834 -0.0769
   31CHL1  H23B 2281   5.013   1.919   4.382  0.4058  1.0160  1.7930
   31CHL1   C24 2282   4.998   1.721   4.468 -0.3935  0.0912  0.6205
   31CHL1  H24A 2283   4.903   1.710   4.412 -0.1754  0.2536  0.2140
   31CHL1  H24B 2284   5.049   1.623   4.476 -0.4408 -0.0470 -0.5904
   31CHL1   C25 2285   4.943   1.771   4.603 -0.2346 -0.7742 -0.2303
   31CHL1   H25 2286   4.900   1.871   4.584  2.3857  0.1823 -1.6311
   31CHL1   C26 2287   4.856   1.666   4.666  0.3561  0.5513 -0.1341
   31CHL1  H26A 2288   4.814   1.695   4.764 -2.0013 -0.5577 -0.7528
   31CHL1  H26B 2289   4.762   1.651   4.608 -1.0515 -0.0331  2.1822
   31CHL1  H26C 2290   4.911   1.572   4.688  1.1804  0.7256 -1.3488
   31CHL1   C27 2291   5.049   1.800   4.710 -0.5533 -0.6387 -0.4119
   31CHL1  H27A 2292   4.992   1.848   4.792 -1.6491 -0.3575 -1.3048
   31CHL1  H27B 2293   5.097   1.705   4.743 -0.8018 -0.4569  0.5004
   31CHL1  H27C 2294   5.126   1.873   4.677  0.7653 -1.6744  0.2486
   32CHL1    C3 2295   6.384   0.587   2.861 -0.1530 -0.3938  0.0431
   32CHL1    H3 2296   6.293   0.648   2.844  0.6447  0.5805 -0.8736
   32CHL1    O3 2297   6.452   0.574   2.732  0.1320  0.0087  0.3246
   32CHL1   H3' 2298   6.494   0.657   2.708  0.8269 -0.4061  0.0729
   32CHL1    C4 2299   6.476   0.664   2.955 -0.3237 -0.5235  0.8749
   32CHL1   H4A 2300   6.580   0.627   2.954  0.1268  0.6548  1.6329
   32CHL1   H4B 2301   6.482   0.767   2.913 -0.8503 -0.3247  1.2726
   32CHL1    C5 2302   6.424   0.664   3.102 -0.0305  0.7421 -0.8083
   32CHL1    C6 2303   6.406   0.780   3.165 -0.0958  0.1993 -0.3454
   32CHL1    H6 2304   6.436   0.869   3.109  3.3182 -0.7000 -0.1892
   32CHL1    C7 2305   6.370   0.790   3.311 -0.3701  0.0573 -0.0376
   32CHL1   H7A 2306   6.441   0.866   3.349  0.1406 -0.0509 -0.7616
   32CHL1   H7B 2307   6.263   0.819   3.319 -0.3493  0.9970 -2.3505
   32CHL1    C8 2308   6.388   0.649   3.381  0.6485 -0.7832 -0.8695
   32CHL1    H8 2309   6.497   0.634   3.396  0.3966  0.2834  3.2400
   32CHL1   C14 2310   6.327   0.664   3.519  0.2087 -0.4781 -1.0019
   32CHL1   H14 2311   6.218   0.667   3.498 -0.1982  2.3414  0.9261
   32CHL1   C15 2312   6.364   0.788   3.600 -1.3531  0.1716  0.4824
   32CHL1  H15A 2313   6.473   0.812   3.599 -1.2370 -0.1744  2.2718
   32CHL1  H15B 2314   6.307   0.868   3.548 -1.2075  0.9460  1.4888
   32CHL1   C16 2315   6.314   0.762   3.744 -0.0710  0.1720 -0.4274
   32CHL1  H16A 2316   6.401   0.782   3.810 -1.4380 -2.1409  2.3309
   32CHL1  H16B 2317   6.228   0.825   3.773  0.7421  1.4091 -0.6315
   32CHL1   C17 2318   6.274   0.608   3.743 -0.2767 -1.1312 -0.5451
   32CHL1   H17 2319   6.164   0.600   3.728 -0.8957 -0.3001  2.7203
   32CHL1   C13 2320   6.348   0.550   3.616 -0.3582 -0.6369 -0.2208
   32CHL1   C18 2321   6.500   0.529   3.650  0.5574  1.1190 -0.1626
   32CHL1  H18A 2322   6.558   0.512   3.557 -0.6528  2.3730 -1.1926
   32CHL1  H18B 2323   6.541   0.617   3.703  2.1207 -0.3385  1.1554
   32CHL1  H18C 2324   6.513   0.437   3.711  0.6391  0.9892 -0.3727
   32CHL1   C12 2325   6.288   0.426   3.549 -0.0522  0.7481 -0.6561
   32CHL1  H12A 2326   6.320   0.339   3.611 -2.7486  0.5658  0.6385
   32CHL1  H12B 2327   6.177   0.424   3.538 -0.5467 -0.8894  3.1267
   32CHL1   C11 2328   6.343   0.407   3.403  0.2225 -0.5557 -0.8804
   32CHL1  H11A 2329   6.452   0.390   3.415  0.4247  0.0695 -1.7256
   32CHL1  H11B 2330   6.315   0.310   3.357 -1.6337 -1.2021  1.3953
   32CHL1    C9 2331   6.332   0.524   3.306  0.3356  0.3606 -0.6262
   32CHL1    H9 2332   6.226   0.552   3.292  0.2104  2.2554  2.9086
   32CHL1   C10 2333   6.393   0.523   3.163 -0.0008  0.7112 -0.6207
   32CHL1   C19 2334   6.520   0.438   3.162 -0.2166 -0.6435  0.0456
   32CHL1  H19A 2335   6.504   0.345   3.220  1.7443 -0.4719  0.9653
   32CHL1  H19B 2336   6.562   0.414   3.062  0.3285 -0.9331  0.3374
   32CHL1  H19C 2337   6.597   0.488   3.224 -1.1337  0.8968 -0.0225
   32CHL1    C1 2338   6.286   0.463   3.067 -0.3193 -0.4832  0.7464
   32CHL1   H1A 2339   6.249   0.363   3.097  3.1152 -1.7079  1.3888
   32CHL1   H1B 2340   6.201   0.534   3.069 -0.4746 -0.6771  1.3964
   32CHL1    C2 2341   6.335   0.454   2.919  0.2029  0.4624 -0.8426
   32CHL1   H2A 2342   6.249   0.431   2.852  0.0543  1.1016 -0.8721
   32CHL1   H2B 2343   6.405   0.368   2.906  0.0679  0.1446  0.4021
   32CHL1   C20 2344   6.292   0.544   3.877  0.6222  0.1113 -0.4669
   32CHL1   H20 2345   6.399   0.536   3.905  0.2052  1.5495  1.8616
   32CHL1   C21 2346   6.238   0.397   3.881  0.0071  0.8518  0.5368
   32CHL1  H21A 2347   6.291   0.336   3.804 -2.2760  0.6765 -0.9884
   32CHL1  H21B 2348   6.129   0.394   3.862  0.1621  0.5067 -0.3630
   32CHL1  H21C 2349   6.257   0.346   3.979 -0.2842 -0.0065  0.1578
   32CHL1   C22 2350   6.233   0.628   3.995 -0.5316 -0.1060  0.7205
   32CHL1  H22A 2351   6.297   0.719   4.002  0.2487 -0.4956 -0.9680
   32CHL1  H22B 2352   6.131   0.665   3.972 -0.7042  1.4946  3.5516
   32CHL1   C23 2353   6.244   0.560   4.129 -0.0925  0.3443 -0.3225
   32CHL1  H23A 2354   6.174   0.624   4.187 -0.8183 -0.0220 -0.7791
   32CHL1  H23B 2355   6.203   0.457   4.123  1.2575 -0.1407 -4.4641
   32CHL1   C24 2356   6.385   0.558   4.193 -0.0201 -0.3011 -0.1864
   32CHL1  H24A 2357   6.424   0.473   4.134 -0.9719 -0.0598 -1.2182
   32CHL1  H24B 2358   6.425   0.659   4.167  0.5099  0.0746  1.9283
   32CHL1   C25 2359   6.394   0.521   4.344  0.1332 -0.5819  0.0116
   32CHL1   H25 2360   6.333   0.598   4.395  0.0178 -0.8348  0.2575
   32CHL1   C26 2361   6.319   0.386   4.362 -0.0411  0.0636  0.0177
   32CHL1  H26A 2362   6.319   0.350   4.468  2.7167  1.6243  0.6472
   32CHL1  H26B 2363   6.215   0.407   4.330  1.1378  2.9555 -2.4100
   32CHL1  H26C 2364   6.370   0.323   4.286  1.1663 -0.1367  0.9569
   32CHL1   C27 2365   6.537   0.509   4.401  0.5544 -0.2663  0.2987
   32CHL1  H27A 2366   6.590   0.601   4.369 -0.9165  1.1417  1.7738
   32CHL1  H27B 2367   6.545   0.514   4.512 -0.4490  0.8207  0.3364
   32CHL1  H27C 2368   6.601   0.430   4.355  1.7489  1.0181 -0.3169
   33CHL1    C3 2369   0.053   0.877   3.035  0.1667  0.1611 -0.6432
   33CHL1    H3 2370   0.066   0.986   3.052 -0.4991 -0.0179  1.1981
   33CHL1    O3 2371   0.047   0.853   2.895  0.1664  0.4023  0.0179
   33CHL1   H3' 2372   0.059   0.758   2.892 -0.5867  0.2943  0.2923
   33CHL1    C4 2373   0.170   0.795   3.116  0.3920 -0.0761 -0.6825
   33CHL1   H4A 2374   0.161   0.689   3.084  1.7199 -0.3684 -0.1154
   33CHL1   H4B 2375   0.257   0.848   3.071 -0.1056  1.1809 -0.2168
   33CHL1    C5 2376   0.150   0.814   3.267 -0.0083 -0.2786  0.1853
   33CHL1    C6 2377   0.256   0.852   3.337  0.5449 -0.1472  0.6006
   33CHL1    H6 2378   0.351   0.865   3.283 -0.3163 -0.9546 -1.1913
   33CHL1    C7 2379   0.259   0.873   3.488 -0.6513  0.9086  0.1500
   33CHL1   H7A 2380   0.346   0.812   3.520  0.1374  0.1530 -3.1075
   33CHL1   H7B 2381   0.284   0.980   3.507  1.6448  0.4825 -0.1899
   33CHL1    C8 2382   0.128   0.835   3.561 -1.3988  0.1956  0.2727
   33CHL1    H8 2383   0.122   0.726   3.583  0.1472  0.2560  1.1184
   33CHL1   C14 2384   0.115   0.903   3.696 -0.3292 -0.6850 -0.3261
   33CHL1   H14 2385   0.119   1.012   3.674  1.2486 -0.8317 -0.9315
   33CHL1   C15 2386   0.222   0.878   3.803  0.0772  0.5071  0.1568
   33CHL1  H15A 2387   0.252   0.771   3.799 -0.5907  0.3273 -0.0229
   33CHL1  H15B 2388   0.310   0.943   3.780  1.5017 -1.3330  0.1692
   33CHL1   C16 2389   0.161   0.903   3.942  0.1360  0.7879  0.4253
   33CHL1  H16A 2390   0.164   0.817   4.013 -1.3691  2.6652  2.9399
   33CHL1  H16B 2391   0.215   0.988   3.988  3.6571 -1.8622  1.6198
   33CHL1   C17 2392   0.008   0.941   3.908 -0.2284 -0.1337  0.3555
   33CHL1   H17 2393   0.004   1.051   3.896 -2.6481 -0.3887 -2.2552
   33CHL1   C13 2394  -0.014   0.876   3.772 -0.1339  0.2402  0.7039
   33CHL1   C18 2395  -0.038   0.721   3.788  0.5495 -0.1122  0.0764
   33CHL1  H18A 2396  -0.061   0.673   3.691 -2.7218 -1.8723  1.5720
   33CHL1  H18B 2397   0.049   0.670   3.834  0.0103 -1.4983 -0.3919
   33CHL1  H18C 2398  -0.126   0.704   3.853  0.4077 -1.0321 -0.3417
   33CHL1   C12 2399  -0.115   0.945   3.680 -0.0385  0.1293  0.8329
   33CHL1  H12A 2400  -0.214   0.934   3.730 -0.2723 -2.6051 -0.0862
   33CHL1  H12B 2401  -0.098   1.055   3.680  0.9138  0.0134 -0.4718
   33CHL1   C11 2402  -0.123   0.891   3.534  0.2862 -0.0689  0.3201
   33CHL1  H11A 2403  -0.166   0.789   3.541  0.8594 -0.4173 -0.9404
   33CHL1  H11B 2404  -0.185   0.961   3.475  0.4890  2.2827  2.7166
   33CHL1    C9 2405   0.016   0.879   3.469 -0.3454 -0.2718 -0.5974
   33CHL1    H9 2406   0.041   0.985   3.447  2.9683 -0.4654  1.4692
   33CHL1   C10 2407   0.014   0.810   3.331  0.4518 -0.3516 -0.4469
   33CHL1   C19 2408  -0.020   0.664   3.357 -0.4578  0.3442 -0.2318
   33CHL1  H19A 2409   0.056   0.618   3.422  0.9287 -0.4907 -2.3388
   33CHL1  H19B 2410  -0.121   0.654   3.404 -1.4486  0.5894 -2.1865
   33CHL1  H19C 2411  -0.021   0.610   3.260 -3.9237 -1.0214  0.4009
   33CHL1    C1 2412  -0.091   0.876   3.241 -0.5066  0.0003 -0.5607
   33CHL1   H1A 2413  -0.190   0.867   3.290 -0.2964  2.9420  0.6230
   33CHL1   H1B 2414  -0.057   0.982   3.250  0.8928 -0.5472  0.8695
   33CHL1    C2 2415  -0.082   0.839   3.091  0.6842 -0.0375  0.3223
   33CHL1   H2A 2416  -0.168   0.886   3.039  0.8472 -0.5206 -0.4012
   33CHL1   H2B 2417  -0.086   0.729   3.081  1.0337 -0.0762  0.5878
   33CHL1   C20 2418  -0.091   0.921   4.017 -0.2894  0.5817 -0.1622
   33CHL1   H20 2419  -0.082   0.815   4.046  2.6226  0.2130 -2.0169
   33CHL1   C21 2420  -0.237   0.954   3.969 -0.3011  0.1821 -0.2624
   33CHL1  H21A 2421  -0.268   0.869   3.904 -0.2591  0.3242 -0.4701
   33CHL1  H21B 2422  -0.246   1.053   3.919 -0.5910  0.1510 -0.2769
   33CHL1  H21C 2423  -0.322   0.957   4.041 -0.8992 -1.2598 -0.8537
   33CHL1   C22 2424  -0.054   1.009   4.136  0.5602  0.6115  0.3299
   33CHL1  H22A 2425   0.053   1.000   4.167  1.0731 -0.6330 -1.6800
   33CHL1  H22B 2426  -0.063   1.116   4.106 -0.5904 -0.0103 -1.7267
   33CHL1   C23 2427  -0.141   0.981   4.261 -0.3901 -0.0884 -0.0111
   33CHL1  H23A 2428  -0.251   0.996   4.248 -0.7724  0.8930  3.3588
   33CHL1  H23B 2429  -0.125   0.879   4.302 -0.3772 -0.6284 -1.3301
   33CHL1   C24 2430  -0.094   1.077   4.372 -0.0644  0.1294 -0.4542
   33CHL1  H24A 2431   0.016   1.092   4.366 -0.0987  0.3678 -0.4880
   33CHL1  H24B 2432  -0.136   1.180   4.367 -0.4581  0.0326  0.7289
   33CHL1   C25 2433  -0.118   1.021   4.516 -0.3308 -0.8059 -0.0276
   33CHL1   H25 2434  -0.063   0.925   4.521  2.5474  0.5510 -2.4690
   33CHL1   C26 2435  -0.066   1.120   4.623  0.4613  0.0921  0.0780
   33CHL1  H26A 2436  -0.121   1.216   4.632 -1.3010 -0.7009 -1.4363
   33CHL1  H26B 2437  -0.080   1.065   4.720 -0.5778  0.3621  0.0908
   33CHL1  H26C 2438   0.044   1.121   4.610  0.3379 -1.0763 -1.2959
   33CHL1   C27 2439  -0.268   0.979   4.552  0.0592 -1.3398  0.9571
   33CHL1  H27A 2440  -0.332   1.059   4.597 -0.2373 -1.1974  0.2982
   33CHL1  H27B 2441  -0.322   0.934   4.466 -0.8398  1.0081  0.1844
   33CHL1  H27C 2442  -0.259   0.899   4.628  1.8396  0.3613  2.6655
   34CHL1    C3 2443   4.151   2.527   2.766  0.3699 -0.7042 -0.0514
   34CHL1    H3 2444   4.167   2.425   2.808 -2.5960 -0.4508  1.9092
   34CHL1    O3 2445   4.169   2.535   2.625  0.0584 -0.9659 -0.4561
   34CHL1   H3' 2446   4.130   2.621   2.605  0.2667  0.2352  3.4447
   34CHL1    C4 2447   4.007   2.575   2.796  0.0268  0.3563 -0.5355
   34CHL1   H4A 2448   3.992   2.679   2.761  0.3264 -0.1157 -2.1692
   34CHL1   H4B 2449   3.941   2.500   2.747  0.8458 -0.5568 -0.2911
   34CHL1    C5 2450   3.985   2.562   2.948  0.2696  0.1817  0.0542
   34CHL1    C6 2451   3.890   2.484   2.999  0.1206  0.2050 -0.4061
   34CHL1    H6 2452   3.828   2.420   2.934 -1.7615  1.9327 -0.4079
   34CHL1    C7 2453   3.862   2.488   3.148  0.8945  0.0331  0.0777
   34CHL1   H7A 2454   3.753   2.475   3.165  1.3150 -1.3763  2.2012
   34CHL1   H7B 2455   3.909   2.393   3.182 -0.5092 -0.9255 -0.6012
   34CHL1    C8 2456   3.916   2.614   3.222 -0.1031 -0.3102 -0.0501
   34CHL1    H8 2457   3.858   2.703   3.191 -0.7814 -1.1723 -1.3858
   34CHL1   C14 2458   3.901   2.598   3.368  0.1542  0.2033 -0.4302
   34CHL1   H14 2459   3.955   2.503   3.389 -2.5411 -1.2488  0.4036
   34CHL1   C15 2460   3.762   2.582   3.429  0.0173 -0.1033  0.6800
   34CHL1  H15A 2461   3.699   2.658   3.378  1.0759 -0.7026 -1.6432
   34CHL1  H15B 2462   3.714   2.483   3.422 -1.6875  0.6412  1.3415
   34CHL1   C16 2463   3.778   2.609   3.575  0.3627  0.7322  0.0289
   34CHL1  H16A 2464   3.703   2.684   3.608 -1.7649 -0.5663 -1.6428
   34CHL1  H16B 2465   3.755   2.517   3.632 -0.8197  1.2831  0.4712
   34CHL1   C17 2466   3.926   2.659   3.598  0.1177 -0.1280 -0.2151
   34CHL1   H17 2467   3.986   2.571   3.627 -1.2901 -1.1757 -0.3988
   34CHL1   C13 2468   3.971   2.707   3.463  0.7433  0.3316  0.8864
   34CHL1   C18 2469   3.910   2.843   3.434  0.3493 -0.9905  0.6935
   34CHL1  H18A 2470   3.803   2.857   3.457  0.0329  1.3508 -1.8318
   34CHL1  H18B 2471   3.966   2.919   3.493  0.8367 -0.2426 -0.6931
   34CHL1  H18C 2472   3.913   2.863   3.325  0.0836 -1.0516  0.6748
   34CHL1   C12 2473   4.122   2.700   3.426  0.2016  0.3909 -0.9952
   34CHL1  H12A 2474   4.164   2.786   3.482  0.4926 -0.5026  0.2006
   34CHL1  H12B 2475   4.167   2.606   3.465 -2.6986 -0.8383 -0.3528
   34CHL1   C11 2476   4.152   2.727   3.278  0.0865 -0.0837  0.1463
   34CHL1  H11A 2477   4.130   2.834   3.256  0.5189  0.2201  1.1509
   34CHL1  H11B 2478   4.259   2.714   3.251  1.1612  1.8289  2.9658
   34CHL1    C9 2479   4.063   2.636   3.186  0.2419  0.4680  0.5962
   34CHL1    H9 2480   4.104   2.535   3.207  0.0304  0.6252  1.8607
   34CHL1   C10 2481   4.072   2.659   3.038 -0.3916  0.4254  0.0637
   34CHL1   C19 2482   4.035   2.806   3.008  0.2827  0.3215  0.8407
   34CHL1  H19A 2483   3.933   2.832   3.044  0.4565  0.8614  0.9585
   34CHL1  H19B 2484   4.108   2.872   3.060  0.7070 -0.8247  1.7470
   34CHL1  H19C 2485   4.025   2.820   2.899 -0.8999  0.7212  0.9877
   34CHL1    C1 2486   4.217   2.632   2.984 -0.2407  0.2808 -0.1354
   34CHL1   H1A 2487   4.282   2.714   3.022 -0.2168  0.3791 -0.3866
   34CHL1   H1B 2488   4.244   2.538   3.036  0.1870  0.5341  0.1083
   34CHL1    C2 2489   4.251   2.619   2.834  0.1860 -0.4877 -0.1331
   34CHL1   H2A 2490   4.351   2.572   2.821  0.0643 -1.3300  1.6700
   34CHL1   H2B 2491   4.249   2.723   2.795  1.2747 -0.3264  0.2042
   34CHL1   C20 2492   3.947   2.754   3.721  0.1581  0.5120  0.5210
   34CHL1   H20 2493   3.915   2.859   3.700  0.8848  0.5099 -0.6800
   34CHL1   C21 2494   4.096   2.757   3.743  0.4441  0.2012 -0.8520
   34CHL1  H21A 2495   4.128   2.804   3.839  0.6050 -0.2127 -0.7018
   34CHL1  H21B 2496   4.155   2.816   3.670  2.7095  0.8726  1.3595
   34CHL1  H21C 2497   4.139   2.655   3.752 -1.2513 -0.4640  0.2953
   34CHL1   C22 2498   3.858   2.719   3.838  0.5314 -0.2212  0.3223
   34CHL1  H22A 2499   3.750   2.740   3.827  0.4061 -0.5635  0.8596
   34CHL1  H22B 2500   3.862   2.608   3.840 -1.4379 -0.4869 -3.1113
   34CHL1   C23 2501   3.896   2.789   3.970  0.1366 -0.4795 -0.5729
   34CHL1  H23A 2502   3.981   2.736   4.018  1.1710  1.4457 -0.1879
   34CHL1  H23B 2503   3.915   2.897   3.954 -1.7435  0.7197  3.8919
   34CHL1   C24 2504   3.775   2.780   4.070  0.0686  0.4610  0.5988
   34CHL1  H24A 2505   3.680   2.808   4.020 -0.8663  0.7113  2.4173
   34CHL1  H24B 2506   3.762   2.671   4.092 -1.4946  0.1798 -1.4190
   34CHL1   C25 2507   3.786   2.865   4.199 -0.4560 -0.6617  0.0339
   34CHL1   H25 2508   3.818   2.966   4.165 -0.6340 -0.3098  0.8860
   34CHL1   C26 2509   3.654   2.877   4.269 -0.5609 -0.9943  0.3212
   34CHL1  H26A 2510   3.573   2.910   4.201 -0.6074 -0.3099  0.6958
   34CHL1  H26B 2511   3.626   2.788   4.331 -2.0959  0.4806  1.8535
   34CHL1  H26C 2512   3.664   2.961   4.342 -0.0213 -0.6199 -0.1789
   34CHL1   C27 2513   3.895   2.817   4.290  0.2971  0.3668  0.2632
   34CHL1  H27A 2514   3.994   2.803   4.241  1.4017  2.5229  1.7158
   34CHL1  H27B 2515   3.910   2.881   4.379  0.8395  0.4042  0.1521
   34CHL1  H27C 2516   3.861   2.718   4.326  1.5609  0.0878  0.7345
   35CHL1    C3 2517   1.479   4.558   3.128 -0.1620  1.1990 -0.3090
   35CHL1    H3 2518   1.417   4.649   3.144 -1.4961  0.5755 -1.7213
   35CHL1    O3 2519   1.513   4.546   2.987 -0.1369 -1.0715 -0.0256
   35CHL1   H3' 2520   1.453   4.601   2.936  2.9413  0.2997 -2.4899
   35CHL1    C4 2521   1.616   4.574   3.210 -0.0599 -0.2670  0.2088
   35CHL1   H4A 2522   1.678   4.486   3.182 -2.3400 -2.2552  1.0869
   35CHL1   H4B 2523   1.667   4.665   3.171 -0.4403 -0.8940 -1.9157
   35CHL1    C5 2524   1.587   4.579   3.362 -0.6719 -0.0756 -0.5321
   35CHL1    C6 2525   1.645   4.678   3.431 -0.3487  1.0349  0.1401
   35CHL1    H6 2526   1.697   4.761   3.382 -2.6011  1.6020 -1.4681
   35CHL1    C7 2527   1.650   4.678   3.580 -0.3155 -0.0519  0.2745
   35CHL1   H7A 2528   1.754   4.684   3.618 -0.6816 -0.3935  1.3800
   35CHL1   H7B 2529   1.590   4.762   3.620 -0.6876 -0.4701  0.6189
   35CHL1    C8 2530   1.586   4.555   3.650 -0.1745  0.3315  1.0627
   35CHL1    H8 2531   1.654   4.467   3.648 -2.0435 -1.1696  0.5280
   35CHL1   C14 2532   1.555   4.586   3.797 -0.1058 -0.1289 -0.5012
   35CHL1   H14 2533   1.487   4.674   3.796  0.9850  0.7476 -2.5594
   35CHL1   C15 2534   1.670   4.627   3.900  0.4072 -0.4261  0.1318
   35CHL1  H15A 2535   1.757   4.563   3.873 -0.4094 -0.8313 -1.6775
   35CHL1  H15B 2536   1.693   4.736   3.902  3.0307 -0.8867  2.7795
   35CHL1   C16 2537   1.609   4.593   4.042  0.0969  0.6355  0.1705
   35CHL1  H16A 2538   1.681   4.516   4.079  1.0139  0.5161 -1.7499
   35CHL1  H16B 2539   1.619   4.686   4.102 -0.2668  3.1313 -3.3691
   35CHL1   C17 2540   1.473   4.537   4.017  0.1676  0.2206  0.0495
   35CHL1   H17 2541   1.405   4.624   4.004 -0.4016 -0.1508  0.5071
   35CHL1   C13 2542   1.479   4.469   3.872 -0.2684 -0.6080  0.2416
   35CHL1   C18 2543   1.557   4.337   3.885  0.1805  0.0342  0.6201
   35CHL1  H18A 2544   1.500   4.248   3.919  0.0311  0.5237  1.6821
   35CHL1  H18B 2545   1.593   4.305   3.785  0.5601  4.4917 -0.8465
   35CHL1  H18C 2546   1.651   4.348   3.944  0.2324 -1.1421  0.7962
   35CHL1   C12 2547   1.348   4.453   3.791 -0.2322  0.3580  0.4717
   35CHL1  H12A 2548   1.287   4.380   3.849  0.6412 -0.4587  0.3981
   35CHL1  H12B 2549   1.293   4.548   3.804 -0.3344  0.1256  1.8996
   35CHL1   C11 2550   1.368   4.412   3.643 -0.1421  0.2420 -0.3544
   35CHL1  H11A 2551   1.413   4.311   3.655  0.6272  0.8208  2.2912
   35CHL1  H11B 2552   1.268   4.408   3.594 -1.4725  1.8630  2.0371
   35CHL1    C9 2553   1.459   4.515   3.569  0.2915  0.1605 -0.4425
   35CHL1    H9 2554   1.400   4.609   3.575  0.8105  0.4192  0.8973
   35CHL1   C10 2555   1.492   4.473   3.417  0.1564 -0.1985 -0.1215
   35CHL1   C19 2556   1.559   4.334   3.415 -0.0314  0.4634 -0.3958
   35CHL1  H19A 2557   1.484   4.252   3.412  1.9943 -1.4410 -1.8331
   35CHL1  H19B 2558   1.618   4.314   3.323  0.0304  1.0929 -0.5035
   35CHL1  H19C 2559   1.623   4.325   3.505 -1.8759  1.5187  1.1208
   35CHL1    C1 2560   1.363   4.473   3.335  0.1669  0.6398  0.3558
   35CHL1   H1A 2561   1.295   4.396   3.377  0.4189 -0.2084 -0.7382
   35CHL1   H1B 2562   1.305   4.566   3.353 -2.0785 -0.5975 -0.1221
   35CHL1    C2 2563   1.387   4.445   3.182 -0.1689  0.1720 -0.0591
   35CHL1   H2A 2564   1.290   4.460   3.130 -1.1627  1.7762  2.1191
   35CHL1   H2B 2565   1.409   4.337   3.164 -1.4450  0.1128 -1.4915
   35CHL1   C20 2566   1.408   4.459   4.138 -0.0623 -0.5038  1.1507
   35CHL1   H20 2567   1.440   4.353   4.127  3.1077  0.5177 -0.8762
   35CHL1   C21 2568   1.253   4.480   4.146 -0.1693 -0.4569  0.2816
   35CHL1  H21A 2569   1.206   4.450   4.049  1.4549 -1.2282 -0.3032
   35CHL1  H21B 2570   1.235   4.588   4.167 -0.1122 -0.4256  0.1727
   35CHL1  H21C 2571   1.214   4.422   4.232  1.4881 -0.4247  1.0919
   35CHL1   C22 2572   1.461   4.512   4.274 -0.4575  0.8576  0.0140
   35CHL1  H22A 2573   1.571   4.521   4.264 -0.2251 -0.8622  0.6479
   35CHL1  H22B 2574   1.419   4.610   4.306 -1.5712  0.1867  0.6998
   35CHL1   C23 2575   1.432   4.409   4.382 -0.6521 -0.0762  0.3151
   35CHL1  H23A 2576   1.323   4.406   4.406 -1.0913 -0.3531 -1.5384
   35CHL1  H23B 2577   1.458   4.306   4.353  1.5447  0.3154  0.7078
   35CHL1   C24 2578   1.510   4.432   4.517 -0.1490  0.2505  0.1754
   35CHL1  H24A 2579   1.616   4.454   4.490  0.3451 -0.4605  1.4398
   35CHL1  H24B 2580   1.477   4.528   4.563 -0.4678 -0.1146  0.7181
   35CHL1   C25 2581   1.507   4.307   4.619 -0.2653  0.0714 -0.2807
   35CHL1   H25 2582   1.539   4.224   4.551  0.3173  0.3790 -0.3887
   35CHL1   C26 2583   1.602   4.319   4.745  0.0975 -0.1817  0.3005
   35CHL1  H26A 2584   1.579   4.419   4.788  0.2171 -0.2051  0.4216
   35CHL1  H26B 2585   1.588   4.236   4.818  0.9888 -0.8824 -0.3010
   35CHL1  H26C 2586   1.706   4.318   4.705 -0.5250  0.8235 -1.4139
   35CHL1   C27 2587   1.366   4.278   4.661 -0.3069 -0.3384 -0.7569
   35CHL1  H27A 2588   1.368   4.189   4.727  0.7084 -0.2674 -0.6745
   35CHL1  H27B 2589   1.343   4.370   4.719  0.0043  1.3988 -3.2284
   35CHL1  H27C 2590   1.288   4.255   4.584 -0.8653  1.4546 -0.7873
   36CHL1    C3 2591   4.265   3.576   3.251  0.2426  0.3575  0.4632
   36CHL1    H3 2592   4.231   3.674   3.292  0.2795  1.5447 -2.1246
   36CHL1    O3 2593   4.321   3.580   3.118  0.0810  0.2513  0.1408
   36CHL1   H3' 2594   4.307   3.489   3.088  0.3091  0.4748 -0.6687
   36CHL1    C4 2595   4.373   3.518   3.343 -0.1076  0.9957  0.1134
   36CHL1   H4A 2596   4.420   3.430   3.294  1.1856  1.1112  1.0920
   36CHL1   H4B 2597   4.458   3.589   3.335 -1.1377  2.5260  1.8867
   36CHL1    C5 2598   4.310   3.486   3.481 -0.0650  0.4899 -0.0461
   36CHL1    C6 2599   4.378   3.529   3.587 -0.2753 -0.1117 -0.0710
   36CHL1    H6 2600   4.466   3.594   3.581 -1.1065  1.4444  2.9222
   36CHL1    C7 2601   4.331   3.503   3.729  0.0867 -0.3551  0.5055
   36CHL1   H7A 2602   4.410   3.473   3.801 -1.8163 -0.7053  2.5543
   36CHL1   H7B 2603   4.292   3.598   3.773 -1.8816 -1.2865  0.8818
   36CHL1    C8 2604   4.217   3.392   3.747 -0.1754 -0.5297  0.3299
   36CHL1    H8 2605   4.269   3.294   3.759 -0.6071 -0.7792  0.1526
   36CHL1   C14 2606   4.141   3.423   3.874 -0.2085 -0.6985 -1.0377
   36CHL1   H14 2607   4.090   3.520   3.860  0.9467  0.0146 -0.4321
   36CHL1   C15 2608   4.229   3.447   4.002  0.0801  0.1672 -0.0596
   36CHL1  H15A 2609   4.310   3.372   4.015  0.7497  0.8017 -0.4264
   36CHL1  H15B 2610   4.259   3.553   3.990 -1.6534  0.8188  1.0062
   36CHL1   C16 2611   4.119   3.427   4.111 -0.8829  0.2780  0.4670
   36CHL1  H16A 2612   4.157   3.352   4.184 -0.2811  0.0710 -0.0550
   36CHL1  H16B 2613   4.097   3.519   4.170 -1.8975 -1.1913  2.4914
   36CHL1   C17 2614   3.988   3.376   4.042 -0.2230  0.0438  0.0667
   36CHL1   H17 2615   3.919   3.464   4.040 -0.6215 -0.2726 -0.4602
   36CHL1   C13 2616   4.037   3.320   3.908  0.0919  0.0032 -0.1669
   36CHL1   C18 2617   4.095   3.180   3.926 -0.2790  0.2466  1.0354
   36CHL1  H18A 2618   4.159   3.139   3.845 -2.2491 -2.8645  0.9023
   36CHL1  H18B 2619   4.154   3.173   4.020 -0.0523 -1.6401  0.7785
   36CHL1  H18C 2620   4.011   3.108   3.937 -1.6697  1.5842 -0.1800
   36CHL1   C12 2621   3.938   3.318   3.796  0.5375 -0.3104 -0.1075
   36CHL1  H12A 2622   3.861   3.239   3.810  0.8170 -0.5655 -0.0159
   36CHL1  H12B 2623   3.878   3.412   3.797  2.1944  0.8415 -2.0043
   36CHL1   C11 2624   4.002   3.300   3.658  1.1931  0.0053  0.8524
   36CHL1  H11A 2625   4.028   3.193   3.646  0.3502  0.0402 -2.3942
   36CHL1  H11B 2626   3.927   3.314   3.577  1.8418 -0.6370  0.1189
   36CHL1    C9 2627   4.115   3.408   3.636  0.4918  0.1963  0.1485
   36CHL1    H9 2628   4.071   3.509   3.639  0.9702  0.5522 -2.5732
   36CHL1   C10 2629   4.178   3.404   3.493  0.6212 -0.6070  0.4856
   36CHL1   C19 2630   4.222   3.259   3.455 -0.2493 -0.2375 -0.5375
   36CHL1  H19A 2631   4.301   3.225   3.525  0.8396  0.3532 -1.4537
   36CHL1  H19B 2632   4.138   3.187   3.469 -0.4154 -0.0326 -0.4793
   36CHL1  H19C 2633   4.264   3.244   3.354  0.6189  0.2065 -0.2439
   36CHL1    C1 2634   4.083   3.474   3.394 -0.0542  0.4759  0.6863
   36CHL1   H1A 2635   3.991   3.412   3.383  0.3443  0.0789 -0.6605
   36CHL1   H1B 2636   4.040   3.569   3.432  0.6888  0.8808  0.5297
   36CHL1    C2 2637   4.141   3.488   3.248 -0.6428 -0.1639  0.3226
   36CHL1   H2A 2638   4.063   3.527   3.179 -1.6436 -1.4933  0.6640
   36CHL1   H2B 2639   4.173   3.386   3.220 -0.3624  0.2127 -0.7498
   36CHL1   C20 2640   3.902   3.275   4.128 -0.1855 -0.1831 -0.4679
   36CHL1   H20 2641   3.970   3.191   4.153 -0.5325 -0.6440 -1.0440
   36CHL1   C21 2642   3.776   3.220   4.064 -0.3955  0.1183  0.3722
   36CHL1  H21A 2643   3.718   3.179   4.149  1.5593 -1.2663  1.1215
   36CHL1  H21B 2644   3.799   3.144   3.986  0.3309  0.9624 -0.2702
   36CHL1  H21C 2645   3.719   3.300   4.012 -0.6601 -0.1108  0.3105
   36CHL1   C22 2646   3.855   3.344   4.259 -0.8580  0.0842 -0.5976
   36CHL1  H22A 2647   3.929   3.417   4.297 -1.0068 -2.1631  4.9102
   36CHL1  H22B 2648   3.759   3.398   4.243 -1.6039 -1.5891 -2.0283
   36CHL1   C23 2649   3.835   3.250   4.379  0.7717 -0.1279  0.2860
   36CHL1  H23A 2650   3.800   3.311   4.465  0.6542 -3.3301  2.6658
   36CHL1  H23B 2651   3.750   3.187   4.346 -0.3718  1.5450 -0.1084
   36CHL1   C24 2652   3.960   3.183   4.431  0.2286 -0.1525 -0.0567
   36CHL1  H24A 2653   3.979   3.085   4.384  1.9911  0.6694 -1.1481
   36CHL1  H24B 2654   4.052   3.236   4.397  2.6840 -3.7895  0.4109
   36CHL1   C25 2655   3.969   3.173   4.591  0.4182 -0.0903 -0.1661
   36CHL1   H25 2656   3.883   3.118   4.634 -0.3796  0.5041 -0.9554
   36CHL1   C26 2657   4.100   3.103   4.624 -0.2304  0.2014 -0.0919
   36CHL1  H26A 2658   4.094   3.107   4.735 -0.4584  3.2655 -0.1269
   36CHL1  H26B 2659   4.101   2.998   4.588 -0.1755  0.4996 -1.0068
   36CHL1  H26C 2660   4.183   3.170   4.592 -0.3251  0.9974  1.2799
   36CHL1   C27 2661   3.967   3.306   4.665  0.0553 -0.2474  0.0977
   36CHL1  H27A 2662   4.004   3.303   4.770 -0.0707  0.4739  0.1695
   36CHL1  H27B 2663   4.019   3.379   4.599 -0.1525  0.3905  0.6280
   36CHL1  H27C 2664   3.866   3.350   4.675  0.7258  1.5404 -0.4725
   37CHL1    C3 2665   6.350   2.281   2.839  0.8503  0.5978 -0.6107
   37CHL1    H3 2666   6.295   2.375   2.819 -0.2540 -0.2155 -1.5270
   37CHL1    O3 2667   6.412   2.248   2.717 -0.7874 -0.4174 -0.3577
   37CHL1   H3' 2668   6.441   2.331   2.678  1.6361  0.3527  2.6652
   37CHL1    C4 2669   6.456   2.290   2.953 -0.1089 -0.2474  0.5163
   37CHL1   H4A 2670   6.514   2.196   2.944  0.2701 -0.1442  1.7337
   37CHL1   H4B 2671   6.527   2.371   2.925  0.7878 -0.5996  1.7409
   37CHL1    C5 2672   6.412   2.286   3.098 -0.0231 -0.0309 -0.1306
   37CHL1    C6 2673   6.458   2.376   3.183 -0.5097  0.0579 -0.0161
   37CHL1    H6 2674   6.541   2.446   3.168  1.5463 -1.8646  1.7343
   37CHL1    C7 2675   6.425   2.375   3.329 -0.5032  0.1165  0.9708
   37CHL1   H7A 2676   6.518   2.393   3.387  0.6403  0.8038 -0.9887
   37CHL1   H7B 2677   6.354   2.460   3.344 -0.2938  0.6002 -0.5960
   37CHL1    C8 2678   6.361   2.241   3.375  0.6662  0.1878  0.4931
   37CHL1    H8 2679   6.446   2.169   3.374  3.1321  2.8901  1.4424
   37CHL1   C14 2680   6.309   2.257   3.516 -0.0815  0.7160 -0.2987
   37CHL1   H14 2681   6.236   2.340   3.525 -1.8594 -0.9269  1.8681
   37CHL1   C15 2682   6.407   2.290   3.633  0.3345  0.4318 -0.3299
   37CHL1  H15A 2683   6.495   2.223   3.644 -0.3403 -0.3265  0.6340
   37CHL1  H15B 2684   6.423   2.399   3.628 -0.8677  0.6704  0.6522
   37CHL1   C16 2685   6.314   2.250   3.753  0.5488 -0.0499 -0.1452
   37CHL1  H16A 2686   6.363   2.180   3.824 -1.5100  0.5430  1.9874
   37CHL1  H16B 2687   6.307   2.343   3.812  3.4239  0.6762 -0.7687
   37CHL1   C17 2688   6.184   2.183   3.702  0.0438 -0.2030 -0.2799
   37CHL1   H17 2689   6.112   2.266   3.686 -1.8420 -1.6961  0.2170
   37CHL1   C13 2690   6.220   2.137   3.564 -0.0300  0.6260  1.0572
   37CHL1   C18 2691   6.314   2.011   3.572 -0.2300  0.0327  0.0611
   37CHL1  H18A 2692   6.373   2.002   3.478 -2.3363 -1.1943 -1.2099
   37CHL1  H18B 2693   6.400   2.024   3.642  1.3351 -1.2036 -1.5153
   37CHL1  H18C 2694   6.255   1.918   3.589 -0.2627 -0.2414 -1.4269
   37CHL1   C12 2695   6.105   2.111   3.462  0.1893 -0.9532 -0.5282
   37CHL1  H12A 2696   6.044   2.022   3.487 -0.0697 -0.1176  2.1499
   37CHL1  H12B 2697   6.025   2.189   3.468 -0.1538 -1.3070 -0.4069
   37CHL1   C11 2698   6.156   2.083   3.321 -0.8200  0.2106  0.0672
   37CHL1  H11A 2699   6.219   1.992   3.314 -0.1727  0.6130  0.5241
   37CHL1  H11B 2700   6.071   2.061   3.253 -1.2923  0.5584  0.5414
   37CHL1    C9 2701   6.252   2.197   3.273 -0.7386 -0.3170  0.2392
   37CHL1    H9 2702   6.187   2.286   3.260 -1.6770 -1.0221  0.0057
   37CHL1   C10 2703   6.309   2.174   3.124 -0.5953 -0.2723  0.1138
   37CHL1   C19 2704   6.380   2.038   3.123 -0.3281  0.0472 -0.7322
   37CHL1  H19A 2705   6.457   2.035   3.202 -2.3774  1.4128  1.4656
   37CHL1  H19B 2706   6.319   1.946   3.127  1.2101 -1.0197 -0.9444
   37CHL1  H19C 2707   6.451   2.027   3.038  1.4703  2.2670  0.3647
   37CHL1    C1 2708   6.201   2.183   3.015  0.2644 -0.1140 -0.4508
   37CHL1   H1A 2709   6.130   2.099   3.031  1.0664 -1.1067 -1.9503
   37CHL1   H1B 2710   6.148   2.280   3.032  1.3250  0.7390 -1.7751
   37CHL1    C2 2711   6.255   2.167   2.872  0.7093 -0.9665 -0.2991
   37CHL1   H2A 2712   6.162   2.169   2.811 -0.0782  0.0344  0.8642
   37CHL1   H2B 2713   6.311   2.073   2.854  1.5709 -0.1287 -2.3064
   37CHL1   C20 2714   6.137   2.084   3.811  0.6958 -0.1805 -0.5755
   37CHL1   H20 2715   6.211   2.001   3.809  1.0090  0.0928 -0.4518
   37CHL1   C21 2716   5.996   2.027   3.779 -0.4446 -0.2172 -0.0628
   37CHL1  H21A 2717   5.960   1.952   3.853 -1.4257 -1.1582 -1.4455
   37CHL1  H21B 2718   5.992   1.966   3.687 -2.1329 -0.2187 -0.0295
   37CHL1  H21C 2719   5.921   2.108   3.765  0.2054  0.0183 -2.5477
   37CHL1   C22 2720   6.150   2.129   3.959 -0.2830 -0.0335  0.2845
   37CHL1  H22A 2721   6.125   2.041   4.020  4.0697 -0.8791  1.1307
   37CHL1  H22B 2722   6.250   2.157   3.997  0.2619 -1.6363  0.1023
   37CHL1   C23 2723   6.053   2.239   3.999  0.0880 -0.2245 -0.1428
   37CHL1  H23A 2724   6.103   2.334   3.971  2.8913 -1.2832  0.9462
   37CHL1  H23B 2725   5.956   2.226   3.946  1.0262 -0.6469 -1.8090
   37CHL1   C24 2726   6.015   2.250   4.152 -0.3286  0.2802  0.8958
   37CHL1  H24A 2727   5.953   2.164   4.186 -1.4260 -0.2369 -2.1597
   37CHL1  H24B 2728   6.117   2.251   4.196 -0.7349  0.5617  1.8684
   37CHL1   C25 2729   5.956   2.383   4.192  0.0400 -0.1332  0.2024
   37CHL1   H25 2730   6.010   2.460   4.133 -0.8174 -0.0967 -0.5472
   37CHL1   C26 2731   5.815   2.389   4.140 -0.3206  0.4776  0.1064
   37CHL1  H26A 2732   5.772   2.491   4.153 -0.7224  0.1223  1.9345
   37CHL1  H26B 2733   5.809   2.380   4.030  1.0877  1.5391 -0.0750
   37CHL1  H26C 2734   5.750   2.319   4.196  2.3707 -1.0706  1.5358
   37CHL1   C27 2735   5.972   2.404   4.344  0.2077  0.4184  0.4012
   37CHL1  H27A 2736   6.081   2.418   4.359  0.1268  1.9540 -0.2179
   37CHL1  H27B 2737   5.924   2.500   4.374  0.6919  0.2390  1.8472
   37CHL1  H27C 2738   5.933   2.320   4.405 -0.9492  0.9629  0.4347
   38CHL1    C3 2739   0.803   2.202   3.014 -0.6356  0.0335 -0.3516
   38CHL1    H3 2740   0.738   2.115   2.991 -2.2364  0.8925  0.6928
   38CHL1    O3 2741   0.857   2.240   2.888  0.4771 -0.0973 -0.5490
   38CHL1   H3' 2742   0.836   2.334   2.884  1.4975  0.1658 -0.1299
   38CHL1    C4 2743   0.729   2.319   3.082  0.8864  0.2153 -0.0878
   38CHL1   H4A 2744   0.807   2.398   3.080  0.6885  0.5113  2.0166
   38CHL1   H4B 2745   0.638   2.346   3.023 -0.3123 -2.1285  0.6076
   38CHL1    C5 2746   0.688   2.290   3.227  0.6499 -0.0179  0.1101
   38CHL1    C6 2747   0.559   2.299   3.265 -0.4575  0.6952  0.5702
   38CHL1    H6 2748   0.479   2.334   3.198 -1.6357 -0.7295  1.1733
   38CHL1    C7 2749   0.513   2.262   3.402  0.4668 -0.2808  0.1120
   38CHL1   H7A 2750   0.436   2.328   3.448 -1.3185 -1.0757 -1.5915
   38CHL1   H7B 2751   0.461   2.164   3.391 -2.2633  1.1575 -0.9029
   38CHL1    C8 2752   0.632   2.250   3.502  0.0406 -0.2704  0.2108
   38CHL1    H8 2753   0.665   2.353   3.524  1.4158 -0.2106 -1.8683
   38CHL1   C14 2754   0.575   2.186   3.623 -0.9990 -0.0148  0.4138
   38CHL1   H14 2755   0.533   2.091   3.585  0.5544 -0.8456  0.7015
   38CHL1   C15 2756   0.466   2.261   3.705 -0.0926 -0.1734 -0.1760
   38CHL1  H15A 2757   0.503   2.364   3.722 -0.8996  0.4059 -1.6335
   38CHL1  H15B 2758   0.367   2.249   3.655  1.5280 -1.3342 -3.4042
   38CHL1   C16 2759   0.478   2.194   3.845 -0.1361 -0.1414 -0.3593
   38CHL1  H16A 2760   0.498   2.265   3.928 -1.5557 -0.2620  0.1076
   38CHL1  H16B 2761   0.385   2.143   3.879 -0.3428  1.9190  2.5525
   38CHL1   C17 2762   0.591   2.084   3.833 -0.2420  0.3242  0.1534
   38CHL1   H17 2763   0.535   1.998   3.790 -2.3092  2.1402 -1.0394
   38CHL1   C13 2764   0.679   2.148   3.728  0.8170  0.2418 -0.2856
   38CHL1   C18 2765   0.745   2.269   3.788  0.0607  0.1471 -0.7701
   38CHL1  H18A 2766   0.706   2.312   3.883  0.7580 -1.8757  0.5011
   38CHL1  H18B 2767   0.846   2.239   3.823 -0.0842 -0.8183 -1.1320
   38CHL1  H18C 2768   0.752   2.352   3.715  0.4306  0.8047 -0.0061
   38CHL1   C12 2769   0.788   2.060   3.660  0.3471 -0.1466  0.2054
   38CHL1  H12A 2770   0.873   2.046   3.732 -1.1272  2.8420  2.7718
   38CHL1  H12B 2771   0.735   1.972   3.618 -1.6494  0.6506  0.9488
   38CHL1   C11 2772   0.850   2.124   3.535  0.5413 -0.1958 -0.4755
   38CHL1  H11A 2773   0.923   2.202   3.566  0.4620 -0.4602  0.4049
   38CHL1  H11B 2774   0.899   2.036   3.488  0.8514  0.4620 -1.4157
   38CHL1    C9 2775   0.739   2.168   3.432 -0.9804 -0.0506  0.2682
   38CHL1    H9 2776   0.697   2.067   3.413 -1.7274  0.6393 -2.1083
   38CHL1   C10 2777   0.800   2.231   3.310  0.2421  0.4950  0.0079
   38CHL1   C19 2778   0.895   2.348   3.353  0.0770  0.2552 -0.3683
   38CHL1  H19A 2779   0.842   2.415   3.423  0.9870  0.8443 -0.2189
   38CHL1  H19B 2780   0.989   2.309   3.398  1.0495 -0.6557 -2.9670
   38CHL1  H19C 2781   0.931   2.408   3.266 -1.6227  2.0479  0.1061
   38CHL1    C1 2782   0.882   2.119   3.231  0.1940 -0.0301 -0.4157
   38CHL1   H1A 2783   0.966   2.075   3.289  0.1447  1.3973  0.7863
   38CHL1   H1B 2784   0.806   2.037   3.228  1.9105 -1.6853 -0.1918
   38CHL1    C2 2785   0.926   2.161   3.099  0.2556  0.3141  0.5132
   38CHL1   H2A 2786   0.979   2.080   3.045 -2.0767 -1.0826  0.1826
   38CHL1   H2B 2787   0.989   2.253   3.098  2.7697 -1.2794  1.8446
   38CHL1   C20 2788   0.649   2.045   3.970  0.1968  0.1611 -0.2701
   38CHL1   H20 2789   0.678   2.138   4.025  1.5343 -0.3277 -0.1044
   38CHL1   C21 2790   0.779   1.959   3.958  0.4390  0.3015 -0.5106
   38CHL1  H21A 2791   0.761   1.870   3.895 -0.5387  0.0621  0.0844
   38CHL1  H21B 2792   0.809   1.913   4.054 -0.9531  0.3969 -0.0049
   38CHL1  H21C 2793   0.861   2.021   3.916 -0.8308  2.2510 -0.2795
   38CHL1   C22 2794   0.540   1.971   4.053 -0.0588  0.1784  0.2111
   38CHL1  H22A 2795   0.441   2.013   4.026 -0.2322 -0.8106 -0.7682
   38CHL1  H22B 2796   0.528   1.869   4.010 -0.0248 -0.0174  0.6573
   38CHL1   C23 2797   0.560   1.969   4.208  0.4383 -0.6407  0.4755
   38CHL1  H23A 2798   0.659   1.924   4.230  2.3300  2.0551 -1.9103
   38CHL1  H23B 2799   0.538   2.073   4.241 -3.0096 -1.2350  0.4624
   38CHL1   C24 2800   0.459   1.888   4.282  0.1130  0.4587  0.4998
   38CHL1  H24A 2801   0.363   1.878   4.227  0.7880  0.6905 -0.7670
   38CHL1  H24B 2802   0.482   1.781   4.264  0.0475  0.7300 -1.4503
   38CHL1   C25 2803   0.438   1.920   4.431  0.6229  0.1070 -0.2384
   38CHL1   H25 2804   0.539   1.896   4.471  1.0156  0.8656 -0.7526
   38CHL1   C26 2805   0.406   2.064   4.455  0.1703 -0.1483 -0.1529
   38CHL1  H26A 2806   0.486   2.134   4.422 -1.6892  1.9040 -0.5685
   38CHL1  H26B 2807   0.321   2.097   4.391  0.5997 -1.4507 -1.4315
   38CHL1  H26C 2808   0.377   2.077   4.562  0.6518 -2.6755  0.3353
   38CHL1   C27 2809   0.342   1.817   4.498 -0.4102  0.3160  0.3456
   38CHL1  H27A 2810   0.390   1.717   4.492 -0.8020  0.2028 -1.4616
   38CHL1  H27B 2811   0.341   1.843   4.606  1.7828 -2.4477  1.1735
   38CHL1  H27C 2812   0.245   1.821   4.444 -0.4089 -0.6511  0.2469
   39CHL1    C3 2813   2.597   1.931   2.849  0.0182  0.6039  0.5463
   39CHL1    H3 2814   2.669   1.847   2.855  1.2130  1.3388 -1.9308
   39CHL1    O3 2815   2.607   1.975   2.713  1.2463  0.6115 -0.3844
   39CHL1   H3' 2816   2.542   2.045   2.705  2.0946  1.4850  0.2299
   39CHL1    C4 2817   2.448   1.896   2.885 -0.4891 -0.3392  0.8063
   39CHL1   H4A 2818   2.388   1.985   2.856 -1.8159 -1.3230  0.4303
   39CHL1   H4B 2819   2.420   1.807   2.824  0.9385 -1.4387  1.6654
   39CHL1    C5 2820   2.427   1.871   3.036 -0.1940 -0.6770  0.1974
   39CHL1    C6 2821   2.351   1.770   3.079 -0.3055 -1.0590 -0.0723
   39CHL1    H6 2822   2.298   1.707   3.007  0.1620 -2.6230  0.8878
   39CHL1    C7 2823   2.346   1.736   3.228  0.0133 -0.3116  0.0379
   39CHL1   H7A 2824   2.244   1.697   3.246  0.7304 -2.5096 -0.2884
   39CHL1   H7B 2825   2.421   1.660   3.260 -2.0267 -2.9017 -0.9595
   39CHL1    C8 2826   2.369   1.865   3.317 -0.7850  0.0334  0.0573
   39CHL1    H8 2827   2.278   1.928   3.310 -0.9698 -0.3841 -1.6599
   39CHL1   C14 2828   2.377   1.822   3.467  0.3943  0.8640  0.0986
   39CHL1   H14 2829   2.459   1.747   3.468  1.2763  1.8097  0.3342
   39CHL1   C15 2830   2.260   1.746   3.519  0.0648  0.0731  0.0483
   39CHL1  H15A 2831   2.168   1.790   3.475 -1.3833 -3.0782 -0.3418
   39CHL1  H15B 2832   2.260   1.639   3.489 -2.6493 -0.0989  0.3636
   39CHL1   C16 2833   2.265   1.759   3.675  0.3013 -0.0180 -0.5222
   39CHL1  H16A 2834   2.180   1.819   3.716  1.7451  0.8924  1.2607
   39CHL1  H16B 2835   2.275   1.658   3.718  0.3083 -0.7599 -2.1880
   39CHL1   C17 2836   2.396   1.842   3.701 -0.2531  0.7281 -0.5737
   39CHL1   H17 2837   2.482   1.776   3.724 -0.9750 -0.1604 -0.3898
   39CHL1   C13 2838   2.411   1.925   3.571  0.1845 -0.4786  0.7071
   39CHL1   C18 2839   2.314   2.033   3.568  0.2010  0.1867  0.3400
   39CHL1  H18A 2840   2.345   2.112   3.641  2.2881  0.1868 -0.4987
   39CHL1  H18B 2841   2.315   2.084   3.469  0.4768 -0.7352 -0.1333
   39CHL1  H18C 2842   2.208   1.998   3.573  0.5963 -1.5309 -1.9592
   39CHL1   C12 2843   2.556   1.975   3.526  0.2881  0.2404  0.3914
   39CHL1  H12A 2844   2.595   2.050   3.599 -0.4786 -1.1235  2.2933
   39CHL1  H12B 2845   2.624   1.889   3.537  0.4184  0.1419 -1.0453
   39CHL1   C11 2846   2.560   2.029   3.378 -0.0934 -0.9864 -0.1598
   39CHL1  H11A 2847   2.499   2.121   3.363  0.0831 -0.8348  0.0434
   39CHL1  H11B 2848   2.666   2.056   3.356  0.2614 -1.6929  0.6184
   39CHL1    C9 2849   2.505   1.927   3.274 -0.4785  0.2167  0.0296
   39CHL1    H9 2850   2.576   1.843   3.261 -0.6488  0.2221 -0.9795
   39CHL1   C10 2851   2.494   1.981   3.125 -0.3106 -0.0336 -0.5861
   39CHL1   C19 2852   2.417   2.115   3.110 -0.4057  0.6462 -0.1904
   39CHL1  H19A 2853   2.481   2.199   3.143  0.1324  0.9943 -2.0004
   39CHL1  H19B 2854   2.398   2.133   3.002  0.2449 -0.4946 -0.5195
   39CHL1  H19C 2855   2.321   2.099   3.163  0.6294  0.4183  1.7296
   39CHL1    C1 2856   2.644   2.011   3.085 -0.3229  0.0700 -0.4778
   39CHL1   H1A 2857   2.685   2.094   3.147 -0.1276 -0.0429 -0.4552
   39CHL1   H1B 2858   2.698   1.915   3.096  1.2887  1.0361  0.4566
   39CHL1    C2 2859   2.659   2.043   2.934  0.2922  1.3712 -0.9128
   39CHL1   H2A 2860   2.760   2.063   2.893  1.4151  0.1596  1.0722
   39CHL1   H2B 2861   2.615   2.144   2.926  0.8404  1.7634  0.5985
   39CHL1   C20 2862   2.390   1.931   3.832 -0.6647 -0.1439 -0.5295
   39CHL1   H20 2863   2.323   2.018   3.816  0.8349  1.0702 -0.4544
   39CHL1   C21 2864   2.526   1.987   3.885  0.5493 -0.3164 -0.3154
   39CHL1  H21A 2865   2.524   2.012   3.993 -0.8757 -1.7313  0.0115
   39CHL1  H21B 2866   2.556   2.072   3.819 -1.9278  0.4496 -0.5441
   39CHL1  H21C 2867   2.599   1.903   3.879  0.3564 -0.4319 -1.3436
   39CHL1   C22 2868   2.321   1.846   3.949  0.0126  0.4001 -0.1061
   39CHL1  H22A 2869   2.290   1.905   4.037 -3.6163  0.8813 -1.5387
   39CHL1  H22B 2870   2.218   1.821   3.918  0.7986  0.2493 -2.9038
   39CHL1   C23 2871   2.397   1.725   3.991 -0.1386  0.1216 -0.4044
   39CHL1  H23A 2872   2.399   1.648   3.911  1.8499 -1.4947  1.0740
   39CHL1  H23B 2873   2.505   1.738   4.013 -0.2325 -0.9069  0.7997
   39CHL1   C24 2874   2.335   1.640   4.106  0.4433  0.0208 -0.2355
   39CHL1  H24A 2875   2.387   1.546   4.133  1.8014  0.6207 -0.6557
   39CHL1  H24B 2876   2.353   1.699   4.198 -0.6444 -0.0012  0.0010
   39CHL1   C25 2877   2.181   1.615   4.106 -0.6058 -0.3311  0.1117
   39CHL1   H25 2878   2.131   1.714   4.101  2.1925  1.1364 -0.7843
   39CHL1   C26 2879   2.147   1.533   3.987  1.2008 -0.3482 -0.0955
   39CHL1  H26A 2880   2.037   1.522   3.971  0.7812  0.5308  1.7752
   39CHL1  H26B 2881   2.183   1.573   3.890 -0.8363  1.2549 -0.2696
   39CHL1  H26C 2882   2.191   1.432   4.001  0.7402 -0.3891  1.2045
   39CHL1   C27 2883   2.139   1.536   4.225 -0.2938  0.5910 -0.1587
   39CHL1  H27A 2884   2.145   1.591   4.321  0.7845  1.3770 -0.6589
   39CHL1  H27B 2885   2.032   1.516   4.203 -0.4998  3.1203 -1.8792
   39CHL1  H27C 2886   2.199   1.442   4.227 -1.6524 -0.3608 -1.6171
   40CHL1    C3 2887   4.946   0.362   2.771 -0.6014  0.5693  0.1135
   40CHL1    H3 2888   4.943   0.252   2.791  0.6087  0.4169 -0.4197
   40CHL1    O3 2889   4.989   0.377   2.638 -0.8089 -0.3458 -0.0286
   40CHL1   H3' 2890   5.077   0.338   2.631 -1.3254 -1.5865  0.1597
   40CHL1    C4 2891   4.833   0.452   2.790  0.6389 -0.0283 -0.4882
   40CHL1   H4A 2892   4.844   0.557   2.757 -2.4758  0.5208 -0.1227
   40CHL1   H4B 2893   4.748   0.421   2.725 -1.4538  1.6817  1.2338
   40CHL1    C5 2894   4.784   0.443   2.929  0.1489 -0.1801 -0.0373
   40CHL1    C6 2895   4.663   0.399   2.957  1.1494 -0.1011 -0.0250
   40CHL1    H6 2896   4.592   0.370   2.877  1.1731  1.0878 -0.4974
   40CHL1    C7 2897   4.606   0.393   3.093  0.5381  0.3537  0.5364
   40CHL1   H7A 2898   4.506   0.443   3.092  0.0992 -0.1936 -4.0917
   40CHL1   H7B 2899   4.586   0.287   3.119  1.2312 -0.3217 -1.5380
   40CHL1    C8 2900   4.690   0.454   3.207  0.2393  0.2392  0.6496
   40CHL1    H8 2901   4.662   0.561   3.214 -0.6546  0.1120 -0.5628
   40CHL1   C14 2902   4.658   0.392   3.347  0.4521 -0.3323  0.7574
   40CHL1   H14 2903   4.680   0.283   3.346  0.3452 -0.3487 -0.1942
   40CHL1   C15 2904   4.511   0.395   3.387  0.1434 -0.0736  0.5012
   40CHL1  H15A 2905   4.467   0.497   3.380  0.3136 -0.0139  0.2684
   40CHL1  H15B 2906   4.444   0.331   3.326  1.5588 -1.0148 -0.1241
   40CHL1   C16 2907   4.515   0.358   3.529 -0.3429 -0.1290  0.0503
   40CHL1  H16A 2908   4.444   0.419   3.588  0.6346  0.5619  0.5302
   40CHL1  H16B 2909   4.482   0.253   3.544  0.9075 -0.3901  1.1509
   40CHL1   C17 2910   4.660   0.370   3.581 -0.7411  0.1518  0.0962
   40CHL1   H17 2911   4.698   0.266   3.572  0.2235  0.0435  3.8646
   40CHL1   C13 2912   4.739   0.440   3.470  0.0317 -0.0543  0.3202
   40CHL1   C18 2913   4.720   0.586   3.493 -0.2372  0.0892  0.1678
   40CHL1  H18A 2914   4.723   0.646   3.399 -0.8803  1.6662  1.1107
   40CHL1  H18B 2915   4.625   0.606   3.548 -0.9700 -2.9438  0.1800
   40CHL1  H18C 2916   4.793   0.625   3.567 -1.5929  0.3930  1.4060
   40CHL1   C12 2917   4.886   0.403   3.446 -0.4858 -0.3719  0.4845
   40CHL1  H12A 2918   4.948   0.451   3.525  1.0811  0.4875 -1.1908
   40CHL1  H12B 2919   4.913   0.295   3.436  1.9393  0.2046  0.2465
   40CHL1   C11 2920   4.934   0.463   3.310 -1.0383  0.2322  0.2353
   40CHL1  H11A 2921   4.927   0.574   3.316  0.5080  0.4785 -1.6438
   40CHL1  H11B 2922   5.033   0.430   3.272 -0.3515  1.9337  0.4829
   40CHL1    C9 2923   4.839   0.426   3.187  0.2194 -0.3437 -0.9117
   40CHL1    H9 2924   4.850   0.316   3.177 -3.0465 -0.8026 -0.8172
   40CHL1   C10 2925   4.884   0.475   3.048 -0.9247  1.0246 -0.0734
   40CHL1   C19 2926   4.900   0.635   3.046  0.2676  0.6652 -0.6624
   40CHL1  H19A 2927   4.797   0.673   3.065 -0.5322 -1.2766 -0.8319
   40CHL1  H19B 2928   4.964   0.665   3.132 -1.8822 -2.0671  2.1027
   40CHL1  H19C 2929   4.944   0.675   2.952  2.0458 -1.5085 -0.8382
   40CHL1    C1 2930   5.010   0.401   3.015  0.4803 -0.1617  0.1421
   40CHL1   H1A 2931   5.094   0.450   3.068  1.3392  0.5108 -1.7412
   40CHL1   H1B 2932   5.004   0.295   3.046 -0.0654  0.1670  1.2017
   40CHL1    C2 2933   5.056   0.405   2.865 -0.5971  0.6278 -0.2024
   40CHL1   H2A 2934   5.138   0.331   2.858 -0.2302  1.0297 -0.1962
   40CHL1   H2B 2935   5.092   0.506   2.835 -2.2671  1.8868  1.7714
   40CHL1   C20 2936   4.674   0.411   3.731 -0.0463 -0.2145  0.1811
   40CHL1   H20 2937   4.643   0.517   3.732 -1.8517 -0.6727  2.7938
   40CHL1   C21 2938   4.817   0.386   3.775  0.1550  0.2469  0.5601
   40CHL1  H21A 2939   4.839   0.279   3.753  1.3099  0.2940  1.4299
   40CHL1  H21B 2940   4.826   0.387   3.886  0.9649 -0.2049  0.5065
   40CHL1  H21C 2941   4.891   0.463   3.745 -0.2056  0.7601  0.9713
   40CHL1   C22 2942   4.567   0.342   3.826  0.3271  0.8501  0.3726
   40CHL1  H22A 2943   4.568   0.407   3.916  1.2457  2.5145 -0.7877
   40CHL1  H22B 2944   4.462   0.350   3.789  0.7205  0.3508 -0.9081
   40CHL1   C23 2945   4.610   0.194   3.855  0.1230 -0.7760 -0.4920
   40CHL1  H23A 2946   4.630   0.142   3.758  1.1639 -0.4124 -0.4921
   40CHL1  H23B 2947   4.705   0.193   3.912 -1.4001  1.9455  2.3572
   40CHL1   C24 2948   4.500   0.116   3.931 -0.4200 -0.4040  0.1653
   40CHL1  H24A 2949   4.476   0.173   4.023 -0.3253 -1.4185  0.8337
   40CHL1  H24B 2950   4.403   0.114   3.875 -0.2348  0.9980 -0.2259
   40CHL1   C25 2951   4.546  -0.025   3.971  0.0079  0.1073 -0.3364
   40CHL1   H25 2952   4.616  -0.054   3.890 -2.6645 -0.5700 -2.5504
   40CHL1   C26 2953   4.624  -0.018   4.101  0.7134 -0.4625 -0.0175
   40CHL1  H26A 2954   4.699   0.064   4.097  2.0139 -1.5481  0.9991
   40CHL1  H26B 2955   4.553  -0.013   4.186  1.3412  1.3994  0.4570
   40CHL1  H26C 2956   4.682  -0.112   4.110 -0.2887 -1.1564 -0.6306
   40CHL1   C27 2957   4.431  -0.128   3.981 -0.4658 -0.1342 -0.9398
   40CHL1  H27A 2958   4.368  -0.135   3.890 -0.7818 -2.7127 -0.5904
   40CHL1  H27B 2959   4.476  -0.225   4.010 -0.3393  0.6952  1.9137
   40CHL1  H27C 2960   4.358  -0.102   4.061 -0.5269 -0.8582 -0.7503
   41CHL1    C3 2961   3.659   4.231   3.080 -0.6311  0.1382 -0.3469
   41CHL1    H3 2962   3.666   4.342   3.078  1.1088  0.0436 -1.3002
   41CHL1    O3 2963   3.682   4.182   2.948  0.0918 -0.0481  0.0463
   41CHL1   H3' 2964   3.774   4.197   2.926  0.4583 -0.7032  1.0827
   41CHL1    C4 2965   3.774   4.178   3.172  0.2354  0.4417  0.1374
   41CHL1   H4A 2966   3.774   4.068   3.159 -1.6055  0.4511 -0.2045
   41CHL1   H4B 2967   3.868   4.221   3.131  0.8234  0.1193  1.1021
   41CHL1    C5 2968   3.757   4.206   3.319  0.9566 -0.2705  0.0030
   41CHL1    C6 2969   3.847   4.268   3.400  0.2664  0.0197 -0.1311
   41CHL1    H6 2970   3.945   4.298   3.358  0.3694  0.9879  0.7626
   41CHL1    C7 2971   3.838   4.266   3.550 -0.1183 -0.6036 -0.3641
   41CHL1   H7A 2972   3.938   4.250   3.595  0.5666  3.4373 -0.0462
   41CHL1   H7B 2973   3.822   4.371   3.583  1.4101 -0.2936 -0.5224
   41CHL1    C8 2974   3.733   4.170   3.603  0.7191 -0.0192 -0.7837
   41CHL1    H8 2975   3.765   4.065   3.593  2.5654  0.3292  0.8754
   41CHL1   C14 2976   3.701   4.203   3.756  0.2933  0.4681  0.6280
   41CHL1   H14 2977   3.678   4.312   3.758  1.0428  0.6387  0.3141
   41CHL1   C15 2978   3.817   4.173   3.855 -0.6300  0.2254  0.4212
   41CHL1  H15A 2979   3.859   4.072   3.830  0.5980  0.8235 -0.0490
   41CHL1  H15B 2980   3.905   4.237   3.832  0.5886 -1.7786 -0.8958
   41CHL1   C16 2981   3.751   4.186   3.995 -0.7786  0.0525  0.0698
   41CHL1  H16A 2982   3.776   4.097   4.057 -1.1012 -0.7215 -0.8826
   41CHL1  H16B 2983   3.782   4.278   4.048 -0.4393  0.9382 -1.5993
   41CHL1   C17 2984   3.596   4.189   3.961 -0.9290  0.1625 -0.2870
   41CHL1   H17 2985   3.565   4.296   3.953  0.3019  0.5176 -0.5100
   41CHL1   C13 2986   3.581   4.139   3.815  0.0949  0.0811 -0.1097
   41CHL1   C18 2987   3.591   3.987   3.815  0.1467  0.5634  0.0630
   41CHL1  H18A 2988   3.671   3.956   3.886  1.7743 -0.5364 -2.1255
   41CHL1  H18B 2989   3.495   3.940   3.844 -0.5894  1.5889 -0.6382
   41CHL1  H18C 2990   3.636   3.944   3.723  1.9761 -1.5380  1.8156
   41CHL1   C12 2991   3.461   4.171   3.731 -0.0174 -0.6348  0.1955
   41CHL1  H12A 2992   3.374   4.119   3.777 -1.7685  1.0421 -1.0402
   41CHL1  H12B 2993   3.450   4.279   3.710  1.7009 -0.8465 -2.3176
   41CHL1   C11 2994   3.476   4.126   3.584  0.2886  0.4511 -0.1562
   41CHL1  H11A 2995   3.486   4.017   3.567  0.6110  0.0673  2.1638
   41CHL1  H11B 2996   3.384   4.164   3.534  0.9941  0.7449 -1.2712
   41CHL1    C9 2997   3.602   4.197   3.526  0.0060  0.1594 -0.5748
   41CHL1    H9 2998   3.591   4.308   3.532  1.2206  0.2127  1.8481
   41CHL1   C10 2999   3.621   4.158   3.375 -0.3889 -0.4263 -0.9247
   41CHL1   C19 3000   3.598   4.009   3.355  0.3886 -0.5723  0.5386
   41CHL1  H19A 3001   3.494   3.971   3.366  1.0137 -2.3913  0.5935
   41CHL1  H19B 3002   3.626   3.966   3.256 -1.4567 -0.0343 -0.2507
   41CHL1  H19C 3003   3.661   3.952   3.427  0.8140 -1.4317 -0.4895
   41CHL1    C1 3004   3.517   4.225   3.288  0.1897  0.0550 -0.3854
   41CHL1   H1A 3005   3.417   4.198   3.329  0.1292 -1.8417 -1.6647
   41CHL1   H1B 3006   3.511   4.335   3.300  1.0413 -0.0876  1.8403
   41CHL1    C2 3007   3.522   4.197   3.134  0.4026 -0.2632 -0.0339
   41CHL1   H2A 3008   3.439   4.259   3.094 -0.7694 -1.5122  0.3816
   41CHL1   H2B 3009   3.502   4.089   3.116 -0.5967 -0.7089  3.1381
   41CHL1   C20 3010   3.517   4.121   4.074 -0.4265  0.0187 -0.3275
   41CHL1   H20 3011   3.533   4.011   4.070 -1.4139 -0.1401 -0.3002
   41CHL1   C21 3012   3.366   4.130   4.051  0.3459 -0.4168  0.4243
   41CHL1  H21A 3013   3.328   4.228   4.016 -0.0977 -0.3274  1.1298
   41CHL1  H21B 3014   3.289   4.085   4.118 -0.8917 -1.1274 -1.3898
   41CHL1  H21C 3015   3.343   4.069   3.961 -0.4999  0.0269  0.3289
   41CHL1   C22 3016   3.548   4.173   4.217 -0.1358  0.4176  0.0003
   41CHL1  H22A 3017   3.650   4.146   4.252 -0.6683  1.2383  2.4041
   41CHL1  H22B 3018   3.556   4.284   4.222 -0.3607  0.4630 -0.5937
   41CHL1   C23 3019   3.441   4.140   4.322 -1.1914 -0.1732 -0.7302
   41CHL1  H23A 3020   3.354   4.208   4.313  0.1040  1.5976 -0.3165
   41CHL1  H23B 3021   3.417   4.032   4.312  0.3689 -0.6306  0.0492
   41CHL1   C24 3022   3.498   4.154   4.469  0.1491 -0.4762 -0.0899
   41CHL1  H24A 3023   3.590   4.091   4.470 -0.7816 -1.9221  2.3523
   41CHL1  H24B 3024   3.523   4.260   4.487  0.4683 -0.6490  0.4998
   41CHL1   C25 3025   3.410   4.100   4.580  0.5299  0.2626  0.4435
   41CHL1   H25 3026   3.387   3.995   4.553  1.9787 -0.4965  1.9663
   41CHL1   C26 3027   3.491   4.094   4.708 -0.2915  0.4511  0.2282
   41CHL1  H26A 3028   3.424   4.070   4.792 -1.7499 -0.5556 -1.1737
   41CHL1  H26B 3029   3.571   4.018   4.696 -1.9242 -1.1666 -0.8569
   41CHL1  H26C 3030   3.544   4.190   4.729  1.7805 -0.1916 -1.6854
   41CHL1   C27 3031   3.284   4.186   4.592 -0.0580 -0.0442 -0.4783
   41CHL1  H27A 3032   3.217   4.162   4.506 -0.7671 -1.0579  0.3336
   41CHL1  H27B 3033   3.223   4.166   4.683  0.8550 -2.8118 -0.3647
   41CHL1  H27C 3034   3.301   4.294   4.578  1.0924 -0.2538 -0.7738
   42CHL1    C3 3035   5.486   0.782   2.968 -0.4460  0.4852  0.1297
   42CHL1    H3 3036   5.494   0.671   2.969 -3.1020  0.2140  1.6023
   42CHL1    O3 3037   5.491   0.840   2.836  0.0484 -0.0078 -0.2045
   42CHL1   H3' 3038   5.427   0.789   2.785 -1.2222  0.2963  1.0091
   42CHL1    C4 3039   5.358   0.830   3.024 -0.5638 -0.0405  0.3308
   42CHL1   H4A 3040   5.342   0.938   3.003 -1.8424 -0.3964 -0.6253
   42CHL1   H4B 3041   5.272   0.783   2.972 -1.7611  0.8991  1.4249
   42CHL1    C5 3042   5.345   0.803   3.170  0.0427 -0.4738  0.0512
   42CHL1    C6 3043   5.259   0.716   3.218 -0.2494 -0.4216  0.2366
   42CHL1    H6 3044   5.187   0.676   3.145 -0.5258  0.3825  0.0697
   42CHL1    C7 3045   5.240   0.678   3.358  0.1851  0.1247  0.4161
   42CHL1   H7A 3046   5.131   0.683   3.380  0.2934 -2.4186  1.9392
   42CHL1   H7B 3047   5.260   0.569   3.372  0.6347 -0.0079 -1.0658
   42CHL1    C8 3048   5.311   0.770   3.460  0.4509 -0.2056 -0.0831
   42CHL1    H8 3049   5.251   0.863   3.457  2.4933  1.2398  1.0380
   42CHL1   C14 3050   5.308   0.708   3.594  0.1457  0.0710 -0.4680
   42CHL1   H14 3051   5.368   0.614   3.589  0.4683  0.3087 -1.1303
   42CHL1   C15 3052   5.180   0.657   3.651  0.8613 -0.1730 -0.4288
   42CHL1  H15A 3053   5.101   0.730   3.625  1.6785  1.4671  1.4406
   42CHL1  H15B 3054   5.162   0.559   3.602 -1.5171 -0.8794  1.6704
   42CHL1   C16 3055   5.203   0.646   3.803  0.4702 -0.1063  0.1845
   42CHL1  H16A 3056   5.130   0.715   3.850 -1.7056 -2.7950  1.0052
   42CHL1  H16B 3057   5.191   0.543   3.842 -0.4272 -1.2491 -2.7854
   42CHL1   C17 3058   5.347   0.694   3.823 -0.6370 -0.6970  0.0287
   42CHL1   H17 3059   5.408   0.604   3.802  0.8842  0.6917 -1.9107
   42CHL1   C13 3060   5.380   0.791   3.700 -0.1415  0.5816 -1.0897
   42CHL1   C18 3061   5.306   0.924   3.728  0.3989 -0.4713 -0.4901
   42CHL1  H18A 3062   5.203   0.908   3.768  0.4207 -3.6850 -1.4506
   42CHL1  H18B 3063   5.361   0.993   3.796 -0.9282  0.1527 -0.0146
   42CHL1  H18C 3064   5.285   0.974   3.631  2.4116  0.7939 -0.3222
   42CHL1   C12 3065   5.524   0.822   3.651 -0.1719 -0.1773 -0.6823
   42CHL1  H12A 3066   5.570   0.896   3.719  1.7637 -0.2620 -1.8494
   42CHL1  H12B 3067   5.585   0.730   3.648 -0.1523 -0.1599 -0.8146
   42CHL1   C11 3068   5.535   0.883   3.511  0.2418  0.4158 -0.4509
   42CHL1  H11A 3069   5.511   0.992   3.518  0.6953  0.4450  0.9902
   42CHL1  H11B 3070   5.643   0.874   3.486  0.4886 -0.4992  0.8375
   42CHL1    C9 3071   5.453   0.812   3.406 -0.1818 -0.1047 -0.4297
   42CHL1    H9 3072   5.498   0.710   3.403  0.2441  0.0520  0.4074
   42CHL1   C10 3073   5.461   0.860   3.260 -0.0519  0.1350 -0.1368
   42CHL1   C19 3074   5.431   1.013   3.271  0.2195  0.2993  0.6120
   42CHL1  H19A 3075   5.515   1.063   3.323  1.8320 -1.7010  0.0561
   42CHL1  H19B 3076   5.403   1.064   3.176 -0.4260 -1.2062 -0.0523
   42CHL1  H19C 3077   5.334   1.032   3.323 -0.9450 -0.4451 -1.1960
   42CHL1    C1 3078   5.595   0.813   3.193 -0.0835  0.3677 -0.8957
   42CHL1   H1A 3079   5.686   0.854   3.243 -0.4778 -1.4791  1.5771
   42CHL1   H1B 3080   5.607   0.703   3.205  1.3345  0.7471  2.2700
   42CHL1    C2 3081   5.605   0.850   3.047  0.3366  1.3408 -0.0203
   42CHL1   H2A 3082   5.701   0.815   3.002  1.2028 -0.1536  2.7646
   42CHL1   H2B 3083   5.585   0.959   3.045 -1.7457  1.0978  2.2682
   42CHL1   C20 3084   5.360   0.745   3.968 -1.3034  0.1814 -0.1182
   42CHL1   H20 3085   5.330   0.852   3.972  2.9804  1.5605  0.3556
   42CHL1   C21 3086   5.518   0.755   3.987 -0.7358 -0.2258 -0.7147
   42CHL1  H21A 3087   5.544   0.785   4.091 -0.0231  0.3445 -1.0533
   42CHL1  H21B 3088   5.564   0.838   3.929 -2.0534  2.7795  2.2188
   42CHL1  H21C 3089   5.567   0.658   3.965  0.4043  0.4753 -1.4019
   42CHL1   C22 3090   5.290   0.666   4.082 -0.0486 -0.1317 -0.6203
   42CHL1  H22A 3091   5.183   0.660   4.054 -0.4045  0.2545  0.6467
   42CHL1  H22B 3092   5.335   0.564   4.091 -0.1100  0.0118  2.1406
   42CHL1   C23 3093   5.292   0.733   4.219  0.2312  0.3425  0.1833
   42CHL1  H23A 3094   5.388   0.697   4.263  0.1714 -0.1510 -0.0923
   42CHL1  H23B 3095   5.306   0.842   4.204  1.2101  0.0020 -1.5984
   42CHL1   C24 3096   5.176   0.696   4.311  0.1337  0.6572 -1.1978
   42CHL1  H24A 3097   5.079   0.751   4.306 -0.8083 -0.6556  0.9387
   42CHL1  H24B 3098   5.150   0.588   4.305  0.0468  0.5423  0.6317
   42CHL1   C25 3099   5.217   0.716   4.458 -0.1349  0.3049  0.0617
   42CHL1   H25 3100   5.247   0.821   4.477  1.0554  0.1299 -0.6675
   42CHL1   C26 3101   5.088   0.701   4.545  0.1745  0.0678  0.4339
   42CHL1  H26A 3102   5.018   0.786   4.535 -1.3814 -1.1162  0.8798
   42CHL1  H26B 3103   5.046   0.604   4.510 -0.2299  0.8459 -1.3412
   42CHL1  H26C 3104   5.114   0.693   4.653 -0.8638  0.2605  0.7048
   42CHL1   C27 3105   5.326   0.620   4.505  0.4878  0.6190 -0.5775
   42CHL1  H27A 3106   5.311   0.516   4.467 -0.1329 -0.6705  2.7727
   42CHL1  H27B 3107   5.425   0.641   4.461 -0.0620 -1.1181 -2.8053
   42CHL1  H27C 3108   5.335   0.624   4.616 -3.0756  4.5047 -0.1835
   43CHL1    C3 3109   2.624   4.324   3.123 -0.3412  0.1959 -0.6678
   43CHL1    H3 3110   2.705   4.392   3.156  0.0307  0.1866 -1.5420
   43CHL1    O3 3111   2.609   4.313   2.979 -0.2325  0.1313 -0.1581
   43CHL1   H3' 3112   2.662   4.237   2.952 -0.6439 -1.7037  3.6157
   43CHL1    C4 3113   2.642   4.187   3.183  0.2003  0.3615  0.4733
   43CHL1   H4A 3114   2.563   4.128   3.132 -0.7173  1.5164  0.5255
   43CHL1   H4B 3115   2.736   4.143   3.143 -1.0642 -2.1602  0.1193
   43CHL1    C5 3116   2.645   4.184   3.336  0.1655  0.7055 -0.1966
   43CHL1    C6 3117   2.749   4.137   3.410  0.6679 -0.2108  0.0337
   43CHL1    H6 3118   2.836   4.088   3.364 -0.1485 -1.0040 -0.7126
   43CHL1    C7 3119   2.749   4.129   3.559  0.0433 -0.3238 -0.3130
   43CHL1   H7A 3120   2.788   4.031   3.595 -0.3310 -0.1645  0.5473
   43CHL1   H7B 3121   2.814   4.210   3.599  0.9696 -1.2487  0.1323
   43CHL1    C8 3122   2.604   4.143   3.612 -0.1682 -0.2032 -0.6592
   43CHL1    H8 3123   2.555   4.045   3.592 -1.0013  0.0984 -0.1939
   43CHL1   C14 3124   2.616   4.180   3.763 -0.2710 -0.4943  0.6687
   43CHL1   H14 3125   2.674   4.275   3.767 -1.3815  0.1761  1.4718
   43CHL1   C15 3126   2.704   4.084   3.854 -0.3670  0.3619  0.1970
   43CHL1  H15A 3127   2.666   3.981   3.839 -2.1718  1.1449 -1.0565
   43CHL1  H15B 3128   2.813   4.087   3.835 -0.4245 -0.0355 -0.2395
   43CHL1   C16 3129   2.669   4.117   3.997 -0.2646  0.0925 -0.0406
   43CHL1  H16A 3130   2.641   4.026   4.055  0.6392  0.0106  0.2846
   43CHL1  H16B 3131   2.754   4.171   4.043  0.1137 -1.5891  1.3408
   43CHL1   C17 3132   2.553   4.222   3.983  0.1942  0.2962 -1.0394
   43CHL1   H17 3133   2.602   4.320   3.968 -0.8467  0.9005 -0.5965
   43CHL1   C13 3134   2.488   4.197   3.840 -0.4345  0.2325  0.0785
   43CHL1   C18 3135   2.404   4.077   3.843 -0.2134  0.0172  0.0386
   43CHL1  H18A 3136   2.371   4.036   3.745  0.4948  1.7123 -0.9449
   43CHL1  H18B 3137   2.443   3.995   3.908 -1.6579  0.1601  1.1252
   43CHL1  H18C 3138   2.303   4.103   3.881 -0.7107 -0.0192 -1.1838
   43CHL1   C12 3139   2.417   4.313   3.772  0.5456 -0.9012  0.0234
   43CHL1  H12A 3140   2.314   4.341   3.802  0.6794 -2.0175  1.6603
   43CHL1  H12B 3141   2.484   4.402   3.770 -1.6347  0.8442  0.6213
   43CHL1   C11 3142   2.394   4.285   3.626 -0.6650  0.6844 -0.3156
   43CHL1  H11A 3143   2.335   4.192   3.624  1.7160 -0.9254 -0.4751
   43CHL1  H11B 3144   2.335   4.367   3.580 -1.7013  0.9635  1.4384
   43CHL1    C9 3145   2.524   4.257   3.550 -0.6744  0.1129 -0.0648
   43CHL1    H9 3146   2.591   4.345   3.544  1.3548 -1.4320 -1.9502
   43CHL1   C10 3147   2.515   4.239   3.400  0.3446  0.2823  0.3128
   43CHL1   C19 3148   2.411   4.131   3.364 -0.9022 -0.0779 -0.4198
   43CHL1  H19A 3149   2.397   4.109   3.257  1.9919 -0.1438 -0.8623
   43CHL1  H19B 3150   2.435   4.045   3.431 -1.0189  2.0036  2.5154
   43CHL1  H19C 3151   2.313   4.165   3.403 -0.5738  0.1149  0.2574
   43CHL1    C1 3152   2.479   4.374   3.334  0.2982 -0.7284 -0.3507
   43CHL1   H1A 3153   2.375   4.409   3.354  0.1929 -1.2173 -0.0280
   43CHL1   H1B 3154   2.546   4.456   3.368 -1.4265  0.7680 -0.3599
   43CHL1    C2 3155   2.490   4.379   3.182  0.5754 -0.1252  0.0069
   43CHL1   H2A 3156   2.469   4.480   3.140 -2.3333  0.0521  1.5727
   43CHL1   H2B 3157   2.410   4.317   3.135  1.0099 -0.7878  0.1338
   43CHL1   C20 3158   2.462   4.239   4.101 -0.0027 -0.3180 -0.8059
   43CHL1   H20 3159   2.401   4.146   4.108  1.9833 -2.0086 -3.6726
   43CHL1   C21 3160   2.373   4.362   4.081 -0.2974  0.2247 -0.1479
   43CHL1  H21A 3161   2.316   4.362   4.176  2.3147  0.6046  1.5106
   43CHL1  H21B 3162   2.305   4.346   3.994 -0.6313 -0.5857  0.2592
   43CHL1  H21C 3163   2.433   4.454   4.060 -1.1640  0.4304 -2.0002
   43CHL1   C22 3164   2.545   4.242   4.236 -0.0778  0.1235 -0.6930
   43CHL1  H22A 3165   2.604   4.148   4.237 -0.2159  0.0342  0.3941
   43CHL1  H22B 3166   2.616   4.326   4.241  1.7922 -1.4254  0.0601
   43CHL1   C23 3167   2.457   4.232   4.365 -0.1985  1.0777  0.4307
   43CHL1  H23A 3168   2.516   4.235   4.460  0.6049  0.2586 -0.0267
   43CHL1  H23B 3169   2.389   4.320   4.360  0.0557  1.2893  0.6503
   43CHL1   C24 3170   2.366   4.101   4.361  0.0278 -0.2239  0.2780
   43CHL1  H24A 3171   2.283   4.132   4.295 -0.3370  1.1028  1.3129
   43CHL1  H24B 3172   2.425   4.022   4.309  0.1494 -0.4798  0.7978
   43CHL1   C25 3173   2.326   4.035   4.490  0.5940  0.0490  0.6844
   43CHL1   H25 3174   2.276   3.941   4.459  1.3417 -0.4172  0.8628
   43CHL1   C26 3175   2.442   3.981   4.579  0.0860  0.6301  0.2820
   43CHL1  H26A 3176   2.395   3.939   4.671  0.3923  2.1087  1.1479
   43CHL1  H26B 3177   2.502   3.905   4.525  0.3043  1.1934 -0.2711
   43CHL1  H26C 3178   2.499   4.069   4.617 -1.0379  2.7942 -2.6910
   43CHL1   C27 3179   2.229   4.128   4.563  0.5714  0.0081 -0.1244
   43CHL1  H27A 3180   2.281   4.216   4.606 -0.0935  0.5310 -0.3721
   43CHL1  H27B 3181   2.151   4.162   4.492  0.3931 -1.0488 -0.4541
   43CHL1  H27C 3182   2.179   4.082   4.651  0.0761  0.5150 -0.1410
   44CHL1    C3 3183   6.378   3.418   2.964  0.0484  0.2848 -1.0680
   44CHL1    H3 3184   6.333   3.332   3.018  0.3864  1.9543  2.0879
   44CHL1    O3 3185   6.370   3.403   2.823 -0.8891 -0.2372 -0.1078
   44CHL1   H3' 3186   6.448   3.353   2.798 -0.7585  0.8847 -2.1079
   44CHL1    C4 3187   6.284   3.540   3.009  0.0736  0.1755 -1.1534
   44CHL1   H4A 3188   6.336   3.622   2.956  1.1123  0.3489  0.0844
   44CHL1   H4B 3189   6.179   3.528   2.973  0.7143  0.1666 -3.1373
   44CHL1    C5 3190   6.290   3.549   3.167 -0.0327 -0.2341  0.1617
   44CHL1    C6 3191   6.172   3.559   3.233 -0.3321  0.1955  0.5476
   44CHL1    H6 3192   6.076   3.568   3.180  1.2750  3.7461 -2.2303
   44CHL1    C7 3193   6.162   3.569   3.381  0.4786 -0.1137  0.2194
   44CHL1   H7A 3194   6.107   3.663   3.402  1.7159  0.8516 -0.6895
   44CHL1   H7B 3195   6.117   3.477   3.426  1.9497 -0.8067  0.3273
   44CHL1    C8 3196   6.300   3.595   3.452  0.2831 -1.0335  0.0763
   44CHL1    H8 3197   6.320   3.704   3.443  1.4603 -1.3379 -1.4718
   44CHL1   C14 3198   6.294   3.548   3.591 -0.3460  0.5086  0.2184
   44CHL1   H14 3199   6.275   3.438   3.588  1.5253  0.1822 -0.5847
   44CHL1   C15 3200   6.180   3.601   3.683  0.0103 -0.1312  0.1252
   44CHL1  H15A 3201   6.161   3.710   3.674  0.6291  0.0297  0.6615
   44CHL1  H15B 3202   6.090   3.545   3.651  0.7923 -0.5571 -1.3820
   44CHL1   C16 3203   6.221   3.567   3.826 -0.9769 -0.3276  0.2063
   44CHL1  H16A 3204   6.218   3.658   3.889  1.5401  1.6485 -2.2615
   44CHL1  H16B 3205   6.147   3.496   3.869 -0.6957 -1.3209 -0.8811
   44CHL1   C17 3206   6.365   3.507   3.809  0.4199  0.6372  0.1091
   44CHL1   H17 3207   6.350   3.400   3.783  2.1618 -0.3246  2.7152
   44CHL1   C13 3208   6.424   3.565   3.673  0.6459 -0.1702 -0.2571
   44CHL1   C18 3209   6.464   3.711   3.698  0.8348  0.3522 -0.1895
   44CHL1  H18A 3210   6.383   3.746   3.765 -0.6009 -1.7678 -0.7221
   44CHL1  H18B 3211   6.567   3.698   3.738  0.7255  3.0150  1.1774
   44CHL1  H18C 3212   6.467   3.767   3.602 -1.5626 -1.9662 -1.7445
   44CHL1   C12 3213   6.534   3.483   3.607 -0.1306  1.1435 -0.5963
   44CHL1  H12A 3214   6.634   3.504   3.651 -0.5263  1.2199  0.2704
   44CHL1  H12B 3215   6.521   3.373   3.609 -0.3829  1.1750 -0.5336
   44CHL1   C11 3216   6.548   3.532   3.460  0.1930  0.9721 -0.2964
   44CHL1  H11A 3217   6.583   3.637   3.467  0.8750  0.6756  1.2082
   44CHL1  H11B 3218   6.626   3.465   3.419 -0.9828 -0.8924  0.3702
   44CHL1    C9 3219   6.419   3.520   3.381  0.0928 -0.1334 -0.4099
   44CHL1    H9 3220   6.391   3.412   3.383  0.8136 -0.3259 -0.5869
   44CHL1   C10 3221   6.430   3.554   3.229 -0.4238 -0.7767 -0.3129
   44CHL1   C19 3222   6.480   3.699   3.222 -0.4017 -1.0497  0.2695
   44CHL1  H19A 3223   6.491   3.734   3.117  0.4219  0.3281  0.7950
   44CHL1  H19B 3224   6.421   3.775   3.277  2.0203  0.1111  1.3979
   44CHL1  H19C 3225   6.581   3.711   3.265 -0.0620  1.0804 -0.9994
   44CHL1    C1 3226   6.537   3.458   3.162 -0.3289 -0.1941  0.3227
   44CHL1   H1A 3227   6.638   3.470   3.207  0.7987 -2.6280 -1.3617
   44CHL1   H1B 3228   6.502   3.359   3.197 -0.5371 -0.8006 -1.4867
   44CHL1    C2 3229   6.521   3.444   3.006  0.1402 -0.2204  0.4811
   44CHL1   H2A 3230   6.586   3.359   2.977  1.4936  1.2152 -0.9389
   44CHL1   H2B 3231   6.567   3.535   2.961 -0.4214  0.7180  1.7491
   44CHL1   C20 3232   6.452   3.514   3.933 -0.4111  0.0425 -0.3282
   44CHL1   H20 3233   6.560   3.505   3.907  0.1349 -3.7385  2.4647
   44CHL1   C21 3234   6.420   3.391   4.020  0.2811  0.1222 -0.2684
   44CHL1  H21A 3235   6.492   3.381   4.105 -0.4150  1.4325  0.5067
   44CHL1  H21B 3236   6.411   3.308   3.947 -0.1957  0.9027 -1.1185
   44CHL1  H21C 3237   6.321   3.405   4.069  0.0749  1.7661 -1.0744
   44CHL1   C22 3238   6.439   3.642   4.026  0.2278 -0.4442 -0.0332
   44CHL1  H22A 3239   6.449   3.735   3.968  0.5189 -0.3777  0.1193
   44CHL1  H22B 3240   6.340   3.649   4.075 -0.5018  0.2479 -1.5532
   44CHL1   C23 3241   6.548   3.655   4.130 -0.0223 -0.2339 -0.2775
   44CHL1  H23A 3242   6.544   3.566   4.196  0.1427 -1.8400 -2.3115
   44CHL1  H23B 3243   6.650   3.651   4.086  0.5481  2.4733  0.5849
   44CHL1   C24 3244   6.560   3.793   4.197 -0.2046  0.0375  0.7840
   44CHL1  H24A 3245   6.548   3.867   4.115  1.4763  0.0477  0.5020
   44CHL1  H24B 3246   6.470   3.793   4.261 -2.2035 -0.3655 -1.8679
   44CHL1   C25 3247   6.683   3.825   4.279  0.7782 -0.0330 -0.2274
   44CHL1   H25 3248   6.780   3.808   4.226  0.1612 -1.4621 -0.9543
   44CHL1   C26 3249   6.685   3.976   4.317 -0.3757 -0.3857  0.1090
   44CHL1  H26A 3250   6.647   4.033   4.229  2.4397  0.2064 -0.8344
   44CHL1  H26B 3251   6.612   3.991   4.398  1.3032 -0.8313  1.7678
   44CHL1  H26C 3252   6.787   4.001   4.354 -0.8069 -0.2873  1.2513
   44CHL1   C27 3253   6.679   3.723   4.395 -0.3660 -0.3358  0.1023
   44CHL1  H27A 3254   6.771   3.726   4.457 -0.8162 -1.8691  0.8992
   44CHL1  H27B 3255   6.586   3.738   4.454 -2.0766 -3.0641 -1.6856
   44CHL1  H27C 3256   6.676   3.622   4.348 -0.2120 -1.0314  1.5285
   45CHL1    C3 3257   1.993   2.578   2.727 -0.2516 -0.6268 -0.0496
   45CHL1    H3 3258   2.066   2.635   2.788 -1.5673  0.7438  0.2803
   45CHL1    O3 3259   2.015   2.612   2.593  0.1243  0.4539  0.1034
   45CHL1   H3' 3260   1.926   2.591   2.563  0.7913 -0.4702 -1.3269
   45CHL1    C4 3261   2.001   2.430   2.755 -0.1038  0.5667  0.2235
   45CHL1   H4A 3262   1.923   2.371   2.702  0.7920 -0.0174 -0.4807
   45CHL1   H4B 3263   2.101   2.395   2.722 -0.5666  0.6575 -1.3670
   45CHL1    C5 3264   1.976   2.401   2.901 -0.1484  0.1277 -0.3067
   45CHL1    C6 3265   2.068   2.342   2.980  0.1785  0.1268 -0.3516
   45CHL1    H6 3266   2.163   2.319   2.929  0.1618 -1.8944  0.4240
   45CHL1    C7 3267   2.056   2.319   3.126 -0.1203 -0.6231 -0.2016
   45CHL1   H7A 3268   2.098   2.218   3.148 -1.1278 -0.8709  0.6400
   45CHL1   H7B 3269   2.123   2.389   3.181 -2.7559  0.9903  1.1295
   45CHL1    C8 3270   1.908   2.330   3.181 -0.3742 -1.0912 -0.0108
   45CHL1    H8 3271   1.864   2.238   3.137 -0.6542 -0.8342 -0.2777
   45CHL1   C14 3272   1.903   2.322   3.332  0.9282 -0.3979 -1.5015
   45CHL1   H14 3273   1.934   2.423   3.366 -0.1553 -0.3934 -0.4968
   45CHL1   C15 3274   1.983   2.217   3.415  1.2861  0.3714 -0.0640
   45CHL1  H15A 3275   1.968   2.116   3.370  0.9946  0.4217 -0.0782
   45CHL1  H15B 3276   2.093   2.236   3.419  1.8930 -2.6504  0.2114
   45CHL1   C16 3277   1.913   2.220   3.551  0.2717  0.2366  0.3958
   45CHL1  H16A 3278   1.869   2.120   3.572 -0.8737  0.0928 -2.2836
   45CHL1  H16B 3279   1.986   2.243   3.631  1.3874  0.9343 -0.7889
   45CHL1   C17 3280   1.780   2.309   3.539 -0.0407 -0.0500 -0.0737
   45CHL1   H17 3281   1.810   2.413   3.564  1.4309 -0.7838  1.3942
   45CHL1   C13 3282   1.758   2.315   3.388  0.0326 -0.3272 -0.1618
   45CHL1   C18 3283   1.683   2.188   3.345  0.2508  0.0279  0.5287
   45CHL1  H18A 3284   1.676   2.176   3.234  0.5139 -2.0665  0.7063
   45CHL1  H18B 3285   1.739   2.100   3.383  2.3423  0.5012 -1.2379
   45CHL1  H18C 3286   1.580   2.194   3.384  1.0077  2.5114  2.3942
   45CHL1   C12 3287   1.693   2.445   3.338 -0.1803  0.0996 -0.7818
   45CHL1  H12A 3288   1.583   2.454   3.355 -0.0730 -0.9459  0.6790
   45CHL1  H12B 3289   1.738   2.542   3.368  0.6156  0.0439 -1.7712
   45CHL1   C11 3290   1.691   2.450   3.185 -0.4249  0.4113  0.1403
   45CHL1  H11A 3291   1.629   2.367   3.147 -0.6912 -0.5923  2.5948
   45CHL1  H11B 3292   1.639   2.542   3.151  0.8257  1.0583 -0.1091
   45CHL1    C9 3293   1.832   2.449   3.122 -0.2683  0.3466  0.1661
   45CHL1    H9 3294   1.878   2.543   3.158 -0.3031 -0.0993  1.4296
   45CHL1   C10 3295   1.849   2.457   2.965  0.3137 -0.1848 -0.3215
   45CHL1   C19 3296   1.731   2.378   2.909  0.2983  0.5789 -0.4072
   45CHL1  H19A 3297   1.741   2.365   2.799 -1.3589 -1.1701 -0.4015
   45CHL1  H19B 3298   1.732   2.272   2.942  0.4193 -0.2331 -2.7961
   45CHL1  H19C 3299   1.630   2.423   2.924  0.1039  0.3037 -0.8788
   45CHL1    C1 3300   1.842   2.606   2.919  1.1372  1.0698 -0.0283
   45CHL1   H1A 3301   1.738   2.627   2.952  1.3682  0.6272  1.0035
   45CHL1   H1B 3302   1.916   2.664   2.978  0.5585  0.6693  1.1256
   45CHL1    C2 3303   1.858   2.635   2.769 -0.0293  0.1550 -0.3074
   45CHL1   H2A 3304   1.844   2.740   2.737 -1.0213  0.5701  1.3899
   45CHL1   H2B 3305   1.785   2.572   2.712 -1.1413  0.8324  0.3287
   45CHL1   C20 3306   1.667   2.280   3.635  0.3166 -0.4651  0.2672
   45CHL1   H20 3307   1.632   2.176   3.618 -0.9480  0.2660 -1.9662
   45CHL1   C21 3308   1.543   2.359   3.595 -0.4679 -0.3761 -0.7861
   45CHL1  H21A 3309   1.493   2.319   3.504  0.6735 -1.2692 -1.0440
   45CHL1  H21B 3310   1.561   2.467   3.577  0.4003 -0.8326 -3.0073
   45CHL1  H21C 3311   1.469   2.360   3.677 -0.1804 -1.4343 -0.4979
   45CHL1   C22 3312   1.697   2.305   3.789  0.3043 -0.1743 -1.0153
   45CHL1  H22A 3313   1.796   2.256   3.807  0.3618  0.1475 -0.4207
   45CHL1  H22B 3314   1.691   2.415   3.804 -0.3710 -0.1791 -1.2291
   45CHL1   C23 3315   1.593   2.237   3.882 -0.0643  0.2495  0.3165
   45CHL1  H23A 3316   1.488   2.270   3.864  0.3973  1.5947 -0.0547
   45CHL1  H23B 3317   1.591   2.129   3.858 -0.4688  0.4218 -0.4512
   45CHL1   C24 3318   1.636   2.249   4.029  0.4536  1.6718  0.3473
   45CHL1  H24A 3319   1.741   2.215   4.032  0.3496  1.4298  1.4158
   45CHL1  H24B 3320   1.621   2.357   4.050 -1.3546  1.7800 -1.1200
   45CHL1   C25 3321   1.535   2.184   4.143 -0.2854 -0.2051  0.6105
   45CHL1   H25 3322   1.582   2.200   4.242  0.6660 -0.7568  0.2590
   45CHL1   C26 3323   1.395   2.247   4.137  0.3757 -0.1256  0.0854
   45CHL1  H26A 3324   1.326   2.208   4.214 -1.5865 -0.8478 -1.9384
   45CHL1  H26B 3325   1.399   2.358   4.144  1.1297 -0.1121 -0.4949
   45CHL1  H26C 3326   1.352   2.217   4.039  1.4015 -2.1554  0.1940
   45CHL1   C27 3327   1.528   2.032   4.129 -0.7977  0.7065  0.1095
   45CHL1  H27A 3328   1.449   2.007   4.056  0.7541  1.1166 -1.7879
   45CHL1  H27B 3329   1.622   1.997   4.080 -0.7271 -1.0955  1.4101
   45CHL1  H27C 3330   1.528   1.983   4.229  0.7019  0.6793  0.1239
   46CHL1    C3 3331   4.556   4.032   3.139 -0.2516  0.2068 -0.0852
   46CHL1    H3 3332   4.641   4.103   3.141 -0.0153  0.2463 -3.8714
   46CHL1    O3 3333   4.524   4.025   3.001  0.2471  0.1921 -0.3590
   46CHL1   H3' 3334   4.459   3.957   2.982 -0.5999  1.0178 -0.4519
   46CHL1    C4 3335   4.606   3.899   3.189  0.0877 -0.0170 -0.7455
   46CHL1   H4A 3336   4.524   3.825   3.180  0.3141 -0.3289 -0.2422
   46CHL1   H4B 3337   4.692   3.860   3.131  1.0517  1.8321 -0.6287
   46CHL1    C5 3338   4.656   3.920   3.330  0.0373  0.0153 -0.2226
   46CHL1    C6 3339   4.776   3.891   3.366 -0.5485 -0.7459  0.2156
   46CHL1    H6 3340   4.847   3.853   3.291 -1.5208  1.5143 -1.9702
   46CHL1    C7 3341   4.827   3.902   3.506 -0.0071 -0.4206 -0.4056
   46CHL1   H7A 3342   4.885   3.815   3.544 -0.2084  0.5558  2.3590
   46CHL1   H7B 3343   4.898   3.987   3.519  0.2535 -0.8672  1.3972
   46CHL1    C8 3344   4.718   3.927   3.616 -0.1931  0.0875  0.2614
   46CHL1    H8 3345   4.664   3.832   3.637 -0.1361 -0.3612 -1.4805
   46CHL1   C14 3346   4.779   3.977   3.743 -0.0679  0.0608  0.7331
   46CHL1   H14 3347   4.819   4.080   3.726 -1.5144  0.9333  2.2619
   46CHL1   C15 3348   4.885   3.894   3.808 -0.2326 -0.5553  0.0547
   46CHL1  H15A 3349   4.850   3.788   3.810  0.5516 -0.9180 -2.2093
   46CHL1  H15B 3350   4.987   3.893   3.764  0.0458  0.1558  0.6587
   46CHL1   C16 3351   4.888   3.935   3.957 -0.3442  1.0352 -0.5729
   46CHL1  H16A 3352   4.878   3.853   4.032 -0.6338  3.6193  2.4335
   46CHL1  H16B 3353   4.982   3.981   3.996  0.5474 -1.7781  0.9172
   46CHL1   C17 3354   4.770   4.037   3.975  0.3768  0.5200  0.4459
   46CHL1   H17 3355   4.828   4.130   3.953  3.1584 -1.0383  0.6687
   46CHL1   C13 3356   4.674   3.997   3.857  0.0068 -0.3321 -0.1630
   46CHL1   C18 3357   4.605   3.867   3.898  0.0581  0.6730 -0.0855
   46CHL1  H18A 3358   4.661   3.775   3.926  0.5946  0.9489 -0.2232
   46CHL1  H18B 3359   4.536   3.884   3.983  0.6704  0.8629  0.3855
   46CHL1  H18C 3360   4.540   3.831   3.816  0.3492 -0.9511  0.3554
   46CHL1   C12 3361   4.581   4.107   3.805  0.4250 -0.2109  0.1966
   46CHL1  H12A 3362   4.503   4.142   3.875 -1.1644  0.6740 -1.8963
   46CHL1  H12B 3363   4.646   4.196   3.790  2.7740 -1.9365 -0.4435
   46CHL1   C11 3364   4.510   4.074   3.673  0.0240  0.3981  0.8977
   46CHL1  H11A 3365   4.441   3.989   3.689  0.5997 -0.4228 -0.7700
   46CHL1  H11B 3366   4.454   4.157   3.624  1.3344  1.0581  0.4676
   46CHL1    C9 3367   4.612   4.027   3.561 -0.1189  0.4367 -0.4187
   46CHL1    H9 3368   4.667   4.123   3.547  0.3950  0.6509  2.3583
   46CHL1   C10 3369   4.548   3.984   3.429  0.5330 -0.1777  0.1259
   46CHL1   C19 3370   4.442   3.872   3.450 -0.8513  0.6849 -0.1378
   46CHL1  H19A 3371   4.401   3.835   3.353 -0.5752 -0.4888  0.1716
   46CHL1  H19B 3372   4.482   3.783   3.504 -2.5305  0.2764  0.5104
   46CHL1  H19C 3373   4.360   3.907   3.516  1.3181 -0.1097  3.1904
   46CHL1    C1 3374   4.476   4.100   3.356 -0.5741  0.6772 -0.0028
   46CHL1   H1A 3375   4.381   4.109   3.413 -0.6589 -3.9457  1.0063
   46CHL1   H1B 3376   4.543   4.188   3.364 -0.8261  0.9580 -0.8555
   46CHL1    C2 3377   4.434   4.077   3.216 -0.0808  0.0570  1.1650
   46CHL1   H2A 3378   4.395   4.172   3.174 -0.7033 -0.7009 -0.0309
   46CHL1   H2B 3379   4.360   3.995   3.203  0.9647 -0.4188 -3.0815
   46CHL1   C20 3380   4.721   4.050   4.113 -0.4678  0.1711  0.0708
   46CHL1   H20 3381   4.663   3.959   4.141 -2.8344  1.8656  0.9556
   46CHL1   C21 3382   4.616   4.164   4.117 -0.1817 -0.5031 -0.1763
   46CHL1  H21A 3383   4.520   4.125   4.077 -0.2545 -2.0549  1.3945
   46CHL1  H21B 3384   4.654   4.256   4.069  0.2982 -0.7442 -0.2649
   46CHL1  H21C 3385   4.579   4.180   4.221 -1.0649  0.4371 -0.6155
   46CHL1   C22 3386   4.835   4.075   4.215 -0.6233  0.9490  0.1539
   46CHL1  H22A 3387   4.923   4.009   4.203 -0.9501 -0.4451  4.0819
   46CHL1  H22B 3388   4.857   4.184   4.204 -1.7955  1.3215  1.3211
   46CHL1   C23 3389   4.792   4.043   4.355  1.6273 -0.5073 -0.5769
   46CHL1  H23A 3390   4.732   4.125   4.399  0.9775 -1.3436  0.1216
   46CHL1  H23B 3391   4.727   3.955   4.336  1.9510 -0.5536 -1.5331
   46CHL1   C24 3392   4.894   4.000   4.462 -0.0294  0.8233  0.1555
   46CHL1  H24A 3393   4.915   3.893   4.443 -2.0264  0.3067  0.6588
   46CHL1  H24B 3394   4.994   4.048   4.449  0.3335 -0.4343 -2.0257
   46CHL1   C25 3395   4.850   4.018   4.612 -0.5325 -0.9629  0.4022
   46CHL1   H25 3396   4.796   4.114   4.624  1.0221  0.1859 -1.1524
   46CHL1   C26 3397   4.752   3.912   4.647 -0.0902  0.6064  0.2411
   46CHL1  H26A 3398   4.710   3.931   4.749  0.6741  0.4375  0.5935
   46CHL1  H26B 3399   4.664   3.910   4.579 -0.1863 -0.9551  0.3756
   46CHL1  H26C 3400   4.796   3.811   4.651  0.7383  0.9425 -0.2107
   46CHL1   C27 3401   4.978   4.008   4.703  0.3452  0.2036  0.5133
   46CHL1  H27A 3402   5.041   4.100   4.695  1.3426 -0.4786  0.3414
   46CHL1  H27B 3403   4.941   4.006   4.808 -0.3538 -0.2057  0.2604
   46CHL1  H27C 3404   5.042   3.919   4.686  0.1547  0.4291 -1.5902
   47CHL1    C3 3405   2.399   5.206   2.764  0.1519 -0.0193  0.0199
   47CHL1    H3 3406   2.405   5.095   2.772 -1.1650 -0.6087 -4.3011
   47CHL1    O3 3407   2.346   5.243   2.634 -0.5681 -0.5820 -0.1484
   47CHL1   H3' 3408   2.276   5.305   2.656  1.1340  1.3634  0.2127
   47CHL1    C4 3409   2.300   5.265   2.864  0.2385 -0.3218  0.8530
   47CHL1   H4A 3410   2.285   5.374   2.851 -0.9797 -0.2948  2.2491
   47CHL1   H4B 3411   2.203   5.211   2.853 -0.5523  0.6949  2.4589
   47CHL1    C5 3412   2.343   5.249   3.010 -0.0254 -0.1907 -0.0923
   47CHL1    C6 3413   2.260   5.198   3.095 -0.3631 -0.3279 -0.4882
   47CHL1    H6 3414   2.163   5.164   3.056  0.3154 -0.9814 -1.6734
   47CHL1    C7 3415   2.293   5.182   3.247 -0.3476  0.5144  0.3576
   47CHL1   H7A 3416   2.215   5.220   3.316 -1.7409  0.6151 -1.1996
   47CHL1   H7B 3417   2.297   5.074   3.273 -1.1371  0.7540  1.5482
   47CHL1    C8 3418   2.422   5.262   3.279 -0.3071 -0.4970  0.5397
   47CHL1    H8 3419   2.402   5.371   3.284  3.1492  0.3132 -0.6061
   47CHL1   C14 3420   2.477   5.200   3.401 -0.4130 -0.1341 -0.5452
   47CHL1   H14 3421   2.500   5.093   3.382 -0.1709 -0.4974  1.4897
   47CHL1   C15 3422   2.380   5.199   3.522  0.4482  0.3577  0.2452
   47CHL1  H15A 3423   2.330   5.296   3.543 -2.3760 -0.8911 -0.3183
   47CHL1  H15B 3424   2.302   5.122   3.511  1.8150 -0.7716 -2.5308
   47CHL1   C16 3425   2.474   5.173   3.642  0.4972 -0.3249  0.0641
   47CHL1  H16A 3426   2.456   5.244   3.726  0.5810  1.1231 -1.1126
   47CHL1  H16B 3427   2.451   5.069   3.672 -0.5469  0.0474  0.6122
   47CHL1   C17 3428   2.625   5.172   3.588  0.2600 -0.6816  0.0059
   47CHL1   H17 3429   2.653   5.075   3.541 -0.5295 -0.0969 -1.7553
   47CHL1   C13 3430   2.606   5.260   3.459  0.0653  0.0709  0.3144
   47CHL1   C18 3431   2.583   5.410   3.496 -0.0150 -0.3952 -0.2024
   47CHL1  H18A 3432   2.534   5.480   3.424 -0.0746 -0.4307 -0.1957
   47CHL1  H18B 3433   2.522   5.409   3.588 -1.6557 -1.9309 -1.2421
   47CHL1  H18C 3434   2.676   5.459   3.532  1.2122 -0.4982 -2.9861
   47CHL1   C12 3435   2.719   5.252   3.350  0.1717  0.6489  0.6924
   47CHL1  H12A 3436   2.816   5.295   3.383 -0.1799  2.3050 -0.2941
   47CHL1  H12B 3437   2.728   5.145   3.322 -0.4960  0.9105 -0.5955
   47CHL1   C11 3438   2.665   5.307   3.218 -0.4425 -0.2902 -0.1966
   47CHL1  H11A 3439   2.674   5.417   3.226 -2.2841 -0.0661 -0.7819
   47CHL1  H11B 3440   2.746   5.271   3.150  1.0374 -0.1499  1.4057
   47CHL1    C9 3441   2.528   5.252   3.169 -1.0112 -0.0415 -0.3419
   47CHL1    H9 3442   2.544   5.142   3.166 -1.6713 -0.5893  5.1601
   47CHL1   C10 3443   2.482   5.306   3.038  0.5164 -0.3121 -0.0391
   47CHL1   C19 3444   2.475   5.466   3.027 -0.9852  0.3294 -0.5445
   47CHL1  H19A 3445   2.388   5.502   3.085 -1.6040 -0.7312 -0.7849
   47CHL1  H19B 3446   2.564   5.514   3.073  0.4444 -2.8571  0.3747
   47CHL1  H19C 3447   2.469   5.504   2.923  1.2914  0.7363 -0.5697
   47CHL1    C1 3448   2.584   5.251   2.932  0.0020  0.6352 -0.9656
   47CHL1   H1A 3449   2.688   5.284   2.953  0.9019 -2.1384 -0.5923
   47CHL1   H1B 3450   2.588   5.140   2.942  0.7953  0.7038 -0.4324
   47CHL1    C2 3451   2.540   5.264   2.786  0.6228  0.4339 -0.2284
   47CHL1   H2A 3452   2.618   5.208   2.730  1.1428 -1.1761  1.9893
   47CHL1   H2B 3453   2.528   5.368   2.749 -4.1284  0.0066 -0.4726
   47CHL1   C20 3454   2.740   5.222   3.691  0.5430 -0.0618  0.4749
   47CHL1   H20 3455   2.751   5.330   3.669 -1.3374 -0.1034 -0.8947
   47CHL1   C21 3456   2.872   5.153   3.644  0.1004 -0.3824 -0.2068
   47CHL1  H21A 3457   2.880   5.172   3.534  0.2493  1.8559  0.1399
   47CHL1  H21B 3458   2.856   5.044   3.658  1.0089 -0.5900 -0.7423
   47CHL1  H21C 3459   2.962   5.181   3.703 -0.5495 -0.3994  0.8194
   47CHL1   C22 3460   2.712   5.200   3.837  0.3860  0.2228 -0.5239
   47CHL1  H22A 3461   2.609   5.232   3.866 -0.2751 -1.9322 -0.3311
   47CHL1  H22B 3462   2.737   5.099   3.874 -2.3559 -0.9554 -1.6434
   47CHL1   C23 3463   2.794   5.293   3.929  0.2958  0.1214 -0.2979
   47CHL1  H23A 3464   2.899   5.280   3.896  0.2393  0.4113 -0.5844
   47CHL1  H23B 3465   2.765   5.399   3.915 -1.0166 -0.1169  0.3842
   47CHL1   C24 3466   2.790   5.246   4.079 -0.4467  0.6670 -0.4993
   47CHL1  H24A 3467   2.692   5.282   4.117 -0.4107  0.5080 -0.2438
   47CHL1  H24B 3468   2.787   5.135   4.088 -0.8815  0.7121 -0.0189
   47CHL1   C25 3469   2.900   5.299   4.183  0.1793  0.5856  0.5484
   47CHL1   H25 3470   2.992   5.241   4.161  0.1005  0.5786  0.2381
   47CHL1   C26 3471   2.927   5.454   4.192  0.7003  0.1167  0.0458
   47CHL1  H26A 3472   2.974   5.486   4.097  1.3744 -2.4455 -0.5448
   47CHL1  H26B 3473   2.832   5.507   4.214  1.4422  1.7144 -0.4697
   47CHL1  H26C 3474   2.998   5.474   4.276  1.0846 -3.1955  0.6394
   47CHL1   C27 3475   2.849   5.264   4.319  0.5852  0.9850  0.2664
   47CHL1  H27A 3476   2.759   5.325   4.343  1.8628  3.1264 -0.1958
   47CHL1  H27B 3477   2.825   5.156   4.336 -1.5337  1.2401 -0.7372
   47CHL1  H27C 3478   2.928   5.271   4.397 -0.3566 -1.5033  1.5920
   48CHL1    C3 3479   3.640   1.668   2.967 -0.8867 -0.2140  0.6322
   48CHL1    H3 3480   3.723   1.742   2.964  0.7482 -1.9199  1.5175
   48CHL1    O3 3481   3.630   1.611   2.835  0.0987 -0.5988 -0.8809
   48CHL1   H3' 3482   3.711   1.560   2.826  0.1891 -0.8683  1.0408
   48CHL1    C4 3483   3.671   1.555   3.070 -0.1229 -0.2310  0.2217
   48CHL1   H4A 3484   3.593   1.477   3.059 -2.6700  2.0156  1.1445
   48CHL1   H4B 3485   3.763   1.509   3.028 -0.5607 -1.8458  0.9559
   48CHL1    C5 3486   3.677   1.604   3.213 -0.0140 -0.0042  0.7932
   48CHL1    C6 3487   3.788   1.586   3.287 -0.3753  0.0657  0.3334
   48CHL1    H6 3488   3.869   1.529   3.237 -0.0545 -0.3969  1.3489
   48CHL1    C7 3489   3.794   1.632   3.434  0.2902  0.1942  0.1030
   48CHL1   H7A 3490   3.861   1.569   3.497  1.7462  1.1472 -0.4298
   48CHL1   H7B 3491   3.838   1.734   3.442 -3.0703  1.6610  1.6898
   48CHL1    C8 3492   3.656   1.649   3.492  0.0299 -0.8211 -0.2061
   48CHL1    H8 3493   3.614   1.546   3.501 -1.1717 -0.3630 -0.4419
   48CHL1   C14 3494   3.662   1.721   3.630 -1.1999 -0.8136 -0.2679
   48CHL1   H14 3495   3.695   1.826   3.617 -3.0634 -0.0846  0.4356
   48CHL1   C15 3496   3.762   1.663   3.742  0.2394  0.2025  0.4466
   48CHL1  H15A 3497   3.742   1.553   3.746 -0.2687  0.3163  2.4644
   48CHL1  H15B 3498   3.867   1.692   3.722 -0.2869  1.7287 -0.2152
   48CHL1   C16 3499   3.724   1.716   3.876  0.6773  0.2705 -0.2294
   48CHL1  H16A 3500   3.709   1.626   3.941  0.1063 -0.2349 -1.0416
   48CHL1  H16B 3501   3.796   1.780   3.932 -0.1299  1.0584 -0.0663
   48CHL1   C17 3502   3.594   1.792   3.843 -0.1049 -0.4253 -0.0006
   48CHL1   H17 3503   3.626   1.896   3.822 -1.7642  0.1432  0.0906
   48CHL1   C13 3504   3.537   1.735   3.705  0.4963 -0.4807 -0.3924
   48CHL1   C18 3505   3.478   1.595   3.729  0.3567  0.3618  0.2213
   48CHL1  H18A 3506   3.374   1.605   3.768  0.1409  0.2941 -0.3283
   48CHL1  H18B 3507   3.477   1.545   3.630  1.4667 -0.7963  0.7653
   48CHL1  H18C 3508   3.537   1.521   3.787  0.8667  1.4728  1.1492
   48CHL1   C12 3509   3.449   1.829   3.620 -0.1503 -1.0429 -0.1306
   48CHL1  H12A 3510   3.345   1.853   3.651  0.4584 -0.4205  1.5630
   48CHL1  H12B 3511   3.508   1.922   3.612  0.3283 -1.2250  1.0621
   48CHL1   C11 3512   3.434   1.785   3.470  0.1813 -0.3320  0.3177
   48CHL1  H11A 3513   3.374   1.693   3.486 -1.2287  0.3750 -0.7541
   48CHL1  H11B 3514   3.378   1.860   3.411  1.7978  0.1955 -0.6068
   48CHL1    C9 3515   3.569   1.735   3.400  0.1295  1.1689  0.0824
   48CHL1    H9 3516   3.630   1.827   3.389  1.9177  0.0567  0.2639
   48CHL1   C10 3517   3.551   1.677   3.254  0.3498 -0.0687 -0.0585
   48CHL1   C19 3518   3.427   1.581   3.261 -0.5456 -0.4482 -0.7868
   48CHL1  H19A 3519   3.430   1.511   3.174  2.3817 -0.3462 -0.8512
   48CHL1  H19B 3520   3.437   1.520   3.353  1.9740  0.9073 -0.0762
   48CHL1  H19C 3521   3.331   1.637   3.270  0.6448  1.6864 -0.8171
   48CHL1    C1 3522   3.513   1.783   3.151  0.7826  0.1190 -0.3276
   48CHL1   H1A 3523   3.420   1.830   3.190 -0.2894 -2.8068  0.8895
   48CHL1   H1B 3524   3.592   1.861   3.157 -1.0946  1.9696  3.0331
   48CHL1    C2 3525   3.508   1.738   3.000 -0.3556  0.3021 -0.1365
   48CHL1   H2A 3526   3.492   1.824   2.931 -1.4868 -0.1748 -0.4895
   48CHL1   H2B 3527   3.425   1.665   2.989  0.9900 -1.0530 -1.9493
   48CHL1   C20 3528   3.493   1.793   3.957 -0.2186 -0.2744  0.0657
   48CHL1   H20 3529   3.457   1.690   3.977 -0.6734 -0.2137 -0.4283
   48CHL1   C21 3530   3.370   1.884   3.919 -0.3043 -0.2362  0.6561
   48CHL1  H21A 3531   3.302   1.901   4.005  0.1178 -1.2127  1.1883
   48CHL1  H21B 3532   3.316   1.834   3.835 -0.4491  2.8561 -1.2392
   48CHL1  H21C 3533   3.400   1.988   3.893 -0.6501 -0.3802 -0.3707
   48CHL1   C22 3534   3.550   1.844   4.095 -0.5651  0.4168  0.5844
   48CHL1  H22A 3535   3.642   1.784   4.111 -1.7338 -1.9740 -0.9614
   48CHL1  H22B 3536   3.583   1.949   4.081  1.2282 -0.4766 -2.8838
   48CHL1   C23 3537   3.466   1.821   4.216 -0.3368  0.3459 -0.4935
   48CHL1  H23A 3538   3.376   1.882   4.239 -0.9589 -0.9438  0.6242
   48CHL1  H23B 3539   3.435   1.715   4.203 -0.1750  0.5557 -3.0375
   48CHL1   C24 3540   3.552   1.836   4.343  0.5568  0.2826 -0.0753
   48CHL1  H24A 3541   3.653   1.792   4.324  0.0648 -0.0519 -2.2345
   48CHL1  H24B 3542   3.567   1.944   4.362 -1.1657  0.8934 -1.8373
   48CHL1   C25 3543   3.482   1.774   4.467 -0.6097 -0.3221  0.2934
   48CHL1   H25 3544   3.420   1.689   4.431 -2.5888  1.6577 -1.3123
   48CHL1   C26 3545   3.579   1.721   4.573 -0.4136 -0.2423 -0.3507
   48CHL1  H26A 3546   3.527   1.705   4.670  1.3611 -1.9913  0.3702
   48CHL1  H26B 3547   3.626   1.625   4.544  1.2113  0.3304  0.3161
   48CHL1  H26C 3548   3.652   1.799   4.602 -0.8649 -0.0713  0.3661
   48CHL1   C27 3549   3.383   1.871   4.538  0.1660 -0.0269 -0.1175
   48CHL1  H27A 3550   3.427   1.968   4.567 -0.3259  0.4402 -0.9163
   48CHL1  H27B 3551   3.311   1.912   4.464  1.4067 -0.4678 -1.6424
   48CHL1  H27C 3552   3.328   1.823   4.622  0.2003 -0.7418 -0.4948
   49CHL1    C3 3553   1.129   3.900   2.847  0.1997  0.0996 -0.0336
   49CHL1    H3 3554   1.150   3.795   2.874 -0.4608 -0.0558 -0.1035
   49CHL1    O3 3555   1.126   3.900   2.709  0.1657 -0.0379  0.2118
   49CHL1   H3' 3556   1.131   3.808   2.681  0.0985 -0.2850  0.9794
   49CHL1    C4 3557   0.989   3.937   2.896 -0.3768  0.7714  0.2768
   49CHL1   H4A 3558   0.944   4.031   2.858 -1.4975  0.4993  0.8775
   49CHL1   H4B 3559   0.933   3.851   2.853  2.2110 -0.3497 -1.0694
   49CHL1    C5 3560   0.982   3.940   3.048  0.3597 -0.3549  0.6007
   49CHL1    C6 3561   0.896   3.861   3.111  0.1530 -0.5604 -0.3738
   49CHL1    H6 3562   0.815   3.817   3.051 -1.2643  1.3363  0.0383
   49CHL1    C7 3563   0.870   3.856   3.255  0.1160  0.0711 -0.3854
   49CHL1   H7A 3564   0.760   3.859   3.264  0.2632  1.1206  1.7932
   49CHL1   H7B 3565   0.916   3.761   3.289  0.1656  0.1836 -0.1331
   49CHL1    C8 3566   0.941   3.969   3.332  0.1083 -0.9675  0.0281
   49CHL1    H8 3567   0.872   4.056   3.321 -0.4354 -1.1642  1.6599
   49CHL1   C14 3568   0.960   3.930   3.477 -0.1479  0.1383 -0.1260
   49CHL1   H14 3569   1.034   3.846   3.482 -0.3540 -0.2087 -2.1842
   49CHL1   C15 3570   0.831   3.873   3.553 -0.4288  0.2236  0.2960
   49CHL1  H15A 3571   0.751   3.937   3.511 -0.3197  1.4742  1.8861
   49CHL1  H15B 3572   0.806   3.768   3.528 -1.0767  0.4864 -0.1859
   49CHL1   C16 3573   0.869   3.893   3.701 -0.2474  0.5918 -0.0029
   49CHL1  H16A 3574   0.780   3.945   3.743 -1.7414 -1.5516 -0.3306
   49CHL1  H16B 3575   0.881   3.801   3.761  2.1518  0.4062 -0.6764
   49CHL1   C17 3576   1.006   3.981   3.703  0.0010 -0.0099  0.7635
   49CHL1   H17 3577   1.089   3.907   3.698 -0.8556 -0.9313 -0.7674
   49CHL1   C13 3578   1.022   4.042   3.560  0.8692  0.0178 -0.4254
   49CHL1   C18 3579   0.932   4.166   3.560 -0.0222 -0.3623 -0.4218
   49CHL1  H18A 3580   0.833   4.162   3.610 -0.6550  3.2784 -1.1071
   49CHL1  H18B 3581   0.997   4.235   3.618 -1.1050 -0.6161  1.1335
   49CHL1  H18C 3582   0.912   4.206   3.458 -0.5070 -0.8262 -0.5092
   49CHL1   C12 3583   1.166   4.061   3.506 -0.3857 -0.3421 -0.0666
   49CHL1  H12A 3584   1.229   4.126   3.570 -0.7000  1.0735 -1.1345
   49CHL1  H12B 3585   1.209   3.959   3.504 -1.3057 -0.8184  1.9014
   49CHL1   C11 3586   1.169   4.112   3.362  0.3801 -0.7480  0.2215
   49CHL1  H11A 3587   1.133   4.216   3.347  2.0977 -0.5317 -3.8392
   49CHL1  H11B 3588   1.275   4.113   3.327  0.7833  2.0642  1.2652
   49CHL1    C9 3589   1.080   4.011   3.272  0.2116  0.1516  0.6474
   49CHL1    H9 3590   1.134   3.915   3.289 -0.0311 -0.2480 -0.7395
   49CHL1   C10 3591   1.093   4.029   3.113  0.5354  0.3168  0.0981
   49CHL1   C19 3592   1.066   4.181   3.093  0.2607  0.6028  0.4152
   49CHL1  H19A 3593   1.150   4.241   3.134  0.8638 -1.6746  2.8274
   49CHL1  H19B 3594   1.050   4.206   2.986 -0.7871 -0.0869  0.3992
   49CHL1  H19C 3595   0.979   4.210   3.155 -0.0113  0.6479  0.0203
   49CHL1    C1 3596   1.230   3.991   3.056 -0.0637  0.4339 -0.0081
   49CHL1   H1A 3597   1.314   4.043   3.106  0.8290 -2.0630  1.2424
   49CHL1   H1B 3598   1.258   3.886   3.075  0.8398  0.9077  1.4584
   49CHL1    C2 3599   1.231   3.992   2.902 -0.0298 -0.9630 -0.2804
   49CHL1   H2A 3600   1.335   3.970   2.868 -1.2147 -3.5104 -2.5695
   49CHL1   H2B 3601   1.209   4.097   2.872  0.2785 -0.3728  1.3962
   49CHL1   C20 3602   1.018   4.068   3.826  0.4463 -0.5726 -0.4390
   49CHL1   H20 3603   0.935   4.142   3.823  0.3491 -0.6876 -0.6465
   49CHL1   C21 3604   1.153   4.146   3.835  0.1021  0.5702 -0.1891
   49CHL1  H21A 3605   1.164   4.204   3.928  0.9897 -2.8055  2.0083
   49CHL1  H21B 3606   1.167   4.218   3.752  0.5252  1.0909  0.3278
   49CHL1  H21C 3607   1.239   4.076   3.850 -0.3719 -0.0431 -0.2704
   49CHL1   C22 3608   0.993   3.994   3.958  0.2007  0.1590 -0.0365
   49CHL1  H22A 3609   0.891   3.951   3.955 -0.4587  1.6863 -0.4550
   49CHL1  H22B 3610   1.050   3.899   3.968 -0.8945 -0.6766 -1.3594
   49CHL1   C23 3611   1.000   4.084   4.080  0.8509  0.6005  0.8095
   49CHL1  H23A 3612   1.108   4.104   4.100  1.1260 -0.0004 -0.0195
   49CHL1  H23B 3613   0.947   4.180   4.061  0.6069  0.2535 -0.2925
   49CHL1   C24 3614   0.929   4.021   4.199 -0.1664  0.0981  0.1292
   49CHL1  H24A 3615   0.822   4.051   4.197  0.8727  5.0933  2.5305
   49CHL1  H24B 3616   0.933   3.910   4.205 -0.5065  0.1309  1.0251
   49CHL1   C25 3617   0.981   4.068   4.338  0.0236 -0.2395  0.2831
   49CHL1   H25 3618   0.991   4.179   4.341  1.4249 -0.3543  2.8388
   49CHL1   C26 3619   0.883   4.042   4.451  0.1233  0.5676 -0.5476
   49CHL1  H26A 3620   0.873   3.931   4.454  2.3064  0.3165 -0.8097
   49CHL1  H26B 3621   0.908   4.083   4.551  0.8883  0.2499 -0.6007
   49CHL1  H26C 3622   0.789   4.088   4.414 -0.7328 -1.2342 -0.7455
   49CHL1   C27 3623   1.124   4.014   4.365 -0.0085  0.5217 -0.4325
   49CHL1  H27A 3624   1.210   4.056   4.308 -0.2671  1.5293 -0.1066
   49CHL1  H27B 3625   1.144   4.000   4.473 -0.6676 -2.1291 -0.5875
   49CHL1  H27C 3626   1.122   3.909   4.330  0.1850  0.2050  0.4759
   50CHL1    C3 3627   5.193   4.186   3.166  0.4773  0.9291 -0.1359
   50CHL1    H3 3628   5.302   4.206   3.154  0.9295 -0.2664  1.5802
   50CHL1    O3 3629   5.153   4.122   3.049 -0.4257 -0.6237  0.4786
   50CHL1   H3' 3630   5.122   4.182   2.981 -3.1914 -0.9389  1.2961
   50CHL1    C4 3631   5.173   4.077   3.283  0.0330  0.4594  0.3839
   50CHL1   H4A 3632   5.064   4.064   3.297  0.3586 -1.7673  1.3871
   50CHL1   H4B 3633   5.224   3.983   3.253 -2.9085 -0.8792 -0.7857
   50CHL1    C5 3634   5.228   4.132   3.407 -0.0494  0.4830  0.0071
   50CHL1    C6 3635   5.330   4.068   3.468 -0.8060 -0.0525 -0.1647
   50CHL1    H6 3636   5.365   3.970   3.434 -0.7346 -0.0485 -0.1036
   50CHL1    C7 3637   5.388   4.118   3.599  0.8152  0.1324  0.1959
   50CHL1   H7A 3638   5.397   4.036   3.673 -0.6525 -1.3003 -1.1272
   50CHL1   H7B 3639   5.490   4.158   3.580  0.8634  0.5075  1.1889
   50CHL1    C8 3640   5.295   4.233   3.665  0.6092  0.4169 -0.1140
   50CHL1    H8 3641   5.211   4.171   3.706  1.3222 -1.1569 -0.9351
   50CHL1   C14 3642   5.371   4.308   3.766 -0.7113  0.1529  0.1144
   50CHL1   H14 3643   5.443   4.374   3.714 -1.4352  1.1818  0.3984
   50CHL1   C15 3644   5.463   4.221   3.863  0.2944 -0.0825  0.6072
   50CHL1  H15A 3645   5.397   4.147   3.914  0.3225  0.6175  1.6762
   50CHL1  H15B 3646   5.544   4.176   3.802 -1.4144 -0.0041 -1.9059
   50CHL1   C16 3647   5.500   4.317   3.976 -0.6961 -0.1057  0.3873
   50CHL1  H16A 3648   5.472   4.277   4.076 -0.6343 -0.0804  0.4143
   50CHL1  H16B 3649   5.602   4.360   3.969 -0.6552 -0.4766 -2.9333
   50CHL1   C17 3650   5.403   4.439   3.966  0.5010  0.5279  0.3526
   50CHL1   H17 3651   5.460   4.520   3.914  0.2464  0.4343 -0.0730
   50CHL1   C13 3652   5.299   4.401   3.855 -0.5052  0.4741 -0.6747
   50CHL1   C18 3653   5.184   4.320   3.918 -0.4115 -0.8553 -0.5306
   50CHL1  H18A 3654   5.114   4.280   3.841 -1.0244 -0.6322 -0.0994
   50CHL1  H18B 3655   5.208   4.243   3.995 -1.8123 -2.4850 -1.6308
   50CHL1  H18C 3656   5.127   4.390   3.982  1.2896  0.2652 -0.1886
   50CHL1   C12 3657   5.243   4.510   3.765  0.0637  0.5008 -0.1815
   50CHL1  H12A 3658   5.171   4.581   3.812 -1.4553 -0.1583 -1.4209
   50CHL1  H12B 3659   5.329   4.564   3.720 -0.5893 -0.2568 -2.4653
   50CHL1   C11 3660   5.168   4.450   3.636  0.2551 -0.3776 -0.2729
   50CHL1  H11A 3661   5.067   4.425   3.675 -0.1310 -3.9162 -2.9989
   50CHL1  H11B 3662   5.168   4.536   3.567 -0.5990  0.6599  0.9898
   50CHL1    C9 3663   5.241   4.330   3.562  0.1989 -0.6701 -1.1206
   50CHL1    H9 3664   5.333   4.375   3.518  0.3212  0.4337  0.1972
   50CHL1   C10 3665   5.164   4.264   3.451 -0.2352 -0.8051  0.7065
   50CHL1   C19 3666   5.016   4.238   3.500 -0.6299 -0.1680  0.2074
   50CHL1  H19A 3667   4.954   4.206   3.414 -0.4744  0.6739 -0.2252
   50CHL1  H19B 3668   5.017   4.158   3.577 -0.3169 -0.5412 -0.1832
   50CHL1  H19C 3669   4.972   4.334   3.533  1.9494  2.1852 -2.6484
   50CHL1    C1 3670   5.148   4.367   3.332  0.1655  0.3908  0.2284
   50CHL1   H1A 3671   5.067   4.438   3.356  1.2299  1.2989  1.2797
   50CHL1   H1B 3672   5.235   4.436   3.322  0.7906 -0.5164 -0.9349
   50CHL1    C2 3673   5.106   4.300   3.200  0.1377  0.3968 -0.2114
   50CHL1   H2A 3674   5.116   4.372   3.116 -1.1208  0.5137 -0.2912
   50CHL1   H2B 3675   4.998   4.279   3.217  0.1584  1.2239  1.0779
   50CHL1   C20 3676   5.353   4.493   4.098  0.6190 -0.7180  0.3487
   50CHL1   H20 3677   5.282   4.421   4.145 -0.8312  0.9100  0.7976
   50CHL1   C21 3678   5.273   4.626   4.062  0.1486  0.2771 -0.2277
   50CHL1  H21A 3679   5.174   4.594   4.021  0.2427 -0.8540  0.3740
   50CHL1  H21B 3680   5.333   4.692   3.996  0.1544  0.7999  0.2948
   50CHL1  H21C 3681   5.249   4.693   4.147  1.7147 -0.1504  0.5786
   50CHL1   C22 3682   5.453   4.538   4.199 -0.1673  0.3594 -0.3943
   50CHL1  H22A 3683   5.403   4.591   4.283  0.9424 -0.8907  1.1313
   50CHL1  H22B 3684   5.489   4.447   4.252 -3.1509 -0.1316  1.0059
   50CHL1   C23 3685   5.566   4.627   4.154  0.2582  0.3655  0.1351
   50CHL1  H23A 3686   5.617   4.575   4.071  0.2165  0.4811  0.0372
   50CHL1  H23B 3687   5.532   4.723   4.110 -0.3670  0.6032  1.0929
   50CHL1   C24 3688   5.668   4.662   4.258 -0.0171  0.1495  0.1208
   50CHL1  H24A 3689   5.683   4.567   4.314  0.1553  0.9234  1.4406
   50CHL1  H24B 3690   5.768   4.689   4.219  0.4609  0.1346  1.2909
   50CHL1   C25 3691   5.633   4.753   4.375 -0.1483 -1.3866  0.0611
   50CHL1   H25 3692   5.563   4.695   4.439  0.8296 -0.4635  2.0704
   50CHL1   C26 3693   5.754   4.770   4.473 -0.3797 -0.4317  0.3187
   50CHL1  H26A 3694   5.732   4.852   4.545  3.3841  0.7224  0.3773
   50CHL1  H26B 3695   5.770   4.676   4.531 -1.5398  0.5311  2.3238
   50CHL1  H26C 3696   5.841   4.802   4.413  0.3259  0.5253  1.7825
   50CHL1   C27 3697   5.576   4.892   4.341  0.2729 -0.9164  0.0240
   50CHL1  H27A 3698   5.500   4.876   4.262 -0.8108  0.0875  0.8388
   50CHL1  H27B 3699   5.539   4.947   4.429 -2.0325 -3.4165  0.7540
   50CHL1  H27C 3700   5.662   4.954   4.306  0.5202 -0.9866  0.4910
   51CHL1    C3 3701   0.614   5.823   3.047  0.2303 -0.2698  0.0146
   51CHL1    H3 3702   0.722   5.827   3.024 -0.2775  0.1889 -2.7011
   51CHL1    O3 3703   0.555   5.787   2.923 -0.4549 -0.1826  0.0955
   51CHL1   H3' 3704   0.554   5.868   2.871  0.4096  0.8050  1.5654
   51CHL1    C4 3705   0.591   5.719   3.156  0.1620 -0.0059  0.2193
   51CHL1   H4A 3706   0.482   5.709   3.171 -0.0006  0.5596 -0.5149
   51CHL1   H4B 3707   0.627   5.617   3.129  0.1074 -0.3892  1.5120
   51CHL1    C5 3708   0.649   5.753   3.298  0.5804  0.2498 -0.1918
   51CHL1    C6 3709   0.722   5.670   3.376  0.3535 -1.0308  0.5602
   51CHL1    H6 3710   0.741   5.569   3.337  1.1584 -0.1592 -1.4090
   51CHL1    C7 3711   0.776   5.703   3.516 -0.4124 -0.1941 -0.0677
   51CHL1   H7A 3712   0.767   5.621   3.589 -1.5440 -0.6925 -0.7463
   51CHL1   H7B 3713   0.885   5.722   3.503  0.2489 -3.1262  0.5759
   51CHL1    C8 3714   0.709   5.833   3.584  0.0157  0.0844  0.4439
   51CHL1    H8 3715   0.612   5.792   3.619  0.3555 -2.1546 -1.0358
   51CHL1   C14 3716   0.797   5.888   3.699  0.4094  0.9421 -0.3123
   51CHL1   H14 3717   0.893   5.923   3.656  0.7737  0.1545 -0.1400
   51CHL1   C15 3718   0.826   5.790   3.814 -0.3556  0.4466 -0.7835
   51CHL1  H15A 3719   0.733   5.740   3.846 -0.3735  0.3607 -0.9671
   51CHL1  H15B 3720   0.906   5.719   3.785 -1.7099 -0.9302 -1.2764
   51CHL1   C16 3721   0.859   5.882   3.931 -0.1864 -0.3333 -0.3954
   51CHL1  H16A 3722   0.786   5.856   4.010  0.6281 -1.1552  0.1077
   51CHL1  H16B 3723   0.965   5.862   3.959 -0.0279  1.8203  0.7348
   51CHL1   C17 3724   0.841   6.031   3.886 -0.1664  0.0596  0.1042
   51CHL1   H17 3725   0.938   6.064   3.843 -0.0881  1.5092  1.3192
   51CHL1   C13 3726   0.739   6.014   3.766 -0.2949  0.0657 -0.2191
   51CHL1   C18 3727   0.595   5.997   3.832  0.1948  0.0163 -0.1729
   51CHL1  H18A 3728   0.565   6.099   3.865  3.4431  0.8430  0.5948
   51CHL1  H18B 3729   0.523   5.966   3.753  0.6422  1.5045 -1.2100
   51CHL1  H18C 3730   0.595   5.927   3.918 -2.9149  2.2187  1.8460
   51CHL1   C12 3731   0.727   6.127   3.660 -0.5439 -0.0275 -0.5022
   51CHL1  H12A 3732   0.673   6.215   3.701 -1.4082 -1.1452  0.8811
   51CHL1  H12B 3733   0.832   6.152   3.635  0.0500 -0.9398  0.9291
   51CHL1   C11 3734   0.651   6.074   3.538 -0.3358  0.2049 -0.7668
   51CHL1  H11A 3735   0.555   6.050   3.588  1.1453 -2.1773  1.2217
   51CHL1  H11B 3736   0.636   6.157   3.466 -1.5661  2.1912  1.6395
   51CHL1    C9 3737   0.694   5.935   3.479 -0.1974 -0.3349  0.2202
   51CHL1    H9 3738   0.798   5.959   3.448  0.2114  0.1038  1.8352
   51CHL1   C10 3739   0.614   5.900   3.345 -0.3672  0.2962 -0.0271
   51CHL1   C19 3740   0.460   5.900   3.379  0.1163 -0.1882 -0.4617
   51CHL1  H19A 3741   0.396   5.892   3.289  0.4642 -2.2252 -0.5807
   51CHL1  H19B 3742   0.435   5.817   3.449 -2.1397  0.1839 -0.7455
   51CHL1  H19C 3743   0.423   5.988   3.436  1.1945 -0.2972  0.4433
   51CHL1    C1 3744   0.652   6.000   3.225  0.2123  0.0324  0.3953
   51CHL1   H1A 3745   0.628   6.104   3.253  0.6849  0.0511  0.7355
   51CHL1   H1B 3746   0.760   5.976   3.217 -0.5283 -4.2771  0.8034
   51CHL1    C2 3747   0.580   5.969   3.098 -1.1229 -0.2273 -0.0034
   51CHL1   H2A 3748   0.608   6.037   3.014  1.2147 -1.1802 -0.0618
   51CHL1   H2B 3749   0.469   5.975   3.106 -1.3061  0.4340 -2.2977
   51CHL1   C20 3750   0.818   6.123   4.007  0.0809  0.7066  0.4479
   51CHL1   H20 3751   0.722   6.095   4.058 -0.8625 -0.5032 -1.8635
   51CHL1   C21 3752   0.783   6.270   3.962 -0.2361 -0.1966 -0.6041
   51CHL1  H21A 3753   0.676   6.279   3.933  0.4012  3.0335 -2.3817
   51CHL1  H21B 3754   0.846   6.315   3.883 -0.1528  0.2599 -0.2829
   51CHL1  H21C 3755   0.796   6.349   4.038  0.0527  0.5988 -1.4633
   51CHL1   C22 3756   0.929   6.111   4.112 -0.3904  0.3524 -0.2635
   51CHL1  H22A 3757   0.934   6.006   4.151  1.6509  0.3662 -0.3836
   51CHL1  H22B 3758   1.031   6.139   4.078 -0.5888  2.3150  0.6364
   51CHL1   C23 3759   0.913   6.210   4.232  0.0706  0.1444 -0.3562
   51CHL1  H23A 3760   0.996   6.204   4.305 -1.2514  0.8150  1.2668
   51CHL1  H23B 3761   0.907   6.315   4.197 -2.7358  0.1524 -0.1003
   51CHL1   C24 3762   0.788   6.176   4.307 -0.3554  0.0056 -0.5450
   51CHL1  H24A 3763   0.694   6.190   4.250 -1.9060  1.0863  2.1020
   51CHL1  H24B 3764   0.800   6.073   4.348 -1.0812  0.6574  1.4291
   51CHL1   C25 3765   0.764   6.264   4.429  0.1309 -0.4754 -0.4307
   51CHL1   H25 3766   0.856   6.274   4.490  0.8660  1.8845 -1.8162
   51CHL1   C26 3767   0.712   6.402   4.382  0.6094 -0.4645  0.7603
   51CHL1  H26A 3768   0.667   6.465   4.462 -0.4949 -3.4095  2.6291
   51CHL1  H26B 3769   0.797   6.462   4.344 -0.9864  1.6426  0.2965
   51CHL1  H26C 3770   0.652   6.387   4.290  2.1815  0.9099 -0.5387
   51CHL1   C27 3771   0.658   6.192   4.519  0.1610 -0.5256  0.2728
   51CHL1  H27A 3772   0.697   6.092   4.548 -2.4556 -1.3592  1.1752
   51CHL1  H27B 3773   0.651   6.243   4.617 -0.2059  0.2074 -0.1275
   51CHL1  H27C 3774   0.558   6.189   4.469  0.2934 -2.3520  0.0359
   52CHL1    C3 3775   5.503   0.291   2.924 -0.2138  0.3945 -0.6155
   52CHL1    H3 3776   5.437   0.380   2.923 -0.2063  0.5105  2.0958
   52CHL1    O3 3777   5.588   0.279   2.813 -0.3682 -0.7502  0.0817
   52CHL1   H3' 3778   5.540   0.334   2.751  1.3332  0.8387  0.0866
   52CHL1    C4 3779   5.595   0.280   3.044 -0.3413  0.0126  0.0237
   52CHL1   H4A 3780   5.654   0.186   3.040 -1.2896 -0.6506  1.0168
   52CHL1   H4B 3781   5.670   0.361   3.034 -0.6489  0.3383  0.3040
   52CHL1    C5 3782   5.527   0.273   3.178 -0.9269 -0.2786 -0.3276
   52CHL1    C6 3783   5.548   0.369   3.273 -0.2845  0.4963  0.1667
   52CHL1    H6 3784   5.626   0.446   3.259  0.7152 -0.2527  1.4174
   52CHL1    C7 3785   5.486   0.359   3.409 -0.0972 -1.1721  0.3016
   52CHL1   H7A 3786   5.570   0.371   3.481  1.9944 -2.8178 -1.7160
   52CHL1   H7B 3787   5.403   0.430   3.429  0.2863 -0.2226 -1.2413
   52CHL1    C8 3788   5.429   0.222   3.436  0.4995 -0.1297  0.6074
   52CHL1    H8 3789   5.514   0.152   3.450  0.3821 -0.5510 -0.6589
   52CHL1   C14 3790   5.345   0.226   3.562 -0.6380 -0.8111 -0.4403
   52CHL1   H14 3791   5.273   0.309   3.544 -0.3008 -0.3218  0.4370
   52CHL1   C15 3792   5.413   0.278   3.687 -0.4188 -0.4284 -0.0092
   52CHL1  H15A 3793   5.519   0.246   3.684 -0.5810 -0.9042 -0.7079
   52CHL1  H15B 3794   5.424   0.388   3.700  0.2587 -0.7248  2.5239
   52CHL1   C16 3795   5.324   0.230   3.799 -0.2471 -0.4425 -0.1025
   52CHL1  H16A 3796   5.383   0.178   3.877 -1.0348  0.3475  1.0664
   52CHL1  H16B 3797   5.279   0.316   3.854  1.5736 -0.0079  0.7925
   52CHL1   C17 3798   5.214   0.144   3.734  0.3559  0.2540 -0.5828
   52CHL1   H17 3799   5.140   0.224   3.712  1.0222  1.3936  1.1108
   52CHL1   C13 3800   5.274   0.095   3.603  1.1607 -0.3822  0.2237
   52CHL1   C18 3801   5.379  -0.014   3.627 -0.6658  0.4412  0.5279
   52CHL1  H18A 3802   5.345  -0.104   3.681  1.2781 -0.3224  0.5602
   52CHL1  H18B 3803   5.417  -0.051   3.530  1.8334  0.1669  1.5147
   52CHL1  H18C 3804   5.471   0.018   3.681 -0.6324  0.0943  0.6762
   52CHL1   C12 3805   5.174   0.065   3.489 -0.1182 -0.2062  0.2719
   52CHL1  H12A 3806   5.114  -0.026   3.508 -0.3305 -0.5848 -1.9636
   52CHL1  H12B 3807   5.104   0.152   3.490  1.1313  0.8377  0.0412
   52CHL1   C11 3808   5.237   0.065   3.355 -0.1315 -0.2151  0.0669
   52CHL1  H11A 3809   5.292  -0.031   3.356  1.4167  0.6380  0.2755
   52CHL1  H11B 3810   5.160   0.071   3.276  1.0172  1.3011 -1.0125
   52CHL1    C9 3811   5.336   0.181   3.319 -0.4944  0.0844  0.4130
   52CHL1    H9 3812   5.270   0.269   3.302 -1.5555 -0.7801 -0.0470
   52CHL1   C10 3813   5.419   0.159   3.191 -0.9827 -0.5336  0.3615
   52CHL1   C19 3814   5.475   0.016   3.194  0.1139  0.9628 -0.8181
   52CHL1  H19A 3815   5.551  -0.009   3.117 -1.2993  0.3039 -2.0328
   52CHL1  H19B 3816   5.518  -0.000   3.295  0.9469  3.4445 -0.7029
   52CHL1  H19C 3817   5.402  -0.064   3.170 -1.1244  1.5094  0.9004
   52CHL1    C1 3818   5.328   0.175   3.067  0.4954 -0.0153  0.0484
   52CHL1   H1A 3819   5.242   0.105   3.061 -1.3975  2.1034  0.8573
   52CHL1   H1B 3820   5.283   0.275   3.082 -1.3671 -0.9223  0.7726
   52CHL1    C2 3821   5.410   0.170   2.935 -0.5013  0.5191  0.1610
   52CHL1   H2A 3822   5.345   0.156   2.845  0.2037 -0.3265 -0.2324
   52CHL1   H2B 3823   5.469   0.078   2.917 -0.1477  0.7548  0.1191
   52CHL1   C20 3824   5.148   0.045   3.828  0.2412  1.3222 -0.4872
   52CHL1   H20 3825   5.225  -0.033   3.846  1.4058  2.1910 -1.4827
   52CHL1   C21 3826   5.020  -0.022   3.776 -0.5966 -0.3409  0.0408
   52CHL1  H21A 3827   4.964   0.060   3.725 -2.3138  0.1793  2.5734
   52CHL1  H21B 3828   4.956  -0.070   3.853  1.1196  0.0596  1.8036
   52CHL1  H21C 3829   5.054  -0.100   3.705 -1.3225 -0.5879 -0.0332
   52CHL1   C22 3830   5.126   0.100   3.974 -0.0986 -0.4444 -0.3474
   52CHL1  H22A 3831   5.105   0.013   4.038  2.7475 -0.5362  0.6264
   52CHL1  H22B 3832   5.222   0.145   4.007  0.3620 -0.5528 -1.4836
   52CHL1   C23 3833   5.018   0.208   3.997  0.1141 -0.0563 -0.3468
   52CHL1  H23A 3834   5.040   0.303   3.944  0.8748 -0.0594 -0.0551
   52CHL1  H23B 3835   4.919   0.182   3.954  0.7679  0.4784 -2.2723
   52CHL1   C24 3836   5.013   0.240   4.147  0.0264  0.6811 -0.6836
   52CHL1  H24A 3837   5.017   0.140   4.195  0.8592  0.5116 -1.0855
   52CHL1  H24B 3838   5.105   0.291   4.181  0.2163 -0.2108  0.1752
   52CHL1   C25 3839   4.889   0.318   4.196 -0.0931 -0.0417  0.0818
   52CHL1   H25 3840   4.808   0.254   4.156  0.7667 -1.9727  1.3066
   52CHL1   C26 3841   4.876   0.317   4.345 -0.1099  0.5981  0.0108
   52CHL1  H26A 3842   4.788   0.384   4.357 -0.8274 -0.0073 -1.5449
   52CHL1  H26B 3843   4.857   0.212   4.377 -0.2513  0.7276  0.3622
   52CHL1  H26C 3844   4.960   0.361   4.403  0.1982 -0.3123  0.2859
   52CHL1   C27 3845   4.875   0.461   4.145  1.0117  0.3232 -0.8570
   52CHL1  H27A 3846   4.914   0.475   4.042 -2.8290 -2.3574 -2.9213
   52CHL1  H27B 3847   4.766   0.479   4.132  0.8760 -1.4832 -2.6696
   52CHL1  H27C 3848   4.925   0.530   4.217  0.1550 -2.5665  2.8603
   53CHL1    C3 3849   2.654   3.530   2.945 -0.1786  0.7403 -0.6038
   53CHL1    H3 3850   2.566   3.465   2.922  0.9590 -2.3919  2.9421
   53CHL1    O3 3851   2.738   3.546   2.832  0.2629 -0.3972 -0.4731
   53CHL1   H3' 3852   2.821   3.583   2.864  0.6803 -1.7570  0.0843
   53CHL1    C4 3853   2.613   3.665   3.002  0.3003 -0.6520 -0.3489
   53CHL1   H4A 3854   2.700   3.733   3.001 -0.1356 -0.0835 -1.7510
   53CHL1   H4B 3855   2.547   3.721   2.932 -1.2025  1.1782  2.3430
   53CHL1    C5 3856   2.559   3.675   3.148 -0.0054  0.2552  0.5220
   53CHL1    C6 3857   2.444   3.740   3.174 -1.3389 -0.4694 -0.2068
   53CHL1    H6 3858   2.384   3.796   3.101 -2.9821 -0.9118  0.7546
   53CHL1    C7 3859   2.382   3.736   3.309 -0.5078  0.5576  0.2468
   53CHL1   H7A 3860   2.346   3.840   3.325 -1.0468  0.8491 -2.4123
   53CHL1   H7B 3861   2.296   3.665   3.303 -0.0693 -0.3667  3.3102
   53CHL1    C8 3862   2.484   3.697   3.413 -0.7926 -0.6010 -0.8433
   53CHL1    H8 3863   2.551   3.781   3.440 -0.1639 -1.4122  0.2120
   53CHL1   C14 3864   2.411   3.672   3.542 -0.3288  0.1573  0.3524
   53CHL1   H14 3865   2.354   3.578   3.524  1.6790 -1.0987  0.2177
   53CHL1   C15 3866   2.317   3.790   3.599 -0.1025  0.3761 -0.1124
   53CHL1  H15A 3867   2.396   3.868   3.599  0.6298 -0.3264  1.0287
   53CHL1  H15B 3868   2.237   3.815   3.526 -0.1299  0.0905 -0.1804
   53CHL1   C16 3869   2.293   3.727   3.738  0.4443  0.2106  0.8527
   53CHL1  H16A 3870   2.297   3.804   3.818  0.1503  1.7058 -0.5398
   53CHL1  H16B 3871   2.190   3.688   3.755 -0.5948  1.8730 -1.2424
   53CHL1   C17 3872   2.388   3.601   3.770  1.3267 -0.3306  0.8662
   53CHL1   H17 3873   2.326   3.514   3.738 -0.8015  1.5150 -0.3083
   53CHL1   C13 3874   2.496   3.621   3.665  1.1285  0.4250 -0.0531
   53CHL1   C18 3875   2.602   3.727   3.717 -0.2292 -0.1955 -0.0287
   53CHL1  H18A 3876   2.679   3.672   3.776  1.6313 -1.1291 -3.1044
   53CHL1  H18B 3877   2.658   3.782   3.639  1.8865  2.8708  3.2905
   53CHL1  H18C 3878   2.554   3.813   3.769 -0.3252 -0.2737  0.0133
   53CHL1   C12 3879   2.574   3.497   3.621  0.6587  0.2598 -0.8749
   53CHL1  H12A 3880   2.640   3.461   3.704 -0.6872 -0.3172 -0.0184
   53CHL1  H12B 3881   2.500   3.419   3.593  1.6319 -0.1799 -2.3071
   53CHL1   C11 3882   2.665   3.521   3.499  0.6379 -0.1057 -0.0070
   53CHL1  H11A 3883   2.753   3.587   3.509 -0.6625  2.0812 -1.9708
   53CHL1  H11B 3884   2.710   3.424   3.469  2.4888 -0.0499  2.2515
   53CHL1    C9 3885   2.569   3.573   3.386 -0.0770  0.1857 -0.0122
   53CHL1    H9 3886   2.498   3.490   3.368 -1.5403  1.4527 -0.2896
   53CHL1   C10 3887   2.640   3.586   3.247 -0.5083 -0.0587  0.1020
   53CHL1   C19 3888   2.774   3.665   3.270 -0.4496 -0.4182 -0.3500
   53CHL1  H19A 3889   2.832   3.681   3.176  1.2697  1.4564  0.9255
   53CHL1  H19B 3890   2.752   3.771   3.296 -0.7422  0.0314 -2.2501
   53CHL1  H19C 3891   2.841   3.603   3.333 -1.5267 -2.3339 -1.0269
   53CHL1    C1 3892   2.669   3.446   3.189 -0.2580 -0.7338  0.2444
   53CHL1   H1A 3893   2.751   3.409   3.254  0.3444 -0.8840 -0.5746
   53CHL1   H1B 3894   2.584   3.378   3.210 -0.3427 -0.2522  1.5879
   53CHL1    C2 3895   2.726   3.446   3.048  0.2109  0.1458  0.0841
   53CHL1   H2A 3896   2.720   3.343   3.006 -0.0390 -0.1360  0.8011
   53CHL1   H2B 3897   2.831   3.481   3.058  0.9751 -2.3351  1.7422
   53CHL1   C20 3898   2.433   3.584   3.914 -0.1068  0.1836 -0.6153
   53CHL1   H20 3899   2.503   3.665   3.944 -0.7037  0.0723  1.1834
   53CHL1   C21 3900   2.500   3.448   3.929 -0.1924 -0.3567 -0.3499
   53CHL1  H21A 3901   2.452   3.371   3.864  1.8443  0.2332 -2.7028
   53CHL1  H21B 3902   2.489   3.404   4.030 -3.4056  0.4148 -0.2523
   53CHL1  H21C 3903   2.608   3.435   3.909  0.3105 -0.5137  2.2031
   53CHL1   C22 3904   2.319   3.589   4.018  0.5446  0.0298 -0.0047
   53CHL1  H22A 3905   2.264   3.683   3.997 -1.8337 -1.0514  1.0283
   53CHL1  H22B 3906   2.258   3.497   4.005 -1.1965  0.9962  0.9724
   53CHL1   C23 3907   2.366   3.610   4.166  0.1011  0.2667  0.2874
   53CHL1  H23A 3908   2.456   3.546   4.179 -1.5983 -2.5524 -0.8162
   53CHL1  H23B 3909   2.397   3.716   4.165 -1.3234  0.7010  0.8025
   53CHL1   C24 3910   2.250   3.584   4.271 -0.2980 -0.5639  0.3924
   53CHL1  H24A 3911   2.178   3.653   4.224  1.0427 -0.6616 -1.9550
   53CHL1  H24B 3912   2.202   3.486   4.251  0.1379 -0.3386 -2.0211
   53CHL1   C25 3913   2.282   3.630   4.414  0.2423  0.3751 -0.1483
   53CHL1   H25 3914   2.343   3.722   4.408 -2.3533  2.1384 -0.8064
   53CHL1   C26 3915   2.158   3.672   4.496 -0.3074  0.2034 -0.0757
   53CHL1  H26A 3916   2.087   3.589   4.515  0.0115  0.4428  2.6506
   53CHL1  H26B 3917   2.187   3.717   4.594 -0.6021 -0.4130  0.2981
   53CHL1  H26C 3918   2.113   3.753   4.435 -0.9391 -0.6860 -0.8148
   53CHL1   C27 3919   2.358   3.515   4.482 -0.0418  0.2093 -0.2111
   53CHL1  H27A 3920   2.387   3.532   4.588  2.9785  1.2758 -1.1018
   53CHL1  H27B 3921   2.308   3.416   4.478  0.2118  0.1319 -3.2935
   53CHL1  H27C 3922   2.458   3.492   4.439 -0.5102 -1.5718 -0.3942
   54CHL1    C3 3923   0.696   4.498   2.939 -0.6899 -0.3946  0.1987
   54CHL1    H3 3924   0.596   4.535   2.971 -1.0122 -1.4192  0.4130
   54CHL1    O3 3925   0.673   4.451   2.808  0.0170  0.2696 -0.3132
   54CHL1   H3' 3926   0.609   4.513   2.772 -0.1195 -0.3004 -1.0615
   54CHL1    C4 3927   0.804   4.611   2.939 -0.2501  0.9602 -0.4367
   54CHL1   H4A 3928   0.894   4.562   2.897  0.1187 -0.0346  1.4176
   54CHL1   H4B 3929   0.763   4.688   2.871 -0.5300  0.9922 -0.2341
   54CHL1    C5 3930   0.824   4.660   3.082 -0.3607  0.4174 -0.4794
   54CHL1    C6 3931   0.796   4.783   3.117 -0.4821  0.2390 -1.0924
   54CHL1    H6 3932   0.749   4.846   3.040 -2.2765  0.5476  0.1984
   54CHL1    C7 3933   0.811   4.839   3.258 -0.2132  0.3509  0.0583
   54CHL1   H7A 3934   0.856   4.940   3.245  0.3094  0.0867 -0.2309
   54CHL1   H7B 3935   0.705   4.846   3.289 -0.4882 -4.4570  0.9589
   54CHL1    C8 3936   0.885   4.751   3.355 -0.9877  0.1234  0.4396
   54CHL1    H8 3937   0.993   4.748   3.329 -0.0868  0.9328  3.6159
   54CHL1   C14 3938   0.882   4.800   3.495 -0.6846  0.7193  0.1677
   54CHL1   H14 3939   0.773   4.795   3.514 -1.0424 -0.5438 -1.8936
   54CHL1   C15 3940   0.940   4.935   3.527 -0.8336  0.7001  0.6790
   54CHL1  H15A 3941   1.036   4.956   3.475  0.2397  2.5029  3.1911
   54CHL1  H15B 3942   0.869   5.012   3.491  0.9933  1.6376 -1.1136
   54CHL1   C16 3943   0.966   4.929   3.680 -0.6046 -0.0525  0.4677
   54CHL1  H16A 3944   1.075   4.949   3.691 -0.0394 -2.3188 -0.4931
   54CHL1  H16B 3945   0.899   5.010   3.718  0.6174  1.3828 -0.3118
   54CHL1   C17 3946   0.935   4.787   3.731  0.3228 -0.1721 -0.1397
   54CHL1   H17 3947   0.828   4.799   3.761  0.5492 -2.0450  1.6015
   54CHL1   C13 3948   0.949   4.704   3.603  0.0830 -0.0564  0.1459
   54CHL1   C18 3949   1.094   4.663   3.566 -0.2070 -0.3436 -0.0825
   54CHL1  H18A 3950   1.128   4.594   3.647  0.8131  0.1053 -0.1044
   54CHL1  H18B 3951   1.092   4.625   3.462 -1.0497 -0.9965  0.1666
   54CHL1  H18C 3952   1.169   4.745   3.577  0.3670 -0.9054  0.2379
   54CHL1   C12 3953   0.863   4.576   3.593 -1.1707 -1.2623 -0.4538
   54CHL1  H12A 3954   0.903   4.499   3.662  2.5142 -0.9546 -2.0150
   54CHL1  H12B 3955   0.758   4.594   3.625 -1.1352 -0.4193 -0.8032
   54CHL1   C11 3956   0.865   4.512   3.458 -0.1586 -0.7694  0.3511
   54CHL1  H11A 3957   0.968   4.471   3.446  0.1333 -0.6888  2.2403
   54CHL1  H11B 3958   0.810   4.416   3.463 -0.2754 -0.8825 -2.1047
   54CHL1    C9 3959   0.828   4.613   3.338 -0.1468 -0.1667 -0.4113
   54CHL1    H9 3960   0.718   4.627   3.351 -0.6484 -1.6231 -2.4874
   54CHL1   C10 3961   0.850   4.551   3.195 -0.8963  0.2119  0.1949
   54CHL1   C19 3962   0.996   4.505   3.180 -0.1073  0.1076  0.5361
   54CHL1  H19A 3963   1.059   4.596   3.187  1.7296 -1.1357  0.7555
   54CHL1  H19B 3964   1.023   4.432   3.260 -1.4823  0.8971  1.7736
   54CHL1  H19C 3965   1.020   4.453   3.085 -1.3868 -1.8796  1.2366
   54CHL1    C1 3966   0.750   4.442   3.179  0.1576  0.5001 -1.1492
   54CHL1   H1A 3967   0.771   4.359   3.250 -0.3172  1.3504  0.0282
   54CHL1   H1B 3968   0.646   4.467   3.208  0.1498  0.3465 -1.0424
   54CHL1    C2 3969   0.740   4.387   3.034 -0.5795 -0.3641 -0.2368
   54CHL1   H2A 3970   0.669   4.301   3.037 -1.2898  0.2004 -0.5367
   54CHL1   H2B 3971   0.834   4.338   3.000 -0.9912 -0.4138 -1.3426
   54CHL1   C20 3972   1.014   4.751   3.857 -0.0109  0.0595 -0.8738
   54CHL1   H20 3973   1.119   4.720   3.836  1.2015  1.3676  2.5836
   54CHL1   C21 3974   0.939   4.637   3.935  0.0178 -0.5990  0.1557
   54CHL1  H21A 3975   0.939   4.547   3.870  1.0905 -0.4006 -0.1341
   54CHL1  H21B 3976   0.841   4.670   3.976  0.0844  0.9428 -0.8673
   54CHL1  H21C 3977   0.999   4.607   4.024 -0.4033  1.0107  1.0333
   54CHL1   C22 3978   1.030   4.871   3.957 -0.2622 -0.0871 -0.7536
   54CHL1  H22A 3979   1.081   4.957   3.910 -0.0416  1.2945  1.8339
   54CHL1  H22B 3980   0.926   4.906   3.977  0.8709  2.7331  0.8192
   54CHL1   C23 3981   1.111   4.844   4.089  0.2831  0.2965  0.2459
   54CHL1  H23A 3982   1.070   4.755   4.141  0.5103 -0.0329 -0.1329
   54CHL1  H23B 3983   1.217   4.819   4.066 -0.1763 -0.2338 -1.5050
   54CHL1   C24 3984   1.094   4.968   4.188 -0.0967 -0.4251 -0.6383
   54CHL1  H24A 3985   1.130   5.059   4.137  0.7672  0.5123  1.5173
   54CHL1  H24B 3986   0.984   4.981   4.200 -0.1923 -0.4291 -1.4336
   54CHL1   C25 3987   1.164   4.956   4.323 -0.1357  0.1981 -0.1170
   54CHL1   H25 3988   1.174   4.846   4.331  1.7953  0.2670 -0.9127
   54CHL1   C26 3989   1.301   5.025   4.321  0.1812 -0.4716  0.0792
   54CHL1  H26A 3990   1.367   4.979   4.244  0.6318  0.3202 -0.0108
   54CHL1  H26B 3991   1.289   5.130   4.290 -0.5697 -0.2847  0.9499
   54CHL1  H26C 3992   1.344   5.020   4.424  2.7778  2.2269 -0.7386
   54CHL1   C27 3993   1.083   5.018   4.441  0.5735  0.1667  0.2053
   54CHL1  H27A 3994   1.071   5.128   4.435  2.0233  0.2566 -1.9136
   54CHL1  H27B 3995   0.982   4.973   4.430  1.5528 -1.6486 -2.1862
   54CHL1  H27C 3996   1.110   4.979   4.541 -1.7598 -0.5084  0.6549
   55CHL1    C3 3997   5.555   4.521   2.912 -0.3555  0.0687 -0.0883
   55CHL1    H3 3998   5.630   4.440   2.928  1.4203  1.7884  0.7538
   55CHL1    O3 3999   5.474   4.511   2.799 -0.0505  0.4186  0.5045
   55CHL1   H3' 4000   5.387   4.482   2.829  0.0416  0.2583  0.6173
   55CHL1    C4 4001   5.466   4.525   3.030  0.1028 -0.2310 -0.3464
   55CHL1   H4A 4002   5.387   4.600   3.008  1.9907  1.6805 -0.8979
   55CHL1   H4B 4003   5.411   4.428   3.037 -2.0533  1.0175  1.3810
   55CHL1    C5 4004   5.532   4.564   3.159 -0.3299 -0.5106 -0.8712
   55CHL1    C6 4005   5.520   4.496   3.274  0.6547  0.1404  0.1104
   55CHL1    H6 4006   5.457   4.407   3.259  0.8943 -0.4134  2.1277
   55CHL1    C7 4007   5.557   4.525   3.414  0.6682 -0.6637  0.6804
   55CHL1   H7A 4008   5.473   4.517   3.486  0.2007 -0.0064  0.2130
   55CHL1   H7B 4009   5.633   4.449   3.443  1.3315 -0.4577 -0.4459
   55CHL1    C8 4010   5.616   4.669   3.414 -0.4714  0.2013  0.0487
   55CHL1    H8 4011   5.532   4.741   3.425 -0.6529  0.4759 -2.4212
   55CHL1   C14 4012   5.700   4.685   3.541 -0.4749  0.1664  0.8212
   55CHL1   H14 4013   5.788   4.618   3.526 -1.3944 -1.5923  2.8638
   55CHL1   C15 4014   5.648   4.634   3.675 -0.6233 -0.3518 -0.7209
   55CHL1  H15A 4015   5.548   4.682   3.687 -1.0628 -0.1225 -4.1880
   55CHL1  H15B 4016   5.642   4.523   3.671  0.7906 -0.4143 -1.5639
   55CHL1   C16 4017   5.743   4.690   3.778 -0.5420  0.1979 -0.3007
   55CHL1  H16A 4018   5.689   4.731   3.865 -0.5154  0.7040 -0.5170
   55CHL1  H16B 4019   5.816   4.615   3.815  0.8980  0.4080 -2.4771
   55CHL1   C17 4020   5.838   4.792   3.699  0.7714  1.1344 -0.3609
   55CHL1   H17 4021   5.931   4.738   3.671  0.3038  0.4625 -0.6403
   55CHL1   C13 4022   5.761   4.821   3.565 -0.8212 -0.1121 -0.4423
   55CHL1   C18 4023   5.647   4.924   3.600 -0.4214  0.3232  0.1873
   55CHL1  H18A 4024   5.695   5.021   3.624 -0.2462  0.0123  1.1090
   55CHL1  H18B 4025   5.581   4.940   3.512 -0.4164  2.4001  0.5170
   55CHL1  H18C 4026   5.594   4.901   3.695  0.6751  0.3149  0.8083
   55CHL1   C12 4027   5.843   4.865   3.443 -0.0193 -0.2584  0.0784
   55CHL1  H12A 4028   5.870   4.973   3.448 -0.6744  0.0808 -2.3868
   55CHL1  H12B 4029   5.936   4.804   3.440 -0.2890 -0.6358 -1.1852
   55CHL1   C11 4030   5.768   4.845   3.313  0.4265  0.2576  0.2439
   55CHL1  H11A 4031   5.680   4.912   3.306 -0.1471 -0.4246  0.8200
   55CHL1  H11B 4032   5.834   4.865   3.225  0.4170 -1.3419 -0.1624
   55CHL1    C9 4033   5.698   4.704   3.288  0.4469  0.0607  0.4198
   55CHL1    H9 4034   5.777   4.626   3.283 -1.7330 -2.2110 -2.0000
   55CHL1   C10 4035   5.622   4.695   3.152 -0.0085  0.1077  0.7172
   55CHL1   C19 4036   5.538   4.816   3.128 -0.1189 -0.4608  0.5037
   55CHL1  H19A 4037   5.470   4.797   3.042  0.7241 -1.5418  0.0574
   55CHL1  H19B 4038   5.476   4.846   3.215 -0.8799 -1.5749  0.3560
   55CHL1  H19C 4039   5.597   4.905   3.096  0.1770 -0.5439  0.8037
   55CHL1    C1 4040   5.726   4.668   3.034  0.6638  0.3108 -0.2014
   55CHL1   H1A 4041   5.789   4.759   3.029 -1.6836  2.1434  1.4200
   55CHL1   H1B 4042   5.790   4.584   3.069 -1.3844 -0.8212  1.0969
   55CHL1    C2 4043   5.656   4.640   2.899  0.0680  0.1002 -0.0913
   55CHL1   H2A 4044   5.725   4.617   2.815  0.1567  0.8388 -0.2255
   55CHL1   H2B 4045   5.598   4.731   2.874 -1.0257  0.2944  2.6957
   55CHL1   C20 4046   5.883   4.908   3.787  0.4284 -0.0920  0.0507
   55CHL1   H20 4047   5.800   4.976   3.817  1.1279  0.3113  1.1078
   55CHL1   C21 4048   5.986   4.992   3.710  0.1943 -0.5656 -0.6999
   55CHL1  H21A 4049   6.063   4.922   3.671 -0.1764 -1.1660 -0.3614
   55CHL1  H21B 4050   6.025   5.072   3.776 -0.6549  0.5827 -1.5321
   55CHL1  H21C 4051   5.946   5.041   3.618 -0.9937 -0.4193 -0.1253
   55CHL1   C22 4052   5.955   4.851   3.913  0.4996  0.7739 -0.1028
   55CHL1  H22A 4053   5.886   4.788   3.973  0.0933  0.1724 -1.1769
   55CHL1  H22B 4054   6.044   4.795   3.879 -0.9367 -0.0957 -2.7276
   55CHL1   C23 4055   6.019   4.957   4.001  0.0192  0.0625  0.0481
   55CHL1  H23A 4056   6.109   4.987   3.943 -1.7741  1.8040 -2.0175
   55CHL1  H23B 4057   5.947   5.041   4.004 -1.0992 -0.8119 -1.2209
   55CHL1   C24 4058   6.056   4.901   4.141  0.3598  0.2163 -0.3584
   55CHL1  H24A 4059   5.977   4.846   4.196  1.8347  0.4313  2.1424
   55CHL1  H24B 4060   6.134   4.822   4.145 -1.1181 -1.2841  0.4791
   55CHL1   C25 4061   6.118   5.010   4.237 -0.2184 -0.2204 -0.4100
   55CHL1   H25 4062   6.215   5.041   4.194  0.3856 -2.6618 -0.9577
   55CHL1   C26 4063   6.028   5.129   4.270 -0.0865  0.0652  0.5424
   55CHL1  H26A 4064   5.936   5.108   4.329  0.1191 -1.9202  0.2384
   55CHL1  H26B 4065   6.089   5.206   4.321  0.0273  0.4852 -0.2161
   55CHL1  H26C 4066   5.992   5.186   4.181 -1.0249  0.5351  1.2076
   55CHL1   C27 4067   6.160   4.948   4.370 -0.1452 -0.4948 -0.2193
   55CHL1  H27A 4068   6.064   4.936   4.426 -0.5900 -2.4098 -1.2952
   55CHL1  H27B 4069   6.211   4.850   4.358  0.2873 -0.3123  0.1157
   55CHL1  H27C 4070   6.241   5.010   4.413 -1.0566  0.8424 -0.3532
   56CHL1    C3 4071   6.061   4.496   2.891  0.7819  0.1251  0.2541
   56CHL1    H3 4072   5.961   4.537   2.917  1.4254  0.3254  2.6311
   56CHL1    O3 4073   6.071   4.450   2.758  0.5316 -0.2046 -0.8930
   56CHL1   H3' 4074   6.161   4.415   2.758  0.5628 -0.4811  2.8992
   56CHL1    C4 4075   6.165   4.610   2.917  0.1451 -0.1763  0.0825
   56CHL1   H4A 4076   6.267   4.577   2.886  0.8473 -0.2619  2.3128
   56CHL1   H4B 4077   6.134   4.689   2.845  0.6238 -0.7324 -0.7405
   56CHL1    C5 4078   6.171   4.660   3.058  0.3143 -0.7151  0.2430
   56CHL1    C6 4079   6.165   4.790   3.092 -0.5798 -0.1630 -0.2273
   56CHL1    H6 4080   6.154   4.863   3.010  1.8127  0.6507  0.0865
   56CHL1    C7 4081   6.185   4.849   3.231 -0.3684  0.4176  0.4660
   56CHL1   H7A 4082   6.248   4.940   3.219 -0.5877  0.7924  2.0095
   56CHL1   H7B 4083   6.090   4.882   3.277  0.1378  2.8483 -0.1102
   56CHL1    C8 4084   6.246   4.737   3.324 -0.4014  0.4266 -0.2621
   56CHL1    H8 4085   6.353   4.717   3.301 -1.1831 -2.4127 -2.0360
   56CHL1   C14 4086   6.244   4.773   3.473 -0.4238 -0.6098  0.7902
   56CHL1   H14 4087   6.137   4.772   3.503 -0.6181  1.3011  0.2900
   56CHL1   C15 4088   6.288   4.916   3.510  0.5835 -0.1651  0.1533
   56CHL1  H15A 4089   6.377   4.932   3.445  0.9524 -1.4919  0.3050
   56CHL1  H15B 4090   6.203   4.978   3.477  1.0309  0.4768  0.1936
   56CHL1   C16 4091   6.333   4.896   3.658 -0.0974 -0.8480  0.7759
   56CHL1  H16A 4092   6.439   4.929   3.659  0.8258 -3.5641  2.7011
   56CHL1  H16B 4093   6.269   4.961   3.722  0.2964  0.9664 -0.6003
   56CHL1   C17 4094   6.314   4.750   3.699  0.6062  0.2062 -0.7443
   56CHL1   H17 4095   6.211   4.748   3.740  0.3986 -3.0541 -1.1579
   56CHL1   C13 4096   6.316   4.673   3.570  0.3470 -0.1209 -0.3117
   56CHL1   C18 4097   6.462   4.650   3.540 -0.7958  0.3177  0.5103
   56CHL1  H18A 4098   6.518   4.746   3.547 -1.5986  0.7175  1.6284
   56CHL1  H18B 4099   6.508   4.575   3.607 -0.1990 -0.1826 -0.4246
   56CHL1  H18C 4100   6.488   4.613   3.438  2.9296 -0.4097  1.5567
   56CHL1   C12 4101   6.233   4.548   3.568  0.1157  0.0646  0.1437
   56CHL1  H12A 4102   6.282   4.462   3.618  0.5011 -1.9257 -3.3125
   56CHL1  H12B 4103   6.130   4.563   3.607 -1.1151  0.8668 -3.0771
   56CHL1   C11 4104   6.221   4.498   3.416  0.4557  0.4960 -0.4743
   56CHL1  H11A 4105   6.323   4.462   3.392 -0.0317 -1.1889 -0.1637
   56CHL1  H11B 4106   6.160   4.405   3.418 -1.3724  1.5672 -2.8378
   56CHL1    C9 4107   6.172   4.598   3.308 -0.4163  0.1027 -0.4945
   56CHL1    H9 4108   6.067   4.625   3.333 -0.0195  1.6089 -0.3569
   56CHL1   C10 4109   6.190   4.548   3.162  0.2532 -0.2059 -0.2245
   56CHL1   C19 4110   6.341   4.501   3.142  0.6156  0.4367 -0.1635
   56CHL1  H19A 4111   6.413   4.582   3.167 -0.8258  1.4955  0.7211
   56CHL1  H19B 4112   6.360   4.410   3.202  1.1185  1.1323  0.7417
   56CHL1  H19C 4113   6.360   4.463   3.039  0.9005  0.9680 -0.3131
   56CHL1    C1 4114   6.087   4.435   3.135  0.6206  0.3816 -0.6049
   56CHL1   H1A 4115   6.110   4.343   3.194 -0.3836  0.5455  0.0581
   56CHL1   H1B 4116   5.986   4.470   3.163  0.0757 -0.4554 -1.4830
   56CHL1    C2 4117   6.084   4.385   2.990  0.1383  0.3889  1.1096
   56CHL1   H2A 4118   6.013   4.301   2.976  0.0421  0.2707  2.2636
   56CHL1   H2B 4119   6.184   4.339   2.973 -1.0596 -0.9862 -4.5473
   56CHL1   C20 4120   6.404   4.701   3.815  0.6971 -0.0635 -0.9283
   56CHL1   H20 4121   6.507   4.672   3.785  0.8025 -1.2723  0.4880
   56CHL1   C21 4122   6.350   4.575   3.881  0.1705 -0.0586  0.3070
   56CHL1  H21A 4123   6.400   4.556   3.978  0.0979  0.0564  0.3678
   56CHL1  H21B 4124   6.367   4.488   3.814 -0.2117  0.8699 -1.0521
   56CHL1  H21C 4125   6.242   4.591   3.902 -0.1848 -0.1266 -1.3263
   56CHL1   C22 4126   6.416   4.812   3.924 -0.3151  0.7902 -0.2570
   56CHL1  H22A 4127   6.418   4.915   3.881 -0.8203  0.6982 -0.5068
   56CHL1  H22B 4128   6.323   4.804   3.986 -0.7908 -0.2169 -1.0709
   56CHL1   C23 4129   6.532   4.779   4.019 -0.0264 -0.1628 -0.4011
   56CHL1  H23A 4130   6.532   4.675   4.059 -3.2957  0.1561  0.7308
   56CHL1  H23B 4131   6.623   4.801   3.958  0.5975 -0.0034  0.5693
   56CHL1   C24 4132   6.535   4.854   4.146 -0.6165 -0.1721 -0.0986
   56CHL1  H24A 4133   6.554   4.963   4.134  3.6024 -0.8806 -1.6646
   56CHL1  H24B 4134   6.435   4.835   4.190 -1.5051  0.3398 -1.8392
   56CHL1   C25 4135   6.649   4.816   4.239 -0.0969 -0.4516  0.1046
   56CHL1   H25 4136   6.644   4.711   4.276  0.6859 -0.0793  1.3076
   56CHL1   C26 4137   6.783   4.833   4.174 -0.8363 -0.1938 -0.3974
   56CHL1  H26A 4138   6.794   4.778   4.077  1.9420  0.1354 -0.3397
   56CHL1  H26B 4139   6.804   4.940   4.157 -3.4516  0.1245 -2.2452
   56CHL1  H26C 4140   6.850   4.793   4.253 -1.6566 -2.0158 -0.5577
   56CHL1   C27 4141   6.636   4.892   4.374 -0.7174 -0.3295 -0.4922
   56CHL1  H27A 4142   6.656   5.001   4.363  0.9290 -0.6708 -1.1001
   56CHL1  H27B 4143   6.530   4.884   4.408 -0.9280  1.9906 -0.4420
   56CHL1  H27C 4144   6.704   4.857   4.454  1.1561 -0.8208 -2.2280
   57SAPC     N 4145   1.413   3.639   7.312 -0.0784  0.4331  0.0076
   57SAPC   C12 4146   1.308   3.727   7.241 -1.5662  0.1524  0.0878
   57SAPC  H12A 4147   1.283   3.807   7.309 -0.6605  1.8764 -1.5278
   57SAPC  H12B 4148   1.212   3.678   7.227 -1.7186 -0.1376  1.9013
   57SAPC   C13 4149   1.546   3.709   7.333 -1.1414  0.0463  0.0788
   57SAPC  H13A 4150   1.586   3.725   7.234 -0.8412 -0.0428  0.1833
   57SAPC  H13B 4151   1.531   3.797   7.393 -0.0842  0.1792  0.1730
   57SAPC  H13C 4152   1.620   3.647   7.382 -0.5117 -0.4173 -1.4101
   57SAPC   C14 4153   1.363   3.592   7.444  0.0247  0.0558 -0.3535
   57SAPC  H14A 4154   1.335   3.673   7.509  0.6810 -0.2794  0.3620
   57SAPC  H14B 4155   1.273   3.534   7.433 -0.6801  0.9202  0.7946
   57SAPC  H14C 4156   1.438   3.536   7.498 -0.8721  0.0478  0.9043
   57SAPC   C15 4157   1.438   3.515   7.226  0.3328 -0.1412 -0.0067
   57SAPC  H15A 4158   1.353   3.448   7.218 -0.4284  0.6199  1.3325
   57SAPC  H15B 4159   1.440   3.555   7.126 -0.1779  1.5136  0.6127
   57SAPC  H15C 4160   1.526   3.458   7.253 -1.4004 -1.8307  2.6857
   57SAPC   C11 4161   1.333   3.779   7.097 -0.2086 -0.9261 -0.6296
   57SAPC  H11A 4162   1.237   3.813   7.053 -0.2800 -0.3705 -0.0537
   57SAPC  H11B 4163   1.373   3.693   7.040  2.0377 -0.9557  0.8806
   57SAPC     P 4164   1.390   4.020   7.175  0.0740 -0.2209  0.6418
   57SAPC   O13 4165   1.345   4.001   7.315 -0.4591 -0.1795 -0.0865
   57SAPC   O14 4166   1.494   4.128   7.148 -0.2916  0.1114  0.4982
   57SAPC   O12 4167   1.427   3.889   7.100  0.1079 -0.1854 -0.2117
   57SAPC   O11 4168   1.259   4.065   7.092  0.1567  0.0528  0.3332
   57SAPC    C1 4169   1.267   4.126   6.963 -0.3125 -0.5917 -0.0315
   57SAPC    HA 4170   1.161   4.154   6.941 -0.6928 -0.6968  1.5455
   57SAPC    HB 4171   1.317   4.225   6.971  0.6340 -0.9967 -0.8078
   57SAPC    C2 4172   1.318   4.032   6.855  0.4875  0.1757 -0.0949
   57SAPC    HS 4173   1.274   3.932   6.875 -0.4925  0.6353  0.1005
   57SAPC   O21 4174   1.467   4.033   6.848 -0.0147 -0.4556 -0.6500
   57SAPC   C21 4175   1.508   3.923   6.782 -0.1420 -0.5638  0.0063
   57SAPC   O22 4176   1.442   3.819   6.779 -0.1877 -0.1850  0.2290
   57SAPC   C22 4177   1.638   3.938   6.715 -0.2539 -0.3808  0.4960
   57SAPC   H2R 4178   1.676   4.040   6.738  1.8137 -1.5397  2.7231
   57SAPC   H2S 4179   1.708   3.862   6.757 -2.4164 -2.3633  0.7500
   57SAPC    C3 4180   1.278   4.091   6.716  0.4766  0.2069  0.0814
   57SAPC    HX 4181   1.320   4.194   6.710 -1.3592  0.9035 -2.3939
   57SAPC    HY 4182   1.169   4.111   6.707  0.5394  0.0092 -1.2662
   57SAPC   O31 4183   1.317   4.012   6.605  0.2087  0.0488  0.2706
   57SAPC   C31 4184   1.225   3.942   6.536  0.7750 -0.0119  0.9257
   57SAPC   O32 4185   1.103   3.954   6.543  0.0092 -0.3558  0.3292
   57SAPC   C32 4186   1.294   3.865   6.429 -0.9444  0.0433  0.3338
   57SAPC   H2X 4187   1.242   3.767   6.426 -0.2308 -0.3361  0.0413
   57SAPC   H2Y 4188   1.400   3.845   6.458 -1.7649 -0.0486  3.6910
   57SAPC   C23 4189   1.635   3.914   6.560 -0.1177 -0.6885  0.0622
   57SAPC   H3R 4190   1.573   3.986   6.503 -2.3314 -0.7698  2.1980
   57SAPC   H3S 4191   1.583   3.816   6.557  0.6545 -1.1569  1.0968
   57SAPC   C24 4192   1.760   3.884   6.482  0.2316  0.4720 -0.2205
   57SAPC   H4R 4193   1.732   3.840   6.384 -0.4686  0.1766  0.1030
   57SAPC   H4S 4194   1.816   3.808   6.540 -1.0518 -0.5888 -0.3261
   57SAPC   C25 4195   1.849   4.008   6.468  0.8241 -0.3297 -0.9067
   57SAPC   H5R 4196   1.917   4.030   6.552 -2.5389  1.1090  1.6558
   57SAPC   C26 4197   1.834   4.110   6.379 -1.0499  0.3847 -0.1467
   57SAPC   H6R 4198   1.904   4.194   6.392  1.1021 -0.8568 -2.7838
   57SAPC   C27 4199   1.753   4.118   6.251 -0.4768  0.2294 -0.0352
   57SAPC   H7R 4200   1.669   4.190   6.258  0.0025  0.6651  1.4762
   57SAPC   H7S 4201   1.715   4.016   6.226 -0.2234  0.3085 -0.7694
   57SAPC   C28 4202   1.842   4.151   6.128  0.9603  1.2582  0.1700
   57SAPC   H8R 4203   1.947   4.166   6.156  1.0141 -0.8263  1.2520
   57SAPC   C29 4204   1.800   4.188   6.003  0.0700 -0.1432  0.2423
   57SAPC   H9R 4205   1.883   4.205   5.935 -0.9490  2.9068 -0.3752
   57SAPC  C210 4206   1.662   4.185   5.943 -0.3843 -0.4721  0.0075
   57SAPC  H10R 4207   1.617   4.085   5.958 -0.8403 -0.4155 -0.8773
   57SAPC  H10S 4208   1.677   4.171   5.833  1.1887 -2.0501  0.3688
   57SAPC  C211 4209   1.564   4.295   5.968  0.7891  0.1283  0.7877
   57SAPC  H11R 4210   1.543   4.318   6.074 -0.1623  2.6002  0.1418
   57SAPC  C212 4211   1.500   4.367   5.869  0.4876  0.1252 -0.2778
   57SAPC  H12R 4212   1.438   4.449   5.908  0.8069 -1.0360  2.9726
   57SAPC  C213 4213   1.520   4.367   5.715 -0.6222  0.4915 -0.0150
   57SAPC  H13R 4214   1.419   4.347   5.672  0.0510 -3.9158 -0.0201
   57SAPC  H13S 4215   1.582   4.283   5.677 -0.9396  0.4478 -0.4461
   57SAPC  C214 4216   1.579   4.498   5.669 -0.2373  0.2914 -0.1532
   57SAPC  H14R 4217   1.655   4.540   5.737  0.9024 -0.7637 -0.7472
   57SAPC  C215 4218   1.574   4.548   5.542  0.5710  0.6969 -1.0369
   57SAPC  H15R 4219   1.625   4.645   5.529 -1.2678  1.9470  0.4775
   57SAPC  C216 4220   1.489   4.514   5.427  0.1003 -0.1489  0.2061
   57SAPC  H16R 4221   1.439   4.610   5.402  0.8585  1.3709  3.9479
   57SAPC  H16S 4222   1.404   4.446   5.450  0.9838 -1.9814 -1.5653
   57SAPC  C217 4223   1.567   4.465   5.306  0.7094 -0.1055  0.5890
   57SAPC  H17R 4224   1.612   4.365   5.326  0.0267 -0.6910 -0.6990
   57SAPC  H17S 4225   1.649   4.532   5.275 -1.9479  1.8358 -2.9444
   57SAPC  C218 4226   1.480   4.452   5.180  0.5854  0.5803  0.0148
   57SAPC  H18R 4227   1.555   4.414   5.108  1.6942 -0.4453  1.6581
   57SAPC  H18S 4228   1.433   4.546   5.143  1.4797  0.9166 -0.2948
   57SAPC  C219 4229   1.375   4.344   5.194  0.1878 -0.4683 -0.4705
   57SAPC  H19R 4230   1.298   4.381   5.266  0.6390  0.9165 -0.6796
   57SAPC  H19S 4231   1.426   4.266   5.255  0.8941  1.0897  1.0078
   57SAPC  C220 4232   1.298   4.294   5.075 -0.7773  0.1444 -0.3917
   57SAPC  H20R 4233   1.373   4.260   5.001  1.2729 -0.9876  2.0653
   57SAPC  H20S 4234   1.223   4.365   5.034 -0.7249 -0.3225 -1.3166
   57SAPC  H20T 4235   1.245   4.206   5.116  2.3798 -1.6941  0.0371
   57SAPC   C33 4236   1.285   3.928   6.284 -0.4936  0.2479 -0.0818
   57SAPC   H3X 4237   1.343   4.022   6.295 -0.6070  0.1879  1.1435
   57SAPC   H3Y 4238   1.181   3.955   6.257 -0.6076  3.0526  2.5309
   57SAPC   C34 4239   1.350   3.838   6.185  0.0570  0.1741  0.9222
   57SAPC   H4X 4240   1.280   3.755   6.161 -0.2867  1.3681 -2.8553
   57SAPC   H4Y 4241   1.441   3.793   6.230 -1.8196 -2.9809  1.8761
   57SAPC   C35 4242   1.389   3.905   6.053  0.5097 -0.5085  0.0363
   57SAPC   H5X 4243   1.446   3.828   5.997  1.3572 -0.2891  0.5638
   57SAPC   H5Y 4244   1.452   3.994   6.076  1.4802 -0.8717 -1.0872
   57SAPC   C36 4245   1.274   3.964   5.968 -0.5761  0.0363 -0.1781
   57SAPC   H6X 4246   1.223   4.046   6.025 -1.6449  0.8873 -2.2523
   57SAPC   H6Y 4247   1.207   3.878   5.946 -0.5991 -0.1156  0.4739
   57SAPC   C37 4248   1.319   4.039   5.843  0.1062 -0.1982  0.3218
   57SAPC   H7X 4249   1.393   4.117   5.873  0.4706 -0.0713 -0.8864
   57SAPC   H7Y 4250   1.227   4.080   5.797 -0.3792  0.6258  1.9297
   57SAPC   C38 4251   1.397   3.956   5.737  0.2245 -0.9477  0.0182
   57SAPC   H8X 4252   1.333   3.868   5.712 -0.9563  0.3152 -1.6656
   57SAPC   H8Y 4253   1.490   3.924   5.789  0.1848 -0.9412  0.0931
   57SAPC   C39 4254   1.429   4.027   5.601 -0.2324  0.2804 -0.6862
   57SAPC   H9X 4255   1.514   4.093   5.627 -1.8789  1.8166  1.1455
   57SAPC   H9Y 4256   1.347   4.098   5.575 -0.2320 -0.2562 -2.2699
   57SAPC  C310 4257   1.450   3.928   5.490  0.4575 -0.9667  0.3287
   57SAPC  H10X 4258   1.355   3.875   5.469  1.5614 -2.9071 -0.0463
   57SAPC  H10Y 4259   1.529   3.857   5.524  0.3359 -1.1335  0.2638
   57SAPC  C311 4260   1.494   3.998   5.357  0.0120 -0.2072 -0.6371
   57SAPC  H11X 4261   1.597   4.036   5.372  0.1071 -1.1104  1.3976
   57SAPC  H11Y 4262   1.427   4.083   5.336 -1.6647 -2.0544 -3.3724
   57SAPC  C312 4263   1.483   3.900   5.240  0.8053  1.0132 -0.3319
   57SAPC  H12X 4264   1.388   3.842   5.234  1.7545 -0.5713 -0.6199
   57SAPC  H12Y 4265   1.549   3.816   5.271 -2.3491 -0.9101  1.8079
   57SAPC  C313 4266   1.524   3.963   5.108 -0.1394 -0.0834  0.5574
   57SAPC  H13X 4267   1.621   4.016   5.123  0.3733 -1.1471  1.0498
   57SAPC  H13Y 4268   1.450   4.046   5.102  0.4786  0.5420  1.3117
   57SAPC  C314 4269   1.528   3.879   4.980 -0.1193  0.2338 -0.2977
   57SAPC  H14X 4270   1.440   3.811   4.982  0.0455  0.0278 -0.0357
   57SAPC  H14Y 4271   1.614   3.810   4.988  1.0780  1.6984 -0.0792
   57SAPC  C315 4272   1.538   3.947   4.842 -0.8120  0.4685 -0.5911
   57SAPC  H15X 4273   1.616   4.024   4.852  0.9619 -1.4197  1.0372
   57SAPC  H15Y 4274   1.448   4.011   4.827  0.5827  2.3593 -1.1283
   57SAPC  C316 4275   1.549   3.837   4.734 -0.0967 -0.0431 -0.2283
   57SAPC  H16X 4276   1.453   3.784   4.753  0.7354 -1.1570  1.0189
   57SAPC  H16Y 4277   1.629   3.763   4.755  0.1355  0.3855  0.4274
   57SAPC  C317 4278   1.556   3.893   4.591 -0.6862  0.5268 -0.8712
   57SAPC  H17X 4279   1.487   3.978   4.605 -1.1823 -0.0984  0.6194
   57SAPC  H17Y 4280   1.512   3.832   4.509 -0.4515 -1.7380  0.5982
   57SAPC  C318 4281   1.692   3.954   4.548 -0.6149 -0.2274 -0.2502
   57SAPC  H18X 4282   1.780   3.887   4.555  0.0474  0.7123  0.9096
   57SAPC  H18Y 4283   1.696   4.039   4.619 -0.9077  0.0477 -0.5575
   57SAPC  H18Z 4284   1.675   3.994   4.445  0.0490  0.6278 -0.0443
   58SAPC     N 4285   4.308   5.836   6.652 -0.6270 -0.5848 -0.2161
   58SAPC   C12 4286   4.300   5.987   6.675  0.6267 -0.3001  0.4310
   58SAPC  H12A 4287   4.223   6.020   6.743  1.1090  2.2773 -0.1541
   58SAPC  H12B 4288   4.274   6.031   6.580  4.0805 -1.8510 -1.4571
   58SAPC   C13 4289   4.381   5.798   6.531 -0.1770 -0.0045  0.1164
   58SAPC  H13A 4290   4.401   5.692   6.530  1.8608  0.2350  3.0387
   58SAPC  H13B 4291   4.324   5.831   6.445  1.5149  1.0795 -0.6379
   58SAPC  H13C 4292   4.476   5.848   6.519  1.1062 -2.8698 -3.5137
   58SAPC   C14 4293   4.370   5.770   6.769  0.6355 -0.3703 -0.4392
   58SAPC  H14A 4294   4.372   5.663   6.757  1.3236 -0.6574  1.7232
   58SAPC  H14B 4295   4.466   5.814   6.792 -0.3937  1.3289  0.8661
   58SAPC  H14C 4296   4.313   5.780   6.861  1.3368  1.1524 -0.1385
   58SAPC   C15 4297   4.172   5.774   6.643 -0.2871  0.3380 -0.4446
   58SAPC  H15A 4298   4.168   5.666   6.636 -0.0730  0.2385  0.7583
   58SAPC  H15B 4299   4.107   5.789   6.728  1.9696  0.5117  1.3449
   58SAPC  H15C 4300   4.118   5.818   6.561  1.1936  0.0617 -1.6048
   58SAPC   C11 4301   4.439   6.056   6.701  0.4532 -0.4932 -0.3166
   58SAPC  H11A 4302   4.478   6.014   6.796 -0.2371 -1.1537 -0.3206
   58SAPC  H11B 4303   4.420   6.164   6.721  0.7036 -0.4195 -0.4661
   58SAPC     P 4304   4.676   6.047   6.598 -0.0863 -0.1534 -0.0270
   58SAPC   O13 4305   4.725   6.036   6.738  1.0753 -0.2664  0.2013
   58SAPC   O14 4306   4.738   5.965   6.489  0.5458  0.7283 -0.0447
   58SAPC   O12 4307   4.521   6.041   6.586  0.3516 -0.7708 -0.3324
   58SAPC   O11 4308   4.718   6.196   6.553  0.4064 -0.1383 -0.2361
   58SAPC    C1 4309   4.659   6.317   6.607  0.2179 -0.2018 -0.7105
   58SAPC    HA 4310   4.585   6.295   6.687  1.3244 -1.3771  0.0366
   58SAPC    HB 4311   4.730   6.383   6.662  0.5570 -0.9422 -0.2282
   58SAPC    C2 4312   4.581   6.390   6.491 -0.1462  0.1099 -0.4183
   58SAPC    HS 4313   4.486   6.333   6.481 -1.2053  1.2920  2.0673
   58SAPC   O21 4314   4.662   6.386   6.373 -0.4259  0.1279 -0.2802
   58SAPC   C21 4315   4.634   6.306   6.273 -0.7322 -0.0246 -0.0018
   58SAPC   O22 4316   4.544   6.228   6.281 -0.2295  0.3688  0.2278
   58SAPC   C22 4317   4.745   6.308   6.162  0.1380  0.8906  1.0723
   58SAPC   H2R 4318   4.729   6.382   6.080  0.9378  1.9942  1.8794
   58SAPC   H2S 4319   4.849   6.323   6.197  1.1704 -1.9125 -0.4979
   58SAPC    C3 4320   4.544   6.535   6.528 -0.8094  0.3619  0.2822
   58SAPC    HX 4321   4.633   6.598   6.546 -0.2995 -0.2964  0.0998
   58SAPC    HY 4322   4.487   6.534   6.623 -1.6889  0.7780 -0.2259
   58SAPC   O31 4323   4.471   6.593   6.424 -0.4762  0.2961  0.3444
   58SAPC   C31 4324   4.344   6.572   6.420 -0.1831 -0.1719  0.2896
   58SAPC   O32 4325   4.280   6.508   6.501  0.0241 -0.2786  0.0735
   58SAPC   C32 4326   4.278   6.644   6.300 -0.0458 -0.4501  0.5289
   58SAPC   H2X 4327   4.356   6.710   6.257  0.5255 -0.9984  0.7040
   58SAPC   H2Y 4328   4.196   6.708   6.338  0.7031 -0.4711  2.2830
   58SAPC   C23 4329   4.738   6.174   6.077  0.1562 -0.4215  0.1095
   58SAPC   H3R 4330   4.645   6.177   6.016 -0.3572 -1.7268  0.7979
   58SAPC   H3S 4331   4.747   6.092   6.151  0.7571  0.2398  0.7834
   58SAPC   C24 4332   4.849   6.170   5.972 -0.5448  0.3067 -0.0193
   58SAPC   H4R 4333   4.948   6.197   6.013  0.1626 -1.6274 -0.3483
   58SAPC   H4S 4334   4.823   6.248   5.897 -2.4324 -0.5969 -0.3585
   58SAPC   C25 4335   4.855   6.042   5.896 -0.9452  0.4450  1.1830
   58SAPC   H5R 4336   4.911   5.964   5.949 -0.6855  0.5888  1.1231
   58SAPC   C26 4337   4.810   6.027   5.770  0.2013 -0.2629 -0.0690
   58SAPC   H6R 4338   4.814   5.925   5.730 -1.3495 -0.0867 -0.7505
   58SAPC   C27 4339   4.751   6.145   5.688 -0.2234 -0.3385  0.1459
   58SAPC   H7R 4340   4.830   6.213   5.647  1.0250 -0.2229  2.5512
   58SAPC   H7S 4341   4.677   6.208   5.743 -1.1688 -0.3680 -1.0692
   58SAPC   C28 4342   4.672   6.081   5.576 -0.3062 -0.0291 -0.0709
   58SAPC   H8R 4343   4.582   6.030   5.611  1.0368 -1.5066  1.4374
   58SAPC   C29 4344   4.700   6.077   5.442 -0.5346 -0.2283 -0.7661
   58SAPC   H9R 4345   4.628   6.022   5.380 -0.4795 -1.1464 -0.0363
   58SAPC  C210 4346   4.824   6.121   5.380 -0.3173  0.2064  0.2448
   58SAPC  H10R 4347   4.886   6.031   5.357  1.8871  1.3089  1.5567
   58SAPC  H10S 4348   4.891   6.170   5.454  0.3250 -2.8941  1.8882
   58SAPC  C211 4349   4.799   6.212   5.261 -0.7957 -0.3211  0.5779
   58SAPC  H11R 4350   4.740   6.304   5.275  0.4617  0.6396 -0.2942
   58SAPC  C212 4351   4.830   6.177   5.134 -0.1072 -0.4930 -0.1613
   58SAPC  H12R 4352   4.821   6.261   5.063 -0.6184  0.6542  1.2076
   58SAPC  C213 4353   4.892   6.045   5.087 -0.5820  0.3642 -0.5613
   58SAPC  H13R 4354   4.989   6.040   5.141 -0.0089  3.1534 -1.1784
   58SAPC  H13S 4355   4.914   6.053   4.978 -0.0475  0.3703 -0.4548
   58SAPC  C214 4356   4.805   5.928   5.113  1.2381 -0.1927 -0.2366
   58SAPC  H14R 4357   4.816   5.889   5.216 -0.0082  3.2833  1.3957
   58SAPC  C215 4358   4.734   5.851   5.023  0.1298 -0.7632 -0.4902
   58SAPC  H15R 4359   4.695   5.758   5.068  0.3186 -0.2467  0.8004
   58SAPC  C216 4360   4.709   5.895   4.881  0.4688 -0.2113 -0.3267
   58SAPC  H16R 4361   4.750   5.828   4.802  0.5103  1.2635 -1.6140
   58SAPC  H16S 4362   4.766   5.989   4.868  2.1940 -1.2802 -0.8974
   58SAPC  C217 4363   4.559   5.924   4.854  0.2276  0.0353 -0.1888
   58SAPC  H17R 4364   4.541   6.033   4.855 -0.2899 -0.0232 -1.2565
   58SAPC  H17S 4365   4.489   5.882   4.930 -0.6219  2.7887  0.6536
   58SAPC  C218 4366   4.511   5.867   4.721  0.2830 -0.1761 -0.1043
   58SAPC  H18R 4367   4.400   5.864   4.716  0.1798 -0.9829  1.8490
   58SAPC  H18S 4368   4.548   5.764   4.701 -0.3617 -0.3701 -0.3258
   58SAPC  C219 4369   4.569   5.948   4.601  0.8150 -0.2429 -1.0283
   58SAPC  H19R 4370   4.677   5.963   4.622  1.0112  3.1441 -3.6235
   58SAPC  H19S 4371   4.525   6.049   4.586  2.0945  0.6643  0.9308
   58SAPC  C220 4372   4.575   5.870   4.467  0.6496 -0.2219 -0.0436
   58SAPC  H20R 4373   4.475   5.854   4.421  0.1416 -0.9730  1.2634
   58SAPC  H20S 4374   4.625   5.773   4.491 -2.0256 -1.2679  1.8920
   58SAPC  H20T 4375   4.643   5.920   4.395 -0.1159  0.8488 -0.0340
   58SAPC   C33 4376   4.222   6.544   6.198 -0.8004 -0.5821 -0.3094
   58SAPC   H3X 4377   4.152   6.601   6.133 -3.0354 -1.5430  1.1449
   58SAPC   H3Y 4378   4.170   6.453   6.234 -1.5561 -0.3732 -0.8442
   58SAPC   C34 4379   4.343   6.504   6.100  0.1127  0.4813 -0.1306
   58SAPC   H4X 4380   4.421   6.453   6.160  1.1473  0.3466 -1.5648
   58SAPC   H4Y 4381   4.391   6.596   6.059  1.2622 -0.9208 -2.0773
   58SAPC   C35 4382   4.303   6.410   5.980  0.1884 -0.0779  0.5430
   58SAPC   H5X 4383   4.208   6.434   5.927  0.4459 -1.6969 -0.7434
   58SAPC   H5Y 4384   4.267   6.309   6.008 -0.8121 -0.0762 -0.6388
   58SAPC   C36 4385   4.408   6.394   5.868  0.1274 -0.6523  0.0743
   58SAPC   H6X 4386   4.491   6.348   5.925 -0.5644  0.5809  2.1955
   58SAPC   H6Y 4387   4.424   6.501   5.843  0.3481 -0.4799  0.9412
   58SAPC   C37 4388   4.392   6.312   5.743  0.3917  0.1305 -0.4969
   58SAPC   H7X 4389   4.395   6.202   5.761 -4.4222 -0.1617 -0.1376
   58SAPC   H7Y 4390   4.473   6.341   5.673 -0.2708  0.2596 -1.2199
   58SAPC   C38 4391   4.264   6.349   5.665  0.3661 -0.2502 -0.0783
   58SAPC   H8X 4392   4.264   6.459   5.653 -3.6187  0.1836  2.1944
   58SAPC   H8Y 4393   4.179   6.326   5.733 -1.2460 -0.0628 -1.9525
   58SAPC   C39 4394   4.243   6.269   5.539  0.0553  0.0925 -0.5963
   58SAPC   H9X 4395   4.141   6.281   5.498  0.9559  0.6540 -2.8846
   58SAPC   H9Y 4396   4.258   6.162   5.564 -3.5705 -0.1391  1.2668
   58SAPC  C310 4397   4.338   6.309   5.428 -0.1185 -0.4604 -0.2281
   58SAPC  H10X 4398   4.442   6.282   5.453  0.7305  0.9186 -1.9980
   58SAPC  H10Y 4399   4.341   6.419   5.414  1.9077 -0.1511  1.9954
   58SAPC  C311 4400   4.305   6.256   5.291 -0.6410 -0.0253  0.1787
   58SAPC  H11X 4401   4.196   6.258   5.273 -0.9463 -1.3050  1.6901
   58SAPC  H11Y 4402   4.342   6.151   5.292  0.4769  0.3374 -0.4191
   58SAPC  C312 4403   4.382   6.313   5.168  0.4798 -0.2902  0.3848
   58SAPC  H12X 4404   4.488   6.340   5.187  0.5955  2.2198 -3.0177
   58SAPC  H12Y 4405   4.337   6.413   5.152  1.3135  0.5152  2.7046
   58SAPC  C313 4406   4.361   6.228   5.035  0.2221  0.3844 -0.2213
   58SAPC  H13X 4407   4.250   6.229   5.034  0.1353  2.5336  1.8503
   58SAPC  H13Y 4408   4.407   6.128   5.050  0.0240  0.6824  3.3164
   58SAPC  C314 4409   4.410   6.284   4.902  0.2985  0.5038 -0.2049
   58SAPC  H14X 4410   4.375   6.221   4.817 -0.8069  0.0416  0.5690
   58SAPC  H14Y 4411   4.521   6.274   4.898  0.2721  0.6137 -1.8606
   58SAPC  C315 4412   4.377   6.431   4.887  0.2721 -1.0656 -1.0007
   58SAPC  H15X 4413   4.429   6.477   4.973  0.1741 -2.9145  0.0850
   58SAPC  H15Y 4414   4.267   6.441   4.903  0.2606 -2.6011  0.0513
   58SAPC  C316 4415   4.433   6.493   4.764  0.1941 -0.5708  0.5183
   58SAPC  H16X 4416   4.537   6.454   4.750  0.2227 -1.0634  1.9367
   58SAPC  H16Y 4417   4.438   6.602   4.785  0.0410 -0.1101 -1.6070
   58SAPC  C317 4418   4.335   6.480   4.641  0.0259 -0.1658 -0.2697
   58SAPC  H17X 4419   4.234   6.521   4.661  0.5477  0.4618  1.2487
   58SAPC  H17Y 4420   4.316   6.373   4.618 -3.5301  0.1377  0.5932
   58SAPC  C318 4421   4.394   6.539   4.514 -0.3514  0.2312  0.6619
   58SAPC  H18X 4422   4.421   6.645   4.533 -1.8611  1.3421 -2.6391
   58SAPC  H18Y 4423   4.343   6.517   4.418  0.7709 -0.8153  0.2818
   58SAPC  H18Z 4424   4.496   6.494   4.509  0.5654  2.1917  0.8219
   59SAPC     N 4425   2.585   3.871   7.035  0.0152  0.1955  0.1170
   59SAPC   C12 4426   2.669   3.743   7.043 -0.4925  0.0878  0.1316
   59SAPC  H12A 4427   2.613   3.664   6.996  0.9492 -2.1126  1.9414
   59SAPC  H12B 4428   2.670   3.720   7.149 -2.4809  1.0767  0.4149
   59SAPC   C13 4429   2.613   3.941   6.905 -0.5104 -0.6723 -1.0497
   59SAPC  H13A 4430   2.588   3.876   6.822  1.3040  0.0546 -2.2330
   59SAPC  H13B 4431   2.549   4.028   6.894 -2.7653 -2.0512  0.3810
   59SAPC  H13C 4432   2.718   3.966   6.900 -1.0072  2.2790  0.9950
   59SAPC   C14 4433   2.433   3.859   7.054  0.4573  0.0931  0.3380
   59SAPC  H14A 4434   2.387   3.953   7.028 -0.1293  0.2756  1.8954
   59SAPC  H14B 4435   2.398   3.773   6.998 -0.2602  1.1186 -0.8211
   59SAPC  H14C 4436   2.420   3.844   7.160  1.9542 -0.8052  0.4294
   59SAPC   C15 4437   2.634   3.971   7.142  0.1874  0.2426  0.7436
   59SAPC  H15A 4438   2.614   3.934   7.241 -0.7333 -0.1307  0.4322
   59SAPC  H15B 4439   2.742   3.974   7.139  0.2206 -0.9056 -1.8489
   59SAPC  H15C 4440   2.590   4.068   7.124 -0.9552  0.0001  2.0628
   59SAPC   C11 4441   2.817   3.745   6.995  0.1923  0.2970  0.0033
   59SAPC  H11A 4442   2.815   3.768   6.886 -0.4480  1.3049  0.2107
   59SAPC  H11B 4443   2.843   3.637   6.998  0.0179  0.2719  0.7234
   59SAPC     P 4444   3.002   3.768   7.182 -0.0441  0.2530  0.1497
   59SAPC   O13 4445   3.082   3.879   7.242  0.2174  0.3069  0.6792
   59SAPC   O14 4446   2.927   3.672   7.263 -0.5983  0.1372 -0.3972
   59SAPC   O12 4447   2.892   3.830   7.077  0.1273 -0.6333  0.8642
   59SAPC   O11 4448   3.097   3.695   7.081  0.2338  0.2829 -0.0176
   59SAPC    C1 4449   3.183   3.771   6.998 -0.1247 -0.3447  0.3218
   59SAPC    HA 4450   3.231   3.862   7.040 -2.0047  1.9144 -2.1226
   59SAPC    HB 4451   3.268   3.701   6.976 -1.3106 -1.9845  0.7388
   59SAPC    C2 4452   3.124   3.811   6.858  0.3939  0.2583 -0.2950
   59SAPC    HS 4453   3.046   3.889   6.875 -0.1484 -0.6017  1.3346
   59SAPC   O21 4454   3.086   3.691   6.782 -0.4544 -0.2302 -0.0568
   59SAPC   C21 4455   3.008   3.716   6.673 -0.1946  0.5722 -0.2541
   59SAPC   O22 4456   2.951   3.821   6.652  0.0718 -0.4663 -0.1105
   59SAPC   C22 4457   2.994   3.596   6.583  0.8143  0.0732  0.0729
   59SAPC   H2R 4458   3.094   3.568   6.543  0.1657 -1.0513 -0.8292
   59SAPC   H2S 4459   2.960   3.509   6.644 -1.3345  0.8793  0.0883
   59SAPC    C3 4460   3.239   3.882   6.787 -0.1994 -0.3372  0.7201
   59SAPC    HX 4461   3.331   3.820   6.790 -0.1603 -0.5597 -2.4261
   59SAPC    HY 4462   3.269   3.970   6.849 -0.7074  0.2078  0.2088
   59SAPC   O31 4463   3.206   3.924   6.650 -0.1669 -0.3467 -0.4678
   59SAPC   C31 4464   3.175   4.051   6.640  0.3032 -0.1409 -0.2092
   59SAPC   O32 4465   3.178   4.138   6.725 -0.4016  0.0799  0.0133
   59SAPC   C32 4466   3.129   4.081   6.495 -0.4504 -0.4017  0.8301
   59SAPC   H2X 4467   3.018   4.078   6.502 -0.7366  0.0281 -2.1889
   59SAPC   H2Y 4468   3.165   4.004   6.423 -0.0977  1.3836 -1.0045
   59SAPC   C23 4469   2.897   3.627   6.476  0.2150 -0.4364  0.4345
   59SAPC   H3R 4470   2.917   3.724   6.425  0.0057 -0.6440 -0.0526
   59SAPC   H3S 4471   2.791   3.632   6.509 -0.0413 -2.1852 -0.0047
   59SAPC   C24 4472   2.892   3.508   6.372 -0.0919  0.1385  0.7709
   59SAPC   H4R 4473   2.994   3.465   6.367 -1.8677 -4.9286  1.5829
   59SAPC   H4S 4474   2.887   3.551   6.270 -0.6318  2.3321  1.6669
   59SAPC   C25 4475   2.802   3.387   6.399 -0.8088  0.2355 -0.8692
   59SAPC   H5R 4476   2.697   3.420   6.408 -0.5418  1.2579 -1.3331
   59SAPC   C26 4477   2.831   3.257   6.416 -0.1183 -0.7369 -0.1065
   59SAPC   H6R 4478   2.746   3.190   6.433 -1.0308  0.6166  0.8586
   59SAPC   C27 4479   2.965   3.191   6.417 -0.5628 -0.1027 -0.2815
   59SAPC   H7R 4480   2.994   3.154   6.518 -0.7848 -2.8807 -1.1539
   59SAPC   H7S 4481   3.042   3.262   6.382 -1.7695  2.8923  2.6337
   59SAPC   C28 4482   2.968   3.064   6.332  0.2890  0.1699 -0.2860
   59SAPC   H8R 4483   2.940   2.967   6.377 -1.7657  1.8687  2.4852
   59SAPC   C29 4484   3.005   3.049   6.201  0.6058  0.3759 -0.5161
   59SAPC   H9R 4485   2.988   2.948   6.159 -0.9419  0.4137 -0.0497
   59SAPC  C210 4486   3.039   3.158   6.098 -0.2720  0.0858 -0.5492
   59SAPC  H10R 4487   3.031   3.262   6.137 -0.5703  1.4824 -3.9732
   59SAPC  H10S 4488   2.971   3.141   6.012 -0.3005 -1.4921 -0.2420
   59SAPC  C211 4489   3.182   3.147   6.051  0.3250 -0.1388  0.4201
   59SAPC  H11R 4490   3.256   3.190   6.121  2.3932 -0.8350 -1.2352
   59SAPC  C212 4491   3.227   3.077   5.948 -0.3185 -0.1711 -0.2338
   59SAPC  H12R 4492   3.333   3.095   5.922 -0.3509  1.6535  0.7416
   59SAPC  C213 4493   3.148   3.007   5.837 -0.0931  0.3451  0.0941
   59SAPC  H13R 4494   3.039   3.017   5.852  0.1381  1.2541  1.3210
   59SAPC  H13S 4495   3.169   2.898   5.839 -0.9404  0.1820  1.6471
   59SAPC  C214 4496   3.184   3.061   5.707  0.6265 -0.1337  0.7492
   59SAPC  H14R 4497   3.267   3.012   5.654 -0.0408  1.2852 -1.8351
   59SAPC  C215 4498   3.134   3.167   5.634  0.2270  0.0021 -0.5659
   59SAPC  H15R 4499   3.171   3.192   5.534  2.0469  0.8207  0.2587
   59SAPC  C216 4500   3.028   3.259   5.700 -1.2637  0.5926 -0.3410
   59SAPC  H16R 4501   3.043   3.368   5.685  1.0680  0.5173  0.9301
   59SAPC  H16S 4502   3.049   3.241   5.808 -1.6967 -2.4346 -0.6714
   59SAPC  C217 4503   2.883   3.223   5.678  0.5352 -0.1284 -0.2939
   59SAPC  H17R 4504   2.882   3.120   5.720 -0.3293  1.1207  3.0638
   59SAPC  H17S 4505   2.857   3.231   5.570 -1.0812  0.3091  0.1026
   59SAPC  C218 4506   2.783   3.298   5.759  0.5624  0.5475  0.2578
   59SAPC  H18R 4507   2.768   3.403   5.726 -1.3276  0.8446  1.8773
   59SAPC  H18S 4508   2.821   3.298   5.863 -3.4108  0.9437  1.9136
   59SAPC  C219 4509   2.642   3.226   5.767  0.5593 -0.0225  0.5813
   59SAPC  H19R 4510   2.661   3.125   5.809  0.5922 -0.0361  0.5329
   59SAPC  H19S 4511   2.600   3.235   5.664  2.9084  2.1504 -0.2997
   59SAPC  C220 4512   2.559   3.298   5.870 -0.1168  0.5581 -0.0834
   59SAPC  H20R 4513   2.459   3.251   5.887 -1.0025  1.4281 -2.4760
   59SAPC  H20S 4514   2.534   3.402   5.841 -2.0267  0.6068  1.5287
   59SAPC  H20T 4515   2.614   3.292   5.967 -0.0135 -0.2456 -0.1902
   59SAPC   C33 4516   3.157   4.223   6.438 -0.6190  0.1529 -0.2705
   59SAPC   H3X 4517   3.267   4.239   6.441 -0.6024 -0.0733  1.7238
   59SAPC   H3Y 4518   3.107   4.307   6.491  0.9358  1.8711 -1.3810
   59SAPC   C34 4519   3.117   4.235   6.289 -0.1058 -0.0149 -0.2867
   59SAPC   H4X 4520   3.093   4.341   6.264  2.8507  0.4013 -1.8325
   59SAPC   H4Y 4521   3.020   4.181   6.284 -1.0483  1.3053  2.0246
   59SAPC   C35 4522   3.234   4.192   6.195  0.0760  0.2903  0.5467
   59SAPC   H5X 4523   3.311   4.130   6.244 -0.2705 -1.7290 -1.2986
   59SAPC   H5Y 4524   3.297   4.277   6.163  2.3707 -1.1214  1.1481
   59SAPC   C36 4525   3.183   4.116   6.071  0.2414  0.1431 -0.4930
   59SAPC   H6X 4526   3.111   4.177   6.012  2.0146 -0.5103 -3.5364
   59SAPC   H6Y 4527   3.124   4.024   6.091 -0.5965  0.7499 -0.0985
   59SAPC   C37 4528   3.290   4.076   5.968 -0.4801 -0.4330  0.0665
   59SAPC   H7X 4529   3.383   4.043   6.018  0.0188  1.3630  0.4060
   59SAPC   H7Y 4530   3.315   4.173   5.919  0.7159  0.4065  2.1791
   59SAPC   C38 4531   3.238   3.982   5.859 -1.0054  0.3093  0.5834
   59SAPC   H8X 4532   3.150   4.025   5.806 -0.4320  0.7329 -0.0423
   59SAPC   H8Y 4533   3.210   3.883   5.902  1.5838 -0.7317  0.0708
   59SAPC   C39 4534   3.352   3.943   5.752  0.0508 -0.0887  0.7381
   59SAPC   H9X 4535   3.419   3.884   5.818  0.5871 -0.3473 -0.0327
   59SAPC   H9Y 4536   3.385   4.040   5.709 -1.8551  0.3606  0.1630
   59SAPC  C310 4537   3.302   3.853   5.638  0.2866  0.1580 -0.6902
   59SAPC  H10X 4538   3.218   3.903   5.585 -0.5832 -1.2853 -0.6973
   59SAPC  H10Y 4539   3.264   3.755   5.673 -0.5397  0.0467 -1.8352
   59SAPC  C311 4540   3.401   3.822   5.532 -0.7731 -0.0934  0.5890
   59SAPC  H11X 4541   3.494   3.784   5.581 -1.2858 -1.8059  0.3111
   59SAPC  H11Y 4542   3.428   3.920   5.488  2.3352 -0.4785  1.3662
   59SAPC  C312 4543   3.364   3.710   5.436  0.9984 -0.1314 -0.3605
   59SAPC  H12X 4544   3.264   3.737   5.397  0.0443 -0.0664  1.9578
   59SAPC  H12Y 4545   3.347   3.620   5.499  0.9640  2.1995  3.3040
   59SAPC  C313 4546   3.471   3.672   5.335  0.2344  0.0360  0.4001
   59SAPC  H13X 4547   3.566   3.656   5.390  0.8475  0.0907 -0.6057
   59SAPC  H13Y 4548   3.503   3.755   5.268  0.8298 -1.1293 -0.8111
   59SAPC  C314 4549   3.435   3.550   5.254 -0.5021 -0.2449 -0.1773
   59SAPC  H14X 4550   3.331   3.549   5.215 -0.3538  0.9659 -0.6320
   59SAPC  H14Y 4551   3.439   3.457   5.314 -2.1440 -0.5185 -0.4303
   59SAPC  C315 4552   3.524   3.537   5.135 -0.1102 -0.2334  0.4209
   59SAPC  H15X 4553   3.627   3.534   5.176  1.9899 -0.5000 -4.2681
   59SAPC  H15Y 4554   3.517   3.624   5.066  0.6540  0.7171  1.5182
   59SAPC  C316 4555   3.510   3.400   5.067 -0.1586 -0.4029 -0.0505
   59SAPC  H16X 4556   3.415   3.377   5.015  0.2481  1.1258 -1.5685
   59SAPC  H16Y 4557   3.524   3.325   5.148  1.6089 -1.0515 -0.9046
   59SAPC  C317 4558   3.619   3.384   4.960 -0.2795 -1.0368 -0.5172
   59SAPC  H17X 4559   3.719   3.384   5.007 -0.6741  1.7836  0.5516
   59SAPC  H17Y 4560   3.622   3.476   4.898 -1.3449 -0.0812  0.7610
   59SAPC  C318 4561   3.595   3.275   4.862 -0.6202  0.0823  0.0793
   59SAPC  H18X 4562   3.589   3.177   4.915 -1.4947  0.2749  0.3617
   59SAPC  H18Y 4563   3.666   3.291   4.778 -2.4856 -0.2609 -1.6500
   59SAPC  H18Z 4564   3.499   3.282   4.805 -0.6413 -2.1732 -0.2761
   60SAPC     N 4565   4.306   4.891   6.804 -0.2416 -0.0952 -0.3202
   60SAPC   C12 4566   4.329   4.764   6.875  0.8775 -0.8031  0.0218
   60SAPC  H12A 4567   4.328   4.759   6.983  1.2507 -2.2599 -0.0185
   60SAPC  H12B 4568   4.430   4.732   6.853  1.2680 -0.1224  0.7975
   60SAPC   C13 4569   4.309   4.883   6.659 -0.5097 -0.9473  0.0730
   60SAPC  H13A 4570   4.280   4.975   6.610 -0.6219 -1.0096  0.0230
   60SAPC  H13B 4571   4.408   4.852   6.628 -0.5493  0.2645 -1.4005
   60SAPC  H13C 4572   4.237   4.811   6.623  1.7599 -2.8167 -1.0621
   60SAPC   C14 4573   4.171   4.947   6.852  0.0393  0.1524 -0.3178
   60SAPC  H14A 4574   4.189   4.973   6.956  2.0450 -1.8571 -0.0924
   60SAPC  H14B 4575   4.140   5.035   6.798 -1.9696 -0.5372 -0.3581
   60SAPC  H14C 4576   4.091   4.876   6.845 -0.4548  0.5223  1.2084
   60SAPC   C15 4577   4.403   4.994   6.845 -0.0130 -0.1362 -0.1213
   60SAPC  H15A 4578   4.384   5.087   6.794  0.1845  0.0822  0.2055
   60SAPC  H15B 4579   4.408   4.994   6.953 -0.7933 -1.0053 -0.0629
   60SAPC  H15C 4580   4.500   4.973   6.804  0.6400  0.8500  0.8779
   60SAPC   C11 4581   4.246   4.643   6.827  0.5224  1.0914 -0.5032
   60SAPC  H11A 4582   4.281   4.565   6.897 -2.4568  1.8344  2.0121
   60SAPC  H11B 4583   4.279   4.619   6.723  0.3365  0.0399 -0.3296
   60SAPC     P 4584   4.010   4.615   6.723 -0.1703 -0.0803 -0.0168
   60SAPC   O13 4585   4.019   4.463   6.719  0.2743 -0.3286 -0.0112
   60SAPC   O14 4586   3.879   4.674   6.749 -0.3754 -0.5315 -0.0421
   60SAPC   O12 4587   4.101   4.659   6.846  0.2505  0.7023 -0.4658
   60SAPC   O11 4588   4.066   4.672   6.590  0.4333 -0.1067 -0.2970
   60SAPC    C1 4589   4.001   4.774   6.510  0.9140  0.4309  0.3958
   60SAPC    HA 4590   3.909   4.807   6.563 -0.3002 -1.3050 -0.5511
   60SAPC    HB 4591   4.061   4.867   6.496 -0.0153  0.7843 -1.5457
   60SAPC    C2 4592   3.968   4.730   6.365 -0.1418 -0.6658  0.2068
   60SAPC    HS 4593   3.920   4.818   6.315  1.3813 -1.0979 -2.1946
   60SAPC   O21 4594   3.881   4.613   6.361  0.1764 -0.4203 -0.2853
   60SAPC   C21 4595   3.763   4.626   6.415 -0.0333 -0.0601  0.1774
   60SAPC   O22 4596   3.706   4.734   6.436 -0.1935  0.6579  0.6449
   60SAPC   C22 4597   3.719   4.481   6.454 -0.3442 -0.5370 -0.5725
   60SAPC   H2R 4598   3.768   4.410   6.385  2.1700  0.3056  0.2300
   60SAPC   H2S 4599   3.761   4.470   6.556  0.0668  0.1886 -0.6617
   60SAPC    C3 4600   4.100   4.696   6.294  0.0289  0.5521  0.3644
   60SAPC    HX 4601   4.140   4.604   6.342 -1.5335  0.6298  1.9184
   60SAPC    HY 4602   4.181   4.772   6.305  1.6629 -0.8893 -1.0321
   60SAPC   O31 4603   4.086   4.686   6.150 -0.5964  0.3935  0.5903
   60SAPC   C31 4604   4.079   4.577   6.090 -0.8628  0.4431 -0.8228
   60SAPC   O32 4605   4.092   4.465   6.136 -0.3481 -0.0038  0.3440
   60SAPC   C32 4606   4.081   4.611   5.934  1.1563  0.1458  0.3730
   60SAPC   H2X 4607   4.131   4.521   5.892 -0.7188 -0.8550  0.2056
   60SAPC   H2Y 4608   4.137   4.706   5.917 -1.1199  1.7202  1.2857
   60SAPC   C23 4609   3.564   4.457   6.454  0.1094  0.0841 -0.3076
   60SAPC   H3R 4610   3.514   4.554   6.470  1.7076  0.5550  2.4617
   60SAPC   H3S 4611   3.532   4.392   6.539 -1.4353  1.6654  0.3651
   60SAPC   C24 4612   3.514   4.385   6.319 -0.3346  1.2723 -0.4550
   60SAPC   H4R 4613   3.413   4.343   6.339  0.3146 -0.3046 -0.3387
   60SAPC   H4S 4614   3.585   4.302   6.298  0.0675  1.7045 -0.8277
   60SAPC   C25 4615   3.523   4.486   6.208 -0.2836 -0.1883 -0.0487
   60SAPC   H5R 4616   3.481   4.583   6.240  1.2449  1.0251 -1.5269
   60SAPC   C26 4617   3.567   4.470   6.083  0.8052 -0.0488  0.0550
   60SAPC   H6R 4618   3.584   4.557   6.018 -0.2211  0.2384  0.1559
   60SAPC   C27 4619   3.626   4.336   6.045  0.8492  0.1682  0.1186
   60SAPC   H7R 4620   3.558   4.251   6.064  2.5348 -1.4576 -0.7724
   60SAPC   H7S 4621   3.719   4.322   6.104 -0.3079 -0.9064  1.7528
   60SAPC   C28 4622   3.658   4.318   5.899  0.6577  0.6082 -0.0161
   60SAPC   H8R 4623   3.765   4.302   5.879  0.5434  1.6620 -1.6938
   60SAPC   C29 4624   3.577   4.341   5.782 -0.4552 -0.3841 -0.2353
   60SAPC   H9R 4625   3.616   4.314   5.683 -1.3596  0.8804 -0.9608
   60SAPC  C210 4626   3.426   4.365   5.787 -0.6631  0.0356 -0.2908
   60SAPC  H10R 4627   3.393   4.368   5.893 -0.6392 -0.3363 -0.2723
   60SAPC  H10S 4628   3.379   4.282   5.730 -0.6157  0.6247 -1.2002
   60SAPC  C211 4629   3.369   4.485   5.726 -0.3973 -0.2112 -0.2555
   60SAPC  H11R 4630   3.376   4.567   5.799  2.2452 -1.0456  0.5473
   60SAPC  C212 4631   3.325   4.514   5.599 -0.5538 -0.3163  0.1279
   60SAPC  H12R 4632   3.279   4.612   5.580  0.2744 -0.2214 -1.6134
   60SAPC  C213 4633   3.330   4.424   5.478  0.2670 -0.5872 -0.7564
   60SAPC  H13R 4634   3.246   4.434   5.405 -1.4888  1.1696  1.3778
   60SAPC  H13S 4635   3.316   4.317   5.506 -0.5949 -0.5973 -1.1679
   60SAPC  C214 4636   3.461   4.430   5.403 -0.5005 -0.2233 -0.2232
   60SAPC  H14R 4637   3.499   4.533   5.399 -1.3326  0.1519  0.8813
   60SAPC  C215 4638   3.537   4.332   5.353 -0.3252 -0.5006  0.6782
   60SAPC  H15R 4639   3.624   4.370   5.297 -0.7081  1.1321  1.1261
   60SAPC  C216 4640   3.514   4.184   5.342 -0.1393 -0.0604 -0.8407
   60SAPC  H16R 4641   3.408   4.162   5.321 -1.0965  2.6568  0.6155
   60SAPC  H16S 4642   3.525   4.149   5.447 -1.1980  0.2821 -0.6032
   60SAPC  C217 4643   3.602   4.101   5.251  0.5211 -0.3138  0.4593
   60SAPC  H17R 4644   3.547   4.004   5.249  2.0043 -1.2001  1.1398
   60SAPC  H17S 4645   3.703   4.076   5.289  0.0427 -2.3906  0.4648
   60SAPC  C218 4646   3.614   4.159   5.111 -0.1562  0.9866  0.1088
   60SAPC  H18R 4647   3.646   4.265   5.104 -1.3271  1.3635  0.1330
   60SAPC  H18S 4648   3.523   4.144   5.049 -0.1692  1.5432 -0.0054
   60SAPC  C219 4649   3.722   4.080   5.028 -0.1507  0.1480  0.5126
   60SAPC  H19R 4650   3.808   4.082   5.098 -0.3102 -3.3467  0.9962
   60SAPC  H19S 4651   3.735   4.121   4.926 -1.6744  0.5038  0.4291
   60SAPC  C220 4652   3.692   3.930   5.010 -0.4543  0.1957  0.6231
   60SAPC  H20R 4653   3.770   3.868   4.962  2.3610  0.8635  3.9588
   60SAPC  H20S 4654   3.590   3.922   4.966  0.5813 -0.6429 -1.7834
   60SAPC  H20T 4655   3.686   3.876   5.108 -0.8550  0.5593  0.8039
   60SAPC   C33 4656   3.947   4.621   5.867 -0.3602  0.1464  0.5630
   60SAPC   H3X 4657   3.884   4.688   5.929 -1.5796  0.1938 -0.6724
   60SAPC   H3Y 4658   3.901   4.520   5.863 -0.4264  0.2065 -0.5313
   60SAPC   C34 4659   3.936   4.688   5.732  0.3141 -0.2902  0.6714
   60SAPC   H4X 4660   4.000   4.633   5.659 -3.7792 -0.2398 -3.4072
   60SAPC   H4Y 4661   3.977   4.791   5.743  2.3458 -0.9890  0.0836
   60SAPC   C35 4662   3.792   4.690   5.680 -0.0112  0.1606  0.2029
   60SAPC   H5X 4663   3.716   4.716   5.757  0.2312  0.7811  0.2394
   60SAPC   H5Y 4664   3.765   4.587   5.648  0.6532 -0.6352  2.0620
   60SAPC   C36 4665   3.770   4.793   5.570  0.1999 -0.4208 -0.4434
   60SAPC   H6X 4666   3.823   4.890   5.585  2.3570 -1.4324 -1.1839
   60SAPC   H6Y 4667   3.659   4.800   5.566  0.1182 -1.7214 -1.0779
   60SAPC   C37 4668   3.828   4.750   5.432 -0.2182 -0.1087  0.2578
   60SAPC   H7X 4669   3.781   4.654   5.403 -0.5872  0.2571 -0.3702
   60SAPC   H7Y 4670   3.939   4.742   5.436 -0.0359  0.9264 -1.6113
   60SAPC   C38 4671   3.806   4.848   5.313  0.7357 -0.5072 -0.0562
   60SAPC   H8X 4672   3.877   4.933   5.324  0.0131 -0.1209  2.3132
   60SAPC   H8Y 4673   3.700   4.873   5.292  0.9959 -0.2095 -1.1017
   60SAPC   C39 4674   3.843   4.771   5.184  0.1880  0.1031  0.0359
   60SAPC   H9X 4675   3.788   4.676   5.197 -0.6037  0.2949 -1.7020
   60SAPC   H9Y 4676   3.951   4.749   5.170  0.6585  1.6102  0.9453
   60SAPC  C310 4677   3.804   4.844   5.055  0.2359  0.0922  0.0738
   60SAPC  H10X 4678   3.865   4.934   5.032  1.7971 -0.4876  1.7295
   60SAPC  H10Y 4679   3.701   4.876   5.079  0.7893  0.1588  2.6052
   60SAPC  C311 4680   3.812   4.752   4.929 -0.0465  0.2879  0.5353
   60SAPC  H11X 4681   3.913   4.706   4.935 -0.8731 -1.8118 -0.5701
   60SAPC  H11Y 4682   3.815   4.810   4.834  0.9652 -0.3276  0.1782
   60SAPC  C312 4683   3.703   4.635   4.929  0.3703  0.6966 -0.5351
   60SAPC  H12X 4684   3.730   4.567   5.014 -0.8179  0.0876 -0.6239
   60SAPC  H12Y 4685   3.717   4.572   4.839  3.2622  0.0057  0.2813
   60SAPC  C313 4686   3.557   4.682   4.943 -0.1173  0.1372  0.8608
   60SAPC  H13X 4687   3.537   4.757   4.864 -4.1552  0.2989  1.8073
   60SAPC  H13Y 4688   3.534   4.717   5.046 -1.0504  0.2705  0.6164
   60SAPC  C314 4689   3.461   4.561   4.894 -0.8876 -0.5737  0.1962
   60SAPC  H14X 4690   3.508   4.497   4.817 -1.4562 -0.9391  0.1477
   60SAPC  H14Y 4691   3.367   4.604   4.853  0.1487  0.2042 -1.4808
   60SAPC  C315 4692   3.435   4.466   5.014 -0.4867 -0.0898 -0.5762
   60SAPC  H15X 4693   3.377   4.513   5.096  0.2444  0.8295 -0.5697
   60SAPC  H15Y 4694   3.525   4.426   5.064 -0.2631 -0.4125 -1.2175
   60SAPC  C316 4695   3.354   4.336   4.981 -0.0627 -0.1446  0.1760
   60SAPC  H16X 4696   3.343   4.287   5.080  0.0139 -0.0267  0.2431
   60SAPC  H16Y 4697   3.410   4.266   4.916  0.1079 -0.7839  0.9871
   60SAPC  C317 4698   3.214   4.372   4.933  0.3960  0.9442 -0.0826
   60SAPC  H17X 4699   3.158   4.278   4.912 -0.6489  1.2554  1.1592
   60SAPC  H17Y 4700   3.239   4.429   4.841  2.2223  2.2583  1.1556
   60SAPC  C318 4701   3.129   4.448   5.027 -0.1629 -0.0998 -0.1438
   60SAPC  H18X 4702   3.097   4.399   5.121 -0.3229 -1.0898 -0.7052
   60SAPC  H18Y 4703   3.032   4.480   4.983  0.2510 -0.2387 -1.1889
   60SAPC  H18Z 4704   3.173   4.547   5.054  1.1740 -0.7437  0.0853
   61SAPC     N 4705   1.278   6.549   6.849 -0.1561  0.2853 -0.2085
   61SAPC   C12 4706   1.236   6.562   6.700 -0.0486  0.0417  0.4380
   61SAPC  H12A 4707   1.324   6.564   6.638 -0.9057 -2.2230 -0.9557
   61SAPC  H12B 4708   1.179   6.654   6.694  0.3016  0.2228 -0.1635
   61SAPC   C13 4709   1.150   6.528   6.937  0.3177  0.6072 -0.2599
   61SAPC  H13A 4710   1.176   6.494   7.036 -0.7575 -0.7132 -0.4025
   61SAPC  H13B 4711   1.081   6.611   6.938 -1.7252 -0.9926  1.7921
   61SAPC  H13C 4712   1.101   6.443   6.891  1.8231  0.7448 -2.2443
   61SAPC   C14 4713   1.382   6.444   6.860  0.4430  0.6122  0.5086
   61SAPC  H14A 4714   1.469   6.471   6.801 -0.0203  1.0713  0.0152
   61SAPC  H14B 4715   1.424   6.421   6.956  0.1447 -1.6207  0.1723
   61SAPC  H14C 4716   1.343   6.352   6.818 -0.6661  0.8055  1.0686
   61SAPC   C15 4717   1.343   6.676   6.900 -0.7299  0.3397  0.9658
   61SAPC  H15A 4718   1.282   6.764   6.892 -1.1607 -0.0513 -0.3056
   61SAPC  H15B 4719   1.362   6.665   7.006 -0.3907  0.9321  0.9678
   61SAPC  H15C 4720   1.438   6.684   6.850 -0.9412 -2.6895 -0.1741
   61SAPC   C11 4721   1.148   6.452   6.639 -0.5185  0.0120 -0.0255
   61SAPC  H11A 4722   1.187   6.358   6.682 -2.5577 -0.4236  1.0373
   61SAPC  H11B 4723   1.168   6.431   6.532 -1.7099  0.2144 -0.3121
   61SAPC     P 4724   0.910   6.583   6.618 -0.0178 -0.8248  0.1432
   61SAPC   O13 4725   0.790   6.590   6.704  0.6956 -0.2436  0.1095
   61SAPC   O14 4726   0.979   6.708   6.588  0.0442 -0.0086  1.0803
   61SAPC   O12 4727   1.016   6.475   6.675  0.3426  0.1271 -0.3151
   61SAPC   O11 4728   0.870   6.514   6.479  0.3931  0.2323  0.3966
   61SAPC    C1 4729   0.869   6.375   6.480  0.7085  0.4856 -0.2122
   61SAPC    HA 4730   0.973   6.336   6.473  0.6678  0.6255 -2.4740
   61SAPC    HB 4731   0.816   6.335   6.569 -4.1620  2.5694 -1.8162
   61SAPC    C2 4732   0.798   6.301   6.360 -0.0081  0.0125  0.2830
   61SAPC    HS 4733   0.772   6.201   6.399  1.0471  0.2811  1.7517
   61SAPC   O21 4734   0.882   6.294   6.244 -0.1703  0.1550 -0.3990
   61SAPC   C21 4735   0.973   6.202   6.252  0.1126  0.3770 -0.0630
   61SAPC   O22 4736   0.981   6.114   6.337 -0.1929 -0.8320  0.2893
   61SAPC   C22 4737   1.059   6.221   6.127 -0.9381 -0.5057  0.1889
   61SAPC   H2R 4738   1.000   6.261   6.043  2.0362 -2.2493 -2.9850
   61SAPC   H2S 4739   1.141   6.292   6.152 -0.4470 -0.6726 -0.8898
   61SAPC    C3 4740   0.667   6.368   6.331 -0.6320  0.3780  0.2200
   61SAPC    HX 4741   0.687   6.466   6.283  0.1157 -0.5509 -1.4585
   61SAPC    HY 4742   0.603   6.380   6.420 -1.2875 -0.6668 -0.0991
   61SAPC   O31 4743   0.601   6.294   6.232 -0.1170 -0.5958 -0.0453
   61SAPC   C31 4744   0.496   6.356   6.187  0.5184 -0.4629 -0.5603
   61SAPC   O32 4745   0.441   6.454   6.240  0.4351  0.4435  0.2397
   61SAPC   C32 4746   0.433   6.268   6.073  0.4408 -0.0927 -0.0522
   61SAPC   H2X 4747   0.363   6.206   6.134 -1.5431  0.3223 -1.7911
   61SAPC   H2Y 4748   0.512   6.200   6.034 -0.8360 -1.6485 -0.0291
   61SAPC   C23 4749   1.120   6.086   6.069 -0.2474 -0.9522 -0.4635
   61SAPC   H3R 4750   1.040   6.011   6.089 -0.7422  0.0841  1.7962
   61SAPC   H3S 4751   1.206   6.071   6.137 -0.4239  0.7327  0.1934
   61SAPC   C24 4752   1.169   6.097   5.928  0.2514  0.1628 -0.3545
   61SAPC   H4R 4753   1.241   6.181   5.936 -0.3459  0.5209  1.8959
   61SAPC   H4S 4754   1.080   6.124   5.866  0.6159 -3.3675 -2.6926
   61SAPC   C25 4755   1.239   5.975   5.894  0.0758  0.8649 -0.3373
   61SAPC   H5R 4756   1.293   5.941   5.984 -2.8313  0.3795  1.3699
   61SAPC   C26 4757   1.230   5.897   5.786 -0.4101 -0.3241 -0.7484
   61SAPC   H6R 4758   1.309   5.821   5.775 -0.9955 -1.3850  1.5306
   61SAPC   C27 4759   1.146   5.913   5.659  0.0287  0.7164  0.0714
   61SAPC   H7R 4760   1.182   5.846   5.578 -1.7047 -0.4428  0.1955
   61SAPC   H7S 4761   1.170   6.017   5.629  0.0033  0.2890 -1.5055
   61SAPC   C28 4762   0.998   5.896   5.691  0.3073  0.1550 -0.4847
   61SAPC   H8R 4763   0.958   5.961   5.770  0.2260  0.1255 -0.5023
   61SAPC   C29 4764   0.915   5.818   5.617  0.6239  0.0883 -0.8326
   61SAPC   H9R 4765   0.809   5.810   5.647  1.1561 -1.4590  0.8025
   61SAPC  C210 4766   0.954   5.737   5.500 -0.7673 -0.2101 -0.1175
   61SAPC  H10R 4767   0.985   5.636   5.536 -1.2267 -0.6027 -0.7908
   61SAPC  H10S 4768   1.044   5.778   5.450  0.0280 -0.3268  1.1679
   61SAPC  C211 4769   0.849   5.724   5.394  0.0294 -1.3101 -1.0349
   61SAPC  H11R 4770   0.790   5.816   5.386 -1.0179 -1.9449 -0.8211
   61SAPC  C212 4771   0.818   5.623   5.317  0.3582  0.7342 -0.0068
   61SAPC  H12R 4772   0.745   5.639   5.237 -0.5648 -0.0481  0.6470
   61SAPC  C213 4773   0.884   5.490   5.323  0.0293  0.8729  0.2894
   61SAPC  H13R 4774   0.832   5.407   5.272  0.3022  0.0967  1.2321
   61SAPC  H13S 4775   0.886   5.451   5.428 -0.8896 -1.1372 -0.3836
   61SAPC  C214 4776   1.028   5.471   5.276  0.2370  0.5322 -0.0898
   61SAPC  H14R 4777   1.098   5.464   5.361  0.2741  0.4551 -0.1267
   61SAPC  C215 4778   1.062   5.433   5.149  0.0148 -0.0649 -0.4809
   61SAPC  H15R 4779   1.168   5.429   5.121  0.1537  2.7565 -0.5571
   61SAPC  C216 4780   0.972   5.416   5.032 -0.1089  0.0737  0.7142
   61SAPC  H16R 4781   0.898   5.497   5.047 -1.0409 -1.2729  4.7811
   61SAPC  H16S 4782   0.918   5.319   5.019 -0.8516  0.6202 -0.4621
   61SAPC  C217 4783   1.063   5.436   4.905  0.2645 -0.4806  0.2081
   61SAPC  H17R 4784   1.135   5.516   4.933  0.6358 -0.5281 -0.5696
   61SAPC  H17S 4785   1.017   5.457   4.806  0.9426 -0.5833 -0.1414
   61SAPC  C218 4786   1.138   5.310   4.865 -0.4469  0.4479  0.1565
   61SAPC  H18R 4787   1.072   5.221   4.863  0.2898 -0.2195  2.2299
   61SAPC  H18S 4788   1.201   5.287   4.954  1.1517 -1.1294 -1.2890
   61SAPC  C219 4789   1.226   5.327   4.746  0.2895 -0.2602 -0.6914
   61SAPC  H19R 4790   1.305   5.249   4.746 -1.2083 -1.8566 -1.5337
   61SAPC  H19S 4791   1.278   5.423   4.763  0.6742 -0.5336 -0.3216
   61SAPC  C220 4792   1.160   5.339   4.612 -0.2744  0.9722 -0.0769
   61SAPC  H20R 4793   1.080   5.416   4.613 -2.3027 -1.0337  1.0213
   61SAPC  H20S 4794   1.091   5.254   4.594 -0.7870  0.9405  1.8216
   61SAPC  H20T 4795   1.227   5.346   4.523 -1.5820  0.0796 -1.1642
   61SAPC   C33 4796   0.354   6.339   5.969  0.0194  0.1732 -0.4832
   61SAPC   H3X 4797   0.299   6.424   6.015  0.5391  1.2768 -1.8019
   61SAPC   H3Y 4798   0.275   6.276   5.923 -0.0470  0.3127 -0.5627
   61SAPC   C34 4799   0.442   6.395   5.851 -0.1863 -0.1454  0.2292
   61SAPC   H4X 4800   0.462   6.304   5.789 -2.2991 -1.0161  0.7642
   61SAPC   H4Y 4801   0.529   6.442   5.902 -1.5934  1.2717  1.4016
   61SAPC   C35 4802   0.368   6.503   5.762  0.0274  0.2352  0.3574
   61SAPC   H5X 4803   0.439   6.542   5.686  1.7007 -0.8650  1.2899
   61SAPC   H5Y 4804   0.345   6.595   5.819  2.1228  1.3740 -0.4979
   61SAPC   C36 4805   0.247   6.436   5.697 -0.2085 -0.3010  0.4033
   61SAPC   H6X 4806   0.178   6.412   5.781  0.4058 -1.3893  0.6178
   61SAPC   H6Y 4807   0.285   6.345   5.647  3.4180  0.4956  1.3901
   61SAPC   C37 4808   0.193   6.548   5.604  0.3988 -0.9641  0.0397
   61SAPC   H7X 4809   0.260   6.570   5.518  0.9658  1.7026  1.0750
   61SAPC   H7Y 4810   0.186   6.641   5.663  1.1017 -0.7468 -0.2077
   61SAPC   C38 4811   0.069   6.505   5.531 -0.8282 -0.0007 -0.2415
   61SAPC   H8X 4812  -0.011   6.488   5.606 -1.2367 -0.5264 -0.7878
   61SAPC   H8Y 4813   0.103   6.415   5.475 -0.0349  0.8788 -1.2056
   61SAPC   C39 4814   0.016   6.610   5.436 -1.0404 -0.1891  0.1350
   61SAPC   H9X 4815   0.089   6.641   5.358 -1.6261  0.7414 -0.0577
   61SAPC   H9Y 4816   0.007   6.699   5.503  0.5027 -1.5608  2.2811
   61SAPC  C310 4817  -0.115   6.573   5.367 -0.5546  0.4144 -0.4849
   61SAPC  H10X 4818  -0.194   6.566   5.445 -1.2958 -1.0537 -1.3430
   61SAPC  H10Y 4819  -0.095   6.476   5.316  0.8919 -0.4498  1.5717
   61SAPC  C311 4820  -0.154   6.683   5.263  0.4754 -0.2043 -0.7488
   61SAPC  H11X 4821  -0.070   6.676   5.190  0.0151  3.2202 -1.7705
   61SAPC  H11Y 4822  -0.149   6.782   5.313 -0.6268  0.0808 -1.1864
   61SAPC  C312 4823  -0.298   6.659   5.203 -0.5370  0.3058 -0.9128
   61SAPC  H12X 4824  -0.314   6.743   5.132 -1.7215  0.0370 -0.9816
   61SAPC  H12Y 4825  -0.378   6.655   5.280  1.0628  0.2340  0.8142
   61SAPC  C313 4826  -0.319   6.532   5.110 -0.4015 -0.4631 -0.2161
   61SAPC  H13X 4827  -0.260   6.449   5.155 -0.4350 -0.3748 -0.0090
   61SAPC  H13Y 4828  -0.272   6.550   5.011 -0.0925 -0.1113 -0.0073
   61SAPC  C314 4829  -0.474   6.491   5.085  0.5053 -0.0131 -0.1793
   61SAPC  H14X 4830  -0.518   6.446   5.177 -1.1471 -0.0859 -0.9614
   61SAPC  H14Y 4831  -0.472   6.399   5.024 -1.1311 -0.6174  0.5969
   61SAPC  C315 4832  -0.558   6.602   5.023 -0.0383 -0.3202 -0.4855
   61SAPC  H15X 4833  -0.574   6.677   5.103 -1.5329 -1.9496  0.8461
   61SAPC  H15Y 4834  -0.666   6.579   5.007 -0.9247  3.4363 -0.9887
   61SAPC  C316 4835  -0.493   6.662   4.899 -0.1100 -0.0591 -0.1791
   61SAPC  H16X 4836  -0.455   6.578   4.837 -0.4912  0.1736 -0.7423
   61SAPC  H16Y 4837  -0.408   6.727   4.932 -0.0049 -0.5177  0.4576
   61SAPC  C317 4838  -0.598   6.735   4.803  0.9623  0.1026 -0.8472
   61SAPC  H17X 4839  -0.647   6.823   4.851 -0.9969 -0.5989 -1.4626
   61SAPC  H17Y 4840  -0.682   6.663   4.806  3.0729 -2.5047  1.9253
   61SAPC  C318 4841  -0.555   6.779   4.670  0.0374  0.1939  0.1621
   61SAPC  H18X 4842  -0.638   6.814   4.605 -0.3993 -2.3606 -0.7801
   61SAPC  H18Y 4843  -0.502   6.694   4.621 -2.3081 -1.5415  0.4690
   61SAPC  H18Z 4844  -0.477   6.858   4.678  0.5795 -0.4864  2.1348
   62SAPC     N 4845   3.448   2.430   7.361 -0.2802 -0.0414  0.6217
   62SAPC   C12 4846   3.463   2.541   7.258 -0.1945 -0.1356  0.5486
   62SAPC  H12A 4847   3.547   2.599   7.293 -1.1001  0.7534  1.3223
   62SAPC  H12B 4848   3.377   2.607   7.263 -0.8959 -0.8345 -1.4468
   62SAPC   C13 4849   3.393   2.486   7.483 -0.3029  0.4729 -0.0463
   62SAPC  H13A 4850   3.454   2.558   7.536 -0.9080  0.4189  0.7479
   62SAPC  H13B 4851   3.291   2.517   7.465  0.2415  1.6381 -1.2877
   62SAPC  H13C 4852   3.383   2.402   7.550  1.0526  0.7972  0.6016
   62SAPC   C14 4853   3.349   2.318   7.321 -0.2846 -0.2246 -0.0733
   62SAPC  H14A 4854   3.245   2.346   7.315 -0.3213 -0.6535 -3.3976
   62SAPC  H14B 4855   3.366   2.279   7.221  0.9430  1.4533 -0.5609
   62SAPC  H14C 4856   3.357   2.225   7.376  0.7861  0.0088  0.1784
   62SAPC   C15 4857   3.575   2.369   7.397 -0.1851 -0.2706 -0.3230
   62SAPC  H15A 4858   3.646   2.433   7.448  1.9220 -3.4003  0.9590
   62SAPC  H15B 4859   3.572   2.282   7.462 -0.9366  0.9911  1.4371
   62SAPC  H15C 4860   3.626   2.344   7.306  1.6688 -0.3655  0.6890
   62SAPC   C11 4861   3.491   2.501   7.108 -0.2263  0.7939  0.6399
   62SAPC  H11A 4862   3.573   2.427   7.116 -2.5116 -1.8489  1.1943
   62SAPC  H11B 4863   3.523   2.596   7.059  0.7772 -0.2666 -0.8301
   62SAPC     P 4864   3.242   2.504   7.030  0.0915 -0.6979  0.5444
   62SAPC   O13 4865   3.158   2.428   7.122  0.0302 -0.2904 -0.0586
   62SAPC   O14 4866   3.253   2.646   7.059 -0.3574 -0.1409 -0.0946
   62SAPC   O12 4867   3.382   2.439   7.032 -0.2160 -0.1120 -0.3526
   62SAPC   O11 4868   3.209   2.487   6.874  0.7464  0.1023 -0.7165
   62SAPC    C1 4869   3.155   2.362   6.838  0.8321 -0.3294 -0.0532
   62SAPC    HA 4870   3.218   2.274   6.859  1.0160 -0.1642  0.0898
   62SAPC    HB 4871   3.058   2.352   6.892 -0.6943  4.7615 -1.2842
   62SAPC    C2 4872   3.096   2.370   6.689 -0.5826  0.3452 -0.1589
   62SAPC    HS 4873   3.013   2.296   6.674  1.3321 -1.6405 -1.5460
   62SAPC   O21 4874   3.193   2.341   6.584  0.4021 -0.2306 -0.3674
   62SAPC   C21 4875   3.257   2.224   6.575 -0.0177 -0.4775 -0.3847
   62SAPC   O22 4876   3.235   2.135   6.651  0.6630 -0.5610 -0.4056
   62SAPC   C22 4877   3.358   2.235   6.466 -0.2697 -0.1489  1.1722
   62SAPC   H2R 4878   3.329   2.323   6.404 -1.3585 -1.3403 -0.0763
   62SAPC   H2S 4879   3.455   2.244   6.519 -0.3033  0.9908  1.0814
   62SAPC    C3 4880   3.042   2.514   6.654 -0.1334  0.2287  0.1318
   62SAPC    HX 4881   3.131   2.580   6.643  0.4049 -0.3813  0.7623
   62SAPC    HY 4882   2.974   2.540   6.738 -1.0006  0.0673 -0.5135
   62SAPC   O31 4883   2.962   2.523   6.534 -0.4830 -0.3309 -0.3153
   62SAPC   C31 4884   2.873   2.628   6.533  0.3292 -0.2597  0.4469
   62SAPC   O32 4885   2.860   2.711   6.615  0.4018 -0.1880  0.0179
   62SAPC   C32 4886   2.775   2.615   6.413  0.0390 -0.0277 -0.1444
   62SAPC   H2X 4887   2.702   2.533   6.433 -1.2130  0.8720 -0.8686
   62SAPC   H2Y 4888   2.844   2.586   6.331  0.1535 -2.3748  0.6999
   62SAPC   C23 4889   3.370   2.111   6.375 -0.3288 -0.2940 -0.0518
   62SAPC   H3R 4890   3.274   2.087   6.323  0.3191  0.9036 -1.9232
   62SAPC   H3S 4891   3.406   2.026   6.437 -1.0450 -0.0250  0.7513
   62SAPC   C24 4892   3.455   2.123   6.246 -0.8301  0.5901 -0.0724
   62SAPC   H4R 4893   3.553   2.171   6.263 -0.4094 -0.8370  1.7335
   62SAPC   H4S 4894   3.395   2.193   6.182 -2.1810  1.9868  2.5564
   62SAPC   C25 4895   3.484   1.995   6.171  0.2236  1.0322 -0.1353
   62SAPC   H5R 4896   3.494   1.905   6.233 -0.3242  1.1120  0.0756
   62SAPC   C26 4897   3.472   1.977   6.034  0.2993 -0.9424 -0.2473
   62SAPC   H6R 4898   3.482   1.875   5.995 -2.2752 -1.2375 -0.2887
   62SAPC   C27 4899   3.437   2.084   5.930 -0.3486  0.5285 -0.6550
   62SAPC   H7R 4900   3.441   2.186   5.974 -0.7591  0.4784 -0.4891
   62SAPC   H7S 4901   3.335   2.074   5.886 -0.6108  2.2280 -0.5070
   62SAPC   C28 4902   3.533   2.061   5.814 -0.2630 -0.0576  0.0270
   62SAPC   H8R 4903   3.632   2.100   5.841 -0.7459  1.4141 -0.2591
   62SAPC   C29 4904   3.511   2.000   5.696  0.1439  0.3568  0.3444
   62SAPC   H9R 4905   3.599   1.988   5.631  0.7881 -0.5118  1.3518
   62SAPC  C210 4906   3.386   1.940   5.642  0.0060 -0.0784  0.0557
   62SAPC  H10R 4907   3.318   1.902   5.721 -1.0351  1.2985 -0.1380
   62SAPC  H10S 4908   3.418   1.849   5.587  0.4660 -0.2833  0.6505
   62SAPC  C211 4909   3.296   2.052   5.580 -0.4785  0.5388  0.4052
   62SAPC  H11R 4910   3.288   2.141   5.644  0.9923 -0.1139  1.5626
   62SAPC  C212 4911   3.241   2.044   5.460  0.0373 -0.5225  0.3580
   62SAPC  H12R 4912   3.186   2.138   5.441  3.2284  1.4836  0.3824
   62SAPC  C213 4913   3.236   1.937   5.349 -1.1324 -0.1360  0.2268
   62SAPC  H13R 4914   3.178   1.980   5.265 -1.1194  2.6633  1.5256
   62SAPC  H13S 4915   3.182   1.853   5.398 -1.4296 -0.8825 -1.3138
   62SAPC  C214 4916   3.374   1.909   5.293  0.2011 -0.2539 -0.0705
   62SAPC  H14R 4917   3.450   1.899   5.373  1.0426 -0.5052 -0.8791
   62SAPC  C215 4918   3.427   1.895   5.168 -0.0882  0.3658 -0.4327
   62SAPC  H15R 4919   3.529   1.860   5.146 -0.8193 -0.6949 -2.3244
   62SAPC  C216 4920   3.348   1.896   5.039 -0.1653  0.6264  0.1735
   62SAPC  H16R 4921   3.413   1.933   4.957 -1.2327  2.7850  0.2351
   62SAPC  H16S 4922   3.264   1.968   5.051 -0.3108  0.3682  0.7236
   62SAPC  C217 4923   3.277   1.760   5.014 -1.0320 -0.6760  0.7319
   62SAPC  H17R 4924   3.190   1.762   5.082 -0.4780  2.8362  1.5028
   62SAPC  H17S 4925   3.340   1.673   5.044 -0.1445  0.2808  1.6989
   62SAPC  C218 4926   3.226   1.743   4.877  0.1775  0.6181  0.6134
   62SAPC  H18R 4927   3.307   1.730   4.802 -0.2780  3.1295 -0.4280
   62SAPC  H18S 4928   3.183   1.838   4.838  0.6227  0.0837 -1.3105
   62SAPC  C219 4929   3.132   1.621   4.874 -0.0082  0.8509 -0.1562
   62SAPC  H19R 4930   3.095   1.607   4.978 -0.5883 -1.2614 -0.5992
   62SAPC  H19S 4931   3.198   1.535   4.850 -1.7762 -0.6417  0.0579
   62SAPC  C220 4932   3.015   1.614   4.775 -0.3643 -0.0436 -0.1853
   62SAPC  H20R 4933   3.041   1.632   4.668 -1.2846  0.2868 -0.3595
   62SAPC  H20S 4934   2.949   1.697   4.808 -0.2126  0.1265 -0.3081
   62SAPC  H20T 4935   2.960   1.519   4.789 -0.7214  0.3235  0.9567
   62SAPC   C33 4936   2.706   2.748   6.382  0.2858 -0.3354 -0.0086
   62SAPC   H3X 4937   2.782   2.829   6.384  1.2981 -1.2136 -1.0770
   62SAPC   H3Y 4938   2.630   2.766   6.460  0.7593  0.4510  0.2813
   62SAPC   C34 4939   2.631   2.758   6.249  0.1533 -0.6047  0.5397
   62SAPC   H4X 4940   2.577   2.854   6.256 -0.0956 -0.8232  1.9634
   62SAPC   H4Y 4941   2.552   2.680   6.259 -1.1558  0.4586 -1.0939
   62SAPC   C35 4942   2.709   2.753   6.118 -0.2849  0.3577 -0.4894
   62SAPC   H5X 4943   2.758   2.653   6.110  1.0359  0.3962  4.1826
   62SAPC   H5Y 4944   2.790   2.827   6.140  0.3466 -1.1269  2.7057
   62SAPC   C36 4945   2.620   2.801   6.011  0.5821 -0.4542 -0.1576
   62SAPC   H6X 4946   2.577   2.900   6.035  2.9465  0.7245 -0.5578
   62SAPC   H6Y 4947   2.541   2.723   6.008 -1.2388  1.2966  0.3745
   62SAPC   C37 4948   2.693   2.810   5.876 -0.0891 -0.5955  0.1855
   62SAPC   H7X 4949   2.767   2.727   5.863 -1.0671 -1.5253  0.3949
   62SAPC   H7Y 4950   2.755   2.902   5.881  1.3819 -1.2278 -3.1768
   62SAPC   C38 4951   2.588   2.817   5.761 -0.0812  0.0040 -0.3086
   62SAPC   H8X 4952   2.517   2.902   5.767  0.0289  0.1289 -0.7314
   62SAPC   H8Y 4953   2.527   2.724   5.769 -1.4449  0.9368  0.4669
   62SAPC   C39 4954   2.650   2.822   5.620 -0.0642  0.1535 -0.8468
   62SAPC   H9X 4955   2.704   2.919   5.607 -0.1635  0.2654 -0.4632
   62SAPC   H9Y 4956   2.557   2.822   5.560 -0.2566  1.8457 -0.5980
   62SAPC  C310 4957   2.721   2.693   5.585 -0.0422  0.2087  0.0415
   62SAPC  H10X 4958   2.639   2.622   5.609 -1.5361  2.1347  0.9025
   62SAPC  H10Y 4959   2.805   2.668   5.654  0.9394  1.0481 -0.8154
   62SAPC  C311 4960   2.744   2.691   5.432  0.1012  0.4155  0.3703
   62SAPC  H11X 4961   2.652   2.714   5.375 -0.2198  0.1787  0.7849
   62SAPC  H11Y 4962   2.762   2.584   5.408 -0.3243  0.4460 -0.1072
   62SAPC  C312 4963   2.857   2.781   5.388 -0.3713 -0.2848  0.1332
   62SAPC  H12X 4964   2.925   2.783   5.475  1.1120 -0.9507 -0.9564
   62SAPC  H12Y 4965   2.820   2.885   5.376  1.5430  0.2236 -2.0515
   62SAPC  C313 4966   2.919   2.732   5.254  0.4796  0.0099 -0.5633
   62SAPC  H13X 4967   2.837   2.713   5.181 -0.7571  3.4356 -0.2390
   62SAPC  H13Y 4968   2.973   2.635   5.268  1.7498  0.5267 -1.7060
   62SAPC  C314 4969   3.012   2.835   5.187 -0.6124 -0.0107 -0.2038
   62SAPC  H14X 4970   3.100   2.859   5.251 -1.0694 -0.8954  0.7805
   62SAPC  H14Y 4971   2.958   2.931   5.174 -0.2964  0.5227  2.0178
   62SAPC  C315 4972   3.052   2.795   5.050  0.0264 -0.8580  0.8670
   62SAPC  H15X 4973   2.969   2.763   4.984 -0.2145 -1.0567  1.2660
   62SAPC  H15Y 4974   3.124   2.711   5.065  2.6257  1.0028 -0.4961
   62SAPC  C316 4975   3.124   2.917   4.981  0.6387  0.0743 -0.7221
   62SAPC  H16X 4976   3.044   2.989   4.951 -1.2807 -1.1235  1.2200
   62SAPC  H16Y 4977   3.174   2.886   4.887 -0.1782  2.5400 -2.0680
   62SAPC  C317 4978   3.240   2.987   5.054  0.3130  0.1315  0.3874
   62SAPC  H17X 4979   3.303   2.901   5.084  0.0857  0.6051  2.3624
   62SAPC  H17Y 4980   3.208   3.039   5.147  1.2056  1.8600 -0.2398
   62SAPC  C318 4981   3.315   3.076   4.954  0.2537 -1.0200 -0.2302
   62SAPC  H18X 4982   3.323   3.033   4.852 -0.0011  0.1669 -0.7564
   62SAPC  H18Y 4983   3.417   3.108   4.986  0.4749 -0.4881 -1.4100
   62SAPC  H18Z 4984   3.258   3.169   4.938 -0.2595 -1.0973  1.0599
   63SAPC     N 4985   4.179   3.441   7.172  0.6138 -0.7725  0.1548
   63SAPC   C12 4986   4.159   3.425   7.020 -0.5984  0.4134  0.3958
   63SAPC  H12A 4987   4.057   3.441   6.989 -0.4305  0.5307 -0.0995
   63SAPC  H12B 4988   4.185   3.325   6.988  2.0415  0.8611  0.8648
   63SAPC   C13 4989   4.110   3.334   7.246  0.1136  0.0340 -0.3134
   63SAPC  H13A 4990   4.004   3.352   7.235  0.0099 -0.0047  0.5877
   63SAPC  H13B 4991   4.143   3.238   7.208  2.5456  0.5340  0.3426
   63SAPC  H13C 4992   4.145   3.354   7.346  0.1408 -1.0052 -0.1068
   63SAPC   C14 4993   4.325   3.437   7.210  0.4151  0.3799  0.2235
   63SAPC  H14A 4994   4.343   3.471   7.311  0.0768  0.4919  0.2479
   63SAPC  H14B 4995   4.367   3.338   7.204  0.9402  0.4163  2.3656
   63SAPC  H14C 4996   4.381   3.501   7.144 -1.3914  3.2249  1.2228
   63SAPC   C15 4997   4.127   3.575   7.218 -0.2557  0.3462 -0.3199
   63SAPC  H15A 4998   4.151   3.591   7.322 -2.5043  1.2047  0.1183
   63SAPC  H15B 4999   4.179   3.654   7.167  0.2552  1.4809  1.8302
   63SAPC  H15C 5000   4.019   3.573   7.207 -0.1940 -1.5841 -0.9398
   63SAPC   C11 5001   4.240   3.528   6.926  0.1202 -0.2737  0.7237
   63SAPC  H11A 5002   4.207   3.630   6.956 -0.4525 -0.0393 -0.6538
   63SAPC  H11B 5003   4.201   3.512   6.823  0.6017 -0.5296  0.5809
   63SAPC     P 5004   4.455   3.396   6.856 -0.2757 -0.0472  0.1499
   63SAPC   O13 5005   4.585   3.446   6.800  0.4364  0.1465  0.3362
   63SAPC   O14 5006   4.456   3.277   6.943  0.2715  0.5997 -0.5070
   63SAPC   O12 5007   4.380   3.505   6.930 -0.5333 -0.0156  0.0567
   63SAPC   O11 5008   4.367   3.361   6.736  0.6191  0.3238 -0.0800
   63SAPC    C1 5009   4.328   3.226   6.708  0.1721 -0.1739  0.6252
   63SAPC    HA 5010   4.416   3.161   6.690 -0.3717 -0.3538 -1.6407
   63SAPC    HB 5011   4.282   3.185   6.801  1.4438 -0.5133  1.1204
   63SAPC    C2 5012   4.217   3.204   6.596  0.4912  0.4906 -0.8130
   63SAPC    HS 5013   4.226   3.096   6.571  2.4536 -0.0603  1.7949
   63SAPC   O21 5014   4.245   3.291   6.484 -0.5356  0.0433  0.2956
   63SAPC   C21 5015   4.341   3.245   6.406 -0.3269 -0.0119  0.0687
   63SAPC   O22 5016   4.402   3.138   6.426 -0.5670  0.5207  0.7639
   63SAPC   C22 5017   4.360   3.335   6.290  0.1747 -0.6310  0.2546
   63SAPC   H2R 5018   4.294   3.301   6.207  2.5076 -1.0244 -1.5620
   63SAPC   H2S 5019   4.346   3.443   6.313 -0.4238 -0.5344 -0.4907
   63SAPC    C3 5020   4.079   3.243   6.648 -0.0664  0.4540  0.5638
   63SAPC    HX 5021   4.098   3.339   6.701  1.0185  0.9417 -0.6424
   63SAPC    HY 5022   4.041   3.169   6.722 -0.9026 -0.7170 -0.9845
   63SAPC   O31 5023   3.982   3.255   6.550  0.0718 -0.0256  0.3467
   63SAPC   C31 5024   3.930   3.371   6.521  0.3502 -0.3842  0.0219
   63SAPC   O32 5025   3.939   3.474   6.592 -0.1324  0.1873  0.2351
   63SAPC   C32 5026   3.846   3.350   6.394  0.1655  0.2203 -0.1735
   63SAPC   H2X 5027   3.769   3.429   6.408  0.4386  0.6555 -1.0318
   63SAPC   H2Y 5028   3.795   3.252   6.404 -1.6893  1.1729  0.1052
   63SAPC   C23 5029   4.499   3.315   6.229  0.2833  0.5082 -0.5259
   63SAPC   H3R 5030   4.530   3.208   6.225 -0.1861  0.3983 -1.6469
   63SAPC   H3S 5031   4.573   3.377   6.284  1.6089 -0.1818 -1.4712
   63SAPC   C24 5032   4.497   3.362   6.080 -0.5428 -0.5130  0.4979
   63SAPC   H4R 5033   4.401   3.340   6.028  0.0223 -2.4601  0.2119
   63SAPC   H4S 5034   4.570   3.310   6.015  0.0148 -1.2588  1.6778
   63SAPC   C25 5035   4.517   3.512   6.052 -0.1495 -0.6297 -0.1523
   63SAPC   H5R 5036   4.556   3.567   6.139 -1.6465 -0.0813  0.1878
   63SAPC   C26 5037   4.473   3.581   5.948  0.8112 -0.3228  0.0427
   63SAPC   H6R 5038   4.497   3.688   5.956 -1.3048  0.3252 -1.3397
   63SAPC   C27 5039   4.399   3.543   5.826  0.2823  0.6033 -0.1567
   63SAPC   H7R 5040   4.364   3.438   5.831  0.4328  0.6031  1.5282
   63SAPC   H7S 5041   4.464   3.564   5.738  0.8510 -0.4716 -0.0190
   63SAPC   C28 5042   4.273   3.622   5.797  0.2641 -0.5325 -1.0761
   63SAPC   H8R 5043   4.194   3.585   5.865  1.6705  0.2212  1.0872
   63SAPC   C29 5044   4.255   3.725   5.712 -0.3760 -0.0645 -0.5032
   63SAPC   H9R 5045   4.157   3.775   5.706  0.6675  2.1024 -0.5530
   63SAPC  C210 5046   4.361   3.790   5.622 -0.0848  0.4544  0.5957
   63SAPC  H10R 5047   4.459   3.745   5.647 -1.2384 -2.3524  0.4190
   63SAPC  H10S 5048   4.364   3.901   5.630  1.6189  0.4677  0.1977
   63SAPC  C211 5049   4.322   3.738   5.482 -0.3362  0.0820  0.1204
   63SAPC  H11R 5050   4.282   3.635   5.480  1.3561 -0.5955 -0.0836
   63SAPC  C212 5051   4.326   3.808   5.363 -0.2614  0.1453 -0.0470
   63SAPC  H12R 5052   4.292   3.753   5.275 -4.3203  0.5167  1.1000
   63SAPC  C213 5053   4.369   3.945   5.346 -0.5228  0.1525  0.5675
   63SAPC  H13R 5054   4.443   3.935   5.264 -0.6903  1.2180  0.2757
   63SAPC  H13S 5055   4.421   3.978   5.438  0.8317 -2.4073  0.8110
   63SAPC  C214 5056   4.267   4.047   5.303 -0.1027 -0.1150  0.9565
   63SAPC  H14R 5057   4.207   4.101   5.377 -2.6567 -0.3413 -0.8079
   63SAPC  C215 5058   4.238   4.082   5.170 -0.0239  0.2761  0.3318
   63SAPC  H15R 5059   4.180   4.171   5.143  0.0217 -0.1277 -1.1891
   63SAPC  C216 5060   4.303   4.017   5.053 -0.4223  0.1463 -0.2885
   63SAPC  H16R 5061   4.390   3.949   5.063 -1.4376 -1.3533 -1.2983
   63SAPC  H16S 5062   4.333   4.100   4.986 -0.1514  0.2200 -0.0806
   63SAPC  C217 5063   4.205   3.922   4.976 -0.5054 -0.2442 -0.5608
   63SAPC  H17R 5064   4.110   3.974   4.952 -0.8341  0.2101  1.4975
   63SAPC  H17S 5065   4.171   3.844   5.047  0.1767 -0.4116 -0.4058
   63SAPC  C218 5066   4.264   3.875   4.836  0.3489 -0.3007 -0.2325
   63SAPC  H18R 5067   4.193   3.809   4.782  0.1861 -0.0998 -0.2609
   63SAPC  H18S 5068   4.358   3.822   4.862  0.0859  0.1638  1.8413
   63SAPC  C219 5069   4.299   3.990   4.742  0.3313  0.2424 -0.1592
   63SAPC  H19R 5070   4.332   3.937   4.651  0.3662  0.2080 -0.1264
   63SAPC  H19S 5071   4.390   4.043   4.778  0.1328  0.8046 -0.4706
   63SAPC  C220 5072   4.188   4.084   4.715 -0.5804  0.4016 -0.0655
   63SAPC  H20R 5073   4.218   4.145   4.627 -1.6169  1.4052  0.2420
   63SAPC  H20S 5074   4.168   4.167   4.786  0.9036  1.8173 -1.2277
   63SAPC  H20T 5075   4.089   4.043   4.686  0.7340 -2.5929 -0.6206
   63SAPC   C33 5076   3.922   3.360   6.254  0.3411  0.0715 -0.2550
   63SAPC   H3X 5077   3.847   3.343   6.174  1.1252  1.3087 -1.2981
   63SAPC   H3Y 5078   4.003   3.289   6.226  0.4427  0.6949 -1.6204
   63SAPC   C34 5079   3.975   3.498   6.215  0.1259  0.6482 -0.2739
   63SAPC   H4X 5080   3.900   3.579   6.208  0.7703  1.3073  0.2573
   63SAPC   H4Y 5081   4.028   3.490   6.118  0.4099  2.6784 -0.3219
   63SAPC   C35 5082   4.078   3.575   6.306 -0.0706 -0.1972 -0.3098
   63SAPC   H5X 5083   4.150   3.500   6.344  0.9769  0.5732 -0.7103
   63SAPC   H5Y 5084   4.031   3.625   6.393  0.8982 -0.5548  0.4254
   63SAPC   C36 5085   4.157   3.673   6.212  0.0479  0.0091  0.0308
   63SAPC   H6X 5086   4.079   3.727   6.154  1.2960  0.0655 -1.6600
   63SAPC   H6Y 5087   4.216   3.599   6.155 -0.6930 -1.4671  1.1075
   63SAPC   C37 5088   4.248   3.771   6.288 -0.0126 -0.0497 -0.6203
   63SAPC   H7X 5089   4.305   3.722   6.370  0.6126  0.9380 -0.4587
   63SAPC   H7Y 5090   4.181   3.841   6.342  0.0391 -0.2548 -0.2890
   63SAPC   C38 5091   4.336   3.859   6.196 -0.5520  0.6102  0.3892
   63SAPC   H8X 5092   4.409   3.801   6.136 -0.3902 -0.1492  1.2937
   63SAPC   H8Y 5093   4.400   3.912   6.270  2.4332 -0.2171 -1.4231
   63SAPC   C39 5094   4.259   3.963   6.121 -0.9846 -0.8902 -0.4359
   63SAPC   H9X 5095   4.330   4.047   6.106  2.0363 -3.0494  0.6556
   63SAPC   H9Y 5096   4.179   4.007   6.185 -0.8266  1.4264 -1.7446
   63SAPC  C310 5097   4.223   3.953   5.972  0.9501  0.2104  0.0487
   63SAPC  H10X 5098   4.153   3.867   5.973  2.5834 -1.2250  2.9017
   63SAPC  H10Y 5099   4.309   3.930   5.905  0.0127  0.7077 -1.3875
   63SAPC  C311 5100   4.158   4.083   5.915  0.6504 -0.2441 -0.3092
   63SAPC  H11X 5101   4.230   4.165   5.938 -1.1313  0.5576  2.9458
   63SAPC  H11Y 5102   4.070   4.108   5.977  0.3567 -1.8896 -0.0109
   63SAPC  C312 5103   4.107   4.075   5.774  0.0610  0.4811 -0.8826
   63SAPC  H12X 5104   4.057   3.977   5.756  0.6996 -0.0066 -0.0593
   63SAPC  H12Y 5105   4.190   4.077   5.700 -0.1387 -0.2883 -1.1425
   63SAPC  C313 5106   4.031   4.199   5.729  0.3504 -0.3633 -0.5359
   63SAPC  H13X 5107   4.082   4.286   5.776  1.6058 -1.6321  0.5674
   63SAPC  H13Y 5108   3.922   4.182   5.730  0.1329  0.9358 -0.6451
   63SAPC  C314 5109   4.047   4.224   5.573  0.5267  0.5828  0.4429
   63SAPC  H14X 5110   4.000   4.137   5.523  1.6332  0.7265 -0.8995
   63SAPC  H14Y 5111   4.154   4.241   5.550  0.6928 -1.0727 -0.1990
   63SAPC  C315 5112   3.971   4.353   5.543  0.6553  0.0572 -0.3224
   63SAPC  H15X 5113   3.998   4.418   5.628  1.6096  0.2842 -0.7932
   63SAPC  H15Y 5114   3.863   4.344   5.567  0.8112 -1.4948 -0.1008
   63SAPC  C316 5115   3.991   4.411   5.406 -0.3109 -0.7156 -0.1364
   63SAPC  H16X 5116   4.099   4.437   5.402 -0.2978 -0.9379 -2.1923
   63SAPC  H16Y 5117   3.922   4.496   5.385 -0.2522 -1.2285 -2.7666
   63SAPC  C317 5118   3.966   4.309   5.290 -0.0955  0.5675 -0.7102
   63SAPC  H17X 5119   3.862   4.274   5.309  0.2567  1.3805  3.9518
   63SAPC  H17Y 5120   4.036   4.224   5.305  1.3314  1.9600  0.9703
   63SAPC  C318 5121   3.979   4.365   5.150 -0.2611 -0.2638 -0.1243
   63SAPC  H18X 5122   3.910   4.450   5.129 -0.8432 -0.1587  1.9728
   63SAPC  H18Y 5123   3.973   4.292   5.067 -0.0350 -0.1996 -0.1977
   63SAPC  H18Z 5124   4.081   4.408   5.139 -2.1238  4.2125 -2.9208
   64SAPC     N 5125   4.701   0.056   7.245  0.2959  0.1089 -0.5661
   64SAPC   C12 5126   4.717   0.092   7.094 -0.4938 -0.0304  0.5984
   64SAPC  H12A 5127   4.800   0.037   7.053  3.1801  3.4924  2.6391
   64SAPC  H12B 5128   4.732   0.198   7.087 -1.6553  0.1878  1.0964
   64SAPC   C13 5129   4.829   0.063   7.318 -0.2490 -0.7986 -0.5036
   64SAPC  H13A 5130   4.905   0.027   7.250 -1.7586 -0.6188 -2.3979
   64SAPC  H13B 5131   4.856   0.166   7.335 -0.4080 -0.8613  0.1660
   64SAPC  H13C 5132   4.816   0.008   7.409 -0.8136  0.2407  0.0709
   64SAPC   C14 5133   4.605   0.135   7.317  0.0577 -0.1062 -0.5613
   64SAPC  H14A 5134   4.643   0.236   7.320  1.3619 -0.5693 -0.6639
   64SAPC  H14B 5135   4.514   0.135   7.259  0.5663 -0.7661 -1.3873
   64SAPC  H14C 5136   4.598   0.109   7.421  1.0071  1.1475 -0.1624
   64SAPC   C15 5137   4.653  -0.085   7.242  1.0750  0.2189 -0.1826
   64SAPC  H15A 5138   4.722  -0.149   7.189 -1.0212 -1.4470 -1.0366
   64SAPC  H15B 5139   4.638  -0.120   7.343  2.2856 -0.1890 -0.1295
   64SAPC  H15C 5140   4.560  -0.081   7.187  1.0036 -0.0911 -0.0819
   64SAPC   C11 5141   4.594   0.079   7.006 -0.6388 -0.7493  0.1318
   64SAPC  H11A 5142   4.607   0.141   6.915 -1.0595  0.7471  1.0518
   64SAPC  H11B 5143   4.514   0.137   7.058 -1.2461 -0.4274 -1.1323
   64SAPC     P 5144   4.548  -0.114   6.848 -0.0572  0.0971  0.2717
   64SAPC   O13 5145   4.648  -0.048   6.758  0.1946  0.3432  0.1125
   64SAPC   O14 5146   4.578  -0.258   6.873  0.1636  0.0877 -0.0174
   64SAPC   O12 5147   4.547  -0.055   6.993  0.3348  0.2205 -0.5924
   64SAPC   O11 5148   4.403  -0.100   6.795  0.2989 -1.0826  0.0544
   64SAPC    C1 5149   4.340   0.030   6.795 -0.6135 -0.6408  0.2266
   64SAPC    HA 5150   4.253   0.025   6.864 -0.5073 -0.2400  0.3907
   64SAPC    HB 5151   4.408   0.106   6.838  0.3806 -0.1824 -2.0113
   64SAPC    C2 5152   4.304   0.080   6.659 -0.2691 -1.1517  0.1832
   64SAPC    HS 5153   4.297   0.191   6.663 -0.6545 -1.1162 -1.0023
   64SAPC   O21 5154   4.176   0.016   6.619  0.0521 -0.6273  0.2794
   64SAPC   C21 5155   4.085   0.103   6.562  0.8527 -0.2771 -0.1012
   64SAPC   O22 5156   4.106   0.211   6.514 -0.0622  0.0961 -0.0420
   64SAPC   C22 5157   3.950   0.039   6.573 -0.4022  0.0704  0.3519
   64SAPC   H2R 5158   3.936  -0.003   6.675  1.6734 -0.5029  0.4450
   64SAPC   H2S 5159   3.869   0.115   6.561  0.7218  1.5955  1.8538
   64SAPC    C3 5160   4.422   0.057   6.564 -1.3570 -0.2204  0.8643
   64SAPC    HX 5161   4.461  -0.047   6.561  0.0745  0.2461  2.1683
   64SAPC    HY 5162   4.514   0.108   6.598 -1.0187  1.4781 -2.2171
   64SAPC   O31 5163   4.398   0.102   6.427  0.0825 -0.1788  0.6271
   64SAPC   C31 5164   4.422   0.234   6.409 -0.3386  0.6925 -0.1926
   64SAPC   O32 5165   4.478   0.303   6.489  0.3147 -0.2071 -0.6290
   64SAPC   C32 5166   4.364   0.275   6.274 -0.0101  0.0344 -0.4017
   64SAPC   H2X 5167   4.397   0.381   6.262 -1.1534  0.1960 -2.8343
   64SAPC   H2Y 5168   4.255   0.290   6.292  0.3838  2.5184  0.2612
   64SAPC   C23 5169   3.926  -0.072   6.465  0.2100 -0.3815 -0.2525
   64SAPC   H3R 5170   3.834  -0.130   6.489  0.3384 -1.1473 -1.5464
   64SAPC   H3S 5171   4.001  -0.151   6.446  0.4756  0.0118 -0.8586
   64SAPC   C24 5172   3.903  -0.012   6.327 -0.1753  0.2658  0.1922
   64SAPC   H4R 5173   3.999   0.030   6.289  0.2391 -1.4036 -0.7124
   64SAPC   H4S 5174   3.826   0.067   6.333 -2.1585 -1.6403  1.2342
   64SAPC   C25 5175   3.845  -0.112   6.225 -0.3501 -0.1856  0.1295
   64SAPC   H5R 5176   3.770  -0.180   6.268  1.3154 -0.7126  2.4424
   64SAPC   C26 5177   3.886  -0.132   6.100  1.4462 -0.2040 -0.2454
   64SAPC   H6R 5178   3.836  -0.209   6.040  0.1116  0.3793  0.0811
   64SAPC   C27 5179   3.985  -0.043   6.030 -0.0157 -0.1957 -0.8013
   64SAPC   H7R 5180   4.077  -0.093   5.993 -0.3520 -0.4790 -1.2627
   64SAPC   H7S 5181   4.024   0.041   6.091  0.4540 -1.0429  0.0940
   64SAPC   C28 5182   3.921   0.024   5.907  0.2206 -0.0034  0.8303
   64SAPC   H8R 5183   3.831   0.086   5.920 -0.5449 -1.5149  3.5025
   64SAPC   C29 5184   3.952   0.012   5.772 -1.0111  0.4438  1.0879
   64SAPC   H9R 5185   3.896   0.079   5.705  0.7262  2.2001  1.2905
   64SAPC  C210 5186   4.059  -0.066   5.707  0.6476 -0.0162 -0.0069
   64SAPC  H10R 5187   4.157  -0.084   5.756 -0.0677  0.2788  1.5774
   64SAPC  H10S 5188   4.101   0.002   5.630 -0.5904  2.0920  1.0966
   64SAPC  C211 5189   4.017  -0.205   5.653  0.2487  0.4778 -0.6358
   64SAPC  H11R 5190   3.972  -0.276   5.724 -1.3548  0.5092 -1.5742
   64SAPC  C212 5191   4.040  -0.243   5.525 -0.0089  0.3663 -0.1790
   64SAPC  H12R 5192   4.005  -0.343   5.494 -1.3772  1.2698 -1.6737
   64SAPC  C213 5193   4.117  -0.168   5.422  0.0189 -0.0095 -0.0201
   64SAPC  H13R 5194   4.136  -0.236   5.336 -0.6149  0.8877 -0.9041
   64SAPC  H13S 5195   4.215  -0.150   5.470 -0.4257 -1.5135  1.5680
   64SAPC  C214 5196   4.044  -0.045   5.363  0.7194  0.8956  0.1642
   64SAPC  H14R 5197   3.961  -0.004   5.423  0.9054 -0.3867  1.3410
   64SAPC  C215 5198   4.075   0.017   5.247  1.0115  0.1061  0.0076
   64SAPC  H15R 5199   4.015   0.107   5.232 -0.4791 -0.4044  2.4836
   64SAPC  C216 5200   4.189  -0.021   5.154 -0.1920  0.7704  0.5267
   64SAPC  H16R 5201   4.273  -0.070   5.209 -0.6048 -0.4222  0.1246
   64SAPC  H16S 5202   4.243   0.068   5.114  4.9929 -1.3074  2.0163
   64SAPC  C217 5203   4.146  -0.123   5.052 -0.2506 -0.2886  0.2164
   64SAPC  H17R 5204   4.098  -0.208   5.107  0.2009  0.3709  1.6726
   64SAPC  H17S 5205   4.237  -0.167   5.005  0.1766  2.2558 -1.4904
   64SAPC  C218 5206   4.044  -0.075   4.946  1.0404  0.6607 -0.1930
   64SAPC  H18R 5207   3.948  -0.041   4.990 -0.8406  0.0012 -3.4528
   64SAPC  H18S 5208   4.008  -0.152   4.875  4.9746 -0.3599 -1.3086
   64SAPC  C219 5209   4.109   0.034   4.866 -0.4084  0.1917  0.8125
   64SAPC  H19R 5210   4.109   0.120   4.936  2.1243  0.3482  0.7028
   64SAPC  H19S 5211   4.041   0.054   4.780 -0.4460 -1.9697  0.2858
   64SAPC  C220 5212   4.243  -0.012   4.808 -0.6211  0.4501 -0.0915
   64SAPC  H20R 5213   4.318  -0.025   4.889 -0.5271 -2.5938 -0.5631
   64SAPC  H20S 5214   4.292   0.064   4.744  1.7268 -2.8301 -2.5343
   64SAPC  H20T 5215   4.241  -0.114   4.764  1.9456  0.1199  0.4325
   64SAPC   C33 5216   4.390   0.188   6.149 -0.1081 -0.0493 -0.1763
   64SAPC   H3X 5217   4.331   0.093   6.154  1.5474 -1.2230 -1.5442
   64SAPC   H3Y 5218   4.493   0.147   6.152 -0.4242 -1.2973 -3.1293
   64SAPC   C34 5219   4.346   0.261   6.026  0.2585  0.4923  0.1220
   64SAPC   H4X 5220   4.398   0.357   6.010 -0.5931  1.1989  1.4217
   64SAPC   H4Y 5221   4.236   0.274   6.035 -0.2711 -2.9311 -0.0682
   64SAPC   C35 5222   4.369   0.179   5.905 -0.7429  0.4946  0.5121
   64SAPC   H5X 5223   4.333   0.075   5.922 -0.8681  0.5119  0.3561
   64SAPC   H5Y 5224   4.480   0.181   5.892 -0.8174  0.2611 -0.2010
   64SAPC   C36 5225   4.318   0.243   5.772 -0.0583  0.3357 -0.6001
   64SAPC   H6X 5226   4.359   0.345   5.756 -0.4238  0.3708 -1.3628
   64SAPC   H6Y 5227   4.207   0.255   5.768  0.0856  2.3825  0.1655
   64SAPC   C37 5228   4.362   0.163   5.653  0.1816  0.3300  0.1510
   64SAPC   H7X 5229   4.333   0.056   5.657  1.2470  0.0612  1.0421
   64SAPC   H7Y 5230   4.472   0.155   5.663  0.2238  0.6703 -0.0401
   64SAPC   C38 5231   4.323   0.226   5.517  0.0497  0.1787 -0.9926
   64SAPC   H8X 5232   4.216   0.251   5.506  0.6601  2.2469 -3.1444
   64SAPC   H8Y 5233   4.338   0.140   5.448 -0.6915  1.1132 -2.3607
   64SAPC   C39 5234   4.398   0.354   5.490 -0.9365 -0.1863  0.4917
   64SAPC   H9X 5235   4.504   0.352   5.522 -1.4896 -2.5889  2.5787
   64SAPC   H9Y 5236   4.333   0.434   5.532 -1.6835 -1.3202  1.5693
   64SAPC  C310 5237   4.399   0.391   5.340 -0.4321  0.4551  0.9447
   64SAPC  H10X 5238   4.416   0.501   5.337 -0.0277  0.4002  1.1293
   64SAPC  H10Y 5239   4.304   0.366   5.288  0.4968 -1.6315  0.1088
   64SAPC  C311 5240   4.509   0.310   5.264  0.9631 -0.1651 -0.0667
   64SAPC  H11X 5241   4.479   0.204   5.249  0.5879 -0.2227  0.9922
   64SAPC  H11Y 5242   4.605   0.312   5.321 -0.1088 -0.2941  1.8489
   64SAPC  C312 5243   4.542   0.368   5.131 -0.0107 -0.6628 -0.2545
   64SAPC  H12X 5244   4.618   0.319   5.067  0.3188 -0.8060  0.2400
   64SAPC  H12Y 5245   4.564   0.474   5.159 -2.3267 -0.5605  1.5004
   64SAPC  C313 5246   4.429   0.378   5.031  0.3724  0.5560 -0.1250
   64SAPC  H13X 5247   4.333   0.376   5.087 -0.3328 -0.2572 -1.3058
   64SAPC  H13Y 5248   4.416   0.279   4.982 -1.9401  0.3232  0.8447
   64SAPC  C314 5249   4.437   0.485   4.929  0.7686 -0.2185  0.2096
   64SAPC  H14X 5250   4.473   0.575   4.983 -1.0724  0.2268  0.7511
   64SAPC  H14Y 5251   4.339   0.509   4.884  0.5007 -0.8650  0.4375
   64SAPC  C315 5252   4.522   0.465   4.803 -0.7111  0.5354 -0.0143
   64SAPC  H15X 5253   4.632   0.458   4.816 -0.8525  0.6256  1.4247
   64SAPC  H15Y 5254   4.503   0.556   4.742 -0.1641  0.0706 -0.8888
   64SAPC  C316 5255   4.472   0.348   4.723 -0.3852  0.2395  0.2481
   64SAPC  H16X 5256   4.361   0.346   4.727 -0.4399  1.7352  0.2480
   64SAPC  H16Y 5257   4.508   0.255   4.771 -0.0373  1.8901  3.4622
   64SAPC  C317 5258   4.514   0.349   4.574 -0.2184  0.1485 -0.1720
   64SAPC  H17X 5259   4.625   0.348   4.579  0.0090 -2.6974 -2.6855
   64SAPC  H17Y 5260   4.495   0.448   4.528 -0.2806  0.2764  0.1335
   64SAPC  C318 5261   4.458   0.233   4.479 -0.3833  0.0513 -0.1332
   64SAPC  H18X 5262   4.476   0.260   4.373 -0.0423 -0.3835 -0.1856
   64SAPC  H18Y 5263   4.348   0.232   4.493 -0.2776 -1.1900  0.8174
   64SAPC  H18Z 5264   4.511   0.140   4.508  2.6383  1.4811 -0.6448
   65SAPC     N 5265   3.040   5.455   1.647 -0.2059  0.4892  0.6605
   65SAPC   C12 5266   3.049   5.462   1.803  0.2795  0.3094 -0.1094
   65SAPC  H12A 5267   2.961   5.516   1.834 -2.1004 -3.3567  0.0745
   65SAPC  H12B 5268   3.126   5.532   1.834 -0.6624  1.6346 -0.6540
   65SAPC   C13 5269   3.171   5.409   1.583  0.9811  0.0517 -0.5979
   65SAPC  H13A 5270   3.181   5.303   1.602 -1.6391  0.2213  2.5241
   65SAPC  H13B 5271   3.178   5.437   1.479  2.0130 -0.4130 -0.6638
   65SAPC  H13C 5272   3.252   5.464   1.628 -1.5593  3.2961  0.3980
   65SAPC   C14 5273   2.945   5.346   1.615  0.0570 -0.0886  0.1045
   65SAPC  H14A 5274   2.846   5.370   1.651  1.4568  3.6928  1.9378
   65SAPC  H14B 5275   2.942   5.328   1.509  0.7704 -0.9478  0.2152
   65SAPC  H14C 5276   2.982   5.252   1.654  0.5255 -0.1030 -0.3620
   65SAPC   C15 5277   2.990   5.581   1.589 -0.3582 -0.3372 -1.0043
   65SAPC  H15A 5278   2.992   5.583   1.481  2.2247  1.9967 -1.0296
   65SAPC  H15B 5279   2.892   5.607   1.626  0.3552 -0.6175  1.2118
   65SAPC  H15C 5280   3.051   5.666   1.616  0.3334 -0.6124 -1.6552
   65SAPC   C11 5281   3.075   5.339   1.890 -0.6236 -0.9665 -0.6532
   65SAPC  H11A 5282   3.094   5.353   1.999 -2.0624 -1.2969 -0.3374
   65SAPC  H11B 5283   3.164   5.292   1.844 -1.8234 -2.8302 -1.1959
   65SAPC     P 5284   2.818   5.258   1.941  0.1176  0.5191 -0.0474
   65SAPC   O13 5285   2.761   5.388   1.902  0.5821  0.1712 -0.1379
   65SAPC   O14 5286   2.752   5.133   1.894 -0.6415 -0.4858 -0.6605
   65SAPC   O12 5287   2.967   5.242   1.894  0.1136 -0.4097  0.0323
   65SAPC   O11 5288   2.832   5.246   2.100  0.1870 -0.2168  0.3712
   65SAPC    C1 5289   2.920   5.151   2.148 -0.0227 -0.1013  0.5644
   65SAPC    HA 5290   2.904   5.052   2.102  0.9088  0.5380 -1.2116
   65SAPC    HB 5291   3.024   5.188   2.141 -0.0697 -0.1873 -0.6727
   65SAPC    C2 5292   2.897   5.141   2.305 -1.2062  0.1486  0.1019
   65SAPC    HS 5293   2.970   5.067   2.344 -1.6073 -0.3008  0.0111
   65SAPC   O21 5294   2.767   5.097   2.347 -0.1821  0.5633  0.4553
   65SAPC   C21 5295   2.746   4.963   2.329 -0.8106  0.0159 -0.7042
   65SAPC   O22 5296   2.820   4.887   2.268 -0.1845  0.0192  0.2742
   65SAPC   C22 5297   2.604   4.931   2.393  0.4687 -0.0402  0.4144
   65SAPC   H2R 5298   2.535   4.997   2.337 -0.3360 -0.2722  1.1034
   65SAPC   H2S 5299   2.566   4.828   2.376  0.0434  0.3497 -1.1130
   65SAPC    C3 5300   2.944   5.281   2.372 -0.5824  0.2640  0.1236
   65SAPC    HX 5301   2.873   5.361   2.342  1.6547  2.7026  0.9733
   65SAPC    HY 5302   3.037   5.314   2.322 -0.9300 -0.4169 -1.0171
   65SAPC   O31 5303   2.970   5.271   2.514  0.1046  0.0697  0.2397
   65SAPC   C31 5304   2.885   5.332   2.591  0.5277 -0.2041 -0.5347
   65SAPC   O32 5305   2.775   5.382   2.556 -0.1009 -0.6856 -0.0782
   65SAPC   C32 5306   2.943   5.328   2.740 -0.3777  0.0604  0.3079
   65SAPC   H2X 5307   3.053   5.322   2.726 -0.7473 -1.3407 -2.7398
   65SAPC   H2Y 5308   2.910   5.231   2.782  0.7054 -0.9917 -1.1500
   65SAPC   C23 5309   2.588   4.969   2.543 -0.5125 -0.1068  0.9525
   65SAPC   H3R 5310   2.478   4.982   2.551 -0.5142  1.1954 -0.5575
   65SAPC   H3S 5311   2.640   5.067   2.556  0.5431 -0.7673  1.8592
   65SAPC   C24 5312   2.638   4.864   2.650 -0.8060 -0.5919 -0.3124
   65SAPC   H4R 5313   2.594   4.767   2.616  1.3072 -2.5037  2.0574
   65SAPC   H4S 5314   2.591   4.899   2.744  1.3334  1.5182  0.0270
   65SAPC   C25 5315   2.789   4.850   2.659 -0.4394 -0.1375  0.9293
   65SAPC   H5R 5316   2.836   4.831   2.561 -2.5527 -0.1942 -0.1099
   65SAPC   C26 5317   2.871   4.869   2.761  0.6021  0.8843  0.2209
   65SAPC   H6R 5318   2.978   4.859   2.741  0.2574  1.7327 -2.3918
   65SAPC   C27 5319   2.833   4.911   2.900 -0.1996 -0.1671  0.0490
   65SAPC   H7R 5320   2.766   4.998   2.885 -0.2421  0.5499  3.4829
   65SAPC   H7S 5321   2.924   4.945   2.956  1.2224 -3.5628  0.0647
   65SAPC   C28 5322   2.746   4.815   2.975 -0.3859  0.4946  0.0287
   65SAPC   H8R 5323   2.688   4.753   2.905  1.4684 -0.3597 -0.8272
   65SAPC   C29 5324   2.753   4.793   3.101  0.1912 -0.1605  0.2812
   65SAPC   H9R 5325   2.688   4.720   3.153  1.3950 -2.8168 -1.7399
   65SAPC  C210 5326   2.856   4.860   3.192  0.1153 -1.2930  0.1303
   65SAPC  H10R 5327   2.862   4.969   3.171 -2.2027 -1.4935 -2.1704
   65SAPC  H10S 5328   2.958   4.818   3.180  1.1783  1.8444 -4.2913
   65SAPC  C211 5329   2.819   4.842   3.337  0.3355  0.1147 -0.7948
   65SAPC  H11R 5330   2.714   4.812   3.356 -0.1388  0.4500 -2.6824
   65SAPC  C212 5331   2.897   4.848   3.448  0.7772 -0.3295 -0.0003
   65SAPC  H12R 5332   2.853   4.837   3.548  0.4608  0.3129 -0.0657
   65SAPC  C213 5333   3.042   4.879   3.441 -0.3506 -0.0944 -0.3843
   65SAPC  H13R 5334   3.063   4.980   3.482  0.6629 -1.1580  1.8359
   65SAPC  H13S 5335   3.077   4.880   3.335  0.8956  1.4940  0.0074
   65SAPC  C214 5336   3.131   4.791   3.525  0.0294 -0.4496 -0.2313
   65SAPC  H14R 5337   3.091   4.764   3.625 -0.0143  1.3978  0.2956
   65SAPC  C215 5338   3.254   4.763   3.493  1.3306  0.1028  0.4784
   65SAPC  H15R 5339   3.313   4.706   3.566  1.3306  1.1108  1.2834
   65SAPC  C216 5340   3.328   4.800   3.368 -0.0707  0.1661 -0.1855
   65SAPC  H16R 5341   3.403   4.873   3.403 -1.0173  0.4314  1.3906
   65SAPC  H16S 5342   3.266   4.852   3.291  0.6893 -0.3193 -1.1520
   65SAPC  C217 5343   3.406   4.690   3.284 -0.1596 -0.0950  0.4919
   65SAPC  H17R 5344   3.349   4.595   3.278 -0.3799 -0.0036  1.0651
   65SAPC  H17S 5345   3.498   4.665   3.341  0.2082  1.3757  0.5870
   65SAPC  C218 5346   3.445   4.731   3.148 -0.0502 -0.4358 -0.2617
   65SAPC  H18R 5347   3.500   4.827   3.153 -0.8485  0.0424 -0.4749
   65SAPC  H18S 5348   3.355   4.746   3.085 -1.0455  2.3127  1.6292
   65SAPC  C219 5349   3.529   4.616   3.096  0.4470 -0.7591  0.8242
   65SAPC  H19R 5350   3.471   4.526   3.126  0.4301  0.0263  3.3664
   65SAPC  H19S 5351   3.630   4.608   3.140  1.3238  1.7630 -0.5502
   65SAPC  C220 5352   3.559   4.621   2.945  0.4486  0.0065  0.0653
   65SAPC  H20R 5353   3.626   4.706   2.919  1.9065 -1.3013 -0.5899
   65SAPC  H20S 5354   3.460   4.631   2.895  0.3256 -1.5936 -0.0421
   65SAPC  H20T 5355   3.600   4.526   2.906  0.6460 -0.1863  0.7218
   65SAPC   C33 5356   2.906   5.439   2.826  0.3051 -0.6340 -0.1122
   65SAPC   H3X 5357   2.796   5.452   2.839  0.0769 -1.5669 -0.9330
   65SAPC   H3Y 5358   2.946   5.532   2.782 -1.5214 -0.6780 -2.0344
   65SAPC   C34 5359   2.958   5.408   2.965 -0.2392 -0.3042 -0.8659
   65SAPC   H4X 5360   3.066   5.383   2.964 -0.3235 -0.9219  1.5160
   65SAPC   H4Y 5361   2.912   5.319   3.011 -1.3548  0.3713 -0.6414
   65SAPC   C35 5362   2.932   5.517   3.069 -0.7820  0.5515  0.6060
   65SAPC   H5X 5363   2.823   5.513   3.092 -1.4348 -2.4266 -2.3193
   65SAPC   H5Y 5364   2.962   5.611   3.019 -0.6887 -0.6056 -1.6034
   65SAPC   C36 5365   3.020   5.508   3.194  0.3213 -0.0314 -0.7508
   65SAPC   H6X 5366   3.119   5.462   3.176  1.2511  1.1093  1.1385
   65SAPC   H6Y 5367   2.976   5.440   3.270 -0.5091 -2.2044 -3.0384
   65SAPC   C37 5368   3.058   5.646   3.261  0.7065  0.0695  0.1326
   65SAPC   H7X 5369   2.965   5.706   3.269  1.6051  1.6678 -0.9912
   65SAPC   H7Y 5370   3.127   5.707   3.199 -0.1055 -0.1986 -1.0577
   65SAPC   C38 5371   3.106   5.630   3.407 -0.0496  0.2080 -0.1820
   65SAPC   H8X 5372   3.105   5.732   3.450  1.7165  0.3828 -0.4748
   65SAPC   H8Y 5373   3.213   5.605   3.389 -0.2869  0.4133 -2.1557
   65SAPC   C39 5374   3.048   5.526   3.502  0.1283 -0.5137 -0.1895
   65SAPC   H9X 5375   3.066   5.420   3.472 -0.2145 -0.1218 -1.9076
   65SAPC   H9Y 5376   2.937   5.526   3.502  0.0762 -2.7285  0.2586
   65SAPC  C310 5377   3.093   5.543   3.645  0.2392 -0.5493 -0.2785
   65SAPC  H10X 5378   3.047   5.457   3.699  0.5349 -0.7598 -0.3596
   65SAPC  H10Y 5379   3.044   5.630   3.693  0.6210 -1.5132  1.9791
   65SAPC  C311 5380   3.245   5.537   3.666  0.1677 -1.3215 -0.2641
   65SAPC  H11X 5381   3.291   5.623   3.614 -1.0117  0.5140  1.5561
   65SAPC  H11Y 5382   3.278   5.442   3.618 -0.0707 -2.3945  1.5905
   65SAPC  C312 5383   3.275   5.525   3.814  0.1065 -0.3880  1.0719
   65SAPC  H12X 5384   3.385   5.518   3.831  0.5223 -0.4295 -1.3208
   65SAPC  H12Y 5385   3.217   5.442   3.859 -2.9875  2.0852  2.0485
   65SAPC  C313 5386   3.239   5.651   3.898  0.2950  0.3996 -0.7503
   65SAPC  H13X 5387   3.128   5.648   3.890  0.2390  3.0209 -1.9523
   65SAPC  H13Y 5388   3.255   5.739   3.831  0.4365 -0.1656 -1.4679
   65SAPC  C314 5389   3.295   5.654   4.043 -0.9817 -0.7831 -0.6100
   65SAPC  H14X 5390   3.392   5.707   4.047 -1.3833 -0.1046  1.1845
   65SAPC  H14Y 5391   3.307   5.551   4.083  1.5097 -0.1567  0.4116
   65SAPC  C315 5392   3.212   5.733   4.143 -0.1549  0.3742  0.7449
   65SAPC  H15X 5393   3.114   5.682   4.142 -0.0180 -0.0562 -2.6432
   65SAPC  H15Y 5394   3.198   5.838   4.109 -1.0374  0.3902  1.1245
   65SAPC  C316 5395   3.264   5.740   4.288  0.0282  0.9625  0.1815
   65SAPC  H16X 5396   3.282   5.635   4.320  1.1882  0.8619 -0.7129
   65SAPC  H16Y 5397   3.181   5.779   4.351 -2.0000 -1.7630 -0.6469
   65SAPC  C317 5398   3.399   5.823   4.299  0.3749 -0.2135  0.3640
   65SAPC  H17X 5399   3.373   5.925   4.264  1.6033  0.9878  2.6858
   65SAPC  H17Y 5400   3.477   5.771   4.241  0.8242  2.2746 -1.3985
   65SAPC  C318 5401   3.445   5.826   4.443  0.2152 -0.1005 -0.4326
   65SAPC  H18X 5402   3.551   5.848   4.466 -0.1878  1.3912  0.1295
   65SAPC  H18Y 5403   3.420   5.727   4.487 -0.7027  1.3329  2.5758
   65SAPC  H18Z 5404   3.384   5.899   4.501 -1.8937 -2.8726  1.0860
   66SAPC     N 5405   4.827   6.727   1.579  0.3792  0.1977 -0.0079
   66SAPC   C12 5406   4.734   6.627   1.648  1.0400 -0.2621 -0.4592
   66SAPC  H12A 5407   4.786   6.534   1.661 -0.2903 -0.6347  3.3155
   66SAPC  H12B 5408   4.644   6.613   1.590 -0.0997 -0.1288  1.2299
   66SAPC   C13 5409   4.811   6.709   1.428 -0.2998  0.4973  0.2329
   66SAPC  H13A 5410   4.893   6.755   1.375 -0.4311 -1.4433 -1.8007
   66SAPC  H13B 5411   4.826   6.606   1.399  1.7630  0.6075  0.7318
   66SAPC  H13C 5412   4.715   6.740   1.391  0.0764  0.6514 -0.6395
   66SAPC   C14 5413   4.777   6.861   1.615  0.5696  0.1370 -0.6936
   66SAPC  H14A 5414   4.827   6.930   1.548 -0.5796 -1.2608 -3.1515
   66SAPC  H14B 5415   4.670   6.868   1.605  0.6503 -0.4860 -2.3279
   66SAPC  H14C 5416   4.803   6.888   1.716 -0.1860  3.1561 -1.2171
   66SAPC   C15 5417   4.964   6.717   1.618 -0.7674 -0.1858 -0.0016
   66SAPC  H15A 5418   4.976   6.715   1.726  1.1478  2.4503 -0.0838
   66SAPC  H15B 5419   5.009   6.624   1.585 -2.1962  0.2878 -3.8236
   66SAPC  H15C 5420   5.021   6.801   1.583  0.8765 -0.2564  2.3078
   66SAPC   C11 5421   4.687   6.660   1.793  0.2378 -0.0416 -0.0735
   66SAPC  H11A 5422   4.638   6.759   1.800  0.5090  0.2882 -2.2438
   66SAPC  H11B 5423   4.772   6.674   1.863  0.2246 -0.9583  0.1417
   66SAPC     P 5424   4.636   6.412   1.858  0.0060  0.3133 -0.4492
   66SAPC   O13 5425   4.517   6.343   1.904 -0.1556 -0.3971  0.3673
   66SAPC   O14 5426   4.719   6.345   1.751  0.1500  0.2233 -0.3861
   66SAPC   O12 5427   4.595   6.559   1.824 -0.1871  0.1636 -0.4080
   66SAPC   O11 5428   4.730   6.434   1.985 -0.1304 -0.2313 -0.1042
   66SAPC    C1 5429   4.709   6.527   2.090  0.2289  0.1462  0.4636
   66SAPC    HA 5430   4.789   6.605   2.089 -1.5445  2.1035 -2.6423
   66SAPC    HB 5431   4.619   6.583   2.059 -1.2746 -3.1052 -1.5282
   66SAPC    C2 5432   4.693   6.469   2.232  0.4150  0.0379  0.3744
   66SAPC    HS 5433   4.788   6.438   2.280  0.3473 -0.4415  0.2020
   66SAPC   O21 5434   4.584   6.372   2.241 -0.4134 -0.5982  0.2200
   66SAPC   C21 5435   4.620   6.251   2.200  0.4398 -0.2727  0.2108
   66SAPC   O22 5436   4.729   6.203   2.186  0.0511  0.0943  0.6674
   66SAPC   C22 5437   4.488   6.177   2.191  0.5526  0.7700  0.6434
   66SAPC   H2R 5438   4.402   6.224   2.139 -2.2664 -1.1938  3.1539
   66SAPC   H2S 5439   4.518   6.087   2.133  1.2517  0.5196  1.3681
   66SAPC    C3 5440   4.630   6.579   2.322  0.1292 -0.2702 -0.4159
   66SAPC    HX 5441   4.621   6.550   2.429  0.2471  1.4402  0.0814
   66SAPC    HY 5442   4.529   6.600   2.280  1.1067  1.8930 -1.8365
   66SAPC   O31 5443   4.704   6.701   2.315 -0.7186  0.7267 -0.0579
   66SAPC   C31 5444   4.701   6.784   2.422  0.0418 -0.2178 -0.7332
   66SAPC   O32 5445   4.646   6.763   2.529 -0.0019  0.8646  0.4910
   66SAPC   C32 5446   4.796   6.903   2.399 -0.9592 -0.1878 -0.5057
   66SAPC   H2X 5447   4.745   6.987   2.451 -0.8054 -2.5082  3.8713
   66SAPC   H2Y 5448   4.794   6.914   2.289 -1.8909  0.1395 -0.4703
   66SAPC   C23 5449   4.440   6.124   2.326  0.4621  0.3521 -0.6221
   66SAPC   H3R 5450   4.399   6.206   2.387  0.6816 -1.1447  1.6569
   66SAPC   H3S 5451   4.530   6.087   2.379  0.6243 -0.5863 -1.4979
   66SAPC   C24 5452   4.331   6.006   2.343  0.3000  0.0030  0.6855
   66SAPC   H4R 5453   4.237   6.056   2.312  0.2759 -0.1686  0.4798
   66SAPC   H4S 5454   4.319   5.995   2.453 -1.7397  1.4059  0.6514
   66SAPC   C25 5455   4.357   5.875   2.275 -0.4955  0.8691 -0.1545
   66SAPC   H5R 5456   4.296   5.859   2.185 -0.7394  0.4441  0.0819
   66SAPC   C26 5457   4.447   5.781   2.313 -0.1692 -0.1887 -0.4002
   66SAPC   H6R 5458   4.449   5.685   2.259  1.9143 -0.9270  0.8727
   66SAPC   C27 5459   4.537   5.793   2.433 -0.2022  0.0455 -0.1661
   66SAPC   H7R 5460   4.536   5.696   2.486 -0.4213 -1.2155 -2.3594
   66SAPC   H7S 5461   4.490   5.872   2.495  0.6894  0.2826  0.2228
   66SAPC   C28 5462   4.682   5.827   2.387 -0.3395  0.5389  0.5078
   66SAPC   H8R 5463   4.714   5.821   2.282 -1.3375  0.8033  0.1771
   66SAPC   C29 5464   4.781   5.867   2.470  0.3429  0.6118  0.1335
   66SAPC   H9R 5465   4.885   5.873   2.435 -0.3050  1.1561 -1.7950
   66SAPC  C210 5466   4.745   5.870   2.625 -0.3666 -0.3338  0.1078
   66SAPC  H10R 5467   4.640   5.899   2.645 -0.5625 -1.0488  0.1662
   66SAPC  H10S 5468   4.813   5.944   2.672  0.9100  0.2746 -2.5140
   66SAPC  C211 5469   4.770   5.732   2.681  0.2920  0.2835  0.2054
   66SAPC  H11R 5470   4.798   5.657   2.605 -1.2148 -0.4828  0.3605
   66SAPC  C212 5471   4.775   5.699   2.807 -0.2137 -0.5058 -0.4537
   66SAPC  H12R 5472   4.786   5.593   2.837 -1.9600 -0.5608  0.0930
   66SAPC  C213 5473   4.759   5.802   2.919  0.4890 -0.5589 -0.2774
   66SAPC  H13R 5474   4.674   5.868   2.893  0.6888  0.0182  0.4906
   66SAPC  H13S 5475   4.849   5.867   2.929 -1.1722  1.8022  0.1586
   66SAPC  C214 5476   4.734   5.746   3.059  0.1366  0.3864 -0.9260
   66SAPC  H14R 5477   4.826   5.746   3.118 -0.2566  1.4690 -0.2713
   66SAPC  C215 5478   4.626   5.686   3.105  0.5292  0.6942 -0.4014
   66SAPC  H15R 5479   4.615   5.645   3.207  1.3350 -5.2011 -2.3243
   66SAPC  C216 5480   4.497   5.663   3.019  0.4750 -0.4152 -0.4016
   66SAPC  H16R 5481   4.517   5.683   2.911  0.7613  0.4416 -0.2062
   66SAPC  H16S 5482   4.418   5.737   3.044  1.6343  0.4969  0.7263
   66SAPC  C217 5483   4.438   5.522   3.035  0.2855  0.0573  0.1688
   66SAPC  H17R 5484   4.520   5.456   2.997  0.8457  1.0978 -0.5034
   66SAPC  H17S 5485   4.354   5.516   2.963  0.1558 -3.1799  0.4499
   66SAPC  C218 5486   4.381   5.486   3.167  0.0269 -1.1853 -0.7584
   66SAPC  H18R 5487   4.301   5.558   3.197  2.9128  2.1903 -0.4951
   66SAPC  H18S 5488   4.465   5.500   3.238 -0.7538 -0.9120  0.1411
   66SAPC  C219 5489   4.334   5.338   3.171  0.0488 -0.6609  0.0544
   66SAPC  H19R 5490   4.415   5.271   3.133 -0.0675 -2.3949  2.5472
   66SAPC  H19S 5491   4.259   5.327   3.091  0.4351 -2.2833 -0.1214
   66SAPC  C220 5492   4.270   5.297   3.305  0.3107 -0.7009 -0.3362
   66SAPC  H20R 5493   4.209   5.385   3.336 -0.5483 -0.1317 -3.3437
   66SAPC  H20S 5494   4.358   5.277   3.370  1.2374 -0.7343 -1.5639
   66SAPC  H20T 5495   4.198   5.212   3.302 -0.4617 -0.2322  2.3498
   66SAPC   C33 5496   4.937   6.872   2.452 -0.9182 -0.3656 -0.3786
   66SAPC   H3X 5497   5.003   6.960   2.433 -0.1056 -0.7942  0.3705
   66SAPC   H3Y 5498   4.987   6.786   2.404 -2.0484 -1.5386  0.4801
   66SAPC   C34 5499   4.932   6.848   2.603 -0.4440 -0.0970  0.0801
   66SAPC   H4X 5500   4.877   6.754   2.625  0.6639 -0.1991  2.8489
   66SAPC   H4Y 5501   4.878   6.935   2.647 -0.3345 -0.9261  1.9405
   66SAPC   C35 5502   5.069   6.826   2.662 -0.3183  0.4819  0.0974
   66SAPC   H5X 5503   5.123   6.923   2.666  0.4304  0.0932 -0.3039
   66SAPC   H5Y 5504   5.142   6.772   2.598  1.1560  1.9987  0.4006
   66SAPC   C36 5505   5.074   6.751   2.798  0.4174  0.7705  0.1093
   66SAPC   H6X 5506   5.179   6.742   2.835  0.7117  0.2120 -0.8371
   66SAPC   H6Y 5507   5.033   6.649   2.788  0.1638  0.7712  1.0401
   66SAPC   C37 5508   4.994   6.819   2.907  0.5554 -0.4138 -0.4671
   66SAPC   H7X 5509   4.888   6.823   2.876  1.2564 -0.5871 -3.0692
   66SAPC   H7Y 5510   5.028   6.924   2.906 -1.5150  0.2969 -2.0495
   66SAPC   C38 5511   4.993   6.747   3.041 -0.5682  0.0255 -0.0160
   66SAPC   H8X 5512   5.098   6.740   3.076 -1.1399  0.1537  1.8111
   66SAPC   H8Y 5513   4.948   6.650   3.014 -1.4258  0.6195 -0.7955
   66SAPC   C39 5514   4.914   6.817   3.155  0.3984  0.3304 -0.2355
   66SAPC   H9X 5515   4.814   6.852   3.121 -0.3845 -0.4936  1.1339
   66SAPC   H9Y 5516   4.963   6.915   3.174 -1.1716  1.1258 -0.1171
   66SAPC  C310 5517   4.897   6.735   3.280  0.0790  1.0970  0.4267
   66SAPC  H10X 5518   4.999   6.703   3.311  0.7057  2.8172  0.2605
   66SAPC  H10Y 5519   4.847   6.645   3.241 -1.5153  1.1891  2.1280
   66SAPC  C311 5520   4.812   6.802   3.383  0.1053  0.3509  0.4766
   66SAPC  H11X 5521   4.817   6.912   3.369  0.2197  0.3280  0.3409
   66SAPC  H11Y 5522   4.875   6.783   3.473 -0.3933  0.6685  0.9021
   66SAPC  C312 5523   4.662   6.749   3.403 -0.8907 -0.5278 -0.1229
   66SAPC  H12X 5524   4.618   6.754   3.301 -2.8710 -0.1133  0.6951
   66SAPC  H12Y 5525   4.605   6.811   3.475 -1.6387 -0.1373 -1.0349
   66SAPC  C313 5526   4.666   6.610   3.461 -0.5561  0.2393 -0.5327
   66SAPC  H13X 5527   4.744   6.552   3.408  0.2144 -0.4556  1.2654
   66SAPC  H13Y 5528   4.573   6.558   3.429 -1.2156  0.6150  0.6889
   66SAPC  C314 5529   4.711   6.603   3.607 -0.5386 -0.7658 -0.0263
   66SAPC  H14X 5530   4.631   6.664   3.654 -0.6764  0.0109 -1.2333
   66SAPC  H14Y 5531   4.808   6.654   3.625 -0.9739  1.2888 -2.8305
   66SAPC  C315 5532   4.694   6.466   3.673  0.7818 -0.3526  0.6056
   66SAPC  H15X 5533   4.766   6.392   3.633 -0.0311 -0.1523 -1.3004
   66SAPC  H15Y 5534   4.596   6.421   3.649  0.7410  0.1971 -0.2940
   66SAPC  C316 5535   4.699   6.493   3.822  0.1388  0.0483 -0.7702
   66SAPC  H16X 5536   4.607   6.545   3.858  1.2070  0.8852  0.8335
   66SAPC  H16Y 5537   4.793   6.546   3.845  0.6625 -0.4766 -1.6471
   66SAPC  C317 5538   4.702   6.365   3.907 -0.2269  0.2726 -0.8342
   66SAPC  H17X 5539   4.683   6.402   4.010 -0.3461  1.9182 -1.4255
   66SAPC  H17Y 5540   4.802   6.317   3.916 -0.5403 -0.4715 -1.1994
   66SAPC  C318 5541   4.600   6.265   3.863 -0.1638  0.0883 -0.9875
   66SAPC  H18X 5542   4.504   6.302   3.822 -2.3113  0.0350  3.4157
   66SAPC  H18Y 5543   4.569   6.195   3.943 -1.0006  0.2208 -1.1833
   66SAPC  H18Z 5544   4.648   6.203   3.783  2.0089  2.2669 -1.4872
   67SAPC     N 5545   1.597   6.438   2.082 -0.6876 -0.1053 -0.0717
   67SAPC   C12 5546   1.515   6.456   2.208 -0.5430  0.2866 -0.1618
   67SAPC  H12A 5547   1.574   6.428   2.295 -0.7396 -1.9582 -0.6959
   67SAPC  H12B 5548   1.433   6.386   2.212 -1.4189  1.3261  2.4554
   67SAPC   C13 5549   1.649   6.292   2.062 -0.5987  0.1958 -0.0636
   67SAPC  H13A 5550   1.570   6.227   2.097 -1.4899  1.2368 -0.0819
   67SAPC  H13B 5551   1.677   6.272   1.960  2.2536  0.2187  0.6412
   67SAPC  H13C 5552   1.736   6.278   2.124  0.1682  0.6336 -1.0226
   67SAPC   C14 5553   1.517   6.472   1.962  0.6425 -0.0350  0.1660
   67SAPC  H14A 5554   1.529   6.576   1.939 -2.0919  0.6987  1.6571
   67SAPC  H14B 5555   1.556   6.422   1.874 -2.2212  0.8120 -1.7210
   67SAPC  H14C 5556   1.414   6.440   1.966  0.8552 -1.0631 -1.5573
   67SAPC   C15 5557   1.720   6.527   2.082  0.1752 -0.4551  0.0871
   67SAPC  H15A 5558   1.689   6.622   2.121  0.6952  1.0266 -2.8524
   67SAPC  H15B 5559   1.797   6.494   2.151 -0.5698 -0.3471  0.9908
   67SAPC  H15C 5560   1.765   6.540   1.985  2.3663 -1.4305  0.8875
   67SAPC   C11 5561   1.464   6.596   2.246  0.4104 -0.6074 -0.3070
   67SAPC  H11A 5562   1.403   6.588   2.339 -1.4078 -0.4878 -1.4358
   67SAPC  H11B 5563   1.387   6.628   2.172  1.4894 -0.3169 -1.3231
   67SAPC     P 5564   1.649   6.684   2.406  0.2487 -0.5267 -0.3504
   67SAPC   O13 5565   1.643   6.544   2.462  0.2377 -0.4230 -0.1746
   67SAPC   O14 5566   1.780   6.748   2.389  0.0803  0.4280  0.8669
   67SAPC   O12 5567   1.568   6.696   2.267  0.2693  0.1612  0.8901
   67SAPC   O11 5568   1.557   6.777   2.499  0.4195 -1.1356  0.4631
   67SAPC    C1 5569   1.561   6.916   2.467  0.5973 -0.7801  0.2817
   67SAPC    HA 5570   1.572   6.939   2.359  2.7031 -2.5667  0.0476
   67SAPC    HB 5571   1.462   6.959   2.496  0.8610  0.1758 -0.2097
   67SAPC    C2 5572   1.661   7.004   2.548 -0.3588 -0.3186  0.7243
   67SAPC    HS 5573   1.762   6.964   2.524 -0.4240 -0.0651  0.0212
   67SAPC   O21 5574   1.626   6.992   2.690 -0.4657  0.4406  0.2402
   67SAPC   C21 5575   1.728   6.954   2.765 -0.2018 -1.4081  0.0337
   67SAPC   O22 5576   1.846   6.951   2.731 -0.6100 -0.0081 -0.0149
   67SAPC   C22 5577   1.677   6.909   2.902 -0.0910 -0.3231  0.7481
   67SAPC   H2R 5578   1.578   6.958   2.912 -1.6244 -2.7600 -1.3134
   67SAPC   H2S 5579   1.661   6.799   2.897  3.4276 -0.9394  0.5111
   67SAPC    C3 5580   1.657   7.160   2.503 -0.0794 -0.2144  0.5816
   67SAPC    HX 5581   1.553   7.182   2.534  0.3485 -0.1575  2.0559
   67SAPC    HY 5582   1.676   7.175   2.394  1.2854  0.5233  0.8963
   67SAPC   O31 5583   1.752   7.246   2.572 -0.7240 -1.2878  0.3830
   67SAPC   C31 5584   1.719   7.373   2.600 -0.3243 -0.7093 -0.1323
   67SAPC   O32 5585   1.622   7.433   2.557  0.1754  0.3096  0.4280
   67SAPC   C32 5586   1.825   7.437   2.688 -0.0283  0.1680  0.3937
   67SAPC   H2X 5587   1.823   7.543   2.653  0.3480  0.5902  1.6039
   67SAPC   H2Y 5588   1.919   7.387   2.656 -0.6447 -0.2159 -0.9029
   67SAPC   C23 5589   1.776   6.945   3.016  0.9114  0.1359  0.4494
   67SAPC   H3R 5590   1.791   7.055   3.011  0.9229  0.1874  1.3976
   67SAPC   H3S 5591   1.870   6.892   2.991  1.5489  0.3992  2.1863
   67SAPC   C24 5592   1.725   6.922   3.163  0.3542 -0.5039 -0.2258
   67SAPC   H4R 5593   1.693   6.816   3.165 -1.4453  0.0235  1.4471
   67SAPC   H4S 5594   1.641   6.987   3.197  0.4700 -0.8765  0.7860
   67SAPC   C25 5595   1.849   6.932   3.253  0.0230  0.1594  0.1839
   67SAPC   H5R 5596   1.943   6.894   3.210 -0.6799 -0.3448 -0.9327
   67SAPC   C26 5597   1.840   6.957   3.383  0.4224 -0.4512  0.2551
   67SAPC   H6R 5598   1.932   6.950   3.444  0.9356  1.2487 -0.2735
   67SAPC   C27 5599   1.709   6.977   3.460 -0.0355  0.1281  0.1241
   67SAPC   H7R 5600   1.614   6.966   3.402  0.9885  1.9310 -2.0178
   67SAPC   H7S 5601   1.706   7.085   3.485 -1.5505  1.2303 -3.9709
   67SAPC   C28 5602   1.696   6.886   3.578 -0.2098 -0.3830 -1.2484
   67SAPC   H8R 5603   1.646   6.790   3.560 -0.6048 -0.8372  1.7651
   67SAPC   C29 5604   1.738   6.915   3.709  0.7001 -0.2241 -0.0103
   67SAPC   H9R 5605   1.720   6.840   3.788 -2.4756  0.6371  0.2400
   67SAPC  C210 5606   1.800   7.048   3.751 -0.4548  0.3446  0.2703
   67SAPC  H10R 5607   1.750   7.125   3.688  0.4617 -0.1459 -1.1025
   67SAPC  H10S 5608   1.904   7.052   3.712 -0.8143  3.1828 -0.6413
   67SAPC  C211 5609   1.795   7.066   3.899 -0.4172 -0.2237  0.0600
   67SAPC  H11R 5610   1.726   6.998   3.952 -0.1755  0.6144  1.4969
   67SAPC  C212 5611   1.883   7.128   3.974 -0.4643 -0.5607 -0.3173
   67SAPC  H12R 5612   1.877   7.137   4.084  1.2670 -2.1018 -0.0344
   67SAPC  C213 5613   1.998   7.207   3.924 -1.0692 -0.0665  0.1192
   67SAPC  H13R 5614   1.991   7.315   3.950  0.1978  0.2208 -0.6268
   67SAPC  H13S 5615   1.997   7.216   3.813 -1.3790 -0.2788  0.1041
   67SAPC  C214 5616   2.129   7.158   3.979  0.3957  0.3843 -0.1273
   67SAPC  H14R 5617   2.181   7.088   3.912  1.6449  1.5535 -0.4381
   67SAPC  C215 5618   2.194   7.190   4.094 -0.1963  0.5598 -0.8259
   67SAPC  H15R 5619   2.292   7.141   4.102 -1.0544 -1.0703  0.1062
   67SAPC  C216 5620   2.138   7.285   4.200 -0.2295  0.2841  0.8471
   67SAPC  H16R 5621   2.031   7.299   4.176  0.2924 -0.3018 -2.2849
   67SAPC  H16S 5622   2.180   7.386   4.179  2.6082 -1.0775 -0.5997
   67SAPC  C217 5623   2.149   7.241   4.345 -0.1986 -0.0123  0.0462
   67SAPC  H17R 5624   2.250   7.197   4.358  0.5112  1.1660 -1.1931
   67SAPC  H17S 5625   2.071   7.165   4.364  0.9454 -0.7679  2.1151
   67SAPC  C218 5626   2.139   7.365   4.443 -0.0174 -0.0027  0.6628
   67SAPC  H18R 5627   2.116   7.320   4.542  0.5120 -3.3855 -0.6163
   67SAPC  H18S 5628   2.039   7.408   4.418 -1.1304 -1.7324  1.9832
   67SAPC  C219 5629   2.253   7.461   4.443 -0.1623 -0.2591  0.4769
   67SAPC  H19R 5630   2.230   7.515   4.348  0.8541  0.8804  0.8390
   67SAPC  H19S 5631   2.346   7.403   4.424  0.0922 -0.9540  3.3792
   67SAPC  C220 5632   2.267   7.563   4.555  0.6200 -0.1443  0.0944
   67SAPC  H20R 5633   2.364   7.617   4.554  0.6648 -0.2270 -0.2771
   67SAPC  H20S 5634   2.248   7.509   4.650  0.0107 -2.3808 -1.2148
   67SAPC  H20T 5635   2.187   7.638   4.537  1.3473  0.5525 -0.2861
   67SAPC   C33 5636   1.815   7.418   2.840  0.1597  0.0379  0.2256
   67SAPC   H3X 5637   1.807   7.311   2.867  2.2294  0.2112  1.8093
   67SAPC   H3Y 5638   1.722   7.462   2.882 -0.7802 -1.2264 -0.4803
   67SAPC   C34 5639   1.928   7.476   2.920  0.2605  0.2327 -1.1032
   67SAPC   H4X 5640   1.958   7.577   2.885 -0.8743  1.1935  0.5803
   67SAPC   H4Y 5641   2.020   7.416   2.904 -0.1490 -1.3633  1.8670
   67SAPC   C35 5642   1.899   7.478   3.071 -0.8295 -0.2135  0.4173
   67SAPC   H5X 5643   1.816   7.551   3.083 -0.2646  0.2713  1.5564
   67SAPC   H5Y 5644   1.978   7.529   3.130 -0.4344  1.5236 -1.5093
   67SAPC   C36 5645   1.867   7.350   3.148  0.2429  0.0219 -0.9047
   67SAPC   H6X 5646   1.931   7.272   3.102  1.4845 -1.9987  3.6879
   67SAPC   H6Y 5647   1.768   7.318   3.109  0.3612 -0.2907 -0.9500
   67SAPC   C37 5648   1.873   7.359   3.298 -0.0184  0.1517  0.6245
   67SAPC   H7X 5649   1.964   7.410   3.334 -0.5598  0.4467  1.6262
   67SAPC   H7Y 5650   1.880   7.253   3.331 -2.5171  0.2071  1.5828
   67SAPC   C38 5651   1.748   7.412   3.375  0.4345  0.2625 -0.0802
   67SAPC   H8X 5652   1.660   7.348   3.353  1.8966 -1.0804 -2.3601
   67SAPC   H8Y 5653   1.729   7.515   3.339 -1.9513 -0.4959 -1.1989
   67SAPC   C39 5654   1.756   7.405   3.530 -0.4865  0.6995 -1.0682
   67SAPC   H9X 5655   1.825   7.485   3.562  0.4895  0.4929 -2.5370
   67SAPC   H9Y 5656   1.804   7.309   3.560 -2.8173  0.1672  1.2936
   67SAPC  C310 5657   1.617   7.394   3.590  0.2537  0.0953  0.0139
   67SAPC  H10X 5658   1.562   7.311   3.541 -1.2690  0.1894  1.5125
   67SAPC  H10Y 5659   1.565   7.484   3.552 -0.1725  0.1919  0.8045
   67SAPC  C311 5660   1.626   7.384   3.742 -0.1865  0.2613 -0.4716
   67SAPC  H11X 5661   1.640   7.490   3.774 -0.7458  1.3743 -3.5595
   67SAPC  H11Y 5662   1.717   7.332   3.779 -1.3855 -0.5944  1.4606
   67SAPC  C312 5663   1.509   7.322   3.822 -0.4107 -0.1813 -0.3732
   67SAPC  H12X 5664   1.543   7.284   3.920 -0.4348  0.1858 -0.2192
   67SAPC  H12Y 5665   1.469   7.235   3.766 -0.2080 -0.8337  0.4763
   67SAPC  C313 5666   1.389   7.426   3.846 -0.2395  0.5077  0.4534
   67SAPC  H13X 5667   1.306   7.367   3.892  1.0579 -2.3871 -0.6357
   67SAPC  H13Y 5668   1.355   7.466   3.749 -1.3541 -1.4155 -0.0144
   67SAPC  C314 5669   1.425   7.543   3.936 -0.3998 -0.1547  0.2170
   67SAPC  H14X 5670   1.501   7.613   3.897 -0.1468 -0.0608  0.8587
   67SAPC  H14Y 5671   1.471   7.509   4.032  0.4505  2.3509  0.7764
   67SAPC  C315 5672   1.307   7.633   3.963 -0.0918  0.5984  0.6913
   67SAPC  H15X 5673   1.220   7.576   4.001 -0.6503  1.0789  0.1594
   67SAPC  H15Y 5674   1.266   7.675   3.869 -1.6926 -0.9627  0.6346
   67SAPC  C316 5675   1.350   7.743   4.066  0.1659  0.7020  0.0602
   67SAPC  H16X 5676   1.442   7.786   4.021  1.0264 -1.1530 -0.0321
   67SAPC  H16Y 5677   1.375   7.695   4.163 -0.2235  0.8719  0.2475
   67SAPC  C317 5678   1.243   7.855   4.091  0.4146  0.6611 -0.5860
   67SAPC  H17X 5679   1.166   7.818   4.161 -0.1717 -0.2486 -1.6809
   67SAPC  H17Y 5680   1.200   7.875   3.990  4.5810 -1.2245 -3.0138
   67SAPC  C318 5681   1.306   7.987   4.129  0.1948  0.0572 -0.5353
   67SAPC  H18X 5682   1.331   7.989   4.237 -1.2161  1.0932 -0.1949
   67SAPC  H18Y 5683   1.233   8.071   4.125 -1.6249 -1.4530 -0.8013
   67SAPC  H18Z 5684   1.391   8.003   4.059  1.2159  0.2236  0.7023
   68SAPC     N 5685   3.424   1.757   2.171 -0.4671  0.1915 -0.0146
   68SAPC   C12 5686   3.372   1.674   2.287  0.5534  0.3318  0.0319
   68SAPC  H12A 5687   3.286   1.725   2.327 -0.2041 -2.8746  2.9618
   68SAPC  H12B 5688   3.449   1.665   2.362  1.2510  1.6787 -0.4930
   68SAPC   C13 5689   3.567   1.719   2.140 -0.5519  0.0395  0.5670
   68SAPC  H13A 5690   3.632   1.755   2.218  0.3069  1.1864 -0.6337
   68SAPC  H13B 5691   3.573   1.614   2.117 -1.1576  0.5891 -2.5206
   68SAPC  H13C 5692   3.601   1.767   2.049 -1.0276 -1.0722 -0.2147
   68SAPC   C14 5693   3.337   1.751   2.047  0.4036  0.8505  0.1916
   68SAPC  H14A 5694   3.335   1.650   2.010 -0.5485  1.6713 -2.1714
   68SAPC  H14B 5695   3.239   1.789   2.072  0.5333 -0.3803  2.9826
   68SAPC  H14C 5696   3.375   1.808   1.964  2.4900  0.8001  1.0622
   68SAPC   C15 5697   3.431   1.904   2.217 -0.3866  0.3494  0.1593
   68SAPC  H15A 5698   3.508   1.911   2.292  0.4521  1.2516 -0.7667
   68SAPC  H15B 5699   3.464   1.963   2.133  0.1112  0.6294  0.5466
   68SAPC  H15C 5700   3.335   1.939   2.251 -1.1550  1.9046 -3.2812
   68SAPC   C11 5701   3.325   1.526   2.259 -0.1408  0.1779  0.1375
   68SAPC  H11A 5702   3.240   1.519   2.188 -0.5158 -1.8332  0.7270
   68SAPC  H11B 5703   3.284   1.473   2.347 -0.2725 -2.3595 -1.3345
   68SAPC     P 5704   3.521   1.344   2.308  0.1102 -0.1800  0.0258
   68SAPC   O13 5705   3.475   1.210   2.267  0.0358  0.5789  0.4477
   68SAPC   O14 5706   3.665   1.369   2.302 -0.2739 -0.0662 -0.1325
   68SAPC   O12 5707   3.442   1.449   2.212  0.3923 -0.3231  0.5381
   68SAPC   O11 5708   3.474   1.396   2.452 -0.1271 -0.0677  0.1313
   68SAPC    C1 5709   3.507   1.305   2.557 -0.1387  0.1036  0.1502
   68SAPC    HA 5710   3.567   1.214   2.533 -1.6528 -2.0773  3.8015
   68SAPC    HB 5711   3.580   1.354   2.626 -1.6112 -0.9234  2.5762
   68SAPC    C2 5712   3.376   1.271   2.633 -0.2609 -0.5526 -0.0235
   68SAPC    HS 5713   3.294   1.255   2.559 -1.2234  0.9292  0.6823
   68SAPC   O21 5714   3.341   1.389   2.716  0.1620  0.0763 -0.2175
   68SAPC   C21 5715   3.216   1.376   2.773 -0.2743 -0.0993  0.1149
   68SAPC   O22 5716   3.141   1.291   2.748 -0.5920 -0.6187 -0.7508
   68SAPC   C22 5717   3.183   1.499   2.857 -0.5843 -0.5464  0.8609
   68SAPC   H2R 5718   3.251   1.513   2.943  4.1753 -2.4738 -2.1737
   68SAPC   H2S 5719   3.207   1.586   2.792  1.1345 -0.9414  0.9290
   68SAPC    C3 5720   3.399   1.142   2.723 -0.7822  0.1000 -0.6512
   68SAPC    HX 5721   3.445   1.067   2.655  2.0577  1.0648  0.1073
   68SAPC    HY 5722   3.304   1.092   2.752  0.0264 -0.9006  0.3874
   68SAPC   O31 5723   3.488   1.175   2.837  0.1473  0.8516 -0.0471
   68SAPC   C31 5724   3.609   1.133   2.846 -0.1023 -0.0880  0.3126
   68SAPC   O32 5725   3.666   1.058   2.767  0.2343  0.0739  0.0314
   68SAPC   C32 5726   3.680   1.201   2.967  0.0840 -0.0062  0.3240
   68SAPC   H2X 5727   3.597   1.248   3.025 -1.2019 -2.6606  0.7686
   68SAPC   H2Y 5728   3.754   1.274   2.930 -0.4302 -0.4755 -1.7492
   68SAPC   C23 5729   3.026   1.519   2.884  0.1248 -0.5676  0.7110
   68SAPC   H3R 5730   2.969   1.508   2.789 -0.2493 -2.5496  1.1060
   68SAPC   H3S 5731   3.030   1.625   2.915  2.3256 -0.2486 -0.4820
   68SAPC   C24 5732   2.974   1.428   2.995  0.3825  0.4062  0.4942
   68SAPC   H4R 5733   3.041   1.435   3.084  0.3835 -2.1897  0.7771
   68SAPC   H4S 5734   2.971   1.321   2.963 -0.0998  0.9078 -1.2779
   68SAPC   C25 5735   2.836   1.473   3.044  0.3459  0.4339  0.4946
   68SAPC   H5R 5736   2.803   1.569   3.002 -3.3588 -0.4726  0.9165
   68SAPC   C26 5737   2.762   1.422   3.144  0.7236 -0.5382  0.0930
   68SAPC   H6R 5738   2.661   1.461   3.159 -0.2168 -2.5447 -0.6526
   68SAPC   C27 5739   2.791   1.300   3.225  0.5903  0.4186  0.1354
   68SAPC   H7R 5740   2.872   1.245   3.173  0.9173  1.1494 -0.1304
   68SAPC   H7S 5741   2.699   1.239   3.212  2.6107 -2.7300 -0.4628
   68SAPC   C28 5742   2.826   1.310   3.372 -0.7230 -0.8210  0.2482
   68SAPC   H8R 5743   2.788   1.406   3.409 -0.7255 -0.1284 -1.4489
   68SAPC   C29 5744   2.916   1.240   3.447  0.3859 -0.2632  0.1939
   68SAPC   H9R 5745   2.922   1.249   3.557 -1.0526  0.1370  0.2606
   68SAPC  C210 5746   2.994   1.128   3.381  0.0783  0.3385  0.1213
   68SAPC  H10R 5747   2.939   1.087   3.294  1.1005  0.4830 -0.6101
   68SAPC  H10S 5748   3.000   1.042   3.451 -1.4364  1.3891  1.6223
   68SAPC  C211 5749   3.137   1.156   3.332  0.4232  0.6500 -0.0841
   68SAPC  H11R 5750   3.178   1.249   3.374 -0.1920 -0.0134  2.0984
   68SAPC  C212 5751   3.206   1.084   3.242  0.3754 -0.3427 -0.1680
   68SAPC  H12R 5752   3.306   1.115   3.208  0.1380 -0.1401 -0.6910
   68SAPC  C213 5753   3.151   0.955   3.175  0.3445  0.1037 -0.3911
   68SAPC  H13R 5754   3.041   0.967   3.170  0.5622  2.4275 -0.6475
   68SAPC  H13S 5755   3.177   0.876   3.249  0.9585  2.6135  2.2499
   68SAPC  C214 5756   3.205   0.926   3.033  0.4256 -0.6769  0.4277
   68SAPC  H14R 5757   3.179   0.998   2.954 -1.1047 -0.5574  1.0058
   68SAPC  C215 5758   3.270   0.813   2.996  0.1853 -0.3474 -0.4131
   68SAPC  H15R 5759   3.298   0.792   2.892  1.1076 -3.5911  0.3723
   68SAPC  C216 5760   3.302   0.694   3.091  0.3151  0.4196  0.4109
   68SAPC  H16R 5761   3.273   0.710   3.197  0.8191 -1.8002  0.9370
   68SAPC  H16S 5762   3.411   0.678   3.082  0.3137  0.4727  0.2871
   68SAPC  C217 5763   3.238   0.556   3.054  1.0047 -0.3842 -0.8848
   68SAPC  H17R 5764   3.293   0.513   2.967 -1.3370 -3.7999 -0.8944
   68SAPC  H17S 5765   3.134   0.576   3.021  1.4777  0.6824 -1.8068
   68SAPC  C218 5766   3.241   0.460   3.172  0.0550  0.2270  0.2627
   68SAPC  H18R 5767   3.202   0.512   3.262 -0.6154  0.6872 -0.2790
   68SAPC  H18S 5768   3.340   0.418   3.200  0.9356  0.5560 -2.0647
   68SAPC  C219 5769   3.167   0.334   3.144 -0.7429  0.5923 -0.0496
   68SAPC  H19R 5770   3.150   0.279   3.239 -2.6949  1.6202  0.2539
   68SAPC  H19S 5771   3.240   0.263   3.100  2.1982  4.1272 -1.3418
   68SAPC  C220 5772   3.041   0.338   3.075  0.8157  0.2679  0.0601
   68SAPC  H20R 5773   2.982   0.407   3.138  0.3205 -0.4187  0.3599
   68SAPC  H20S 5774   3.012   0.231   3.067  3.1449 -0.3427 -1.1626
   68SAPC  H20T 5775   3.041   0.380   2.972  2.0081 -0.4428 -0.2545
   68SAPC   C33 5776   3.761   1.098   3.040 -0.9055 -0.2364  0.6017
   68SAPC   H3X 5777   3.832   1.159   3.100 -2.3345  1.3516  0.7364
   68SAPC   H3Y 5778   3.824   1.043   2.967 -2.3987  0.0022 -0.9354
   68SAPC   C34 5779   3.687   1.006   3.132  0.4973  0.4210  0.4562
   68SAPC   H4X 5780   3.751   0.929   3.180 -0.9071 -1.8357 -1.0523
   68SAPC   H4Y 5781   3.617   0.942   3.074  1.1344  1.5079 -1.6107
   68SAPC   C35 5782   3.588   1.074   3.230 -0.0878 -0.2259 -0.1380
   68SAPC   H5X 5783   3.543   0.996   3.297  0.6040  0.9407  1.7703
   68SAPC   H5Y 5784   3.512   1.117   3.162  1.2447  0.6148 -1.1341
   68SAPC   C36 5785   3.636   1.185   3.325 -0.0665 -0.1166  0.2412
   68SAPC   H6X 5786   3.683   1.267   3.267  2.2578 -1.8165 -0.4239
   68SAPC   H6Y 5787   3.710   1.153   3.402 -0.1502 -0.2929  0.2487
   68SAPC   C37 5788   3.527   1.240   3.422  0.1533  0.2129 -0.5297
   68SAPC   H7X 5789   3.430   1.253   3.369  0.9115  0.6641 -1.8418
   68SAPC   H7Y 5790   3.552   1.340   3.463  0.8981 -0.6344  1.1939
   68SAPC   C38 5791   3.499   1.138   3.532 -0.0860 -0.4746 -0.1000
   68SAPC   H8X 5792   3.591   1.111   3.590  0.9048  0.1725 -1.3174
   68SAPC   H8Y 5793   3.457   1.045   3.490 -1.2074 -0.5369  1.0837
   68SAPC   C39 5794   3.396   1.187   3.632  0.6999  0.3858  0.2024
   68SAPC   H9X 5795   3.294   1.175   3.591  0.9311 -0.3662 -0.1635
   68SAPC   H9Y 5796   3.407   1.298   3.639  0.1775  0.3960  0.9372
   68SAPC  C310 5797   3.397   1.127   3.770 -0.5386 -0.5339 -0.1160
   68SAPC  H10X 5798   3.495   1.164   3.805 -0.7153  1.6299 -1.6569
   68SAPC  H10Y 5799   3.404   1.017   3.784  0.1484 -0.3974  0.6663
   68SAPC  C311 5800   3.282   1.189   3.856  0.2292  0.0798 -0.0597
   68SAPC  H11X 5801   3.222   1.268   3.808 -2.5230 -1.7611  0.1164
   68SAPC  H11Y 5802   3.314   1.225   3.956  2.4052 -1.0913 -0.2711
   68SAPC  C312 5803   3.166   1.089   3.886  0.4799  0.1852 -0.0386
   68SAPC  H12X 5804   3.125   1.056   3.789  3.2349 -0.3551 -1.0892
   68SAPC  H12Y 5805   3.085   1.146   3.936 -0.1823  0.2372 -1.1375
   68SAPC  C313 5806   3.212   0.979   3.978  0.5179  0.1474  0.2270
   68SAPC  H13X 5807   3.265   1.036   4.057  0.6827 -1.7519  1.5664
   68SAPC  H13Y 5808   3.286   0.912   3.929  1.8504  0.8207  1.2437
   68SAPC  C314 5809   3.093   0.913   4.047 -0.1479  0.9064 -0.3363
   68SAPC  H14X 5810   3.008   0.886   3.981  0.0494  1.2613 -0.7458
   68SAPC  H14Y 5811   3.050   0.982   4.122  0.0001  0.8442 -0.1951
   68SAPC  C315 5812   3.143   0.778   4.118  0.4970 -0.3240  0.4862
   68SAPC  H15X 5813   3.231   0.803   4.181 -0.8748  1.6295  1.7468
   68SAPC  H15Y 5814   3.170   0.698   4.045  0.4705 -1.1747  1.3834
   68SAPC  C316 5815   3.037   0.710   4.205 -0.7489 -0.1439  0.3230
   68SAPC  H16X 5816   2.944   0.698   4.145 -1.4035  0.9487  1.0871
   68SAPC  H16Y 5817   3.016   0.782   4.286  0.1447 -1.4708  1.7851
   68SAPC  C317 5818   3.083   0.585   4.283 -0.0272 -0.0626 -0.2079
   68SAPC  H17X 5819   3.176   0.601   4.340  0.5581  0.5181 -1.2916
   68SAPC  H17Y 5820   3.100   0.495   4.221 -1.3281 -0.2497 -0.3296
   68SAPC  C318 5821   2.987   0.546   4.393 -0.2960  0.3965  0.1537
   68SAPC  H18X 5822   2.890   0.502   4.361 -0.3852 -0.1003  1.0788
   68SAPC  H18Y 5823   2.971   0.627   4.467 -1.1445 -0.0669  0.4873
   68SAPC  H18Z 5824   3.037   0.466   4.451  0.4473  0.2621 -0.6470
   69SAPC     N 5825   4.736   3.766   2.450  0.2739  0.0947 -1.0042
   69SAPC   C12 5826   4.692   3.628   2.494 -0.3666  0.0808 -0.0269
   69SAPC  H12A 5827   4.726   3.557   2.420  2.2157  1.5754 -0.3778
   69SAPC  H12B 5828   4.585   3.610   2.495 -0.3963  0.1372  2.1692
   69SAPC   C13 5829   4.889   3.780   2.439 -0.0436 -0.4031 -0.7980
   69SAPC  H13A 5830   4.931   3.768   2.538 -2.7263 -1.8344  0.2820
   69SAPC  H13B 5831   4.929   3.707   2.369 -2.1062  0.3220 -2.8512
   69SAPC  H13C 5832   4.916   3.879   2.405  1.1104  0.2061  1.7123
   69SAPC   C14 5833   4.673   3.802   2.318 -0.4984 -1.0562  0.2072
   69SAPC  H14A 5834   4.707   3.901   2.289 -0.7008 -1.7322 -2.5951
   69SAPC  H14B 5835   4.712   3.738   2.240  0.3393 -1.3894  0.8954
   69SAPC  H14C 5836   4.566   3.787   2.308 -0.1463 -3.0367 -1.2173
   69SAPC   C15 5837   4.696   3.863   2.562  0.5861  0.5256  0.3084
   69SAPC  H15A 5838   4.718   3.822   2.660 -0.7674  0.5944  0.6584
   69SAPC  H15B 5839   4.741   3.956   2.534  0.9758 -0.3353 -2.1694
   69SAPC  H15C 5840   4.589   3.877   2.557  0.6656  0.6612 -2.6904
   69SAPC   C11 5841   4.748   3.572   2.633 -0.0788  0.0022 -0.1595
   69SAPC  H11A 5842   4.695   3.484   2.678 -1.5068  1.3962  1.0346
   69SAPC  H11B 5843   4.724   3.638   2.719 -1.9213 -0.1442 -0.5042
   69SAPC     P 5844   4.924   3.399   2.554  0.0206 -0.1408  0.2927
   69SAPC   O13 5845   4.816   3.357   2.461 -0.0439 -0.0317  0.3847
   69SAPC   O14 5846   5.057   3.407   2.499 -0.0694 -0.4267 -0.2423
   69SAPC   O12 5847   4.887   3.538   2.625 -0.0082  0.4909  0.1992
   69SAPC   O11 5848   4.927   3.301   2.674 -0.0490 -0.2116  0.2078
   69SAPC    C1 5849   4.952   3.337   2.806  0.1527 -0.0786  0.4698
   69SAPC    HA 5850   5.034   3.411   2.816  0.2373  0.4730 -3.0776
   69SAPC    HB 5851   4.867   3.394   2.849  1.1691  0.7292  1.4694
   69SAPC    C2 5852   4.978   3.203   2.882 -0.4399  0.3215 -1.6522
   69SAPC    HS 5853   4.899   3.127   2.866 -1.5300  0.3112  2.4698
   69SAPC   O21 5854   4.988   3.225   3.025  0.1895  0.0539  0.3082
   69SAPC   C21 5855   4.967   3.120   3.102  0.7178  0.2495  0.2329
   69SAPC   O22 5856   4.919   3.013   3.067  0.1019  0.0797 -0.0407
   69SAPC   C22 5857   5.011   3.156   3.242  0.5580  0.0859 -0.5585
   69SAPC   H2R 5858   5.121   3.168   3.250  0.7883 -1.8958 -0.1766
   69SAPC   H2S 5859   4.944   3.237   3.277 -0.5491 -0.4068 -1.4666
   69SAPC    C3 5860   5.104   3.150   2.823  0.0329 -0.8173 -0.2292
   69SAPC    HX 5861   5.170   3.238   2.808 -0.4939 -0.4200 -0.2397
   69SAPC    HY 5862   5.080   3.116   2.720 -0.9569 -0.5253 -0.1028
   69SAPC   O31 5863   5.174   3.057   2.903 -0.6076  0.8170 -0.7988
   69SAPC   C31 5864   5.171   2.930   2.865  0.3433 -0.1743  0.5585
   69SAPC   O32 5865   5.104   2.884   2.773  0.4497  0.4632 -0.1422
   69SAPC   C32 5866   5.257   2.842   2.953 -0.2044 -0.3941 -0.4091
   69SAPC   H2X 5867   5.360   2.868   2.922  0.0209 -0.5708  0.1836
   69SAPC   H2Y 5868   5.251   2.734   2.928 -2.7895 -0.2392 -0.7381
   69SAPC   C23 5869   4.982   3.049   3.346 -0.6299 -0.0654 -0.1806
   69SAPC   H3R 5870   5.056   2.967   3.348  0.5348  0.9469 -0.2382
   69SAPC   H3S 5871   4.887   3.004   3.310  0.0715  0.6366 -3.1407
   69SAPC   C24 5872   4.978   3.092   3.495 -0.0035  0.5321 -0.3049
   69SAPC   H4R 5873   4.941   3.003   3.550 -1.6835  2.6499  2.2505
   69SAPC   H4S 5874   4.900   3.171   3.510  0.2466  0.9452 -1.0957
   69SAPC   C25 5875   5.101   3.158   3.558  0.6645 -0.1709 -0.2396
   69SAPC   H5R 5876   5.136   3.255   3.518 -0.6041 -0.0594 -1.1533
   69SAPC   C26 5877   5.160   3.099   3.662  0.1919  0.5259 -0.2612
   69SAPC   H6R 5878   5.250   3.140   3.711  1.0464  0.5162 -1.7530
   69SAPC   C27 5879   5.136   2.960   3.733  0.3679 -0.8330  0.8456
   69SAPC   H7R 5880   5.231   2.907   3.756  0.9857  1.0458  3.0199
   69SAPC   H7S 5881   5.073   2.902   3.663 -2.5934  2.1389  0.7842
   69SAPC   C28 5882   5.051   2.979   3.862 -0.4014  0.1004  0.1974
   69SAPC   H8R 5883   4.944   3.003   3.848 -0.5749 -1.1659 -0.9750
   69SAPC   C29 5884   5.097   2.989   3.989 -0.0595  1.1890 -0.0799
   69SAPC   H9R 5885   5.033   2.992   4.078  0.3184  1.2980  0.1905
   69SAPC  C210 5886   5.236   2.964   4.028 -0.3309 -0.5458  0.1822
   69SAPC  H10R 5887   5.315   2.974   3.951 -2.2098  0.0426 -1.7587
   69SAPC  H10S 5888   5.240   2.855   4.051  3.0955 -0.6127 -0.3044
   69SAPC  C211 5889   5.281   3.045   4.149  0.0087  0.2715 -0.2747
   69SAPC  H11R 5890   5.255   3.005   4.249  1.7441  0.1732  0.1736
   69SAPC  C212 5891   5.355   3.154   4.153 -0.1198 -0.4688  0.0466
   69SAPC  H12R 5892   5.370   3.206   4.249 -0.2620  0.7514 -0.5771
   69SAPC  C213 5893   5.414   3.225   4.032  0.3455  0.1724 -0.0031
   69SAPC  H13R 5894   5.373   3.195   3.933  1.7095  1.3323 -0.9663
   69SAPC  H13S 5895   5.522   3.204   4.018 -0.0499 -0.6881 -2.1457
   69SAPC  C214 5896   5.392   3.376   4.060 -0.2703  0.0567 -0.1353
   69SAPC  H14R 5897   5.295   3.408   4.019 -0.5468  1.4144  1.4485
   69SAPC  C215 5898   5.468   3.466   4.123  0.4407  0.2471  0.1077
   69SAPC  H15R 5899   5.443   3.573   4.119  1.0384  0.3588 -0.6398
   69SAPC  C216 5900   5.613   3.441   4.160 -0.0770  0.4222 -0.0414
   69SAPC  H16R 5901   5.651   3.545   4.169  1.9593 -0.2333 -0.4417
   69SAPC  H16S 5902   5.674   3.398   4.077 -2.4230 -1.2700 -1.0211
   69SAPC  C217 5903   5.623   3.358   4.287 -0.3653 -0.1675 -0.5077
   69SAPC  H17R 5904   5.724   3.329   4.323 -0.7902  1.9835  2.9588
   69SAPC  H17S 5905   5.572   3.260   4.273 -0.5485 -0.0023 -0.9936
   69SAPC  C218 5906   5.561   3.432   4.406 -0.2770  0.4301  0.4366
   69SAPC  H18R 5907   5.453   3.442   4.380 -0.6878 -3.7148 -0.2320
   69SAPC  H18S 5908   5.609   3.531   4.419 -0.5987  0.6143  0.2294
   69SAPC  C219 5909   5.572   3.343   4.532  0.7292 -0.5535 -0.3140
   69SAPC  H19R 5910   5.527   3.243   4.517  0.6463 -0.2739 -2.2014
   69SAPC  H19S 5911   5.505   3.394   4.604  0.2402 -2.0371  0.3110
   69SAPC  C220 5912   5.708   3.343   4.610  0.2849 -0.0682 -0.3753
   69SAPC  H20R 5913   5.680   3.289   4.702 -1.7998  1.0070 -0.3279
   69SAPC  H20S 5914   5.740   3.448   4.626  3.0917 -0.7095 -1.1354
   69SAPC  H20T 5915   5.786   3.298   4.545  0.5088 -0.0541 -0.1154
   69SAPC   C33 5916   5.245   2.886   3.100 -0.2777  0.3712  0.4170
   69SAPC   H3X 5917   5.142   2.862   3.135 -1.0032 -0.6440 -2.1902
   69SAPC   H3Y 5918   5.265   2.994   3.110 -2.4208  1.2908 -3.3204
   69SAPC   C34 5919   5.346   2.816   3.189 -0.3378  0.5843  0.3401
   69SAPC   H4X 5920   5.450   2.825   3.151 -0.2115  1.5574  0.8677
   69SAPC   H4Y 5921   5.320   2.708   3.185  0.0100  0.5306 -0.7563
   69SAPC   C35 5922   5.343   2.873   3.332 -0.2841  0.4262  0.6159
   69SAPC   H5X 5923   5.247   2.851   3.385 -1.7556  1.7825 -1.3323
   69SAPC   H5Y 5924   5.339   2.983   3.320  0.6012  0.3276 -0.7063
   69SAPC   C36 5925   5.471   2.841   3.407 -0.4623 -0.4712 -0.6009
   69SAPC   H6X 5926   5.561   2.869   3.347 -0.1429 -2.6744 -1.2650
   69SAPC   H6Y 5927   5.473   2.733   3.435 -0.7987 -0.1646  0.6781
   69SAPC   C37 5928   5.487   2.910   3.537 -0.2776 -0.1934  0.1761
   69SAPC   H7X 5929   5.396   2.886   3.594  0.4089 -0.6673  1.0935
   69SAPC   H7Y 5930   5.494   3.020   3.522  0.8923 -0.4016 -1.0756
   69SAPC   C38 5931   5.622   2.870   3.605  0.2731  0.0391  0.1531
   69SAPC   H8X 5932   5.705   2.931   3.564 -0.1376 -0.1368 -0.9646
   69SAPC   H8Y 5933   5.647   2.766   3.576 -1.5143 -0.1972 -0.7051
   69SAPC   C39 5934   5.608   2.872   3.753 -0.1781  0.3496 -0.3375
   69SAPC   H9X 5935   5.514   2.819   3.780 -1.5508  1.8895 -1.7841
   69SAPC   H9Y 5936   5.593   2.980   3.776 -0.5817  0.3555 -0.6198
   69SAPC  C310 5937   5.733   2.815   3.825  0.7796 -0.0031  0.3968
   69SAPC  H10X 5938   5.811   2.889   3.798 -1.5973  2.0794 -1.2051
   69SAPC  H10Y 5939   5.764   2.722   3.771  0.1241 -0.2373  0.4154
   69SAPC  C311 5940   5.713   2.772   3.973 -0.5612  0.0706 -0.7338
   69SAPC  H11X 5941   5.673   2.669   3.963 -0.0309 -0.4268  1.6861
   69SAPC  H11Y 5942   5.642   2.843   4.022  1.3975  0.2710  1.9946
   69SAPC  C312 5943   5.843   2.763   4.053 -0.0509  0.0458  0.0168
   69SAPC  H12X 5944   5.908   2.844   4.014  1.1787 -0.1920  1.4611
   69SAPC  H12Y 5945   5.891   2.665   4.030 -0.8144  0.4440 -4.0988
   69SAPC  C313 5946   5.823   2.798   4.206  0.0824  0.0889  0.7945
   69SAPC  H13X 5947   5.739   2.732   4.237  0.9543 -1.6496 -0.3451
   69SAPC  H13Y 5948   5.785   2.902   4.214 -0.0400  0.3601 -2.1410
   69SAPC  C314 5949   5.947   2.782   4.298 -0.2349  0.0385  0.1819
   69SAPC  H14X 5950   6.022   2.858   4.269 -1.2870  1.5488  1.2210
   69SAPC  H14Y 5951   5.991   2.681   4.284  2.5419  1.2763 -0.5492
   69SAPC  C315 5952   5.905   2.801   4.444  0.8034  0.3183 -0.2461
   69SAPC  H15X 5953   5.990   2.801   4.515  0.2370 -0.5587  0.4603
   69SAPC  H15Y 5954   5.846   2.713   4.477 -0.5685  1.8300  1.6113
   69SAPC  C316 5955   5.834   2.937   4.471 -0.1045  0.3521 -0.3532
   69SAPC  H16X 5956   5.729   2.930   4.437 -0.7099  1.4814  1.1330
   69SAPC  H16Y 5957   5.885   3.024   4.423 -0.1209  0.4116 -0.2634
   69SAPC  C317 5958   5.819   2.959   4.625 -0.2169  0.5892  0.1977
   69SAPC  H17X 5959   5.807   2.858   4.668  1.4174 -1.0059 -2.7844
   69SAPC  H17Y 5960   5.732   3.026   4.643 -0.4678  0.7572 -1.4711
   69SAPC  C318 5961   5.948   3.023   4.691  0.7184  0.1007 -0.1014
   69SAPC  H18X 5962   6.024   2.945   4.714  1.6411  0.9715 -0.1209
   69SAPC  H18Y 5963   5.914   3.069   4.787  1.1193  0.3667 -0.0823
   69SAPC  H18Z 5964   5.986   3.113   4.638 -0.7125  1.3233  0.8495
   70SAPC     N 5965   4.290   2.113   2.531 -0.7041  0.2355 -0.4329
   70SAPC   C12 5966   4.273   1.958   2.530  0.5159 -0.1364 -0.1214
   70SAPC  H12A 5967   4.233   1.917   2.621  2.1377 -3.7240 -0.8741
   70SAPC  H12B 5968   4.370   1.911   2.529  1.7479  2.1642  1.3670
   70SAPC   C13 5969   4.320   2.164   2.392  0.0321  0.3935  0.6166
   70SAPC  H13A 5970   4.408   2.113   2.357  0.5764  1.9460 -0.3889
   70SAPC  H13B 5971   4.236   2.149   2.324  0.7129 -1.8071  0.1962
   70SAPC  H13C 5972   4.346   2.268   2.397  2.9117 -0.2318  0.0248
   70SAPC   C14 5973   4.162   2.181   2.583  0.0954  0.7603 -1.1161
   70SAPC  H14A 5974   4.177   2.288   2.583  0.8473  0.7008  0.9527
   70SAPC  H14B 5975   4.079   2.147   2.523  0.4907 -1.6094 -0.4232
   70SAPC  H14C 5976   4.140   2.153   2.685 -0.5047  0.8347 -1.2187
   70SAPC   C15 5977   4.391   2.164   2.621 -0.2585  0.0950 -0.4093
   70SAPC  H15A 5978   4.480   2.103   2.620  0.8348  1.5734 -3.0199
   70SAPC  H15B 5979   4.414   2.267   2.595 -0.4675  0.7152  1.6779
   70SAPC  H15C 5980   4.349   2.159   2.721 -0.7187 -0.4116 -0.6241
   70SAPC   C11 5981   4.191   1.903   2.413 -0.1939  0.9981 -0.2315
   70SAPC  H11A 5982   4.247   1.902   2.317  1.6846 -0.7074  0.8008
   70SAPC  H11B 5983   4.103   1.962   2.381 -0.2213  0.2844 -1.5488
   70SAPC     P 5984   4.012   1.747   2.534 -0.7569 -0.2944 -0.1969
   70SAPC   O13 5985   3.898   1.810   2.460 -0.2448 -0.1466  0.0896
   70SAPC   O14 5986   4.007   1.609   2.577  0.3507 -0.2135 -0.0319
   70SAPC   O12 5987   4.137   1.771   2.446 -0.3216  0.4409  0.1180
   70SAPC   O11 5988   4.041   1.831   2.667  0.6814  0.0736 -0.8218
   70SAPC    C1 5989   3.953   1.809   2.780 -0.4203 -0.1709 -0.5278
   70SAPC    HA 5990   3.848   1.779   2.755  0.8216 -3.6694 -2.1926
   70SAPC    HB 5991   3.999   1.729   2.841  1.3338  0.7458 -0.5873
   70SAPC    C2 5992   3.964   1.941   2.867 -0.0752  0.1601 -0.4440
   70SAPC    HS 5993   4.073   1.964   2.861 -0.3325  1.1219 -2.2083
   70SAPC   O21 5994   3.926   1.922   3.001  0.4204 -0.4847  0.2694
   70SAPC   C21 5995   3.928   2.023   3.087  0.0506  0.0718  0.0552
   70SAPC   O22 5996   3.995   2.122   3.072  0.4331  0.6098  0.7334
   70SAPC   C22 5997   3.847   2.006   3.208 -0.3323  0.0293 -0.5629
   70SAPC   H2R 5998   3.738   1.994   3.189 -0.4825  0.2894  0.1187
   70SAPC   H2S 5999   3.887   1.917   3.261 -1.3890  0.3731  0.8678
   70SAPC    C3 6000   3.887   2.057   2.800 -0.1341  0.7851 -0.1459
   70SAPC    HX 6001   3.922   2.064   2.694 -2.4379 -2.6903 -1.2949
   70SAPC    HY 6002   3.912   2.149   2.857 -2.3679  0.4453  1.5046
   70SAPC   O31 6003   3.741   2.034   2.805  0.9837  0.2297  0.2082
   70SAPC   C31 6004   3.679   2.150   2.788 -0.0229 -0.4185  0.1728
   70SAPC   O32 6005   3.729   2.255   2.754  0.1344  0.0762 -0.3028
   70SAPC   C32 6006   3.531   2.150   2.822  0.3592  0.0323 -0.0979
   70SAPC   H2X 6007   3.505   2.052   2.866 -0.1594  0.6319  0.9672
   70SAPC   H2Y 6008   3.482   2.158   2.722 -1.2396 -0.0757  0.6462
   70SAPC   C23 6009   3.879   2.122   3.301 -0.6735  0.4114 -0.5603
   70SAPC   H3R 6010   3.831   2.215   3.264  1.9516  2.2925  0.4072
   70SAPC   H3S 6011   3.989   2.141   3.299 -0.8657  1.6043 -1.5692
   70SAPC   C24 6012   3.843   2.099   3.451 -0.2817  0.0773  0.3605
   70SAPC   H4R 6013   3.885   2.002   3.485  0.4196  0.3851  0.3849
   70SAPC   H4S 6014   3.733   2.084   3.449 -0.3604  0.6069  0.5978
   70SAPC   C25 6015   3.875   2.219   3.530 -0.6424  0.3667 -0.2848
   70SAPC   H5R 6016   3.890   2.317   3.483 -1.6777  1.4927  1.6194
   70SAPC   C26 6017   3.864   2.229   3.662 -0.0941 -0.2463 -0.5499
   70SAPC   H6R 6018   3.889   2.322   3.716  0.9095 -2.4451  3.1093
   70SAPC   C27 6019   3.824   2.117   3.758 -0.5980 -0.5915 -0.5360
   70SAPC   H7R 6020   3.900   2.112   3.840 -0.4508 -0.4008 -0.6596
   70SAPC   H7S 6021   3.819   2.017   3.710  0.1671 -1.6673  1.5002
   70SAPC   C28 6022   3.683   2.141   3.807 -0.4958 -0.0617  0.1826
   70SAPC   H8R 6023   3.597   2.131   3.739 -0.7407  1.4489  0.2363
   70SAPC   C29 6024   3.655   2.184   3.933 -0.1683  0.2706  0.3302
   70SAPC   H9R 6025   3.553   2.225   3.935  0.4799  1.9761  0.1120
   70SAPC  C210 6026   3.751   2.206   4.054  0.3964 -0.5184  0.2769
   70SAPC  H10R 6027   3.822   2.120   4.058  0.7649 -0.2018  3.8099
   70SAPC  H10S 6028   3.697   2.205   4.151  0.6831 -1.2937  0.4363
   70SAPC  C211 6029   3.841   2.332   4.047 -0.1531  0.1350  1.2360
   70SAPC  H11R 6030   3.883   2.334   3.945 -1.1508  0.7570  0.8232
   70SAPC  C212 6031   3.882   2.406   4.150 -0.4458  0.2841 -0.3869
   70SAPC  H12R 6032   3.940   2.498   4.133  0.2717 -0.0855  0.0006
   70SAPC  C213 6033   3.843   2.390   4.298 -0.3123  0.2173  0.0045
   70SAPC  H13R 6034   3.733   2.382   4.307 -0.2575 -1.9899 -0.5971
   70SAPC  H13S 6035   3.877   2.474   4.361 -0.7160  0.3898 -0.0058
   70SAPC  C214 6036   3.895   2.270   4.368  0.3053  0.2479 -0.4848
   70SAPC  H14R 6037   3.986   2.219   4.331  0.4587 -0.6870  1.0969
   70SAPC  C215 6038   3.843   2.226   4.486  0.1109 -0.1100 -0.1105
   70SAPC  H15R 6039   3.890   2.133   4.523 -0.5684 -1.3697 -2.2363
   70SAPC  C216 6040   3.720   2.264   4.566 -0.0797  0.7385 -0.9291
   70SAPC  H16R 6041   3.635   2.198   4.539 -0.4723  0.2748  1.2772
   70SAPC  H16S 6042   3.695   2.369   4.540  0.4693  0.9121 -0.7766
   70SAPC  C217 6043   3.747   2.247   4.717  0.3648  0.1239 -0.1752
   70SAPC  H17R 6044   3.655   2.279   4.770 -1.7974  0.8436 -4.0350
   70SAPC  H17S 6045   3.821   2.324   4.747 -0.4237  0.8975 -0.1583
   70SAPC  C218 6046   3.772   2.109   4.756  0.1856 -0.2479  0.3972
   70SAPC  H18R 6047   3.876   2.085   4.723  0.6518  2.7495 -0.6712
   70SAPC  H18S 6048   3.697   2.050   4.700  1.7419 -0.8601 -1.1282
   70SAPC  C219 6049   3.759   2.092   4.910 -0.5644 -0.0074  0.3458
   70SAPC  H19R 6050   3.661   2.132   4.942 -1.3863  0.3366 -2.3631
   70SAPC  H19S 6051   3.833   2.159   4.958 -0.5738  1.3548 -1.4359
   70SAPC  C220 6052   3.775   1.946   4.953  0.2559  0.0943 -0.2834
   70SAPC  H20R 6053   3.711   1.871   4.901 -2.3313  0.8970  1.4955
   70SAPC  H20S 6054   3.750   1.937   5.061 -2.4728  0.1244 -0.8393
   70SAPC  H20T 6055   3.882   1.921   4.942  0.3901  0.1591  0.7572
   70SAPC   C33 6056   3.487   2.267   2.913 -0.2227  0.0766  0.7930
   70SAPC   H3X 6057   3.378   2.269   2.895 -0.3249 -1.0586  1.2226
   70SAPC   H3Y 6058   3.525   2.370   2.893  2.0348 -0.8919 -0.1345
   70SAPC   C34 6059   3.522   2.219   3.057  0.2152 -0.6612 -1.1017
   70SAPC   H4X 6060   3.631   2.217   3.074  0.3033 -2.4624 -1.6819
   70SAPC   H4Y 6061   3.487   2.114   3.064  0.8889 -0.7698  1.9285
   70SAPC   C35 6062   3.462   2.315   3.160 -0.5259 -0.3218  0.3623
   70SAPC   H5X 6063   3.354   2.321   3.135 -0.4748  0.6109  0.3319
   70SAPC   H5Y 6064   3.500   2.414   3.126 -1.0080 -0.9653 -2.2973
   70SAPC   C36 6065   3.487   2.272   3.303  0.4766 -0.4783  0.1046
   70SAPC   H6X 6066   3.598   2.266   3.302  0.7652  2.6902 -2.3337
   70SAPC   H6Y 6067   3.453   2.167   3.317  2.3327 -0.8725  2.1361
   70SAPC   C37 6068   3.433   2.388   3.401 -0.5997 -0.2311  0.2230
   70SAPC   H7X 6069   3.487   2.481   3.373 -0.9625 -0.5740 -1.7613
   70SAPC   H7Y 6070   3.326   2.412   3.383 -0.4217 -0.6201 -1.6689
   70SAPC   C38 6071   3.457   2.355   3.550  0.0277  0.4144 -0.3145
   70SAPC   H8X 6072   3.554   2.308   3.579 -1.4151 -1.7973  1.2117
   70SAPC   H8Y 6073   3.370   2.291   3.577 -1.0023  1.6044 -0.7113
   70SAPC   C39 6074   3.443   2.491   3.626  0.4394 -0.1267  0.9726
   70SAPC   H9X 6075   3.345   2.536   3.598  1.0889  1.3214  0.9534
   70SAPC   H9Y 6076   3.532   2.549   3.595  0.6055 -0.2513  1.2134
   70SAPC  C310 6077   3.445   2.456   3.777  0.0835 -0.6040 -0.5643
   70SAPC  H10X 6078   3.545   2.422   3.811  0.7243 -0.3484 -2.0790
   70SAPC  H10Y 6079   3.371   2.381   3.811  1.1514 -1.0017  0.9656
   70SAPC  C311 6080   3.410   2.583   3.863  0.3011  0.2868  0.1245
   70SAPC  H11X 6081   3.300   2.596   3.849  0.1837  0.4528  1.1273
   70SAPC  H11Y 6082   3.467   2.668   3.819  0.7588 -1.2538 -2.4273
   70SAPC  C312 6083   3.447   2.545   4.009  0.0018  0.0390 -0.5676
   70SAPC  H12X 6084   3.558   2.545   4.024  0.3187 -0.4494 -2.6145
   70SAPC  H12Y 6085   3.405   2.446   4.037 -1.0999  0.9737  1.2810
   70SAPC  C313 6086   3.402   2.644   4.112 -0.1238 -0.0021  0.5859
   70SAPC  H13X 6087   3.444   2.744   4.087 -2.3116  0.5233 -1.3496
   70SAPC  H13Y 6088   3.427   2.611   4.215  0.1118  0.5340  0.7024
   70SAPC  C314 6089   3.245   2.650   4.112 -0.8350  0.2959 -0.3799
   70SAPC  H14X 6090   3.211   2.545   4.101  0.2215 -0.1905  0.7950
   70SAPC  H14Y 6091   3.215   2.699   4.017 -0.1162  0.7344 -0.3876
   70SAPC  C315 6092   3.186   2.729   4.234  0.3453  0.1740 -0.2374
   70SAPC  H15X 6093   3.167   2.834   4.205  2.1976  1.4199  2.6200
   70SAPC  H15Y 6094   3.258   2.719   4.318  0.7062 -0.5409 -0.6182
   70SAPC  C316 6095   3.057   2.655   4.282 -0.5337  0.4412  0.2313
   70SAPC  H16X 6096   3.076   2.582   4.362 -0.8338  0.1636  0.0517
   70SAPC  H16Y 6097   3.014   2.605   4.192 -1.9898 -0.2608  1.2835
   70SAPC  C317 6098   2.966   2.757   4.360  0.0231 -0.1710  1.5034
   70SAPC  H17X 6099   2.860   2.723   4.349 -0.7289  2.5378 -0.8247
   70SAPC  H17Y 6100   2.971   2.857   4.311  2.4486 -0.7822  0.3435
   70SAPC  C318 6101   2.994   2.780   4.506  0.1081 -0.5546 -0.5259
   70SAPC  H18X 6102   2.964   2.697   4.574 -0.9125 -0.5649 -0.9826
   70SAPC  H18Y 6103   2.939   2.868   4.545  1.0126  0.9355 -2.4539
   70SAPC  H18Z 6104   3.104   2.796   4.517  0.5929 -2.0337 -2.5600
   71SAPC     N 6105   3.725   0.122   2.268  0.4705  0.6362  0.1653
   71SAPC   C12 6106   3.829   0.155   2.374 -0.0165  0.1779 -0.3660
   71SAPC  H12A 6107   3.798   0.121   2.471 -0.8145  0.2101 -0.6064
   71SAPC  H12B 6108   3.831   0.262   2.387 -1.3179  0.4279 -1.8597
   71SAPC   C13 6109   3.699  -0.025   2.264 -0.2154 -1.2805 -0.5688
   71SAPC  H13A 6110   3.789  -0.073   2.231  2.5200 -0.1265  4.1911
   71SAPC  H13B 6111   3.678  -0.052   2.367  2.3702  0.7182  0.6153
   71SAPC  H13C 6112   3.624  -0.055   2.193 -0.8077  2.2703 -1.6849
   71SAPC   C14 6113   3.597   0.192   2.303  0.0929 -0.1498 -0.0137
   71SAPC  H14A 6114   3.564   0.161   2.401  1.3307  1.1876  0.8732
   71SAPC  H14B 6115   3.614   0.298   2.312 -0.0121 -0.2586  2.1949
   71SAPC  H14C 6116   3.522   0.183   2.226  1.0278  0.1989 -0.9906
   71SAPC   C15 6117   3.769   0.168   2.127 -0.1617  0.1304  0.3166
   71SAPC  H15A 6118   3.690   0.136   2.061 -0.0230 -1.6814  0.9655
   71SAPC  H15B 6119   3.751   0.274   2.119 -0.8156 -0.0954 -1.6118
   71SAPC  H15C 6120   3.865   0.139   2.086  1.5432  2.3161  2.3702
   71SAPC   C11 6121   3.979   0.111   2.347  0.1826 -0.7090  0.1227
   71SAPC  H11A 6122   3.983   0.011   2.298 -1.1821 -0.1041 -1.2962
   71SAPC  H11B 6123   4.033   0.113   2.445 -0.4212 -0.1655  0.4478
   71SAPC     P 6124   4.060   0.351   2.307 -0.2862  0.1450 -0.3922
   71SAPC   O13 6125   4.189   0.406   2.260 -0.0249 -0.0043 -0.2104
   71SAPC   O14 6126   3.943   0.416   2.255  0.3319  0.4364 -0.2739
   71SAPC   O12 6127   4.044   0.197   2.258 -0.6461  0.0217  0.3973
   71SAPC   O11 6128   4.051   0.354   2.465 -0.5634 -0.2719 -0.0725
   71SAPC    C1 6129   4.171   0.341   2.544 -0.2075  0.1004  0.5566
   71SAPC    HA 6130   4.238   0.263   2.503 -0.2406 -0.1349  0.9474
   71SAPC    HB 6131   4.228   0.436   2.532  2.0753 -1.2532  0.0415
   71SAPC    C2 6132   4.142   0.308   2.696  0.9574 -1.4867 -0.3729
   71SAPC    HS 6133   4.232   0.342   2.751  0.1341  1.8591 -0.9075
   71SAPC   O21 6134   4.101   0.167   2.711 -0.5190 -0.3418 -0.4810
   71SAPC   C21 6135   4.212   0.085   2.698  0.1465 -0.1828  0.0735
   71SAPC   O22 6136   4.325   0.117   2.727  0.8905 -0.7451 -0.0311
   71SAPC   C22 6137   4.175  -0.055   2.655 -0.3337  0.3890 -0.1319
   71SAPC   H2R 6138   4.085  -0.092   2.709  1.0222 -1.5591  0.9012
   71SAPC   H2S 6139   4.151  -0.043   2.547  0.9751  0.5862 -0.4174
   71SAPC    C3 6140   4.026   0.398   2.746  0.1520 -1.1498  0.7464
   71SAPC    HX 6141   4.023   0.380   2.856  1.6628 -0.2990  0.9483
   71SAPC    HY 6142   3.929   0.362   2.704 -1.0553  2.4184  0.1518
   71SAPC   O31 6143   4.029   0.535   2.714  0.4840  0.2539 -0.4597
   71SAPC   C31 6144   4.109   0.604   2.789  0.5463 -0.4837 -0.4184
   71SAPC   O32 6145   4.178   0.563   2.878 -0.5073 -0.2729  0.1576
   71SAPC   C32 6146   4.095   0.753   2.753  0.6293  0.1458 -0.6214
   71SAPC   H2X 6147   4.054   0.758   2.650  1.1334  3.5648 -0.7654
   71SAPC   H2Y 6148   4.196   0.800   2.760  0.4591  0.5534 -0.8376
   71SAPC   C23 6149   4.288  -0.153   2.671 -0.5994  0.5144  0.6143
   71SAPC   H3R 6150   4.324  -0.148   2.776  1.4386 -1.6961  0.1257
   71SAPC   H3S 6151   4.374  -0.123   2.607 -1.1470  0.6115 -0.0848
   71SAPC   C24 6152   4.252  -0.298   2.639 -0.1420  0.0449 -0.1078
   71SAPC   H4R 6153   4.149  -0.317   2.676 -0.1070  0.5208  0.2407
   71SAPC   H4S 6154   4.319  -0.361   2.702 -0.1416 -1.1928 -1.3009
   71SAPC   C25 6155   4.267  -0.344   2.495  0.5198 -0.7337 -0.5366
   71SAPC   H5R 6156   4.366  -0.383   2.466  0.8963  0.1950 -0.5187
   71SAPC   C26 6157   4.168  -0.367   2.401 -0.7191  0.0527  0.0123
   71SAPC   H6R 6158   4.195  -0.410   2.304  0.5666 -0.8737  0.7506
   71SAPC   C27 6159   4.023  -0.332   2.413 -0.1510  0.3049 -0.3276
   71SAPC   H7R 6160   4.007  -0.222   2.417  3.1087  0.8916 -0.5982
   71SAPC   H7S 6161   3.989  -0.365   2.513  0.1285 -0.9959 -0.6478
   71SAPC   C28 6162   3.932  -0.392   2.310 -0.0747 -0.2757 -0.3816
   71SAPC   H8R 6163   3.979  -0.416   2.214 -1.1013  0.9755 -1.2272
   71SAPC   C29 6164   3.804  -0.434   2.331  0.1225 -0.2836 -0.5393
   71SAPC   H9R 6165   3.762  -0.497   2.251  0.4209 -1.0731 -0.0861
   71SAPC  C210 6166   3.725  -0.412   2.456  0.2765  0.0864  0.0416
   71SAPC  H10R 6167   3.632  -0.371   2.413  1.1898  3.9612  1.3859
   71SAPC  H10S 6168   3.767  -0.330   2.518 -0.6863 -0.4671  1.4471
   71SAPC  C211 6169   3.706  -0.540   2.533 -0.4809  0.2020 -0.2421
   71SAPC  H11R 6170   3.657  -0.616   2.470  0.1277 -0.6630  0.3039
   71SAPC  C212 6171   3.734  -0.560   2.662 -0.2012  0.2058  0.0954
   71SAPC  H12R 6172   3.711  -0.655   2.713  1.6565 -0.0648  0.4995
   71SAPC  C213 6173   3.800  -0.452   2.750 -0.2517  0.6599 -1.1624
   71SAPC  H13R 6174   3.893  -0.417   2.702  0.9930  1.0999  1.4129
   71SAPC  H13S 6175   3.847  -0.499   2.839  0.8779  3.2230 -0.3138
   71SAPC  C214 6176   3.703  -0.345   2.782  0.8644 -0.1782 -0.2541
   71SAPC  H14R 6177   3.594  -0.352   2.781  0.8253  0.3657 -1.4327
   71SAPC  C215 6178   3.746  -0.242   2.859  0.3202  0.2000 -0.2538
   71SAPC  H15R 6179   3.672  -0.164   2.881 -1.1739 -1.1552 -0.3405
   71SAPC  C216 6180   3.889  -0.208   2.916  0.8014  0.9505  1.1584
   71SAPC  H16R 6181   3.922  -0.111   2.873  0.3186  0.8426  0.5153
   71SAPC  H16S 6182   3.953  -0.285   2.867 -0.6158  0.5085 -0.0846
   71SAPC  C217 6183   3.907  -0.221   3.066  0.1337  0.8678  0.4290
   71SAPC  H17R 6184   4.013  -0.220   3.097 -0.2753 -0.6386  2.0497
   71SAPC  H17S 6185   3.866  -0.319   3.097 -3.5081  2.1380  0.1700
   71SAPC  C218 6186   3.832  -0.113   3.153  0.2433 -0.7035 -0.4652
   71SAPC  H18R 6187   3.728  -0.103   3.114  0.4113  0.9101 -0.5625
   71SAPC  H18S 6188   3.890  -0.018   3.150  1.4507 -1.1898  2.9837
   71SAPC  C219 6189   3.826  -0.149   3.301  0.4260  0.3382 -0.6201
   71SAPC  H19R 6190   3.931  -0.155   3.337  0.9567 -2.7049 -2.3192
   71SAPC  H19S 6191   3.797  -0.256   3.308  1.8329 -0.1307 -1.6119
   71SAPC  C220 6192   3.750  -0.057   3.393 -0.5955  0.6007 -0.1915
   71SAPC  H20R 6193   3.793   0.045   3.402 -2.5112  1.2724  3.1724
   71SAPC  H20S 6194   3.769  -0.102   3.492  0.9288 -0.6751 -1.0240
   71SAPC  H20T 6195   3.641  -0.061   3.371 -0.6667  0.9672  0.0902
   71SAPC   C33 6196   4.005   0.832   2.845 -0.5214  0.1343  0.7255
   71SAPC   H3X 6197   3.901   0.795   2.837 -0.4057  0.1812 -1.6115
   71SAPC   H3Y 6198   3.977   0.930   2.802 -1.9684 -0.3026  0.6080
   71SAPC   C34 6199   4.065   0.835   2.987  0.5842  0.4708 -0.0407
   71SAPC   H4X 6200   4.070   0.939   3.027  0.6773 -0.3763  2.3171
   71SAPC   H4Y 6201   4.174   0.812   2.986  1.3818  3.6757  0.6287
   71SAPC   C35 6202   4.001   0.734   3.084  0.5937 -0.0597 -0.0938
   71SAPC   H5X 6203   3.994   0.636   3.031 -0.6859  0.3864 -0.7626
   71SAPC   H5Y 6204   3.901   0.774   3.108  0.2494 -0.6987 -0.4362
   71SAPC   C36 6205   4.086   0.708   3.214 -0.4764 -0.5037  0.9478
   71SAPC   H6X 6206   4.120   0.804   3.256  0.1061 -0.3106  0.0562
   71SAPC   H6Y 6207   4.177   0.649   3.191 -1.4646 -1.0433 -2.0288
   71SAPC   C37 6208   4.017   0.648   3.327 -0.1532 -0.4221 -0.3135
   71SAPC   H7X 6209   4.087   0.624   3.410  1.2101  1.1598 -0.9608
   71SAPC   H7Y 6210   3.965   0.553   3.299 -2.6345  0.5279  0.7729
   71SAPC   C38 6211   3.904   0.744   3.378 -0.2620 -0.0633 -0.3959
   71SAPC   H8X 6212   3.881   0.826   3.307  4.0022  1.0918 -0.6932
   71SAPC   H8Y 6213   3.939   0.800   3.468 -0.5434 -2.8423  1.5972
   71SAPC   C39 6214   3.776   0.670   3.426 -0.2589  0.1564 -0.0862
   71SAPC   H9X 6215   3.796   0.592   3.503  0.9428 -1.6009 -2.0619
   71SAPC   H9Y 6216   3.750   0.609   3.337 -0.3433  1.3197 -0.8798
   71SAPC  C310 6217   3.662   0.765   3.469 -0.3205  0.5745  0.4964
   71SAPC  H10X 6218   3.639   0.823   3.377  2.6644 -0.4027 -0.9950
   71SAPC  H10Y 6219   3.692   0.826   3.558  0.9940  0.5922  0.0542
   71SAPC  C311 6220   3.535   0.682   3.500  0.3984 -0.7900  0.0123
   71SAPC  H11X 6221   3.550   0.636   3.600  1.3101 -0.0378  0.2350
   71SAPC  H11Y 6222   3.532   0.606   3.419 -0.4884 -0.1656 -0.5595
   71SAPC  C312 6223   3.397   0.762   3.484 -1.1136 -0.9450  0.4442
   71SAPC  H12X 6224   3.386   0.785   3.375 -1.9300 -3.3512 -0.0429
   71SAPC  H12Y 6225   3.424   0.855   3.537  0.7168 -1.1627 -0.0477
   71SAPC  C313 6226   3.274   0.696   3.542  0.1348  0.0694 -0.0057
   71SAPC  H13X 6227   3.294   0.657   3.644  1.7082 -0.8764 -0.6360
   71SAPC  H13Y 6228   3.250   0.601   3.488 -1.8058  0.7239 -0.3650
   71SAPC  C314 6229   3.152   0.784   3.572 -0.1092  0.2835  0.0795
   71SAPC  H14X 6230   3.120   0.817   3.470  0.8135 -0.1942 -0.3808
   71SAPC  H14Y 6231   3.187   0.877   3.622 -0.9239  0.8314 -0.3512
   71SAPC  C315 6232   3.014   0.727   3.619 -0.2851 -0.0105 -0.0153
   71SAPC  H15X 6233   2.983   0.643   3.553 -2.3398  1.8500 -1.5999
   71SAPC  H15Y 6234   2.933   0.802   3.609  0.2588  0.4531 -1.1455
   71SAPC  C316 6235   3.023   0.681   3.773 -0.0669  0.4606  0.5028
   71SAPC  H16X 6236   3.065   0.766   3.831 -2.0575  1.0900  1.0992
   71SAPC  H16Y 6237   3.090   0.592   3.771  0.0342  0.5365 -0.5975
   71SAPC  C317 6238   2.890   0.641   3.840  0.3449  0.0585  0.3951
   71SAPC  H17X 6239   2.816   0.723   3.823 -0.4723 -0.7549 -0.0434
   71SAPC  H17Y 6240   2.904   0.644   3.950  0.9873  1.1330  0.2951
   71SAPC  C318 6241   2.837   0.507   3.786 -0.0933  0.8521 -0.3129
   71SAPC  H18X 6242   2.891   0.424   3.836 -0.9738  0.0613 -0.6489
   71SAPC  H18Y 6243   2.856   0.493   3.677 -0.4783  0.4198 -0.3229
   71SAPC  H18Z 6244   2.729   0.505   3.809  0.2378 -0.1667  1.3456
   72SAPC     N 6245   5.320   4.300   2.356  0.3625  0.1831 -0.0010
   72SAPC   C12 6246   5.348   4.447   2.372 -0.4571  1.1316  0.3450
   72SAPC  H12A 6247   5.342   4.488   2.273  0.4723  1.3668  0.3787
   72SAPC  H12B 6248   5.448   4.454   2.412 -0.0448 -1.4142 -0.0555
   72SAPC   C13 6249   5.314   4.220   2.477 -0.1306  0.9125  0.1261
   72SAPC  H13A 6250   5.285   4.120   2.451 -1.5105  1.5993 -1.1324
   72SAPC  H13B 6251   5.399   4.226   2.543 -0.1013 -1.4871  0.3772
   72SAPC  H13C 6252   5.224   4.249   2.530 -1.2428 -2.2931  0.1999
   72SAPC   C14 6253   5.194   4.283   2.271  0.0449 -0.8480 -0.3821
   72SAPC  H14A 6254   5.182   4.177   2.253  0.0870 -0.9081 -0.0515
   72SAPC  H14B 6255   5.107   4.318   2.324  0.5502  0.0999 -0.1676
   72SAPC  H14C 6256   5.199   4.334   2.176  0.5387  1.5028  0.8439
   72SAPC   C15 6257   5.428   4.239   2.268 -0.8045  0.1726  0.2483
   72SAPC  H15A 6258   5.525   4.228   2.314 -0.8269 -0.8871  0.0642
   72SAPC  H15B 6259   5.394   4.139   2.245 -0.1423 -0.5587  2.2741
   72SAPC  H15C 6260   5.448   4.291   2.175 -0.0072  0.0565  0.3478
   72SAPC   C11 6261   5.252   4.514   2.474 -0.5837  0.8086 -0.1641
   72SAPC  H11A 6262   5.279   4.620   2.494 -0.2206  0.4579  1.2724
   72SAPC  H11B 6263   5.262   4.466   2.573  0.5251 -0.8479 -1.0461
   72SAPC     P 6264   5.001   4.470   2.513  0.1901 -0.0809 -0.4101
   72SAPC   O13 6265   4.869   4.507   2.456  0.2696  0.7374  0.1929
   72SAPC   O14 6266   5.024   4.330   2.541  0.6569 -0.1933 -0.2367
   72SAPC   O12 6267   5.116   4.520   2.425  0.9533 -0.1817 -0.2733
   72SAPC   O11 6268   5.022   4.548   2.646 -0.4719  0.1693  0.0361
   72SAPC    C1 6269   5.035   4.696   2.654 -0.7700  0.1034  0.0371
   72SAPC    HA 6270   5.135   4.737   2.678 -0.6572  0.0794 -0.3830
   72SAPC    HB 6271   5.008   4.751   2.561  0.5646  1.3906  0.3597
   72SAPC    C2 6272   4.956   4.761   2.768 -0.5323  0.5556  0.0573
   72SAPC    HS 6273   4.987   4.868   2.766  0.9259  0.2330  2.0487
   72SAPC   O21 6274   4.988   4.692   2.896  0.1851  0.5400  0.0354
   72SAPC   C21 6275   5.088   4.750   2.965 -0.0824 -0.0863  0.8023
   72SAPC   O22 6276   5.153   4.846   2.918  0.2895  0.6956  0.0644
   72SAPC   C22 6277   5.090   4.677   3.094  0.3517 -0.4782 -0.4361
   72SAPC   H2R 6278   5.050   4.575   3.075 -0.1328 -0.2040 -0.8975
   72SAPC   H2S 6279   5.190   4.659   3.139  1.9209  1.2163 -2.9918
   72SAPC    C3 6280   4.799   4.754   2.755  0.2179 -0.6545  0.5097
   72SAPC    HX 6281   4.774   4.646   2.749 -0.3240 -0.6758  2.3961
   72SAPC    HY 6282   4.765   4.808   2.664 -1.8349 -2.2085  0.2895
   72SAPC   O31 6283   4.739   4.818   2.865  0.3016  0.4065  0.5348
   72SAPC   C31 6284   4.607   4.795   2.892  0.4043  0.3496 -0.2014
   72SAPC   O32 6285   4.533   4.729   2.823 -0.4472  0.5218 -0.3596
   72SAPC   C32 6286   4.562   4.879   3.013 -0.1469 -0.2286  0.1157
   72SAPC   H2X 6287   4.536   4.980   2.974  1.5011 -0.0522 -0.6396
   72SAPC   H2Y 6288   4.646   4.881   3.085 -1.2362  0.4865  1.4052
   72SAPC   C23 6289   4.990   4.728   3.203 -0.6352 -1.3222 -0.9304
   72SAPC   H3R 6290   4.973   4.643   3.272  0.4517 -0.9715 -0.2067
   72SAPC   H3S 6291   4.893   4.746   3.151  0.0542  0.2167 -1.7459
   72SAPC   C24 6292   5.034   4.850   3.277 -0.0887  0.4312  0.5599
   72SAPC   H4R 6293   4.950   4.886   3.339 -0.0715 -0.8592  1.3613
   72SAPC   H4S 6294   5.045   4.936   3.208  2.0093  0.6029  1.0512
   72SAPC   C25 6295   5.165   4.844   3.354 -0.2535  0.8540 -0.6259
   72SAPC   H5R 6296   5.257   4.848   3.296  0.3888  1.3526  0.3965
   72SAPC   C26 6297   5.182   4.835   3.491 -0.1495  0.0125  0.2527
   72SAPC   H6R 6298   5.283   4.849   3.532 -0.3494  0.8410  0.4770
   72SAPC   C27 6299   5.072   4.851   3.587 -0.1450  0.2642 -0.4131
   72SAPC   H7R 6300   5.089   4.781   3.672  0.5025  1.2258  0.2722
   72SAPC   H7S 6301   4.969   4.827   3.553 -0.7882  1.5689  0.5613
   72SAPC   C28 6302   5.048   4.991   3.641 -0.7496 -0.0754  0.9427
   72SAPC   H8R 6303   5.053   5.065   3.560  0.1643 -0.1358  0.9392
   72SAPC   C29 6304   5.037   5.033   3.770 -0.2829 -0.0107  0.6050
   72SAPC   H9R 6305   4.990   5.131   3.785 -0.2375  0.1884 -0.4527
   72SAPC  C210 6306   5.044   4.940   3.895 -0.1754 -0.8549 -0.0345
   72SAPC  H10R 6307   5.015   4.837   3.866 -1.1311 -0.3142 -1.0629
   72SAPC  H10S 6308   4.966   4.982   3.963 -2.7586 -1.7449 -2.2510
   72SAPC  C211 6309   5.180   4.942   3.960 -0.0318 -0.4534  0.6730
   72SAPC  H11R 6310   5.251   4.877   3.906  0.8927 -0.0412  1.3827
   72SAPC  C212 6311   5.220   5.011   4.069 -0.0315  0.1882 -0.5567
   72SAPC  H12R 6312   5.327   5.007   4.096 -0.4813 -0.2437  1.2940
   72SAPC  C213 6313   5.146   5.089   4.170 -0.9957  0.3578  0.6179
   72SAPC  H13R 6314   5.155   5.033   4.265 -1.9493  0.4926  0.7993
   72SAPC  H13S 6315   5.037   5.081   4.151 -0.7209 -3.9951 -0.2745
   72SAPC  C214 6316   5.185   5.231   4.196  0.0421 -0.4016 -0.4934
   72SAPC  H14R 6317   5.164   5.306   4.119  1.2927  1.4706  0.8842
   72SAPC  C215 6318   5.248   5.280   4.303 -0.1489 -0.1934  0.1160
   72SAPC  H15R 6319   5.250   5.389   4.318 -1.0665 -0.1956  0.3417
   72SAPC  C216 6320   5.315   5.197   4.409 -0.1778  0.4620  0.4104
   72SAPC  H16R 6321   5.313   5.088   4.391  0.1313  0.1944  1.8305
   72SAPC  H16S 6322   5.260   5.214   4.505 -0.7363 -3.1648  0.8483
   72SAPC  C217 6323   5.463   5.238   4.423  0.2259  0.3198 -0.6259
   72SAPC  H17R 6324   5.507   5.234   4.321 -1.6128 -0.8611 -1.4314
   72SAPC  H17S 6325   5.503   5.158   4.489 -2.1631 -0.6582 -0.2474
   72SAPC  C218 6326   5.492   5.368   4.484 -0.3170  0.3945 -0.3407
   72SAPC  H18R 6327   5.418   5.388   4.565 -1.1375  1.3060 -1.2737
   72SAPC  H18S 6328   5.463   5.445   4.409 -1.0354  0.9609  0.5075
   72SAPC  C219 6329   5.637   5.384   4.525  0.6326  0.1394  0.2677
   72SAPC  H19R 6330   5.693   5.375   4.429  1.5962 -0.4914  0.8741
   72SAPC  H19S 6331   5.670   5.296   4.584  1.3654  0.0088 -0.3220
   72SAPC  C220 6332   5.685   5.519   4.582  0.0617 -0.1958 -0.1733
   72SAPC  H20R 6333   5.600   5.549   4.647 -0.8944 -0.5457 -1.2292
   72SAPC  H20S 6334   5.698   5.601   4.509 -0.7031  0.0981  0.0102
   72SAPC  H20T 6335   5.775   5.509   4.646 -1.4257  0.4403  2.1049
   72SAPC   C33 6336   4.454   4.804   3.090  0.3832 -0.4460 -0.2006
   72SAPC   H3X 6337   4.467   4.695   3.104 -0.6931 -0.5970 -0.2782
   72SAPC   H3Y 6338   4.356   4.816   3.038  0.4486  0.7863 -0.0759
   72SAPC   C34 6339   4.434   4.865   3.229  0.0155  0.1744 -0.1133
   72SAPC   H4X 6340   4.382   4.963   3.215  0.1682  0.4515  1.1710
   72SAPC   H4Y 6341   4.533   4.879   3.276 -1.2582  0.4019  2.6917
   72SAPC   C35 6342   4.347   4.770   3.309  0.3345 -0.1780  0.4888
   72SAPC   H5X 6343   4.384   4.668   3.285 -0.1106 -0.3922  0.6901
   72SAPC   H5Y 6344   4.238   4.784   3.288  0.4254 -1.5722 -1.1522
   72SAPC   C36 6345   4.357   4.784   3.458  1.0059 -0.1016  0.3329
   72SAPC   H6X 6346   4.459   4.799   3.500  0.4929 -0.1369  1.6301
   72SAPC   H6Y 6347   4.316   4.694   3.509  0.7662  0.6377  1.5011
   72SAPC   C37 6348   4.281   4.913   3.504  0.3920  0.0120 -0.1895
   72SAPC   H7X 6349   4.176   4.909   3.469  0.5453  2.3648 -1.0978
   72SAPC   H7Y 6350   4.336   5.000   3.461  0.3282  0.4280  0.5535
   72SAPC   C38 6351   4.283   4.923   3.651  0.6311 -0.0569 -0.8504
   72SAPC   H8X 6352   4.263   5.029   3.679  0.4872 -0.0753 -0.8814
   72SAPC   H8Y 6353   4.378   4.881   3.691  1.4571 -0.0533 -2.7512
   72SAPC   C39 6354   4.183   4.838   3.729 -0.1075  0.2853  0.1533
   72SAPC   H9X 6355   4.179   4.734   3.689  0.2771 -1.0220  3.2302
   72SAPC   H9Y 6356   4.083   4.884   3.713 -0.9980 -0.8779  2.0131
   72SAPC  C310 6357   4.210   4.841   3.883  0.3700  0.0008 -0.2554
   72SAPC  H10X 6358   4.221   4.947   3.914  2.3700 -0.4044  0.5863
   72SAPC  H10Y 6359   4.307   4.787   3.893  0.2760  0.0799  1.4788
   72SAPC  C311 6360   4.112   4.763   3.975  0.5222  0.5820  0.2398
   72SAPC  H11X 6361   4.122   4.660   3.934 -1.7500  0.8361 -1.1282
   72SAPC  H11Y 6362   4.008   4.801   3.965  0.5000  0.3240 -0.6107
   72SAPC  C312 6363   4.145   4.777   4.125  0.4857 -0.4642 -0.1009
   72SAPC  H12X 6364   4.181   4.880   4.148  0.9734 -0.8836  1.0479
   72SAPC  H12Y 6365   4.237   4.721   4.151 -0.2839 -1.7249 -0.0014
   72SAPC  C313 6366   4.027   4.745   4.225 -0.2724 -0.6270  0.2739
   72SAPC  H13X 6367   4.028   4.635   4.237  0.0256 -0.8041 -1.1582
   72SAPC  H13Y 6368   3.925   4.770   4.187 -1.7125  0.1568  4.2349
   72SAPC  C314 6369   4.053   4.812   4.357 -0.2384  0.1763 -0.0079
   72SAPC  H14X 6370   4.042   4.921   4.344  0.7472  0.3994  0.8578
   72SAPC  H14Y 6371   4.158   4.794   4.387 -0.0762 -0.0741 -0.6992
   72SAPC  C315 6372   3.969   4.760   4.479 -0.1943  0.3790 -0.1413
   72SAPC  H15X 6373   3.868   4.804   4.464  0.0363  0.4620 -1.6020
   72SAPC  H15Y 6374   4.017   4.806   4.568  3.4640  1.0878 -2.2503
   72SAPC  C316 6375   3.969   4.607   4.499  0.4069  0.9123 -0.6589
   72SAPC  H16X 6376   4.067   4.563   4.528 -2.1941 -5.5991  0.0102
   72SAPC  H16Y 6377   3.939   4.564   4.401 -0.0673  1.9261 -0.9696
   72SAPC  C317 6378   3.867   4.569   4.611  0.1213  0.3003  0.3911
   72SAPC  H17X 6379   3.764   4.596   4.579  1.9822  3.4826 -3.7381
   72SAPC  H17Y 6380   3.894   4.624   4.704 -1.6451  1.1233  0.4557
   72SAPC  C318 6381   3.871   4.415   4.645  0.7165 -0.7691 -0.0308
   72SAPC  H18X 6382   3.871   4.355   4.551  0.1797 -0.2024 -0.3962
   72SAPC  H18Y 6383   3.789   4.387   4.714  0.0469 -0.1091 -0.5526
   72SAPC  H18Z 6384   3.963   4.380   4.696  0.8079  0.1380  0.4422
   73SLPC     N 6385   6.063   3.625   7.238  0.1223  0.3125 -0.0364
   73SLPC   C13 6386   6.062   3.477   7.273  0.0631  0.3574 -0.3991
   73SLPC  H13A 6387   6.077   3.468   7.379  0.4372 -0.1825 -0.4930
   73SLPC  H13B 6388   5.970   3.432   7.239 -0.0221  0.3849 -0.1998
   73SLPC  H13C 6389   6.135   3.412   7.227 -2.9682 -2.3963 -1.7265
   73SLPC   C14 6390   6.198   3.674   7.288 -0.0317 -0.6484 -0.3757
   73SLPC  H14A 6391   6.223   3.652   7.391  0.2454 -2.0324 -0.7309
   73SLPC  H14B 6392   6.281   3.639   7.229  0.9925  0.1532  0.5338
   73SLPC  H14C 6393   6.182   3.781   7.280  1.0220 -0.5212 -0.9312
   73SLPC   C15 6394   5.953   3.696   7.317  0.0065 -0.6831  0.0809
   73SLPC  H15A 6395   5.951   3.684   7.424  0.8253 -2.2120 -0.0526
   73SLPC  H15B 6396   5.948   3.801   7.289  0.7364 -0.4613  0.7694
   73SLPC  H15C 6397   5.855   3.660   7.289  0.1161 -0.3662 -0.7350
   73SLPC   C12 6398   6.031   3.645   7.092 -0.2984  0.2235 -0.0756
   73SLPC  H12A 6399   6.017   3.750   7.072  2.2485  1.0435  1.8612
   73SLPC  H12B 6400   5.939   3.593   7.067 -0.9120  1.2838 -0.0887
   73SLPC   C11 6401   6.133   3.596   6.983 -0.2444 -0.1608  0.1938
   73SLPC  H11A 6402   6.080   3.620   6.888 -0.3532 -0.6425  0.1310
   73SLPC  H11B 6403   6.154   3.487   6.987  0.8595  0.0107 -0.4512
   73SLPC     P 6404   6.279   3.804   6.908  0.2648 -0.2729  0.2525
   73SLPC   O13 6405   6.154   3.889   6.910 -0.3697  0.8099  0.7264
   73SLPC   O14 6406   6.399   3.873   6.960  0.4085  0.0804 -0.6672
   73SLPC   O12 6407   6.248   3.677   6.992 -0.1419 -0.6048 -0.3120
   73SLPC   O11 6408   6.312   3.741   6.767  0.6925  0.2367  0.0056
   73SLPC    C1 6409   6.326   3.824   6.651  0.0040  0.1598 -0.2498
   73SLPC    HA 6410   6.246   3.901   6.651  2.0291  2.4090  1.5213
   73SLPC    HB 6411   6.425   3.874   6.650 -0.0305  0.2318  0.0165
   73SLPC    C2 6412   6.323   3.745   6.521 -0.0923  0.7040 -0.1716
   73SLPC    HS 6413   6.252   3.663   6.544  1.5677 -0.5236  0.7495
   73SLPC   O21 6414   6.454   3.689   6.512  0.5253 -0.1209  0.2361
   73SLPC   C21 6415   6.482   3.605   6.412 -0.4697 -0.5743  0.2407
   73SLPC   O22 6416   6.396   3.550   6.350 -0.1003  0.2336 -0.2298
   73SLPC   C22 6417   6.629   3.581   6.396  0.5404 -0.5421 -0.2816
   73SLPC   H2R 6418   6.673   3.563   6.497  1.7230 -1.4306 -0.9353
   73SLPC   H2S 6419   6.643   3.495   6.327  1.9115 -1.2456  0.8239
   73SLPC    C3 6420   6.288   3.831   6.397  0.2689 -0.4903 -0.4646
   73SLPC    HX 6421   6.181   3.860   6.406  0.2997 -0.5397  0.1181
   73SLPC    HY 6422   6.291   3.767   6.307  0.5597 -1.1864  0.0288
   73SLPC   O31 6423   6.379   3.947   6.385  0.0929  0.5291 -0.2972
   73SLPC   C31 6424   6.314   4.062   6.363  0.3430 -0.0703  0.1447
   73SLPC   O32 6425   6.193   4.080   6.392 -0.1174 -0.8932 -0.6692
   73SLPC   C32 6426   6.399   4.152   6.281 -0.1273  0.2256 -0.4369
   73SLPC   H2X 6427   6.394   4.258   6.314 -0.4936  0.3375 -0.8478
   73SLPC   H2Y 6428   6.356   4.157   6.179 -0.5234 -0.2907 -0.3014
   73SLPC   C23 6429   6.696   3.710   6.330  0.2422  0.2459 -0.9204
   73SLPC   H3R 6430   6.802   3.684   6.311  0.3161  1.4485 -2.3172
   73SLPC   H3S 6431   6.697   3.783   6.414  0.8212 -1.0574  0.2517
   73SLPC   C24 6432   6.628   3.768   6.203  0.0879 -0.5598  0.1543
   73SLPC   H4R 6433   6.681   3.863   6.181 -1.5789  0.2834 -0.4301
   73SLPC   H4S 6434   6.520   3.787   6.221  0.1168 -0.1062 -0.1355
   73SLPC   C25 6435   6.638   3.665   6.093 -0.0738  0.1163  0.2434
   73SLPC   H5R 6436   6.547   3.604   6.109 -1.4675  1.9126 -0.4378
   73SLPC   H5S 6437   6.724   3.594   6.093 -0.5104 -0.4547  2.1120
   73SLPC   C26 6438   6.627   3.724   5.953 -0.5595  1.0155 -0.3673
   73SLPC   H6R 6439   6.734   3.750   5.938 -0.1971 -0.0752  0.1967
   73SLPC   H6S 6440   6.575   3.822   5.958 -0.7315  0.9507 -0.7973
   73SLPC   C27 6441   6.574   3.625   5.853  0.4211  0.1306  0.6809
   73SLPC   H7R 6442   6.465   3.638   5.867  0.2919  0.1589 -0.2915
   73SLPC   H7S 6443   6.608   3.521   5.875 -2.9415 -1.6945 -1.7538
   73SLPC   C28 6444   6.606   3.675   5.709  0.3673 -0.6774 -0.8542
   73SLPC   H8R 6445   6.542   3.765   5.690  0.0337 -0.7857 -0.2712
   73SLPC   H8S 6446   6.563   3.596   5.644 -0.4694 -1.9622  1.1643
   73SLPC   C29 6447   6.747   3.706   5.672  0.4284 -0.4358 -0.0517
   73SLPC   H9R 6448   6.810   3.751   5.749  0.0336  0.0569 -0.0119
   73SLPC  C210 6449   6.804   3.667   5.558 -0.5111 -0.3625 -0.2651
   73SLPC  H10R 6450   6.903   3.712   5.540  0.3642 -1.8007  0.7996
   73SLPC  C211 6451   6.729   3.604   5.444 -0.2765  0.4074  0.3235
   73SLPC  H11R 6452   6.637   3.664   5.431  0.2890  0.9186 -1.6866
   73SLPC  H11S 6453   6.688   3.507   5.480 -1.8404  0.8611 -0.1623
   73SLPC  C212 6454   6.798   3.574   5.308  1.2827  0.1982 -0.5135
   73SLPC  H12R 6455   6.908   3.568   5.308  1.2158 -2.3135 -0.7527
   73SLPC  C213 6456   6.727   3.574   5.188  0.4380 -0.2477 -0.2390
   73SLPC  H13R 6457   6.778   3.548   5.094  3.9006  0.6839  1.2246
   73SLPC  C214 6458   6.578   3.596   5.187 -0.1109  0.2724 -0.0535
   73SLPC  H14R 6459   6.530   3.572   5.284 -0.7598 -0.3005 -0.5088
   73SLPC  H14S 6460   6.531   3.520   5.122  0.4807  0.6668 -0.9636
   73SLPC  C215 6461   6.539   3.730   5.122 -0.5497 -0.1124 -0.6242
   73SLPC  H15R 6462   6.581   3.812   5.184  2.1495 -1.1841 -0.8759
   73SLPC  H15S 6463   6.428   3.722   5.124 -0.6145  0.6917  0.2183
   73SLPC  C216 6464   6.583   3.756   4.978 -0.3239  0.1874 -0.1256
   73SLPC  H16R 6465   6.694   3.752   4.978 -0.3476 -1.2532  1.3758
   73SLPC  H16S 6466   6.539   3.854   4.948 -3.6624 -1.0369  0.2898
   73SLPC  C217 6467   6.506   3.667   4.873 -0.1892  0.4419 -0.4244
   73SLPC  H17R 6468   6.397   3.683   4.891  0.1746  1.0793  1.3531
   73SLPC  H17S 6469   6.532   3.559   4.876  1.4990  0.8527  0.7825
   73SLPC  C218 6470   6.538   3.726   4.735 -0.7213  0.0465  0.6591
   73SLPC  H18R 6471   6.486   3.822   4.716 -0.7069  0.0683  0.7281
   73SLPC  H18S 6472   6.513   3.649   4.658  2.3967  0.6706 -1.1397
   73SLPC  H18T 6473   6.644   3.752   4.715 -0.6109 -2.8190 -4.3050
   73SLPC   C33 6474   6.544   4.113   6.279 -0.6160  0.2098  0.2486
   73SLPC   H3X 6475   6.551   4.011   6.236 -0.8323 -0.3232  1.4309
   73SLPC   H3Y 6476   6.579   4.121   6.384 -0.2345  0.3634  0.1107
   73SLPC   C34 6477   6.634   4.206   6.201  0.1919  0.0702  0.1936
   73SLPC   H4X 6478   6.740   4.178   6.220 -0.1677 -1.6170 -0.1178
   73SLPC   H4Y 6479   6.625   4.312   6.233  0.3129  0.7658 -1.9407
   73SLPC   C35 6480   6.607   4.195   6.052  0.1198 -0.8545  0.3071
   73SLPC   H5X 6481   6.532   4.268   6.016 -0.1128  0.3194  2.9652
   73SLPC   H5Y 6482   6.578   4.089   6.032 -0.4022 -1.3124  3.0828
   73SLPC   C36 6483   6.734   4.216   5.967  0.0427 -0.0053  0.0421
   73SLPC   H6X 6484   6.807   4.142   6.006 -0.1728  0.6645  1.8227
   73SLPC   H6Y 6485   6.770   4.321   5.975 -2.4292  0.9892 -1.0787
   73SLPC   C37 6486   6.715   4.203   5.811 -0.7050 -0.1976  0.5728
   73SLPC   H7X 6487   6.670   4.291   5.760  2.1678  1.4304  0.6274
   73SLPC   H7Y 6488   6.644   4.123   5.782 -0.1369  0.4777 -3.2356
   73SLPC   C38 6489   6.849   4.176   5.735  0.0960 -0.3218  0.3932
   73SLPC   H8X 6490   6.865   4.072   5.770 -3.7256 -0.6236  1.7090
   73SLPC   H8Y 6491   6.936   4.235   5.772 -0.8599 -0.1720  2.5017
   73SLPC   C39 6492   6.826   4.171   5.579  0.2283 -0.4795  0.7172
   73SLPC   H9X 6493   6.786   4.274   5.564 -1.4417 -1.2821 -0.7523
   73SLPC   H9Y 6494   6.738   4.107   5.556  0.2241 -0.4931  0.7705
   73SLPC  C310 6495   6.943   4.132   5.486 -0.0148 -0.3491 -1.1192
   73SLPC  H10X 6496   6.982   4.033   5.517 -1.3240 -0.5849 -0.1434
   73SLPC  H10Y 6497   7.025   4.205   5.506  0.9772 -1.9581  1.1569
   73SLPC  C311 6498   6.912   4.128   5.336 -0.2732 -0.4125  0.6898
   73SLPC  H11X 6499   6.876   4.229   5.308 -1.2733 -0.7390  0.7318
   73SLPC  H11Y 6500   6.837   4.048   5.316 -1.6407  0.7764  0.9261
   73SLPC  C312 6501   7.035   4.082   5.255 -0.0205 -0.0772 -0.4146
   73SLPC  H12X 6502   7.076   3.986   5.293 -0.6725 -0.6485 -1.1334
   73SLPC  H12Y 6503   7.114   4.159   5.268 -0.0138  0.1048 -1.4293
   73SLPC  C313 6504   7.002   4.076   5.110  0.6839  0.6986  0.0270
   73SLPC  H13X 6505   7.053   4.164   5.065  1.1197 -1.1820 -3.4834
   73SLPC  H13Y 6506   6.897   4.096   5.080  1.4163  2.4703 -1.5324
   73SLPC  C314 6507   7.053   3.951   5.040  0.0604 -0.2029 -0.0891
   73SLPC  H14X 6508   7.011   3.860   5.088  0.7721 -1.9821 -2.6343
   73SLPC  H14Y 6509   7.164   3.955   5.046  0.0189 -0.8604  1.5279
   73SLPC  C315 6510   7.010   3.933   4.892 -0.0074 -0.5000 -0.3233
   73SLPC  H15X 6511   7.086   3.994   4.839  1.5725 -0.6666  1.6332
   73SLPC  H15Y 6512   6.906   3.970   4.888  0.6825  1.4783 -0.8602
   73SLPC  C316 6513   7.013   3.780   4.861  0.3474  0.0083 -0.1254
   73SLPC  H16X 6514   6.934   3.724   4.914  1.1561 -0.3934  0.6937
   73SLPC  H16Y 6515   7.110   3.741   4.899  0.7280  0.5900 -0.4810
   73SLPC  C317 6516   6.999   3.762   4.714 -0.2187 -0.3128 -0.5387
   73SLPC  H17X 6517   7.070   3.819   4.649  0.1959  1.2513  1.2028
   73SLPC  H17Y 6518   6.896   3.799   4.697 -0.5691  0.3098  2.4318
   73SLPC  C318 6519   6.998   3.617   4.674 -0.1396  0.7704 -0.3681
   73SLPC  H18X 6520   7.099   3.573   4.688 -0.9763 -1.6447 -1.4196
   73SLPC  H18Y 6521   6.987   3.618   4.563 -1.6452 -1.8547 -0.3340
   73SLPC  H18Z 6522   6.924   3.548   4.720  0.7258 -1.6157 -2.3178
   74SLPC     N 6523   4.322   1.516   6.738  0.0448  0.2805  0.2078
   74SLPC   C13 6524   4.307   1.515   6.888  0.2954 -0.4202 -0.0477
   74SLPC  H13A 6525   4.299   1.616   6.927  2.5383 -0.7172  1.3729
   74SLPC  H13B 6526   4.215   1.470   6.920 -0.8582  0.8199 -1.4682
   74SLPC  H13C 6527   4.388   1.466   6.941  0.2440 -0.7387 -0.2628
   74SLPC   C14 6528   4.350   1.379   6.688  0.1401 -0.6492 -0.5897
   74SLPC  H14A 6529   4.297   1.300   6.738  0.7757  0.0723  1.3362
   74SLPC  H14B 6530   4.336   1.377   6.581  0.1886 -0.6529 -0.5961
   74SLPC  H14C 6531   4.455   1.355   6.697  0.0239 -0.8550  0.2564
   74SLPC   C15 6532   4.433   1.610   6.716 -0.1446  0.3251  0.6194
   74SLPC  H15A 6533   4.527   1.581   6.760  0.1907 -0.2612 -0.4565
   74SLPC  H15B 6534   4.452   1.605   6.610  0.0126  0.0762  0.6577
   74SLPC  H15C 6535   4.426   1.715   6.739 -2.0515  0.0065  1.7652
   74SLPC   C12 6536   4.196   1.576   6.676  0.1190 -0.2720  0.3898
   74SLPC  H12A 6537   4.206   1.589   6.569 -2.2018  0.2521  0.1878
   74SLPC  H12B 6538   4.187   1.674   6.719  0.0661  0.5497 -1.4149
   74SLPC   C11 6539   4.071   1.486   6.689  0.0359 -0.2905 -0.2663
   74SLPC  H11A 6540   3.979   1.544   6.667 -0.8900 -1.4023  0.5660
   74SLPC  H11B 6541   4.052   1.439   6.788 -0.1058 -1.5393 -0.8659
   74SLPC     P 6542   4.059   1.381   6.450  0.1719  0.1400  0.3059
   74SLPC   O13 6543   4.159   1.289   6.390  0.4686  0.1374  0.1633
   74SLPC   O14 6544   3.920   1.344   6.420  0.3125  0.2160  0.3655
   74SLPC   O12 6545   4.082   1.373   6.603  0.4321 -0.1469 -0.5639
   74SLPC   O11 6546   4.090   1.530   6.411 -0.5012  0.3046 -0.2773
   74SLPC    C1 6547   3.974   1.606   6.367  0.4677 -0.0349 -0.2538
   74SLPC    HA 6548   3.884   1.602   6.432 -0.1240  1.0488 -0.9761
   74SLPC    HB 6549   4.001   1.712   6.387 -2.2478  1.3842 -3.1064
   74SLPC    C2 6550   3.947   1.600   6.213 -0.3319 -0.1732  0.3272
   74SLPC    HS 6551   3.886   1.508   6.198 -1.3469  0.1052  2.3518
   74SLPC   O21 6552   4.077   1.599   6.144  0.0442  0.2750 -0.6007
   74SLPC   C21 6553   4.073   1.530   6.032  0.7621  1.1130 -0.6803
   74SLPC   O22 6554   3.972   1.473   5.991  0.1679  0.5478 -0.1561
   74SLPC   C22 6555   4.211   1.547   5.961 -0.4140 -0.4007  0.0166
   74SLPC   H2R 6556   4.204   1.651   5.923  0.4372 -0.0732  0.7149
   74SLPC   H2S 6557   4.298   1.536   6.030  0.3209  0.1114 -0.8131
   74SLPC    C3 6558   3.862   1.722   6.169 -0.4041  0.0259 -0.3300
   74SLPC    HX 6559   3.927   1.812   6.174 -1.3622  0.9608 -3.2101
   74SLPC    HY 6560   3.774   1.741   6.233  0.7667  2.3027  0.7050
   74SLPC   O31 6561   3.829   1.720   6.028  0.2629 -0.0683 -0.1121
   74SLPC   C31 6562   3.726   1.646   5.984  0.7541 -0.3152  0.0355
   74SLPC   O32 6563   3.655   1.579   6.054  0.2154 -0.0008  0.1678
   74SLPC   C32 6564   3.694   1.670   5.834 -0.6134 -0.3247  0.1018
   74SLPC   H2X 6565   3.733   1.766   5.795 -0.1915 -1.0629 -1.3828
   74SLPC   H2Y 6566   3.585   1.665   5.814 -0.5402 -1.9834 -0.0571
   74SLPC   C23 6567   4.238   1.455   5.849 -0.0373  0.0946  0.1341
   74SLPC   H3R 6568   4.228   1.349   5.881 -2.2655  0.3491  0.4837
   74SLPC   H3S 6569   4.338   1.482   5.810  0.2512 -0.4702  0.4709
   74SLPC   C24 6570   4.143   1.490   5.735  0.0271 -0.3538  0.3506
   74SLPC   H4R 6571   4.135   1.601   5.725 -1.8581 -0.3274  1.5638
   74SLPC   H4S 6572   4.039   1.454   5.750 -0.3083  0.6297  0.5148
   74SLPC   C25 6573   4.195   1.419   5.614  0.5511  0.1052 -0.4876
   74SLPC   H5R 6574   4.211   1.310   5.631  1.1180  0.4426  1.2779
   74SLPC   H5S 6575   4.296   1.464   5.603  0.2089  0.7820 -0.9324
   74SLPC   C26 6576   4.102   1.436   5.501 -0.4868 -0.1856  0.7797
   74SLPC   H6R 6577   4.079   1.542   5.477  2.9597  0.7039  0.9067
   74SLPC   H6S 6578   4.005   1.390   5.528 -0.9541 -0.6471 -1.5316
   74SLPC   C27 6579   4.157   1.364   5.384  0.2389 -0.3791  0.2187
   74SLPC   H7R 6580   4.153   1.255   5.403 -0.7506 -0.4826 -0.5146
   74SLPC   H7S 6581   4.263   1.394   5.375  1.1618 -2.7003  2.3573
   74SLPC   C28 6582   4.077   1.389   5.253  0.5725 -0.4442  0.0106
   74SLPC   H8R 6583   4.053   1.498   5.258 -0.8345 -0.7379  0.0262
   74SLPC   H8S 6584   3.974   1.348   5.259 -0.1463  1.0886 -1.1123
   74SLPC   C29 6585   4.159   1.348   5.136 -1.3801 -0.0609  0.4916
   74SLPC   H9R 6586   4.264   1.375   5.156 -1.1990  0.7744 -1.4191
   74SLPC  C210 6587   4.131   1.297   5.015 -0.8560  0.0821 -0.8599
   74SLPC  H10R 6588   4.208   1.250   4.953  1.8853  0.1300  2.2078
   74SLPC  C211 6589   3.991   1.283   4.956  0.5092  0.8367  0.1114
   74SLPC  H11R 6590   3.921   1.291   5.042  0.8228 -0.5819  0.5315
   74SLPC  H11S 6591   3.978   1.176   4.929  3.8595 -0.1257  1.7841
   74SLPC  C212 6592   3.954   1.379   4.847  0.6323 -0.2042 -0.1847
   74SLPC  H12R 6593   3.983   1.484   4.861  2.0655 -0.4902 -0.7846
   74SLPC  C213 6594   3.891   1.345   4.732 -0.0751 -0.1227 -0.5033
   74SLPC  H13R 6595   3.864   1.427   4.664  2.5708  0.2014 -1.2552
   74SLPC  C214 6596   3.846   1.205   4.684  0.3937 -0.0730 -0.0672
   74SLPC  H14R 6597   3.769   1.215   4.604 -1.1110  1.3607  1.4926
   74SLPC  H14S 6598   3.783   1.153   4.760  1.4647  0.3080  1.1034
   74SLPC  C215 6599   3.966   1.115   4.648 -0.1832 -0.4433  0.1748
   74SLPC  H15R 6600   4.027   1.096   4.739  2.3141  1.7062 -0.9097
   74SLPC  H15S 6601   4.032   1.167   4.576  1.0907 -1.3583  0.6457
   74SLPC  C216 6602   3.921   0.982   4.581 -0.6168  0.1848  0.8694
   74SLPC  H16R 6603   3.850   0.932   4.651 -0.8202  0.0009  0.5340
   74SLPC  H16S 6604   4.011   0.918   4.572 -0.8287 -0.1901  1.3376
   74SLPC  C217 6605   3.862   0.985   4.439  0.7480  0.9577 -0.4395
   74SLPC  H17R 6606   3.777   1.057   4.444 -0.3991 -0.4036  1.0718
   74SLPC  H17S 6607   3.817   0.885   4.419  2.8272 -1.1300  3.8659
   74SLPC  C218 6608   3.961   1.012   4.318 -0.5616  0.5670 -0.5908
   74SLPC  H18R 6609   3.902   1.019   4.224  0.2063  3.3514 -0.9358
   74SLPC  H18S 6610   4.035   0.929   4.312  0.5082  1.3827  0.8055
   74SLPC  H18T 6611   4.011   1.110   4.327  0.9364 -0.1939 -0.3373
   74SLPC   C33 6612   3.762   1.554   5.749  0.6988 -0.2236 -0.2438
   74SLPC   H3X 6613   3.727   1.460   5.796 -3.2861  1.0931 -0.2179
   74SLPC   H3Y 6614   3.871   1.577   5.745  0.1601  2.8714  0.4811
   74SLPC   C34 6615   3.710   1.539   5.610 -0.8230  0.6228  0.1760
   74SLPC   H4X 6616   3.599   1.549   5.617 -0.9004 -1.1208  3.0152
   74SLPC   H4Y 6617   3.723   1.432   5.582  0.7562  0.2124  2.3045
   74SLPC   C35 6618   3.762   1.641   5.503  0.3838 -0.0962 -0.2723
   74SLPC   H5X 6619   3.871   1.642   5.485  0.4825  1.3337  0.2162
   74SLPC   H5Y 6620   3.732   1.741   5.542  0.2606 -0.6451  1.1105
   74SLPC   C36 6621   3.701   1.626   5.358  0.0701  0.8175  0.1620
   74SLPC   H6X 6622   3.750   1.706   5.298  1.6021 -1.7370 -2.2398
   74SLPC   H6Y 6623   3.594   1.652   5.375  0.4656  0.9532  2.9427
   74SLPC   C37 6624   3.717   1.489   5.290 -0.4289  0.7949  0.5325
   74SLPC   H7X 6625   3.655   1.407   5.331  0.1797 -0.0691 -0.2409
   74SLPC   H7Y 6626   3.821   1.453   5.302 -0.2821  0.7373 -0.7243
   74SLPC   C38 6627   3.701   1.490   5.140  0.3909  0.2317  0.2169
   74SLPC   H8X 6628   3.719   1.383   5.117 -1.8431 -0.6771  2.3653
   74SLPC   H8Y 6629   3.786   1.547   5.095 -0.6236  1.5025 -0.1502
   74SLPC   C39 6630   3.573   1.536   5.067 -0.7314 -0.1721  0.4758
   74SLPC   H9X 6631   3.571   1.646   5.049  0.1465 -0.2555 -0.1867
   74SLPC   H9Y 6632   3.485   1.505   5.128 -1.1373 -0.0622 -0.0536
   74SLPC  C310 6633   3.549   1.483   4.923 -0.0936 -0.8009  0.0069
   74SLPC  H10X 6634   3.651   1.483   4.879  0.4515  1.1458  1.1111
   74SLPC  H10Y 6635   3.487   1.556   4.865 -1.9614 -2.2770  0.0443
   74SLPC  C311 6636   3.482   1.344   4.910 -0.1172 -0.1036  0.8024
   74SLPC  H11X 6637   3.415   1.333   4.998  1.8685  1.0389  2.5546
   74SLPC  H11Y 6638   3.556   1.260   4.909  0.0634  0.0147 -1.3857
   74SLPC  C312 6639   3.427   1.315   4.768 -0.4326  0.2188 -0.1550
   74SLPC  H12X 6640   3.512   1.320   4.697 -1.6744  0.2209 -1.6899
   74SLPC  H12Y 6641   3.354   1.396   4.749  0.0262  0.2352 -1.9834
   74SLPC  C313 6642   3.353   1.179   4.753 -0.1218  0.0468  0.1246
   74SLPC  H13X 6643   3.407   1.109   4.820  2.1861 -0.2013 -1.8556
   74SLPC  H13Y 6644   3.371   1.147   4.648  1.6791  0.8742  0.1522
   74SLPC  C314 6645   3.202   1.174   4.790 -0.4819  0.8363  0.8049
   74SLPC  H14X 6646   3.186   1.256   4.863 -1.2025  0.8719  0.6185
   74SLPC  H14Y 6647   3.187   1.071   4.828 -3.3224  0.0360 -2.0602
   74SLPC  C315 6648   3.113   1.187   4.669  0.1442 -0.0815  0.6879
   74SLPC  H15X 6649   3.006   1.200   4.698  0.1423  0.3647  0.4841
   74SLPC  H15Y 6650   3.114   1.091   4.613  0.9474  0.2403  0.1336
   74SLPC  C316 6651   3.150   1.297   4.564  0.3029 -0.0505 -0.5172
   74SLPC  H16X 6652   3.228   1.257   4.496 -0.5896 -1.3859 -0.7923
   74SLPC  H16Y 6653   3.176   1.392   4.616  3.2822  0.2909 -2.3841
   74SLPC  C317 6654   3.035   1.334   4.468  1.0542  0.3726 -0.9497
   74SLPC  H17X 6655   3.055   1.427   4.412 -0.5772  1.2845 -0.1036
   74SLPC  H17Y 6656   2.943   1.355   4.527 -0.0005  0.4113 -2.5393
   74SLPC  C318 6657   2.997   1.219   4.380  0.0146  0.4758  0.1546
   74SLPC  H18X 6658   3.082   1.166   4.332 -1.0022 -2.3611  1.2825
   74SLPC  H18Y 6659   2.936   1.256   4.295 -0.7420  0.1507  0.5412
   74SLPC  H18Z 6660   2.944   1.141   4.439 -0.0061  0.8504  0.6311
   75SLPC     N 6661   0.880   5.551   6.947  0.4117  0.2912 -0.1557
   75SLPC   C13 6662   0.733   5.541   6.986 -0.3543  0.1274  0.3277
   75SLPC  H13A 6663   0.686   5.633   6.956  0.3042  0.4295  0.1892
   75SLPC  H13B 6664   0.686   5.456   6.938 -0.3854  0.9499 -1.1660
   75SLPC  H13C 6665   0.727   5.524   7.092  0.5883 -0.1058  0.3550
   75SLPC   C14 6666   0.952   5.417   6.989 -0.2760  0.2318  0.0613
   75SLPC  H14A 6667   0.978   5.425   7.094 -0.1131 -0.7185  0.0980
   75SLPC  H14B 6668   0.889   5.330   6.974 -1.5055  1.4017 -2.0428
   75SLPC  H14C 6669   1.043   5.407   6.932  0.0967  0.5653  0.5920
   75SLPC   C15 6670   0.936   5.668   7.012 -0.4537  0.1467 -0.4214
   75SLPC  H15A 6671   1.042   5.677   6.997 -0.6741  0.7333 -1.8163
   75SLPC  H15B 6672   0.880   5.752   6.974 -0.1684  1.1013  1.2057
   75SLPC  H15C 6673   0.921   5.666   7.119  1.8195  1.0202 -0.0217
   75SLPC   C12 6674   0.898   5.556   6.796  0.7506  0.2102  0.5839
   75SLPC  H12A 6675   1.004   5.563   6.778  1.0995  0.0942  2.3747
   75SLPC  H12B 6676   0.845   5.645   6.764 -2.6535 -0.9266  2.4959
   75SLPC   C11 6677   0.845   5.436   6.710  0.1614 -0.7508  0.2195
   75SLPC  H11A 6678   0.883   5.338   6.747 -3.0256 -2.8153 -1.4969
   75SLPC  H11B 6679   0.881   5.441   6.605 -0.3871  2.1631  0.0900
   75SLPC     P 6680   0.608   5.504   6.630 -0.3141 -0.0806 -0.4482
   75SLPC   O13 6681   0.468   5.453   6.657 -0.2957  0.0181  0.0808
   75SLPC   O14 6682   0.640   5.648   6.654 -0.7592  0.3459 -0.4461
   75SLPC   O12 6683   0.703   5.420   6.724 -0.3063 -0.7624  0.3999
   75SLPC   O11 6684   0.665   5.460   6.491 -0.0171 -0.0888  0.4958
   75SLPC    C1 6685   0.692   5.329   6.450 -0.5467  1.0209 -0.2122
   75SLPC    HA 6686   0.769   5.335   6.371  2.6889 -1.2697  2.5027
   75SLPC    HB 6687   0.722   5.256   6.528  2.2592 -0.7541 -2.7877
   75SLPC    C2 6688   0.564   5.267   6.388 -0.3496  0.0171 -0.2319
   75SLPC    HS 6689   0.591   5.209   6.297 -1.1120 -1.2312  0.3103
   75SLPC   O21 6690   0.469   5.363   6.347  0.3248 -0.2552 -0.3672
   75SLPC   C21 6691   0.512   5.439   6.247  0.0331 -0.2525 -0.0996
   75SLPC   O22 6692   0.612   5.412   6.181  0.0212 -0.0085  0.2356
   75SLPC   C22 6693   0.402   5.545   6.216 -0.3716  0.2622 -0.1367
   75SLPC   H2R 6694   0.337   5.541   6.306  2.2469 -1.9005  1.8699
   75SLPC   H2S 6695   0.462   5.638   6.203 -0.8805  0.5526 -0.4384
   75SLPC    C3 6696   0.490   5.168   6.490 -0.0076 -0.1862 -0.1237
   75SLPC    HX 6697   0.467   5.228   6.580  3.3528 -0.8766  1.3264
   75SLPC    HY 6698   0.559   5.095   6.538 -0.8350 -0.8009  0.1472
   75SLPC   O31 6699   0.374   5.100   6.438 -0.2266 -0.4230 -0.0403
   75SLPC   C31 6700   0.402   4.997   6.353 -0.8280 -0.4240 -0.1028
   75SLPC   O32 6701   0.511   4.948   6.341  0.6972  0.3254 -0.1137
   75SLPC   C32 6702   0.266   4.954   6.291 -1.1280  0.1931  0.0492
   75SLPC   H2X 6703   0.216   5.044   6.248  2.1235  2.1913  0.1126
   75SLPC   H2Y 6704   0.209   4.896   6.366  0.6380  1.3608  2.3969
   75SLPC   C23 6705   0.337   5.525   6.078 -0.3302  0.2750  0.4450
   75SLPC   H3R 6706   0.417   5.551   6.006 -0.0538 -0.8905  0.3144
   75SLPC   H3S 6707   0.258   5.603   6.082  0.3360  0.9431  3.7069
   75SLPC   C24 6708   0.278   5.391   6.054  0.2651 -0.1405  0.3362
   75SLPC   H4R 6709   0.218   5.351   6.138 -1.1694 -0.3594 -0.7692
   75SLPC   H4S 6710   0.361   5.317   6.054  0.1972 -0.2260  1.2370
   75SLPC   C25 6711   0.208   5.380   5.922  0.8088  0.0292 -0.1594
   75SLPC   H5R 6712   0.282   5.402   5.842 -0.0517 -1.5905 -1.4487
   75SLPC   H5S 6713   0.125   5.451   5.908  0.9605  0.3320  0.4202
   75SLPC   C26 6714   0.159   5.236   5.896 -0.2202 -0.8790 -0.6810
   75SLPC   H6R 6715   0.082   5.212   5.972  0.6635 -0.7257  0.2863
   75SLPC   H6S 6716   0.238   5.159   5.910  0.1664 -0.6245 -1.4504
   75SLPC   C27 6717   0.115   5.205   5.754  0.5658  0.0633 -0.0004
   75SLPC   H7R 6718   0.080   5.100   5.744  2.5332 -0.4770 -1.8498
   75SLPC   H7S 6719   0.198   5.212   5.681  1.0000 -1.2486  0.3274
   75SLPC   C28 6720   0.006   5.299   5.699  0.6283 -0.6107  0.7246
   75SLPC   H8R 6721   0.060   5.396   5.686 -2.1637  0.6531 -4.3936
   75SLPC   H8S 6722  -0.074   5.312   5.774  0.6331  0.4506  0.5638
   75SLPC   C29 6723  -0.060   5.261   5.567 -0.2337  0.3137  0.2738
   75SLPC   H9R 6724  -0.138   5.184   5.580  0.7560 -0.6417  0.6798
   75SLPC  C210 6725  -0.037   5.320   5.447 -0.9859  1.0462  0.0096
   75SLPC  H10R 6726  -0.097   5.282   5.364  0.4085  2.0006 -1.4939
   75SLPC  C211 6727   0.061   5.426   5.409  0.6033 -0.3156  0.2321
   75SLPC  H11R 6728   0.149   5.423   5.477 -0.5231  0.9472  1.8382
   75SLPC  H11S 6729   0.022   5.525   5.440 -2.5110 -0.9853 -1.1718
   75SLPC  C212 6730   0.086   5.423   5.257  0.3232 -0.2386  0.3145
   75SLPC  H12R 6731   0.163   5.351   5.224 -0.0197 -0.3246 -0.3053
   75SLPC  C213 6732   0.015   5.491   5.167 -0.5411  0.0999 -0.7216
   75SLPC  H13R 6733   0.053   5.488   5.064  0.5946  0.2297 -0.3187
   75SLPC  C214 6734  -0.114   5.564   5.195  0.4679  0.3043 -0.5094
   75SLPC  H14R 6735  -0.097   5.660   5.249  1.9187 -0.9785  1.4370
   75SLPC  H14S 6736  -0.192   5.508   5.251  0.6032  1.2968  0.7127
   75SLPC  C215 6737  -0.178   5.603   5.052  0.0487  0.0142 -0.0671
   75SLPC  H15R 6738  -0.100   5.674   5.018  2.1310 -1.1051  2.1070
   75SLPC  H15S 6739  -0.273   5.659   5.067  0.4346  0.9048 -0.8659
   75SLPC  C216 6740  -0.196   5.481   4.960  0.6181 -0.2348 -0.3169
   75SLPC  H16R 6741  -0.287   5.423   4.987 -0.4281  1.5468  0.1018
   75SLPC  H16S 6742  -0.108   5.415   4.939  1.4413  0.7927 -0.1972
   75SLPC  C217 6743  -0.237   5.530   4.817 -0.0926  0.1933 -0.2106
   75SLPC  H17R 6744  -0.146   5.584   4.785 -0.7632  0.2600 -2.1025
   75SLPC  H17S 6745  -0.333   5.585   4.813 -1.5857 -2.3114 -2.5859
   75SLPC  C218 6746  -0.259   5.399   4.740 -0.1063 -0.4265  0.1117
   75SLPC  H18R 6747  -0.179   5.326   4.761 -0.4939 -0.7793  0.3845
   75SLPC  H18S 6748  -0.271   5.411   4.630 -0.2262 -1.1669  0.0398
   75SLPC  H18T 6749  -0.353   5.355   4.780  0.2516 -0.5786  0.8073
   75SLPC   C33 6750   0.305   4.845   6.188 -0.6718  0.0278  0.0110
   75SLPC   H3X 6751   0.208   4.800   6.158  0.0704 -2.1870  0.7199
   75SLPC   H3Y 6752   0.363   4.764   6.237  0.6318  1.5514  1.0865
   75SLPC   C34 6753   0.381   4.896   6.054  0.2142  0.7263 -0.4127
   75SLPC   H4X 6754   0.476   4.945   6.085 -1.3383  2.6060  1.7293
   75SLPC   H4Y 6755   0.321   4.982   6.019  1.0308  1.3433 -0.3373
   75SLPC   C35 6756   0.409   4.785   5.948  0.0757 -0.3955 -0.2378
   75SLPC   H5X 6757   0.312   4.737   5.922 -0.0556 -0.7112  0.8085
   75SLPC   H5Y 6758   0.478   4.707   5.986  0.5482  0.7010  1.2466
   75SLPC   C36 6759   0.481   4.843   5.829  0.0603  0.2268  0.5197
   75SLPC   H6X 6760   0.585   4.879   5.846  0.0636  0.5162 -0.1222
   75SLPC   H6Y 6761   0.434   4.934   5.786 -0.9212  0.3785  1.8524
   75SLPC   C37 6762   0.484   4.740   5.714  0.3901  0.4146 -0.0554
   75SLPC   H7X 6763   0.381   4.702   5.698  1.5631 -1.3448 -5.1900
   75SLPC   H7Y 6764   0.541   4.650   5.744 -1.2288 -0.7548 -0.3425
   75SLPC   C38 6765   0.548   4.798   5.590 -0.5356 -0.1917  0.8840
   75SLPC   H8X 6766   0.654   4.826   5.611  0.4664 -1.5023 -1.9132
   75SLPC   H8Y 6767   0.499   4.885   5.540  4.1665  1.4083 -1.5567
   75SLPC   C39 6768   0.565   4.700   5.473  0.0325  0.3259 -0.5150
   75SLPC   H9X 6769   0.477   4.633   5.469  1.5251 -2.2426  3.4375
   75SLPC   H9Y 6770   0.650   4.633   5.498  0.2053  1.2024  1.4036
   75SLPC  C310 6771   0.579   4.750   5.333 -0.1180  0.8707  0.3621
   75SLPC  H10X 6772   0.684   4.786   5.329  1.0950 -2.1927  1.6464
   75SLPC  H10Y 6773   0.503   4.830   5.316 -2.4159 -1.3220 -0.2123
   75SLPC  C311 6774   0.548   4.643   5.227  0.3667  0.1125 -0.0268
   75SLPC  H11X 6775   0.439   4.621   5.220  0.1617  0.8222  0.6917
   75SLPC  H11Y 6776   0.612   4.557   5.254  0.3653  1.1895  4.1102
   75SLPC  C312 6777   0.591   4.701   5.092  0.5545 -0.1813 -0.3151
   75SLPC  H12X 6778   0.702   4.703   5.082  0.7877  0.5295  1.8163
   75SLPC  H12Y 6779   0.539   4.799   5.091  2.1732  0.7709  1.4222
   75SLPC  C313 6780   0.533   4.621   4.975  0.1644  0.0567 -0.3928
   75SLPC  H13X 6781   0.425   4.648   4.973 -0.1183 -0.9261 -3.5553
   75SLPC  H13Y 6782   0.547   4.513   4.992 -1.0660 -0.0405  0.1015
   75SLPC  C314 6783   0.581   4.658   4.840 -0.1401  0.3958 -0.4924
   75SLPC  H14X 6784   0.514   4.607   4.767  1.3123  0.5948 -2.0406
   75SLPC  H14Y 6785   0.676   4.607   4.812 -1.0244 -1.3643 -0.4536
   75SLPC  C315 6786   0.588   4.812   4.805 -0.1505  0.2533 -0.6180
   75SLPC  H15X 6787   0.619   4.861   4.900 -1.6958 -3.3252  1.9687
   75SLPC  H15Y 6788   0.487   4.849   4.777  0.2697  0.9967 -1.1992
   75SLPC  C316 6789   0.676   4.853   4.689  0.1755 -0.1752 -0.3286
   75SLPC  H16X 6790   0.654   4.793   4.598  0.0860  1.4336 -1.4020
   75SLPC  H16Y 6791   0.781   4.820   4.709  1.0542  1.6045 -1.7213
   75SLPC  C317 6792   0.691   5.009   4.666  0.4219 -0.4089 -0.5434
   75SLPC  H17X 6793   0.596   5.063   4.681  1.3685  1.5784 -1.4027
   75SLPC  H17Y 6794   0.723   5.031   4.562  3.2849  0.1995  0.3803
   75SLPC  C318 6795   0.785   5.068   4.768  0.4034 -0.5444  0.1445
   75SLPC  H18X 6796   0.757   5.040   4.872 -1.0482 -0.7586 -0.2836
   75SLPC  H18Y 6797   0.780   5.178   4.755 -2.5438 -0.6767 -0.4197
   75SLPC  H18Z 6798   0.892   5.040   4.757  0.5623  0.3722 -0.8652
   76SLPC     N 6799   2.198   5.312   6.843 -0.1995  0.4027  0.4059
   76SLPC   C13 6800   2.327   5.366   6.907  1.0950  0.4207  0.3343
   76SLPC  H13A 6801   2.415   5.320   6.865  0.4573 -0.6269  0.1233
   76SLPC  H13B 6802   2.334   5.472   6.888 -1.0171  0.5412 -0.0045
   76SLPC  H13C 6803   2.325   5.345   7.013  0.0229  2.2146  0.7142
   76SLPC   C14 6804   2.183   5.178   6.902 -0.6257 -0.0766  0.2922
   76SLPC  H14A 6805   2.180   5.185   7.010  1.2439  0.7462  0.3334
   76SLPC  H14B 6806   2.095   5.124   6.869  0.4705 -2.2923  0.7617
   76SLPC  H14C 6807   2.273   5.122   6.879 -1.1904 -0.2902 -1.5664
   76SLPC   C15 6808   2.226   5.302   6.694  0.6364  0.1385 -0.2075
   76SLPC  H15A 6809   2.247   5.396   6.646 -4.3746  1.6923  0.0352
   76SLPC  H15B 6810   2.308   5.233   6.681 -0.6620 -1.4777 -0.2152
   76SLPC  H15C 6811   2.136   5.259   6.651  0.5579  1.6791 -1.6632
   76SLPC   C12 6812   2.077   5.403   6.864 -0.2564 -0.1914 -0.2029
   76SLPC  H12A 6813   2.090   5.495   6.809 -0.9363 -0.2673 -0.5079
   76SLPC  H12B 6814   2.075   5.442   6.964  1.9239  0.0629 -0.2215
   76SLPC   C11 6815   1.936   5.348   6.813 -0.3707  0.3947  0.7490
   76SLPC  H11A 6816   1.849   5.412   6.839 -2.0841 -1.5989  0.1654
   76SLPC  H11B 6817   1.912   5.248   6.854 -0.4455 -0.5300 -1.3994
   76SLPC     P 6818   1.923   5.485   6.596 -0.2910  0.0101  0.1049
   76SLPC   O13 6819   1.781   5.514   6.582  0.5094  0.1787 -0.0580
   76SLPC   O14 6820   2.003   5.594   6.665 -0.0847 -0.8084 -0.0685
   76SLPC   O12 6821   1.938   5.347   6.670  0.1856  0.6943 -1.2788
   76SLPC   O11 6822   1.979   5.460   6.452  0.4292  0.6367 -0.3574
   76SLPC    C1 6823   2.089   5.530   6.390  0.9415 -0.1259 -0.2124
   76SLPC    HA 6824   2.177   5.523   6.458 -1.2091 -2.6650  2.5662
   76SLPC    HB 6825   2.114   5.476   6.296 -0.5156  0.0227 -0.7060
   76SLPC    C2 6826   2.050   5.676   6.352 -0.4996  0.3300 -0.0113
   76SLPC    HS 6827   2.043   5.737   6.445  0.9896  1.2549 -0.4769
   76SLPC   O21 6828   1.927   5.661   6.278 -0.4841 -0.3013 -0.6404
   76SLPC   C21 6829   1.871   5.782   6.270  0.3279  0.1730  0.0266
   76SLPC   O22 6830   1.907   5.878   6.331 -0.1926  0.1979  0.4046
   76SLPC   C22 6831   1.743   5.761   6.185 -0.3828  0.1808  0.4491
   76SLPC   H2R 6832   1.677   5.690   6.239 -0.1354 -0.7489 -0.4353
   76SLPC   H2S 6833   1.693   5.860   6.183  0.5935  0.6752  0.2539
   76SLPC    C3 6834   2.168   5.744   6.282 -0.0031  0.2930  0.2380
   76SLPC    HX 6835   2.248   5.754   6.358  1.9408 -1.3700 -1.4995
   76SLPC    HY 6836   2.132   5.844   6.248  1.1316  0.9741  0.9617
   76SLPC   O31 6837   2.219   5.655   6.179  0.6887  0.1503  0.1135
   76SLPC   C31 6838   2.180   5.689   6.056  0.9165 -0.4452  0.8519
   76SLPC   O32 6839   2.111   5.788   6.032  0.1867  0.1141  0.8726
   76SLPC   C32 6840   2.234   5.589   5.957  0.0889  0.2041 -0.3088
   76SLPC   H2X 6841   2.186   5.494   5.991 -1.3977  1.6646  1.9239
   76SLPC   H2Y 6842   2.344   5.583   5.975  0.4394  2.0651 -1.6699
   76SLPC   C23 6843   1.757   5.694   6.044 -0.2824 -0.2459 -0.2103
   76SLPC   H3R 6844   1.786   5.587   6.057 -2.5986 -0.8843  0.2511
   76SLPC   H3S 6845   1.840   5.739   5.986  1.7192 -1.7533  1.3409
   76SLPC   C24 6846   1.623   5.698   5.969 -1.1898 -0.1449 -0.0721
   76SLPC   H4R 6847   1.583   5.802   5.977  0.7748  0.5817  1.1086
   76SLPC   H4S 6848   1.563   5.629   6.031  0.2352 -0.4843  0.9907
   76SLPC   C25 6849   1.623   5.644   5.825  0.0880 -0.9223 -0.6353
   76SLPC   H5R 6850   1.524   5.597   5.812 -0.1098 -0.3963 -1.0844
   76SLPC   H5S 6851   1.699   5.563   5.815  0.1980 -0.9905  0.5957
   76SLPC   C26 6852   1.650   5.757   5.719 -0.2569 -0.5948  0.0510
   76SLPC   H6R 6853   1.746   5.800   5.756 -0.3578 -1.1770  1.0100
   76SLPC   H6S 6854   1.564   5.827   5.725  0.0965 -0.2038  0.6267
   76SLPC   C27 6855   1.660   5.710   5.576 -0.3049 -1.1185  0.0971
   76SLPC   H7R 6856   1.687   5.602   5.584 -0.2213 -1.3091 -2.2594
   76SLPC   H7S 6857   1.732   5.761   5.509 -1.7760  1.0399  0.0593
   76SLPC   C28 6858   1.516   5.709   5.511 -0.1116 -0.4430  0.6654
   76SLPC   H8R 6859   1.434   5.690   5.584 -0.9688 -0.1761 -0.1969
   76SLPC   H8S 6860   1.511   5.627   5.436 -1.3365 -0.1860  0.4499
   76SLPC   C29 6861   1.468   5.846   5.462 -0.3289  0.5388  0.1934
   76SLPC   H9R 6862   1.531   5.926   5.506  0.1503  0.1408  0.2420
   76SLPC  C210 6863   1.380   5.867   5.360 -0.1265 -0.2017  0.0402
   76SLPC  H10R 6864   1.369   5.974   5.335 -0.7607 -0.2824 -0.0257
   76SLPC  C211 6865   1.294   5.776   5.285  0.3852  0.5817 -0.0536
   76SLPC  H11R 6866   1.206   5.826   5.238 -1.9795 -2.4434  0.8159
   76SLPC  H11S 6867   1.235   5.707   5.350 -0.9634 -0.8564 -2.5967
   76SLPC  C212 6868   1.354   5.683   5.185 -0.2767 -0.3400  0.0059
   76SLPC  H12R 6869   1.369   5.582   5.227 -2.5252 -0.6000  0.3041
   76SLPC  C213 6870   1.394   5.711   5.064 -0.0372  0.1524  0.7794
   76SLPC  H13R 6871   1.447   5.630   5.013 -1.7753  0.6787 -2.0428
   76SLPC  C214 6872   1.375   5.846   4.999 -0.6148  0.3931 -0.1485
   76SLPC  H14R 6873   1.476   5.881   4.968 -0.2180 -0.2247  0.4164
   76SLPC  H14S 6874   1.351   5.918   5.081 -1.5558 -0.5782  0.4536
   76SLPC  C215 6875   1.275   5.870   4.891 -0.2176 -0.4026  0.6727
   76SLPC  H15R 6876   1.239   5.975   4.902  1.6644  0.3080  0.3537
   76SLPC  H15S 6877   1.196   5.792   4.900  1.3594 -1.9827  1.4310
   76SLPC  C216 6878   1.338   5.850   4.755  0.2371  0.8179  0.2481
   76SLPC  H16R 6879   1.417   5.772   4.762  1.2064  1.8190  0.7919
   76SLPC  H16S 6880   1.393   5.944   4.736 -0.4640  1.0289 -0.8038
   76SLPC  C217 6881   1.250   5.841   4.632  0.4377 -0.0054  0.0930
   76SLPC  H17R 6882   1.301   5.879   4.541  2.7434  0.2040  1.4019
   76SLPC  H17S 6883   1.155   5.898   4.645 -1.0075 -2.6276  2.0088
   76SLPC  C218 6884   1.179   5.703   4.602  0.2772  0.9575  0.2685
   76SLPC  H18R 6885   1.121   5.716   4.508 -0.7369  0.8885  0.8749
   76SLPC  H18S 6886   1.110   5.668   4.681  1.7513 -3.6322 -0.1976
   76SLPC  H18T 6887   1.253   5.621   4.588  0.6914  1.0695  1.6786
   76SLPC   C33 6888   2.202   5.633   5.815 -0.2518 -0.3259 -0.0523
   76SLPC   H3X 6889   2.275   5.584   5.748 -0.0482  1.6408 -1.3574
   76SLPC   H3Y 6890   2.223   5.741   5.796  0.0390 -0.4850 -0.6421
   76SLPC   C34 6891   2.065   5.588   5.764 -0.2335 -0.0155 -1.0641
   76SLPC   H4X 6892   1.993   5.636   5.834  2.2188  0.1057  1.5548
   76SLPC   H4Y 6893   2.056   5.478   5.777  1.9568  0.1038  3.4855
   76SLPC   C35 6894   2.030   5.631   5.624 -0.5109 -0.0098 -0.1965
   76SLPC   H5X 6895   1.922   5.614   5.607 -0.6944  0.3162  0.6073
   76SLPC   H5Y 6896   2.075   5.560   5.552 -1.3244 -0.2883 -0.4388
   76SLPC   C36 6897   2.069   5.769   5.580 -0.0906 -0.0502 -0.2615
   76SLPC   H6X 6898   2.178   5.779   5.594 -0.4652  2.3193  1.7191
   76SLPC   H6Y 6899   2.014   5.839   5.647  1.4817 -1.2231  2.4282
   76SLPC   C37 6900   2.021   5.796   5.428  0.1850 -0.4639  0.0023
   76SLPC   H7X 6901   1.925   5.740   5.419 -0.1074 -0.0153  0.2835
   76SLPC   H7Y 6902   2.101   5.762   5.360  0.1958 -1.5973  0.5574
   76SLPC   C38 6903   1.988   5.940   5.408 -0.5023 -0.7757  0.1446
   76SLPC   H8X 6904   2.076   5.998   5.443 -0.2139 -1.0431 -0.1492
   76SLPC   H8Y 6905   1.917   5.977   5.486  0.8030 -1.0249  1.5021
   76SLPC   C39 6906   1.941   5.992   5.266  0.2506  0.2559  0.1230
   76SLPC   H9X 6907   1.909   6.097   5.281 -0.4556 -0.1725  1.9225
   76SLPC   H9Y 6908   1.849   5.940   5.231 -1.0572 -0.2720  3.8575
   76SLPC  C310 6909   2.050   5.985   5.162 -0.0805  0.4761  0.6726
   76SLPC  H10X 6910   2.090   5.882   5.150  0.3247  0.8552 -1.6729
   76SLPC  H10Y 6911   2.143   6.035   5.194  0.7913 -0.6574 -0.0153
   76SLPC  C311 6912   2.010   6.049   5.027 -0.5649 -1.0302 -0.3606
   76SLPC  H11X 6913   2.042   6.155   5.036  1.8505 -1.7925  0.8485
   76SLPC  H11Y 6914   1.900   6.046   5.012 -0.5692 -1.7130 -0.2354
   76SLPC  C312 6915   2.058   5.971   4.911  0.1867 -0.7791  0.2101
   76SLPC  H12X 6916   1.991   5.886   4.888 -1.7274  0.6726  0.2017
   76SLPC  H12Y 6917   2.161   5.937   4.933  0.5151  0.6410  1.0455
   76SLPC  C313 6918   2.074   6.049   4.788 -0.7021  0.1115  0.2711
   76SLPC  H13X 6919   2.125   5.985   4.713  1.6958  3.0334 -0.8158
   76SLPC  H13Y 6920   2.133   6.141   4.806 -2.0865  1.4189 -1.4190
   76SLPC  C314 6921   1.942   6.098   4.723 -0.0569 -0.2383  0.0755
   76SLPC  H14X 6922   1.905   6.189   4.776  2.6992  1.3413 -0.5444
   76SLPC  H14Y 6923   1.878   6.013   4.755  3.4228 -3.4243 -0.6849
   76SLPC  C315 6924   1.953   6.112   4.569  0.4627 -0.9131  0.1443
   76SLPC  H15X 6925   1.984   6.014   4.525  1.1541 -1.0209  0.8443
   76SLPC  H15Y 6926   2.039   6.176   4.542  1.1901 -1.1365  1.8000
   76SLPC  C316 6927   1.813   6.147   4.498 -0.1089 -0.2088  0.1043
   76SLPC  H16X 6928   1.763   6.244   4.516  0.5318 -0.0566  1.1403
   76SLPC  H16Y 6929   1.731   6.077   4.525 -1.9541  2.1071  0.8725
   76SLPC  C317 6930   1.836   6.135   4.347 -0.3446 -0.0360  0.1571
   76SLPC  H17X 6931   1.735   6.124   4.304 -0.9555  0.7038  1.3510
   76SLPC  H17Y 6932   1.892   6.044   4.317 -0.8147  0.3100 -1.8984
   76SLPC  C318 6933   1.884   6.258   4.275  0.1454  0.9755 -0.9109
   76SLPC  H18X 6934   1.934   6.240   4.177  0.6945 -1.9959 -0.1731
   76SLPC  H18Y 6935   1.961   6.306   4.339  1.6639 -0.6950 -1.3946
   76SLPC  H18Z 6936   1.801   6.330   4.261 -0.9258 -0.4247 -2.0969
   77SLPC     N 6937   0.427   4.641   7.321  0.7526 -0.3168  0.0358
   77SLPC   C13 6938   0.553   4.691   7.387  0.2866 -0.5081  0.1514
   77SLPC  H13A 6939   0.638   4.646   7.338 -0.2128 -1.9762  0.5827
   77SLPC  H13B 6940   0.570   4.796   7.365  2.4905 -0.7517  0.4252
   77SLPC  H13C 6941   0.556   4.672   7.493 -0.7008  0.1527  0.3138
   77SLPC   C14 6942   0.307   4.703   7.389  0.3239 -0.3038  0.1535
   77SLPC  H14A 6943   0.217   4.654   7.359  0.7237 -0.3158 -1.0628
   77SLPC  H14B 6944   0.322   4.701   7.496  0.0458  0.3621  0.2100
   77SLPC  H14C 6945   0.305   4.809   7.370 -0.2986 -0.0593  1.4416
   77SLPC   C15 6946   0.417   4.494   7.339 -0.4009  0.2056  0.0729
   77SLPC  H15A 6947   0.420   4.469   7.444  1.6760  0.1614  0.0527
   77SLPC  H15B 6948   0.324   4.454   7.304 -2.2186  0.2480  4.2360
   77SLPC  H15C 6949   0.504   4.445   7.297 -0.5231 -0.2762  0.3881
   77SLPC   C12 6950   0.435   4.684   7.177 -0.4967 -0.4371 -0.4625
   77SLPC  H12A 6951   0.433   4.791   7.170 -1.0447 -0.3575  0.7434
   77SLPC  H12B 6952   0.344   4.662   7.122 -0.1027 -1.0552 -0.8873
   77SLPC   C11 6953   0.557   4.620   7.110 -0.0142 -0.6103 -0.5111
   77SLPC  H11A 6954   0.532   4.602   7.003  1.7931 -2.3476 -0.6858
   77SLPC  H11B 6955   0.601   4.523   7.140  0.2122 -1.2030 -2.6054
   77SLPC     P 6956   0.661   4.860   7.045 -0.2172  0.1091  0.0944
   77SLPC   O13 6957   0.528   4.853   6.985  0.0085 -0.8547 -0.1009
   77SLPC   O14 6958   0.697   4.960   7.146  0.2986  0.2878 -0.4956
   77SLPC   O12 6959   0.674   4.718   7.112  0.5280  0.4180  0.1088
   77SLPC   O11 6960   0.776   4.860   6.932  0.6734 -0.2473 -0.1100
   77SLPC    C1 6961   0.846   4.747   6.891  0.4246 -0.0091  0.5425
   77SLPC    HA 6962   0.936   4.722   6.953  0.1311 -1.8012  0.3077
   77SLPC    HB 6963   0.786   4.654   6.899  2.0702 -1.5009 -2.7041
   77SLPC    C2 6964   0.883   4.747   6.737  0.1638  0.6727 -1.4871
   77SLPC    HS 6965   0.893   4.639   6.716 -0.0711  0.1304  0.8563
   77SLPC   O21 6966   1.002   4.824   6.711  0.5526  0.3269  0.2989
   77SLPC   C21 6967   1.121   4.786   6.735 -0.2425  0.4329  0.2080
   77SLPC   O22 6968   1.154   4.679   6.785 -0.1270 -0.1987  0.3571
   77SLPC   C22 6969   1.221   4.893   6.677  0.7834  0.4953  0.0722
   77SLPC   H2R 6970   1.161   4.957   6.608  1.4145  1.0287  0.0086
   77SLPC   H2S 6971   1.247   4.954   6.766  0.2819 -0.4197  0.8590
   77SLPC    C3 6972   0.759   4.806   6.659 -0.3616 -0.2060 -0.4705
   77SLPC    HX 6973   0.726   4.905   6.698 -0.6531 -0.0757 -1.0295
   77SLPC    HY 6974   0.672   4.743   6.684  1.1281 -1.2589  2.6120
   77SLPC   O31 6975   0.778   4.807   6.519 -0.2391 -0.3576 -0.2197
   77SLPC   C31 6976   0.814   4.924   6.471  0.2135 -0.7391 -0.3701
   77SLPC   O32 6977   0.832   5.028   6.535  0.3974 -0.0663 -0.5167
   77SLPC   C32 6978   0.845   4.907   6.327  0.9160  0.2863 -0.3401
   77SLPC   H2X 6979   0.757   4.859   6.278  2.4167 -2.7868 -0.2807
   77SLPC   H2Y 6980   0.921   4.827   6.317  0.6526  0.2581 -2.6488
   77SLPC   C23 6981   1.344   4.838   6.606 -0.5359  0.3142  0.7292
   77SLPC   H3R 6982   1.420   4.793   6.674  2.2649  1.3740 -1.4696
   77SLPC   H3S 6983   1.410   4.918   6.566 -1.5724  0.9040  0.1591
   77SLPC   C24 6984   1.320   4.744   6.485  0.0213  0.0867 -0.9314
   77SLPC   H4R 6985   1.276   4.647   6.516 -0.8521  1.0320  0.9829
   77SLPC   H4S 6986   1.420   4.724   6.440 -0.0951 -1.1326 -0.6736
   77SLPC   C25 6987   1.228   4.806   6.382 -0.3264 -0.1537 -0.2117
   77SLPC   H5R 6988   1.258   4.911   6.365  1.7825 -0.9811 -2.0277
   77SLPC   H5S 6989   1.125   4.809   6.425 -1.0155  2.2671 -1.8490
   77SLPC   C26 6990   1.237   4.731   6.243  0.1182 -0.8159  0.3056
   77SLPC   H6R 6991   1.133   4.734   6.203 -0.3242  0.3171  1.4738
   77SLPC   H6S 6992   1.279   4.630   6.264  2.3357 -0.1729 -0.7542
   77SLPC   C27 6993   1.328   4.795   6.137  0.0408 -0.2903  0.6697
   77SLPC   H7R 6994   1.413   4.820   6.204 -1.1706 -0.7261  2.4599
   77SLPC   H7S 6995   1.286   4.891   6.100  1.5418  0.4700  0.8687
   77SLPC   C28 6996   1.357   4.698   6.017  0.0648  0.4849 -0.3994
   77SLPC   H8R 6997   1.259   4.655   5.987  0.2746 -0.4240  0.1974
   77SLPC   H8S 6998   1.417   4.620   6.069  1.0266 -0.1524 -2.3685
   77SLPC   C29 6999   1.451   4.762   5.924  0.1889  0.6873 -0.2661
   77SLPC   H9R 7000   1.551   4.775   5.969  0.2813 -1.5650  0.2651
   77SLPC  C210 7001   1.430   4.814   5.804 -0.3397 -0.2513 -0.1586
   77SLPC  H10R 7002   1.517   4.862   5.756  0.0695  0.7965  1.5659
   77SLPC  C211 7003   1.298   4.811   5.738 -0.7035  0.5263 -0.3046
   77SLPC  H11R 7004   1.270   4.703   5.742  0.9787  0.0879  0.7795
   77SLPC  H11S 7005   1.327   4.842   5.636  0.6975  2.6974  0.6946
   77SLPC  C212 7006   1.190   4.893   5.800  0.8083  0.0093 -0.2859
   77SLPC  H12R 7007   1.190   4.896   5.910  0.6073 -2.0859 -0.1846
   77SLPC  C213 7008   1.090   4.963   5.739  0.1533 -0.5088  0.1879
   77SLPC  H13R 7009   1.033   5.036   5.798  1.8079 -0.1273  1.4037
   77SLPC  C214 7010   1.065   4.977   5.594 -0.0209 -0.3152 -0.8906
   77SLPC  H14R 7011   1.077   4.879   5.544  0.6296 -1.6079  1.6261
   77SLPC  H14S 7012   1.143   5.042   5.549 -0.9703  0.4423 -1.4771
   77SLPC  C215 7013   0.924   5.030   5.566 -0.9601 -0.3477 -0.1617
   77SLPC  H15R 7014   0.935   5.136   5.599 -0.1550 -0.1862 -0.9187
   77SLPC  H15S 7015   0.844   4.981   5.625  1.0035 -2.2132  1.1103
   77SLPC  C216 7016   0.901   5.029   5.411 -0.5092  0.2754 -1.0476
   77SLPC  H16R 7017   0.906   4.931   5.359  0.1710 -2.0279  2.9491
   77SLPC  H16S 7018   0.987   5.084   5.366 -0.5735  1.3247  0.0652
   77SLPC  C217 7019   0.765   5.083   5.373 -0.5025 -0.3825 -0.0118
   77SLPC  H17R 7020   0.749   5.182   5.421 -0.1875 -0.4440  0.2232
   77SLPC  H17S 7021   0.700   5.005   5.420  1.0492 -0.6327  1.8816
   77SLPC  C218 7022   0.754   5.082   5.217  0.6573  0.4132  0.1077
   77SLPC  H18R 7023   0.774   4.983   5.170  0.9578  0.7861 -0.5748
   77SLPC  H18S 7024   0.841   5.140   5.179  0.6391 -1.4991 -3.2024
   77SLPC  H18T 7025   0.655   5.118   5.182 -1.6381 -2.5871  2.8787
   77SLPC   C33 7026   0.893   5.032   6.242  0.6183 -1.2934 -0.5294
   77SLPC   H3X 7027   0.986   5.066   6.292  0.1249 -1.6737  0.6873
   77SLPC   H3Y 7028   0.819   5.114   6.246  1.1864 -0.7922 -0.2396
   77SLPC   C34 7029   0.932   5.004   6.098  0.7049 -0.4924  0.0695
   77SLPC   H4X 7030   0.966   4.898   6.089  2.7286  0.1644 -0.5359
   77SLPC   H4Y 7031   1.012   5.077   6.073 -2.5359  4.2697  2.0334
   77SLPC   C35 7032   0.805   5.019   6.007  0.4859 -0.5493 -0.1599
   77SLPC   H5X 7033   0.727   4.962   6.062  1.1106  0.0528  1.4045
   77SLPC   H5Y 7034   0.825   4.968   5.910  3.1398  2.5188 -1.4105
   77SLPC   C36 7035   0.760   5.159   5.971 -0.6083 -0.0517  0.2635
   77SLPC   H6X 7036   0.841   5.217   5.923 -0.1135 -1.0664 -0.1391
   77SLPC   H6Y 7037   0.724   5.201   6.068 -1.2160 -1.1302  0.5213
   77SLPC   C37 7038   0.635   5.158   5.886  0.2605  0.4102 -0.5530
   77SLPC   H7X 7039   0.553   5.112   5.946  1.4059  0.3387  0.9879
   77SLPC   H7Y 7040   0.647   5.089   5.799  1.2923 -1.7514  1.2058
   77SLPC   C38 7041   0.601   5.297   5.831 -0.0683 -0.0544  0.9605
   77SLPC   H8X 7042   0.600   5.372   5.912  0.1837  0.8929  0.1044
   77SLPC   H8Y 7043   0.496   5.279   5.798 -0.1371  1.7979  0.0598
   77SLPC   C39 7044   0.692   5.340   5.708 -0.2905  0.0828 -0.4415
   77SLPC   H9X 7045   0.681   5.271   5.621 -0.3695  1.3118 -1.4354
   77SLPC   H9Y 7046   0.800   5.329   5.732  0.2373 -1.2824 -3.0023
   77SLPC  C310 7047   0.657   5.470   5.644 -0.5029 -0.5248 -0.1514
   77SLPC  H10X 7048   0.730   5.499   5.566 -1.0652 -1.9104 -1.2443
   77SLPC  H10Y 7049   0.665   5.547   5.724 -1.7607  0.3148 -0.8120
   77SLPC  C311 7050   0.515   5.486   5.594 -0.2723 -0.5281 -0.1561
   77SLPC  H11X 7051   0.490   5.590   5.566 -1.3140 -0.9704 -0.9412
   77SLPC  H11Y 7052   0.438   5.460   5.670  0.0648  1.9735  1.1620
   77SLPC  C312 7053   0.488   5.407   5.464 -0.2286 -0.3940 -0.2402
   77SLPC  H12X 7054   0.586   5.377   5.421  0.1341 -0.3861  0.5757
   77SLPC  H12Y 7055   0.445   5.479   5.391 -0.7932  1.9909  2.2619
   77SLPC  C313 7056   0.417   5.278   5.481 -0.6569  0.0958  0.1841
   77SLPC  H13X 7057   0.318   5.309   5.520 -1.6219 -0.0083 -2.0367
   77SLPC  H13Y 7058   0.463   5.215   5.561 -0.9178 -0.7678 -0.3300
   77SLPC  C314 7059   0.395   5.214   5.346 -0.2627  0.0684 -0.1160
   77SLPC  H14X 7060   0.491   5.168   5.314 -0.0013 -0.0501  0.8172
   77SLPC  H14Y 7061   0.368   5.301   5.284  0.7326 -0.1400 -0.8732
   77SLPC  C315 7062   0.289   5.112   5.370 -0.0558  0.3935 -0.5421
   77SLPC  H15X 7063   0.207   5.150   5.435 -0.5229 -0.3036 -0.7144
   77SLPC  H15Y 7064   0.325   5.021   5.423 -2.0804 -0.6059 -0.7737
   77SLPC  C316 7065   0.227   5.064   5.230 -0.5909  0.1301 -0.0922
   77SLPC  H16X 7066   0.182   5.152   5.180  2.9642  3.2288  1.6955
   77SLPC  H16Y 7067   0.156   4.982   5.255 -2.4521  1.3457 -1.1967
   77SLPC  C317 7068   0.325   4.998   5.129  0.4793  0.4073  0.2449
   77SLPC  H17X 7069   0.382   4.931   5.196 -1.3945 -1.4543  0.0529
   77SLPC  H17Y 7070   0.392   5.080   5.094 -1.9596  2.3140 -0.2662
   77SLPC  C318 7071   0.268   4.919   5.011 -0.4106  0.0413  0.7886
   77SLPC  H18X 7072   0.237   4.816   5.039 -0.3449  0.1166  1.1425
   77SLPC  H18Y 7073   0.349   4.922   4.935 -0.3135 -0.1277  0.8854
   77SLPC  H18Z 7074   0.181   4.974   4.970 -1.1207  0.1338  2.3402
   78SLPC     N 7075   5.139   1.215   7.335  0.7366  0.3481  0.0654
   78SLPC   C13 7076   5.134   1.204   7.483  0.6438  0.1918  0.9435
   78SLPC  H13A 7077   5.044   1.161   7.524 -0.7141  1.8651 -0.1431
   78SLPC  H13B 7078   5.221   1.154   7.523 -0.5672 -3.8723 -1.0501
   78SLPC  H13C 7079   5.129   1.307   7.517 -0.4633  1.3717 -2.3962
   78SLPC   C14 7080   5.253   1.297   7.282 -0.1448  0.2390 -0.4963
   78SLPC  H14A 7081   5.262   1.285   7.175 -2.3998  0.0019 -0.7070
   78SLPC  H14B 7082   5.243   1.400   7.313  1.4048  0.1610  0.3571
   78SLPC  H14C 7083   5.349   1.271   7.325  0.6289  1.7460 -1.2240
   78SLPC   C15 7084   5.011   1.291   7.288  0.2891  0.1875 -0.4032
   78SLPC  H15A 7085   5.003   1.387   7.336 -2.8497  0.3988 -1.1574
   78SLPC  H15B 7086   5.013   1.305   7.181 -1.0633  3.5169 -0.1182
   78SLPC  H15C 7087   4.920   1.237   7.311  0.0707 -0.2649 -2.1872
   78SLPC   C12 7088   5.131   1.077   7.271 -0.6693  0.4397  0.0730
   78SLPC  H12A 7089   5.031   1.039   7.288  0.0573 -0.9778  1.4782
   78SLPC  H12B 7090   5.194   1.003   7.319  1.1169  1.7435 -0.1846
   78SLPC   C11 7091   5.152   1.070   7.118  0.0599 -0.1627 -0.3897
   78SLPC  H11A 7092   5.084   1.144   7.071  1.2215  2.0613  1.2486
   78SLPC  H11B 7093   5.118   0.971   7.080  0.6425 -1.1517  1.5116
   78SLPC     P 7094   5.333   1.155   6.953  0.3261  0.2311 -0.2308
   78SLPC   O13 7095   5.272   1.294   6.942  0.2890 -0.6083 -0.3426
   78SLPC   O14 7096   5.477   1.154   6.945 -0.5064 -0.0300  0.7579
   78SLPC   O12 7097   5.284   1.091   7.087 -0.1905 -0.4094 -0.3415
   78SLPC   O11 7098   5.270   1.068   6.835  0.3866 -0.0108  0.6879
   78SLPC    C1 7099   5.278   0.926   6.837  0.9783  0.5396  0.4167
   78SLPC    HA 7100   5.346   0.888   6.916 -0.8786  0.9931  2.3244
   78SLPC    HB 7101   5.179   0.881   6.861  0.8924  0.9535  0.8414
   78SLPC    C2 7102   5.321   0.864   6.701 -0.4096 -0.1647 -0.1752
   78SLPC    HS 7103   5.360   0.761   6.716  0.1774  0.0195 -0.3876
   78SLPC   O21 7104   5.408   0.957   6.629  0.2389 -0.2169  0.3958
   78SLPC   C21 7105   5.528   0.974   6.681  0.4044  0.2521  0.0411
   78SLPC   O22 7106   5.570   0.914   6.779  0.3056  0.1692 -0.5448
   78SLPC   C22 7107   5.605   1.083   6.607 -0.1094 -0.5016 -0.1774
   78SLPC   H2R 7108   5.539   1.172   6.605  0.3726 -0.0057  2.4444
   78SLPC   H2S 7109   5.684   1.116   6.678 -0.3408 -0.8902  0.2672
   78SLPC    C3 7110   5.194   0.840   6.611 -0.3761  0.2821 -0.5195
   78SLPC    HX 7111   5.225   0.814   6.507 -0.9392 -1.9383 -0.1928
   78SLPC    HY 7112   5.133   0.933   6.603 -2.9685 -1.2296  0.4859
   78SLPC   O31 7113   5.118   0.727   6.668  1.0557  0.2431  0.2936
   78SLPC   C31 7114   4.994   0.714   6.625  0.4017 -0.5312  0.0540
   78SLPC   O32 7115   4.932   0.797   6.559  0.4293 -0.4101  0.5757
   78SLPC   C32 7116   4.937   0.575   6.653 -0.3536 -0.1088 -0.5063
   78SLPC   H2X 7117   4.827   0.576   6.635 -0.4945 -1.2218  0.1831
   78SLPC   H2Y 7118   4.956   0.563   6.762  1.8542  0.1188 -0.8319
   78SLPC   C23 7119   5.678   1.031   6.480 -0.0282 -0.3674 -0.7975
   78SLPC   H3R 7120   5.753   0.956   6.513  0.7540  0.2247 -1.1752
   78SLPC   H3S 7121   5.729   1.124   6.448 -0.0526  0.2332  0.8335
   78SLPC   C24 7122   5.588   0.971   6.375  0.6981 -0.1947 -0.1193
   78SLPC   H4R 7123   5.509   1.046   6.355 -0.1342 -1.0760 -0.1835
   78SLPC   H4S 7124   5.560   0.870   6.411 -0.3172  0.1716  0.1471
   78SLPC   C25 7125   5.670   0.948   6.246  0.4046  0.1817  0.2986
   78SLPC   H5R 7126   5.767   0.904   6.278 -0.1191  0.2602  2.1462
   78SLPC   H5S 7127   5.696   1.051   6.215 -2.8426  1.2355  0.6681
   78SLPC   C26 7128   5.594   0.866   6.145  0.4014  0.1730  0.1073
   78SLPC   H6R 7129   5.486   0.891   6.141  0.3514  0.0461  0.5919
   78SLPC   H6S 7130   5.610   0.762   6.181 -0.9171 -0.3133 -0.6435
   78SLPC   C27 7131   5.650   0.880   6.000 -0.6715  0.0673  1.1305
   78SLPC   H7R 7132   5.761   0.888   5.993 -0.6756 -1.2652 -2.3367
   78SLPC   H7S 7133   5.604   0.972   5.958 -1.0908 -0.2161  0.9624
   78SLPC   C28 7134   5.624   0.760   5.905  0.6751  0.7665 -0.2408
   78SLPC   H8R 7135   5.514   0.745   5.901  0.4351  2.3418 -0.1646
   78SLPC   H8S 7136   5.669   0.668   5.948  0.6066  1.0079  0.3558
   78SLPC   C29 7137   5.678   0.792   5.769  0.1374 -0.3269 -0.0366
   78SLPC   H9R 7138   5.648   0.891   5.730 -0.9298 -0.7121 -0.2235
   78SLPC  C210 7139   5.761   0.711   5.699 -0.3279  0.4474  0.4905
   78SLPC  H10R 7140   5.799   0.758   5.607 -1.6637  2.4971  0.9162
   78SLPC  C211 7141   5.824   0.583   5.744  0.3118  0.5650 -0.0027
   78SLPC  H11R 7142   5.846   0.603   5.851  0.8926  2.0500 -0.3735
   78SLPC  H11S 7143   5.924   0.575   5.697 -0.8087  0.3834 -2.5737
   78SLPC  C212 7144   5.738   0.457   5.723  0.2700  0.0057 -0.3646
   78SLPC  H12R 7145   5.635   0.471   5.756  0.8366  0.5684  1.2307
   78SLPC  C213 7146   5.765   0.339   5.660 -0.3575 -0.1914 -0.7817
   78SLPC  H13R 7147   5.686   0.263   5.652 -1.5712  0.5438  2.5485
   78SLPC  C214 7148   5.905   0.315   5.602  0.9018  0.2928  0.3131
   78SLPC  H14R 7149   5.974   0.402   5.595 -0.6604  1.4260 -1.8949
   78SLPC  H14S 7150   5.892   0.293   5.494  1.0426 -0.9776  0.5348
   78SLPC  C215 7151   5.974   0.195   5.668  0.3612 -0.7131  0.4217
   78SLPC  H15R 7152   6.051   0.165   5.594  0.3829  1.0253 -0.3190
   78SLPC  H15S 7153   5.909   0.107   5.683 -3.1796  0.9930 -2.9825
   78SLPC  C216 7154   6.048   0.231   5.797  0.3080  0.8052 -0.0375
   78SLPC  H16R 7155   5.980   0.288   5.864  2.5497  1.8901  1.4454
   78SLPC  H16S 7156   6.138   0.291   5.771  0.8028  0.1194  0.0787
   78SLPC  C217 7157   6.115   0.118   5.884  0.5577  0.8502  0.8018
   78SLPC  H17R 7158   6.162   0.051   5.808 -0.1028  1.9922 -0.6762
   78SLPC  H17S 7159   6.039   0.054   5.933 -0.8301  1.2015 -0.8123
   78SLPC  C218 7160   6.231   0.158   5.977  0.0944  0.5473  0.9718
   78SLPC  H18R 7161   6.274   0.064   6.017  1.8706  1.5829  1.6149
   78SLPC  H18S 7162   6.197   0.208   6.070 -1.2935  0.0768  0.7519
   78SLPC  H18T 7163   6.307   0.221   5.927  1.8725 -2.0678  0.1853
   78SLPC   C33 7164   5.011   0.462   6.576 -0.6149 -0.3913 -0.4126
   78SLPC   H3X 7165   4.970   0.362   6.597  0.4464 -0.7206  0.1810
   78SLPC   H3Y 7166   5.117   0.461   6.610  0.1935 -1.7039 -2.7071
   78SLPC   C34 7167   5.022   0.480   6.423 -0.2891  0.5405 -0.6026
   78SLPC   H4X 7168   5.088   0.397   6.390  0.2925  0.2656  1.1517
   78SLPC   H4Y 7169   5.056   0.582   6.394 -0.3237  0.7952  0.2222
   78SLPC   C35 7170   4.883   0.459   6.362 -0.1991  1.0309 -0.1656
   78SLPC   H5X 7171   4.818   0.546   6.388 -1.2305  1.2622 -3.1092
   78SLPC   H5Y 7172   4.833   0.375   6.415 -0.0647  0.1765 -1.3436
   78SLPC   C36 7173   4.876   0.441   6.207  0.2088 -0.3696 -0.4187
   78SLPC   H6X 7174   4.925   0.343   6.189  2.7477  0.7618 -0.1258
   78SLPC   H6Y 7175   4.941   0.518   6.160 -2.0414  0.9762 -1.5007
   78SLPC   C37 7176   4.737   0.444   6.151  0.0368 -0.7312 -0.9864
   78SLPC   H7X 7177   4.707   0.549   6.175 -1.9765 -1.4694 -0.0361
   78SLPC   H7Y 7178   4.665   0.373   6.197 -0.8569  1.1346  0.6239
   78SLPC   C38 7179   4.736   0.421   5.992  0.0127  0.2056 -0.3242
   78SLPC   H8X 7180   4.770   0.517   5.948 -0.6905  0.8540  0.5053
   78SLPC   H8Y 7181   4.627   0.408   5.975 -0.1973  1.5271 -0.0817
   78SLPC   C39 7182   4.811   0.298   5.936  0.3657  0.4264 -0.1579
   78SLPC   H9X 7183   4.778   0.206   5.989  0.1296 -0.3787 -1.6362
   78SLPC   H9Y 7184   4.921   0.301   5.953  0.5481 -0.5630 -1.0089
   78SLPC  C310 7185   4.787   0.269   5.787 -0.0238 -0.0008 -0.2144
   78SLPC  H10X 7186   4.678   0.267   5.769 -0.2513  0.1128  1.0461
   78SLPC  H10Y 7187   4.818   0.169   5.750 -1.4999 -1.2914  1.7721
   78SLPC  C311 7188   4.847   0.380   5.697  0.2268 -0.2366  0.6620
   78SLPC  H11X 7189   4.957   0.368   5.701  0.1991 -1.1956 -0.6817
   78SLPC  H11Y 7190   4.823   0.476   5.748  0.9686 -0.8901  2.2951
   78SLPC  C312 7191   4.806   0.388   5.550  0.0635  0.3551 -0.3439
   78SLPC  H12X 7192   4.709   0.442   5.553 -0.1103  0.1593 -1.9184
   78SLPC  H12Y 7193   4.792   0.292   5.496 -0.7973 -0.1553  0.7289
   78SLPC  C313 7194   4.901   0.482   5.473  0.6499 -0.5824  0.7541
   78SLPC  H13X 7195   5.003   0.443   5.452  1.1360  1.0562 -0.0596
   78SLPC  H13Y 7196   4.912   0.584   5.515  3.7847  0.6170 -2.4590
   78SLPC  C314 7197   4.841   0.530   5.335 -0.0709  0.3426 -0.0613
   78SLPC  H14X 7198   4.737   0.566   5.350 -0.1318  0.5977 -1.0141
   78SLPC  H14Y 7199   4.815   0.432   5.288  0.1880  0.6426 -0.8520
   78SLPC  C315 7200   4.915   0.615   5.246 -0.2175 -0.0492 -0.1535
   78SLPC  H15X 7201   5.015   0.568   5.241 -0.2671 -0.1158 -0.6607
   78SLPC  H15Y 7202   4.947   0.713   5.289  0.9106 -1.1324  1.5707
   78SLPC  C316 7203   4.872   0.626   5.099 -0.5940 -1.0154  0.2186
   78SLPC  H16X 7204   4.841   0.525   5.064  2.3002 -1.5915 -0.8975
   78SLPC  H16Y 7205   4.958   0.661   5.039 -0.2976 -1.1066  0.5881
   78SLPC  C317 7206   4.753   0.718   5.079  0.6456  0.1184 -0.6993
   78SLPC  H17X 7207   4.777   0.814   5.129 -2.6943  0.7684 -0.0909
   78SLPC  H17Y 7208   4.663   0.676   5.130  0.5859 -1.8966 -2.3260
   78SLPC  C318 7209   4.720   0.743   4.929 -0.1797 -0.1333 -0.2130
   78SLPC  H18X 7210   4.689   0.646   4.886  1.1344 -0.7184  0.1161
   78SLPC  H18Y 7211   4.805   0.784   4.871 -0.5632 -1.1953 -1.5782
   78SLPC  H18Z 7212   4.633   0.813   4.922  0.2655  0.5492  0.8362
   79SLPC     N 7213   1.461   2.920   7.183  0.0904  0.2154 -0.4718
   79SLPC   C13 7214   1.476   2.862   7.046  0.7583 -0.0960  0.1374
   79SLPC  H13A 7215   1.533   2.771   7.045  3.3938  1.4459 -1.6746
   79SLPC  H13B 7216   1.375   2.840   7.015  0.5791 -0.5130  0.9730
   79SLPC  H13C 7217   1.514   2.929   6.970 -0.2089  0.9222  0.5076
   79SLPC   C14 7218   1.601   2.960   7.225  0.5377  0.4198 -0.1407
   79SLPC  H14A 7219   1.616   2.983   7.329 -0.5917 -2.4221  0.7399
   79SLPC  H14B 7220   1.666   2.875   7.203  1.7949  1.9167 -2.7630
   79SLPC  H14C 7221   1.641   3.034   7.157  0.5505 -0.3802 -1.0274
   79SLPC   C15 7222   1.402   2.810   7.264  0.9328  0.0582 -0.5898
   79SLPC  H15A 7223   1.353   2.855   7.348 -0.7538 -0.9069 -1.0094
   79SLPC  H15B 7224   1.322   2.759   7.213  2.1211  0.0887 -2.6046
   79SLPC  H15C 7225   1.464   2.725   7.287 -1.3236 -2.0638 -1.8909
   79SLPC   C12 7226   1.376   3.044   7.191  0.1346  0.3074  0.4952
   79SLPC  H12A 7227   1.369   3.084   7.291  0.1277  4.8918 -1.0663
   79SLPC  H12B 7228   1.275   3.018   7.161  0.5691  0.1988 -0.9941
   79SLPC   C11 7229   1.403   3.153   7.089 -0.4009 -0.5201  0.3301
   79SLPC  H11A 7230   1.513   3.168   7.094 -0.4209 -0.6386  1.6343
   79SLPC  H11B 7231   1.350   3.244   7.125 -0.6667 -1.0071  1.2048
   79SLPC     P 7232   1.215   3.109   6.914 -0.7904 -0.5026  0.2328
   79SLPC   O13 7233   1.153   2.986   6.960  0.4336 -0.5261 -0.1205
   79SLPC   O14 7234   1.163   3.239   6.967 -0.0196  0.2923 -0.4193
   79SLPC   O12 7235   1.367   3.119   6.958 -0.2085  0.1083 -0.2712
   79SLPC   O11 7236   1.223   3.116   6.756  0.1750  0.5354 -0.0250
   79SLPC    C1 7237   1.312   3.212   6.694 -0.0286  0.5836  0.1229
   79SLPC    HA 7238   1.257   3.306   6.673  0.5993  1.2156  1.2156
   79SLPC    HB 7239   1.406   3.236   6.747 -0.4340 -0.0122  1.1265
   79SLPC    C2 7240   1.355   3.169   6.549 -0.0603  0.8146 -0.3280
   79SLPC    HS 7241   1.442   3.103   6.570  1.2280  2.0399 -1.5446
   79SLPC   O21 7242   1.405   3.275   6.478 -0.3202 -0.4140 -0.3710
   79SLPC   C21 7243   1.520   3.332   6.516  0.4507  0.3393  0.0757
   79SLPC   O22 7244   1.591   3.296   6.606  0.2487  0.1354 -0.3774
   79SLPC   C22 7245   1.545   3.460   6.433 -0.0901  0.4825 -0.1068
   79SLPC   H2R 7246   1.448   3.503   6.403 -1.1454 -0.9393  1.0939
   79SLPC   H2S 7247   1.596   3.536   6.496 -1.7488  0.8494  0.8342
   79SLPC    C3 7248   1.239   3.101   6.472  0.1147 -0.8345  0.3410
   79SLPC    HX 7249   1.172   3.189   6.459  0.7384 -0.0955  1.7896
   79SLPC    HY 7250   1.184   3.038   6.545  2.1531 -0.3536  2.4123
   79SLPC   O31 7251   1.278   3.023   6.353 -0.6728  0.3103 -0.2349
   79SLPC   C31 7252   1.175   3.003   6.262 -0.1689  0.2597 -0.3830
   79SLPC   O32 7253   1.069   3.056   6.274 -0.2002 -0.1860 -0.6089
   79SLPC   C32 7254   1.234   2.928   6.141 -0.3255 -0.5151 -0.0450
   79SLPC   H2X 7255   1.214   2.819   6.154  1.2547 -0.7768  0.4264
   79SLPC   H2Y 7256   1.345   2.922   6.146 -0.4188 -0.9721  2.9608
   79SLPC   C23 7257   1.629   3.443   6.305  0.4062  0.3456 -0.3294
   79SLPC   H3R 7258   1.593   3.348   6.259  0.1875  0.0986  0.3396
   79SLPC   H3S 7259   1.738   3.433   6.323  0.5609 -0.2550 -1.5079
   79SLPC   C24 7260   1.624   3.559   6.206  0.0184  0.4597 -0.4615
   79SLPC   H4R 7261   1.622   3.660   6.252  0.2108  0.6865 -0.9535
   79SLPC   H4S 7262   1.528   3.550   6.151 -0.5890  0.7167  0.5243
   79SLPC   C25 7263   1.737   3.569   6.105  0.0395  0.0539  0.3238
   79SLPC   H5R 7264   1.735   3.481   6.038 -0.0818 -0.7437  1.3595
   79SLPC   H5S 7265   1.828   3.590   6.165  0.5349  1.9099 -0.9574
   79SLPC   C26 7266   1.722   3.687   6.000 -0.3327  1.1058 -0.4660
   79SLPC   H6R 7267   1.712   3.782   6.058 -0.9734  0.6133  0.2625
   79SLPC   H6S 7268   1.624   3.661   5.956 -0.2822 -1.5726  0.7996
   79SLPC   C27 7269   1.835   3.692   5.896 -0.3554 -0.1095  0.2195
   79SLPC   H7R 7270   1.846   3.595   5.843  0.7963  0.5195 -0.7303
   79SLPC   H7S 7271   1.930   3.704   5.952  0.2521 -0.6986 -0.6509
   79SLPC   C28 7272   1.825   3.807   5.793 -0.1687 -0.1393 -0.0181
   79SLPC   H8R 7273   1.807   3.897   5.855  1.1363  0.7489 -0.8763
   79SLPC   H8S 7274   1.735   3.793   5.729  0.4139 -2.5791 -0.4080
   79SLPC   C29 7275   1.957   3.803   5.720  0.4344  0.1704 -0.1814
   79SLPC   H9R 7276   2.040   3.785   5.789  1.2756 -0.9265 -1.4169
   79SLPC  C210 7277   1.975   3.820   5.587 -0.2619  0.1257 -0.8071
   79SLPC  H10R 7278   2.080   3.824   5.554  0.0908  1.0957  0.3405
   79SLPC  C211 7279   1.866   3.852   5.488  0.5074 -0.6905  0.6070
   79SLPC  H11R 7280   1.878   3.947   5.431  0.7783 -0.1603  1.5306
   79SLPC  H11S 7281   1.773   3.866   5.547 -0.9634 -1.8359 -1.3029
   79SLPC  C212 7282   1.818   3.734   5.395 -0.5206  0.6763 -0.3349
   79SLPC  H12R 7283   1.738   3.676   5.443  1.9674 -3.0393 -0.2675
   79SLPC  C213 7284   1.880   3.694   5.279 -0.2816  0.1271  0.6077
   79SLPC  H13R 7285   1.847   3.601   5.230  1.2610 -0.6963  1.0473
   79SLPC  C214 7286   1.994   3.768   5.218  0.4827  0.2206  0.5771
   79SLPC  H14R 7287   2.094   3.743   5.260  0.4524  2.0905  1.8934
   79SLPC  H14S 7288   1.981   3.878   5.212 -0.7232  0.0947  0.7290
   79SLPC  C215 7289   2.020   3.740   5.067  0.0167 -0.1218  0.3509
   79SLPC  H15R 7290   2.046   3.636   5.039  0.9628  0.4069 -0.8250
   79SLPC  H15S 7291   2.110   3.799   5.038 -0.0210 -0.0844  0.3096
   79SLPC  C216 7292   1.898   3.776   4.978 -0.8459  0.3452 -0.5139
   79SLPC  H16R 7293   1.868   3.881   4.997 -1.4540 -0.0206  0.6248
   79SLPC  H16S 7294   1.817   3.704   5.003  1.8648 -3.0144 -0.6906
   79SLPC  C217 7295   1.931   3.766   4.829  0.9037 -0.4631 -0.3369
   79SLPC  H17R 7296   1.835   3.763   4.772  0.2500 -1.3559  0.7574
   79SLPC  H17S 7297   1.963   3.661   4.809 -1.6434 -1.4192  0.1471
   79SLPC  C218 7298   2.008   3.884   4.767 -0.0143  0.0539 -0.3866
   79SLPC  H18R 7299   2.107   3.889   4.817 -0.4242  1.0015  0.3597
   79SLPC  H18S 7300   1.954   3.979   4.785 -0.1508  0.1447 -1.2454
   79SLPC  H18T 7301   2.012   3.866   4.657 -1.9038  0.1214 -0.5031
   79SLPC   C33 7302   1.187   2.993   6.009 -0.1610  0.7067  0.3325
   79SLPC   H3X 7303   1.212   3.101   6.006  1.3746  0.5779  3.9611
   79SLPC   H3Y 7304   1.076   2.981   6.002  0.0800 -1.2598 -0.9229
   79SLPC   C34 7305   1.267   2.934   5.890  0.1499  0.0142 -0.5025
   79SLPC   H4X 7306   1.246   2.825   5.892 -3.5577  0.6148  0.6158
   79SLPC   H4Y 7307   1.375   2.954   5.908 -0.4424  1.1429  2.3511
   79SLPC   C35 7308   1.238   2.994   5.751  0.1199 -0.4919 -0.2656
   79SLPC   H5X 7309   1.248   3.104   5.755 -1.4982 -0.3388  2.6029
   79SLPC   H5Y 7310   1.129   2.984   5.737 -0.1432 -0.2310  1.3888
   79SLPC   C36 7311   1.324   2.935   5.634  1.0460  0.3158  0.5911
   79SLPC   H6X 7312   1.324   2.824   5.639  1.2853  0.3221  0.7410
   79SLPC   H6Y 7313   1.425   2.980   5.647 -0.2137  4.4916 -1.8215
   79SLPC   C37 7314   1.279   2.973   5.489  0.1184 -0.3844 -0.5960
   79SLPC   H7X 7315   1.248   3.080   5.496 -2.2024 -0.9949 -0.7866
   79SLPC   H7Y 7316   1.186   2.914   5.475  0.4171 -1.2917  1.0741
   79SLPC   C38 7317   1.383   2.947   5.379 -0.2574 -0.4718  0.0559
   79SLPC   H8X 7318   1.396   2.837   5.373 -1.2484 -0.5840 -0.0952
   79SLPC   H8Y 7319   1.475   2.988   5.425  0.8919 -3.0206  0.1937
   79SLPC   C39 7320   1.366   3.021   5.243 -0.0791 -0.5096 -0.5624
   79SLPC   H9X 7321   1.403   3.124   5.263  1.2205 -0.9402 -0.6673
   79SLPC   H9Y 7322   1.257   3.013   5.226  0.0849 -0.5828 -1.6438
   79SLPC  C310 7323   1.455   2.949   5.133  0.6161 -0.2913  0.4711
   79SLPC  H10X 7324   1.440   2.839   5.142 -1.2359  0.0245  1.7850
   79SLPC  H10Y 7325   1.562   2.964   5.159  0.2946 -0.5724  2.0489
   79SLPC  C311 7326   1.427   2.991   4.990  0.0371 -0.4298 -0.1680
   79SLPC  H11X 7327   1.432   3.102   4.995  2.9357 -0.3260 -2.7416
   79SLPC  H11Y 7328   1.325   2.956   4.963  0.2314 -0.0904 -1.3890
   79SLPC  C312 7329   1.532   2.949   4.886 -0.0081 -0.1150 -0.4345
   79SLPC  H12X 7330   1.549   2.839   4.895  0.5486  0.1308  2.2370
   79SLPC  H12Y 7331   1.627   3.004   4.902  0.2931 -0.7631  0.0272
   79SLPC  C313 7332   1.487   2.966   4.745 -0.1191 -0.1626  0.5241
   79SLPC  H13X 7333   1.567   3.007   4.680 -1.8558  0.8440 -1.0710
   79SLPC  H13Y 7334   1.404   3.040   4.748 -0.2320 -0.3101  1.1509
   79SLPC  C314 7335   1.443   2.838   4.672 -0.6812 -0.8924  1.2688
   79SLPC  H14X 7336   1.522   2.769   4.637 -0.4658 -0.9358  1.8171
   79SLPC  H14Y 7337   1.386   2.874   4.584  1.2837  0.4152  0.4537
   79SLPC  C315 7338   1.336   2.761   4.749  0.4171  0.1648 -0.0782
   79SLPC  H15X 7339   1.263   2.828   4.800  0.8216  1.6019 -1.2969
   79SLPC  H15Y 7340   1.372   2.695   4.830 -0.6335 -1.0085 -0.5354
   79SLPC  C316 7341   1.247   2.679   4.653  0.4066  0.6943  0.8073
   79SLPC  H16X 7342   1.312   2.617   4.587  0.0429  0.8575  0.2886
   79SLPC  H16Y 7343   1.198   2.754   4.587  1.4953  1.3185  0.6715
   79SLPC  C317 7344   1.139   2.597   4.722 -0.0632  0.3028 -0.3215
   79SLPC  H17X 7345   1.061   2.672   4.748  2.6199  3.1596  0.1705
   79SLPC  H17Y 7346   1.172   2.545   4.814  1.1691  0.6944 -0.5083
   79SLPC  C318 7347   1.071   2.486   4.641 -0.2062  0.6828  0.5440
   79SLPC  H18X 7348   1.036   2.522   4.542  1.5147 -0.5412 -0.5471
   79SLPC  H18Y 7349   0.981   2.452   4.697  0.0136  1.8938  1.6823
   79SLPC  H18Z 7350   1.132   2.395   4.624  0.5844  1.5103 -1.3742
   80SLPC     N 7351   0.138   6.125   7.071  0.5390 -0.8144  0.4011
   80SLPC   C13 7352   0.193   6.032   7.177  1.0587  0.3337  0.1096
   80SLPC  H13A 7353   0.120   5.974   7.232  0.6755  0.1650 -0.5694
   80SLPC  H13B 7354   0.271   5.968   7.136  1.2986  1.8353 -1.9246
   80SLPC  H13C 7355   0.239   6.092   7.254 -1.4825  1.6458  0.6959
   80SLPC   C14 7356   0.048   6.236   7.125  0.0172 -0.3666 -0.0137
   80SLPC  H14A 7357  -0.001   6.297   7.050 -2.2180 -0.3575  1.3595
   80SLPC  H14B 7358  -0.037   6.192   7.174  0.5703  0.3360  1.6427
   80SLPC  H14C 7359   0.107   6.300   7.189  0.1550 -0.8415  0.3320
   80SLPC   C15 7360   0.059   6.043   6.976  0.4017 -0.2660 -0.1939
   80SLPC  H15A 7361   0.038   6.094   6.883 -0.0952  0.0688  0.1015
   80SLPC  H15B 7362   0.119   5.959   6.944  0.3571 -0.5180  0.3653
   80SLPC  H15C 7363  -0.028   5.996   7.019  0.0332 -0.7740 -1.4614
   80SLPC   C12 7364   0.245   6.203   6.998 -0.2291  0.2574  0.5799
   80SLPC  H12A 7365   0.284   6.275   7.068 -0.8150 -0.4411  1.6595
   80SLPC  H12B 7366   0.185   6.255   6.925 -0.5354 -0.3177  0.4198
   80SLPC   C11 7367   0.352   6.120   6.922 -0.0123 -0.0496  0.2848
   80SLPC  H11A 7368   0.297   6.048   6.856  1.7110  0.1626 -1.4561
   80SLPC  H11B 7369   0.410   6.059   6.994 -2.1660 -2.2284  0.3203
   80SLPC     P 7370   0.575   6.174   6.783  0.0832  0.4049  0.4249
   80SLPC   O13 7371   0.689   6.256   6.829  0.3510  0.3894 -0.6400
   80SLPC   O14 7372   0.595   6.024   6.777 -0.5395 -0.4909 -0.2419
   80SLPC   O12 7373   0.436   6.212   6.861 -0.5428 -0.8619  0.3297
   80SLPC   O11 7374   0.552   6.227   6.632 -0.0977  0.3055 -0.4793
   80SLPC    C1 7375   0.421   6.225   6.572  1.0020  0.5371 -0.5225
   80SLPC    HA 7376   0.334   6.258   6.633 -0.2181  0.2358 -2.0482
   80SLPC    HB 7377   0.420   6.295   6.486  1.3503  0.2300 -0.7783
   80SLPC    C2 7378   0.388   6.075   6.519  0.6879 -0.3556 -0.3496
   80SLPC    HS 7379   0.411   6.012   6.607  0.3122  0.6562  0.4986
   80SLPC   O21 7380   0.481   6.035   6.408 -0.5035 -0.0062 -0.2596
   80SLPC   C21 7381   0.494   5.906   6.389  0.4170 -0.5417  0.3403
   80SLPC   O22 7382   0.428   5.818   6.437  0.0524  0.2261  0.8665
   80SLPC   C22 7383   0.618   5.880   6.311 -0.1143 -0.3280  1.2574
   80SLPC   H2R 7384   0.717   5.888   6.361  0.2772  1.1769  0.3111
   80SLPC   H2S 7385   0.608   5.776   6.272  0.8234 -0.4523  1.3223
   80SLPC    C3 7386   0.240   6.040   6.489 -0.3857 -0.4922  0.5727
   80SLPC    HX 7387   0.187   6.045   6.587  1.5168 -0.0896  1.6441
   80SLPC    HY 7388   0.232   5.935   6.454  1.6161 -0.7669  0.8221
   80SLPC   O31 7389   0.178   6.126   6.389 -0.0224  0.1725  0.0060
   80SLPC   C31 7390   0.119   6.240   6.424  0.5202  0.0829  0.4006
   80SLPC   O32 7391   0.102   6.281   6.537 -0.1826  0.3963 -0.5820
   80SLPC   C32 7392   0.063   6.315   6.303 -0.5772  0.4389 -0.2136
   80SLPC   H2X 7393   0.001   6.249   6.239  1.4367 -1.0376 -0.7390
   80SLPC   H2Y 7394   0.156   6.338   6.246 -0.1163 -1.8195 -0.4560
   80SLPC   C23 7395   0.640   5.973   6.192  0.0331  0.2606  0.3212
   80SLPC   H3R 7396   0.672   6.074   6.224  0.1198  0.9705 -1.8492
   80SLPC   H3S 7397   0.542   5.997   6.144  0.3748  0.9241 -0.0610
   80SLPC   C24 7398   0.733   5.936   6.087 -0.2772  0.5593  1.0910
   80SLPC   H4R 7399   0.834   5.948   6.133  0.4922  1.5596 -0.7508
   80SLPC   H4S 7400   0.738   6.019   6.013  0.0787  1.3204  1.9385
   80SLPC   C25 7401   0.717   5.804   6.012 -0.3643 -0.2903 -0.8770
   80SLPC   H5R 7402   0.706   5.723   6.087 -1.4244  0.1440 -0.5498
   80SLPC   H5S 7403   0.810   5.783   5.953 -0.1117  0.2203 -0.6723
   80SLPC   C26 7404   0.594   5.796   5.915 -0.2881 -0.1158 -0.0562
   80SLPC   H6R 7405   0.492   5.789   5.959 -0.0958  1.3271  0.6914
   80SLPC   H6S 7406   0.610   5.704   5.856  3.2059  0.0296  0.4574
   80SLPC   C27 7407   0.582   5.915   5.822 -0.6391  0.1159  0.1132
   80SLPC   H7R 7408   0.681   5.917   5.773  1.5214 -0.5334  4.0106
   80SLPC   H7S 7409   0.572   6.010   5.878  1.0388 -0.6842  1.8994
   80SLPC   C28 7410   0.471   5.893   5.722  0.1645  0.2693  0.3555
   80SLPC   H8R 7411   0.370   5.891   5.769 -0.3124  1.7321 -0.5322
   80SLPC   H8S 7412   0.492   5.790   5.686 -0.7563  0.0415  0.4530
   80SLPC   C29 7413   0.469   5.997   5.615 -0.3202 -0.6050 -0.0767
   80SLPC   H9R 7414   0.573   6.026   5.591 -0.7643 -0.2784 -1.6903
   80SLPC  C210 7415   0.366   6.060   5.554 -0.1146 -0.5353  0.6739
   80SLPC  H10R 7416   0.393   6.124   5.469  1.0314 -0.4985  1.0476
   80SLPC  C211 7417   0.218   6.035   5.584 -0.0601 -0.4495 -0.1114
   80SLPC  H11R 7418   0.190   6.131   5.633  0.0708  0.3148 -1.4997
   80SLPC  H11S 7419   0.199   5.955   5.659 -3.2051 -0.4592 -0.7946
   80SLPC  C212 7420   0.129   6.010   5.466 -0.0937  0.2356  0.1684
   80SLPC  H12R 7421   0.075   6.101   5.436  0.5825  0.6195  0.0989
   80SLPC  C213 7422   0.106   5.887   5.404  0.1781 -0.1084 -0.1163
   80SLPC  H13R 7423   0.037   5.875   5.320 -0.4686 -2.1776  0.6329
   80SLPC  C214 7424   0.182   5.762   5.447 -0.2766 -0.9980 -0.0675
   80SLPC  H14R 7425   0.119   5.680   5.487  0.9772 -1.3744  1.2409
   80SLPC  H14S 7426   0.264   5.781   5.519  0.3897  1.3082 -1.3349
   80SLPC  C215 7427   0.256   5.707   5.324 -0.1506  0.0625 -0.1797
   80SLPC  H15R 7428   0.176   5.687   5.250 -1.4460  1.4411  0.7810
   80SLPC  H15S 7429   0.297   5.607   5.348  1.3011  0.7464  0.3335
   80SLPC  C216 7430   0.354   5.805   5.272 -0.6273  0.4540  0.2731
   80SLPC  H16R 7431   0.419   5.851   5.350  0.5573 -1.8346  0.7220
   80SLPC  H16S 7432   0.304   5.886   5.214  0.2308  0.9039  0.1493
   80SLPC  C217 7433   0.457   5.730   5.186 -0.0402  0.5559  0.6232
   80SLPC  H17R 7434   0.422   5.653   5.114  2.7909 -0.6601  0.4225
   80SLPC  H17S 7435   0.508   5.670   5.264 -0.1408  0.6255  0.7416
   80SLPC  C218 7436   0.553   5.825   5.117  0.2866 -1.1135 -0.2777
   80SLPC  H18R 7437   0.496   5.870   5.033  0.2075 -1.0871 -0.2092
   80SLPC  H18S 7438   0.636   5.766   5.072  1.6848 -0.7060  1.6512
   80SLPC  H18T 7439   0.590   5.897   5.192 -5.2059  0.4052  1.4109
   80SLPC   C33 7440  -0.010   6.441   6.340  0.5520  0.5156  0.5349
   80SLPC   H3X 7441   0.061   6.514   6.384  1.1050 -0.6366  1.5871
   80SLPC   H3Y 7442  -0.086   6.420   6.419  0.2899  1.6465  0.6129
   80SLPC   C34 7443  -0.071   6.513   6.221  0.2518  0.7173 -0.6612
   80SLPC   H4X 7444  -0.119   6.609   6.246 -0.4888  0.1690  0.0824
   80SLPC   H4Y 7445  -0.153   6.451   6.177  1.3390  0.1576 -1.9929
   80SLPC   C35 7446   0.026   6.544   6.107 -0.0893 -0.1575 -0.2323
   80SLPC   H5X 7447   0.080   6.453   6.071 -1.0589 -0.9619  0.2753
   80SLPC   H5Y 7448   0.103   6.611   6.149 -2.3998  1.5105  1.6384
   80SLPC   C36 7449  -0.021   6.642   5.995 -0.6318 -0.2604 -0.4035
   80SLPC   H6X 7450   0.046   6.649   5.907 -0.7838 -1.9298 -0.6662
   80SLPC   H6Y 7451  -0.027   6.744   6.041 -0.8913 -1.0545  1.4086
   80SLPC   C37 7452  -0.168   6.632   5.951  0.4986  0.0925  0.1429
   80SLPC   H7X 7453  -0.241   6.666   6.028 -1.3487 -3.7680  0.2949
   80SLPC   H7Y 7454  -0.186   6.523   5.946  3.4735 -0.5060  0.6126
   80SLPC   C38 7455  -0.193   6.695   5.814 -0.8657 -0.4701 -0.1016
   80SLPC   H8X 7456  -0.139   6.637   5.736 -2.2240 -1.0234 -0.6656
   80SLPC   H8Y 7457  -0.163   6.802   5.820  1.0887 -1.0053  0.2604
   80SLPC   C39 7458  -0.338   6.686   5.787  0.2126  0.2365 -0.3364
   80SLPC   H9X 7459  -0.391   6.746   5.864  2.1479  1.0862  0.3944
   80SLPC   H9Y 7460  -0.366   6.578   5.782  1.7247 -0.3441  2.1161
   80SLPC  C310 7461  -0.371   6.744   5.644 -0.1081 -0.3502  1.1752
   80SLPC  H10X 7462  -0.476   6.719   5.620 -0.2479  1.2050  0.0444
   80SLPC  H10Y 7463  -0.311   6.688   5.568  0.5659  1.5292  0.2472
   80SLPC  C311 7464  -0.355   6.901   5.629  0.1775  0.0860  1.1019
   80SLPC  H11X 7465  -0.250   6.927   5.657  0.9415 -3.2807  1.7511
   80SLPC  H11Y 7466  -0.418   6.954   5.703  0.8734  1.6914  0.6018
   80SLPC  C312 7467  -0.394   6.954   5.487 -0.4439 -0.4297 -0.1452
   80SLPC  H12X 7468  -0.368   6.875   5.414  1.4065  0.1055 -0.1098
   80SLPC  H12Y 7469  -0.323   7.033   5.456 -0.7520 -0.2250 -0.3403
   80SLPC  C313 7470  -0.535   7.015   5.467 -0.9495  0.4719  0.5307
   80SLPC  H13X 7471  -0.551   7.110   5.522 -2.7598 -0.1618  1.1762
   80SLPC  H13Y 7472  -0.613   6.945   5.504 -0.0889  0.4575  2.4095
   80SLPC  C314 7473  -0.561   7.044   5.319 -0.1056 -0.3938  0.6595
   80SLPC  H14X 7474  -0.490   6.993   5.250  0.7968  1.4820  0.1462
   80SLPC  H14Y 7475  -0.545   7.153   5.302  0.6829 -0.5281  0.4830
   80SLPC  C315 7476  -0.697   7.011   5.258 -0.2087  0.0104  0.0657
   80SLPC  H15X 7477  -0.771   7.089   5.288 -1.0504 -1.8673  3.4004
   80SLPC  H15Y 7478  -0.737   6.919   5.306 -2.0259  0.7349  0.0283
   80SLPC  C316 7479  -0.694   6.997   5.107  0.6125  0.1077 -0.2401
   80SLPC  H16X 7480  -0.618   6.924   5.072  1.6395  1.1314 -0.2080
   80SLPC  H16Y 7481  -0.668   7.100   5.075 -2.1456  1.7137  2.1616
   80SLPC  C317 7482  -0.830   6.957   5.045  0.1960 -0.5933 -0.5743
   80SLPC  H17X 7483  -0.853   6.850   5.064  1.9205 -1.4029 -2.6742
   80SLPC  H17Y 7484  -0.809   6.963   4.937  1.8269  2.3789 -0.1924
   80SLPC  C318 7485  -0.947   7.045   5.078 -0.4756  0.0525 -0.2152
   80SLPC  H18X 7486  -0.920   7.147   5.045 -1.8444  0.5630  0.2148
   80SLPC  H18Y 7487  -0.980   7.045   5.184 -1.9716  0.1153 -0.6584
   80SLPC  H18Z 7488  -1.028   6.999   5.018  0.4093 -0.8346 -0.7827
   81SLPC     N 7489   1.020   6.749   2.003 -0.5475 -0.1496 -0.3021
   81SLPC   C13 7490   1.148   6.730   2.078 -0.5424  0.1004  0.0615
   81SLPC  H13A 7491   1.152   6.784   2.171  0.3032  0.8544 -0.3868
   81SLPC  H13B 7492   1.154   6.626   2.105 -0.1533  0.8458  3.3134
   81SLPC  H13C 7493   1.226   6.766   2.012 -1.3552 -0.3983 -1.2017
   81SLPC   C14 7494   1.019   6.642   1.898  0.5965 -0.0176  0.5902
   81SLPC  H14A 7495   1.097   6.662   1.826  0.8230  2.4375  1.4581
   81SLPC  H14B 7496   1.023   6.543   1.943 -2.2550 -0.0981  0.8356
   81SLPC  H14C 7497   0.920   6.644   1.856  0.3977  2.1127  1.0902
   81SLPC   C15 7498   1.008   6.886   1.947  0.0001  0.1970 -0.2017
   81SLPC  H15A 7499   0.911   6.903   1.904 -0.7641 -0.5463  1.1532
   81SLPC  H15B 7500   1.025   6.958   2.026  1.2988  0.9562 -1.1300
   81SLPC  H15C 7501   1.075   6.904   1.864 -0.7611  1.1277 -0.6349
   81SLPC   C12 7502   0.906   6.727   2.099 -0.1554 -0.0333  0.2724
   81SLPC  H12A 7503   0.922   6.784   2.189 -0.0636 -0.3196  0.4389
   81SLPC  H12B 7504   0.895   6.622   2.122 -0.5395 -0.1949 -0.5713
   81SLPC   C11 7505   0.760   6.768   2.052 -0.5291  0.2377  0.0779
   81SLPC  H11A 7506   0.692   6.727   2.130 -1.5407  2.3974  0.4239
   81SLPC  H11B 7507   0.731   6.728   1.953 -3.9107  1.7932  0.2932
   81SLPC     P 7508   0.743   7.007   2.159 -0.4223  0.0615  0.4391
   81SLPC   O13 7509   0.878   7.074   2.155 -0.1644  0.0892 -0.1227
   81SLPC   O14 7510   0.628   7.106   2.150 -0.1120  0.1815 -0.8378
   81SLPC   O12 7511   0.738   6.909   2.037 -0.5714  0.1002 -0.2683
   81SLPC   O11 7512   0.741   6.910   2.284 -0.2340 -0.2217  0.1690
   81SLPC    C1 7513   0.616   6.855   2.327 -1.2394  0.1838  0.1751
   81SLPC    HA 7514   0.538   6.872   2.249  1.1132  1.2883 -2.1037
   81SLPC    HB 7515   0.618   6.745   2.344 -0.4088 -0.3250 -2.7508
   81SLPC    C2 7516   0.566   6.914   2.463  0.6268 -0.2631  0.0262
   81SLPC    HS 7517   0.466   6.871   2.484  1.9574 -3.5825  0.2832
   81SLPC   O21 7518   0.582   7.058   2.456  0.3440  0.2558 -0.4692
   81SLPC   C21 7519   0.478   7.125   2.503  0.5596 -0.7486  0.4275
   81SLPC   O22 7520   0.371   7.077   2.540  0.3370 -0.5609 -0.2919
   81SLPC   C22 7521   0.512   7.272   2.503  0.7307  0.1062  0.1654
   81SLPC   H2R 7522   0.569   7.301   2.412  0.2308  1.6654  0.3132
   81SLPC   H2S 7523   0.414   7.325   2.503  0.7926  0.2427 -0.9206
   81SLPC    C3 7524   0.660   6.857   2.578 -0.7187  0.0423 -0.7220
   81SLPC    HX 7525   0.761   6.900   2.563 -1.6005  1.7338 -2.0646
   81SLPC    HY 7526   0.677   6.748   2.565  2.9643  0.4528 -0.3294
   81SLPC   O31 7527   0.607   6.893   2.710  0.2959  0.0336 -0.0050
   81SLPC   C31 7528   0.695   6.877   2.811 -0.6831  0.1896  0.3218
   81SLPC   O32 7529   0.806   6.832   2.798  0.0255  0.6392 -0.0399
   81SLPC   C32 7530   0.647   6.917   2.950 -0.3487  0.2829  0.2210
   81SLPC   H2X 7531   0.594   7.014   2.953 -1.2945 -0.1774 -0.8551
   81SLPC   H2Y 7532   0.736   6.924   3.017 -0.5580  0.7587  0.4557
   81SLPC   C23 7533   0.591   7.312   2.628  0.6930  0.6078 -0.4544
   81SLPC   H3R 7534   0.601   7.422   2.628 -0.0378  0.6783 -0.0007
   81SLPC   H3S 7535   0.688   7.262   2.647 -0.3181 -0.5336  2.2950
   81SLPC   C24 7536   0.503   7.270   2.754 -0.1671 -0.0040 -0.2208
   81SLPC   H4R 7537   0.502   7.159   2.763 -0.5731  0.0128 -0.0422
   81SLPC   H4S 7538   0.404   7.321   2.751  0.0895  0.4558 -2.6680
   81SLPC   C25 7539   0.580   7.316   2.888  0.3043 -0.7248  0.6801
   81SLPC   H5R 7540   0.610   7.420   2.865  0.1430 -1.0756 -1.2771
   81SLPC   H5S 7541   0.676   7.262   2.901  1.3501  0.9015 -0.0964
   81SLPC   C26 7542   0.483   7.313   3.010  0.5968 -0.2987  0.1223
   81SLPC   H6R 7543   0.433   7.216   3.034  1.0816 -0.1948  1.6016
   81SLPC   H6S 7544   0.403   7.389   2.997  1.3258  0.8791  2.1686
   81SLPC   C27 7545   0.552   7.365   3.134 -0.1121  0.5843  0.0496
   81SLPC   H7R 7546   0.617   7.453   3.113  0.0150  0.4976  0.0774
   81SLPC   H7S 7547   0.627   7.286   3.157 -0.6709 -0.6285 -2.0565
   81SLPC   C28 7548   0.451   7.387   3.247 -0.7644  0.2571  0.4515
   81SLPC   H8R 7549   0.377   7.456   3.202 -0.0061  0.5990 -0.3154
   81SLPC   H8S 7550   0.504   7.446   3.325  1.9899 -1.0675 -0.3054
   81SLPC   C29 7551   0.385   7.267   3.310  0.0178  0.3580  0.5225
   81SLPC   H9R 7552   0.354   7.192   3.235  1.5978 -0.3506  0.5484
   81SLPC  C210 7553   0.363   7.240   3.442  0.2365 -0.3212  0.0413
   81SLPC  H10R 7554   0.299   7.153   3.465  1.2360 -0.7841  1.2013
   81SLPC  C211 7555   0.395   7.323   3.566  0.1035  0.2350  0.8287
   81SLPC  H11R 7556   0.408   7.426   3.527 -1.7313  0.2314  0.1289
   81SLPC  H11S 7557   0.498   7.299   3.601  0.8966  0.1933 -1.3806
   81SLPC  C212 7558   0.293   7.328   3.670  0.2349 -1.0425  0.2742
   81SLPC  H12R 7559   0.188   7.343   3.638 -0.2437  0.3845  2.2835
   81SLPC  C213 7560   0.324   7.343   3.802 -0.7180  0.0824 -0.1520
   81SLPC  H13R 7561   0.240   7.345   3.873  0.0754 -2.3254  0.9398
   81SLPC  C214 7562   0.460   7.342   3.877  1.1573  0.1212  1.0282
   81SLPC  H14R 7563   0.533   7.355   3.794  0.5216  1.3566  0.6254
   81SLPC  H14S 7564   0.485   7.251   3.934 -2.0020 -1.0675  0.7090
   81SLPC  C215 7565   0.470   7.463   3.976 -0.7309  0.0742  0.9093
   81SLPC  H15R 7566   0.387   7.452   4.050 -3.4274 -0.1814 -1.9183
   81SLPC  H15S 7567   0.444   7.558   3.924  0.6333 -0.1382 -0.1867
   81SLPC  C216 7568   0.616   7.464   4.024  0.2834 -0.3992  0.5902
   81SLPC  H16R 7569   0.682   7.479   3.935  0.0659 -1.4005  0.2531
   81SLPC  H16S 7570   0.645   7.368   4.070  1.2935 -0.5286 -0.2738
   81SLPC  C217 7571   0.640   7.578   4.124  0.3278 -0.2374  0.1747
   81SLPC  H17R 7572   0.574   7.558   4.211  0.7888 -2.2926  0.0936
   81SLPC  H17S 7573   0.605   7.675   4.082  1.5312 -0.0638 -0.4642
   81SLPC  C218 7574   0.783   7.594   4.173 -0.2826  0.4713  0.1490
   81SLPC  H18R 7575   0.779   7.683   4.238  1.5002  1.7391 -1.3689
   81SLPC  H18S 7576   0.845   7.609   4.082 -0.9656  0.9493 -0.2497
   81SLPC  H18T 7577   0.819   7.506   4.231 -0.2618 -1.5666 -2.7368
   81SLPC   C33 7578   0.563   6.808   3.005 -0.0215  0.1968  0.2896
   81SLPC   H3X 7579   0.628   6.718   3.014 -0.7315 -0.5315 -1.3960
   81SLPC   H3Y 7580   0.482   6.777   2.936 -0.5728  0.2758  0.8869
   81SLPC   C34 7581   0.496   6.842   3.139 -0.1447 -0.0565 -0.4845
   81SLPC   H4X 7582   0.442   6.937   3.120 -1.3120 -0.4002  0.8715
   81SLPC   H4Y 7583   0.568   6.856   3.222 -0.4037 -1.2629 -0.0336
   81SLPC   C35 7584   0.377   6.749   3.192  0.3552 -0.1159 -0.3270
   81SLPC   H5X 7585   0.418   6.652   3.229  1.7057  0.9762  1.2213
   81SLPC   H5Y 7586   0.306   6.724   3.111  0.2729 -1.2215  0.0653
   81SLPC   C36 7587   0.309   6.818   3.306  0.1067  0.3009 -0.0987
   81SLPC   H6X 7588   0.213   6.764   3.323 -1.0324  1.9005 -1.0498
   81SLPC   H6Y 7589   0.272   6.917   3.271 -1.3123 -0.4680 -0.9007
   81SLPC   C37 7590   0.387   6.812   3.433  0.4155 -0.0341 -0.2078
   81SLPC   H7X 7591   0.479   6.874   3.429 -0.4991  1.3359 -0.8480
   81SLPC   H7Y 7592   0.417   6.705   3.438  3.7769  0.8448  0.3401
   81SLPC   C38 7593   0.300   6.848   3.556  0.5220  0.2801 -0.5916
   81SLPC   H8X 7594   0.237   6.759   3.579 -0.8360  1.4201  0.2572
   81SLPC   H8Y 7595   0.223   6.920   3.523 -0.8406 -1.6990 -2.0049
   81SLPC   C39 7596   0.369   6.893   3.680  0.0754  0.1911  0.2186
   81SLPC   H9X 7597   0.413   6.995   3.669 -0.9719  0.5513 -0.7506
   81SLPC   H9Y 7598   0.452   6.824   3.705  0.8327  1.1959  0.5594
   81SLPC  C310 7599   0.274   6.891   3.795 -0.3622 -0.9643 -0.8655
   81SLPC  H10X 7600   0.207   6.803   3.794 -0.0731 -1.1850 -1.1455
   81SLPC  H10Y 7601   0.211   6.983   3.798  1.0197 -0.0095 -0.0194
   81SLPC  C311 7602   0.347   6.885   3.935  0.3295  0.0369 -0.2685
   81SLPC  H11X 7603   0.428   6.962   3.928  2.5898 -1.9843  1.6692
   81SLPC  H11Y 7604   0.402   6.789   3.940 -2.0178 -1.4439 -1.3605
   81SLPC  C312 7605   0.273   6.920   4.066  0.6315  0.2159  0.2749
   81SLPC  H12X 7606   0.197   6.840   4.084  0.3105  0.9687  2.7758
   81SLPC  H12Y 7607   0.212   7.013   4.058 -1.8867 -1.5544 -4.2777
   81SLPC  C313 7608   0.352   6.937   4.198  0.5438  0.0792  0.6755
   81SLPC  H13X 7609   0.366   6.837   4.243 -1.4783 -0.0258  1.1750
   81SLPC  H13Y 7610   0.296   6.999   4.272 -0.0770  0.5471 -0.1626
   81SLPC  C314 7611   0.500   6.984   4.182 -0.2297  0.0435  0.9466
   81SLPC  H14X 7612   0.498   7.077   4.121  2.0108  0.2268  1.0803
   81SLPC  H14Y 7613   0.556   6.905   4.127  2.0292 -0.7527  4.1020
   81SLPC  C315 7614   0.566   7.023   4.316 -0.4068 -0.1662 -0.1889
   81SLPC  H15X 7615   0.587   6.934   4.380  2.4088  1.2258  0.9925
   81SLPC  H15Y 7616   0.499   7.094   4.369  0.9240  1.7024 -0.9100
   81SLPC  C316 7617   0.695   7.096   4.302  0.1229 -0.2403 -0.2216
   81SLPC  H16X 7618   0.691   7.136   4.198 -0.6766  0.2195 -0.0211
   81SLPC  H16Y 7619   0.782   7.027   4.306 -0.2299 -0.6548  0.2794
   81SLPC  C317 7620   0.708   7.214   4.396 -0.1463 -0.0203  1.0014
   81SLPC  H17X 7621   0.620   7.281   4.383  0.4936  0.3272 -2.3527
   81SLPC  H17Y 7622   0.793   7.264   4.344  0.0774 -0.0784  1.3111
   81SLPC  C318 7623   0.733   7.167   4.532 -0.1365 -0.5846  0.3037
   81SLPC  H18X 7624   0.810   7.087   4.528 -1.4059 -1.9073  1.2719
   81SLPC  H18Y 7625   0.639   7.137   4.583 -1.0781  2.3599  0.5113
   81SLPC  H18Z 7626   0.785   7.241   4.596  1.4265 -1.3685 -0.0053
   82SLPC     N 7627   6.554   6.517   2.166 -0.4238  0.5262  0.3651
   82SLPC   C13 7628   6.621   6.654   2.162 -0.0781 -0.9941  0.0267
   82SLPC  H13A 7629   6.645   6.687   2.063  0.2005  1.0848  0.7436
   82SLPC  H13B 7630   6.555   6.729   2.204 -0.3720 -2.0669  1.5709
   82SLPC  H13C 7631   6.711   6.653   2.222 -0.2184  0.1091  0.2821
   82SLPC   C14 7632   6.620   6.428   2.072  1.6167 -0.1374  0.6645
   82SLPC  H14A 7633   6.614   6.460   1.969  2.6873 -0.1244  0.5943
   82SLPC  H14B 7634   6.724   6.417   2.099  0.4251 -2.9199  5.1514
   82SLPC  H14C 7635   6.582   6.327   2.070  0.0045  0.4559 -0.8201
   82SLPC   C15 7636   6.411   6.531   2.126  0.4860 -0.4565  0.3598
   82SLPC  H15A 7637   6.371   6.433   2.147  3.0916 -1.9865 -1.2506
   82SLPC  H15B 7638   6.352   6.604   2.180  0.0959 -0.4923 -0.0079
   82SLPC  H15C 7639   6.411   6.546   2.019  2.6729 -0.2988  0.3503
   82SLPC   C12 7640   6.553   6.464   2.306  0.0473 -0.1981  0.0220
   82SLPC  H12A 7641   6.651   6.438   2.343  1.0547  0.2836 -2.1522
   82SLPC  H12B 7642   6.496   6.372   2.305  0.1146 -0.2746 -2.2098
   82SLPC   C11 7643   6.488   6.562   2.421 -0.0395  0.3943 -0.4904
   82SLPC  H11A 7644   6.476   6.508   2.517  1.9900  0.4545 -0.1537
   82SLPC  H11B 7645   6.383   6.588   2.395 -0.6329 -2.7382 -1.6953
   82SLPC     P 7646   6.706   6.680   2.513 -0.2126  0.0853  0.1026
   82SLPC   O13 7647   6.708   6.566   2.600  0.2584 -0.4635 -0.3258
   82SLPC   O14 7648   6.806   6.689   2.405 -0.1170 -0.1141 -1.1319
   82SLPC   O12 7649   6.562   6.682   2.447  0.3495  0.0970 -0.4400
   82SLPC   O11 7650   6.686   6.810   2.603 -0.8146  0.4458  0.3581
   82SLPC    C1 7651   6.561   6.831   2.664  0.1747 -0.4621  0.0829
   82SLPC    HA 7652   6.509   6.919   2.619  1.1179  0.3081  0.4699
   82SLPC    HB 7653   6.485   6.752   2.646  1.0854 -2.3854  3.7607
   82SLPC    C2 7654   6.555   6.842   2.819 -0.6525 -0.6084  1.1218
   82SLPC    HS 7655   6.632   6.920   2.841 -1.5418  1.6726 -2.7061
   82SLPC   O21 7656   6.570   6.717   2.883 -0.3509  0.0297  0.1450
   82SLPC   C21 7657   6.698   6.694   2.923 -0.3684 -0.2418 -0.4604
   82SLPC   O22 7658   6.794   6.768   2.927  0.5228 -0.1861  0.3049
   82SLPC   C22 7659   6.700   6.546   2.968  0.4786  0.1184 -0.0513
   82SLPC   H2R 7660   6.597   6.509   2.989  0.5314 -0.7578 -1.1984
   82SLPC   H2S 7661   6.731   6.489   2.878  0.0880 -1.1291  0.5808
   82SLPC    C3 7662   6.421   6.904   2.856 -0.2635 -0.4890  0.6340
   82SLPC    HX 7663   6.346   6.832   2.816  1.7328 -1.7404 -1.1097
   82SLPC    HY 7664   6.422   7.001   2.803 -1.1255 -2.1525 -2.7177
   82SLPC   O31 7665   6.413   6.938   2.998  0.1662 -0.1031 -0.0408
   82SLPC   C31 7666   6.345   6.856   3.075 -0.9124  0.4790  0.0209
   82SLPC   O32 7667   6.264   6.769   3.048 -0.1831 -0.5814  0.0446
   82SLPC   C32 7668   6.363   6.918   3.213  0.6339  0.2594 -0.8079
   82SLPC   H2X 7669   6.270   6.978   3.222  1.0123  0.7035  0.3685
   82SLPC   H2Y 7670   6.457   6.977   3.215  1.3191 -0.8066 -0.7415
   82SLPC   C23 7671   6.794   6.518   3.084  0.2681 -1.3254  0.2782
   82SLPC   H3R 7672   6.876   6.593   3.070 -1.2069  0.1553 -0.8836
   82SLPC   H3S 7673   6.840   6.417   3.084  2.5418 -0.3692  1.7710
   82SLPC   C24 7674   6.725   6.535   3.218  0.2800  0.0768  0.2474
   82SLPC   H4R 7675   6.641   6.463   3.227  0.1164  0.1861 -0.3874
   82SLPC   H4S 7676   6.677   6.636   3.218 -0.3438 -0.2056 -0.8935
   82SLPC   C25 7677   6.831   6.534   3.336  0.3275  0.5297 -0.6555
   82SLPC   H5R 7678   6.905   6.616   3.321 -0.1014  0.9520 -0.4582
   82SLPC   H5S 7679   6.888   6.439   3.322  1.1233  0.7931  0.6323
   82SLPC   C26 7680   6.763   6.550   3.471  0.0473 -0.1988 -0.4289
   82SLPC   H6R 7681   6.685   6.470   3.472 -0.6633  0.3104 -3.4672
   82SLPC   H6S 7682   6.706   6.645   3.486  1.6333  1.1577 -2.4461
   82SLPC   C27 7683   6.867   6.522   3.582  0.3464  0.1914 -0.3713
   82SLPC   H7R 7684   6.955   6.586   3.564  0.9887 -1.0983 -2.1138
   82SLPC   H7S 7685   6.895   6.416   3.566 -2.4729 -0.6767 -0.2143
   82SLPC   C28 7686   6.818   6.543   3.733  0.0303  0.0791  0.0582
   82SLPC   H8R 7687   6.767   6.641   3.739 -1.3989 -0.7052  1.3829
   82SLPC   H8S 7688   6.916   6.544   3.787  0.6844 -1.4393 -1.0050
   82SLPC   C29 7689   6.736   6.429   3.782  0.5607 -0.0034 -0.1352
   82SLPC   H9R 7690   6.701   6.364   3.700 -1.3377 -1.6000  1.8082
   82SLPC  C210 7691   6.718   6.402   3.916 -0.3527 -1.0941  0.2395
   82SLPC  H10R 7692   6.658   6.312   3.935 -1.2647 -0.1014  2.3267
   82SLPC  C211 7693   6.770   6.472   4.044  0.2554  0.4291 -0.2586
   82SLPC  H11R 7694   6.859   6.534   4.019  0.2214 -0.2561 -2.2890
   82SLPC  H11S 7695   6.809   6.388   4.106  0.6311  1.2054  0.5790
   82SLPC  C212 7696   6.656   6.532   4.117 -0.1579  0.6951 -0.5686
   82SLPC  H12R 7697   6.556   6.489   4.104  0.4259 -0.7888 -0.3525
   82SLPC  C213 7698   6.673   6.638   4.200 -0.4149 -0.9643  0.5764
   82SLPC  H13R 7699   6.582   6.683   4.241 -1.4153  2.1827 -4.1739
   82SLPC  C214 7700   6.798   6.711   4.238 -0.8581  0.4345 -0.5752
   82SLPC  H14R 7701   6.879   6.666   4.177 -0.5681 -0.8720  0.7198
   82SLPC  H14S 7702   6.827   6.693   4.344  1.5713 -0.4922 -1.3389
   82SLPC  C215 7703   6.795   6.861   4.212  0.2580 -0.0377  0.1010
   82SLPC  H15R 7704   6.753   6.880   4.111 -0.7371  1.5388  0.7800
   82SLPC  H15S 7705   6.900   6.898   4.215 -0.0203  0.7316  3.1023
   82SLPC  C216 7706   6.707   6.937   4.308  0.1058  0.0682  0.9719
   82SLPC  H16R 7707   6.604   6.896   4.302  0.1737 -0.0297  0.3771
   82SLPC  H16S 7708   6.699   7.043   4.277 -2.3575 -0.5609 -0.8695
   82SLPC  C217 7709   6.745   6.943   4.464 -0.1103  0.3951  0.2285
   82SLPC  H17R 7710   6.772   6.842   4.502 -0.7787  0.1471  0.0507
   82SLPC  H17S 7711   6.655   6.975   4.520 -1.4545 -1.2384 -0.9003
   82SLPC  C218 7712   6.855   7.044   4.493  0.4204  0.1424 -0.2496
   82SLPC  H18R 7713   6.953   7.041   4.441  0.8563 -3.2364  0.5530
   82SLPC  H18S 7714   6.867   7.040   4.603  0.1219 -1.6164 -0.2524
   82SLPC  H18T 7715   6.820   7.148   4.477 -2.1902 -0.4323  1.2314
   82SLPC   C33 7716   6.368   6.828   3.335 -0.5147  0.0831  0.4070
   82SLPC   H3X 7717   6.458   6.762   3.330 -0.3436  0.3323  0.1438
   82SLPC   H3Y 7718   6.285   6.755   3.326 -0.9525  0.6582 -0.2648
   82SLPC   C34 7719   6.359   6.893   3.470 -0.4342 -0.6121 -0.2615
   82SLPC   H4X 7720   6.257   6.933   3.487  0.8706  2.8043  0.1664
   82SLPC   H4Y 7721   6.408   6.992   3.467  1.5109 -1.5041  0.2229
   82SLPC   C35 7722   6.424   6.813   3.581  0.6382 -0.0960 -0.1235
   82SLPC   H5X 7723   6.531   6.797   3.555  0.1838 -1.4122 -1.2781
   82SLPC   H5Y 7724   6.382   6.711   3.595  0.7418 -0.2028 -0.5858
   82SLPC   C36 7725   6.399   6.889   3.718  0.3268  0.2913 -0.4697
   82SLPC   H6X 7726   6.294   6.926   3.718  1.0114  2.3861 -0.8909
   82SLPC   H6Y 7727   6.467   6.977   3.721  1.3122 -0.4413 -0.5824
   82SLPC   C37 7728   6.444   6.801   3.839  0.1539 -0.7478  0.1442
   82SLPC   H7X 7729   6.554   6.787   3.835  0.4192  1.1913 -0.8048
   82SLPC   H7Y 7730   6.399   6.703   3.814  2.4694 -1.7005 -0.5776
   82SLPC   C38 7731   6.419   6.861   3.976 -0.5501 -0.2319  0.9212
   82SLPC   H8X 7732   6.414   6.971   3.968 -1.3010 -0.3937 -1.4878
   82SLPC   H8Y 7733   6.502   6.827   4.042  0.7347 -0.9703 -0.9822
   82SLPC   C39 7734   6.274   6.832   4.024 -0.2443  0.4806  0.6707
   82SLPC   H9X 7735   6.264   6.723   4.007  0.2317  0.7993 -2.1547
   82SLPC   H9Y 7736   6.211   6.883   3.948  0.8302  1.6397  0.5245
   82SLPC  C310 7737   6.249   6.874   4.171  0.3083 -0.2387 -0.1481
   82SLPC  H10X 7738   6.273   6.981   4.187 -0.5433 -0.0515 -0.0338
   82SLPC  H10Y 7739   6.328   6.825   4.231  0.3001 -1.7385 -1.2893
   82SLPC  C311 7740   6.100   6.848   4.200 -0.1167  0.8615  0.7316
   82SLPC  H11X 7741   6.085   6.740   4.183  0.7354  0.6561  1.1926
   82SLPC  H11Y 7742   6.051   6.908   4.121 -0.0642  0.8951  0.7243
   82SLPC  C312 7743   6.045   6.877   4.345  0.6686  0.1555 -0.0022
   82SLPC  H12X 7744   6.086   6.974   4.380 -0.3145  0.5329  0.1607
   82SLPC  H12Y 7745   6.081   6.791   4.406  0.3918 -1.0757 -1.5173
   82SLPC  C313 7746   5.886   6.877   4.349  0.2574 -0.2576 -0.0362
   82SLPC  H13X 7747   5.850   6.791   4.289 -0.3552  2.2118 -3.5270
   82SLPC  H13Y 7748   5.845   6.969   4.302  0.8131  0.1988  0.3508
   82SLPC  C314 7749   5.833   6.861   4.495 -0.5521  0.0191 -0.1441
   82SLPC  H14X 7750   5.894   6.777   4.535 -0.2390 -0.2597 -1.1934
   82SLPC  H14Y 7751   5.728   6.826   4.492 -0.3311 -0.5644 -1.9418
   82SLPC  C315 7752   5.835   6.987   4.574  0.1048 -0.4856 -0.5105
   82SLPC  H15X 7753   5.818   7.067   4.499  1.0995 -0.5307 -0.7944
   82SLPC  H15Y 7754   5.942   6.994   4.601 -0.5042 -0.6448  2.3206
   82SLPC  C316 7755   5.735   6.992   4.683  0.1172 -0.0784 -0.3471
   82SLPC  H16X 7756   5.764   6.914   4.757  1.4069 -2.7683 -3.4367
   82SLPC  H16Y 7757   5.634   6.978   4.640 -0.0124 -0.9534  0.2200
   82SLPC  C317 7758   5.732   7.130   4.769 -0.3391  0.3380 -0.0147
   82SLPC  H17X 7759   5.830   7.130   4.822 -0.2880 -1.2453 -0.0630
   82SLPC  H17Y 7760   5.647   7.118   4.839 -1.3278 -1.3243 -1.4053
   82SLPC  C318 7761   5.716   7.263   4.693 -0.0426  0.9544  0.2018
   82SLPC  H18X 7762   5.690   7.339   4.769  1.4920  2.0632 -0.3352
   82SLPC  H18Y 7763   5.633   7.258   4.619 -0.8016  0.9033  1.0444
   82SLPC  H18Z 7764   5.807   7.295   4.637 -0.8299 -0.0692 -1.7366
   83SLPC     N 7765   0.156   0.895   2.088 -0.5210  0.3842  0.3978
   83SLPC   C13 7766   0.127   0.856   1.944 -0.6860  0.1016  0.0314
   83SLPC  H13A 7767   0.020   0.860   1.935 -0.7950  0.1992  1.2954
   83SLPC  H13B 7768   0.173   0.933   1.883  0.2544  0.4647  1.1697
   83SLPC  H13C 7769   0.174   0.763   1.915 -0.4831  0.6717 -1.6029
   83SLPC   C14 7770   0.122   0.777   2.172  0.0099 -0.7788 -0.5775
   83SLPC  H14A 7771   0.165   0.684   2.137  0.9958  0.1029 -1.8487
   83SLPC  H14B 7772   0.148   0.797   2.275 -0.1552 -0.5526 -0.5776
   83SLPC  H14C 7773   0.016   0.759   2.169 -0.0974 -1.0067  2.1637
   83SLPC   C15 7774   0.077   1.016   2.114  0.4728 -0.1490  0.1046
   83SLPC  H15A 7775   0.111   1.070   2.201 -1.3828 -0.2287  0.9340
   83SLPC  H15B 7776   0.099   1.086   2.035  2.9570 -1.1228 -0.1615
   83SLPC  H15C 7777  -0.028   0.996   2.130  0.2684  0.4161 -0.5025
   83SLPC   C12 7778   0.304   0.932   2.105 -0.2943  0.4952  0.3180
   83SLPC  H12A 7779   0.336   1.005   2.032  0.3313  1.8684  1.8967
   83SLPC  H12B 7780   0.358   0.840   2.093  0.5624  0.7792  1.7512
   83SLPC   C11 7781   0.347   0.988   2.246  0.0193 -0.3436 -0.0652
   83SLPC  H11A 7782   0.453   0.970   2.275  0.1343  1.1968  0.5658
   83SLPC  H11B 7783   0.295   0.932   2.326  0.3974 -0.8327 -0.1535
   83SLPC     P 7784   0.416   1.224   2.190  0.0154 -0.1735  0.0982
   83SLPC   O13 7785   0.432   1.196   2.045  0.2517  0.1594 -0.3020
   83SLPC   O14 7786   0.383   1.365   2.226 -0.0260 -0.1061  0.4216
   83SLPC   O12 7787   0.313   1.127   2.252  0.5259  0.0855 -0.2610
   83SLPC   O11 7788   0.547   1.191   2.267 -0.4803  0.3968  0.4306
   83SLPC    C1 7789   0.562   1.239   2.405  0.2803  0.1754 -0.3985
   83SLPC    HA 7790   0.573   1.350   2.412 -1.8540  0.4969 -1.4194
   83SLPC    HB 7791   0.470   1.211   2.460 -0.0025 -0.3083 -1.1082
   83SLPC    C2 7792   0.688   1.173   2.470  0.4250 -0.5119  0.0053
   83SLPC    HS 7793   0.769   1.208   2.403 -0.9573  3.7784  0.2560
   83SLPC   O21 7794   0.677   1.036   2.497 -0.1841  0.0323 -0.0479
   83SLPC   C21 7795   0.785   0.966   2.470 -0.0380 -0.4255  0.1572
   83SLPC   O22 7796   0.882   1.014   2.416 -0.6807 -0.1349 -0.3084
   83SLPC   C22 7797   0.764   0.818   2.496  0.4081  0.5793 -0.3466
   83SLPC   H2R 7798   0.685   0.823   2.574 -1.2452 -0.0177 -1.9066
   83SLPC   H2S 7799   0.718   0.783   2.401 -2.0568  0.0652  0.9725
   83SLPC    C3 7800   0.709   1.255   2.602 -0.0823  0.1179  0.0984
   83SLPC    HX 7801   0.629   1.213   2.667  1.2273  0.1311  1.8070
   83SLPC    HY 7802   0.694   1.364   2.588  0.6123 -0.0835 -2.7296
   83SLPC   O31 7803   0.837   1.214   2.668 -0.5363  0.1988  0.6312
   83SLPC   C31 7804   0.925   1.316   2.701  0.1103  0.3382 -0.2104
   83SLPC   O32 7805   0.902   1.430   2.686 -0.0391  0.4552 -0.0754
   83SLPC   C32 7806   1.050   1.250   2.758 -0.2159 -0.1102 -0.0990
   83SLPC   H2X 7807   1.137   1.318   2.760 -1.2584  1.3420  3.2586
   83SLPC   H2Y 7808   1.077   1.161   2.697  2.7890  0.4079  0.3526
   83SLPC   C23 7809   0.890   0.737   2.531  0.1071  0.2743 -0.3873
   83SLPC   H3R 7810   0.972   0.741   2.456  1.3276  0.6012  0.9397
   83SLPC   H3S 7811   0.866   0.629   2.525  0.9642 -0.1310  2.3476
   83SLPC   C24 7812   0.960   0.777   2.662 -0.1336  0.4171  0.0876
   83SLPC   H4R 7813   0.985   0.885   2.653 -2.8513  1.0354 -0.6943
   83SLPC   H4S 7814   1.058   0.723   2.661 -0.9575 -1.2560  1.9656
   83SLPC   C25 7815   0.882   0.751   2.796 -0.3154  0.4382  0.3793
   83SLPC   H5R 7816   0.876   0.643   2.818  1.3484  0.2859  0.1550
   83SLPC   H5S 7817   0.777   0.782   2.776 -0.0710  0.2113 -1.4039
   83SLPC   C26 7818   0.944   0.822   2.916 -0.2856  0.0946  0.2779
   83SLPC   H6R 7819   0.963   0.929   2.895 -1.3184  0.0813 -0.8851
   83SLPC   H6S 7820   1.050   0.790   2.928 -0.3529  0.4827  2.1092
   83SLPC   C27 7821   0.864   0.790   3.042  0.0890  0.0740 -0.3870
   83SLPC   H7R 7822   0.871   0.681   3.061  0.5236  0.3478  1.2127
   83SLPC   H7S 7823   0.756   0.818   3.043 -0.1264 -0.7307  0.1319
   83SLPC   C28 7824   0.927   0.869   3.160  0.2822 -0.2674  0.4651
   83SLPC   H8R 7825   0.916   0.978   3.143  0.5123 -0.0785  1.4450
   83SLPC   H8S 7826   1.037   0.857   3.168  0.7886  3.0144 -0.0550
   83SLPC   C29 7827   0.858   0.829   3.288 -0.6668  0.3321  0.3791
   83SLPC   H9R 7828   0.784   0.905   3.318  0.0396  0.2010  2.6096
   83SLPC  C210 7829   0.884   0.725   3.365  0.5676  0.1943  0.2746
   83SLPC  H10R 7830   0.818   0.703   3.450  1.0893 -2.5202  0.0964
   83SLPC  C211 7831   0.982   0.616   3.341  0.5273  0.9709  0.6169
   83SLPC  H11R 7832   1.041   0.618   3.247  4.1814 -1.0016  2.6101
   83SLPC  H11S 7833   0.923   0.522   3.341  1.4341  0.3725 -0.6216
   83SLPC  C212 7834   1.084   0.599   3.456  1.0724  0.3368  0.2639
   83SLPC  H12R 7835   1.029   0.594   3.551  0.8168 -0.4917  0.0776
   83SLPC  C213 7836   1.216   0.564   3.444  0.3428  0.6273 -0.1332
   83SLPC  H13R 7837   1.275   0.556   3.536 -0.4715 -1.6879  0.2494
   83SLPC  C214 7838   1.296   0.552   3.319  0.2260 -0.6772  0.1699
   83SLPC  H14R 7839   1.390   0.611   3.331  0.0297 -0.3037 -0.1374
   83SLPC  H14S 7840   1.238   0.596   3.236  2.2205  0.2641 -0.7926
   83SLPC  C215 7841   1.343   0.405   3.296 -0.0443 -0.3555  0.0324
   83SLPC  H15R 7842   1.251   0.350   3.266  0.6647 -0.6566 -1.6815
   83SLPC  H15S 7843   1.394   0.364   3.386  2.2335  0.6840 -0.7237
   83SLPC  C216 7844   1.434   0.394   3.180 -0.2810 -0.9478  0.0808
   83SLPC  H16R 7845   1.468   0.288   3.173 -1.7353 -1.3929 -0.5265
   83SLPC  H16S 7846   1.524   0.459   3.194 -1.5957  1.0741 -0.3935
   83SLPC  C217 7847   1.363   0.414   3.045 -0.5954 -0.1124 -0.0766
   83SLPC  H17R 7848   1.321   0.516   3.046  0.7127  0.4817 -1.7736
   83SLPC  H17S 7849   1.289   0.332   3.034  1.1056 -1.7503  0.0090
   83SLPC  C218 7850   1.463   0.400   2.925  0.1718 -0.2451 -0.2364
   83SLPC  H18R 7851   1.461   0.303   2.871 -0.1745 -0.0598 -0.5607
   83SLPC  H18S 7852   1.568   0.428   2.948 -0.0813 -0.1990  0.9380
   83SLPC  H18T 7853   1.431   0.477   2.851  1.6055  2.1447  1.4497
   83SLPC   C33 7854   1.035   1.217   2.907  0.2249  0.0357 -1.4575
   83SLPC   H3X 7855   0.951   1.145   2.916 -1.6500  2.0047 -2.2416
   83SLPC   H3Y 7856   1.007   1.311   2.958  1.8345  0.2451 -0.9214
   83SLPC   C34 7857   1.159   1.164   2.983  0.1622  0.1107  0.3906
   83SLPC   H4X 7858   1.252   1.216   2.954  1.5754 -2.3841  0.1946
   83SLPC   H4Y 7859   1.171   1.060   2.947  2.5474  0.4696  0.0443
   83SLPC   C35 7860   1.153   1.184   3.136  0.3528  0.0679 -0.0589
   83SLPC   H5X 7861   1.254   1.159   3.175  0.3478  1.3962  0.8378
   83SLPC   H5Y 7862   1.084   1.108   3.178  1.8876 -0.7037  1.1881
   83SLPC   C36 7863   1.117   1.329   3.193 -0.4899 -0.2539  0.5697
   83SLPC   H6X 7864   1.017   1.354   3.154 -0.2327  0.8170  0.5717
   83SLPC   H6Y 7865   1.188   1.401   3.146 -0.7834  0.3845  1.0937
   83SLPC   C37 7866   1.115   1.339   3.341 -0.6032 -0.2557  0.2622
   83SLPC   H7X 7867   1.020   1.301   3.382 -1.0335  0.5505  0.0430
   83SLPC   H7Y 7868   1.107   1.446   3.371  0.4200  0.1509 -0.7879
   83SLPC   C38 7869   1.238   1.293   3.422 -0.7243 -0.1070  0.3398
   83SLPC   H8X 7870   1.333   1.330   3.378  0.1229 -2.6173 -0.0691
   83SLPC   H8Y 7871   1.245   1.183   3.413  4.5867 -0.1785  1.8876
   83SLPC   C39 7872   1.226   1.334   3.570 -0.3670 -0.0574  0.3800
   83SLPC   H9X 7873   1.131   1.294   3.609 -0.8847  0.7243 -0.0359
   83SLPC   H9Y 7874   1.243   1.444   3.577  1.7515 -0.3519  0.6450
   83SLPC  C310 7875   1.343   1.267   3.644  0.0838  0.4202  0.3563
   83SLPC  H10X 7876   1.438   1.316   3.615 -0.4662  0.2259 -1.9987
   83SLPC  H10Y 7877   1.347   1.161   3.613  0.4625  0.6414 -0.3798
   83SLPC  C311 7878   1.337   1.280   3.796  0.1959  0.1196  0.2390
   83SLPC  H11X 7879   1.417   1.216   3.840  0.5582 -0.9080 -1.8099
   83SLPC  H11Y 7880   1.241   1.247   3.842  0.7273 -0.7517  0.7615
   83SLPC  C312 7881   1.351   1.423   3.846  0.1249 -0.3070 -0.4652
   83SLPC  H12X 7882   1.326   1.426   3.955  1.9275 -0.9720  0.0099
   83SLPC  H12Y 7883   1.270   1.483   3.800 -2.0266  0.0854  3.3894
   83SLPC  C313 7884   1.489   1.493   3.822  0.1020  0.3535 -0.3286
   83SLPC  H13X 7885   1.520   1.592   3.860  3.4357 -0.7789  0.2693
   83SLPC  H13Y 7886   1.504   1.502   3.712 -4.0388 -0.3411 -1.1017
   83SLPC  C314 7887   1.612   1.407   3.877 -0.1164 -0.0843  0.6689
   83SLPC  H14X 7888   1.704   1.459   3.845 -0.4168  1.4976  2.2126
   83SLPC  H14Y 7889   1.609   1.316   3.812 -1.6780  0.8935 -0.7297
   83SLPC  C315 7890   1.614   1.385   4.028  0.1163  0.8829 -0.6561
   83SLPC  H15X 7891   1.523   1.328   4.055  2.0669 -2.7994 -1.1688
   83SLPC  H15Y 7892   1.607   1.489   4.066 -1.4190  0.7693 -0.5726
   83SLPC  C316 7893   1.732   1.307   4.074 -0.0894 -0.6468 -0.1723
   83SLPC  H16X 7894   1.823   1.346   4.023 -0.7133  0.0117 -0.8032
   83SLPC  H16Y 7895   1.718   1.202   4.042  0.6274 -0.2196 -2.0257
   83SLPC  C317 7896   1.737   1.308   4.222 -0.0006 -0.0901  0.2578
   83SLPC  H17X 7897   1.650   1.258   4.271  0.7808 -2.4087 -0.6149
   83SLPC  H17Y 7898   1.736   1.412   4.263 -0.2941  0.0083  0.0094
   83SLPC  C318 7899   1.873   1.260   4.293  0.3283  0.0082  0.1311
   83SLPC  H18X 7900   1.903   1.160   4.256 -3.6865 -0.9297 -1.0351
   83SLPC  H18Y 7901   1.859   1.256   4.403  0.5656 -0.4702  0.1476
   83SLPC  H18Z 7902   1.959   1.328   4.273  0.2059  0.1981  0.2520
   84SLPC     N 7903   2.646   1.822   2.335  0.0824 -0.5723  0.5306
   84SLPC   C13 7904   2.722   1.718   2.270 -0.2003  0.5048  0.5669
   84SLPC  H13A 7905   2.823   1.747   2.295  0.2480  1.2850 -1.8981
   84SLPC  H13B 7906   2.704   1.618   2.308 -0.6919 -0.2310 -1.5011
   84SLPC  H13C 7907   2.724   1.728   2.163 -0.5943  0.8685  0.5912
   84SLPC   C14 7908   2.631   1.797   2.478 -0.0041  0.5542 -0.5717
   84SLPC  H14A 7909   2.594   1.890   2.520  2.7539  1.0470  1.0535
   84SLPC  H14B 7910   2.572   1.709   2.498 -2.1550  1.9910 -0.3297
   84SLPC  H14C 7911   2.729   1.780   2.521 -0.7275  0.5383  1.1854
   84SLPC   C15 7912   2.507   1.806   2.286  0.1438 -0.0784  0.3677
   84SLPC  H15A 7913   2.486   1.701   2.300 -0.2563 -0.2443 -1.2708
   84SLPC  H15B 7914   2.446   1.868   2.349  1.7576  3.0928 -0.9786
   84SLPC  H15C 7915   2.493   1.825   2.181 -0.5795  1.5485  0.7289
   84SLPC   C12 7916   2.699   1.962   2.299  0.4687  0.2022  0.0221
   84SLPC  H12A 7917   2.622   2.037   2.294 -0.0445 -0.3953 -1.9663
   84SLPC  H12B 7918   2.737   1.976   2.198 -0.4283  4.7612  0.0872
   84SLPC   C11 7919   2.809   2.016   2.397  0.3992  0.3146  0.2569
   84SLPC  H11A 7920   2.778   2.019   2.504 -1.2536  1.3424 -0.2053
   84SLPC  H11B 7921   2.822   2.125   2.379 -0.8590  0.4268 -0.0458
   84SLPC     P 7922   3.043   1.944   2.267  0.0919  0.1733 -0.0241
   84SLPC   O13 7923   3.084   1.805   2.250  0.0136  0.6522 -0.3079
   84SLPC   O14 7924   2.983   2.017   2.153 -0.2872 -0.1444  0.4664
   84SLPC   O12 7925   2.931   1.945   2.384 -0.0461  0.1248 -0.0934
   84SLPC   O11 7926   3.151   2.045   2.323 -0.1626  0.9853  0.8333
   84SLPC    C1 7927   3.137   2.185   2.302 -0.1066 -0.2931 -0.0264
   84SLPC    HA 7928   3.205   2.226   2.224  0.2748  1.8937  1.3653
   84SLPC    HB 7929   3.031   2.216   2.288 -0.7602 -0.9551  2.8787
   84SLPC    C2 7930   3.189   2.253   2.436  0.0835 -0.4877  1.2452
   84SLPC    HS 7931   3.297   2.230   2.443  0.0607 -1.1202 -0.0884
   84SLPC   O21 7932   3.110   2.207   2.544 -0.0114 -0.6080 -0.1154
   84SLPC   C21 7933   3.154   2.099   2.594 -0.8385 -0.5776 -0.5842
   84SLPC   O22 7934   3.256   2.035   2.557 -0.0980  0.0372  0.7128
   84SLPC   C22 7935   3.080   2.056   2.720  0.0661  0.9540 -0.1576
   84SLPC   H2R 7936   2.975   2.092   2.712 -0.6973 -1.4046 -2.4565
   84SLPC   H2S 7937   3.083   1.945   2.715  2.9262  0.9006  0.9493
   84SLPC    C3 7938   3.181   2.411   2.427 -0.3962  0.2229  0.6758
   84SLPC    HX 7939   3.072   2.434   2.431 -0.7353 -0.1984 -2.7691
   84SLPC    HY 7940   3.211   2.444   2.325 -0.2588  1.6157  1.1481
   84SLPC   O31 7941   3.252   2.484   2.531  0.0540 -0.1233  0.4368
   84SLPC   C31 7942   3.389   2.467   2.529 -0.2895  0.2812 -0.1527
   84SLPC   O32 7943   3.444   2.389   2.454  0.0609 -0.2757 -0.1521
   84SLPC   C32 7944   3.446   2.572   2.631 -0.6351 -0.2693  0.5571
   84SLPC   H2X 7945   3.378   2.571   2.720 -2.6148  0.5044 -0.8719
   84SLPC   H2Y 7946   3.419   2.665   2.576  0.4612  0.4271  1.1634
   84SLPC   C23 7947   3.165   2.103   2.836 -0.3776  0.7271  0.6112
   84SLPC   H3R 7948   3.166   2.214   2.834 -1.9333  0.8334  2.4100
   84SLPC   H3S 7949   3.263   2.056   2.817 -1.6968 -1.1192 -2.4356
   84SLPC   C24 7950   3.095   2.067   2.971  0.0431 -0.2169  0.5687
   84SLPC   H4R 7951   2.987   2.093   2.963 -0.4729 -2.3122  0.3228
   84SLPC   H4S 7952   3.128   2.135   3.053 -0.9708 -2.0145  2.5737
   84SLPC   C25 7953   3.107   1.929   3.022 -0.5930 -0.3861  0.4518
   84SLPC   H5R 7954   3.213   1.897   3.017 -0.5071 -0.2435  1.1896
   84SLPC   H5S 7955   3.053   1.862   2.952  0.3439  2.0620 -2.9071
   84SLPC   C26 7956   3.052   1.912   3.165  1.0295  0.2180 -0.3926
   84SLPC   H6R 7957   2.962   1.976   3.175  1.6631  0.8375  2.0974
   84SLPC   H6S 7958   3.119   1.952   3.245 -0.8704 -1.0546  1.9859
   84SLPC   C27 7959   3.036   1.765   3.207 -0.2454  0.7846 -1.2082
   84SLPC   H7R 7960   3.134   1.713   3.212  0.0202  1.3973  1.2001
   84SLPC   H7S 7961   2.968   1.716   3.134 -1.4575  0.5684  0.0446
   84SLPC   C28 7962   2.962   1.740   3.342  0.3912  0.3743 -0.2604
   84SLPC   H8R 7963   2.854   1.746   3.320  0.3152  1.8143  0.3832
   84SLPC   H8S 7964   2.988   1.823   3.411 -0.9945  1.1356 -0.6210
   84SLPC   C29 7965   3.002   1.613   3.408  0.5981 -0.1111 -0.9608
   84SLPC   H9R 7966   3.043   1.535   3.343 -1.3286 -0.9947 -1.2010
   84SLPC  C210 7967   3.019   1.586   3.544  0.0060  0.4289 -0.4097
   84SLPC  H10R 7968   3.035   1.483   3.580  0.3282  0.9841  1.1474
   84SLPC  C211 7969   2.990   1.675   3.660  0.8198  0.2200 -0.4715
   84SLPC  H11R 7970   3.045   1.768   3.637 -2.7185  2.2216 -1.6112
   84SLPC  H11S 7971   3.049   1.641   3.748  2.8378 -1.1232 -2.2452
   84SLPC  C212 7972   2.845   1.700   3.687  0.0047  0.0826  0.3233
   84SLPC  H12R 7973   2.793   1.755   3.607  1.6641  0.6121 -0.4374
   84SLPC  C213 7974   2.772   1.678   3.799 -0.1080  0.0275 -0.1316
   84SLPC  H13R 7975   2.665   1.697   3.790 -0.5678 -2.4328 -0.5889
   84SLPC  C214 7976   2.806   1.614   3.934 -0.2509 -0.7764 -0.3283
   84SLPC  H14R 7977   2.897   1.552   3.923 -1.2990 -2.5774  0.6378
   84SLPC  H14S 7978   2.724   1.549   3.973  0.4673 -1.4891  0.0329
   84SLPC  C215 7979   2.818   1.723   4.046 -0.3442 -0.3169 -0.3147
   84SLPC  H15R 7980   2.713   1.749   4.075 -0.6808 -0.1331 -1.6361
   84SLPC  H15S 7981   2.860   1.811   3.993 -0.7975  0.5510  0.7170
   84SLPC  C216 7982   2.916   1.692   4.160  0.3592  0.7298  0.3233
   84SLPC  H16R 7983   3.018   1.693   4.116  0.9054 -0.0579  1.4947
   84SLPC  H16S 7984   2.906   1.590   4.204 -2.6523  1.4265  1.5038
   84SLPC  C217 7985   2.914   1.796   4.265  0.3869 -0.0545 -0.0041
   84SLPC  H17R 7986   2.817   1.800   4.319  1.5933 -3.2522  2.7360
   84SLPC  H17S 7987   2.948   1.896   4.231  1.4375 -0.5797 -0.5498
   84SLPC  C218 7988   3.015   1.745   4.361  0.5269 -0.1872 -0.3522
   84SLPC  H18R 7989   3.043   1.821   4.436  0.2378 -1.0317  0.6373
   84SLPC  H18S 7990   3.118   1.724   4.324  1.2433 -3.4264  2.8766
   84SLPC  H18T 7991   2.991   1.658   4.426  0.1458  1.3146  1.5997
   84SLPC   C33 7992   3.593   2.556   2.673  0.1805  0.2759 -0.8210
   84SLPC   H3X 7993   3.646   2.548   2.576 -0.3063 -0.7942 -1.0171
   84SLPC   H3Y 7994   3.617   2.461   2.726  0.3339  1.0846  0.6086
   84SLPC   C34 7995   3.641   2.675   2.754  0.0940 -0.6797  0.3074
   84SLPC   H4X 7996   3.623   2.769   2.697  2.6831 -1.7210 -2.5143
   84SLPC   H4Y 7997   3.752   2.681   2.757  0.1228 -1.1725  0.2370
   84SLPC   C35 7998   3.578   2.679   2.892  0.0135 -0.6629  0.5369
   84SLPC   H5X 7999   3.586   2.574   2.925  0.7796 -0.8108 -0.0804
   84SLPC   H5Y 8000   3.468   2.696   2.888 -0.2941 -2.2608  1.5581
   84SLPC   C36 8001   3.634   2.784   2.992 -0.6365  0.2851 -0.6436
   84SLPC   H6X 8002   3.651   2.875   2.931 -0.4025  0.9571  0.4060
   84SLPC   H6Y 8003   3.734   2.749   3.026 -1.4373  0.9417  2.7869
   84SLPC   C37 8004   3.549   2.807   3.122  0.8381 -0.6422 -0.5778
   84SLPC   H7X 8005   3.592   2.869   3.204 -0.7740  1.3014 -1.0939
   84SLPC   H7Y 8006   3.537   2.703   3.157 -0.0353  0.0599  1.3497
   84SLPC   C38 8007   3.404   2.857   3.097 -0.3380  0.1118 -0.1214
   84SLPC   H8X 8008   3.342   2.781   3.045 -0.2263 -0.1947  0.1924
   84SLPC   H8Y 8009   3.410   2.952   3.040  0.6533 -0.2545 -0.6544
   84SLPC   C39 8010   3.349   2.879   3.240 -0.1699  0.7160  0.1298
   84SLPC   H9X 8011   3.427   2.929   3.301  3.0758 -2.9614 -0.6074
   84SLPC   H9Y 8012   3.336   2.778   3.282  0.8332  0.6681  0.3654
   84SLPC  C310 8013   3.214   2.952   3.246 -0.7638  0.1442 -0.1122
   84SLPC  H10X 8014   3.147   2.896   3.177 -1.7501 -1.5369  2.1002
   84SLPC  H10Y 8015   3.215   3.050   3.193 -0.9301  0.5478  0.6137
   84SLPC  C311 8016   3.159   2.973   3.382 -0.2644  0.3600 -0.3230
   84SLPC  H11X 8017   3.065   3.033   3.379  0.5498  1.7593  0.8257
   84SLPC  H11Y 8018   3.231   3.027   3.448  0.5641 -1.8147  0.6297
   84SLPC  C312 8019   3.121   2.844   3.454 -0.4635 -0.1738  0.1247
   84SLPC  H12X 8020   3.211   2.780   3.467 -1.3301 -1.1687  1.4171
   84SLPC  H12Y 8021   3.053   2.787   3.387  1.7442 -0.7682 -1.7386
   84SLPC  C313 8022   3.083   2.868   3.597  0.4261  0.1614 -0.1609
   84SLPC  H13X 8023   2.974   2.890   3.592  0.4940  0.8553  0.9697
   84SLPC  H13Y 8024   3.138   2.956   3.636 -1.2178  1.4299 -0.5830
   84SLPC  C314 8025   3.101   2.747   3.690  0.3421  0.0957 -0.1223
   84SLPC  H14X 8026   3.196   2.763   3.746  0.4478 -0.1784 -0.2191
   84SLPC  H14Y 8027   3.106   2.652   3.631 -1.8372 -0.7888  1.0001
   84SLPC  C315 8028   2.993   2.731   3.801 -0.3587  0.1021 -0.1188
   84SLPC  H15X 8029   3.017   2.648   3.871  1.9644  0.0815 -0.8539
   84SLPC  H15Y 8030   2.897   2.709   3.751 -0.0240  0.4590 -0.9231
   84SLPC  C316 8031   2.974   2.860   3.879  0.2851 -0.0511 -0.6890
   84SLPC  H16X 8032   2.949   2.947   3.814  1.5179  2.7261  2.2617
   84SLPC  H16Y 8033   3.067   2.895   3.929  0.1555 -1.7261  0.8563
   84SLPC  C317 8034   2.867   2.842   3.984  0.0068 -0.4412  0.2758
   84SLPC  H17X 8035   2.899   2.755   4.045  0.3353 -1.6165 -1.4846
   84SLPC  H17Y 8036   2.767   2.835   3.936  0.0183  2.4023 -0.3688
   84SLPC  C318 8037   2.869   2.964   4.072  0.3898  0.2948  0.4561
   84SLPC  H18X 8038   2.805   2.948   4.161  0.6103  1.9364  0.9400
   84SLPC  H18Y 8039   2.819   3.049   4.020  0.1692 -0.8488 -1.3150
   84SLPC  H18Z 8040   2.970   3.006   4.092  0.6009 -0.6978  1.5880
   85SLPC     N 8041   0.334   2.280   1.969  0.2970  0.2323  0.3864
   85SLPC   C13 8042   0.366   2.329   1.828  0.3073  0.0061 -0.2628
   85SLPC  H13A 8043   0.285   2.301   1.763 -2.4028 -2.0525  3.5773
   85SLPC  H13B 8044   0.371   2.437   1.824 -0.5835  0.0145 -1.6807
   85SLPC  H13C 8045   0.466   2.296   1.804  1.0008  2.3276 -0.8500
   85SLPC   C14 8046   0.437   2.330   2.067  0.6222  0.6800 -0.3639
   85SLPC  H14A 8047   0.527   2.269   2.064  0.5328  0.5213  0.1887
   85SLPC  H14B 8048   0.460   2.431   2.038  2.0058  0.9378  1.4512
   85SLPC  H14C 8049   0.400   2.328   2.168 -2.4116 -1.1646 -1.3895
   85SLPC   C15 8050   0.346   2.132   1.967 -0.1797 -0.8807 -0.1941
   85SLPC  H15A 8051   0.433   2.095   1.914  0.8375 -0.0636  0.8408
   85SLPC  H15B 8052   0.378   2.102   2.066  2.4748  1.8151 -0.0896
   85SLPC  H15C 8053   0.258   2.080   1.932 -0.1073  0.4549 -2.5435
   85SLPC   C12 8054   0.194   2.327   1.997  0.4848 -0.0139 -0.0019
   85SLPC  H12A 8055   0.125   2.302   1.918  0.3697  0.3395 -0.0165
   85SLPC  H12B 8056   0.188   2.435   1.988 -0.2113  0.2837  2.9222
   85SLPC   C11 8057   0.134   2.278   2.136  0.5793 -0.2592  0.2843
   85SLPC  H11A 8058   0.139   2.168   2.123  2.4544  0.1208 -4.1860
   85SLPC  H11B 8059   0.028   2.311   2.147  0.8089  1.7484 -2.5726
   85SLPC     P 8060   0.186   2.476   2.289  0.1263  0.3349 -0.4547
   85SLPC   O13 8061   0.285   2.518   2.395 -0.3314 -0.3387  0.5046
   85SLPC   O14 8062   0.177   2.566   2.170 -0.0980  0.3031  0.1665
   85SLPC   O12 8063   0.211   2.334   2.238  0.3261 -0.1050 -0.6257
   85SLPC   O11 8064   0.044   2.457   2.361 -0.2094 -0.0475  0.5085
   85SLPC    C1 8065  -0.011   2.576   2.429  0.8087  0.2679  0.6670
   85SLPC    HA 8066   0.031   2.666   2.378  0.2121 -0.0834 -0.4735
   85SLPC    HB 8067  -0.121   2.590   2.417  0.6803  0.1443  1.5869
   85SLPC    C2 8068   0.034   2.583   2.571 -0.2444  0.1809 -1.2205
   85SLPC    HS 8069   0.139   2.617   2.562  0.0113 -0.4290 -0.6476
   85SLPC   O21 8070   0.034   2.453   2.635 -0.0404  0.3619 -0.3326
   85SLPC   C21 8071   0.124   2.430   2.730 -0.1511 -0.3815  0.1272
   85SLPC   O22 8072   0.220   2.499   2.764  0.3167 -0.1814  0.9683
   85SLPC   C22 8073   0.069   2.307   2.808  0.1800  0.1155 -0.1324
   85SLPC   H2R 8074  -0.037   2.326   2.833 -0.2790  0.5504 -2.1845
   85SLPC   H2S 8075   0.061   2.222   2.736 -0.8921  0.4417 -0.4135
   85SLPC    C3 8076  -0.050   2.687   2.662 -0.5136 -0.6723  0.4387
   85SLPC    HX 8077  -0.157   2.657   2.654 -0.4200 -1.2918  1.3683
   85SLPC    HY 8078  -0.035   2.787   2.615 -1.0400 -1.7623 -2.2174
   85SLPC   O31 8079   0.005   2.681   2.790  0.2092  0.4310 -0.5462
   85SLPC   C31 8080  -0.083   2.643   2.891  0.1751 -0.6824 -0.0047
   85SLPC   O32 8081  -0.201   2.628   2.870  0.6288 -0.2682  0.3597
   85SLPC   C32 8082  -0.007   2.628   3.019 -0.2085  0.7521 -0.3674
   85SLPC   H2X 8083   0.082   2.694   3.019 -0.2928  0.8674 -0.2173
   85SLPC   H2Y 8084   0.022   2.521   3.029  0.0965  0.7518 -1.1607
   85SLPC   C23 8085   0.160   2.275   2.928  0.1522 -0.1979 -0.5955
   85SLPC   H3R 8086   0.136   2.354   3.002 -0.0245 -0.5700 -0.2454
   85SLPC   H3S 8087   0.267   2.282   2.899 -0.3743  1.5832 -2.3224
   85SLPC   C24 8088   0.128   2.130   2.980  0.1610 -0.3030  0.2862
   85SLPC   H4R 8089   0.217   2.095   3.036 -0.1182  1.5257  1.9593
   85SLPC   H4S 8090   0.115   2.061   2.894 -1.5056  2.2647 -1.7220
   85SLPC   C25 8091   0.002   2.120   3.061  0.1795 -0.4074  0.2686
   85SLPC   H5R 8092  -0.090   2.155   3.010 -0.5811  0.4048  2.1485
   85SLPC   H5S 8093  -0.012   2.011   3.075  3.6268 -1.2768 -1.7057
   85SLPC   C26 8094   0.001   2.193   3.197  0.0830 -0.2408  0.1129
   85SLPC   H6R 8095  -0.101   2.165   3.233  0.6067 -0.8814  1.1661
   85SLPC   H6S 8096   0.016   2.301   3.180 -0.8102 -0.4143 -2.0607
   85SLPC   C27 8097   0.104   2.135   3.299  0.1177  0.3311  0.4274
   85SLPC   H7R 8098   0.204   2.151   3.254  0.4385 -0.9605  0.6114
   85SLPC   H7S 8099   0.101   2.024   3.306  0.8304  0.2688 -0.1296
   85SLPC   C28 8100   0.088   2.188   3.448  0.5309  0.9901  0.2203
   85SLPC   H8R 8101   0.085   2.299   3.449 -1.1933  1.0801 -2.5802
   85SLPC   H8S 8102   0.179   2.148   3.497 -1.1616 -1.9483  1.2752
   85SLPC   C29 8103  -0.027   2.124   3.524 -0.7965 -0.2274 -0.5116
   85SLPC   H9R 8104  -0.112   2.099   3.460 -0.9912 -1.9690  0.3710
   85SLPC  C210 8105  -0.035   2.100   3.654  0.2750 -0.1274  0.6651
   85SLPC  H10R 8106  -0.122   2.041   3.686 -0.5775  0.4670 -0.4716
   85SLPC  C211 8107   0.088   2.122   3.746 -0.4114  0.2394 -0.4455
   85SLPC  H11R 8108   0.139   2.214   3.710 -4.2569  2.4106 -0.8526
   85SLPC  H11S 8109   0.159   2.037   3.734 -0.0667  0.2040  1.5060
   85SLPC  C212 8110   0.052   2.126   3.896  0.4149  0.7975  0.2450
   85SLPC  H12R 8111   0.018   2.221   3.941 -0.0063  1.1006 -0.7071
   85SLPC  C213 8112   0.053   2.013   3.978  0.0052 -0.5370  0.0069
   85SLPC  H13R 8113   0.040   2.025   4.087  1.5143 -0.7620  0.2363
   85SLPC  C214 8114   0.105   1.875   3.947 -0.2439 -0.3313  0.1963
   85SLPC  H14R 8115   0.213   1.885   3.925 -0.3335  2.0120  0.5922
   85SLPC  H14S 8116   0.052   1.843   3.854  1.5321 -0.6316 -0.7509
   85SLPC  C215 8117   0.077   1.782   4.067  0.6404  0.0782  0.6539
   85SLPC  H15R 8118  -0.031   1.758   4.067  0.2182  1.8375  1.2333
   85SLPC  H15S 8119   0.106   1.841   4.156  1.2639  2.2126 -0.8882
   85SLPC  C216 8120   0.171   1.666   4.084 -0.7476  0.0515  0.1850
   85SLPC  H16R 8121   0.275   1.702   4.069 -0.0808 -1.9105 -0.1789
   85SLPC  H16S 8122   0.153   1.598   3.999 -1.5011  1.1524 -0.5619
   85SLPC  C217 8123   0.151   1.590   4.219  0.4367  0.6123  0.6622
   85SLPC  H17R 8124   0.042   1.570   4.222 -0.3898  4.4420  1.3088
   85SLPC  H17S 8125   0.177   1.667   4.294  1.2580  0.2906  0.7226
   85SLPC  C218 8126   0.243   1.467   4.235 -0.3460  0.5927 -0.0542
   85SLPC  H18R 8127   0.348   1.498   4.217  0.3773 -1.5583  0.2733
   85SLPC  H18S 8128   0.219   1.404   4.147  0.6752  0.6061 -0.3438
   85SLPC  H18T 8129   0.232   1.413   4.332  0.7770 -0.5961 -0.5679
   85SLPC   C33 8130  -0.100   2.676   3.131  0.9142 -0.2095  0.7629
   85SLPC   H3X 8131  -0.203   2.637   3.118  0.3134  1.7467 -0.9368
   85SLPC   H3Y 8132  -0.095   2.786   3.118  1.1788 -0.1026  1.6595
   85SLPC   C34 8133  -0.061   2.627   3.269  0.2978  0.0570 -0.2069
   85SLPC   H4X 8134   0.046   2.650   3.286  0.4803  1.0594 -2.3996
   85SLPC   H4Y 8135  -0.082   2.518   3.277  1.1156 -0.0970 -0.0042
   85SLPC   C35 8136  -0.140   2.694   3.383 -0.2849 -0.3111  0.6356
   85SLPC   H5X 8137  -0.247   2.663   3.376  0.2970 -2.1437 -1.0175
   85SLPC   H5Y 8138  -0.145   2.802   3.358  1.4415 -0.0054  1.4850
   85SLPC   C36 8139  -0.080   2.682   3.525 -0.0506 -0.1077  0.5906
   85SLPC   H6X 8140  -0.143   2.751   3.585  0.0807  0.0547  0.5424
   85SLPC   H6Y 8141   0.021   2.727   3.517  1.3316 -3.0138  0.0447
   85SLPC   C37 8142  -0.094   2.538   3.573  0.2723  0.6613 -0.0351
   85SLPC   H7X 8143  -0.036   2.474   3.503 -1.6698  0.1088 -1.2257
   85SLPC   H7Y 8144  -0.199   2.508   3.554  0.5559 -0.3077 -0.1322
   85SLPC   C38 8145  -0.056   2.513   3.726 -0.1231 -0.0584  0.0345
   85SLPC   H8X 8146   0.029   2.579   3.754  0.5602 -0.7351 -0.3992
   85SLPC   H8Y 8147  -0.022   2.408   3.739  1.1371  0.4295  0.8071
   85SLPC   C39 8148  -0.182   2.535   3.811  0.4092  0.2819  0.1838
   85SLPC   H9X 8149  -0.265   2.475   3.768  0.9171 -0.1931 -0.1457
   85SLPC   H9Y 8150  -0.210   2.643   3.819 -0.7067 -0.0716  1.3730
   85SLPC  C310 8151  -0.171   2.484   3.956 -0.5768 -0.4141 -0.4144
   85SLPC  H10X 8152  -0.152   2.375   3.946 -1.9186 -0.5755 -1.5982
   85SLPC  H10Y 8153  -0.256   2.497   4.026  1.9801 -0.4429  2.8896
   85SLPC  C311 8154  -0.054   2.546   4.033 -0.0802  0.2009 -0.5971
   85SLPC  H11X 8155  -0.083   2.653   4.042 -0.1369 -0.0300  3.5025
   85SLPC  H11Y 8156   0.043   2.522   3.984  0.2975 -1.3132  0.8222
   85SLPC  C312 8157  -0.042   2.496   4.179 -0.2604  0.3235 -0.2000
   85SLPC  H12X 8158  -0.018   2.388   4.181 -0.6808  0.2358  1.4690
   85SLPC  H12Y 8159  -0.137   2.525   4.230  0.1204  1.9064 -0.3455
   85SLPC  C313 8160   0.063   2.571   4.263  0.1389  0.5179  0.3642
   85SLPC  H13X 8161   0.057   2.537   4.369  0.8587  0.2981  0.3329
   85SLPC  H13Y 8162   0.040   2.680   4.261 -1.5483  0.1933 -0.2085
   85SLPC  C314 8163   0.200   2.547   4.201 -0.3144  0.4703  0.8512
   85SLPC  H14X 8164   0.264   2.623   4.250  1.2284  0.1222 -0.5400
   85SLPC  H14Y 8165   0.203   2.567   4.092 -1.6116 -3.0332  0.0327
   85SLPC  C315 8166   0.246   2.409   4.243  0.2335 -0.3555  0.5289
   85SLPC  H15X 8167   0.171   2.328   4.234 -1.9955  1.2596  2.8309
   85SLPC  H15Y 8168   0.267   2.421   4.352 -0.3142  2.8284  0.3953
   85SLPC  C316 8169   0.379   2.379   4.168 -0.2747  0.3279  0.4139
   85SLPC  H16X 8170   0.357   2.364   4.060 -0.9492 -1.3121  0.7435
   85SLPC  H16Y 8171   0.419   2.291   4.224  0.4367  0.8978  0.8131
   85SLPC  C317 8172   0.479   2.499   4.176  0.9091 -0.5233  0.6970
   85SLPC  H17X 8173   0.497   2.539   4.278  1.9403  2.0905 -0.4079
   85SLPC  H17Y 8174   0.439   2.590   4.127  0.9501 -0.3727  0.9375
   85SLPC  C318 8175   0.609   2.454   4.113  0.0271 -0.1607  0.2449
   85SLPC  H18X 8176   0.587   2.414   4.012 -1.5019 -0.0698  0.5137
   85SLPC  H18Y 8177   0.652   2.367   4.166  0.0974 -1.0756 -1.2416
   85SLPC  H18Z 8178   0.692   2.528   4.112 -0.3796  0.3014 -0.7775
   86SLPC     N 8179   5.392   5.319   2.060  0.7843  0.3683 -0.0750
   86SLPC   C13 8180   5.337   5.274   1.930  0.2448  0.0286 -0.1756
   86SLPC  H13A 8181   5.398   5.210   1.870  1.1947  0.9001 -0.1726
   86SLPC  H13B 8182   5.233   5.243   1.933 -0.9605  3.5954  0.3749
   86SLPC  H13C 8183   5.315   5.368   1.881 -0.7603  1.0578  2.0859
   86SLPC   C14 8184   5.514   5.402   2.027 -0.4375  0.5759 -0.1037
   86SLPC  H14A 8185   5.579   5.345   1.962  0.3840  1.8504 -0.4442
   86SLPC  H14B 8186   5.487   5.492   1.974 -0.9163 -0.3854 -1.5419
   86SLPC  H14C 8187   5.575   5.421   2.114  0.3957 -0.8360 -0.3510
   86SLPC   C15 8188   5.432   5.193   2.137  0.0194  0.6466 -0.1851
   86SLPC  H15A 8189   5.358   5.121   2.168  2.5799 -1.6765  0.9430
   86SLPC  H15B 8190   5.512   5.152   2.077  0.9021  0.9923  0.7243
   86SLPC  H15C 8191   5.479   5.224   2.230  0.2212  0.4813 -0.2318
   86SLPC   C12 8192   5.293   5.401   2.131  0.3443 -0.0937  0.0392
   86SLPC  H12A 8193   5.258   5.468   2.054  0.8256  0.5048  0.3328
   86SLPC  H12B 8194   5.340   5.460   2.208  0.0766 -2.0772  1.8081
   86SLPC   C11 8195   5.155   5.341   2.177  0.2723  0.6164  0.1569
   86SLPC  H11A 8196   5.101   5.430   2.215 -0.3957 -0.1467  1.0615
   86SLPC  H11B 8197   5.157   5.273   2.266 -1.5962  0.9537  0.5096
   86SLPC     P 8198   4.941   5.227   2.064  0.1458 -0.0429 -0.1691
   86SLPC   O13 8199   4.869   5.279   1.945 -0.3958 -0.2416 -0.4315
   86SLPC   O14 8200   4.963   5.080   2.067 -0.1155  0.1626 -1.0939
   86SLPC   O12 8201   5.089   5.280   2.067  0.3180 -0.2957 -0.2574
   86SLPC   O11 8202   4.868   5.272   2.199  0.3037 -0.3939  0.3100
   86SLPC    C1 8203   4.811   5.406   2.203 -0.3043 -0.7404  0.3305
   86SLPC    HA 8204   4.892   5.479   2.186 -0.8337 -0.3578 -0.6097
   86SLPC    HB 8205   4.733   5.411   2.124  1.7237  1.7533 -1.6601
   86SLPC    C2 8206   4.744   5.442   2.337 -0.3388  0.2243  0.2146
   86SLPC    HS 8207   4.725   5.551   2.335 -5.1458 -0.3724 -0.9996
   86SLPC   O21 8208   4.828   5.406   2.443  0.1675  0.0753 -0.1444
   86SLPC   C21 8209   4.938   5.478   2.459  0.6342  0.9783 -0.5273
   86SLPC   O22 8210   4.957   5.586   2.409 -0.0783  0.0702  0.1413
   86SLPC   C22 8211   5.033   5.404   2.558  0.2327  0.3049 -0.8460
   86SLPC   H2R 8212   4.976   5.390   2.653  0.6437  1.4137 -0.4257
   86SLPC   H2S 8213   5.068   5.312   2.506  2.1881  1.7344 -2.2145
   86SLPC    C3 8214   4.607   5.373   2.349 -0.3227  0.1228 -0.1429
   86SLPC    HX 8215   4.622   5.264   2.361  1.0648 -0.0851 -2.8942
   86SLPC    HY 8216   4.559   5.380   2.249 -0.7579  0.2641  0.0708
   86SLPC   O31 8217   4.531   5.434   2.453  0.1885  0.5098 -0.1183
   86SLPC   C31 8218   4.401   5.434   2.431 -0.2673  0.2089  0.5448
   86SLPC   O32 8219   4.342   5.386   2.332 -0.8940  0.1949  0.0855
   86SLPC   C32 8220   4.335   5.497   2.552 -0.3435 -0.3081 -0.4411
   86SLPC   H2X 8221   4.361   5.605   2.546  0.4087 -0.5328 -1.6036
   86SLPC   H2Y 8222   4.368   5.449   2.646 -0.7626 -0.7171 -0.5004
   86SLPC   C23 8223   5.167   5.477   2.591 -0.2929  1.0371 -0.2578
   86SLPC   H3R 8224   5.202   5.525   2.497  0.6655  1.2566  0.1913
   86SLPC   H3S 8225   5.243   5.400   2.618 -1.3044 -0.4291 -1.4203
   86SLPC   C24 8226   5.158   5.586   2.698 -0.8746  0.0762  0.4602
   86SLPC   H4R 8227   5.085   5.656   2.651  0.1559  1.2481  0.5514
   86SLPC   H4S 8228   5.254   5.643   2.700 -1.5129  1.1876  3.0869
   86SLPC   C25 8229   5.120   5.543   2.835 -0.2519 -0.5813 -0.6603
   86SLPC   H5R 8230   5.183   5.459   2.871 -0.8459  0.3078  2.8856
   86SLPC   H5S 8231   5.017   5.503   2.841 -0.3375 -0.1778  3.2861
   86SLPC   C26 8232   5.120   5.654   2.942  0.1653 -0.2732  1.0072
   86SLPC   H6R 8233   5.040   5.726   2.913  0.4477  0.9335  3.0122
   86SLPC   H6S 8234   5.212   5.715   2.932  0.2392 -0.0668  2.6728
   86SLPC   C27 8235   5.103   5.603   3.087 -0.6025  0.1380  0.3051
   86SLPC   H7R 8236   5.153   5.504   3.103 -0.9244 -0.5215 -2.2853
   86SLPC   H7S 8237   4.998   5.583   3.117 -0.4330  1.1538  1.6772
   86SLPC   C28 8238   5.162   5.711   3.182  0.7928  0.0303  0.2797
   86SLPC   H8R 8239   5.263   5.751   3.160  0.5827  1.2296  1.3722
   86SLPC   H8S 8240   5.182   5.663   3.280  1.9007  1.2515  0.6782
   86SLPC   C29 8241   5.079   5.829   3.197  0.0547 -0.3000  0.6400
   86SLPC   H9R 8242   5.068   5.887   3.104  1.2014  0.4964  0.9700
   86SLPC  C210 8243   4.994   5.851   3.300 -0.3750  0.5497 -0.0621
   86SLPC  H10R 8244   4.937   5.945   3.303  1.5773  1.8264 -1.1192
   86SLPC  C211 8245   4.968   5.767   3.425 -0.0063  0.2989  0.5352
   86SLPC  H11R 8246   4.872   5.803   3.468 -1.6956 -1.3194 -1.6474
   86SLPC  H11S 8247   5.039   5.798   3.505  0.3842  0.8564 -0.0176
   86SLPC  C212 8248   4.952   5.618   3.417  0.1178  0.2469 -0.1191
   86SLPC  H12R 8249   4.942   5.561   3.323 -0.4085 -0.4395  0.3427
   86SLPC  C213 8250   4.978   5.539   3.526  0.2621 -0.8732 -0.4604
   86SLPC  H13R 8251   4.983   5.431   3.510  2.6721 -0.5946 -2.1548
   86SLPC  C214 8252   5.000   5.578   3.670 -0.1399 -0.1883  0.0028
   86SLPC  H14R 8253   4.962   5.681   3.690 -1.0712 -0.6368  0.5723
   86SLPC  H14S 8254   5.110   5.583   3.684 -0.0692  0.7882 -0.7760
   86SLPC  C215 8255   4.934   5.470   3.755  1.1870 -0.2641  0.1032
   86SLPC  H15R 8256   4.959   5.364   3.733 -2.4748 -1.0760 -0.9445
   86SLPC  H15S 8257   4.824   5.468   3.739  1.3498  0.6958 -1.3417
   86SLPC  C216 8258   4.950   5.493   3.904 -0.8626 -0.9625  0.8178
   86SLPC  H16R 8259   5.028   5.571   3.920 -0.5425 -1.3407  1.1282
   86SLPC  H16S 8260   4.996   5.406   3.954  1.1239  0.2207  1.1536
   86SLPC  C217 8261   4.818   5.527   3.973  0.3557 -0.0254  0.1038
   86SLPC  H17R 8262   4.737   5.453   3.956  0.8795 -0.1418 -2.2988
   86SLPC  H17S 8263   4.785   5.626   3.935  1.8152 -0.1301 -1.6011
   86SLPC  C218 8264   4.831   5.570   4.119 -0.5771 -0.2473  0.7002
   86SLPC  H18R 8265   4.739   5.575   4.182 -1.0664  1.6127 -0.0781
   86SLPC  H18S 8266   4.892   5.663   4.124 -0.6993 -0.2379  3.0873
   86SLPC  H18T 8267   4.899   5.494   4.162  0.5618 -0.5093 -1.4444
   86SLPC   C33 8268   4.184   5.473   2.557 -0.0104 -0.3094  0.5309
   86SLPC   H3X 8269   4.149   5.369   2.537 -1.0768 -0.5715  3.3626
   86SLPC   H3Y 8270   4.139   5.532   2.474  1.1984  0.5700  0.4705
   86SLPC   C34 8271   4.124   5.511   2.694  0.2176 -0.0315 -0.2199
   86SLPC   H4X 8272   4.173   5.471   2.785  1.8531 -0.4180 -1.2144
   86SLPC   H4Y 8273   4.020   5.473   2.701 -0.0736  0.7055 -0.3768
   86SLPC   C35 8274   4.122   5.665   2.709  0.5917 -0.3131  0.1524
   86SLPC   H5X 8275   4.065   5.705   2.622  0.0699 -1.6536 -0.1355
   86SLPC   H5Y 8276   4.227   5.700   2.722 -0.1250  1.9906  0.2613
   86SLPC   C36 8277   4.045   5.714   2.839 -0.3454 -0.1375 -0.7906
   86SLPC   H6X 8278   3.948   5.659   2.833  0.0840 -0.9285 -0.6114
   86SLPC   H6Y 8279   4.013   5.821   2.832 -1.0313 -0.0902  1.7712
   86SLPC   C37 8280   4.112   5.689   2.977 -0.1428  0.3926 -0.3524
   86SLPC   H7X 8281   4.219   5.717   2.971  0.1619 -0.5439  0.4544
   86SLPC   H7Y 8282   4.087   5.585   3.007  0.5644  0.1997 -0.4201
   86SLPC   C38 8283   4.053   5.785   3.088 -0.5043 -0.3787  0.4122
   86SLPC   H8X 8284   3.943   5.774   3.094 -0.6110  0.4353  0.0816
   86SLPC   H8Y 8285   4.058   5.885   3.041  1.7518 -1.5056 -1.9986
   86SLPC   C39 8286   4.121   5.784   3.230  0.0489  0.1158 -0.0648
   86SLPC   H9X 8287   4.222   5.829   3.228 -0.1413  0.5367 -2.3170
   86SLPC   H9Y 8288   4.152   5.682   3.264  2.8046  0.5645 -1.0341
   86SLPC  C310 8289   4.042   5.861   3.332 -0.2676  0.0038  0.2678
   86SLPC  H10X 8290   3.944   5.810   3.341  0.5033 -1.5652  0.0376
   86SLPC  H10Y 8291   4.035   5.967   3.301 -0.8615 -0.4727 -1.3022
   86SLPC  C311 8292   4.104   5.859   3.479 -0.1412  0.4046 -0.2052
   86SLPC  H11X 8293   4.200   5.912   3.461 -0.0621 -0.1493 -1.5365
   86SLPC  H11Y 8294   4.138   5.761   3.518  0.2804  0.3611 -0.6637
   86SLPC  C312 8295   4.025   5.960   3.575 -0.1697 -0.0427  0.4690
   86SLPC  H12X 8296   3.933   5.900   3.594  0.0688  0.0625  2.1046
   86SLPC  H12Y 8297   3.993   6.053   3.523  0.4141 -0.7541 -1.2615
   86SLPC  C313 8298   4.097   5.984   3.706 -0.1677 -0.5572 -0.7224
   86SLPC  H13X 8299   4.194   6.031   3.680 -0.6283  0.5588 -0.4789
   86SLPC  H13Y 8300   4.120   5.889   3.761  1.3315  0.1491 -0.0695
   86SLPC  C314 8301   4.018   6.085   3.801 -0.1370 -1.0634 -0.3838
   86SLPC  H14X 8302   3.924   6.035   3.832 -0.3776  1.0676  2.7339
   86SLPC  H14Y 8303   4.007   6.170   3.730  1.0635  0.1584  0.8349
   86SLPC  C315 8304   4.086   6.121   3.942  0.0296  0.1012 -0.5252
   86SLPC  H15X 8305   4.012   6.186   3.993 -0.8645  0.3645 -2.0827
   86SLPC  H15Y 8306   4.168   6.193   3.919  0.7629 -0.0310  1.4468
   86SLPC  C316 8307   4.136   6.010   4.035  0.7504  1.4632  0.8228
   86SLPC  H16X 8308   4.171   6.048   4.134  1.7280 -2.2160  2.0588
   86SLPC  H16Y 8309   4.207   5.936   3.993 -2.2061 -0.9982 -0.2343
   86SLPC  C317 8310   4.026   5.900   4.074 -0.4465 -0.4612 -0.2145
   86SLPC  H17X 8311   3.995   5.844   3.983  0.5021  0.4948 -1.1597
   86SLPC  H17Y 8312   3.928   5.941   4.107 -0.2267 -0.2719  0.2031
   86SLPC  C318 8313   4.081   5.817   4.188  0.3711  0.1531  0.4174
   86SLPC  H18X 8314   4.008   5.738   4.217  1.1327 -1.8437 -2.6443
   86SLPC  H18Y 8315   4.106   5.881   4.275  0.1357 -0.4199  0.9175
   86SLPC  H18Z 8316   4.180   5.769   4.170 -0.7526 -1.7631 -1.0397
   87SLPC     N 8317   0.053   5.103   2.329 -0.6083  0.0795  0.3725
   87SLPC   C13 8318   0.161   5.205   2.286  0.0761 -0.0980 -0.7174
   87SLPC  H13A 8319   0.146   5.219   2.180  0.2972  2.3748 -0.4907
   87SLPC  H13B 8320   0.138   5.303   2.325 -2.5504 -0.7468 -0.3805
   87SLPC  H13C 8321   0.264   5.174   2.293 -0.4343 -1.9119 -0.7287
   87SLPC   C14 8322   0.079   4.969   2.258  1.0902 -0.6377  0.8131
   87SLPC  H14A 8323  -0.004   4.904   2.283 -1.2887  1.3959 -1.2989
   87SLPC  H14B 8324   0.089   4.980   2.151  1.7599 -1.7636  0.7444
   87SLPC  H14C 8325   0.166   4.918   2.298  0.2511 -0.1744  3.4240
   87SLPC   C15 8326  -0.080   5.143   2.289 -0.3311 -0.2760  0.0175
   87SLPC  H15A 8327  -0.146   5.067   2.328 -0.1935 -0.0250  0.7492
   87SLPC  H15B 8328  -0.116   5.234   2.334 -0.4546 -0.3201  0.0081
   87SLPC  H15C 8329  -0.081   5.153   2.181  1.1928  0.6658  0.0636
   87SLPC   C12 8330   0.061   5.072   2.478 -0.2368  0.1966 -0.1093
   87SLPC  H12A 8331   0.070   5.170   2.523 -2.7960  1.6085 -2.3755
   87SLPC  H12B 8332   0.152   5.015   2.492  0.5376  1.2573 -0.6948
   87SLPC   C11 8333  -0.059   4.996   2.542  0.3056 -0.6850  0.6580
   87SLPC  H11A 8334  -0.026   4.972   2.645 -1.6157 -2.5127  0.9170
   87SLPC  H11B 8335  -0.068   4.910   2.472 -1.1789  1.3222 -1.8192
   87SLPC     P 8336  -0.244   5.164   2.621 -0.0173  0.1349 -0.1919
   87SLPC   O13 8337  -0.151   5.281   2.620 -0.0691  0.3473 -0.4649
   87SLPC   O14 8338  -0.382   5.191   2.577  0.1394 -0.6516  0.0119
   87SLPC   O12 8339  -0.185   5.063   2.522  0.0748 -0.2432  0.1220
   87SLPC   O11 8340  -0.240   5.095   2.758  0.6261  0.0620  0.0888
   87SLPC    C1 8341  -0.353   5.049   2.837 -0.0384 -0.3952 -1.0235
   87SLPC    HA 8342  -0.448   5.045   2.779 -2.7604 -0.1030  3.0428
   87SLPC    HB 8343  -0.331   4.948   2.879 -1.6330 -1.0064 -1.5782
   87SLPC    C2 8344  -0.374   5.150   2.958  0.0669 -0.3769 -0.4730
   87SLPC    HS 8345  -0.467   5.117   3.008  0.9162 -1.9768  0.1410
   87SLPC   O21 8346  -0.383   5.285   2.918  0.3337 -0.2825  0.2932
   87SLPC   C21 8347  -0.493   5.335   2.852  0.0064 -0.4755  0.3679
   87SLPC   O22 8348  -0.597   5.274   2.834  0.1053  0.1326  0.4663
   87SLPC   C22 8349  -0.482   5.480   2.827  0.0843 -0.1099 -0.7828
   87SLPC   H2R 8350  -0.378   5.518   2.820  0.9439 -1.4359  2.5090
   87SLPC   H2S 8351  -0.531   5.509   2.732 -1.2120  1.7558  0.3804
   87SLPC    C3 8352  -0.256   5.145   3.055  0.9105  0.7770 -0.5202
   87SLPC    HX 8353  -0.171   5.188   2.997 -0.9781  0.7423 -3.5184
   87SLPC    HY 8354  -0.218   5.041   3.065  3.1616  1.5635 -0.1797
   87SLPC   O31 8355  -0.285   5.202   3.187  0.2518  0.2033 -0.4133
   87SLPC   C31 8356  -0.212   5.304   3.222  0.5099 -0.2638 -0.0274
   87SLPC   O32 8357  -0.142   5.370   3.147 -0.1680 -0.7306  0.5247
   87SLPC   C32 8358  -0.226   5.329   3.375 -0.1750  0.1351 -0.4549
   87SLPC   H2X 8359  -0.217   5.226   3.417 -2.2865  0.5890  1.2996
   87SLPC   H2Y 8360  -0.329   5.369   3.384 -0.7459 -1.3235 -0.1622
   87SLPC   C23 8361  -0.551   5.555   2.942 -0.5418  0.3769 -0.7611
   87SLPC   H3R 8362  -0.660   5.535   2.943 -0.6576  0.9607 -1.0355
   87SLPC   H3S 8363  -0.539   5.661   2.909 -0.4902 -0.6317 -4.3620
   87SLPC   C24 8364  -0.473   5.551   3.076 -0.1191 -0.3945 -0.4850
   87SLPC   H4R 8365  -0.363   5.555   3.058 -0.1403  1.4317 -0.4633
   87SLPC   H4S 8366  -0.496   5.455   3.127 -0.8512 -1.4312 -2.6460
   87SLPC   C25 8367  -0.497   5.674   3.169  0.1938 -0.0859 -0.5546
   87SLPC   H5R 8368  -0.602   5.672   3.205  0.2034  1.7246 -0.2994
   87SLPC   H5S 8369  -0.475   5.763   3.105 -1.9111  0.0796 -1.1346
   87SLPC   C26 8370  -0.407   5.694   3.303 -0.1141 -0.2901  0.6271
   87SLPC   H6R 8371  -0.306   5.721   3.263 -1.6217  1.2698 -2.5078
   87SLPC   H6S 8372  -0.401   5.605   3.369  0.1152 -0.9668 -0.2680
   87SLPC   C27 8373  -0.459   5.808   3.393  0.2653 -0.2791 -0.2162
   87SLPC   H7R 8374  -0.570   5.800   3.398  0.3085 -0.3284  0.9595
   87SLPC   H7S 8375  -0.442   5.900   3.334 -1.8464 -0.0348 -0.5143
   87SLPC   C28 8376  -0.378   5.821   3.524 -0.1357 -0.4873 -0.1511
   87SLPC   H8R 8377  -0.388   5.929   3.549  1.4838 -0.4824  0.6356
   87SLPC   H8S 8378  -0.269   5.803   3.513 -0.0218  0.5942 -1.1030
   87SLPC   C29 8379  -0.438   5.725   3.617 -0.2449  0.0803 -1.0091
   87SLPC   H9R 8380  -0.457   5.622   3.581 -1.3941  0.4377 -1.4540
   87SLPC  C210 8381  -0.472   5.746   3.746  0.3050 -0.4469  0.6082
   87SLPC  H10R 8382  -0.514   5.665   3.807 -0.4653 -1.3350 -1.0429
   87SLPC  C211 8383  -0.460   5.875   3.826  0.1047  0.0757 -0.0227
   87SLPC  H11R 8384  -0.504   5.843   3.923 -0.4974  1.1160  0.0624
   87SLPC  H11S 8385  -0.518   5.952   3.771  0.0372 -1.4538 -2.2354
   87SLPC  C212 8386  -0.325   5.934   3.847 -0.1920  0.4366  0.6535
   87SLPC  H12R 8387  -0.256   5.922   3.762 -0.1197  0.5378  0.6982
   87SLPC  C213 8388  -0.287   6.010   3.951 -0.3589  0.3794 -0.5472
   87SLPC  H13R 8389  -0.190   6.062   3.949 -1.1969  2.0996  0.4978
   87SLPC  C214 8390  -0.380   6.038   4.071  0.0644  0.1630  0.4493
   87SLPC  H14R 8391  -0.434   5.948   4.108  1.2405  0.2657  2.5217
   87SLPC  H14S 8392  -0.443   6.128   4.056  0.0144 -0.1369 -1.3759
   87SLPC  C215 8393  -0.305   6.075   4.201  0.5073  0.6144 -0.1560
   87SLPC  H15R 8394  -0.382   6.104   4.275 -0.0721 -2.3648  0.5491
   87SLPC  H15S 8395  -0.241   6.161   4.171  0.7984  0.2814 -0.4948
   87SLPC  C216 8396  -0.228   5.958   4.272  0.2789  0.5304  0.1604
   87SLPC  H16R 8397  -0.159   6.005   4.346  0.9809  0.7691 -0.6237
   87SLPC  H16S 8398  -0.156   5.906   4.205  0.0927  1.8821 -1.1563
   87SLPC  C217 8399  -0.316   5.863   4.361 -0.1848 -0.0298  0.5218
   87SLPC  H17R 8400  -0.390   5.814   4.294 -0.5651  0.4280  0.6023
   87SLPC  H17S 8401  -0.379   5.922   4.431  2.1683  2.7885  0.4636
   87SLPC  C218 8402  -0.236   5.756   4.439  0.1503  0.9372  0.5850
   87SLPC  H18R 8403  -0.300   5.717   4.521 -0.5055 -0.1086 -0.4008
   87SLPC  H18S 8404  -0.142   5.792   4.487 -0.1183  1.7961  0.4700
   87SLPC  H18T 8405  -0.227   5.673   4.366 -0.8987 -0.0722  1.5496
   87SLPC   C33 8406  -0.122   5.428   3.429 -0.5371  0.0547 -0.3650
   87SLPC   H3X 8407  -0.134   5.528   3.383  1.3894  0.8065  0.6779
   87SLPC   H3Y 8408  -0.022   5.388   3.404 -0.3782 -1.7239  2.6107
   87SLPC   C34 8409  -0.134   5.466   3.582 -0.1900 -0.4113 -0.9892
   87SLPC   H4X 8410  -0.106   5.373   3.637 -0.2451  0.2009  0.0994
   87SLPC   H4Y 8411  -0.243   5.484   3.594 -0.1009 -0.6049  0.3055
   87SLPC   C35 8412  -0.037   5.573   3.621  0.1660 -0.3573  0.1694
   87SLPC   H5X 8413  -0.065   5.656   3.553 -1.8929 -0.9582  0.1917
   87SLPC   H5Y 8414   0.067   5.540   3.600  0.1820  0.4459 -1.1436
   87SLPC   C36 8415  -0.056   5.623   3.762  0.1068  0.1939 -0.1324
   87SLPC   H6X 8416  -0.164   5.629   3.787  0.5262  0.3081  1.8127
   87SLPC   H6Y 8417  -0.014   5.726   3.763 -0.0446  0.2684 -0.7058
   87SLPC   C37 8418   0.032   5.555   3.865  0.2996  0.3175 -0.1729
   87SLPC   H7X 8419   0.143   5.556   3.858  0.3192 -0.3214 -0.0292
   87SLPC   H7Y 8420  -0.006   5.451   3.865  0.4797  0.2477 -0.6831
   87SLPC   C38 8421   0.015   5.624   4.003 -0.6293  0.5683  0.1410
   87SLPC   H8X 8422  -0.090   5.618   4.037 -0.5031  0.3887  0.5058
   87SLPC   H8Y 8423   0.058   5.726   4.004 -1.9054  1.1500 -1.1364
   87SLPC   C39 8424   0.088   5.532   4.108  0.1379  0.0892  1.2924
   87SLPC   H9X 8425   0.195   5.522   4.081 -0.5802 -0.1103 -1.9304
   87SLPC   H9Y 8426   0.048   5.430   4.087 -2.0492  1.1807 -0.2734
   87SLPC  C310 8427   0.047   5.564   4.253 -0.3428  1.1130 -0.0665
   87SLPC  H10X 8428  -0.062   5.544   4.262 -0.0454 -1.1841 -0.9554
   87SLPC  H10Y 8429   0.069   5.673   4.249  0.6506  0.8879 -1.1889
   87SLPC  C311 8430   0.130   5.495   4.360 -0.1821 -0.1049  0.5080
   87SLPC  H11X 8431   0.230   5.543   4.361 -0.5001  0.5695  0.1549
   87SLPC  H11Y 8432   0.147   5.390   4.326  1.0980 -0.2351  1.4652
   87SLPC  C312 8433   0.076   5.499   4.504 -0.4153  0.8105 -0.4590
   87SLPC  H12X 8434  -0.024   5.450   4.508  0.3338 -0.9793 -2.1520
   87SLPC  H12Y 8435   0.051   5.603   4.535 -0.1597  0.9116 -0.5898
   87SLPC  C313 8436   0.186   5.441   4.598  0.1596 -0.2565  0.2133
   87SLPC  H13X 8437   0.254   5.527   4.610 -0.8677  0.5069  0.7229
   87SLPC  H13Y 8438   0.239   5.354   4.553 -0.1810 -0.1161 -0.4742
   87SLPC  C314 8439   0.138   5.400   4.738 -0.5468  0.7974  0.2407
   87SLPC  H14X 8440   0.055   5.327   4.724 -0.1738  0.3226  0.4613
   87SLPC  H14Y 8441   0.085   5.481   4.792 -1.6130 -1.4550  2.8061
   87SLPC  C315 8442   0.248   5.336   4.820  0.5540  0.3773  0.2551
   87SLPC  H15X 8443   0.291   5.267   4.743  1.4577  2.3450 -1.0747
   87SLPC  H15Y 8444   0.208   5.274   4.903  0.1662  0.0495 -0.1685
   87SLPC  C316 8445   0.355   5.427   4.880  0.1451 -0.4687 -0.0309
   87SLPC  H16X 8446   0.315   5.522   4.922 -0.0217  0.1351 -1.4857
   87SLPC  H16Y 8447   0.416   5.471   4.798 -0.9847 -0.8482 -1.1049
   87SLPC  C317 8448   0.447   5.343   4.967  0.3456  0.1389 -0.6040
   87SLPC  H17X 8449   0.470   5.247   4.916  1.7696  0.1227  0.0210
   87SLPC  H17Y 8450   0.396   5.304   5.058  2.4510 -1.5115 -0.0392
   87SLPC  C318 8451   0.581   5.413   4.993  0.3523  0.2321  0.4406
   87SLPC  H18X 8452   0.609   5.486   4.915 -0.7856 -0.7958 -1.0023
   87SLPC  H18Y 8453   0.662   5.337   5.002  0.8288  0.6510 -0.2935
   87SLPC  H18Z 8454   0.576   5.468   5.089  0.0743  1.8332 -0.4663
   88SLPC     N 8455   6.694   5.865   1.954  0.6829  0.1879  0.4926
   88SLPC   C13 8456   6.707   5.913   1.809 -0.0222 -0.0275 -0.1289
   88SLPC  H13A 8457   6.809   5.892   1.780  0.1079  1.0032 -0.4543
   88SLPC  H13B 8458   6.654   5.844   1.745  2.6040 -1.6762 -0.6894
   88SLPC  H13C 8459   6.689   6.018   1.792  0.5601  0.0312 -0.3939
   88SLPC   C14 8460   6.738   5.724   1.944 -0.0090 -0.9528  0.1758
   88SLPC  H14A 8461   6.669   5.669   1.882 -0.1385  0.1530 -0.6982
   88SLPC  H14B 8462   6.833   5.732   1.895 -0.2349  4.7687 -0.0198
   88SLPC  H14C 8463   6.748   5.668   2.036 -1.6300 -2.4492 -0.5040
   88SLPC   C15 8464   6.552   5.877   1.995 -1.4679  0.6255  0.1174
   88SLPC  H15A 8465   6.529   5.981   2.014  1.3699  1.1945  1.0034
   88SLPC  H15B 8466   6.478   5.838   1.928 -1.7495  2.8660 -0.9822
   88SLPC  H15C 8467   6.547   5.830   2.092 -1.3664 -0.4566 -0.3933
   88SLPC   C12 8468   6.781   5.953   2.040 -0.1756  0.1850 -0.1898
   88SLPC  H12A 8469   6.751   6.056   2.051  2.3684  0.9789 -0.1078
   88SLPC  H12B 8470   6.881   5.957   2.001  0.3210 -1.1195  0.8560
   88SLPC   C11 8471   6.802   5.910   2.187 -0.0227 -0.8404 -0.2300
   88SLPC  H11A 8472   6.894   5.956   2.230 -0.6006 -0.2021  0.3565
   88SLPC  H11B 8473   6.823   5.801   2.182 -1.0596 -0.9939 -3.0558
   88SLPC     P 8474   6.646   6.078   2.304 -0.1855  0.0305  0.7417
   88SLPC   O13 8475   6.766   6.136   2.371 -0.5505  0.7417  0.2009
   88SLPC   O14 8476   6.601   6.147   2.183 -0.3105  0.6574 -0.2635
   88SLPC   O12 8477   6.682   5.925   2.267 -0.2854 -0.6555  0.4711
   88SLPC   O11 8478   6.525   6.065   2.406  0.2187 -0.4581 -0.0608
   88SLPC    C1 8479   6.477   5.932   2.433 -0.5730 -0.9015 -0.2544
   88SLPC    HA 8480   6.424   5.887   2.347 -2.8349  0.0298  0.5924
   88SLPC    HB 8481   6.558   5.866   2.473  1.0353  1.4374  0.5625
   88SLPC    C2 8482   6.360   5.933   2.533 -0.3798  0.3761  0.0116
   88SLPC    HS 8483   6.271   5.954   2.468  1.1093  0.1311 -2.2283
   88SLPC   O21 8484   6.372   6.041   2.626  0.0858 -0.4709 -0.3445
   88SLPC   C21 8485   6.441   6.029   2.732 -0.9306  0.0035 -0.0940
   88SLPC   O22 8486   6.519   5.939   2.764 -0.4405 -0.2091 -0.3149
   88SLPC   C22 8487   6.361   6.108   2.837  0.8320 -0.5562 -0.3316
   88SLPC   H2R 8488   6.323   6.207   2.806  0.0995 -0.3752  1.0514
   88SLPC   H2S 8489   6.265   6.056   2.860  0.0245  1.6791  1.9000
   88SLPC    C3 8490   6.328   5.791   2.591  0.8083 -0.2592  0.0798
   88SLPC    HX 8491   6.431   5.753   2.610  1.2490  0.9205  0.1781
   88SLPC    HY 8492   6.284   5.717   2.522  1.0170 -1.3221  1.0456
   88SLPC   O31 8493   6.235   5.801   2.700 -0.1235 -0.7948  0.2475
   88SLPC   C31 8494   6.106   5.807   2.657  0.2855  0.0974  0.0607
   88SLPC   O32 8495   6.068   5.779   2.543 -0.0441 -0.3055 -0.5839
   88SLPC   C32 8496   6.008   5.846   2.768 -0.1634  0.4213 -0.0089
   88SLPC   H2X 8497   5.914   5.874   2.716 -0.4419  3.3966  1.8492
   88SLPC   H2Y 8498   6.048   5.939   2.813  1.8495 -0.2415 -0.3207
   88SLPC   C23 8499   6.435   6.120   2.973 -0.2991 -0.2340 -0.4603
   88SLPC   H3R 8500   6.515   6.197   2.969  2.3943 -2.8759 -0.3472
   88SLPC   H3S 8501   6.490   6.025   2.983 -1.7363 -1.0784 -0.3009
   88SLPC   C24 8502   6.341   6.145   3.086 -0.3811  0.4481  0.0010
   88SLPC   H4R 8503   6.262   6.066   3.090  0.5867 -0.5688 -0.2956
   88SLPC   H4S 8504   6.294   6.242   3.061  0.6312  0.6702 -1.1615
   88SLPC   C25 8505   6.423   6.153   3.212  0.2720  0.2424  0.5491
   88SLPC   H5R 8506   6.504   6.229   3.205  2.5680 -2.1571 -0.8658
   88SLPC   H5S 8507   6.476   6.055   3.218  1.3527  0.8609  1.4366
   88SLPC   C26 8508   6.348   6.196   3.341  0.2650  0.5052  0.0667
   88SLPC   H6R 8509   6.299   6.117   3.401  0.3682  0.7248  0.4489
   88SLPC   H6S 8510   6.261   6.260   3.314  0.2791  0.4941 -0.0058
   88SLPC   C27 8511   6.417   6.295   3.436 -0.0231  0.1087  0.0084
   88SLPC   H7R 8512   6.447   6.384   3.378  0.6012 -1.1525 -1.6812
   88SLPC   H7S 8513   6.513   6.247   3.467 -0.8279 -1.8307 -0.3339
   88SLPC   C28 8514   6.322   6.338   3.549  0.4494  0.0640  0.3506
   88SLPC   H8R 8515   6.225   6.372   3.506  0.1810 -0.0180  0.8803
   88SLPC   H8S 8516   6.369   6.431   3.589 -0.2078 -0.0286  1.3765
   88SLPC   C29 8517   6.307   6.233   3.660 -0.7844  0.4221 -0.1158
   88SLPC   H9R 8518   6.299   6.132   3.617 -0.5523  0.2706  0.1992
   88SLPC  C210 8519   6.303   6.263   3.788  0.9741  0.6783 -0.0713
   88SLPC  H10R 8520   6.260   6.185   3.853 -0.7619  1.9199  0.3515
   88SLPC  C211 8521   6.286   6.407   3.848  0.4426  0.0810 -0.0616
   88SLPC  H11R 8522   6.362   6.474   3.804 -1.3354  1.1024 -1.7495
   88SLPC  H11S 8523   6.310   6.399   3.956 -0.1571  3.3927  0.4093
   88SLPC  C212 8524   6.156   6.475   3.832 -0.3140 -0.3958  0.1054
   88SLPC  H12R 8525   6.151   6.532   3.738  1.3257 -1.1862 -0.4994
   88SLPC  C213 8526   6.050   6.462   3.901  0.6864  1.2528 -0.2446
   88SLPC  H13R 8527   5.957   6.515   3.877 -0.2078  0.9731  2.3232
   88SLPC  C214 8528   6.027   6.374   4.025 -0.2917  0.0562 -0.4714
   88SLPC  H14R 8529   6.119   6.312   4.035 -0.0907  0.3084 -0.7405
   88SLPC  H14S 8530   5.939   6.307   4.024 -0.4066  0.0817  1.9960
   88SLPC  C215 8531   6.010   6.461   4.157  0.0716  1.1509  0.1480
   88SLPC  H15R 8532   5.906   6.499   4.149 -0.1291  0.6288  0.2282
   88SLPC  H15S 8533   6.088   6.540   4.151 -2.0348  3.4193  0.7057
   88SLPC  C216 8534   6.042   6.392   4.288  0.8499 -0.4920  0.4460
   88SLPC  H16R 8535   6.120   6.315   4.274 -0.5830 -2.1737  1.2202
   88SLPC  H16S 8536   5.955   6.347   4.340 -0.3290  1.6162  0.4250
   88SLPC  C217 8537   6.093   6.484   4.394 -0.5006 -0.2916 -1.0553
   88SLPC  H17R 8538   6.034   6.570   4.432  2.2767  0.0496  3.1435
   88SLPC  H17S 8539   6.185   6.532   4.353 -0.3032  0.8465  0.6309
   88SLPC  C218 8540   6.129   6.407   4.524 -0.2964 -0.5714 -0.1584
   88SLPC  H18R 8541   6.217   6.342   4.502  0.8266  0.8143  0.1120
   88SLPC  H18S 8542   6.040   6.346   4.552  0.4862 -1.3383  0.7312
   88SLPC  H18T 8543   6.164   6.466   4.611  0.6699  1.4645 -1.8578
   88SLPC   C33 8544   5.981   5.733   2.870 -0.2791 -0.3956 -0.1397
   88SLPC   H3X 8545   6.079   5.699   2.910 -0.3842  2.3498  2.9426
   88SLPC   H3Y 8546   5.926   5.657   2.811 -1.1714  0.9039 -1.0080
   88SLPC   C34 8547   5.904   5.781   2.989 -0.3705 -0.4204 -0.0812
   88SLPC   H4X 8548   5.851   5.699   3.041 -0.2452  0.3526  1.2952
   88SLPC   H4Y 8549   5.825   5.849   2.951 -0.1877 -0.6141 -0.8363
   88SLPC   C35 8550   5.986   5.860   3.101  0.3504  0.5798 -0.3202
   88SLPC   H5X 8551   6.075   5.904   3.052  0.7222 -0.5033 -0.6335
   88SLPC   H5Y 8552   6.024   5.777   3.164 -1.3151 -0.1068 -0.1480
   88SLPC   C36 8553   5.905   5.968   3.172 -0.1388  0.1156 -0.0747
   88SLPC   H6X 8554   5.813   5.916   3.209  0.3005 -0.7770 -0.2161
   88SLPC   H6Y 8555   5.882   6.053   3.105 -3.1893 -1.5541 -1.3997
   88SLPC   C37 8556   5.991   6.002   3.300 -0.0636  0.1770  0.3519
   88SLPC   H7X 8557   6.079   6.057   3.263 -1.2860  2.7817  1.1150
   88SLPC   H7Y 8558   6.033   5.911   3.348 -1.5570 -0.4473  0.5324
   88SLPC   C38 8559   5.919   6.078   3.406  0.2093 -0.5365 -0.0896
   88SLPC   H8X 8560   5.819   6.036   3.428  0.8927 -0.5797  3.4879
   88SLPC   H8Y 8561   5.903   6.176   3.355  0.6951 -0.3635  0.0903
   88SLPC   C39 8562   5.988   6.101   3.542 -0.3554  0.2317  0.2049
   88SLPC   H9X 8563   6.069   6.177   3.532  1.3895 -1.5476  0.2069
   88SLPC   H9Y 8564   6.027   6.003   3.578 -1.0548 -0.6011 -1.2196
   88SLPC  C310 8565   5.885   6.159   3.646 -0.7871  0.1162  0.0039
   88SLPC  H10X 8566   5.844   6.254   3.606 -1.9745 -0.6966 -0.7953
   88SLPC  H10Y 8567   5.952   6.175   3.733  0.6726 -0.0703 -1.0472
   88SLPC  C311 8568   5.778   6.075   3.710 -0.1781 -0.6158  0.6586
   88SLPC  H11X 8569   5.826   5.978   3.735  1.2327 -0.3244 -0.7464
   88SLPC  H11Y 8570   5.694   6.063   3.638  0.1148  1.3920 -0.0724
   88SLPC  C312 8571   5.714   6.140   3.832  0.3780 -0.5102  0.3866
   88SLPC  H12X 8572   5.652   6.226   3.801 -0.1243 -0.5664  1.1889
   88SLPC  H12Y 8573   5.790   6.189   3.897 -1.0468  0.2732  1.5272
   88SLPC  C313 8574   5.633   6.046   3.915  0.6689 -0.2610 -0.9359
   88SLPC  H13X 8575   5.686   5.948   3.916  0.9754 -0.1003 -1.2263
   88SLPC  H13Y 8576   5.533   6.033   3.868  1.1810 -1.0042 -1.8507
   88SLPC  C314 8577   5.614   6.091   4.062  0.4956  0.7134 -0.7068
   88SLPC  H14X 8578   5.712   6.137   4.082  0.8157 -0.4079  0.4223
   88SLPC  H14Y 8579   5.606   6.009   4.136 -2.7207 -0.4324 -2.1023
   88SLPC  C315 8580   5.504   6.199   4.081  0.0808  0.2198 -0.4448
   88SLPC  H15X 8581   5.403   6.177   4.043  0.2425 -0.2896 -0.5823
   88SLPC  H15Y 8582   5.542   6.290   4.030 -1.4910  0.6862 -0.8360
   88SLPC  C316 8583   5.490   6.214   4.233 -0.1538  0.5895  0.4551
   88SLPC  H16X 8584   5.575   6.249   4.296  1.1683 -1.2586 -0.2087
   88SLPC  H16Y 8585   5.464   6.112   4.270  1.4874  0.3164  0.9358
   88SLPC  C317 8586   5.368   6.291   4.269  0.7846 -0.1402  0.5554
   88SLPC  H17X 8587   5.279   6.265   4.208 -0.5456 -2.0914  3.0693
   88SLPC  H17Y 8588   5.390   6.399   4.261  1.6044 -0.3471 -0.0705
   88SLPC  C318 8589   5.317   6.280   4.416 -0.3978 -0.1280 -0.3330
   88SLPC  H18X 8590   5.298   6.173   4.442 -2.7653  0.3074 -0.0831
   88SLPC  H18Y 8591   5.222   6.334   4.433 -0.4700 -0.6534  1.0780
   88SLPC  H18Z 8592   5.393   6.316   4.489 -2.1476 -0.0794  1.5369
   89SAPE     N 8593   3.408   3.153   7.240 -0.2415 -0.2921 -0.5413
   89SAPE   HN1 8594   3.392   3.061   7.195 -2.0760  0.4516 -1.5245
   89SAPE   HN2 8595   3.325   3.168   7.301 -0.8212  0.0672 -1.3983
   89SAPE   HN3 8596   3.391   3.221   7.163 -1.7863  0.3932  0.3500
   89SAPE   C12 8597   3.545   3.151   7.305 -0.3193  0.0132  0.6426
   89SAPE  H12A 8598   3.603   3.063   7.270 -0.1672  0.1928  0.4431
   89SAPE  H12B 8599   3.530   3.137   7.414  0.2952 -0.6806  0.6417
   89SAPE   C11 8600   3.622   3.284   7.266  0.7977  0.5342  0.5314
   89SAPE  H11A 8601   3.719   3.290   7.320  0.1491  1.3152  1.6660
   89SAPE  H11B 8602   3.562   3.370   7.303 -0.2002  0.0539  0.0894
   89SAPE     P 8603   3.749   3.234   7.034 -0.0220 -0.1462  0.3759
   89SAPE   O13 8604   3.783   3.346   6.946 -0.3263 -0.2856 -0.1441
   89SAPE   O14 8605   3.853   3.158   7.104 -0.1054  0.1549 -0.5238
   89SAPE   O12 8606   3.636   3.292   7.131  0.4424 -0.3279  0.6483
   89SAPE   O11 8607   3.674   3.132   6.948 -0.3013 -0.4239  0.4446
   89SAPE    C1 8608   3.582   3.169   6.842 -0.0142 -0.8759 -0.9094
   89SAPE    HA 8609   3.502   3.093   6.840 -1.0773  0.2232 -1.2535
   89SAPE    HB 8610   3.542   3.272   6.851  0.6598 -0.6163 -0.7754
   89SAPE    C2 8611   3.651   3.156   6.703  0.0293  0.2221  0.3436
   89SAPE    HS 8612   3.715   3.245   6.690  0.6742 -0.0601  1.4441
   89SAPE   O21 8613   3.543   3.136   6.608 -0.1779  0.0472 -0.0572
   89SAPE   C21 8614   3.509   3.249   6.537 -0.2377  0.3749  0.1465
   89SAPE   O22 8615   3.574   3.347   6.534 -0.4713  0.1696 -0.5340
   89SAPE   C22 8616   3.391   3.225   6.444 -0.2907  0.4651 -0.4025
   89SAPE   H2R 8617   3.298   3.227   6.504 -0.5762  3.1478 -0.8340
   89SAPE   H2S 8618   3.394   3.311   6.373  3.2978  0.4345 -0.4895
   89SAPE    C3 8619   3.756   3.041   6.693  0.4961  0.2315  0.0417
   89SAPE    HX 8620   3.700   2.950   6.721 -0.4718  0.7897 -0.0379
   89SAPE    HY 8621   3.834   3.062   6.769 -1.8989 -0.9915  2.9973
   89SAPE   O31 8622   3.804   3.037   6.557 -0.8410 -0.5909 -0.5406
   89SAPE   C31 8623   3.897   2.939   6.540  0.3486  0.2733  0.4869
   89SAPE   O32 8624   3.946   2.874   6.626 -0.0591  0.5761  0.4493
   89SAPE   C32 8625   3.933   2.935   6.396 -0.3161  0.6122  0.0896
   89SAPE   H2X 8626   3.985   3.032   6.379  0.9840  0.3907  2.4199
   89SAPE   H2Y 8627   3.844   2.926   6.330 -0.8319 -0.9510  0.9716
   89SAPE   C23 8628   3.395   3.088   6.379  0.2306 -0.4664  0.2210
   89SAPE   H3R 8629   3.307   3.095   6.311  1.3884  0.2658 -1.2747
   89SAPE   H3S 8630   3.370   3.008   6.452 -3.6429 -0.8085 -1.2539
   89SAPE   C24 8631   3.518   3.059   6.292  0.3515  0.3235 -0.0773
   89SAPE   H4R 8632   3.606   3.043   6.358 -0.8232  0.3756  1.5478
   89SAPE   H4S 8633   3.545   3.156   6.243 -1.4781  1.0680  0.3334
   89SAPE   C25 8634   3.507   2.943   6.191 -0.4275 -0.2753  0.3367
   89SAPE   H5R 8635   3.424   2.873   6.203 -2.2135  1.5737 -0.5957
   89SAPE   C26 8636   3.593   2.926   6.087 -0.3052 -0.2290 -0.2277
   89SAPE   H6R 8637   3.575   2.848   6.012  0.7468 -0.4183 -0.2982
   89SAPE   C27 8638   3.709   3.008   6.050 -0.4962  0.8083 -0.5726
   89SAPE   H7R 8639   3.790   2.968   6.115 -2.2753 -0.8506  0.7631
   89SAPE   H7S 8640   3.711   3.118   6.061 -0.8070  1.1392 -3.2197
   89SAPE   C28 8641   3.739   3.004   5.900  0.9865  0.0616 -0.1301
   89SAPE   H8R 8642   3.687   3.083   5.843  0.6649  0.6997  1.0047
   89SAPE   C29 8643   3.787   2.905   5.819  0.3091 -0.4029 -0.5302
   89SAPE   H9R 8644   3.785   2.926   5.711 -0.8959 -1.1500 -0.6692
   89SAPE  C210 8645   3.857   2.782   5.863 -0.5754  0.9672  0.0403
   89SAPE  H10R 8646   3.802   2.692   5.828 -1.7502  1.2385  1.1150
   89SAPE  H10S 8647   3.860   2.775   5.974  0.0460  0.5174  0.0044
   89SAPE  C211 8648   3.998   2.796   5.809  0.5024 -0.1342 -0.6915
   89SAPE  H11R 8649   4.065   2.840   5.884 -1.2748 -0.9961  1.5268
   89SAPE  C212 8650   4.052   2.744   5.692 -0.3841 -0.8382 -1.0158
   89SAPE  H12R 8651   4.151   2.783   5.665 -0.7254 -0.2972 -1.5248
   89SAPE  C213 8652   3.963   2.683   5.584 -0.1744  0.5569 -0.1292
   89SAPE  H13R 8653   3.857   2.673   5.617  0.0868 -0.6053  0.4004
   89SAPE  H13S 8654   4.009   2.588   5.551 -0.0066  1.2379 -1.9750
   89SAPE  C214 8655   3.972   2.775   5.459  0.2984  0.0574  0.2856
   89SAPE  H14R 8656   3.912   2.868   5.463 -0.4017 -0.3041 -1.1060
   89SAPE  C215 8657   4.042   2.762   5.346 -0.7576  0.4056 -0.0515
   89SAPE  H15R 8658   4.041   2.846   5.274  0.8900 -1.2586 -2.1685
   89SAPE  C216 8659   4.140   2.650   5.308  0.3141  0.2609 -0.1843
   89SAPE  H16R 8660   4.094   2.568   5.248  0.8112 -0.9964  1.0885
   89SAPE  H16S 8661   4.186   2.602   5.398 -0.9021 -1.9956 -0.6916
   89SAPE  C217 8662   4.251   2.701   5.219 -0.5466 -0.2184  1.2649
   89SAPE  H17R 8663   4.326   2.621   5.210  0.0277  0.5368 -1.9994
   89SAPE  H17S 8664   4.297   2.792   5.264  0.5773 -0.0568 -0.1706
   89SAPE  C218 8665   4.211   2.727   5.075  0.1069 -0.3953  0.4117
   89SAPE  H18R 8666   4.138   2.811   5.079  0.1806 -0.3634  1.4721
   89SAPE  H18S 8667   4.151   2.641   5.039 -1.4749  0.5739  0.6296
   89SAPE  C219 8668   4.322   2.774   4.974  0.2527  0.3057 -0.0196
   89SAPE  H19R 8669   4.271   2.805   4.880  0.1337 -0.4769 -0.2216
   89SAPE  H19S 8670   4.380   2.685   4.943 -0.7863  0.1797 -1.7014
   89SAPE  C220 8671   4.406   2.890   5.022 -0.3629 -1.3558 -0.8324
   89SAPE  H20R 8672   4.461   2.862   5.114 -0.0154  2.7960  0.4359
   89SAPE  H20S 8673   4.341   2.979   5.039  2.7617  1.5361 -2.6753
   89SAPE  H20T 8674   4.481   2.912   4.943 -0.9748 -1.4020 -1.4412
   89SAPE   C33 8675   4.038   2.831   6.354 -0.1210  0.6983  0.6419
   89SAPE   H3X 8676   4.020   2.833   6.245  1.6686  0.4327  0.3056
   89SAPE   H3Y 8677   4.016   2.730   6.395 -1.2835  0.6816  0.0212
   89SAPE   C34 8678   4.178   2.871   6.373 -0.3956 -0.7306 -0.4247
   89SAPE   H4X 8679   4.224   2.823   6.462 -0.3810  0.5797  0.3115
   89SAPE   H4Y 8680   4.188   2.979   6.398  1.7859 -1.1666  0.8527
   89SAPE   C35 8681   4.258   2.833   6.250  0.4048  0.9331 -0.2456
   89SAPE   H5X 8682   4.365   2.830   6.280  0.7047  0.9469 -1.2756
   89SAPE   H5Y 8683   4.238   2.914   6.177  0.0313  1.0497 -0.0164
   89SAPE   C36 8684   4.227   2.696   6.188 -0.4843 -0.4555 -0.4048
   89SAPE   H6X 8685   4.130   2.706   6.135 -0.3811  0.8654 -0.3742
   89SAPE   H6Y 8686   4.225   2.616   6.266  1.3241  0.7974  1.0376
   89SAPE   C37 8687   4.321   2.681   6.066 -1.0678  0.2914  0.9121
   89SAPE   H7X 8688   4.428   2.687   6.094 -0.5011  1.0891 -1.2683
   89SAPE   H7Y 8689   4.311   2.768   5.999 -1.3412 -1.2972 -1.2009
   89SAPE   C38 8690   4.311   2.548   5.984  0.5280  0.3904 -0.1022
   89SAPE   H8X 8691   4.217   2.554   5.926  1.3860  0.5390 -1.5438
   89SAPE   H8Y 8692   4.295   2.458   6.047  0.1812  1.1808  0.9789
   89SAPE   C39 8693   4.436   2.521   5.893 -0.1377  0.2899  0.2413
   89SAPE   H9X 8694   4.524   2.516   5.959  0.2767  2.5213 -0.0654
   89SAPE   H9Y 8695   4.457   2.607   5.826 -0.2958  1.1519  1.2767
   89SAPE  C310 8696   4.417   2.395   5.800 -0.3034  0.1848  0.4089
   89SAPE  H10X 8697   4.324   2.407   5.741 -0.0571  3.4390  0.4921
   89SAPE  H10Y 8698   4.393   2.309   5.866 -0.1912 -1.1322 -1.2231
   89SAPE  C311 8699   4.547   2.345   5.721 -0.0188  0.0441 -0.3974
   89SAPE  H11X 8700   4.624   2.318   5.796  1.8205  3.6789 -0.7519
   89SAPE  H11Y 8701   4.575   2.430   5.655 -2.4801  1.2379 -0.0302
   89SAPE  C312 8702   4.515   2.226   5.632 -0.5505 -0.0195 -0.5698
   89SAPE  H12X 8703   4.407   2.206   5.618 -0.3150 -0.9454 -1.1390
   89SAPE  H12Y 8704   4.548   2.133   5.683  1.6392  0.6138 -0.7397
   89SAPE  C313 8705   4.583   2.232   5.494  0.6734  0.3595 -0.5324
   89SAPE  H13X 8706   4.689   2.201   5.506  0.5749  0.4706  0.7038
   89SAPE  H13Y 8707   4.580   2.336   5.455  2.8127  0.0938 -1.5826
   89SAPE  C314 8708   4.511   2.140   5.399 -1.4637 -0.2240  0.5263
   89SAPE  H14X 8709   4.405   2.169   5.382 -1.5344 -0.7454  0.0212
   89SAPE  H14Y 8710   4.512   2.039   5.447 -1.9828 -1.2757 -1.5277
   89SAPE  C315 8711   4.599   2.134   5.268  0.0143 -0.5050  0.2394
   89SAPE  H15X 8712   4.705   2.129   5.303  0.3006  1.3790 -0.2922
   89SAPE  H15Y 8713   4.574   2.230   5.220 -0.8172 -0.9749 -0.2870
   89SAPE  C316 8714   4.582   2.017   5.174  0.0497 -0.6302 -0.1999
   89SAPE  H16X 8715   4.473   2.005   5.156 -0.7352  1.8042  2.2643
   89SAPE  H16Y 8716   4.612   1.924   5.226  0.6793  0.2278  1.0129
   89SAPE  C317 8717   4.668   2.022   5.043 -0.4944  0.8116  0.0316
   89SAPE  H17X 8718   4.776   2.036   5.064  0.0073 -2.3872  0.1260
   89SAPE  H17Y 8719   4.633   2.105   4.979 -1.0242  0.4302 -0.1816
   89SAPE  C318 8720   4.642   1.897   4.959 -0.2139  0.0074 -0.6321
   89SAPE  H18X 8721   4.537   1.898   4.922 -0.5466  2.0710  0.1973
   89SAPE  H18Y 8722   4.661   1.805   5.016  0.8810  0.5831 -0.0546
   89SAPE  H18Z 8723   4.703   1.899   4.866 -1.4277 -1.0506 -1.5015
   90SAPE     N 8724   0.241   3.764   6.739  0.1515 -0.4928 -0.2932
   90SAPE   HN1 8725   0.278   3.851   6.697  0.2161 -1.0932 -1.5394
   90SAPE   HN2 8726   0.143   3.782   6.770  0.2725  0.7812 -0.6162
   90SAPE   HN3 8727   0.308   3.751   6.818  0.8590 -1.3022 -1.0034
   90SAPE   C12 8728   0.252   3.640   6.651  0.2744  0.2229 -0.7489
   90SAPE  H12A 8729   0.193   3.657   6.558 -1.7170 -2.8922 -0.1867
   90SAPE  H12B 8730   0.210   3.554   6.707  0.3537 -0.0881 -1.1651
   90SAPE   C11 8731   0.397   3.623   6.617  0.2724  0.2226  0.5908
   90SAPE  H11A 8732   0.437   3.713   6.565 -0.4243 -0.1914 -0.6972
   90SAPE  H11B 8733   0.401   3.542   6.542  0.9294  0.1603  0.6852
   90SAPE     P 8734   0.495   3.421   6.768  0.0008 -0.0773  0.3948
   90SAPE   O13 8735   0.578   3.411   6.892 -0.0781  0.1876 -0.0838
   90SAPE   O14 8736   0.357   3.361   6.781 -0.2381  0.0139 -0.1490
   90SAPE   O12 8737   0.472   3.574   6.729  0.8996 -0.1173  0.6770
   90SAPE   O11 8738   0.573   3.355   6.646 -0.3710  0.0532 -0.0417
   90SAPE    C1 8739   0.684   3.424   6.579 -0.1698  0.3824 -0.3358
   90SAPE    HA 8740   0.648   3.524   6.546 -0.3046  0.6395  0.5517
   90SAPE    HB 8741   0.765   3.438   6.654 -1.3021 -1.3146  1.3225
   90SAPE    C2 8742   0.729   3.346   6.457  0.1227  0.3350  0.0092
   90SAPE    HS 8743   0.763   3.248   6.498 -1.3873  0.6470  2.1793
   90SAPE   O21 8744   0.840   3.421   6.399 -0.5909 -0.5261 -0.2448
   90SAPE   C21 8745   0.957   3.390   6.453 -0.6303  0.1479 -0.1005
   90SAPE   O22 8746   0.972   3.328   6.558 -0.5469  0.3664 -0.4505
   90SAPE   C22 8747   1.079   3.435   6.364  0.0712 -0.5829 -0.1215
   90SAPE   H2R 8748   1.097   3.540   6.394  0.1980 -0.5357 -0.3582
   90SAPE   H2S 8749   1.173   3.381   6.385  2.4010  3.3588  0.4611
   90SAPE    C3 8750   0.626   3.328   6.350  1.2041  0.7057 -0.0170
   90SAPE    HX 8751   0.590   3.429   6.323 -0.1821  0.6140  1.3675
   90SAPE    HY 8752   0.541   3.273   6.397 -0.1234  2.7131  0.0305
   90SAPE   O31 8753   0.675   3.260   6.230 -0.0822 -0.5596  0.3003
   90SAPE   C31 8754   0.666   3.129   6.220  0.5182 -0.7276 -0.1098
   90SAPE   O32 8755   0.607   3.055   6.292 -0.6115  0.8248  0.0735
   90SAPE   C32 8756   0.734   3.091   6.094  0.0583  0.2076  0.6641
   90SAPE   H2X 8757   0.727   2.980   6.090 -0.7142  0.2692  0.1489
   90SAPE   H2Y 8758   0.838   3.128   6.088  0.2763 -0.6170 -1.6167
   90SAPE   C23 8759   1.046   3.440   6.213 -0.5167  0.4147 -0.2245
   90SAPE   H3R 8760   0.959   3.509   6.213 -0.8278  0.0244  0.2739
   90SAPE   H3S 8761   1.003   3.346   6.171  0.0309  0.5527 -1.1322
   90SAPE   C24 8762   1.163   3.488   6.118 -0.3053  0.1410  0.2625
   90SAPE   H4R 8763   1.223   3.561   6.176 -2.3575  1.1085  1.2620
   90SAPE   H4S 8764   1.115   3.539   6.032  0.2605  0.8834  0.3762
   90SAPE   C25 8765   1.259   3.376   6.072  0.1152 -0.1400  0.7165
   90SAPE   H5R 8766   1.282   3.302   6.150 -1.6216 -1.1748  0.3197
   90SAPE   C26 8767   1.315   3.369   5.949 -0.0542  0.6297 -0.3588
   90SAPE   H6R 8768   1.382   3.284   5.933 -0.6674 -0.5501  2.6705
   90SAPE   C27 8769   1.275   3.451   5.826 -0.0764 -0.5049 -0.0725
   90SAPE   H7R 8770   1.209   3.534   5.857  0.7239 -0.6566  2.2716
   90SAPE   H7S 8771   1.221   3.394   5.748  0.6165 -0.3772 -0.6588
   90SAPE   C28 8772   1.397   3.517   5.769 -0.6551  0.3799 -0.7964
   90SAPE   H8R 8773   1.450   3.596   5.824  1.2602 -1.2025 -0.2317
   90SAPE   C29 8774   1.460   3.478   5.655  0.8008 -0.1043  0.0930
   90SAPE   H9R 8775   1.562   3.518   5.660  0.2871  1.1424  1.5025
   90SAPE  C210 8776   1.420   3.369   5.556 -0.8421 -0.3190  0.5628
   90SAPE  H10R 8777   1.409   3.272   5.609 -2.3920 -0.7527 -0.4769
   90SAPE  H10S 8778   1.502   3.357   5.481  0.7325  1.1421  1.9592
   90SAPE  C211 8779   1.285   3.388   5.485 -1.3644 -0.4173 -0.2778
   90SAPE  H11R 8780   1.200   3.364   5.550 -2.7078 -0.2216 -1.8997
   90SAPE  C212 8781   1.261   3.403   5.354  0.2790  0.3172 -0.2149
   90SAPE  H12R 8782   1.155   3.403   5.323  0.5923 -0.6550 -1.3709
   90SAPE  C213 8783   1.365   3.427   5.250 -0.5909  1.0533 -0.2048
   90SAPE  H13R 8784   1.371   3.324   5.210  0.6812 -0.5087  3.5134
   90SAPE  H13S 8785   1.468   3.430   5.293 -0.3061 -0.8076 -0.6875
   90SAPE  C214 8786   1.338   3.530   5.147  0.1798 -0.5530 -0.1790
   90SAPE  H14R 8787   1.290   3.624   5.178  0.8887  1.0087 -3.3152
   90SAPE  C215 8788   1.359   3.521   5.015  0.1578 -0.8707  0.8667
   90SAPE  H15R 8789   1.329   3.611   4.959  0.0953 -0.5519  1.4057
   90SAPE  C216 8790   1.424   3.422   4.931  0.0008 -0.4833  0.2091
   90SAPE  H16R 8791   1.344   3.372   4.872 -0.7579 -1.1029  1.7184
   90SAPE  H16S 8792   1.465   3.342   4.996  1.6802  0.8098  0.8100
   90SAPE  C217 8793   1.539   3.468   4.846  0.0899 -0.2067  0.6967
   90SAPE  H17R 8794   1.608   3.538   4.897  0.3499  1.0504 -1.2468
   90SAPE  H17S 8795   1.508   3.526   4.756  3.5525 -1.4860 -1.5371
   90SAPE  C218 8796   1.631   3.352   4.799 -0.4362 -0.5670  0.3079
   90SAPE  H18R 8797   1.574   3.290   4.726 -0.9484 -0.2045  0.3986
   90SAPE  H18S 8798   1.655   3.283   4.883 -1.8348 -2.7700 -1.0028
   90SAPE  C219 8799   1.763   3.393   4.743  0.2287 -0.4474  0.9972
   90SAPE  H19R 8800   1.823   3.299   4.743  1.0499  0.0699  0.9654
   90SAPE  H19S 8801   1.820   3.471   4.797 -0.7167 -0.0599  1.4515
   90SAPE  C220 8802   1.752   3.444   4.594  0.1648  0.2070 -0.1388
   90SAPE  H20R 8803   1.665   3.401   4.541 -0.7900  0.4217  1.2136
   90SAPE  H20S 8804   1.847   3.432   4.537  0.1518  2.3911 -0.6996
   90SAPE  H20T 8805   1.737   3.554   4.603  0.7413  0.1795  1.7393
   90SAPE   C33 8806   0.668   3.142   5.960 -0.2289 -0.6466  0.0250
   90SAPE   H3X 8807   0.678   3.252   5.950 -1.2337 -0.5215  0.2940
   90SAPE   H3Y 8808   0.559   3.124   5.954 -0.4027 -0.2930  1.5172
   90SAPE   C34 8809   0.747   3.077   5.841  0.5253 -0.5277  0.2301
   90SAPE   H4X 8810   0.751   2.967   5.852 -0.7149 -1.3101 -4.5829
   90SAPE   H4Y 8811   0.848   3.120   5.825  0.2094 -0.9701 -4.4077
   90SAPE   C35 8812   0.675   3.107   5.708 -0.3358  0.1585 -0.5116
   90SAPE   H5X 8813   0.643   3.213   5.703  0.3719  0.3328 -2.5616
   90SAPE   H5Y 8814   0.578   3.055   5.718  0.2037 -0.5424  1.5266
   90SAPE   C36 8815   0.757   3.078   5.588 -0.3369  0.2647  0.3045
   90SAPE   H6X 8816   0.696   3.040   5.503 -0.5021  3.4744 -1.1520
   90SAPE   H6Y 8817   0.823   2.991   5.608  1.3807  1.2398 -0.9178
   90SAPE   C37 8818   0.854   3.187   5.547  0.2229 -0.2311 -0.6982
   90SAPE   H7X 8819   0.933   3.198   5.625 -0.4700  0.0194 -0.0127
   90SAPE   H7Y 8820   0.793   3.280   5.551  0.7083  0.0833 -0.4902
   90SAPE   C38 8821   0.912   3.175   5.407 -0.3026  0.1295 -0.4453
   90SAPE   H8X 8822   0.987   3.094   5.395 -0.5990 -0.0717 -0.9564
   90SAPE   H8Y 8823   0.964   3.271   5.385  0.5155  0.2998  1.8778
   90SAPE   C39 8824   0.811   3.155   5.297 -0.3571 -0.2898  0.4946
   90SAPE   H9X 8825   0.736   3.236   5.301 -2.0277 -1.7396  0.0989
   90SAPE   H9Y 8826   0.760   3.056   5.296  2.3127 -1.8101 -1.5315
   90SAPE  C310 8827   0.871   3.177   5.155 -0.2452  0.2468  0.2584
   90SAPE  H10X 8828   0.898   3.285   5.160  0.4536  0.0417  1.2357
   90SAPE  H10Y 8829   0.792   3.153   5.080 -0.5086 -0.3115  0.7098
   90SAPE  C311 8830   1.006   3.115   5.117  0.2908 -0.4317 -0.1475
   90SAPE  H11X 8831   0.991   3.005   5.114  0.9611 -0.5544  0.5534
   90SAPE  H11Y 8832   1.072   3.140   5.203 -1.0789  1.0374  0.5170
   90SAPE  C312 8833   1.059   3.178   4.987 -0.4612  0.0082 -0.4975
   90SAPE  H12X 8834   1.170   3.183   4.994 -0.4352  1.2217 -1.4685
   90SAPE  H12Y 8835   1.023   3.283   4.986 -1.4493 -0.2938  0.4825
   90SAPE  C313 8836   1.006   3.094   4.869  0.0423  0.1652 -0.1065
   90SAPE  H13X 8837   0.895   3.093   4.873  0.0601 -0.1613  0.3628
   90SAPE  H13Y 8838   1.051   2.996   4.894 -1.7975 -0.3061  1.7034
   90SAPE  C314 8839   1.064   3.138   4.731  0.8954 -0.1019 -1.1585
   90SAPE  H14X 8840   1.017   3.063   4.664  1.0638 -1.5545  0.2800
   90SAPE  H14Y 8841   1.172   3.112   4.741  0.2960 -1.9655  1.4167
   90SAPE  C315 8842   1.046   3.282   4.697 -1.1365 -0.8190  0.4113
   90SAPE  H15X 8843   1.084   3.296   4.593 -0.3956  1.7151  0.9581
   90SAPE  H15Y 8844   1.115   3.348   4.754  0.9170 -0.0458 -2.7232
   90SAPE  C316 8845   0.897   3.322   4.687 -0.3282 -1.0366  0.1551
   90SAPE  H16X 8846   0.843   3.311   4.783 -2.7189  3.7368 -0.3301
   90SAPE  H16Y 8847   0.850   3.255   4.611 -2.3793  1.1225 -0.5887
   90SAPE  C317 8848   0.876   3.477   4.655  0.8954 -0.0569 -0.8918
   90SAPE  H17X 8849   0.768   3.493   4.636  0.9933  2.3806  0.2009
   90SAPE  H17Y 8850   0.942   3.505   4.571 -0.1901  0.1160 -1.7023
   90SAPE  C318 8851   0.904   3.551   4.790 -1.1504  0.3258  0.2170
   90SAPE  H18X 8852   1.012   3.531   4.809 -1.5776 -0.6965  1.7771
   90SAPE  H18Y 8853   0.840   3.527   4.878  1.9469  0.7224  2.7774
   90SAPE  H18Z 8854   0.882   3.657   4.765 -1.3197  0.5812  1.3918
   91SAPE     N 8855   5.396   2.653   6.915  0.6673  0.0296  0.3061
   91SAPE   HN1 8856   5.402   2.567   6.858 -0.1031 -0.8954  1.5636
   91SAPE   HN2 8857   5.428   2.740   6.867  0.1853  0.1384  0.1720
   91SAPE   HN3 8858   5.473   2.645   6.984  0.1392 -3.0668  0.6785
   91SAPE   C12 8859   5.259   2.659   6.972 -0.6968  0.0705 -0.0040
   91SAPE  H12A 8860   5.254   2.743   7.044 -0.7421  0.9445 -0.9920
   91SAPE  H12B 8861   5.240   2.552   6.996  2.9780 -1.0897 -1.6276
   91SAPE   C11 8862   5.158   2.701   6.864  0.0819  0.2626 -0.0859
   91SAPE  H11A 8863   5.060   2.702   6.916  0.8589 -2.4625  1.6589
   91SAPE  H11B 8864   5.146   2.625   6.784 -0.6818  2.4783 -2.2075
   91SAPE     P 8865   5.075   2.898   6.731 -0.1673  0.1608 -0.0915
   91SAPE   O13 8866   4.978   2.941   6.828  0.0048  0.0011 -0.9091
   91SAPE   O14 8867   5.144   3.002   6.649  0.4541 -0.2628 -0.1081
   91SAPE   O12 8868   5.192   2.829   6.811  0.0880  0.0888 -0.6369
   91SAPE   O11 8869   5.018   2.788   6.639  0.1271 -0.0803 -0.1303
   91SAPE    C1 8870   5.079   2.761   6.516  0.0770  0.0365 -0.2907
   91SAPE    HA 8871   5.171   2.820   6.494  0.4396 -1.0971 -2.0431
   91SAPE    HB 8872   5.128   2.663   6.535 -1.0628 -1.0303 -2.4071
   91SAPE    C2 8873   4.987   2.757   6.394 -0.5920 -0.3525  0.5461
   91SAPE    HS 8874   4.969   2.650   6.370  1.1514 -0.4405 -0.5297
   91SAPE   O21 8875   5.050   2.825   6.278  0.2438  0.8473 -0.8725
   91SAPE   C21 8876   5.165   2.771   6.240  0.1222 -0.5460  0.1181
   91SAPE   O22 8877   5.210   2.665   6.274 -0.3959 -0.9745  0.2284
   91SAPE   C22 8878   5.231   2.868   6.138 -0.0798 -0.0384 -0.0565
   91SAPE   H2R 8879   5.165   2.957   6.124 -0.7419 -0.3400  1.0327
   91SAPE   H2S 8880   5.319   2.911   6.191 -1.5420  0.9638  1.7013
   91SAPE    C3 8881   4.851   2.823   6.433 -0.7625  0.1886  1.4574
   91SAPE    HX 8882   4.880   2.925   6.467  3.6100 -0.2750 -0.1304
   91SAPE    HY 8883   4.803   2.769   6.517 -0.0108  0.3557  2.0085
   91SAPE   O31 8884   4.768   2.815   6.313 -0.1807  0.0603 -0.3379
   91SAPE   C31 8885   4.726   2.921   6.256 -0.4020 -0.1334 -0.0575
   91SAPE   O32 8886   4.724   3.029   6.310  0.4769 -0.3375  0.9273
   91SAPE   C32 8887   4.698   2.894   6.107  0.4951  0.5747 -0.1590
   91SAPE   H2X 8888   4.631   2.805   6.109  1.0702  0.1533  0.8354
   91SAPE   H2Y 8889   4.790   2.862   6.052  0.6997  1.3419 -0.2737
   91SAPE   C23 8890   5.278   2.817   5.993  0.2512 -0.7329 -0.0676
   91SAPE   H3R 8891   5.354   2.736   6.003 -1.7728 -2.8965 -1.2080
   91SAPE   H3S 8892   5.337   2.897   5.943  0.1499 -0.3284  0.4542
   91SAPE   C24 8893   5.155   2.769   5.913 -1.1947  0.2323  0.0694
   91SAPE   H4R 8894   5.107   2.689   5.974 -1.7667  0.1605 -0.4650
   91SAPE   H4S 8895   5.203   2.722   5.824  0.6935 -0.6029  1.4611
   91SAPE   C25 8896   5.062   2.886   5.877  0.0791  0.4027 -0.4457
   91SAPE   H5R 8897   5.009   2.926   5.965 -1.3783  2.0393 -1.9723
   91SAPE   C26 8898   5.050   2.951   5.756 -0.0543 -0.1601  0.0218
   91SAPE   H6R 8899   4.976   3.031   5.743 -1.3988 -1.7434 -3.3543
   91SAPE   C27 8900   5.117   2.913   5.628 -0.3273 -0.4877 -0.3009
   91SAPE   H7R 8901   5.196   2.836   5.644  0.2847  0.5493  2.1695
   91SAPE   H7S 8902   5.180   3.002   5.607 -0.1427 -0.0324  1.9390
   91SAPE   C28 8903   5.035   2.871   5.508  0.1048  0.2949  0.5474
   91SAPE   H8R 8904   5.006   2.765   5.510  3.4131 -0.7517 -0.5716
   91SAPE   C29 8905   5.014   2.938   5.390 -0.8226  0.8485  0.6776
   91SAPE   H9R 8906   4.951   2.887   5.316 -0.0155  2.1187 -0.9756
   91SAPE  C210 8907   5.062   3.071   5.333 -0.1261  0.2313 -0.3488
   91SAPE  H10R 8908   5.086   3.146   5.411 -2.0392 -0.8545  1.4023
   91SAPE  H10S 8909   4.977   3.109   5.273  1.5967  0.6794 -2.6186
   91SAPE  C211 8910   5.185   3.055   5.247 -0.6901 -0.2895 -0.2443
   91SAPE  H11R 8911   5.259   2.984   5.286  1.6758  3.4444  2.8698
   91SAPE  C212 8912   5.224   3.135   5.142 -0.0351 -0.2781 -0.0129
   91SAPE  H12R 8913   5.314   3.119   5.081  1.2538  2.7588  0.9140
   91SAPE  C213 8914   5.146   3.260   5.098 -0.1257 -0.4334 -0.0969
   91SAPE  H13R 8915   5.051   3.274   5.155 -1.2429 -0.5390 -1.8626
   91SAPE  H13S 8916   5.088   3.243   5.005 -0.3463  1.2126 -0.2923
   91SAPE  C214 8917   5.230   3.387   5.103 -0.3100 -0.0438  0.0285
   91SAPE  H14R 8918   5.246   3.427   5.204  0.1498 -1.5085  0.5628
   91SAPE  C215 8919   5.284   3.452   4.998  0.3701  0.1121 -0.7538
   91SAPE  H15R 8920   5.343   3.539   5.029 -0.8107  0.5125  0.4879
   91SAPE  C216 8921   5.273   3.434   4.851  0.1657 -0.2281 -0.0417
   91SAPE  H16R 8922   5.265   3.327   4.824  0.2804  0.0454 -1.2083
   91SAPE  H16S 8923   5.368   3.461   4.800 -0.0781  0.8181  0.0401
   91SAPE  C217 8924   5.159   3.500   4.770 -0.1332 -0.4361 -0.0402
   91SAPE  H17R 8925   5.167   3.608   4.795 -1.8258  0.1978 -1.9864
   91SAPE  H17S 8926   5.055   3.476   4.802 -1.0214  1.3274 -1.4480
   91SAPE  C218 8927   5.160   3.487   4.612 -0.2624  0.2521 -0.0054
   91SAPE  H18R 8928   5.147   3.383   4.575 -0.7278  0.7046 -1.1715
   91SAPE  H18S 8929   5.258   3.529   4.579 -0.0126  0.4066  0.9113
   91SAPE  C219 8930   5.044   3.562   4.542 -0.0676 -0.9787 -0.9824
   91SAPE  H19R 8931   5.039   3.664   4.586  3.8634 -0.7299 -0.7356
   91SAPE  H19S 8932   4.960   3.496   4.573 -1.2493  0.7359 -0.3711
   91SAPE  C220 8933   5.047   3.586   4.395  0.2791  0.6726 -0.2350
   91SAPE  H20R 8934   5.065   3.484   4.355  1.2433  0.5260  0.5416
   91SAPE  H20S 8935   5.128   3.654   4.361  2.5653 -2.0878 -0.6689
   91SAPE  H20T 8936   4.948   3.614   4.353  0.5849  1.5103 -0.4170
   91SAPE   C33 8937   4.625   3.014   6.040  0.7312  0.3323  0.0303
   91SAPE   H3X 8938   4.697   3.097   6.021 -1.3317  1.9298 -1.2499
   91SAPE   H3Y 8939   4.541   3.048   6.105  0.9440  0.1405  0.4096
   91SAPE   C34 8940   4.544   2.977   5.915  0.0624  0.4478  0.5930
   91SAPE   H4X 8941   4.522   3.070   5.859 -0.2335 -0.2992 -0.5734
   91SAPE   H4Y 8942   4.451   2.929   5.953 -0.2339 -1.1020 -1.8542
   91SAPE   C35 8943   4.617   2.878   5.822  0.5104  0.1391 -0.8279
   91SAPE   H5X 8944   4.612   2.783   5.878  1.6446  1.8761  2.4977
   91SAPE   H5Y 8945   4.726   2.898   5.821  0.1580  2.4115 -2.0304
   91SAPE   C36 8946   4.573   2.865   5.675  0.5887  0.9983 -0.2546
   91SAPE   H6X 8947   4.583   2.963   5.624  2.4454  0.4208 -1.0875
   91SAPE   H6Y 8948   4.471   2.825   5.694  1.2786 -0.4240  0.5883
   91SAPE   C37 8949   4.662   2.764   5.593 -0.5455 -0.0179  0.0165
   91SAPE   H7X 8950   4.676   2.666   5.644  1.4345  1.0166  1.6022
   91SAPE   H7Y 8951   4.761   2.813   5.578 -0.0475  0.0012  2.7550
   91SAPE   C38 8952   4.597   2.723   5.455 -0.5477 -0.3659 -0.3509
   91SAPE   H8X 8953   4.572   2.817   5.403 -1.7641  0.0160  0.8805
   91SAPE   H8Y 8954   4.507   2.659   5.469 -2.0122  1.3491 -1.4695
   91SAPE   C39 8955   4.695   2.638   5.369  0.5829  0.2361 -0.3761
   91SAPE   H9X 8956   4.713   2.539   5.415 -0.2035 -0.4766 -1.5525
   91SAPE   H9Y 8957   4.792   2.691   5.361  1.6975 -1.1597  2.5627
   91SAPE  C310 8958   4.640   2.616   5.225 -0.8958 -0.5109 -0.4767
   91SAPE  H10X 8959   4.641   2.711   5.168  0.2463  0.9861  1.8830
   91SAPE  H10Y 8960   4.535   2.579   5.233 -0.2715 -1.9415  2.4395
   91SAPE  C311 8961   4.720   2.522   5.129  0.1240 -0.4319 -0.8335
   91SAPE  H11X 8962   4.700   2.416   5.156 -0.7339 -0.4281 -1.4126
   91SAPE  H11Y 8963   4.830   2.539   5.127  0.4029 -2.0910 -2.0957
   91SAPE  C312 8964   4.668   2.540   4.978 -0.3408  0.6138 -1.0210
   91SAPE  H12X 8965   4.681   2.646   4.947  0.6345  1.4926  1.9630
   91SAPE  H12Y 8966   4.560   2.523   4.960  0.0875 -1.5358 -1.8366
   91SAPE  C313 8967   4.744   2.443   4.885  0.5346  0.1788 -0.0147
   91SAPE  H13X 8968   4.737   2.336   4.912  0.3211  1.0514  3.9750
   91SAPE  H13Y 8969   4.847   2.482   4.873  0.0610  0.8925 -2.4533
   91SAPE  C314 8970   4.694   2.441   4.736  0.1217 -0.5859  0.5814
   91SAPE  H14X 8971   4.696   2.545   4.698  1.1668 -0.7375  0.2073
   91SAPE  H14Y 8972   4.590   2.411   4.711  0.5203  0.2203 -2.3507
   91SAPE  C315 8973   4.799   2.369   4.646  0.0622 -0.2689 -0.6543
   91SAPE  H15X 8974   4.756   2.357   4.544 -2.2357 -0.2114  0.2541
   91SAPE  H15Y 8975   4.817   2.267   4.688 -0.8195 -0.4904 -0.7822
   91SAPE  C316 8976   4.935   2.444   4.639  0.2699 -0.0499  0.3903
   91SAPE  H16X 8977   4.931   2.542   4.691  1.2589  0.5737 -0.6634
   91SAPE  H16Y 8978   4.963   2.469   4.535 -1.3752  0.3976  0.0443
   91SAPE  C317 8979   5.056   2.364   4.697  0.3620 -0.3108 -0.5538
   91SAPE  H17X 8980   5.043   2.373   4.807  0.5053 -1.8542 -0.3938
   91SAPE  H17Y 8981   5.152   2.419   4.686  0.1394  0.8390  2.2659
   91SAPE  C318 8982   5.072   2.222   4.659 -0.3909  0.8560 -0.2456
   91SAPE  H18X 8983   5.066   2.210   4.549  1.7520 -0.9542 -0.2464
   91SAPE  H18Y 8984   4.998   2.150   4.701 -0.8807  1.7457  0.4557
   91SAPE  H18Z 8985   5.172   2.189   4.697 -0.4818  0.3176 -0.4684
   92SAPE     N 8986   2.765   2.084   7.171  0.3665 -0.8531 -0.2170
   92SAPE   HN1 8987   2.678   2.140   7.168  0.4962 -0.5866  0.6154
   92SAPE   HN2 8988   2.774   2.039   7.265 -0.4718 -1.8023 -0.5746
   92SAPE   HN3 8989   2.843   2.151   7.159 -0.1317 -0.0972  0.6504
   92SAPE   C12 8990   2.758   1.987   7.055 -0.4859  0.8372 -0.4668
   92SAPE  H12A 8991   2.655   1.945   7.050  0.0619 -0.5810 -0.5169
   92SAPE  H12B 8992   2.835   1.908   7.074 -0.3766  0.1388 -3.4176
   92SAPE   C11 8993   2.786   2.071   6.928  0.0072  0.2707 -0.5356
   92SAPE  H11A 8994   2.774   2.009   6.836  1.0000 -0.7712  0.0092
   92SAPE  H11B 8995   2.886   2.115   6.943  0.1290 -0.3054  0.4771
   92SAPE     P 8996   2.557   2.170   6.848  0.5322 -0.5240 -0.3112
   92SAPE   O13 8997   2.500   2.038   6.869  0.6805 -0.1863  0.0467
   92SAPE   O14 8998   2.481   2.289   6.892 -0.5614 -0.2467  1.0370
   92SAPE   O12 8999   2.695   2.186   6.924 -0.4124 -0.8082 -0.0512
   92SAPE   O11 9000   2.593   2.190   6.700 -0.2824 -0.3324  0.0859
   92SAPE    C1 9001   2.693   2.284   6.651  0.3566 -0.5088  0.5293
   92SAPE    HA 9002   2.643   2.379   6.623  1.6511 -0.4233 -1.7516
   92SAPE    HB 9003   2.777   2.304   6.720 -1.4250  0.0041  2.6580
   92SAPE    C2 9004   2.748   2.233   6.514 -0.0432  0.1008  0.5363
   92SAPE    HS 9005   2.837   2.298   6.503  1.0137 -1.2184  0.9757
   92SAPE   O21 9006   2.654   2.241   6.409  0.1340 -0.4951  0.3619
   92SAPE   C21 9007   2.695   2.273   6.291 -0.5893 -0.0943 -0.6707
   92SAPE   O22 9008   2.812   2.293   6.259  0.2637 -0.3010  0.6760
   92SAPE   C22 9009   2.576   2.281   6.200  0.2615  0.1137  0.3508
   92SAPE   H2R 9010   2.536   2.180   6.179  1.1207 -1.0179  3.5789
   92SAPE   H2S 9011   2.496   2.340   6.249 -0.6410 -1.0842  0.3600
   92SAPE    C3 9012   2.802   2.092   6.531  0.8071 -0.4051  0.2397
   92SAPE    HX 9013   2.718   2.019   6.524  0.9291 -0.4802 -0.5005
   92SAPE    HY 9014   2.839   2.093   6.635  0.3275  4.1750  0.5701
   92SAPE   O31 9015   2.908   2.061   6.446 -0.1994 -0.5607 -0.1526
   92SAPE   C31 9016   2.897   1.974   6.348  0.0381 -0.1061 -1.3569
   92SAPE   O32 9017   2.793   1.920   6.314  0.0740 -0.1419  0.1280
   92SAPE   C32 9018   3.029   1.956   6.276 -0.8154  0.6562  0.0163
   92SAPE   H2X 9019   3.042   1.850   6.243 -1.1621  0.7601 -0.4601
   92SAPE   H2Y 9020   3.106   1.987   6.350  0.3078  0.2420 -0.9518
   92SAPE   C23 9021   2.617   2.344   6.062 -0.3907 -0.1177 -0.3242
   92SAPE   H3R 9022   2.652   2.262   5.996 -1.4380  0.9672 -2.3384
   92SAPE   H3S 9023   2.700   2.416   6.076  0.3563 -1.0022 -0.0839
   92SAPE   C24 9024   2.502   2.432   6.010  0.0861  0.7856 -0.0909
   92SAPE   H4R 9025   2.540   2.480   5.918  1.1190 -1.3062 -0.8312
   92SAPE   H4S 9026   2.484   2.513   6.083 -1.6705  1.3527 -1.0873
   92SAPE   C25 9027   2.381   2.343   5.990 -0.1955 -0.9384 -0.3216
   92SAPE   H5R 9028   2.354   2.286   6.080  0.7320 -0.2481  0.4237
   92SAPE   C26 9029   2.309   2.322   5.878  0.6073  0.1147  0.2977
   92SAPE   H6R 9030   2.223   2.255   5.867  2.1533 -1.7553 -1.0276
   92SAPE   C27 9031   2.317   2.394   5.744 -0.1892 -0.1821 -0.0701
   92SAPE   H7R 9032   2.321   2.502   5.768 -0.1406  0.0006 -0.8817
   92SAPE   H7S 9033   2.227   2.373   5.683 -0.0207 -2.2411  0.2888
   92SAPE   C28 9034   2.434   2.360   5.656  0.0735 -0.0119 -0.0079
   92SAPE   H8R 9035   2.512   2.296   5.701 -1.1069 -1.6195 -0.1691
   92SAPE   C29 9036   2.460   2.392   5.524  0.5032 -0.4619  0.1826
   92SAPE   H9R 9037   2.551   2.353   5.477  0.4117 -1.0163  0.4581
   92SAPE  C210 9038   2.367   2.464   5.430 -0.1577 -0.7608  0.1442
   92SAPE  H10R 9039   2.435   2.535   5.379 -1.2308 -1.0535 -1.7749
   92SAPE  H10S 9040   2.301   2.528   5.493  1.5640  0.3416  0.9051
   92SAPE  C211 9041   2.286   2.366   5.352 -0.3448  0.2119 -0.0078
   92SAPE  H11R 9042   2.259   2.275   5.408  0.4205 -0.8173 -1.2624
   92SAPE  C212 9043   2.257   2.377   5.218  0.1657 -0.2666 -0.3002
   92SAPE  H12R 9044   2.195   2.297   5.174  0.3833 -1.0146  0.6954
   92SAPE  C213 9045   2.279   2.497   5.128 -0.1079  0.2563 -0.2026
   92SAPE  H13R 9046   2.229   2.478   5.031  0.4322  0.1402 -0.4656
   92SAPE  H13S 9047   2.389   2.491   5.109  0.3644  1.1631  1.8978
   92SAPE  C214 9048   2.226   2.628   5.179 -0.0523  0.9092  0.3315
   92SAPE  H14R 9049   2.116   2.627   5.179 -0.1545 -2.3607 -2.1905
   92SAPE  C215 9050   2.295   2.745   5.189 -0.2064  0.1170  0.3740
   92SAPE  H15R 9051   2.251   2.844   5.210 -2.8279 -0.6288 -1.1867
   92SAPE  C216 9052   2.443   2.753   5.151  1.0009  0.1839  0.0834
   92SAPE  H16R 9053   2.490   2.662   5.109 -1.4494 -0.7113 -0.8801
   92SAPE  H16S 9054   2.512   2.778   5.235  1.1834  0.4219 -0.1323
   92SAPE  C217 9055   2.466   2.874   5.050  0.3438 -0.8502  0.0274
   92SAPE  H17R 9056   2.443   2.965   5.111  1.1599 -0.6362  0.0181
   92SAPE  H17S 9057   2.391   2.853   4.971 -0.1095  1.5769 -0.2672
   92SAPE  C218 9058   2.613   2.869   5.005 -0.3217 -0.2690  0.3291
   92SAPE  H18R 9059   2.687   2.866   5.088 -0.8512 -1.8203  0.7914
   92SAPE  H18S 9060   2.644   2.959   4.948 -1.0544  0.9017  1.7175
   92SAPE  C219 9061   2.642   2.744   4.919  0.3473 -0.2537  1.0191
   92SAPE  H19R 9062   2.543   2.727   4.872  0.4160  1.1517  0.3031
   92SAPE  H19S 9063   2.674   2.660   4.984 -0.3492  0.1758  1.9361
   92SAPE  C220 9064   2.746   2.748   4.803  0.3161 -0.3750  0.7065
   92SAPE  H20R 9065   2.833   2.686   4.831 -1.0002 -1.6644  2.1828
   92SAPE  H20S 9066   2.789   2.849   4.784  0.5989 -0.5459  0.4470
   92SAPE  H20T 9067   2.705   2.720   4.704 -1.2752  2.4976  0.4246
   92SAPE   C33 9068   3.045   2.058   6.162  0.0524 -0.7707  0.2381
   92SAPE   H3X 9069   3.142   2.039   6.113 -0.0145 -0.5392  0.0150
   92SAPE   H3Y 9070   3.048   2.161   6.204 -3.7350 -0.2533 -0.4028
   92SAPE   C34 9071   2.935   2.032   6.058  0.5183 -0.3295 -0.4542
   92SAPE   H4X 9072   2.832   2.021   6.097 -1.2561 -0.9700 -4.7559
   92SAPE   H4Y 9073   2.952   1.934   6.008  0.4345 -0.4024 -0.3390
   92SAPE   C35 9074   2.939   2.136   5.955 -0.0359 -0.7673  0.7355
   92SAPE   H5X 9075   3.042   2.162   5.922  0.6061  0.9328  3.7041
   92SAPE   H5Y 9076   2.901   2.234   5.991 -0.5002 -1.8093  3.3580
   92SAPE   C36 9077   2.853   2.101   5.831  0.2452 -0.3688  0.0643
   92SAPE   H6X 9078   2.748   2.087   5.865  0.2330  2.6029  1.6158
   92SAPE   H6Y 9079   2.886   2.012   5.774 -1.1054  0.1780 -1.6523
   92SAPE   C37 9080   2.851   2.223   5.733  0.2576 -0.3567 -0.0962
   92SAPE   H7X 9081   2.959   2.248   5.731  1.1006 -2.9262  3.4097
   92SAPE   H7Y 9082   2.793   2.306   5.777  1.9065 -0.1123  1.7739
   92SAPE   C38 9083   2.798   2.177   5.595  0.5642 -0.2187  0.5659
   92SAPE   H8X 9084   2.690   2.152   5.598  0.6602 -0.8222 -0.4633
   92SAPE   H8Y 9085   2.861   2.094   5.555 -0.0496  0.4101 -1.8893
   92SAPE   C39 9086   2.823   2.284   5.490  0.0022  0.5273  0.5852
   92SAPE   H9X 9087   2.933   2.299   5.503  0.2366 -0.9525  0.4163
   92SAPE   H9Y 9088   2.766   2.379   5.498  2.1933  1.9329  0.5067
   92SAPE  C310 9089   2.781   2.233   5.346 -0.1078 -0.3263  0.0570
   92SAPE  H10X 9090   2.753   2.323   5.287 -0.5785  0.2621  1.1455
   92SAPE  H10Y 9091   2.689   2.173   5.364  0.0785 -0.1856  1.5475
   92SAPE  C311 9092   2.888   2.152   5.282  0.6391 -0.1061 -0.3456
   92SAPE  H11X 9093   2.899   2.068   5.355 -1.1441  0.4438  0.6085
   92SAPE  H11Y 9094   2.986   2.203   5.269  0.5520 -0.5770 -4.0399
   92SAPE  C312 9095   2.856   2.094   5.142 -0.1422  0.5688 -1.0496
   92SAPE  H12X 9096   2.768   2.026   5.148  0.5138 -0.1530  2.1395
   92SAPE  H12Y 9097   2.939   2.028   5.111  0.6197  0.9401  0.1211
   92SAPE  C313 9098   2.824   2.198   5.042 -0.1704  0.6117  0.6694
   92SAPE  H13X 9099   2.743   2.267   5.073  0.5662  1.2685  1.1855
   92SAPE  H13Y 9100   2.798   2.146   4.947 -0.5204  0.0958  1.0429
   92SAPE  C314 9101   2.943   2.292   5.007  0.0308  0.1939  0.1166
   92SAPE  H14X 9102   3.040   2.246   4.980 -0.7865 -1.5530  0.0179
   92SAPE  H14Y 9103   2.958   2.336   5.108  0.8572 -3.0498  1.5123
   92SAPE  C315 9104   2.906   2.406   4.911  0.4926 -0.4210 -0.1093
   92SAPE  H15X 9105   2.820   2.463   4.952 -0.6972 -1.9783 -0.3283
   92SAPE  H15Y 9106   2.885   2.370   4.808 -0.5256 -0.2622  0.0321
   92SAPE  C316 9107   3.038   2.480   4.890 -0.1465 -0.7944 -0.7684
   92SAPE  H16X 9108   3.097   2.475   4.984 -3.7593 -1.5886  1.6878
   92SAPE  H16Y 9109   3.028   2.589   4.872 -0.7512 -0.6797  0.1743
   92SAPE  C317 9110   3.109   2.443   4.759 -0.0648  0.3908 -0.5977
   92SAPE  H17X 9111   3.058   2.494   4.674  0.0055  0.3940 -0.6383
   92SAPE  H17Y 9112   3.088   2.334   4.748 -0.3119  0.4724 -0.9370
   92SAPE  C318 9113   3.261   2.482   4.748 -0.1519  0.0504 -0.3234
   92SAPE  H18X 9114   3.305   2.447   4.652  0.6975  1.6233 -0.5510
   92SAPE  H18Y 9115   3.325   2.436   4.826  1.9807  1.0062 -1.4057
   92SAPE  H18Z 9116   3.272   2.592   4.759  0.5811 -0.1304  0.9896
   93SAPE     N 9117   1.776   0.195   6.496  0.4667  0.2236 -0.3433
   93SAPE   HN1 9118   1.693   0.254   6.516 -0.5051 -0.4841 -2.1163
   93SAPE   HN2 9119   1.830   0.185   6.584 -2.8066 -0.1800  1.7751
   93SAPE   HN3 9120   1.829   0.257   6.431 -0.7634  1.7278  0.0237
   93SAPE   C12 9121   1.760   0.060   6.431  0.0632  0.2003  0.5827
   93SAPE  H12A 9122   1.860   0.020   6.404  0.4309  1.2650  0.3435
   93SAPE  H12B 9123   1.700   0.074   6.339 -0.6693  1.7055  1.2614
   93SAPE   C11 9124   1.680  -0.026   6.524 -0.1057 -0.4236  0.2068
   93SAPE  H11A 9125   1.734  -0.032   6.621  1.3246  0.3897 -0.5105
   93SAPE  H11B 9126   1.686  -0.131   6.490 -0.0992 -0.3865  0.0929
   93SAPE     P 9127   1.431  -0.066   6.488  0.0534 -0.0041  0.3336
   93SAPE   O13 9128   1.452  -0.209   6.526  0.5170  0.0780 -0.4473
   93SAPE   O14 9129   1.309   0.002   6.540 -0.2034 -0.1991  0.7403
   93SAPE   O12 9130   1.547   0.021   6.537 -0.3781  0.6189 -0.1008
   93SAPE   O11 9131   1.433  -0.045   6.330  0.0330  0.4370 -0.3375
   93SAPE    C1 9132   1.425   0.080   6.257  0.5777  1.1916 -0.1931
   93SAPE    HA 9133   1.402   0.158   6.333 -0.0060  0.7283  0.1117
   93SAPE    HB 9134   1.520   0.104   6.205  2.2937 -0.7825  1.7823
   93SAPE    C2 9135   1.301   0.074   6.163 -0.1630  0.2451  0.6579
   93SAPE    HS 9136   1.208   0.057   6.222 -0.7525 -0.4970 -0.4342
   93SAPE   O21 9137   1.327  -0.032   6.063 -0.0624 -0.3340 -0.2248
   93SAPE   C21 9138   1.226  -0.113   6.045 -0.3673  0.3875 -0.1906
   93SAPE   O22 9139   1.120  -0.116   6.109 -0.5546  0.0941  0.0283
   93SAPE   C22 9140   1.263  -0.204   5.929 -0.6304 -0.3144  0.4950
   93SAPE   H2R 9141   1.298  -0.133   5.852  0.2047 -1.3490 -0.0946
   93SAPE   H2S 9142   1.350  -0.265   5.960 -2.2574 -1.5713  2.9100
   93SAPE    C3 9143   1.282   0.205   6.086 -0.5134  0.0289 -0.5066
   93SAPE    HX 9144   1.379   0.240   6.044 -2.0621  2.9026 -1.9175
   93SAPE    HY 9145   1.260   0.281   6.164 -1.1604 -1.4944  0.8589
   93SAPE   O31 9146   1.185   0.202   5.981 -0.0190  0.1720  0.4312
   93SAPE   C31 9147   1.063   0.240   6.017 -0.6224  0.3041 -0.3104
   93SAPE   O32 9148   1.017   0.256   6.125 -0.3374  1.2272 -0.7876
   93SAPE   C32 9149   0.991   0.254   5.885 -0.0151 -0.4417 -0.6372
   93SAPE   H2X 9150   1.001   0.154   5.837  1.9827 -0.2330 -0.7590
   93SAPE   H2Y 9151   1.051   0.328   5.827  0.2118  0.6203  0.9114
   93SAPE   C23 9152   1.151  -0.293   5.864 -0.0440 -0.1736 -0.0679
   93SAPE   H3R 9153   1.084  -0.218   5.817  0.9871  1.3314  0.8268
   93SAPE   H3S 9154   1.098  -0.348   5.945  2.1437 -1.0605  0.8282
   93SAPE   C24 9155   1.194  -0.397   5.762 -0.7874  0.5307  0.6077
   93SAPE   H4R 9156   1.104  -0.448   5.721  0.2249 -1.2231  0.4958
   93SAPE   H4S 9157   1.255  -0.470   5.817 -1.5982 -0.3855  0.3196
   93SAPE   C25 9158   1.298  -0.340   5.658  0.5559 -0.1019 -0.3479
   93SAPE   H5R 9159   1.394  -0.303   5.696  2.4125 -1.1082 -3.6534
   93SAPE   C26 9160   1.272  -0.342   5.527  0.0619  0.1856 -0.1312
   93SAPE   H6R 9161   1.351  -0.291   5.471  0.6212  0.8916  1.2438
   93SAPE   C27 9162   1.155  -0.396   5.445 -0.3761 -0.3366 -0.0279
   93SAPE   H7R 9163   1.153  -0.354   5.342 -1.4558  2.1794  0.9266
   93SAPE   H7S 9164   1.057  -0.358   5.483 -0.4769 -0.8393  0.2161
   93SAPE   C28 9165   1.167  -0.545   5.449  0.2888  0.3399  0.6190
   93SAPE   H8R 9166   1.176  -0.591   5.548 -0.5503 -0.8500  0.1585
   93SAPE   C29 9167   1.147  -0.617   5.343 -1.2830  0.5065  0.3489
   93SAPE   H9R 9168   1.154  -0.727   5.348  0.5975  0.5962  0.5433
   93SAPE  C210 9169   1.110  -0.560   5.208  0.2905 -0.6136 -0.3962
   93SAPE  H10R 9170   1.202  -0.532   5.152  0.7337  0.7558  0.9476
   93SAPE  H10S 9171   1.044  -0.472   5.223  2.2488  1.0068 -0.8726
   93SAPE  C211 9172   1.047  -0.664   5.119  0.2787  0.2481  0.4017
   93SAPE  H11R 9173   1.122  -0.732   5.077  0.8475  0.5980  0.8280
   93SAPE  C212 9174   0.921  -0.682   5.087  1.3749  0.1502 -0.0138
   93SAPE  H12R 9175   0.893  -0.757   5.012  1.0415 -0.0832  0.3433
   93SAPE  C213 9176   0.807  -0.601   5.138 -0.0114 -0.9173  0.3670
   93SAPE  H13R 9177   0.776  -0.527   5.061 -2.6855 -0.3221  1.8706
   93SAPE  H13S 9178   0.836  -0.544   5.229 -0.4887  0.0616 -0.0757
   93SAPE  C214 9179   0.689  -0.681   5.171  0.0063 -0.6281 -0.3077
   93SAPE  H14R 9180   0.659  -0.750   5.090  0.3158 -0.6880 -0.3716
   93SAPE  C215 9181   0.627  -0.692   5.292 -0.3626  0.4236 -0.3629
   93SAPE  H15R 9182   0.538  -0.755   5.310 -0.1264  0.3719  0.6565
   93SAPE  C216 9183   0.676  -0.613   5.412  0.0385 -0.4444 -0.3005
   93SAPE  H16R 9184   0.590  -0.602   5.481 -1.2594 -0.9209 -1.7930
   93SAPE  H16S 9185   0.705  -0.510   5.382 -1.0218 -0.1933 -0.4915
   93SAPE  C217 9186   0.805  -0.676   5.476  0.3426  0.1380  0.2598
   93SAPE  H17R 9187   0.881  -0.666   5.395 -0.5889 -2.2074 -1.0123
   93SAPE  H17S 9188   0.789  -0.785   5.493  1.3542 -0.3768 -1.6740
   93SAPE  C218 9189   0.851  -0.615   5.608  0.3271 -0.1357 -0.4988
   93SAPE  H18R 9190   0.895  -0.516   5.585 -2.2448  0.6282 -2.7372
   93SAPE  H18S 9191   0.929  -0.684   5.646  1.3300  1.5039  0.5560
   93SAPE  C219 9192   0.737  -0.591   5.715 -0.3987  0.1577 -0.0191
   93SAPE  H19R 9193   0.666  -0.676   5.705  0.6082 -0.7767  0.5049
   93SAPE  H19S 9194   0.688  -0.494   5.694 -0.9365 -0.0834  0.1128
   93SAPE  C220 9195   0.791  -0.591   5.860  0.0221  0.1113  0.3754
   93SAPE  H20R 9196   0.872  -0.516   5.862  1.5064 -1.4520  1.4373
   93SAPE  H20S 9197   0.839  -0.688   5.886 -0.9323 -0.7580 -0.9418
   93SAPE  H20T 9198   0.715  -0.560   5.935 -0.7678 -0.0006 -0.3566
   93SAPE   C33 9199   0.848   0.304   5.872  0.1966 -0.5895 -0.1959
   93SAPE   H3X 9200   0.842   0.408   5.912  0.8706 -0.2745 -0.8700
   93SAPE   H3Y 9201   0.774   0.233   5.913 -1.1986  1.6895  1.4845
   93SAPE   C34 9202   0.807   0.305   5.724  0.5722  0.4695  0.2366
   93SAPE   H4X 9203   0.696   0.297   5.722  0.6599 -0.9634  0.2962
   93SAPE   H4Y 9204   0.842   0.205   5.691  1.1540  0.3460  1.2062
   93SAPE   C35 9205   0.852   0.408   5.617 -0.1596  0.3159  0.6991
   93SAPE   H5X 9206   0.963   0.406   5.622 -0.1159 -0.0220 -0.0989
   93SAPE   H5Y 9207   0.819   0.512   5.636  2.6633  1.1273  1.7149
   93SAPE   C36 9208   0.817   0.359   5.469  0.2561 -0.3894  0.0312
   93SAPE   H6X 9209   0.708   0.380   5.458  0.4581  0.3724 -0.6029
   93SAPE   H6Y 9210   0.848   0.254   5.453  2.1605  0.2365 -0.6786
   93SAPE   C37 9211   0.887   0.441   5.362  0.3032  0.4137  0.2501
   93SAPE   H7X 9212   0.997   0.428   5.369  0.4193  2.1415  2.8210
   93SAPE   H7Y 9213   0.866   0.549   5.382 -0.2828  0.2562  0.4938
   93SAPE   C38 9214   0.841   0.404   5.221  0.1562 -0.0969 -0.7373
   93SAPE   H8X 9215   0.867   0.484   5.149 -1.9553 -1.4612 -3.2059
   93SAPE   H8Y 9216   0.731   0.418   5.229  0.0606 -1.7046  2.4957
   93SAPE   C39 9217   0.868   0.260   5.170 -0.0715 -0.4039 -0.4930
   93SAPE   H9X 9218   0.846   0.179   5.243 -2.3784 -0.3910 -1.0831
   93SAPE   H9Y 9219   0.974   0.261   5.139  0.1549 -0.6710  0.2506
   93SAPE  C310 9220   0.779   0.235   5.047 -0.6664 -0.1944 -0.5048
   93SAPE  H10X 9221   0.794   0.323   4.980  1.4639  1.6008  2.1149
   93SAPE  H10Y 9222   0.674   0.240   5.083 -0.8889 -1.0209 -1.0225
   93SAPE  C311 9223   0.803   0.109   4.961 -0.2726 -0.5842 -0.3713
   93SAPE  H11X 9224   0.781   0.025   5.031  2.1387 -0.6354  0.4032
   93SAPE  H11Y 9225   0.908   0.090   4.931 -0.0120 -0.1846  0.2699
   93SAPE  C312 9226   0.711   0.105   4.838  0.6339 -0.6192 -0.7081
   93SAPE  H12X 9227   0.719   0.199   4.781 -0.9309 -0.0671 -0.0571
   93SAPE  H12Y 9228   0.606   0.084   4.869  0.7962 -0.8018 -0.2594
   93SAPE  C313 9229   0.735  -0.017   4.747  0.0114 -0.1991 -0.4571
   93SAPE  H13X 9230   0.761  -0.112   4.798 -1.7977 -0.1834  0.5516
   93SAPE  H13Y 9231   0.831   0.000   4.693  0.5828  0.2020  0.6687
   93SAPE  C314 9232   0.610  -0.038   4.654  0.5861  0.1116 -0.4141
   93SAPE  H14X 9233   0.645  -0.090   4.562  1.9280 -1.9059  1.1362
   93SAPE  H14Y 9234   0.565   0.060   4.628  0.2153 -0.0339 -0.3354
   93SAPE  C315 9235   0.496  -0.121   4.722  0.0340 -0.5392 -0.1314
   93SAPE  H15X 9236   0.469  -0.074   4.819 -1.8923 -2.8815  0.5869
   93SAPE  H15Y 9237   0.533  -0.224   4.742 -0.4723 -0.7019 -0.0042
   93SAPE  C316 9238   0.373  -0.129   4.624 -0.1409 -0.4409 -0.0833
   93SAPE  H16X 9239   0.412  -0.190   4.539 -1.1648 -1.8465  0.4000
   93SAPE  H16Y 9240   0.345  -0.031   4.581  0.7882  0.4726  1.3057
   93SAPE  C317 9241   0.261  -0.208   4.688 -0.2479  0.0783  0.0011
   93SAPE  H17X 9242   0.226  -0.147   4.774 -2.3703 -0.8179 -0.1686
   93SAPE  H17Y 9243   0.304  -0.304   4.722 -1.1227 -0.1087  0.6050
   93SAPE  C318 9244   0.140  -0.235   4.593 -0.1885  0.0679 -0.9447
   93SAPE  H18X 9245   0.186  -0.298   4.513  4.2259  0.9331  0.5963
   93SAPE  H18Y 9246   0.087  -0.141   4.567 -6.6776 -1.6363  3.7160
   93SAPE  H18Z 9247   0.069  -0.302   4.647  0.0434  0.4712 -0.1220
   94SAPE     N 9248   5.658   0.922   7.035  0.5350 -0.0050 -1.1516
   94SAPE   HN1 9249   5.606   0.926   6.944 -1.8316  1.0324  0.1502
   94SAPE   HN2 9250   5.596   0.965   7.106 -0.2285 -0.1157 -1.7361
   94SAPE   HN3 9251   5.742   0.983   7.024  1.0143 -0.6438 -1.0695
   94SAPE   C12 9252   5.666   0.785   7.074 -0.7878 -0.3456  0.2320
   94SAPE  H12A 9253   5.565   0.740   7.068 -0.4682 -0.9640 -0.8367
   94SAPE  H12B 9254   5.698   0.771   7.179 -0.5472 -1.3830  0.0349
   94SAPE   C11 9255   5.764   0.718   6.971 -0.3786  0.5015  0.2357
   94SAPE  H11A 9256   5.718   0.717   6.869  0.2239 -0.7196 -0.0464
   94SAPE  H11B 9257   5.773   0.613   7.007 -0.3498  1.6136  3.8488
   94SAPE     P 9258   5.999   0.725   6.859 -0.1286 -0.1105  0.4039
   94SAPE   O13 9259   6.069   0.849   6.811 -0.2948  0.1455 -0.4125
   94SAPE   O14 9260   6.091   0.627   6.926  0.4700  0.5983  0.3959
   94SAPE   O12 9261   5.898   0.774   6.973  0.4209 -0.1459  0.7197
   94SAPE   O11 9262   5.914   0.651   6.740  0.5555 -0.4461 -0.1121
   94SAPE    C1 9263   5.874   0.724   6.620 -0.2425 -0.1672  0.0445
   94SAPE    HA 9264   5.788   0.790   6.645 -0.8987 -0.7321 -0.6858
   94SAPE    HB 9265   5.947   0.801   6.589 -0.5277  0.4048  0.7550
   94SAPE    C2 9266   5.836   0.620   6.512  0.3932 -0.1621  0.5614
   94SAPE    HS 9267   5.779   0.688   6.447  0.2194 -0.8092  0.0257
   94SAPE   O21 9268   5.771   0.492   6.551 -0.5394 -0.5159  0.0934
   94SAPE   C21 9269   5.643   0.518   6.575  0.0948 -0.3982  0.4729
   94SAPE   O22 9270   5.589   0.625   6.550  0.3056 -0.3694 -0.2082
   94SAPE   C22 9271   5.569   0.410   6.637  0.1551 -0.2465  0.6540
   94SAPE   H2R 9272   5.598   0.312   6.596  1.6767  0.3249  0.3013
   94SAPE   H2S 9273   5.602   0.405   6.743  0.1774  1.3691  0.7510
   94SAPE    C3 9274   5.963   0.580   6.426 -0.3005  0.0367  0.1256
   94SAPE    HX 9275   6.037   0.531   6.493 -0.5778 -1.4044 -0.5788
   94SAPE    HY 9276   6.009   0.679   6.407 -0.6125 -0.1424 -1.7340
   94SAPE   O31 9277   5.916   0.512   6.313  0.3598  0.0951  0.4166
   94SAPE   C31 9278   5.919   0.382   6.308  0.7273  0.0192 -0.1228
   94SAPE   O32 9279   5.965   0.312   6.394 -0.2021  0.3098 -0.0113
   94SAPE   C32 9280   5.853   0.325   6.185 -0.1519 -0.2259  0.2509
   94SAPE   H2X 9281   5.923   0.334   6.099  0.7830 -1.8474  0.8022
   94SAPE   H2Y 9282   5.763   0.388   6.166 -1.3045 -1.7652  0.4332
   94SAPE   C23 9283   5.412   0.419   6.635 -0.0485  0.2040 -0.0025
   94SAPE   H3R 9284   5.367   0.515   6.668  1.9088  0.9579  0.5767
   94SAPE   H3S 9285   5.386   0.351   6.720  1.4313 -0.2861  0.0898
   94SAPE   C24 9286   5.361   0.354   6.510 -0.7113 -0.7673 -1.0413
   94SAPE   H4R 9287   5.263   0.304   6.526 -0.2994 -0.7362  2.4601
   94SAPE   H4S 9288   5.432   0.271   6.487 -0.0164 -0.7675  0.9294
   94SAPE   C25 9289   5.355   0.461   6.404  0.0806 -0.3745  0.5054
   94SAPE   H5R 9290   5.359   0.564   6.442 -0.7583  0.0169 -0.4304
   94SAPE   C26 9291   5.353   0.447   6.270  0.0090  0.0297 -0.4848
   94SAPE   H6R 9292   5.347   0.541   6.213  3.8898  0.7135 -0.0123
   94SAPE   C27 9293   5.340   0.315   6.204  0.2832  0.0915  0.6967
   94SAPE   H7R 9294   5.237   0.281   6.231  0.7199 -0.2857  1.9550
   94SAPE   H7S 9295   5.402   0.242   6.261  0.5394 -0.2111  0.0333
   94SAPE   C28 9296   5.380   0.320   6.061 -0.2408  0.2763 -0.1325
   94SAPE   H8R 9297   5.470   0.382   6.046  0.8471 -0.6417  2.1200
   94SAPE   C29 9298   5.324   0.264   5.956 -0.5221 -0.1826  0.7361
   94SAPE   H9R 9299   5.377   0.272   5.860 -1.1827 -3.7715 -0.0657
   94SAPE  C210 9300   5.200   0.177   5.947 -0.3020  0.3463  0.5315
   94SAPE  H10R 9301   5.124   0.251   5.914  1.8331  2.0920 -0.7513
   94SAPE  H10S 9302   5.179   0.127   6.045  0.9654  1.1155  1.2228
   94SAPE  C211 9303   5.228   0.068   5.848 -0.1420 -0.2655  0.3269
   94SAPE  H11R 9304   5.281  -0.016   5.896 -0.3496  0.5451  2.0334
   94SAPE  C212 9305   5.208   0.044   5.720  0.0935 -0.6314  0.2050
   94SAPE  H12R 9306   5.249  -0.052   5.685  1.3308  0.4359 -1.4396
   94SAPE  C213 9307   5.153   0.128   5.604 -0.0793  0.1353  0.4559
   94SAPE  H13R 9308   5.089   0.213   5.634 -1.0513  1.7073 -4.9731
   94SAPE  H13S 9309   5.084   0.064   5.545  0.5317 -1.2620  1.2235
   94SAPE  C214 9310   5.262   0.176   5.508 -0.5663  0.0294 -0.4270
   94SAPE  H14R 9311   5.362   0.195   5.549 -0.3717 -0.0449 -0.8553
   94SAPE  C215 9312   5.255   0.181   5.379 -0.0529  0.6055  0.3015
   94SAPE  H15R 9313   5.334   0.219   5.313 -1.5393  0.2869 -1.7677
   94SAPE  C216 9314   5.127   0.167   5.306 -0.0419  0.4278  0.2491
   94SAPE  H16R 9315   5.047   0.229   5.353  0.2394  0.2567  0.9756
   94SAPE  H16S 9316   5.093   0.062   5.308  1.1155 -0.0110 -1.1301
   94SAPE  C217 9317   5.138   0.220   5.168  0.4774 -0.3246  0.3066
   94SAPE  H17R 9318   5.231   0.184   5.118 -0.5185  1.2105 -2.9698
   94SAPE  H17S 9319   5.151   0.330   5.166  1.9759 -0.4332  1.8125
   94SAPE  C218 9320   5.013   0.181   5.085  0.0961  0.4856 -0.7648
   94SAPE  H18R 9321   4.919   0.195   5.142  0.0975  0.6249 -0.7968
   94SAPE  H18S 9322   5.015   0.073   5.060 -0.4014  0.0197  1.0849
   94SAPE  C219 9323   5.001   0.265   4.952 -0.1537  0.3609  0.5060
   94SAPE  H19R 9324   5.069   0.218   4.878  0.1649  3.4059 -1.3049
   94SAPE  H19S 9325   5.045   0.365   4.973 -0.4386  0.6135 -0.0700
   94SAPE  C220 9326   4.863   0.291   4.900  0.1793  0.4505 -0.1476
   94SAPE  H20R 9327   4.818   0.203   4.849  0.8718 -0.0853  0.1454
   94SAPE  H20S 9328   4.882   0.369   4.823  0.8015 -0.4679 -0.9546
   94SAPE  H20T 9329   4.802   0.338   4.980  0.7961  1.0290 -0.0143
   94SAPE   C33 9330   5.822   0.172   6.201  0.0110 -0.1437 -0.3278
   94SAPE   H3X 9331   5.755   0.167   6.289  0.5023 -0.1570  0.0541
   94SAPE   H3Y 9332   5.913   0.113   6.224  0.0309  0.5255  1.4364
   94SAPE   C34 9333   5.762   0.116   6.067  0.0316  0.3808  0.4617
   94SAPE   H4X 9334   5.835   0.126   5.984  0.0860 -0.9415  0.3344
   94SAPE   H4Y 9335   5.669   0.175   6.049  0.3163  0.7568  0.2328
   94SAPE   C35 9336   5.723  -0.032   6.084 -1.0445  0.3315  0.3070
   94SAPE   H5X 9337   5.688  -0.058   6.186 -0.7417 -1.0464  0.0932
   94SAPE   H5Y 9338   5.810  -0.099   6.066 -0.3602  1.3040 -0.0843
   94SAPE   C36 9339   5.614  -0.083   5.980 -1.0917 -0.3447 -0.4361
   94SAPE   H6X 9340   5.514  -0.039   5.999 -1.6793 -2.4992  2.0568
   94SAPE   H6Y 9341   5.608  -0.193   5.995  0.3973 -0.2224  1.4821
   94SAPE   C37 9342   5.655  -0.066   5.835 -0.3385 -0.5742 -0.2330
   94SAPE   H7X 9343   5.758  -0.102   5.812  0.1011 -0.3749  1.2798
   94SAPE   H7Y 9344   5.668   0.044   5.822 -0.6786 -0.5481 -0.3521
   94SAPE   C38 9345   5.551  -0.124   5.739  0.4638  0.4721 -0.0634
   94SAPE   H8X 9346   5.447  -0.102   5.770 -1.0463 -3.1539 -1.9806
   94SAPE   H8Y 9347   5.545  -0.234   5.749  2.0080  0.3486 -0.2121
   94SAPE   C39 9348   5.585  -0.093   5.594  0.6147  0.0466 -0.0428
   94SAPE   H9X 9349   5.688  -0.128   5.573  0.1627 -1.0103 -0.5882
   94SAPE   H9Y 9350   5.583   0.018   5.580 -1.0042  0.0343 -0.1648
   94SAPE  C310 9351   5.490  -0.145   5.495  0.3662  0.4498  1.1811
   94SAPE  H10X 9352   5.384  -0.124   5.519 -0.0926 -1.3808  0.9008
   94SAPE  H10Y 9353   5.502  -0.253   5.476  0.5540  0.6283  0.2397
   94SAPE  C311 9354   5.519  -0.075   5.355 -0.0764  0.3354  0.2092
   94SAPE  H11X 9355   5.626  -0.082   5.325 -0.8046 -1.9431 -2.2637
   94SAPE  H11Y 9356   5.490   0.032   5.365 -0.9438  0.3173 -1.7913
   94SAPE  C312 9357   5.443  -0.124   5.232  0.8941  0.9928 -0.3611
   94SAPE  H12X 9358   5.336  -0.109   5.257 -0.2374 -2.3068 -2.6033
   94SAPE  H12Y 9359   5.457  -0.234   5.221  1.6873  1.0341  0.1249
   94SAPE  C313 9360   5.484  -0.051   5.104 -0.1970  0.2459  0.3717
   94SAPE  H13X 9361   5.572  -0.082   5.044 -1.7643 -0.1610 -1.8396
   94SAPE  H13Y 9362   5.499   0.051   5.146 -0.9127  0.4964  0.0225
   94SAPE  C314 9363   5.369  -0.035   4.999  0.0496  0.0002 -0.1067
   94SAPE  H14X 9364   5.276   0.002   5.048  1.0474 -0.0036  1.8902
   94SAPE  H14Y 9365   5.357  -0.140   4.965  2.1919 -0.9042  1.7076
   94SAPE  C315 9366   5.404   0.057   4.878  0.5053 -0.6663  0.2514
   94SAPE  H15X 9367   5.495   0.012   4.832 -0.0886 -1.0701 -0.5759
   94SAPE  H15Y 9368   5.418   0.158   4.920 -3.0669  0.6374 -1.2909
   94SAPE  C316 9369   5.286   0.057   4.776 -0.1046  0.1855  0.3827
   94SAPE  H16X 9370   5.195   0.088   4.832 -0.9174 -1.1406 -0.1580
   94SAPE  H16Y 9371   5.279  -0.046   4.735  2.2179 -0.1031  0.5665
   94SAPE  C317 9372   5.305   0.164   4.665  0.1278 -0.3669 -0.5271
   94SAPE  H17X 9373   5.403   0.144   4.618  0.3548 -0.6437  0.0632
   94SAPE  H17Y 9374   5.309   0.267   4.705 -0.2758 -0.7709  0.5882
   94SAPE  C318 9375   5.194   0.160   4.555 -0.0116  0.4457  0.0494
   94SAPE  H18X 9376   5.206   0.240   4.479 -1.9552 -0.0943 -0.8783
   94SAPE  H18Y 9377   5.090   0.165   4.594  0.3109 -0.1587  1.0157
   94SAPE  H18Z 9378   5.207   0.061   4.507  2.5903  0.9033 -0.3474
   95SAPE     N 9379   2.761   2.910   6.795  0.4393  0.5792  0.1366
   95SAPE   HN1 9380   2.675   2.926   6.739 -0.3694  1.1153  1.4899
   95SAPE   HN2 9381   2.811   2.822   6.769  0.6593 -0.0003  2.3518
   95SAPE   HN3 9382   2.734   2.904   6.895  1.8448  3.2980  0.7710
   95SAPE   C12 9383   2.851   3.026   6.754 -0.1094 -0.2538 -0.3290
   95SAPE  H12A 9384   2.902   2.986   6.663 -0.1088  0.6987 -0.7528
   95SAPE  H12B 9385   2.926   3.035   6.835  0.2135 -1.8942 -0.4139
   95SAPE   C11 9386   2.778   3.152   6.731 -0.2302  0.0405  0.5445
   95SAPE  H11A 9387   2.707   3.142   6.646 -1.0579 -0.0116  1.2329
   95SAPE  H11B 9388   2.863   3.218   6.701  2.3208 -3.5645 -0.9530
   95SAPE     P 9389   2.659   3.329   6.892 -0.0322  0.3631  0.2825
   95SAPE   O13 9390   2.533   3.305   6.967 -0.6878  0.3287 -0.1744
   95SAPE   O14 9391   2.770   3.403   6.958  0.6212  0.0411  0.1182
   95SAPE   O12 9392   2.711   3.187   6.847  0.5357 -0.3460  0.1395
   95SAPE   O11 9393   2.631   3.395   6.746 -0.6013  0.4578  0.5489
   95SAPE    C1 9394   2.600   3.531   6.730  0.1405  0.6164 -0.6284
   95SAPE    HA 9395   2.613   3.585   6.826  1.4806 -2.3781  1.0402
   95SAPE    HB 9396   2.664   3.578   6.652 -0.2620  0.8865 -0.7976
   95SAPE    C2 9397   2.457   3.547   6.669  0.3751 -0.2871  0.0157
   95SAPE    HS 9398   2.433   3.473   6.590 -1.2149  0.1562  0.0450
   95SAPE   O21 9399   2.446   3.684   6.629  0.7648 -0.1844  0.3134
   95SAPE   C21 9400   2.463   3.704   6.499  0.5613 -0.0752 -0.0676
   95SAPE   O22 9401   2.496   3.620   6.418 -0.6024 -0.2659 -0.1703
   95SAPE   C22 9402   2.454   3.855   6.473  0.4913  0.5096 -0.3209
   95SAPE   H2R 9403   2.347   3.883   6.476  0.4271  0.5433 -1.8815
   95SAPE   H2S 9404   2.506   3.903   6.559 -0.2604 -0.0745  0.4716
   95SAPE    C3 9405   2.356   3.527   6.790 -0.1764 -0.1818 -0.0413
   95SAPE    HX 9406   2.376   3.599   6.872 -0.0071 -0.2767  0.0011
   95SAPE    HY 9407   2.376   3.421   6.815  1.6198  0.3487  0.9799
   95SAPE   O31 9408   2.218   3.557   6.755  0.6092 -0.3667 -0.2970
   95SAPE   C31 9409   2.144   3.455   6.719  0.0278  0.1511 -0.6298
   95SAPE   O32 9410   2.194   3.347   6.700  0.8686 -0.5555  0.8840
   95SAPE   C32 9411   2.004   3.506   6.683  0.1364  0.2540 -0.0739
   95SAPE   H2X 9412   1.985   3.598   6.741 -1.8817 -0.1141 -0.0948
   95SAPE   H2Y 9413   1.933   3.426   6.714 -0.9146  1.3342  0.3678
   95SAPE   C23 9414   2.509   3.894   6.337  0.5472 -0.4685  0.2632
   95SAPE   H3R 9415   2.488   4.003   6.325 -0.8477 -0.6043  1.1718
   95SAPE   H3S 9416   2.453   3.835   6.262 -2.3846  0.1030  1.8265
   95SAPE   C24 9417   2.662   3.875   6.310 -0.7735 -0.3100 -0.3217
   95SAPE   H4R 9418   2.692   3.769   6.325  2.8028  0.2094 -2.5538
   95SAPE   H4S 9419   2.720   3.923   6.392 -2.3888  0.7981  0.2160
   95SAPE   C25 9420   2.697   3.931   6.173  0.2845  0.0216  0.0403
   95SAPE   H5R 9421   2.710   4.040   6.168 -0.0138  0.0383 -0.4587
   95SAPE   C26 9422   2.716   3.858   6.061  0.3475  0.5356  0.3153
   95SAPE   H6R 9423   2.736   3.905   5.964 -0.5126 -2.0978 -1.2550
   95SAPE   C27 9424   2.706   3.705   6.053 -0.3809  0.9886  0.2275
   95SAPE   H7R 9425   2.612   3.681   5.998 -0.1803  1.1953 -0.2163
   95SAPE   H7S 9426   2.688   3.660   6.153 -1.1671  0.9646  0.0777
   95SAPE   C28 9427   2.832   3.642   5.988  0.1205 -0.6913  0.4348
   95SAPE   H8R 9428   2.902   3.600   6.062 -0.8674 -0.1234  1.7366
   95SAPE   C29 9429   2.854   3.631   5.854  0.4165 -0.0255  0.4222
   95SAPE   H9R 9430   2.940   3.567   5.826  0.5115 -0.9617  2.6516
   95SAPE  C210 9431   2.754   3.690   5.749  0.0691 -0.0809  0.1480
   95SAPE  H10R 9432   2.678   3.757   5.795 -0.9160  0.0631 -1.6040
   95SAPE  H10S 9433   2.710   3.602   5.698  0.3773 -0.5929  0.7499
   95SAPE  C211 9434   2.826   3.787   5.664 -0.7488  0.0764 -0.4933
   95SAPE  H11R 9435   2.843   3.890   5.700  1.8585 -1.1562  2.3117
   95SAPE  C212 9436   2.866   3.768   5.541  0.6196 -0.5268 -0.4313
   95SAPE  H12R 9437   2.918   3.849   5.487  0.3533 -1.0697 -1.5411
   95SAPE  C213 9438   2.853   3.642   5.459 -0.2812  1.1906 -0.8913
   95SAPE  H13R 9439   2.754   3.640   5.408 -0.6127 -0.1999 -0.2201
   95SAPE  H13S 9440   2.844   3.558   5.530 -2.2340  0.5182 -1.8866
   95SAPE  C214 9441   2.970   3.612   5.367 -0.2310  0.6930 -0.4228
   95SAPE  H14R 9442   3.059   3.669   5.398  0.3901 -0.6481  0.3795
   95SAPE  C215 9443   2.964   3.552   5.254  0.2290  0.5247  0.0021
   95SAPE  H15R 9444   3.052   3.547   5.188  0.5317  0.6365  0.3986
   95SAPE  C216 9445   2.843   3.478   5.199 -0.2571 -0.2472  0.3835
   95SAPE  H16R 9446   2.820   3.513   5.096 -1.6405  0.1554  0.8056
   95SAPE  H16S 9447   2.751   3.495   5.259  1.3989 -1.5301  3.5363
   95SAPE  C217 9448   2.891   3.327   5.193  0.2811  0.0499  0.7877
   95SAPE  H17R 9449   2.939   3.290   5.286  1.9041 -0.2842 -0.1362
   95SAPE  H17S 9450   2.979   3.327   5.125 -0.3544 -3.6892 -0.2702
   95SAPE  C218 9451   2.784   3.232   5.135  0.6317 -0.8522  0.3016
   95SAPE  H18R 9452   2.828   3.131   5.126  0.1700 -0.9652 -0.8508
   95SAPE  H18S 9453   2.760   3.266   5.032  1.9381  3.2274  1.1485
   95SAPE  C219 9454   2.648   3.224   5.211 -0.9203  0.1239 -0.4864
   95SAPE  H19R 9455   2.571   3.154   5.174 -1.4625 -0.4410  1.5793
   95SAPE  H19S 9456   2.611   3.329   5.204 -1.6094 -0.1650 -1.2049
   95SAPE  C220 9457   2.662   3.190   5.357  0.2845  0.0503  0.6123
   95SAPE  H20R 9458   2.725   3.264   5.411 -1.0012  0.0654  2.1500
   95SAPE  H20S 9459   2.704   3.091   5.386  0.8799  0.6017  1.7135
   95SAPE  H20T 9460   2.569   3.208   5.414  1.3930 -0.3066  2.6231
   95SAPE   C33 9461   2.002   3.530   6.530  1.0203 -0.8435 -0.0152
   95SAPE   H3X 9462   1.894   3.547   6.511  0.9330  1.7498  2.2901
   95SAPE   H3Y 9463   2.023   3.432   6.481 -4.1923 -1.8419 -0.8863
   95SAPE   C34 9464   2.081   3.652   6.478  0.2969 -0.8077 -0.8784
   95SAPE   H4X 9465   2.187   3.619   6.489 -0.4011 -2.2764  2.4307
   95SAPE   H4Y 9466   2.058   3.737   6.545  0.4121 -2.2440  1.0588
   95SAPE   C35 9467   2.053   3.688   6.331  0.3252  0.3032 -0.2134
   95SAPE   H5X 9468   1.950   3.729   6.324  0.7297  1.8725  1.8914
   95SAPE   H5Y 9469   2.063   3.600   6.264  2.1221  3.1900 -4.0926
   95SAPE   C36 9470   2.149   3.798   6.290 -0.0696  0.2697  0.1798
   95SAPE   H6X 9471   2.253   3.761   6.301  0.1952  0.1311 -2.1195
   95SAPE   H6Y 9472   2.151   3.887   6.355  2.0972 -0.2566  0.8902
   95SAPE   C37 9473   2.142   3.833   6.145  0.3380 -0.2397 -0.9304
   95SAPE   H7X 9474   2.036   3.863   6.128 -0.4310 -0.7210  2.2357
   95SAPE   H7Y 9475   2.155   3.746   6.077 -0.7797 -0.7154 -0.5688
   95SAPE   C38 9476   2.245   3.936   6.098 -0.2385  0.3473 -0.6782
   95SAPE   H8X 9477   2.341   3.880   6.097 -0.5750 -0.6521  3.6424
   95SAPE   H8Y 9478   2.257   4.017   6.173  2.9513 -1.4649  0.9936
   95SAPE   C39 9479   2.218   3.989   5.955  0.3313 -0.7204 -0.5402
   95SAPE   H9X 9480   2.128   4.054   5.947  1.2064  0.2839 -4.9248
   95SAPE   H9Y 9481   2.202   3.898   5.894  1.1580 -0.4668 -1.1522
   95SAPE  C310 9482   2.339   4.071   5.919  0.5373 -0.0406  0.4370
   95SAPE  H10X 9483   2.434   4.014   5.923  0.4794 -0.2427 -0.6815
   95SAPE  H10Y 9484   2.357   4.155   5.989  1.3485  0.3542 -0.2216
   95SAPE  C311 9485   2.324   4.136   5.779  0.3111 -0.2113 -0.1091
   95SAPE  H11X 9486   2.334   4.245   5.794  1.2883  0.3125 -3.7062
   95SAPE  H11Y 9487   2.222   4.103   5.749  2.0193 -3.1112 -3.4722
   95SAPE  C312 9488   2.426   4.107   5.669 -0.5691  0.2173  0.5244
   95SAPE  H12X 9489   2.417   4.002   5.634 -0.3365  0.5298 -0.5020
   95SAPE  H12Y 9490   2.526   4.117   5.716 -1.3016  1.2785  1.9610
   95SAPE  C313 9491   2.416   4.199   5.546  0.3633  0.2825 -0.8470
   95SAPE  H13X 9492   2.439   4.304   5.572  0.5238 -0.0548  0.4368
   95SAPE  H13Y 9493   2.312   4.190   5.508 -0.3997 -2.9361  1.5485
   95SAPE  C314 9494   2.520   4.170   5.435  0.2050  0.0169 -0.3970
   95SAPE  H14X 9495   2.527   4.065   5.400  1.6049 -0.0486  0.0305
   95SAPE  H14Y 9496   2.616   4.206   5.479 -1.6870  1.8756  2.5896
   95SAPE  C315 9497   2.489   4.266   5.317 -0.2283 -0.4732  0.2991
   95SAPE  H15X 9498   2.490   4.367   5.362  1.7456 -0.3886  0.1526
   95SAPE  H15Y 9499   2.393   4.233   5.271  0.0469 -1.0516  0.1287
   95SAPE  C316 9500   2.600   4.253   5.219 -0.7311 -0.2340  0.3505
   95SAPE  H16X 9501   2.600   4.146   5.187 -4.2183 -0.3940  0.4351
   95SAPE  H16Y 9502   2.700   4.276   5.261 -0.1915 -0.5697 -0.7157
   95SAPE  C317 9503   2.575   4.333   5.090  0.2892 -0.0268 -0.3180
   95SAPE  H17X 9504   2.585   4.434   5.136  1.5020 -0.6578  0.8722
   95SAPE  H17Y 9505   2.472   4.334   5.049  0.6695  1.1089 -1.3156
   95SAPE  C318 9506   2.687   4.325   4.986 -0.2099  0.3584 -0.2017
   95SAPE  H18X 9507   2.695   4.218   4.958 -0.5946  0.4246 -0.5746
   95SAPE  H18Y 9508   2.788   4.352   5.023 -0.1527  4.3727 -2.6939
   95SAPE  H18Z 9509   2.662   4.388   4.898 -3.1795  1.2846  1.1307
   96SAPE     N 9510   1.172   2.040   6.570 -0.4619  0.3591  0.0717
   96SAPE   HN1 9511   1.157   1.965   6.500 -2.3306  0.7428  0.0030
   96SAPE   HN2 9512   1.079   2.044   6.617 -0.7650 -2.4517 -0.0743
   96SAPE   HN3 9513   1.173   2.124   6.509 -0.3830  1.5374  1.6197
   96SAPE   C12 9514   1.273   2.032   6.684  0.2399  0.5836  0.1402
   96SAPE  H12A 9515   1.250   2.113   6.756  0.0730 -0.9530  1.8683
   96SAPE  H12B 9516   1.374   2.058   6.646  0.2586 -0.8295 -0.8359
   96SAPE   C11 9517   1.274   1.895   6.750  0.2387  0.2297  0.2010
   96SAPE  H11A 9518   1.181   1.875   6.806  0.5750 -1.7664  0.1283
   96SAPE  H11B 9519   1.356   1.882   6.824 -1.1703 -0.2057  1.7297
   96SAPE     P 9520   1.251   1.643   6.693  0.0827 -0.2637 -0.6817
   96SAPE   O13 9521   1.317   1.565   6.587 -0.5469 -0.1181 -0.1281
   96SAPE   O14 9522   1.296   1.620   6.832  0.0507  0.5644  0.1565
   96SAPE   O12 9523   1.277   1.792   6.651 -0.1320 -0.3780  0.8529
   96SAPE   O11 9524   1.090   1.642   6.689  0.0948 -0.0335 -0.2993
   96SAPE    C1 9525   1.023   1.708   6.583  0.3699 -0.7090 -0.5038
   96SAPE    HA 9526   1.016   1.817   6.604  2.3486 -0.7194  0.3634
   96SAPE    HB 9527   1.072   1.682   6.486 -2.0548 -1.4291 -1.6189
   96SAPE    C2 9528   0.877   1.660   6.560 -0.3604 -0.1355 -0.2717
   96SAPE    HS 9529   0.809   1.676   6.647 -1.1925  2.3585 -1.2713
   96SAPE   O21 9530   0.880   1.525   6.507  0.2149  0.4620  0.2307
   96SAPE   C21 9531   0.866   1.428   6.596  0.0237 -0.1749  0.5077
   96SAPE   O22 9532   0.839   1.447   6.711 -0.0264  0.0089 -0.8387
   96SAPE   C22 9533   0.873   1.292   6.525  0.3910 -0.3917  0.0934
   96SAPE   H2R 9534   0.968   1.304   6.470  2.9673 -2.3340  3.7060
   96SAPE   H2S 9535   0.886   1.208   6.597 -0.0442 -0.8654 -0.3755
   96SAPE    C3 9536   0.804   1.746   6.451  0.0188 -0.4619  0.2164
   96SAPE    HX 9537   0.786   1.843   6.503 -0.5483 -0.6469  0.3744
   96SAPE    HY 9538   0.707   1.707   6.412 -0.2303  1.9378 -1.9088
   96SAPE   O31 9539   0.903   1.782   6.355  0.3351 -0.1528  0.2960
   96SAPE   C31 9540   0.894   1.711   6.240 -0.1587 -0.5368  0.0758
   96SAPE   O32 9541   0.808   1.637   6.201  0.6855 -0.6428  0.3428
   96SAPE   C32 9542   1.025   1.734   6.166 -0.4854 -0.0143 -0.4780
   96SAPE   H2X 9543   1.102   1.728   6.245  0.6082  1.3415 -1.3833
   96SAPE   H2Y 9544   1.019   1.837   6.123 -2.9401 -1.6350 -4.6368
   96SAPE   C23 9545   0.754   1.267   6.436  0.4175 -1.4327  0.0671
   96SAPE   H3R 9546   0.731   1.346   6.361  0.2494 -0.7020  0.8728
   96SAPE   H3S 9547   0.659   1.266   6.493  0.1208  1.1485 -0.2952
   96SAPE   C24 9548   0.765   1.130   6.367 -0.3609 -0.6858  0.0966
   96SAPE   H4R 9549   0.743   1.059   6.449  0.1410 -2.2538 -1.0549
   96SAPE   H4S 9550   0.869   1.104   6.335 -0.7113 -3.6821  1.0608
   96SAPE   C25 9551   0.662   1.106   6.260 -0.3607  0.1948  0.1766
   96SAPE   H5R 9552   0.553   1.112   6.273 -0.1548  0.3565  2.1490
   96SAPE   C26 9553   0.695   1.106   6.133  0.9357 -0.6154  0.3359
   96SAPE   H6R 9554   0.615   1.102   6.058  1.9429  2.0443 -1.0128
   96SAPE   C27 9555   0.831   1.127   6.071 -0.7831  0.4203 -0.0052
   96SAPE   H7R 9556   0.893   1.204   6.123  1.6875 -1.7627  0.4844
   96SAPE   H7S 9557   0.812   1.176   5.973  0.5862  0.0336 -0.4881
   96SAPE   C28 9558   0.922   1.005   6.062 -0.3031  0.4676 -0.4791
   96SAPE   H8R 9559   0.962   0.968   6.158  0.5150 -1.4002 -1.4969
   96SAPE   C29 9560   0.952   0.924   5.959  0.4101 -0.1872  0.1301
   96SAPE   H9R 9561   1.025   0.842   5.968  0.4668 -0.0586  0.9327
   96SAPE  C210 9562   0.916   0.959   5.810  0.2103  0.1871  0.0831
   96SAPE  H10R 9563   0.983   1.040   5.775  1.0577  0.4748  2.2129
   96SAPE  H10S 9564   0.814   1.002   5.803  1.2232  2.9329  0.8074
   96SAPE  C211 9565   0.923   0.831   5.727 -0.7100  0.3379  0.7051
   96SAPE  H11R 9566   0.957   0.739   5.775 -0.8133  0.2353  0.5817
   96SAPE  C212 9567   0.909   0.838   5.588 -0.1005  0.2326 -0.9243
   96SAPE  H12R 9568   0.940   0.744   5.541 -0.4371 -0.1351 -0.4169
   96SAPE  C213 9569   0.886   0.956   5.500 -1.0149 -0.4269  0.0253
   96SAPE  H13R 9570   0.983   1.004   5.476  0.2764 -2.5145  0.7803
   96SAPE  H13S 9571   0.824   1.040   5.538 -1.6902 -0.2752 -1.3571
   96SAPE  C214 9572   0.817   0.911   5.374  0.6634  0.0260 -0.9226
   96SAPE  H14R 9573   0.725   0.852   5.389  0.1798 -0.1489 -3.9294
   96SAPE  C215 9574   0.851   0.945   5.246 -0.4878  0.2620 -0.6166
   96SAPE  H15R 9575   0.792   0.909   5.160 -0.7568 -2.5282  0.6375
   96SAPE  C216 9576   0.970   1.037   5.209 -0.0113  0.4932 -0.3641
   96SAPE  H16R 9577   1.064   1.003   5.256  0.3208 -0.6790 -1.8167
   96SAPE  H16S 9578   0.948   1.143   5.235  1.5738  0.9293 -0.7191
   96SAPE  C217 9579   0.985   1.016   5.059  0.0690  0.4341  0.2840
   96SAPE  H17R 9580   1.006   0.909   5.036 -2.1915  0.2436 -1.1941
   96SAPE  H17S 9581   1.073   1.076   5.027 -0.3332  1.0697  0.3411
   96SAPE  C218 9582   0.871   1.072   4.974  0.1482 -0.1078 -0.0847
   96SAPE  H18R 9583   0.862   1.183   4.981 -2.3267 -0.1976 -0.8352
   96SAPE  H18S 9584   0.779   1.016   5.000  0.5315 -1.9850 -2.3974
   96SAPE  C219 9585   0.889   1.027   4.832  0.7316 -0.6453 -0.1683
   96SAPE  H19R 9586   0.902   0.919   4.810  0.1607 -0.2000 -3.0707
   96SAPE  H19S 9587   0.985   1.072   4.799  1.5905 -1.0486  1.6732
   96SAPE  C220 9588   0.784   1.092   4.733  0.5930 -0.6937 -0.1880
   96SAPE  H20R 9589   0.679   1.088   4.769  1.6080 -1.9879  3.0967
   96SAPE  H20S 9590   0.796   1.035   4.639 -0.6298 -3.9077  1.4247
   96SAPE  H20T 9591   0.821   1.193   4.708  0.1151 -0.6470 -0.7190
   96SAPE   C33 9592   1.056   1.646   6.049 -0.4337 -0.0491  0.4388
   96SAPE   H3X 9593   1.055   1.535   6.050  1.3767 -0.1103 -0.6234
   96SAPE   H3Y 9594   1.160   1.674   6.024 -0.7358  0.4264 -0.3300
   96SAPE   C34 9595   0.962   1.693   5.936 -0.1496  0.2621 -0.4525
   96SAPE   H4X 9596   0.985   1.801   5.922 -0.8024  0.4726  0.0722
   96SAPE   H4Y 9597   0.858   1.685   5.976 -0.1303 -0.9264 -0.5871
   96SAPE   C35 9598   0.993   1.610   5.812  0.5524 -0.0489 -0.0983
   96SAPE   H5X 9599   0.976   1.503   5.834 -1.9167  0.2849 -0.1162
   96SAPE   H5Y 9600   1.095   1.619   5.769  0.6947  0.7637  0.3720
   96SAPE   C36 9601   0.898   1.642   5.694 -0.4926 -0.0486  0.5139
   96SAPE   H6X 9602   0.888   1.752   5.682  1.2743  0.0958  0.1385
   96SAPE   H6Y 9603   0.790   1.631   5.718 -0.4433  2.1423  2.0255
   96SAPE   C37 9604   0.950   1.591   5.553  1.1880 -0.6596 -0.1008
   96SAPE   H7X 9605   0.973   1.482   5.556  2.0213 -0.5237 -1.1853
   96SAPE   H7Y 9606   1.046   1.645   5.536  0.6644 -0.0669 -1.2861
   96SAPE   C38 9607   0.843   1.619   5.444 -0.1997  0.2445 -0.1505
   96SAPE   H8X 9608   0.806   1.723   5.430 -1.7953 -0.3522 -0.5820
   96SAPE   H8Y 9609   0.759   1.555   5.478  0.3154 -0.7760 -0.7562
   96SAPE   C39 9610   0.882   1.554   5.304  0.1077  0.4251 -0.0987
   96SAPE   H9X 9611   0.955   1.472   5.319 -1.6268 -0.8554  2.0849
   96SAPE   H9Y 9612   0.933   1.634   5.247 -0.8763  0.7620 -0.5342
   96SAPE  C310 9613   0.762   1.487   5.236 -0.2009 -0.4921 -0.0261
   96SAPE  H10X 9614   0.679   1.561   5.230  2.2942  2.4765 -1.4949
   96SAPE  H10Y 9615   0.729   1.408   5.306  0.2173  1.5039  2.6174
   96SAPE  C311 9616   0.790   1.416   5.106  0.2999 -0.0072 -0.5434
   96SAPE  H11X 9617   0.718   1.334   5.084 -2.2142  1.7824  0.5357
   96SAPE  H11Y 9618   0.890   1.367   5.115  0.9368  0.8606 -2.4078
   96SAPE  C312 9619   0.785   1.519   4.989 -0.1206 -0.0591 -0.3998
   96SAPE  H12X 9620   0.882   1.572   4.990 -0.2323  0.2561  2.5123
   96SAPE  H12Y 9621   0.703   1.590   5.012 -1.3108 -1.9038  1.4090
   96SAPE  C313 9622   0.763   1.448   4.860  0.1569  0.3624 -0.3054
   96SAPE  H13X 9623   0.670   1.388   4.869  0.3290 -0.0641 -1.2778
   96SAPE  H13Y 9624   0.845   1.380   4.829  0.7148  0.8894  0.0012
   96SAPE  C314 9625   0.732   1.541   4.744  0.0332  0.1107  0.1015
   96SAPE  H14X 9626   0.825   1.601   4.729  0.5564 -0.9997 -1.3494
   96SAPE  H14Y 9627   0.650   1.605   4.783 -0.9653 -1.9482  1.5816
   96SAPE  C315 9628   0.696   1.466   4.621 -0.2038  0.4624 -0.0267
   96SAPE  H15X 9629   0.603   1.407   4.630  0.9231 -1.4031 -0.2021
   96SAPE  H15Y 9630   0.783   1.401   4.598  1.8257  2.5910  1.2055
   96SAPE  C316 9631   0.673   1.569   4.505  0.2128  0.2038  0.4935
   96SAPE  H16X 9632   0.759   1.638   4.490 -0.5075  0.8588 -0.7923
   96SAPE  H16Y 9633   0.581   1.625   4.532 -0.1002  0.2060 -0.5451
   96SAPE  C317 9634   0.637   1.512   4.362  0.0086  0.4116  0.2115
   96SAPE  H17X 9635   0.598   1.597   4.302 -0.6938  1.9212  2.6504
   96SAPE  H17Y 9636   0.546   1.450   4.381  0.2223  0.1215  0.2928
   96SAPE  C318 9637   0.749   1.435   4.281  0.3351 -0.5015  0.6206
   96SAPE  H18X 9638   0.836   1.503   4.269 -0.7831  1.1731  1.5555
   96SAPE  H18Y 9639   0.707   1.392   4.188 -1.1685  0.5551  0.7646
   96SAPE  H18Z 9640   0.774   1.345   4.341 -0.7008 -0.9137  0.4576
   97SAPE     N 9641   6.577   1.158   6.999 -0.3640  0.5925  0.0191
   97SAPE   HN1 9642   6.482   1.122   6.975 -0.0770  0.5022 -1.0408
   97SAPE   HN2 9643   6.602   1.099   7.081  0.6516 -0.8370 -1.2585
   97SAPE   HN3 9644   6.571   1.259   7.022 -0.6858  0.6468 -0.2806
   97SAPE   C12 9645   6.663   1.129   6.887 -0.1783 -0.1440 -0.4080
   97SAPE  H12A 9646   6.741   1.059   6.922  0.8650  1.5801  0.8846
   97SAPE  H12B 9647   6.715   1.222   6.853  0.3676 -0.0719  0.6036
   97SAPE   C11 9648   6.582   1.049   6.790 -0.2014 -0.0701  0.1745
   97SAPE  H11A 9649   6.651   1.024   6.707 -1.9065 -1.4857 -0.8952
   97SAPE  H11B 9650   6.498   1.102   6.739 -0.3683 -1.4959 -1.0785
   97SAPE     P 9651   6.550   0.787   6.777  0.0808 -0.3055  0.0175
   97SAPE   O13 9652   6.686   0.779   6.724 -0.0552  0.1900  0.5730
   97SAPE   O14 9653   6.521   0.686   6.882 -0.4027  0.0140 -0.4490
   97SAPE   O12 9654   6.535   0.927   6.845 -0.0840 -0.4240  0.5110
   97SAPE   O11 9655   6.434   0.775   6.671  0.0908 -0.4202 -0.6928
   97SAPE    C1 9656   6.400   0.887   6.585 -0.4178 -0.0943  0.6208
   97SAPE    HA 9657   6.358   0.973   6.642 -0.6980  0.0664  0.1764
   97SAPE    HB 9658   6.496   0.917   6.539 -0.3401  1.5026  1.7257
   97SAPE    C2 9659   6.291   0.846   6.488 -0.0675  0.5707  0.4470
   97SAPE    HS 9660   6.203   0.800   6.539  1.4080 -2.4035  0.5478
   97SAPE   O21 9661   6.340   0.755   6.382  0.3488 -0.1266  0.1409
   97SAPE   C21 9662   6.336   0.632   6.406 -0.3237  0.0183 -0.4169
   97SAPE   O22 9663   6.286   0.582   6.507  0.7132  0.1044 -0.4648
   97SAPE   C22 9664   6.376   0.558   6.282  1.2296  0.4488 -0.3325
   97SAPE   H2R 9665   6.486   0.557   6.268  1.3117 -3.0016 -0.3908
   97SAPE   H2S 9666   6.343   0.452   6.292 -1.6404  1.1445 -1.2904
   97SAPE    C3 9667   6.244   0.971   6.407 -0.0875  0.1854 -0.0331
   97SAPE    HX 9668   6.330   1.002   6.344 -0.1902 -1.7659 -1.2208
   97SAPE    HY 9669   6.217   1.059   6.469  1.2211  0.5671  0.0274
   97SAPE   O31 9670   6.135   0.928   6.317 -0.6936  0.2929  0.1001
   97SAPE   C31 9671   6.133   0.979   6.200 -0.3848 -0.0330  0.6668
   97SAPE   O32 9672   6.192   1.077   6.161  0.4781 -0.1477  0.3354
   97SAPE   C32 9673   6.034   0.901   6.110  0.2937  0.8256 -1.0368
   97SAPE   H2X 9674   5.929   0.912   6.142  0.4463 -3.5178  1.6536
   97SAPE   H2Y 9675   6.062   0.794   6.117 -0.0050  0.7398 -1.1603
   97SAPE   C23 9676   6.299   0.601   6.159  0.2579  0.1905  0.3764
   97SAPE   H3R 9677   6.311   0.711   6.144  1.9556  0.2380  1.6588
   97SAPE   H3S 9678   6.191   0.583   6.176  0.4965 -0.1170  1.7432
   97SAPE   C24 9679   6.348   0.522   6.039 -0.1475 -0.1249 -1.0616
   97SAPE   H4R 9680   6.285   0.547   5.951 -0.0434  0.4581 -0.9764
   97SAPE   H4S 9681   6.341   0.411   6.040  1.2570 -0.2632 -2.1427
   97SAPE   C25 9682   6.486   0.565   5.993 -0.0255  0.2850  0.3290
   97SAPE   H5R 9683   6.547   0.627   6.061  0.9947 -2.6022  2.2312
   97SAPE   C26 9684   6.521   0.515   5.872  0.1842 -0.5718 -0.6111
   97SAPE   H6R 9685   6.623   0.549   5.849  0.3236  1.2047  2.0977
   97SAPE   C27 9686   6.454   0.422   5.775  0.2099 -0.3967 -0.4624
   97SAPE   H7R 9687   6.345   0.411   5.789 -0.3220  2.1925 -1.9956
   97SAPE   H7S 9688   6.502   0.322   5.787  1.7231  0.4843  1.4888
   97SAPE   C28 9689   6.479   0.475   5.636 -0.3542  0.5184 -0.1601
   97SAPE   H8R 9690   6.574   0.431   5.603  1.0509  3.0362  0.2956
   97SAPE   C29 9691   6.389   0.529   5.551  0.0013 -0.0197  0.2520
   97SAPE   H9R 9692   6.428   0.548   5.450  0.6907  1.4567  0.7673
   97SAPE  C210 9693   6.244   0.572   5.586 -0.0953 -0.4437  0.1374
   97SAPE  H10R 9694   6.232   0.591   5.695  3.7191  2.2301  0.2932
   97SAPE  H10S 9695   6.180   0.488   5.552 -1.0098  0.8370 -1.4269
   97SAPE  C211 9696   6.193   0.689   5.504 -0.3321  0.4587  0.4732
   97SAPE  H11R 9697   6.243   0.776   5.550  4.1699 -1.0810 -1.0404
   97SAPE  C212 9698   6.115   0.689   5.393  0.6660 -0.6195  0.4697
   97SAPE  H12R 9699   6.103   0.786   5.343  2.6185  0.4360  1.9428
   97SAPE  C213 9700   6.080   0.567   5.308 -0.1201 -0.4943 -0.3431
   97SAPE  H13R 9701   6.119   0.472   5.350  0.2291  0.1309  0.7949
   97SAPE  H13S 9702   6.125   0.595   5.210  0.2039  0.6957  0.1245
   97SAPE  C214 9703   5.929   0.560   5.302  0.3409 -0.0219 -0.1970
   97SAPE  H14R 9704   5.884   0.483   5.367  0.7967 -1.4560 -1.5011
   97SAPE  C215 9705   5.846   0.611   5.209 -0.2381 -0.9979 -0.3760
   97SAPE  H15R 9706   5.741   0.578   5.204 -0.4804 -0.1045 -1.9378
   97SAPE  C216 9707   5.895   0.686   5.088 -0.3018 -0.6426 -0.4135
   97SAPE  H16R 9708   6.007   0.685   5.085 -0.2785  0.3863 -0.3500
   97SAPE  H16S 9709   5.867   0.794   5.089 -3.0036 -1.2800 -0.5991
   97SAPE  C217 9710   5.841   0.623   4.969 -0.3360  0.0156  0.1768
   97SAPE  H17R 9711   5.731   0.639   4.967 -0.0185  2.6454  0.6659
   97SAPE  H17S 9712   5.864   0.514   4.974  1.2298  0.2646 -0.8767
   97SAPE  C218 9713   5.903   0.673   4.833  0.3224  0.5065  0.9131
   97SAPE  H18R 9714   5.891   0.783   4.818  0.9096  0.7114  1.8684
   97SAPE  H18S 9715   5.850   0.623   4.749  1.5883 -1.0490  0.9950
   97SAPE  C219 9716   6.053   0.643   4.802  0.1944  0.6961  0.1474
   97SAPE  H19R 9717   6.113   0.714   4.863 -0.4353  1.2958  0.0719
   97SAPE  H19S 9718   6.066   0.662   4.694 -0.1821 -1.1924 -0.2736
   97SAPE  C220 9719   6.098   0.501   4.845 -0.3770  0.1672  0.2033
   97SAPE  H20R 9720   6.053   0.428   4.775  0.2645 -0.4529  0.4247
   97SAPE  H20S 9721   6.076   0.474   4.951 -0.8268 -2.7928 -0.5533
   97SAPE  H20T 9722   6.204   0.480   4.819 -0.8297  0.4984 -2.1063
   97SAPE   C33 9723   6.034   0.948   5.960  0.3587 -0.1815 -0.2612
   97SAPE   H3X 9724   5.963   0.881   5.906 -1.7121  1.3944  0.3698
   97SAPE   H3Y 9725   6.132   0.925   5.914  0.7084 -1.6195  1.1173
   97SAPE   C34 9726   5.984   1.089   5.933 -0.6321 -0.7337  0.1146
   97SAPE   H4X 9727   6.065   1.159   5.963 -1.8034  0.3206  0.9212
   97SAPE   H4Y 9728   5.901   1.116   6.001  0.6667  0.9813  1.1061
   97SAPE   C35 9729   5.944   1.112   5.783 -0.3380  0.0135 -0.0001
   97SAPE   H5X 9730   5.909   1.217   5.774 -2.8588 -0.8401 -1.1300
   97SAPE   H5Y 9731   5.858   1.047   5.756  0.9982 -0.8291 -2.5632
   97SAPE   C36 9732   6.056   1.085   5.672  0.4560  0.0321 -0.5554
   97SAPE   H6X 9733   6.045   0.979   5.641 -2.1673  0.6665 -2.0847
   97SAPE   H6Y 9734   6.156   1.113   5.712  0.6639 -0.3708 -0.7852
   97SAPE   C37 9735   6.036   1.157   5.543  0.1335 -0.4854 -0.3365
   97SAPE   H7X 9736   6.057   1.264   5.565  0.8604 -0.6349 -0.2772
   97SAPE   H7Y 9737   5.927   1.161   5.522  0.3375 -1.1959 -1.5619
   97SAPE   C38 9738   6.112   1.098   5.428 -0.0465 -0.1138  0.1480
   97SAPE   H8X 9739   6.134   0.989   5.436 -2.0979 -0.4076  4.0923
   97SAPE   H8Y 9740   6.208   1.151   5.409 -0.2673  0.1732 -0.1942
   97SAPE   C39 9741   6.025   1.115   5.295 -0.8603  0.2669  0.5809
   97SAPE   H9X 9742   5.971   1.211   5.307  1.5738  1.6974  0.7836
   97SAPE   H9Y 9743   5.952   1.031   5.294  4.4032 -5.0343  1.8384
   97SAPE  C310 9744   6.117   1.127   5.174 -0.4012 -0.9556 -0.0989
   97SAPE  H10X 9745   6.181   1.039   5.151 -0.8584 -0.6992 -2.7287
   97SAPE  H10Y 9746   6.174   1.222   5.184  1.0457 -1.7028 -0.8899
   97SAPE  C311 9747   6.037   1.135   5.046  0.1336  0.1202 -0.1519
   97SAPE  H11X 9748   5.958   1.210   5.064 -1.0519 -0.7712 -1.3788
   97SAPE  H11Y 9749   5.974   1.047   5.021 -1.2927  0.2106  2.7489
   97SAPE  C312 9750   6.116   1.194   4.930 -0.6816 -0.2642  0.3169
   97SAPE  H12X 9751   6.184   1.111   4.901  0.0370  0.9683 -1.6992
   97SAPE  H12Y 9752   6.189   1.274   4.954  0.5013 -0.2170 -3.0278
   97SAPE  C313 9753   6.028   1.239   4.812  0.0693  0.6539 -0.2069
   97SAPE  H13X 9754   6.091   1.289   4.735  1.2314  0.6480  0.7114
   97SAPE  H13Y 9755   5.959   1.314   4.856 -1.0818  0.0344 -0.9129
   97SAPE  C314 9756   5.945   1.127   4.754  0.3626  0.0962  0.1923
   97SAPE  H14X 9757   5.855   1.132   4.819  0.4217  3.1097  0.1615
   97SAPE  H14Y 9758   5.998   1.029   4.749  1.6380  0.8094 -0.7109
   97SAPE  C315 9759   5.899   1.165   4.606 -0.5172 -0.0252  0.1776
   97SAPE  H15X 9760   5.836   1.078   4.576 -0.4149  0.9538 -3.2440
   97SAPE  H15Y 9761   5.990   1.190   4.548  0.6298 -0.4221  1.7458
   97SAPE  C316 9762   5.810   1.283   4.600  0.0739 -0.7094 -0.0467
   97SAPE  H16X 9763   5.870   1.373   4.622 -0.0998 -0.8089  0.8672
   97SAPE  H16Y 9764   5.731   1.279   4.678  1.5517  1.8533  1.7325
   97SAPE  C317 9765   5.745   1.306   4.462  0.2738  0.4052  0.2731
   97SAPE  H17X 9766   5.815   1.277   4.381  0.5223 -0.6982  0.8721
   97SAPE  H17Y 9767   5.724   1.415   4.453  0.9989  0.7113  1.8557
   97SAPE  C318 9768   5.619   1.219   4.441  0.0223 -0.3919 -0.1863
   97SAPE  H18X 9769   5.631   1.110   4.459  0.0481 -0.0074  2.5496
   97SAPE  H18Y 9770   5.580   1.215   4.336 -0.1187 -0.0917 -0.1487
   97SAPE  H18Z 9771   5.539   1.269   4.500  1.2701  1.3039  0.1497
   98SAPE     N 9772   4.965   2.927   7.093  0.6529  0.1378  0.3505
   98SAPE   HN1 9773   4.944   3.029   7.100  0.7549  0.1633  0.2867
   98SAPE   HN2 9774   4.997   2.913   6.996  0.1992  2.7250 -0.2554
   98SAPE   HN3 9775   4.868   2.889   7.102  0.9972 -1.3043 -1.4923
   98SAPE   C12 9776   5.059   2.878   7.201  0.6303  0.3174  0.6627
   98SAPE  H12A 9777   5.055   2.955   7.281 -1.6367  3.3142 -2.0549
   98SAPE  H12B 9778   5.164   2.883   7.165  0.7044 -0.8145  0.6771
   98SAPE   C11 9779   5.011   2.738   7.257  0.4107  0.4851 -0.0347
   98SAPE  H11A 9780   4.909   2.756   7.297  0.5137  1.0685 -0.0292
   98SAPE  H11B 9781   5.074   2.714   7.345 -0.0170  0.4247  0.2621
   98SAPE     P 9782   4.967   2.499   7.184 -0.2333  0.1814  0.2052
   98SAPE   O13 9783   5.078   2.403   7.201  0.9591  0.1757 -0.1294
   98SAPE   O14 9784   4.872   2.502   7.292 -0.3502 -0.1277 -0.1307
   98SAPE   O12 9785   5.017   2.642   7.148  0.6184  0.2196  0.3472
   98SAPE   O11 9786   4.879   2.455   7.063  0.5535 -0.0193  0.4463
   98SAPE    C1 9787   4.806   2.550   6.984 -0.2915  0.5822 -0.3216
   98SAPE    HA 9788   4.732   2.600   7.050 -2.0220 -1.4813 -0.5940
   98SAPE    HB 9789   4.874   2.630   6.949  0.3361 -0.6336 -2.0233
   98SAPE    C2 9790   4.758   2.486   6.845  0.4284  0.0584  0.0715
   98SAPE    HS 9791   4.695   2.399   6.875 -0.0012  0.2266 -0.3302
   98SAPE   O21 9792   4.872   2.446   6.768 -0.4919 -0.5276 -0.2077
   98SAPE   C21 9793   4.902   2.322   6.769 -0.4323  0.5996 -0.2773
   98SAPE   O22 9794   4.824   2.229   6.801 -0.6271  0.0695  0.0034
   98SAPE   C22 9795   5.035   2.305   6.704 -0.7906 -0.4769 -0.0328
   98SAPE   H2R 9796   5.045   2.364   6.611  1.1345 -1.0150 -0.2320
   98SAPE   H2S 9797   5.105   2.354   6.775 -0.5997  0.3408 -0.7648
   98SAPE    C3 9798   4.681   2.581   6.754  0.6315 -0.4314  0.1852
   98SAPE    HX 9799   4.756   2.660   6.728 -0.0652  0.0087 -0.5446
   98SAPE    HY 9800   4.618   2.640   6.823  2.0456  2.6149 -0.9539
   98SAPE   O31 9801   4.625   2.517   6.637 -0.1403  0.0170 -0.0033
   98SAPE   C31 9802   4.492   2.528   6.629  0.1376 -0.3440  0.1811
   98SAPE   O32 9803   4.417   2.598   6.693  0.1136  0.3326 -0.1727
   98SAPE   C32 9804   4.441   2.435   6.515  0.4953 -0.3264 -0.6068
   98SAPE   H2X 9805   4.464   2.328   6.532  0.6266 -0.3968 -1.2022
   98SAPE   H2Y 9806   4.504   2.469   6.430  4.0826  1.7166  2.5654
   98SAPE   C23 9807   5.075   2.162   6.683  0.1835  0.1680 -0.0318
   98SAPE   H3R 9808   5.049   2.096   6.769  0.4618 -0.2550 -0.2742
   98SAPE   H3S 9809   5.185   2.155   6.677  0.2890  0.6488  1.0679
   98SAPE   C24 9810   5.007   2.095   6.567  0.3241  0.5298 -0.3047
   98SAPE   H4R 9811   4.898   2.086   6.585  0.2872 -1.4602 -1.2400
   98SAPE   H4S 9812   5.037   1.988   6.565  0.3119  0.5433 -1.3592
   98SAPE   C25 9813   5.038   2.149   6.431  0.1425 -0.1376  0.6148
   98SAPE   H5R 9814   5.144   2.152   6.400 -0.1444  0.9526 -0.3311
   98SAPE   C26 9815   4.953   2.241   6.368  0.5029  0.3301 -0.1391
   98SAPE   H6R 9816   4.991   2.288   6.276 -1.9227  0.8628 -0.9318
   98SAPE   C27 9817   4.828   2.315   6.405 -0.0460  0.5286  0.4736
   98SAPE   H7R 9818   4.860   2.421   6.413 -0.3483  0.6918 -0.4027
   98SAPE   H7S 9819   4.788   2.291   6.507  0.2534 -1.1820  0.2199
   98SAPE   C28 9820   4.724   2.309   6.298 -0.3877 -0.5396 -0.1127
   98SAPE   H8R 9821   4.654   2.225   6.301  0.6366 -1.4494 -0.9682
   98SAPE   C29 9822   4.720   2.387   6.187  0.3187  0.2940  0.1082
   98SAPE   H9R 9823   4.630   2.373   6.127 -0.0812  2.2553  0.1647
   98SAPE  C210 9824   4.806   2.513   6.159  0.0060  0.0775 -0.1849
   98SAPE  H10R 9825   4.914   2.497   6.181  0.0964 -0.1784 -0.8068
   98SAPE  H10S 9826   4.779   2.597   6.225  0.9614  0.2499  0.0094
   98SAPE  C211 9827   4.784   2.562   6.014 -0.2497  1.1878  1.4450
   98SAPE  H11R 9828   4.700   2.632   6.006 -0.4519  1.1409  2.8218
   98SAPE  C212 9829   4.845   2.514   5.907  0.1661  0.2323 -0.0640
   98SAPE  H12R 9830   4.828   2.561   5.809 -0.2694 -0.9217 -0.5690
   98SAPE  C213 9831   4.948   2.405   5.896  0.2944  0.3880  0.5831
   98SAPE  H13R 9832   4.902   2.318   5.844 -0.7569  0.9591  0.5423
   98SAPE  H13S 9833   4.967   2.371   6.000 -0.2996 -0.2183  0.5018
   98SAPE  C214 9834   5.067   2.457   5.826  0.3186  0.5337 -0.3767
   98SAPE  H14R 9835   5.153   2.482   5.889  0.9626  0.3946 -1.1869
   98SAPE  C215 9836   5.088   2.457   5.700 -0.5020  0.2216 -0.7397
   98SAPE  H15R 9837   5.173   2.511   5.656 -0.4267  2.0315  1.4464
   98SAPE  C216 9838   4.992   2.416   5.596 -0.3118  0.0259  0.4343
   98SAPE  H16R 9839   4.946   2.508   5.554  0.4696 -0.1493 -0.8584
   98SAPE  H16S 9840   4.915   2.341   5.625 -1.3410  0.0639 -1.9381
   98SAPE  C217 9841   5.074   2.355   5.479  0.2009 -0.5724  0.0920
   98SAPE  H17R 9842   5.114   2.258   5.515  1.2593  0.0237  0.5800
   98SAPE  H17S 9843   5.163   2.419   5.457 -0.1021  0.3794  1.4997
   98SAPE  C218 9844   4.983   2.353   5.351  0.6195  0.6311  0.1868
   98SAPE  H18R 9845   4.933   2.450   5.333 -0.1202  0.4729  1.2667
   98SAPE  H18S 9846   4.907   2.283   5.393 -0.2185  2.0399  1.1106
   98SAPE  C219 9847   5.053   2.292   5.237  0.0229  0.6033 -0.6789
   98SAPE  H19R 9848   5.096   2.193   5.267 -1.1044  0.9649  2.5350
   98SAPE  H19S 9849   5.137   2.358   5.209  0.8095  0.0803  0.3876
   98SAPE  C220 9850   4.977   2.255   5.111  0.5461  0.6453 -0.2206
   98SAPE  H20R 9851   4.936   2.342   5.056 -0.1307  0.6893  0.3459
   98SAPE  H20S 9852   4.886   2.197   5.137 -0.5176  2.5232  0.3983
   98SAPE  H20T 9853   5.026   2.200   5.027 -0.0792 -1.6217  0.8004
   98SAPE   C33 9854   4.281   2.430   6.498  0.6492 -0.1370 -0.1390
   98SAPE   H3X 9855   4.252   2.529   6.456  0.2213  0.3024  1.1537
   98SAPE   H3Y 9856   4.222   2.428   6.592  0.0415 -1.5199 -0.5206
   98SAPE   C34 9857   4.245   2.307   6.409 -0.7337 -0.9873  0.1527
   98SAPE   H4X 9858   4.137   2.324   6.389 -0.6618  0.6331  1.0141
   98SAPE   H4Y 9859   4.263   2.217   6.470 -0.7306  0.3157  2.1498
   98SAPE   C35 9860   4.323   2.291   6.271  0.0632  0.0929  0.0067
   98SAPE   H5X 9861   4.417   2.249   6.311 -0.0589  1.1539  1.4959
   98SAPE   H5Y 9862   4.347   2.390   6.226  1.7374 -0.1300  0.3423
   98SAPE   C36 9863   4.255   2.198   6.167  0.3014  0.4986 -0.6750
   98SAPE   H6X 9864   4.301   2.215   6.067  0.9355  0.2210 -0.4404
   98SAPE   H6Y 9865   4.147   2.220   6.160  0.4091  0.5665 -2.7336
   98SAPE   C37 9866   4.274   2.046   6.197  0.0083 -0.6228  0.4462
   98SAPE   H7X 9867   4.206   1.981   6.138 -0.0246 -1.9781  1.9124
   98SAPE   H7Y 9868   4.257   2.022   6.305 -2.0927 -0.6104  0.1571
   98SAPE   C38 9869   4.425   2.007   6.161  0.3647 -0.4273  0.8108
   98SAPE   H8X 9870   4.453   1.931   6.237  0.1101 -1.2026  0.1437
   98SAPE   H8Y 9871   4.493   2.092   6.183  0.7721 -1.0010  1.8680
   98SAPE   C39 9872   4.441   1.968   6.016  0.4563 -0.3612 -0.2489
   98SAPE   H9X 9873   4.539   2.004   5.975  0.8558 -0.9147  0.2178
   98SAPE   H9Y 9874   4.362   2.025   5.962  0.6694 -0.7393 -0.9757
   98SAPE  C310 9875   4.434   1.816   5.996 -0.9078  0.5164  0.6974
   98SAPE  H10X 9876   4.339   1.766   6.025  0.0164 -1.8022 -0.0465
   98SAPE  H10Y 9877   4.509   1.765   6.060 -0.9294 -0.2732  0.1122
   98SAPE  C311 9878   4.472   1.768   5.859  0.4061  0.2714  0.0172
   98SAPE  H11X 9879   4.486   1.658   5.867 -2.5569 -0.0975  1.5979
   98SAPE  H11Y 9880   4.570   1.818   5.842  0.3589  0.9644  1.5808
   98SAPE  C312 9881   4.375   1.798   5.743 -0.4512  0.4862  0.1677
   98SAPE  H12X 9882   4.394   1.906   5.724  1.9417 -0.1600 -1.4140
   98SAPE  H12Y 9883   4.267   1.787   5.770 -0.3258 -0.3054  0.3819
   98SAPE  C313 9884   4.415   1.730   5.609  0.1174  0.1097 -0.2001
   98SAPE  H13X 9885   4.414   1.620   5.624  0.5353 -0.1177 -1.6771
   98SAPE  H13Y 9886   4.518   1.768   5.596 -0.6230  1.2820 -3.7624
   98SAPE  C314 9887   4.327   1.772   5.490  0.1806 -0.4031  0.1214
   98SAPE  H14X 9888   4.327   1.882   5.496  1.1649 -0.4576  1.2848
   98SAPE  H14Y 9889   4.218   1.751   5.502 -0.2355  0.9933 -0.8746
   98SAPE  C315 9890   4.378   1.729   5.356 -0.0036 -0.2092 -0.7670
   98SAPE  H15X 9891   4.397   1.619   5.365  0.7773 -0.1670 -1.7368
   98SAPE  H15Y 9892   4.475   1.783   5.352 -0.5587  0.9216  0.5095
   98SAPE  C316 9893   4.285   1.776   5.246 -1.0774 -0.0647 -0.9138
   98SAPE  H16X 9894   4.291   1.886   5.232 -1.0961 -0.3155 -3.4194
   98SAPE  H16Y 9895   4.178   1.754   5.263 -1.1117 -0.4889 -1.6387
   98SAPE  C317 9896   4.316   1.707   5.108  0.0505 -0.1899 -0.1373
   98SAPE  H17X 9897   4.298   1.598   5.114  0.9612 -0.4105 -1.0914
   98SAPE  H17Y 9898   4.426   1.723   5.106 -0.0487  0.5247 -0.2825
   98SAPE  C318 9899   4.242   1.777   4.996 -0.1411 -0.6461 -1.0337
   98SAPE  H18X 9900   4.270   1.885   4.998  4.1795 -1.5888 -0.0458
   98SAPE  H18Y 9901   4.134   1.759   5.010  0.1621 -2.7297 -1.0902
   98SAPE  H18Z 9902   4.280   1.731   4.902  1.5170  0.3041 -0.8798
   99SAPE     N 9903   1.076   0.102   6.581  0.0506 -0.2796 -0.3977
   99SAPE   HN1 9904   1.029   0.009   6.589  2.2075 -1.4136 -0.0210
   99SAPE   HN2 9905   1.177   0.075   6.575 -0.1976 -1.1415 -0.8680
   99SAPE   HN3 9906   1.068   0.149   6.674 -0.5125 -0.9035 -0.1233
   99SAPE   C12 9907   1.029   0.190   6.472  0.4269  0.7427  0.5583
   99SAPE  H12A 9908   0.923   0.219   6.488 -0.1418  0.2074 -1.8226
   99SAPE  H12B 9909   1.038   0.122   6.385 -0.5824  0.9906  0.2431
   99SAPE   C11 9910   1.113   0.323   6.460 -0.0024  0.1841 -0.3555
   99SAPE  H11A 9911   1.074   0.383   6.376 -1.2151  2.5812  1.7865
   99SAPE  H11B 9912   1.221   0.304   6.442 -0.1078 -2.8518  1.4406
   99SAPE     P 9913   1.206   0.486   6.645  0.0241  0.2942  0.3663
   99SAPE   O13 9914   1.147   0.591   6.723 -0.7607 -0.0601 -0.1076
   99SAPE   O14 9915   1.303   0.394   6.716  0.1857 -1.0431  0.3828
   99SAPE   O12 9916   1.083   0.403   6.578 -0.5078  0.0511 -0.6712
   99SAPE   O11 9917   1.293   0.541   6.525 -0.1976 -0.0482 -0.3280
   99SAPE    C1 9918   1.223   0.620   6.423 -0.6496 -0.2966  0.0112
   99SAPE    HA 9919   1.113   0.608   6.416 -0.6641 -0.6031  0.6997
   99SAPE    HB 9920   1.249   0.728   6.431 -1.7603 -0.0184  0.0221
   99SAPE    C2 9921   1.282   0.585   6.278 -0.0326  1.3275 -0.2555
   99SAPE    HS 9922   1.244   0.483   6.253 -0.0776  1.3596 -0.3176
   99SAPE   O21 9923   1.425   0.595   6.276  0.1238 -0.2369 -0.4963
   99SAPE   C21 9924   1.489   0.540   6.173  0.1591 -0.3613  0.9353
   99SAPE   O22 9925   1.443   0.460   6.094  0.0193 -0.2076 -0.3635
   99SAPE   C22 9926   1.625   0.605   6.174 -0.1399  0.5387 -0.0309
   99SAPE   H2R 9927   1.624   0.716   6.178  1.4233  0.5895 -0.5167
   99SAPE   H2S 9928   1.675   0.568   6.266 -1.5079 -2.3654 -0.3558
   99SAPE    C3 9929   1.222   0.690   6.172  0.2534  0.2124  0.1086
   99SAPE    HX 9930   1.252   0.788   6.215  4.0514  0.1197 -1.8760
   99SAPE    HY 9931   1.111   0.693   6.166  0.1506 -0.9074  1.0266
   99SAPE   O31 9932   1.289   0.678   6.039 -0.2264 -0.3490 -0.0512
   99SAPE   C31 9933   1.231   0.609   5.943  0.3397 -0.0858  0.0555
   99SAPE   O32 9934   1.114   0.559   5.955 -0.8236  0.1755  0.4502
   99SAPE   C32 9935   1.321   0.612   5.818  0.1242  0.1661  0.1376
   99SAPE   H2X 9936   1.404   0.540   5.832  2.8356  2.9756 -0.4799
   99SAPE   H2Y 9937   1.370   0.711   5.806  0.4691 -0.0304 -0.0832
   99SAPE   C23 9938   1.727   0.561   6.056  0.4156 -0.2880  0.0837
   99SAPE   H3R 9939   1.732   0.450   6.052  4.0607 -0.2310 -0.0603
   99SAPE   H3S 9940   1.824   0.610   6.077  1.9804 -2.6561 -1.1016
   99SAPE   C24 9941   1.694   0.605   5.916  0.2745 -0.1977  0.2970
   99SAPE   H4R 9942   1.658   0.710   5.918 -0.2539 -0.3721  0.1237
   99SAPE   H4S 9943   1.607   0.550   5.875  1.3019  0.1640 -2.5846
   99SAPE   C25 9944   1.810   0.596   5.820  0.2126  0.3329  0.0052
   99SAPE   H5R 9945   1.903   0.575   5.874  0.7171  2.2694 -0.0435
   99SAPE   C26 9946   1.815   0.608   5.689 -0.2346 -0.3224 -0.2231
   99SAPE   H6R 9947   1.911   0.602   5.636 -1.4324  1.0208 -2.7122
   99SAPE   C27 9948   1.697   0.624   5.595  0.0717  0.0187 -0.2861
   99SAPE   H7R 9949   1.605   0.578   5.636 -0.2736  3.3700  3.2869
   99SAPE   H7S 9950   1.726   0.570   5.502 -0.2120 -1.0817  0.2583
   99SAPE   C28 9951   1.663   0.766   5.547 -0.1011 -0.3608 -0.0435
   99SAPE   H8R 9952   1.615   0.838   5.616  0.0669  0.5415 -0.8442
   99SAPE   C29 9953   1.705   0.821   5.428 -0.3205  0.4126 -0.0553
   99SAPE   H9R 9954   1.664   0.918   5.394  0.9608  0.6639 -0.9739
   99SAPE  C210 9955   1.803   0.756   5.323  0.4162 -0.0441  0.9450
   99SAPE  H10R 9956   1.762   0.657   5.292  0.0257  0.2956  0.3716
   99SAPE  H10S 9957   1.899   0.735   5.375  0.7986  0.7949  0.5911
   99SAPE  C211 9958   1.833   0.846   5.204 -0.2208 -0.5988 -0.3012
   99SAPE  H11R 9959   1.931   0.895   5.212  0.3519 -1.4388 -1.6344
   99SAPE  C212 9960   1.745   0.888   5.112  0.0498 -0.0003 -0.2831
   99SAPE  H12R 9961   1.773   0.965   5.039  1.6796  0.2727  0.5849
   99SAPE  C213 9962   1.599   0.855   5.108 -0.6541 -0.4722  0.3495
   99SAPE  H13R 9963   1.576   0.772   5.179  0.8590  1.2693  3.0896
   99SAPE  H13S 9964   1.583   0.807   5.009  1.5691 -0.7766  0.0831
   99SAPE  C214 9965   1.496   0.959   5.138  0.4966 -0.6002  0.0537
   99SAPE  H14R 9966   1.523   1.031   5.217  0.3136  1.7589 -1.9433
   99SAPE  C215 9967   1.384   0.988   5.063 -0.1906  0.4823 -0.6180
   99SAPE  H15R 9968   1.319   1.073   5.089 -3.5071 -2.3822  1.5744
   99SAPE  C216 9969   1.340   0.906   4.947 -0.2458  0.3657  0.3577
   99SAPE  H16R 9970   1.232   0.880   4.939 -0.5823  2.2380 -3.0438
   99SAPE  H16S 9971   1.400   0.813   4.935 -0.5090  0.2359  0.0379
   99SAPE  C217 9972   1.372   0.983   4.814 -0.2608 -0.3227 -0.2167
   99SAPE  H17R 9973   1.482   0.990   4.815 -0.3679  1.9118 -0.3152
   99SAPE  H17S 9974   1.324   1.083   4.814 -1.6185 -0.9234  1.0833
   99SAPE  C218 9975   1.319   0.909   4.691  0.1351  0.1207 -0.0923
   99SAPE  H18R 9976   1.223   0.953   4.659  0.3937  0.0342 -1.0118
   99SAPE  H18S 9977   1.305   0.805   4.729  1.4240  1.1817  3.8529
   99SAPE  C219 9978   1.411   0.892   4.567 -1.2084 -0.0507  0.6101
   99SAPE  H19R 9979   1.514   0.887   4.608 -0.8516 -0.5098 -0.2928
   99SAPE  H19S 9980   1.400   0.983   4.503  0.7624  0.6907  1.2643
   99SAPE  C220 9981   1.390   0.769   4.472  0.3125 -0.4993 -0.4970
   99SAPE  H20R 9982   1.422   0.675   4.522 -1.3152 -0.1770  1.2519
   99SAPE  H20S 9983   1.460   0.779   4.386  1.7258 -0.2434  0.6434
   99SAPE  H20T 9984   1.285   0.749   4.441  0.0452 -0.3967  0.3248
   99SAPE   C33 9985   1.252   0.569   5.691 -0.5069  0.2631 -0.3273
   99SAPE   H3X 9986   1.149   0.610   5.690 -1.0389 -0.7984  2.1963
   99SAPE   H3Y 9987   1.242   0.459   5.681  1.1143 -0.0131  0.5898
   99SAPE   C34 9988   1.324   0.617   5.567 -0.5606  0.4783  1.1151
   99SAPE   H4X 9989   1.415   0.556   5.551 -0.4542 -0.1144  3.6125
   99SAPE   H4Y 9990   1.358   0.722   5.578  1.1383  0.1367 -0.4102
   99SAPE   C35 9991   1.232   0.614   5.443 -0.4586 -0.9012  0.0754
   99SAPE   H5X 9992   1.128   0.648   5.466 -0.8488 -2.3842  0.6049
   99SAPE   H5Y 9993   1.225   0.512   5.400 -3.6310 -1.0670  0.7197
   99SAPE   C36 9994   1.292   0.705   5.330  0.2314  0.6376 -0.1661
   99SAPE   H6X 9995   1.396   0.679   5.303  1.5143  2.0693  2.9089
   99SAPE   H6Y 9996   1.289   0.806   5.377 -3.7036 -0.3665  2.2550
   99SAPE   C37 9997   1.201   0.685   5.210 -0.2267 -0.0907  0.1460
   99SAPE   H7X 9998   1.173   0.784   5.167 -3.3919 -1.2129 -0.6371
   99SAPE   H7Y 9999   1.107   0.633   5.238 -1.0539 -0.4685 -2.9706
   99SAPE   C3810000   1.246   0.612   5.088 -0.2443  0.4467 -0.3971
   99SAPE   H8X10001   1.261   0.507   5.121 -3.8192 -0.1526 -0.2888
   99SAPE   H8Y10002   1.337   0.651   5.038 -0.7202  1.1539 -0.7213
   99SAPE   C3910003   1.131   0.598   4.987  0.3435  0.2493  0.3178
   99SAPE   H9X10004   1.095   0.692   4.940  0.6906  0.5141  0.5754
   99SAPE   H9Y10005   1.052   0.537   5.036  0.3989  1.3178  1.7914
   99SAPE  C31010006   1.179   0.512   4.871  0.3272  0.6350  0.6583
   99SAPE  H10X10007   1.222   0.417   4.909  0.1812 -1.1919 -3.2250
   99SAPE  H10Y10008   1.253   0.571   4.813  0.9032 -0.0437  0.6970
   99SAPE  C31110009   1.060   0.463   4.775 -0.2732  0.2793 -0.4661
   99SAPE  H11X10010   1.018   0.541   4.708 -3.5584 -2.7582 -2.2646
   99SAPE  H11Y10011   0.983   0.437   4.851 -0.1662 -0.0426 -0.4692
   99SAPE  C31210012   1.095   0.337   4.702 -0.4852  0.1764 -0.0767
   99SAPE  H12X10013   1.003   0.303   4.650 -0.7851 -0.2827  0.7273
   99SAPE  H12Y10014   1.122   0.259   4.776  1.4174  1.6504  0.8676
   99SAPE  C31310015   1.204   0.356   4.604 -0.2631  0.2709  0.1411
   99SAPE  H13X10016   1.297   0.390   4.654 -1.4882  0.8095  2.2037
   99SAPE  H13Y10017   1.168   0.448   4.552  0.7876  1.5465  1.5731
   99SAPE  C31410018   1.223   0.244   4.499 -0.0939  0.3663 -0.7490
   99SAPE  H14X10019   1.124   0.248   4.448 -1.5570  1.2451  1.9039
   99SAPE  H14Y10020   1.252   0.145   4.539 -2.9801 -1.0972 -1.9447
   99SAPE  C31510021   1.340   0.294   4.409 -1.2270  0.7620 -0.1307
   99SAPE  H15X10022   1.330   0.391   4.355  1.1055  0.6145 -0.9368
   99SAPE  H15Y10023   1.336   0.224   4.323  1.3493 -2.3067  2.0427
   99SAPE  C31610024   1.478   0.272   4.457 -0.1157  0.5500 -0.1948
   99SAPE  H16X10025   1.494   0.165   4.482  1.9129  1.0863  1.0318
   99SAPE  H16Y10026   1.490   0.340   4.545  1.4344  1.4194 -1.0238
   99SAPE  C31710027   1.584   0.319   4.358  0.3646 -0.3247  0.0862
   99SAPE  H17X10028   1.572   0.429   4.357 -0.3112 -0.2829  3.1492
   99SAPE  H17Y10029   1.567   0.270   4.260 -0.5389 -0.4659  0.3000
   99SAPE  C31810030   1.726   0.284   4.402  0.3841 -0.0270 -0.3134
   99SAPE  H18X10031   1.738   0.175   4.421  0.8934  0.0097 -0.4057
   99SAPE  H18Y10032   1.747   0.357   4.482 -2.0657  0.9827 -0.5289
   99SAPE  H18Z10033   1.803   0.312   4.326 -0.5036  0.7825 -0.9362
  100SAPE     N10034   2.804   6.084   7.071 -0.3909 -0.5604 -0.5051
  100SAPE   HN110035   2.860   5.998   7.084  2.6019  1.5108  1.9081
  100SAPE   HN210036   2.859   6.136   6.999 -1.9333 -0.2830 -1.5479
  100SAPE   HN310037   2.800   6.124   7.167 -2.2831  0.5761 -0.9995
  100SAPE   C1210038   2.670   6.063   7.006 -0.5350 -0.4679  0.0325
  100SAPE  H12A10039   2.606   6.008   7.079  2.2475 -1.6003  1.7900
  100SAPE  H12B10040   2.692   6.000   6.917  0.6503 -1.1399  0.7757
  100SAPE   C1110041   2.608   6.199   6.964  0.0312  0.2073 -1.1618
  100SAPE  H11A10042   2.598   6.256   7.058  3.4307  0.2321 -0.7151
  100SAPE  H11B10043   2.504   6.186   6.926 -0.1764  0.4679 -0.6880
  100SAPE     P10044   2.645   6.401   6.822 -0.0591 -0.1897  0.3902
  100SAPE   O1310045   2.555   6.455   6.928 -0.2006  0.1142  0.5472
  100SAPE   O1410046   2.766   6.474   6.799 -0.9307 -0.4266  0.4146
  100SAPE   O1210047   2.687   6.260   6.866 -0.0217 -0.0612  0.2715
  100SAPE   O1110048   2.569   6.381   6.689 -0.2730  0.8018 -0.0511
  100SAPE    C110049   2.583   6.269   6.609 -0.0301  0.4377 -0.2407
  100SAPE    HA10050   2.635   6.186   6.662  2.4005  2.0672  0.1292
  100SAPE    HB10051   2.485   6.226   6.579  0.0318 -0.5610  0.9367
  100SAPE    C210052   2.697   6.285   6.500  0.9283  0.2259  0.7216
  100SAPE    HS10053   2.794   6.273   6.552  0.8491  0.3629  0.9009
  100SAPE   O2110054   2.680   6.415   6.433  0.3770 -0.3690  0.3815
  100SAPE   C2110055   2.791   6.491   6.444 -0.5266 -0.5633  0.0370
  100SAPE   O2210056   2.901   6.451   6.488  0.2860 -0.6195 -0.4325
  100SAPE   C2210057   2.779   6.629   6.375 -0.1667 -0.1134 -0.4478
  100SAPE   H2R10058   2.679   6.668   6.405  0.4636  0.4055  1.0622
  100SAPE   H2S10059   2.847   6.701   6.425 -1.4058  1.9519 -1.5714
  100SAPE    C310060   2.689   6.173   6.396 -0.5908 -0.2202 -0.3332
  100SAPE    HX10061   2.585   6.140   6.371 -0.7960 -0.0311  0.2580
  100SAPE    HY10062   2.727   6.081   6.445  0.0187  0.9580  1.5263
  100SAPE   O3110063   2.769   6.196   6.277 -0.8262  0.2134 -0.3233
  100SAPE   C3110064   2.885   6.135   6.258 -0.1627  0.1188  0.5828
  100SAPE   O3210065   2.953   6.068   6.333  0.6275  0.6211 -0.1702
  100SAPE   C3210066   2.934   6.172   6.113  0.1398 -0.5788  0.0965
  100SAPE   H2X10067   2.854   6.188   6.038  0.9995 -1.1822 -0.9948
  100SAPE   H2Y10068   2.983   6.082   6.069  0.7993 -0.4612  0.5801
  100SAPE   C2310069   2.802   6.613   6.222 -0.9824  0.8023  0.3409
  100SAPE   H3R10070   2.756   6.521   6.179  0.6351  0.5133 -0.8810
  100SAPE   H3S10071   2.913   6.616   6.208 -0.2916 -0.7339  4.2060
  100SAPE   C2410072   2.728   6.735   6.153 -0.0884  0.3056 -0.0905
  100SAPE   H4R10073   2.759   6.826   6.209 -2.1846 -0.0704  1.8482
  100SAPE   H4S10074   2.622   6.714   6.180  0.2344  1.3583  2.1823
  100SAPE   C2510075   2.741   6.737   6.002 -0.1823  0.0226 -0.0504
  100SAPE   H5R10076   2.843   6.717   5.967 -0.3573 -3.0971  0.8700
  100SAPE   C2610077   2.645   6.753   5.907  0.3011 -0.4179  0.7344
  100SAPE   H6R10078   2.671   6.760   5.801 -3.4175  1.2809 -0.2360
  100SAPE   C2710079   2.493   6.780   5.926  0.2113  0.2079  0.1434
  100SAPE   H7R10080   2.481   6.885   5.893  0.8206  0.7092  1.4357
  100SAPE   H7S10081   2.459   6.775   6.032  1.1163  2.5478  0.5983
  100SAPE   C2810082   2.415   6.683   5.851  0.0430 -0.3520  0.0273
  100SAPE   H8R10083   2.449   6.582   5.875  1.1745  0.1745  0.7192
  100SAPE   C2910084   2.312   6.709   5.769 -0.0119 -1.1160 -0.0748
  100SAPE   H9R10085   2.247   6.623   5.748 -1.5042 -0.2138  0.7262
  100SAPE  C21010086   2.250   6.843   5.730  0.2880  0.3767 -0.7035
  100SAPE  H10R10087   2.306   6.891   5.647 -0.7486  0.7506 -1.2076
  100SAPE  H10S10088   2.245   6.921   5.809 -2.3480  0.3631 -0.7847
  100SAPE  C21110089   2.111   6.817   5.683  0.3603  0.4603 -0.7719
  100SAPE  H11R10090   2.033   6.799   5.758 -0.4680  0.6438 -1.5757
  100SAPE  C21210091   2.078   6.799   5.557 -0.2639  0.5134 -0.2153
  100SAPE  H12R10092   1.971   6.783   5.534  0.5383 -2.3758 -2.6601
  100SAPE  C21310093   2.164   6.796   5.429 -0.3194 -0.4071 -0.2178
  100SAPE  H13R10094   2.146   6.703   5.371 -2.3260  0.2412 -0.7002
  100SAPE  H13S10095   2.270   6.783   5.459 -0.6643 -0.1209  1.2068
  100SAPE  C21410096   2.167   6.929   5.350  0.4394 -0.1996  0.3403
  100SAPE  H14R10097   2.205   7.019   5.401  1.0229 -0.4703  0.3961
  100SAPE  C21510098   2.141   6.941   5.219 -0.5258  0.1988 -0.0610
  100SAPE  H15R10099   2.156   7.039   5.172  2.7715  1.0960  2.5032
  100SAPE  C21610100   2.093   6.833   5.122 -0.0616  0.1559 -0.1346
  100SAPE  H16R10101   2.054   6.748   5.182 -1.2526 -0.0238 -1.1387
  100SAPE  H16S10102   2.180   6.800   5.061 -1.8289 -2.6733 -1.3029
  100SAPE  C21710103   1.976   6.869   5.023 -0.4438  0.3191 -0.4200
  100SAPE  H17R10104   1.909   6.945   5.070  0.3128  0.6872  0.0783
  100SAPE  H17S10105   1.910   6.781   5.006  0.1335 -0.3538  0.7182
  100SAPE  C21810106   2.028   6.909   4.887 -0.2244 -0.5118  0.0660
  100SAPE  H18R10107   2.091   6.830   4.841 -2.0174 -1.5436 -0.7295
  100SAPE  H18S10108   2.083   7.005   4.894 -0.2773 -0.5862  2.6965
  100SAPE  C21910109   1.915   6.933   4.785 -0.6627  0.1463  0.3379
  100SAPE  H19R10110   1.849   7.011   4.828 -0.8428 -0.3333  0.9382
  100SAPE  H19S10111   1.844   6.849   4.766  2.4440 -2.4277 -0.9431
  100SAPE  C22010112   1.974   6.979   4.651  0.6900 -0.2945  0.1941
  100SAPE  H20R10113   2.041   6.905   4.603  0.4646 -1.0387  0.9884
  100SAPE  H20S10114   2.026   7.076   4.668 -0.1078  0.4375 -1.3310
  100SAPE  H20T10115   1.895   6.993   4.574  1.9047  3.0541 -0.6161
  100SAPE   C3310116   3.040   6.294   6.106  0.0986 -0.3773 -0.2320
  100SAPE   H3X10117   3.139   6.257   6.140  1.0214 -0.2694 -2.5857
  100SAPE   H3Y10118   3.010   6.373   6.179  0.2746 -0.7040  0.2002
  100SAPE   C3410119   3.056   6.360   5.970  0.0756 -1.0475  0.3506
  100SAPE   H4X10120   3.099   6.459   5.998  0.6667 -0.4750 -2.2776
  100SAPE   H4Y10121   2.953   6.378   5.933  0.1464  1.5410  1.1884
  100SAPE   C3510122   3.146   6.289   5.867 -0.0091 -0.0502 -0.6422
  100SAPE   H5X10123   3.122   6.180   5.864  0.0820 -0.1565  1.3270
  100SAPE   H5Y10124   3.247   6.303   5.912 -1.0055 -0.3328  1.8311
  100SAPE   C3610125   3.163   6.362   5.731  0.1949 -0.1827  0.3987
  100SAPE   H6X10126   3.201   6.464   5.757  1.1321 -0.6739  1.0258
  100SAPE   H6Y10127   3.066   6.377   5.680 -0.4717  1.4155  2.0286
  100SAPE   C3710128   3.254   6.285   5.631 -0.1433  0.1843 -0.9109
  100SAPE   H7X10129   3.212   6.183   5.619 -2.2016  1.0441 -1.5365
  100SAPE   H7Y10130   3.355   6.264   5.672 -0.5804 -1.7879 -0.7724
  100SAPE   C3810131   3.249   6.350   5.492 -1.0256 -0.5937  0.5221
  100SAPE   H8X10132   3.303   6.446   5.498 -1.9365 -0.1528  2.7696
  100SAPE   H8Y10133   3.140   6.365   5.472 -1.2346 -3.1113 -0.6784
  100SAPE   C3910134   3.302   6.252   5.380  0.1439 -0.0623  0.6221
  100SAPE   H9X10135   3.232   6.166   5.382 -2.6926  1.9497 -1.9556
  100SAPE   H9Y10136   3.407   6.230   5.408 -0.3968 -0.8226  2.1416
  100SAPE  C31010137   3.301   6.313   5.240 -0.1714  0.3999  0.0831
  100SAPE  H10X10138   3.343   6.416   5.251 -1.3098  0.9493 -0.5243
  100SAPE  H10Y10139   3.196   6.324   5.208  0.0384 -0.5263 -0.9587
  100SAPE  C31110140   3.371   6.247   5.120 -0.6945  0.1609  0.0999
  100SAPE  H11X10141   3.470   6.216   5.159  1.0766  2.8024 -1.8547
  100SAPE  H11Y10142   3.384   6.331   5.048 -0.3077  0.0452  0.0283
  100SAPE  C31210143   3.305   6.122   5.058 -0.1814 -0.0679  0.4650
  100SAPE  H12X10144   3.262   6.053   5.134 -3.0632  0.6379 -0.3851
  100SAPE  H12Y10145   3.382   6.062   5.005  1.7201  0.1902  2.7835
  100SAPE  C31310146   3.192   6.156   4.965  0.1647 -0.7266 -0.0810
  100SAPE  H13X10147   3.216   6.247   4.906 -0.5184 -1.1422 -1.0232
  100SAPE  H13Y10148   3.102   6.184   5.025  0.3982 -0.3631  0.0974
  100SAPE  C31410149   3.168   6.047   4.856  0.2603 -0.3027  0.1381
  100SAPE  H14X10150   3.164   5.947   4.904 -0.1056  1.0399  3.1007
  100SAPE  H14Y10151   3.251   6.044   4.782  1.2388 -1.4499  1.2352
  100SAPE  C31510152   3.041   6.079   4.768  0.2737  0.2101 -0.0254
  100SAPE  H15X10153   3.032   6.188   4.748 -0.7113  0.0022 -0.7754
  100SAPE  H15Y10154   2.952   6.042   4.823 -0.6748 -0.7130 -2.0586
  100SAPE  C31610155   3.040   6.006   4.631 -0.1587  0.0740 -0.0813
  100SAPE  H16X10156   3.020   5.901   4.661  0.6385 -0.5650 -1.6730
  100SAPE  H16Y10157   3.141   6.028   4.589 -1.4799  0.6154 -3.3136
  100SAPE  C31710158   2.942   6.065   4.528  0.1933 -0.2703  0.8160
  100SAPE  H17X10159   2.949   6.171   4.495  0.4484 -0.0780  1.4790
  100SAPE  H17Y10160   2.837   6.058   4.566 -1.2678  1.0066 -2.5563
  100SAPE  C31810161   2.949   5.986   4.400 -0.7181 -0.5464 -1.1858
  100SAPE  H18X10162   3.051   6.003   4.359  1.1884  0.1468  3.2653
  100SAPE  H18Y10163   2.866   6.019   4.334 -1.1670 -0.9305 -0.8285
  100SAPE  H18Z10164   2.942   5.876   4.418 -2.7868 -0.1065  1.3825
  101SAPE     N10165   3.022   0.327   6.240  0.8588 -0.3800  0.1915
  101SAPE   HN110166   2.964   0.399   6.288 -0.4164 -0.2061 -1.5057
  101SAPE   HN210167   3.112   0.366   6.206  0.1055  1.4962  0.2278
  101SAPE   HN310168   2.968   0.291   6.158 -1.7844  0.3358  1.5116
  101SAPE   C1210169   3.055   0.212   6.329 -0.3931 -0.4477  0.2985
  101SAPE  H12A10170   3.131   0.252   6.400 -1.8300  0.5108  1.3339
  101SAPE  H12B10171   3.109   0.136   6.268 -1.1098 -1.2757  0.6853
  101SAPE   C1110172   2.927   0.160   6.390 -1.4232  0.8788  0.2852
  101SAPE  H11A10173   2.968   0.079   6.454 -0.3409 -1.0430 -2.6262
  101SAPE  H11B10174   2.870   0.115   6.306  0.3532 -0.5971 -0.2058
  101SAPE     P10175   2.744   0.210   6.556  0.0318  0.3511 -0.2767
  101SAPE   O1310176   2.792   0.097   6.639 -0.6742  0.2873 -0.6556
  101SAPE   O1410177   2.688   0.326   6.634 -0.2598  0.6215 -0.0698
  101SAPE   O1210178   2.859   0.262   6.462  0.1271 -0.0563  0.4421
  101SAPE   O1110179   2.628   0.169   6.456  0.4222  0.1150  0.4096
  101SAPE    C110180   2.564   0.248   6.365  0.0865 -0.7498 -0.1668
  101SAPE    HA10181   2.506   0.327   6.418  0.1334 -1.3555  0.7945
  101SAPE    HB10182   2.634   0.306   6.301  0.3028 -1.9756 -1.0808
  101SAPE    C210183   2.478   0.163   6.265  0.0160  0.6219  0.0479
  101SAPE    HS10184   2.548   0.089   6.220  2.7385  1.2217  2.9111
  101SAPE   O2110185   2.404   0.234   6.163  0.2385  0.0405 -0.2655
  101SAPE   C2110186   2.472   0.284   6.063  1.0951  0.5774  0.1721
  101SAPE   O2210187   2.588   0.266   6.040 -0.1657  0.3701  0.0960
  101SAPE   C2210188   2.385   0.368   5.974 -0.1180 -0.4250 -0.8217
  101SAPE   H2R10189   2.277   0.342   5.974 -0.9923  2.6858 -0.5041
  101SAPE   H2S10190   2.386   0.474   6.010  0.3953 -0.8179  0.3612
  101SAPE    C310191   2.391   0.070   6.343  0.5855 -0.0012 -0.0766
  101SAPE    HX10192   2.319   0.118   6.413  0.7945 -0.8921  0.7672
  101SAPE    HY10193   2.461   0.024   6.417  0.1271  1.8156  1.5650
  101SAPE   O3110194   2.330  -0.037   6.271 -0.1016 -0.1774  0.2374
  101SAPE   C3110195   2.197  -0.018   6.254 -0.2805  0.3093 -0.7050
  101SAPE   O3210196   2.129   0.066   6.308 -0.5606  0.4109 -0.7892
  101SAPE   C3210197   2.148  -0.118   6.138 -0.4198  0.0814  0.4563
  101SAPE   H2X10198   2.185  -0.076   6.042  0.2287 -1.9160 -0.2341
  101SAPE   H2Y10199   2.038  -0.115   6.127 -0.2788  1.1194 -0.9044
  101SAPE   C2310200   2.427   0.356   5.824 -0.1211  0.3681 -0.6984
  101SAPE   H3R10201   2.416   0.250   5.794  1.3996  0.3244 -1.1521
  101SAPE   H3S10202   2.534   0.376   5.803 -0.1630  0.5142 -0.7766
  101SAPE   C2410203   2.337   0.443   5.733  0.2136 -0.3332 -0.9134
  101SAPE   H4R10204   2.390   0.472   5.640  0.4049  2.4792 -0.0183
  101SAPE   H4S10205   2.317   0.542   5.779 -2.9607 -1.5781  0.7229
  101SAPE   C2510206   2.199   0.386   5.719  0.4017  0.1810  0.6424
  101SAPE   H5R10207   2.162   0.322   5.800  2.1062 -0.0690  1.2743
  101SAPE   C2610208   2.118   0.405   5.614  0.3796 -0.6279 -0.7728
  101SAPE   H6R10209   2.013   0.373   5.623  0.7064 -1.7548 -0.8358
  101SAPE   C2710210   2.142   0.494   5.493 -0.0044  1.0096 -0.8601
  101SAPE   H7R10211   2.241   0.465   5.451 -0.4572 -0.6745 -0.8370
  101SAPE   H7S10212   2.156   0.598   5.530 -0.1890  0.7790 -0.1194
  101SAPE   C2810213   2.038   0.488   5.386 -0.1658 -0.9408 -0.5773
  101SAPE   H8R10214   1.933   0.495   5.420  0.2791  1.5153  0.5181
  101SAPE   C2910215   2.063   0.491   5.254  0.1902  0.0175 -0.1858
  101SAPE   H9R10216   1.976   0.459   5.195  0.2899  0.3721 -0.5226
  101SAPE  C21010217   2.196   0.500   5.180 -0.0787 -0.5752  0.0083
  101SAPE  H10R10218   2.241   0.399   5.182 -0.3167 -0.6681  0.9225
  101SAPE  H10S10219   2.260   0.575   5.231  0.9532 -1.5618  0.1865
  101SAPE  C21110220   2.168   0.541   5.035  0.3668  0.0561 -0.4943
  101SAPE  H11R10221   2.114   0.636   5.022 -0.1369 -0.3350 -1.3498
  101SAPE  C21210222   2.199   0.470   4.927 -0.1530  0.4984 -0.3929
  101SAPE  H12R10223   2.176   0.514   4.829  0.5961  0.2317 -0.7033
  101SAPE  C21310224   2.278   0.340   4.920 -0.2234 -0.3602 -0.1687
  101SAPE  H13R10225   2.283   0.287   4.822  0.6029  1.5133 -1.2014
  101SAPE  H13S10226   2.245   0.268   4.997  4.4951 -1.6647  1.0025
  101SAPE  C21410227   2.418   0.353   4.967 -0.7703  0.1761  0.1448
  101SAPE  H14R10228   2.449   0.454   4.999 -0.3431  0.3838 -0.8650
  101SAPE  C21510229   2.508   0.258   4.995  0.5503  0.7965  0.0275
  101SAPE  H15R10230   2.613   0.278   5.024  0.2585 -0.8141  2.5051
  101SAPE  C21610231   2.472   0.109   4.988 -0.2654  0.4873 -0.4271
  101SAPE  H16R10232   2.362   0.094   4.983 -0.2753  0.4458 -0.1081
  101SAPE  H16S10233   2.499   0.070   5.089  0.9453  1.1831 -0.4705
  101SAPE  C21710234   2.552   0.017   4.881  0.6281  0.2307 -0.2280
  101SAPE  H17R10235   2.551  -0.091   4.905  0.1444  0.8110  2.6777
  101SAPE  H17S10236   2.657   0.043   4.909 -0.2939  0.7961  3.1659
  101SAPE  C21810237   2.518   0.036   4.735 -0.1532 -0.0786 -0.0311
  101SAPE  H18R10238   2.499   0.145   4.728 -2.4591 -0.3865  0.6300
  101SAPE  H18S10239   2.421  -0.015   4.715 -0.4312  0.1493  0.7289
  101SAPE  C21910240   2.642   0.001   4.650 -0.0551 -1.1465 -0.3338
  101SAPE  H19R10241   2.736   0.005   4.709  1.1185 -0.5681 -2.1616
  101SAPE  H19S10242   2.665   0.075   4.571  1.7408 -0.8881  0.3757
  101SAPE  C22010243   2.633  -0.142   4.596 -0.3572 -0.2419 -0.1516
  101SAPE  H20R10244   2.542  -0.156   4.534  0.7985 -2.3131 -1.5059
  101SAPE  H20S10245   2.643  -0.210   4.684  0.9132 -0.9630 -0.8234
  101SAPE  H20T10246   2.719  -0.169   4.531 -1.0564 -1.2825 -0.6893
  101SAPE   C3310247   2.199  -0.264   6.157 -0.0703 -0.3281 -0.2809
  101SAPE   H3X10248   2.156  -0.305   6.251  1.2262 -0.3934  0.3024
  101SAPE   H3Y10249   2.310  -0.267   6.166 -0.0851  1.6019  1.2330
  101SAPE   C3410250   2.150  -0.349   6.048 -0.1678 -0.0066  0.1968
  101SAPE   H4X10251   2.172  -0.313   5.945  1.9300 -0.1599  0.5613
  101SAPE   H4Y10252   2.039  -0.355   6.056 -0.3706 -1.3780 -2.3991
  101SAPE   C3510253   2.194  -0.496   6.061  0.0337 -0.4334 -0.6287
  101SAPE   H5X10254   2.168  -0.536   6.161 -2.6028 -2.2492 -1.9270
  101SAPE   H5Y10255   2.305  -0.493   6.055  0.1069  1.2546  0.7758
  101SAPE   C3610256   2.127  -0.586   5.960 -0.5731  0.2446  0.3825
  101SAPE   H6X10257   2.018  -0.586   5.980 -0.6469 -1.9429  0.2947
  101SAPE   H6Y10258   2.157  -0.692   5.977  0.2550  0.2891 -0.7009
  101SAPE   C3710259   2.170  -0.563   5.809 -0.4280  0.2818 -0.1568
  101SAPE   H7X10260   2.248  -0.633   5.773 -3.2816 -2.8590 -0.7743
  101SAPE   H7Y10261   2.201  -0.456   5.808  1.2213 -0.1665  0.7363
  101SAPE   C3810262   2.059  -0.588   5.694  0.5461  0.5579 -0.1958
  101SAPE   H8X10263   1.958  -0.547   5.716  0.3521  0.9882 -1.7911
  101SAPE   H8Y10264   2.059  -0.698   5.679 -0.5681  0.3038  1.3698
  101SAPE   C3910265   2.117  -0.531   5.565  0.1830  0.7808  0.2079
  101SAPE   H9X10266   2.202  -0.591   5.527  0.3289  0.0448  1.6089
  101SAPE   H9Y10267   2.154  -0.429   5.588  1.3313  0.6196 -0.8471
  101SAPE  C31010268   2.007  -0.527   5.461 -0.0581  0.0188  0.2001
  101SAPE  H10X10269   1.924  -0.461   5.494 -0.6710 -0.9706  0.6969
  101SAPE  H10Y10270   1.953  -0.624   5.453  0.1994 -0.1820  0.8294
  101SAPE  C31110271   2.052  -0.473   5.322 -0.2863 -0.6193 -0.4631
  101SAPE  H11X10272   2.129  -0.542   5.282  0.6700  0.1206  0.0549
  101SAPE  H11Y10273   2.104  -0.377   5.340 -0.6928 -0.7629  1.7159
  101SAPE  C31210274   1.943  -0.464   5.224 -1.0804 -0.7909  0.2697
  101SAPE  H12X10275   1.842  -0.455   5.269 -0.0843 -3.0806  3.2918
  101SAPE  H12Y10276   1.941  -0.556   5.162 -0.3282  0.3671 -1.5290
  101SAPE  C31310277   1.964  -0.359   5.107 -0.5217  0.3607  0.0859
  101SAPE  H13X10278   2.073  -0.348   5.087 -0.6267  1.2566 -0.0286
  101SAPE  H13Y10279   1.936  -0.256   5.137 -1.4232  0.5433 -1.2810
  101SAPE  C31410280   1.879  -0.397   4.990 -0.5663 -0.5628  0.5072
  101SAPE  H14X10281   1.775  -0.380   5.024 -0.2207 -0.5722  1.6150
  101SAPE  H14Y10282   1.885  -0.507   4.973 -1.1999 -0.4027 -0.8814
  101SAPE  C31510283   1.916  -0.319   4.866 -0.6027 -0.1391  0.2617
  101SAPE  H15X10284   1.949  -0.220   4.905 -0.2237 -0.7835  1.6556
  101SAPE  H15Y10285   1.830  -0.303   4.797 -0.6655 -1.1028  0.1016
  101SAPE  C31610286   2.033  -0.384   4.787  0.3886  0.0980 -0.3077
  101SAPE  H16X10287   2.005  -0.485   4.753 -0.0765  0.5312 -1.2268
  101SAPE  H16Y10288   2.129  -0.386   4.844  0.5852  1.8039 -0.5129
  101SAPE  C31710289   2.059  -0.303   4.660  0.1017 -0.4418 -1.0247
  101SAPE  H17X10290   2.109  -0.206   4.682  0.5628 -1.1773  1.4071
  101SAPE  H17Y10291   1.964  -0.275   4.610  0.9587  0.8473 -1.9976
  101SAPE  C31810292   2.151  -0.386   4.558  0.2169 -0.0978 -0.2753
  101SAPE  H18X10293   2.216  -0.311   4.507 -1.9923  2.3708  0.3444
  101SAPE  H18Y10294   2.096  -0.453   4.488 -0.3016  0.5097 -0.4586
  101SAPE  H18Z10295   2.219  -0.445   4.622 -0.0999  0.9445  1.0537
  102SAPE     N10296   3.654   1.118   6.816  0.2189  0.6592 -0.3297
  102SAPE   HN110297   3.725   1.138   6.890 -0.6580  0.0954  0.7063
  102SAPE   HN210298   3.560   1.154   6.843 -0.6953 -0.1788 -2.2052
  102SAPE   HN310299   3.639   1.016   6.803 -1.3527  0.8732 -0.3901
  102SAPE   C1210300   3.680   1.178   6.686  0.3272  0.2821  0.2109
  102SAPE  H12A10301   3.765   1.120   6.645 -0.7152 -2.2385  1.3225
  102SAPE  H12B10302   3.694   1.286   6.705 -0.1022  0.1214  1.5413
  102SAPE   C1110303   3.554   1.151   6.601  0.8858  0.2306 -0.0537
  102SAPE  H11A10304   3.535   1.042   6.593 -2.3255  0.6336  0.7786
  102SAPE  H11B10305   3.572   1.177   6.494 -3.1089  0.1334 -0.9082
  102SAPE     P10306   3.300   1.165   6.686 -0.1050 -0.1967 -0.1881
  102SAPE   O1310307   3.325   1.046   6.761  0.4109  0.2238 -0.3481
  102SAPE   O1410308   3.232   1.277   6.755 -0.0948  0.6766  0.3357
  102SAPE   O1210309   3.442   1.225   6.643  0.2270  0.1511 -0.1800
  102SAPE   O1110310   3.227   1.131   6.550 -0.2307 -0.1159 -0.1785
  102SAPE    C110311   3.209   1.244   6.464 -0.4901  0.1224  0.2162
  102SAPE    HA10312   3.163   1.330   6.518 -2.3135 -1.5278  1.4223
  102SAPE    HB10313   3.309   1.270   6.424 -0.5628  1.0945  0.6281
  102SAPE    C210314   3.121   1.212   6.342  0.8911  0.5570  0.1656
  102SAPE    HS10315   3.035   1.156   6.383  1.9510 -0.9794  0.3986
  102SAPE   O2110316   3.204   1.126   6.258 -0.4014 -0.1680 -0.1692
  102SAPE   C2110317   3.136   1.093   6.146  0.0607 -0.0380 -0.0078
  102SAPE   O2210318   3.016   1.080   6.131  0.1677 -0.5196 -0.0049
  102SAPE   C2210319   3.235   1.109   6.035 -0.3079 -0.2007  0.3795
  102SAPE   H2R10320   3.296   1.200   6.053 -0.1062 -0.4665  1.0654
  102SAPE   H2S10321   3.317   1.035   6.047 -0.7898 -0.4402  2.5491
  102SAPE    C310322   3.069   1.348   6.285 -0.1318 -0.4872 -0.6236
  102SAPE    HX10323   3.016   1.402   6.367  1.3237  0.4524 -0.2442
  102SAPE    HY10324   3.002   1.328   6.199  1.0431 -0.2647 -1.6181
  102SAPE   O3110325   3.177   1.427   6.231 -0.4761 -0.5445  0.3495
  102SAPE   C3110326   3.179   1.554   6.255  0.7256  0.0164  0.5889
  102SAPE   O3210327   3.101   1.614   6.329 -0.1334 -0.1390  0.7035
  102SAPE   C3210328   3.290   1.632   6.177  0.8324  0.6972 -0.7517
  102SAPE   H2X10329   3.377   1.565   6.163  0.8041 -0.1175  2.3180
  102SAPE   H2Y10330   3.312   1.720   6.241  1.1613  0.9501 -1.2035
  102SAPE   C2310331   3.181   1.126   5.892  0.7273 -0.8048 -0.8070
  102SAPE   H3R10332   3.262   1.171   5.830  1.1748  0.1887  0.4383
  102SAPE   H3S10333   3.094   1.195   5.891 -0.4897 -2.2809 -1.2708
  102SAPE   C2410334   3.156   0.996   5.821  0.1496  0.7645 -0.7207
  102SAPE   H4R10335   3.086   0.933   5.879  1.4123 -1.4697 -1.5093
  102SAPE   H4S10336   3.249   0.935   5.817 -1.2554 -1.4327 -2.0515
  102SAPE   C2510337   3.111   1.012   5.679 -0.0462  0.0922  0.2696
  102SAPE   H5R10338   3.063   1.108   5.656  1.4816  0.6447 -0.8095
  102SAPE   C2610339   3.109   0.908   5.591 -0.0800 -0.5197 -0.6797
  102SAPE   H6R10340   3.072   0.921   5.489 -3.1732 -0.8523  0.2861
  102SAPE   C2710341   3.159   0.766   5.620 -0.1639 -0.4727 -1.0496
  102SAPE   H7R10342   3.072   0.703   5.648 -1.9524  2.4047  0.3473
  102SAPE   H7S10343   3.213   0.761   5.717 -1.3913 -3.1340 -0.4188
  102SAPE   C2810344   3.242   0.701   5.512  0.1798 -0.1219 -0.9669
  102SAPE   H8R10345   3.351   0.699   5.530 -0.1288 -0.4223  1.1401
  102SAPE   C2910346   3.204   0.633   5.411  0.7689  0.5299  0.5036
  102SAPE   H9R10347   3.284   0.595   5.346 -0.1361  1.3575 -1.1854
  102SAPE  C21010348   3.065   0.578   5.386 -0.6027 -0.2187  0.9805
  102SAPE  H10R10349   3.061   0.556   5.277 -0.2531  2.6827  0.3000
  102SAPE  H10S10350   2.983   0.653   5.397 -2.1013 -0.7735 -3.8754
  102SAPE  C21110351   3.023   0.461   5.474 -0.3761 -0.2403  0.6890
  102SAPE  H11R10352   3.004   0.493   5.578 -0.9713 -0.5429  0.6725
  102SAPE  C21210353   3.016   0.334   5.439  0.4719  0.4636  0.0879
  102SAPE  H12R10354   2.982   0.262   5.515 -0.6872  1.2979  0.3878
  102SAPE  C21310355   3.044   0.268   5.304 -0.7768 -0.2791 -0.4388
  102SAPE  H13R10356   3.127   0.195   5.317 -0.0025  0.6769  0.1287
  102SAPE  H13S10357   3.082   0.345   5.234  1.8070  1.7257  2.9171
  102SAPE  C21410358   2.915   0.219   5.254  0.0237 -0.1718 -0.2039
  102SAPE  H14R10359   2.832   0.206   5.324 -1.0658  0.6278 -1.2873
  102SAPE  C21510360   2.889   0.204   5.122  0.1661  0.2916  0.1860
  102SAPE  H15R10361   2.793   0.162   5.089 -0.4139  1.2597  0.5950
  102SAPE  C21610362   2.976   0.256   5.012 -0.8190  0.0183 -0.8424
  102SAPE  H16R10363   3.083   0.235   5.031 -0.9585 -1.0315 -1.1046
  102SAPE  H16S10364   2.956   0.364   4.996  2.2974  0.6389 -1.0631
  102SAPE  C21710365   2.944   0.181   4.882 -0.7892 -0.2940 -0.1233
  102SAPE  H17R10366   2.834   0.178   4.866 -0.8187  2.4754 -0.8446
  102SAPE  H17S10367   2.977   0.075   4.875  1.7772  0.5360 -3.5753
  102SAPE  C21810368   3.013   0.261   4.770  0.4290 -0.4116 -0.2309
  102SAPE  H18R10369   2.984   0.368   4.768  0.6981 -0.3422 -1.8652
  102SAPE  H18S10370   2.983   0.219   4.671  1.3806  2.6291 -1.9539
  102SAPE  C21910371   3.167   0.253   4.776 -0.1565  1.4883  0.0353
  102SAPE  H19R10372   3.192   0.145   4.769 -2.4691  0.9257 -0.2264
  102SAPE  H19S10373   3.204   0.285   4.876 -0.8981  0.6074  0.6015
  102SAPE  C22010374   3.235   0.336   4.672 -0.0426  0.3929 -0.7148
  102SAPE  H20R10375   3.234   0.439   4.711 -2.2691  0.2399 -0.1943
  102SAPE  H20S10376   3.178   0.338   4.576 -1.4594  1.2280  0.1128
  102SAPE  H20T10377   3.343   0.313   4.668 -0.1256 -1.4273  3.0709
  102SAPE   C3310378   3.240   1.678   6.035 -0.0045  0.2371  0.0417
  102SAPE   H3X10379   3.305   1.764   6.009  2.1751 -1.1173  0.7559
  102SAPE   H3Y10380   3.136   1.718   6.043  0.3330  1.0489  0.5039
  102SAPE   C3410381   3.259   1.565   5.936 -0.2935  0.7568 -0.0369
  102SAPE   H4X10382   3.205   1.479   5.980 -1.0726  1.3541  0.2142
  102SAPE   H4Y10383   3.368   1.546   5.933 -0.5446 -1.4648  2.0997
  102SAPE   C3510384   3.210   1.601   5.799 -0.8361 -0.2534 -0.0705
  102SAPE   H5X10385   3.227   1.706   5.767 -3.1819 -0.0885 -1.0024
  102SAPE   H5Y10386   3.100   1.585   5.806 -1.1342  1.2668 -0.8225
  102SAPE   C3610387   3.276   1.507   5.694 -0.0970  0.0602 -0.0802
  102SAPE   H6X10388   3.281   1.403   5.732 -0.2152 -0.6604 -1.9297
  102SAPE   H6Y10389   3.380   1.540   5.675 -0.0292  0.2220  0.5614
  102SAPE   C3710390   3.195   1.508   5.564 -0.1404  0.3033  0.5252
  102SAPE   H7X10391   3.215   1.605   5.513  2.8080 -0.5216 -0.0175
  102SAPE   H7Y10392   3.086   1.489   5.576  0.2470 -2.2683  0.5773
  102SAPE   C3810393   3.249   1.397   5.475  0.4735  0.1649 -0.6976
  102SAPE   H8X10394   3.213   1.299   5.513 -1.3890  1.3714  0.7745
  102SAPE   H8Y10395   3.359   1.382   5.482  0.2880 -0.9062  0.1020
  102SAPE   C3910396   3.223   1.408   5.324  0.4201  0.1156 -0.3029
  102SAPE   H9X10397   3.308   1.380   5.257  0.7495  2.1317 -0.8080
  102SAPE   H9Y10398   3.191   1.511   5.297 -1.0774  0.2675  1.8615
  102SAPE  C31010399   3.097   1.330   5.278  0.1484  0.1945  0.1701
  102SAPE  H10X10400   3.048   1.353   5.181  2.5412 -2.0928 -1.7442
  102SAPE  H10Y10401   3.020   1.357   5.354 -0.4979  0.3414 -0.5256
  102SAPE  C31110402   3.121   1.171   5.272 -0.1374 -0.9799  0.7470
  102SAPE  H11X10403   3.159   1.146   5.374  1.0113  1.0920  0.8903
  102SAPE  H11Y10404   3.207   1.138   5.210  0.3955 -1.6224  1.7897
  102SAPE  C31210405   2.993   1.088   5.240 -0.8125 -0.5282  0.3374
  102SAPE  H12X10406   2.937   1.133   5.155 -0.1237  0.3524  0.3318
  102SAPE  H12Y10407   2.935   1.098   5.334  1.3041  2.1644  1.5000
  102SAPE  C31310408   3.025   0.943   5.209 -1.1429 -0.4577  0.4964
  102SAPE  H13X10409   2.943   0.872   5.228 -2.0245  0.0061 -1.3724
  102SAPE  H13Y10410   3.099   0.892   5.275 -0.3883 -3.7981 -2.6094
  102SAPE  C31410411   3.082   0.926   5.062 -0.1059  0.2492  0.2900
  102SAPE  H14X10412   3.172   0.989   5.048 -0.5350  0.7458 -0.2584
  102SAPE  H14Y10413   3.006   0.968   4.992  0.9752  1.3312 -0.2758
  102SAPE  C31510414   3.119   0.784   5.040 -0.6661  0.8165  0.3949
  102SAPE  H15X10415   3.033   0.713   5.040 -1.5695  1.8724  1.1987
  102SAPE  H15Y10416   3.184   0.743   5.119 -0.2203  0.5100 -0.1249
  102SAPE  C31610417   3.201   0.773   4.910 -0.6202  0.3653 -1.0195
  102SAPE  H16X10418   3.259   0.679   4.918 -0.3214  0.4233 -2.2591
  102SAPE  H16Y10419   3.280   0.852   4.903 -0.9158  0.7234 -0.3711
  102SAPE  C31710420   3.108   0.777   4.788 -0.4722  0.4242  0.1782
  102SAPE  H17X10421   3.069   0.881   4.783  2.0802  1.4347 -0.3183
  102SAPE  H17Y10422   3.019   0.712   4.801  0.1677 -0.6288 -0.4637
  102SAPE  C31810423   3.177   0.750   4.652 -0.2070  0.6057 -0.3598
  102SAPE  H18X10424   3.118   0.786   4.564  1.3701 -0.7419 -2.0575
  102SAPE  H18Y10425   3.203   0.642   4.645 -0.1097  0.6725 -1.2025
  102SAPE  H18Z10426   3.277   0.799   4.652 -0.5635  1.3563 -0.4358
  103SAPE     N10427   1.342   2.423   2.413  0.0785  0.0280  0.8496
  103SAPE   HN110428   1.360   2.494   2.340 -1.6978 -0.7985 -0.4666
  103SAPE   HN210429   1.273   2.357   2.371 -1.0123  0.3108  2.1252
  103SAPE   HN310430   1.305   2.472   2.497 -1.2855  0.5885 -0.0409
  103SAPE   C1210431   1.465   2.364   2.459  0.0330 -0.1176 -0.3570
  103SAPE  H12A10432   1.515   2.326   2.367  2.2480  0.4915  0.5310
  103SAPE  H12B10433   1.440   2.288   2.536 -2.8352  2.0154  1.0181
  103SAPE   C1110434   1.556   2.472   2.516 -0.0592 -0.3053  0.1795
  103SAPE  H11A10435   1.649   2.415   2.533  0.7859  1.9364  4.1736
  103SAPE  H11B10436   1.517   2.504   2.615  1.1180 -0.5418  0.7347
  103SAPE     P10437   1.697   2.664   2.403 -0.1282 -0.3054 -0.1500
  103SAPE   O1310438   1.812   2.570   2.415  0.6541  0.0062 -0.4101
  103SAPE   O1410439   1.686   2.738   2.276 -0.1981 -0.2630  0.1489
  103SAPE   O1210440   1.565   2.584   2.428  0.3894 -0.4059 -0.2542
  103SAPE   O1110441   1.705   2.772   2.521 -0.1604  0.0842 -0.3220
  103SAPE    C110442   1.609   2.870   2.552  0.1365 -0.1404  0.1763
  103SAPE    HA10443   1.646   2.971   2.525  2.5337  0.0624  3.5818
  103SAPE    HB10444   1.515   2.852   2.496  1.3001 -3.8100 -0.8554
  103SAPE    C210445   1.583   2.883   2.702  1.1316  0.9558  0.7387
  103SAPE    HS10446   1.493   2.948   2.712  0.9290  0.7815  0.1005
  103SAPE   O2110447   1.699   2.919   2.773  0.4551 -0.1126 -0.3053
  103SAPE   C2110448   1.731   3.045   2.772  0.7089  0.5402  0.2883
  103SAPE   O2210449   1.671   3.131   2.710 -0.2659  0.0428 -0.6471
  103SAPE   C2210450   1.848   3.074   2.858  0.2024 -0.0018 -0.0848
  103SAPE   H2R10451   1.847   3.005   2.945  1.6873  1.8889  1.5324
  103SAPE   H2S10452   1.941   3.048   2.802 -0.3787  1.8698 -2.0462
  103SAPE    C310453   1.528   2.747   2.756 -0.6370  0.1185 -0.2190
  103SAPE    HX10454   1.606   2.667   2.758 -0.0470  0.6542 -1.0342
  103SAPE    HY10455   1.451   2.695   2.696 -0.0638 -1.3139  0.2377
  103SAPE   O3110456   1.481   2.773   2.889 -0.0703  0.4694 -0.2889
  103SAPE   C3110457   1.412   2.668   2.944  0.0704 -0.3102 -0.6337
  103SAPE   O3210458   1.397   2.561   2.894 -0.4822 -0.1563 -0.0300
  103SAPE   C3210459   1.362   2.714   3.082  0.0309 -0.2731 -0.2057
  103SAPE   H2X10460   1.298   2.804   3.071 -1.3566 -1.2679 -0.5804
  103SAPE   H2Y10461   1.452   2.751   3.136 -0.4604 -1.1068  1.2594
  103SAPE   C2310462   1.858   3.222   2.897  0.8191  0.3584  0.6584
  103SAPE   H3R10463   1.820   3.288   2.815 -2.5596 -3.9336 -1.6471
  103SAPE   H3S10464   1.963   3.253   2.918  1.0892 -0.1749  0.1311
  103SAPE   C2410465   1.782   3.256   3.030  0.7153  0.5517  0.6703
  103SAPE   H4R10466   1.761   3.365   3.036  2.3355  0.8544  1.2793
  103SAPE   H4S10467   1.836   3.226   3.122 -2.2892 -0.4315  2.2636
  103SAPE   C2510468   1.647   3.184   3.033  0.8479 -0.3268 -0.2232
  103SAPE   H5R10469   1.585   3.203   2.944  0.5683  1.0941  0.2334
  103SAPE   C2610470   1.582   3.092   3.119 -0.7080 -0.0168  0.4778
  103SAPE   H6R10471   1.472   3.095   3.114 -0.8832  2.3505  2.9105
  103SAPE   C2710472   1.639   3.040   3.254 -0.9501  0.5867  1.2081
  103SAPE   H7R10473   1.552   3.013   3.318 -0.1437 -2.0762  1.2665
  103SAPE   H7S10474   1.692   3.126   3.300 -0.9151 -0.1861  2.6692
  103SAPE   C2810475   1.743   2.935   3.236 -0.0697 -0.2608  0.0995
  103SAPE   H8R10476   1.804   2.927   3.145  0.5017 -0.6812  0.5127
  103SAPE   C2910477   1.778   2.853   3.332  0.3204  0.1786  1.3200
  103SAPE   H9R10478   1.834   2.765   3.296 -0.8745 -0.1544  0.1833
  103SAPE  C21010479   1.709   2.856   3.465  0.1218  0.3444  0.7932
  103SAPE  H10R10480   1.610   2.806   3.459  0.9062 -1.7219  3.1879
  103SAPE  H10S10481   1.687   2.962   3.492  2.8421  0.4911  2.8986
  103SAPE  C21110482   1.790   2.786   3.562 -0.8084  0.3913 -0.0764
  103SAPE  H11R10483   1.789   2.678   3.543 -0.1521 -0.4890  3.9754
  103SAPE  C21210484   1.856   2.836   3.671  0.0113 -0.2887 -0.0195
  103SAPE  H12R10485   1.908   2.767   3.739  0.5082 -0.7052 -0.8139
  103SAPE  C21310486   1.862   2.974   3.730 -0.1411 -0.5505  0.5040
  103SAPE  H13R10487   1.811   2.958   3.828 -1.3127 -1.6753 -0.2527
  103SAPE  H13S10488   1.814   3.054   3.669  0.4613 -1.0121 -0.6091
  103SAPE  C21410489   2.005   3.019   3.744  0.0107 -0.4868 -1.3396
  103SAPE  H14R10490   2.081   2.996   3.667  3.8081  0.1110  1.9246
  103SAPE  C21510491   2.043   3.112   3.825  0.4636 -0.6646 -0.3505
  103SAPE  H15R10492   2.147   3.148   3.820  0.0210  0.7457  0.1561
  103SAPE  C21610493   1.967   3.173   3.944 -0.2093 -0.3963  0.5005
  103SAPE  H16R10494   1.866   3.127   3.949 -0.3478  0.0291  2.0220
  103SAPE  H16S10495   1.970   3.282   3.922 -1.9009 -0.4397 -0.1632
  103SAPE  C21710496   2.038   3.153   4.079  0.4528  0.0820  0.0663
  103SAPE  H17R10497   2.141   3.192   4.091  0.6268 -0.3195 -0.1181
  103SAPE  H17S10498   2.055   3.043   4.082  0.7333  0.1503  1.2302
  103SAPE  C21810499   1.955   3.206   4.195 -0.1880 -0.3173  0.2593
  103SAPE  H18R10500   1.959   3.317   4.202  0.8785 -0.3311  0.0457
  103SAPE  H18S10501   2.006   3.174   4.288  0.0815  2.1453  1.0310
  103SAPE  C21910502   1.812   3.164   4.201 -0.1375  0.5116 -0.1829
  103SAPE  H19R10503   1.749   3.211   4.122 -1.1720 -1.6603 -0.7167
  103SAPE  H19S10504   1.771   3.199   4.298  1.9705  3.5599 -0.2525
  103SAPE  C22010505   1.794   3.014   4.199  0.3190  0.0356  0.0024
  103SAPE  H20R10506   1.837   2.960   4.286 -0.2694  0.4868  0.5861
  103SAPE  H20S10507   1.845   2.976   4.108  1.9517 -0.4756  1.0833
  103SAPE  H20T10508   1.686   2.992   4.191  0.4059 -0.5593  0.4058
  103SAPE   C3310509   1.309   2.590   3.157 -0.0909 -0.1088  0.2850
  103SAPE   H3X10510   1.384   2.510   3.172 -0.5925 -0.7557 -0.5367
  103SAPE   H3Y10511   1.216   2.551   3.110 -0.1861  0.8216 -0.3233
  103SAPE   C3410512   1.278   2.631   3.303  0.1594 -0.1965 -0.6898
  103SAPE   H4X10513   1.197   2.708   3.302  0.1228 -0.2374 -0.8759
  103SAPE   H4Y10514   1.371   2.674   3.347  0.0634 -2.4778  2.0306
  103SAPE   C3510515   1.224   2.523   3.402 -0.2586 -0.5117 -1.0728
  103SAPE   H5X10516   1.292   2.436   3.396  0.6001  0.2000 -2.0883
  103SAPE   H5Y10517   1.119   2.493   3.378 -0.4825 -1.1299  0.5507
  103SAPE   C3610518   1.216   2.561   3.555  0.4051 -0.2448  0.0463
  103SAPE   H6X10519   1.147   2.648   3.565 -0.8632 -1.4845  3.1192
  103SAPE   H6Y10520   1.315   2.592   3.594 -0.0865  1.1099  0.2725
  103SAPE   C3710521   1.155   2.441   3.629 -0.4564 -0.5139  0.1297
  103SAPE   H7X10522   1.203   2.347   3.595  0.4092  0.7710 -2.4696
  103SAPE   H7Y10523   1.051   2.425   3.596 -1.0029 -0.0314  1.5480
  103SAPE   C3810524   1.142   2.471   3.776 -0.0498  0.0748  0.2779
  103SAPE   H8X10525   1.061   2.546   3.794 -0.0581 -0.0923  0.9910
  103SAPE   H8Y10526   1.236   2.523   3.807  0.8170 -1.0438 -0.4077
  103SAPE   C3910527   1.116   2.349   3.872 -0.3285 -0.3432 -0.3581
  103SAPE   H9X10528   1.210   2.291   3.871 -1.5929 -2.5494  0.9107
  103SAPE   H9Y10529   1.032   2.289   3.830 -3.7934  1.9956  2.6604
  103SAPE  C31010530   1.080   2.386   4.013  0.1462 -0.0104 -0.2203
  103SAPE  H10X10531   0.992   2.454   4.012  1.2532  1.6436  2.7424
  103SAPE  H10Y10532   1.161   2.444   4.061 -0.9321  1.1724  0.2324
  103SAPE  C31110533   1.030   2.262   4.094  1.0644  0.6229  0.3585
  103SAPE  H11X10534   1.113   2.189   4.098  1.6947  1.0240 -2.7725
  103SAPE  H11Y10535   0.948   2.206   4.044  0.4693  1.2131  0.6654
  103SAPE  C31210536   0.978   2.295   4.235  0.0537 -0.2620 -0.4442
  103SAPE  H12X10537   0.912   2.384   4.228 -0.8150 -0.8077  0.4949
  103SAPE  H12Y10538   1.074   2.324   4.283 -0.9453 -2.4359  3.2867
  103SAPE  C31310539   0.900   2.183   4.301 -0.2233  0.0740  0.1955
  103SAPE  H13X10540   0.966   2.094   4.313  0.6976  0.5786 -0.9821
  103SAPE  H13Y10541   0.806   2.159   4.248 -1.7343  2.6340  1.5119
  103SAPE  C31410542   0.857   2.225   4.445  0.0960  0.0890  0.0432
  103SAPE  H14X10543   0.952   2.274   4.477 -0.1858 -0.1292  1.2564
  103SAPE  H14Y10544   0.852   2.131   4.505 -0.2356  0.0675 -0.0194
  103SAPE  C31510545   0.733   2.310   4.468  0.2312  0.1836  0.3313
  103SAPE  H15X10546   0.662   2.271   4.392  1.0498  0.0347 -0.3727
  103SAPE  H15Y10547   0.766   2.415   4.456 -0.3661  0.4649  1.0451
  103SAPE  C31610548   0.670   2.289   4.611  0.7112 -0.3864 -0.0459
  103SAPE  H16X10549   0.752   2.305   4.684  0.2253  0.3237  0.3551
  103SAPE  H16Y10550   0.619   2.192   4.631 -0.4876  0.2670  0.1662
  103SAPE  C31710551   0.553   2.389   4.648 -0.1031  0.8637  0.6163
  103SAPE  H17X10552   0.469   2.353   4.584 -0.0025 -0.2788  1.1065
  103SAPE  H17Y10553   0.594   2.492   4.640  0.8255  0.5807  1.5630
  103SAPE  C31810554   0.505   2.372   4.794  0.6687  0.4253 -0.1219
  103SAPE  H18X10555   0.583   2.416   4.858 -0.2361 -1.1097  2.1717
  103SAPE  H18Y10556   0.486   2.267   4.825  1.5064  0.9887  2.4987
  103SAPE  H18Z10557   0.415   2.432   4.821 -0.3517 -0.4591 -1.3995
  104SAPE     N10558   2.037   2.521   2.274 -0.1508 -0.2462 -0.4005
  104SAPE   HN110559   2.016   2.524   2.173 -1.2299 -3.3583 -0.3623
  104SAPE   HN210560   1.949   2.541   2.326 -0.6791 -0.9453 -1.0128
  104SAPE   HN310561   2.117   2.585   2.295 -1.3498  1.0097  0.5214
  104SAPE   C1210562   2.093   2.387   2.301 -0.4633  0.3229 -0.5447
  104SAPE  H12A10563   2.145   2.396   2.399 -0.7714 -1.4782 -0.1793
  104SAPE  H12B10564   2.173   2.364   2.228  0.3791 -0.1499  0.4963
  104SAPE   C1110565   1.977   2.291   2.314 -0.1717  0.0079 -0.3242
  104SAPE  H11A10566   1.884   2.340   2.350  0.7604 -0.0531  2.3126
  104SAPE  H11B10567   2.006   2.218   2.392 -1.1175  1.3364  1.3295
  104SAPE     P10568   2.024   2.113   2.125 -0.2450  0.1382 -0.1892
  104SAPE   O1310569   1.932   2.053   2.029  0.4069  0.0360  0.6130
  104SAPE   O1410570   2.157   2.158   2.080  0.4142 -0.2466 -0.8214
  104SAPE   O1210571   1.957   2.238   2.185  0.2529  0.5966  0.5391
  104SAPE   O1110572   2.042   2.025   2.256  0.0963  0.3934  0.6178
  104SAPE    C110573   1.952   1.918   2.298  0.1915  0.5309 -0.2228
  104SAPE    HA10574   1.885   1.885   2.215  0.9717 -0.5458 -0.4540
  104SAPE    HB10575   2.016   1.829   2.318 -1.7021 -1.0947 -1.0198
  104SAPE    C210576   1.867   1.964   2.422  0.4493 -0.0333 -0.6241
  104SAPE    HS10577   1.808   2.054   2.395  0.4374  0.2385  0.2706
  104SAPE   O2110578   1.966   1.984   2.523  0.6389  0.6376  0.0927
  104SAPE   C2110579   1.932   2.057   2.632 -0.5181 -0.8664  0.0298
  104SAPE   O2210580   1.844   2.142   2.633  0.4377 -0.0907  0.6376
  104SAPE   C2210581   2.026   2.023   2.751 -0.1693 -0.5980 -0.0723
  104SAPE   H2R10582   2.111   1.961   2.716  0.5676  0.5183 -0.2992
  104SAPE   H2S10583   2.070   2.122   2.774 -1.4574 -0.3286  1.3853
  104SAPE    C310584   1.770   1.847   2.460  0.0625 -0.2044  0.4929
  104SAPE    HX10585   1.828   1.752   2.457 -1.6304 -1.3230  1.4493
  104SAPE    HY10586   1.689   1.848   2.385  0.7624 -0.2196 -0.2824
  104SAPE   O3110587   1.716   1.851   2.595 -0.9909  0.5234  0.0833
  104SAPE   C3110588   1.618   1.939   2.616  0.4304 -0.2256 -0.7251
  104SAPE   O3210589   1.558   2.002   2.535  0.1393 -0.1047 -0.1936
  104SAPE   C3210590   1.588   1.950   2.765 -0.5473 -0.7183  0.2591
  104SAPE   H2X10591   1.676   1.989   2.822 -0.2304 -0.2925 -0.5053
  104SAPE   H2Y10592   1.557   1.850   2.803  1.9534 -1.5512  0.3179
  104SAPE   C2310593   1.956   1.951   2.874 -0.4034  0.5645  0.3857
  104SAPE   H3R10594   1.888   1.870   2.840 -2.4552  2.2019  0.4114
  104SAPE   H3S10595   1.888   2.021   2.927 -0.2630  1.3648 -0.4727
  104SAPE   C2410596   2.063   1.884   2.969 -0.3213  0.1895  0.2241
  104SAPE   H4R10597   2.149   1.954   2.982 -1.0966  1.2391 -0.1838
  104SAPE   H4S10598   2.105   1.805   2.903  1.4593  0.5351  0.8811
  104SAPE   C2510599   2.002   1.837   3.097  0.1114 -0.3006  0.0490
  104SAPE   H5R10600   1.974   1.914   3.171 -2.9138 -1.5900  0.4081
  104SAPE   C2610601   1.964   1.710   3.129 -0.1188 -0.3948  0.1866
  104SAPE   H6R10602   1.917   1.691   3.227 -2.0091 -0.8207 -0.7609
  104SAPE   C2710603   1.993   1.589   3.048  0.0466  0.0351  0.1219
  104SAPE   H7R10604   2.097   1.552   3.055 -0.4669 -2.0270 -1.7900
  104SAPE   H7S10605   1.972   1.609   2.940 -1.0559 -0.1397  0.2956
  104SAPE   C2810606   1.895   1.481   3.090  0.4333 -0.2141  0.3595
  104SAPE   H8R10607   1.813   1.464   3.018 -1.4012  1.5918  1.8924
  104SAPE   C2910608   1.915   1.403   3.198 -0.5182  0.8774  0.4838
  104SAPE   H9R10609   1.835   1.331   3.222 -0.1497  0.7536  1.3961
  104SAPE  C21010610   2.030   1.421   3.296  0.0639 -0.8105 -0.1583
  104SAPE  H10R10611   2.114   1.478   3.251  1.4507 -2.0668  0.7393
  104SAPE  H10S10612   2.067   1.317   3.307 -0.1935 -1.0514 -1.4448
  104SAPE  C21110613   1.985   1.500   3.421  0.2548  0.0295 -0.3817
  104SAPE  H11R10614   1.951   1.604   3.411 -1.6550 -0.6540 -1.4102
  104SAPE  C21210615   1.999   1.459   3.553 -0.2429  0.7604  0.3461
  104SAPE  H12R10616   1.962   1.518   3.638  0.1928 -1.7108  2.3837
  104SAPE  C21310617   2.055   1.330   3.598 -0.3701  0.4511 -0.3758
  104SAPE  H13R10618   2.166   1.332   3.601 -0.0931 -2.3318 -3.2963
  104SAPE  H13S10619   2.040   1.254   3.518 -2.8779 -1.5443  1.7686
  104SAPE  C21410620   2.001   1.282   3.735 -0.2770  0.1544 -0.0808
  104SAPE  H14R10621   1.905   1.333   3.754  0.8301  2.0569  0.7652
  104SAPE  C21510622   2.066   1.214   3.829 -0.1431 -0.3665  0.0733
  104SAPE  H15R10623   2.008   1.179   3.916 -0.1818  0.5720  0.4304
  104SAPE  C21610624   2.216   1.180   3.815  0.1148  0.0547  0.1381
  104SAPE  H16R10625   2.277   1.271   3.833  4.7752 -2.6692 -0.4285
  104SAPE  H16S10626   2.250   1.145   3.715  0.4078 -1.0877  0.6313
  104SAPE  C21710627   2.275   1.079   3.912  0.1754 -0.0701  0.5316
  104SAPE  H17R10628   2.385   1.076   3.896  0.1354  0.9771 -0.0728
  104SAPE  H17S10629   2.244   0.975   3.886  0.6673 -0.5402  1.7617
  104SAPE  C21810630   2.231   1.108   4.052  0.5249  0.6143  0.7771
  104SAPE  H18R10631   2.122   1.092   4.053  0.6734 -0.4127  0.9672
  104SAPE  H18S10632   2.244   1.215   4.080 -1.7768  0.8427  1.1152
  104SAPE  C21910633   2.297   1.018   4.146  0.1003  0.3285  0.4464
  104SAPE  H19R10634   2.403   1.013   4.112  0.2397 -1.7897  1.0503
  104SAPE  H19S10635   2.265   0.913   4.129 -0.2414  0.9627 -4.0920
  104SAPE  C22010636   2.290   1.056   4.292  0.2330 -0.0230  0.5497
  104SAPE  H20R10637   2.365   0.998   4.349  0.8438 -1.2533 -1.4081
  104SAPE  H20S10638   2.195   1.010   4.326 -0.7345  0.6655 -1.0887
  104SAPE  H20T10639   2.313   1.163   4.312  1.3171 -0.0093 -0.6133
  104SAPE   C3310640   1.474   2.059   2.793 -0.1558 -0.6977 -0.3584
  104SAPE   H3X10641   1.376   2.024   2.755 -0.7451 -0.0346  0.5194
  104SAPE   H3Y10642   1.482   2.154   2.735 -1.7768 -0.7569 -0.7445
  104SAPE   C3410643   1.450   2.080   2.942  0.2050  0.6935  0.2380
  104SAPE   H4X10644   1.540   2.106   3.001  1.8396 -3.1875 -0.2636
  104SAPE   H4Y10645   1.428   1.978   2.979 -1.9380  1.1042  0.2356
  104SAPE   C3510646   1.332   2.174   2.977 -0.0794 -0.3272  0.6858
  104SAPE   H5X10647   1.244   2.136   2.922  0.4112  1.4428 -1.4472
  104SAPE   H5Y10648   1.375   2.268   2.937  1.7510 -1.1813  0.5284
  104SAPE   C3610649   1.312   2.196   3.124 -0.0357 -0.5615 -0.8784
  104SAPE   H6X10650   1.236   2.276   3.142  0.8030  0.0700 -0.0079
  104SAPE   H6Y10651   1.405   2.233   3.174  0.3873  1.3877 -2.9600
  104SAPE   C3710652   1.282   2.070   3.208  0.2811 -0.0732  0.7095
  104SAPE   H7X10653   1.363   1.995   3.198  1.9570  1.5527  1.4523
  104SAPE   H7Y10654   1.187   2.025   3.171  0.6220 -0.9098  0.8307
  104SAPE   C3810655   1.259   2.099   3.365  0.2297 -0.1964 -0.2470
  104SAPE   H8X10656   1.158   2.141   3.380  0.2919 -0.0635 -0.2065
  104SAPE   H8Y10657   1.332   2.176   3.397 -1.6784  0.0890  4.0548
  104SAPE   C3910658   1.271   1.972   3.450 -0.1893  0.5306  0.2364
  104SAPE   H9X10659   1.375   1.935   3.432 -0.6731 -0.4127 -0.7665
  104SAPE   H9Y10660   1.203   1.888   3.427  0.2292 -0.0645  1.0878
  104SAPE  C31010661   1.244   1.999   3.602  0.2400  0.1108  0.3584
  104SAPE  H10X10662   1.142   2.036   3.623  0.6826  1.8166 -0.3319
  104SAPE  H10Y10663   1.310   2.081   3.637 -0.3722  0.5938  0.3970
  104SAPE  C31110664   1.245   1.876   3.695 -0.1699  0.0801  0.5769
  104SAPE  H11X10665   1.347   1.836   3.709 -0.2349 -0.0403  0.7140
  104SAPE  H11Y10666   1.182   1.801   3.642  0.2456 -0.3363  0.6668
  104SAPE  C31210667   1.185   1.912   3.831  0.4410  0.1491  0.8356
  104SAPE  H12X10668   1.074   1.907   3.829  0.4417  0.0958 -1.2255
  104SAPE  H12Y10669   1.219   2.013   3.862 -1.2788  1.0068  0.0242
  104SAPE  C31310670   1.221   1.811   3.934 -0.3399 -0.4981 -0.4708
  104SAPE  H13X10671   1.331   1.803   3.947 -0.4260 -0.4436  0.3503
  104SAPE  H13Y10672   1.194   1.706   3.909  0.9945 -0.4794 -2.0816
  104SAPE  C31410673   1.158   1.835   4.073 -0.4046 -0.0107 -1.2259
  104SAPE  H14X10674   1.050   1.812   4.065 -0.3946  0.2391 -2.3496
  104SAPE  H14Y10675   1.172   1.942   4.100  2.2785 -0.6295  0.2812
  104SAPE  C31510676   1.214   1.752   4.188 -0.7193 -0.1999 -0.1268
  104SAPE  H15X10677   1.170   1.793   4.281  2.8492  0.1958  1.5442
  104SAPE  H15Y10678   1.322   1.770   4.202 -0.6536  2.4267 -2.9084
  104SAPE  C31610679   1.182   1.599   4.184 -0.4847 -0.2785  0.3983
  104SAPE  H16X10680   1.240   1.562   4.097  2.2079 -0.2422  2.0537
  104SAPE  H16Y10681   1.076   1.586   4.156 -0.2038 -2.5226  0.1347
  104SAPE  C31710682   1.214   1.521   4.314 -0.6186  0.1999  0.8968
  104SAPE  H17X10683   1.167   1.421   4.303 -0.0937  0.1089 -1.0521
  104SAPE  H17Y10684   1.164   1.570   4.400 -3.4434 -0.6748 -0.1535
  104SAPE  C31810685   1.364   1.502   4.332  0.8274 -0.5043 -0.1271
  104SAPE  H18X10686   1.426   1.492   4.240  0.3998  2.2612 -0.8037
  104SAPE  H18Y10687   1.373   1.419   4.405  0.3322 -2.2474 -1.9420
  104SAPE  H18Z10688   1.399   1.600   4.371 -0.3022 -0.7006  1.4814
  105SAPE     N10689   3.903   6.247   1.876 -0.0015 -0.2407 -0.0690
  105SAPE   HN110690   3.905   6.155   1.826 -0.5450 -0.2096 -0.1510
  105SAPE   HN210691   3.808   6.261   1.916 -0.3558  0.1468 -1.0074
  105SAPE   HN310692   3.920   6.323   1.807  0.4627  0.2099  0.5398
  105SAPE   C1210693   4.018   6.234   1.967 -0.9776  0.5808  0.1456
  105SAPE  H12A10694   4.046   6.334   2.007 -3.3095  2.3572 -2.3592
  105SAPE  H12B10695   4.107   6.201   1.909 -0.5121  2.7358 -0.4679
  105SAPE   C1110696   3.985   6.130   2.074 -0.1587 -0.0211 -0.3839
  105SAPE  H11A10697   3.920   6.187   2.144 -3.3946  1.7609 -4.3893
  105SAPE  H11B10698   4.078   6.097   2.124  0.0361  1.4246  0.2740
  105SAPE     P10699   3.985   5.872   1.995 -0.2776 -0.0377  0.3116
  105SAPE   O1310700   3.880   5.772   1.971  0.6381 -0.8261 -0.0738
  105SAPE   O1410701   4.074   5.893   1.875  0.1464 -0.0526 -0.6497
  105SAPE   O1210702   3.913   6.015   2.034 -0.8077  0.5651  0.2050
  105SAPE   O1110703   4.069   5.824   2.117 -0.4033  0.1621  0.6920
  105SAPE    C110704   4.034   5.731   2.219 -0.0414 -0.2110  0.0187
  105SAPE    HA10705   3.993   5.642   2.168 -2.0022 -0.4176  1.8219
  105SAPE    HB10706   4.123   5.700   2.277  1.8040  1.5259 -1.7447
  105SAPE    C210707   3.914   5.792   2.307  0.0129 -0.1185  0.4667
  105SAPE    HS10708   3.836   5.827   2.236 -0.6346 -0.9988  0.7130
  105SAPE   O2110709   3.980   5.895   2.389 -0.3800 -0.2213  0.6344
  105SAPE   C2110710   3.906   6.000   2.420 -0.8463  0.5404 -0.0004
  105SAPE   O2210711   3.799   6.025   2.372 -0.0380 -0.6938 -0.3071
  105SAPE   C2210712   3.986   6.108   2.499 -0.7347  0.2526  0.1449
  105SAPE   H2R10713   4.083   6.117   2.445 -0.8587 -1.6256 -0.4729
  105SAPE   H2S10714   3.945   6.210   2.484  0.8523  0.9527  0.3814
  105SAPE    C310715   3.855   5.684   2.394  0.8404  0.6036  0.7854
  105SAPE    HX10716   3.929   5.620   2.447 -0.0689 -0.7880  0.4090
  105SAPE    HY10717   3.810   5.610   2.325 -0.6448  0.6713  1.6517
  105SAPE   O3110718   3.765   5.733   2.500 -0.2547  0.3447 -0.2906
  105SAPE   C3110719   3.649   5.790   2.457 -0.0565 -0.7202 -0.3726
  105SAPE   O3210720   3.616   5.792   2.342 -1.0718 -0.1321  0.4416
  105SAPE   C3210721   3.581   5.866   2.567 -0.1894 -0.1184 -0.4368
  105SAPE   H2X10722   3.471   5.851   2.566 -0.1926 -0.1721  0.0778
  105SAPE   H2Y10723   3.601   5.973   2.547 -2.1243  0.3691 -0.0123
  105SAPE   C2310724   4.001   6.069   2.642  0.0866 -0.4152 -0.5138
  105SAPE   H3R10725   4.044   5.966   2.648 -0.8321 -0.8708 -1.3616
  105SAPE   H3S10726   3.900   6.065   2.686  0.2262 -3.0723 -0.2392
  105SAPE   C2410727   4.087   6.164   2.723 -1.1785 -0.2769 -0.5874
  105SAPE   H4R10728   4.070   6.133   2.829  0.2153  0.3069 -0.1704
  105SAPE   H4S10729   4.048   6.266   2.704 -3.2439 -1.3156 -2.3988
  105SAPE   C2510730   4.240   6.165   2.696 -0.2050 -0.0905 -0.5175
  105SAPE   H5R10731   4.277   6.228   2.613  0.1638 -2.1557 -1.9760
  105SAPE   C2610732   4.334   6.103   2.768  0.0881 -0.2707  0.3015
  105SAPE   H6R10733   4.439   6.114   2.737 -0.1676 -0.2336 -0.5693
  105SAPE   C2710734   4.314   6.004   2.884  0.4251 -0.1945  0.0631
  105SAPE   H7R10735   4.356   5.913   2.836  4.2200  1.1934  0.3963
  105SAPE   H7S10736   4.208   5.981   2.906  0.6867  0.4119  2.1446
  105SAPE   C2810737   4.392   6.025   3.011 -0.1786 -0.0387 -0.0562
  105SAPE   H8R10738   4.496   5.990   2.996 -0.5675 -0.9482 -0.7083
  105SAPE   C2910739   4.349   6.093   3.120  0.5223  0.2086  0.5216
  105SAPE   H9R10740   4.409   6.092   3.211  3.5951 -0.3595 -1.3627
  105SAPE  C21010741   4.220   6.168   3.133 -0.3333 -0.3787 -0.0332
  105SAPE  H10R10742   4.169   6.122   3.220  0.9074 -0.5137  0.6565
  105SAPE  H10S10743   4.165   6.153   3.038  2.7688 -0.5641 -1.9684
  105SAPE  C21110744   4.254   6.306   3.161  0.0468 -0.0088 -0.0194
  105SAPE  H11R10745   4.294   6.365   3.077 -1.0115 -1.6274 -1.7485
  105SAPE  C21210746   4.237   6.358   3.288  0.1816  0.0595 -0.7418
  105SAPE  H12R10747   4.270   6.462   3.306 -1.2046  0.4785 -0.5621
  105SAPE  C21310748   4.185   6.293   3.419 -0.4439 -0.2089 -0.2625
  105SAPE  H13R10749   4.187   6.182   3.419 -2.3375 -0.2923  1.2254
  105SAPE  H13S10750   4.078   6.313   3.440 -0.6894 -0.0632 -1.5339
  105SAPE  C21410751   4.264   6.343   3.534  0.5667  0.1014  0.2206
  105SAPE  H14R10752   4.338   6.269   3.568  0.3454  0.3001  1.1713
  105SAPE  C21510753   4.249   6.463   3.597  0.0888 -0.6740 -0.0817
  105SAPE  H15R10754   4.305   6.483   3.690 -0.4599  0.3019  0.0558
  105SAPE  C21610755   4.148   6.568   3.549 -0.1915 -0.6596 -0.3538
  105SAPE  H16R10756   4.112   6.528   3.452  0.9541 -0.9100 -0.6905
  105SAPE  H16S10757   4.198   6.664   3.524 -2.4219  0.0085 -2.7464
  105SAPE  C21710758   4.035   6.590   3.647  0.0070  0.0419  0.3438
  105SAPE  H17R10759   3.981   6.499   3.679 -0.4194  0.3806  0.5978
  105SAPE  H17S10760   3.956   6.647   3.594 -1.4644 -1.6979  0.5722
  105SAPE  C21810761   4.078   6.684   3.766  0.2689 -0.1016  0.3729
  105SAPE  H18R10762   4.095   6.786   3.725 -1.3669 -0.3629 -1.1255
  105SAPE  H18S10763   4.167   6.639   3.814  1.4132  1.1765 -0.4692
  105SAPE  C21910764   3.981   6.692   3.883  0.0786  0.2351 -0.3893
  105SAPE  H19R10765   4.026   6.760   3.958  0.5982  1.5980 -1.8835
  105SAPE  H19S10766   3.975   6.596   3.939 -0.2816  0.3697 -0.1954
  105SAPE  C22010767   3.841   6.728   3.834 -0.0485  0.1659  0.4012
  105SAPE  H20R10768   3.804   6.643   3.774  0.2440  2.0324 -2.6074
  105SAPE  H20S10769   3.838   6.813   3.762 -2.2853 -0.7834 -0.7233
  105SAPE  H20T10770   3.771   6.751   3.918  0.3010 -1.2734  1.1080
  105SAPE   C3310771   3.639   5.838   2.699 -0.1086  0.5704 -0.4423
  105SAPE   H3X10772   3.745   5.870   2.706 -0.1608  0.5195  0.7785
  105SAPE   H3Y10773   3.639   5.728   2.715 -0.5670  0.8907  2.2101
  105SAPE   C3410774   3.572   5.924   2.806 -0.1467 -0.4549 -0.4710
  105SAPE   H4X10775   3.470   5.890   2.833  0.6180 -2.6521 -0.1639
  105SAPE   H4Y10776   3.560   6.032   2.783 -0.1295 -0.8730 -2.6284
  105SAPE   C3510777   3.657   5.932   2.939  0.4471  0.3202  0.2138
  105SAPE   H5X10778   3.762   5.946   2.903  0.5678  0.8959  0.7787
  105SAPE   H5Y10779   3.646   5.832   2.986 -0.0129  0.7713  1.0912
  105SAPE   C3610780   3.618   6.044   3.036  0.2458  1.1077  0.3187
  105SAPE   H6X10781   3.521   6.022   3.086  0.3418  0.4790  0.2329
  105SAPE   H6Y10782   3.605   6.136   2.975  0.4566 -0.6372 -2.5116
  105SAPE   C3710783   3.730   6.073   3.142 -0.6302  0.4200  0.4052
  105SAPE   H7X10784   3.817   6.122   3.095 -0.6274  0.8435  0.8370
  105SAPE   H7Y10785   3.770   5.980   3.189 -1.8825  0.2237  1.1357
  105SAPE   C3810786   3.678   6.150   3.259  0.3385  0.2372 -0.7665
  105SAPE   H8X10787   3.610   6.084   3.317  1.4173  0.5963  0.9820
  105SAPE   H8Y10788   3.612   6.232   3.224  0.2462  0.4566 -0.0821
  105SAPE   C3910789   3.789   6.204   3.348 -0.2204  0.1508  0.6197
  105SAPE   H9X10790   3.868   6.257   3.291  1.7254 -0.1596  2.8292
  105SAPE   H9Y10791   3.834   6.125   3.414  3.7780  0.8422 -1.0090
  105SAPE  C31010792   3.742   6.315   3.445  0.4217  0.1462 -0.1845
  105SAPE  H10X10793   3.725   6.412   3.395 -1.3770  1.2088  2.2984
  105SAPE  H10Y10794   3.822   6.325   3.521 -1.1715 -2.6681  2.0690
  105SAPE  C31110795   3.607   6.300   3.525 -0.6295 -0.2216  0.3578
  105SAPE  H11X10796   3.515   6.279   3.465 -0.0680 -0.1680 -0.5417
  105SAPE  H11Y10797   3.603   6.389   3.592  1.1798 -1.3550  2.0765
  105SAPE  C31210798   3.625   6.196   3.635  0.2353 -0.3654 -0.1868
  105SAPE  H12X10799   3.694   6.226   3.716 -2.2518 -3.6433  3.5290
  105SAPE  H12Y10800   3.666   6.103   3.590  0.3603 -0.7658  0.7340
  105SAPE  C31310801   3.498   6.169   3.717  0.3348 -0.5534 -0.2846
  105SAPE  H13X10802   3.420   6.138   3.644  1.4944  0.5994 -2.0876
  105SAPE  H13Y10803   3.462   6.266   3.756 -1.1555 -0.8838 -0.7607
  105SAPE  C31410804   3.532   6.070   3.832 -0.2200 -0.1984  0.0869
  105SAPE  H14X10805   3.594   5.989   3.788  0.4945  1.1872 -1.6315
  105SAPE  H14Y10806   3.437   6.023   3.863 -0.8721 -0.9382 -2.7574
  105SAPE  C31510807   3.612   6.138   3.943 -0.3136  0.6301  0.2690
  105SAPE  H15X10808   3.582   6.240   3.976  0.9238  0.2558  2.7314
  105SAPE  H15Y10809   3.717   6.149   3.909 -0.1022  0.3677  0.8364
  105SAPE  C31610810   3.621   6.059   4.074  0.0788  1.0589  0.4871
  105SAPE  H16X10811   3.638   5.949   4.075 -0.0819  1.0068 -0.6648
  105SAPE  H16Y10812   3.515   6.075   4.105 -0.3926  0.4589 -0.7371
  105SAPE  C31710813   3.707   6.128   4.184 -0.1879  0.3824  0.1699
  105SAPE  H17X10814   3.652   6.218   4.218 -2.3088 -1.0790  0.8128
  105SAPE  H17Y10815   3.810   6.142   4.146 -0.0481 -0.9638 -0.0187
  105SAPE  C31810816   3.715   6.033   4.310  0.1125  0.3878  0.8660
  105SAPE  H18X10817   3.612   6.033   4.352 -0.3739 -3.1677 -0.0333
  105SAPE  H18Y10818   3.790   6.075   4.380  0.7069 -1.5267  1.4431
  105SAPE  H18Z10819   3.752   5.933   4.279 -0.5247 -0.1334  1.7571
  106SAPE     N10820   6.259   1.373   1.588 -0.4227  0.2968  0.0697
  106SAPE   HN110821   6.174   1.366   1.648  0.2828  0.2263  1.0821
  106SAPE   HN210822   6.224   1.417   1.500 -1.1873  0.1207  0.2783
  106SAPE   HN310823   6.290   1.276   1.563 -1.3984  0.5701 -2.5977
  106SAPE   C1210824   6.360   1.452   1.668 -0.3424  0.3741 -0.0085
  106SAPE  H12A10825   6.332   1.560   1.666  0.4805  0.6003  0.4310
  106SAPE  H12B10826   6.457   1.439   1.616 -0.3420 -0.9290  0.2882
  106SAPE   C1110827   6.383   1.394   1.812  0.3213 -0.4407  0.2903
  106SAPE  H11A10828   6.479   1.429   1.856  1.8565 -4.3058  0.4536
  106SAPE  H11B10829   6.404   1.285   1.816  1.2806 -0.3070 -0.5172
  106SAPE     P10830   6.163   1.333   1.935  0.0710  0.5809  0.0329
  106SAPE   O1310831   6.066   1.398   2.019  0.0325 -0.0509 -0.2765
  106SAPE   O1410832   6.122   1.268   1.808 -0.3088 -1.1020 -0.5323
  106SAPE   O1210833   6.283   1.434   1.901 -0.0294  0.2745  0.3145
  106SAPE   O1110834   6.246   1.228   2.030  0.0832 -0.1546  0.0355
  106SAPE    C110835   6.325   1.260   2.145  0.8543  0.4738 -0.3792
  106SAPE    HA10836   6.397   1.177   2.159  2.3085  2.0108  1.9424
  106SAPE    HB10837   6.378   1.355   2.127  0.1210  0.9978  0.1588
  106SAPE    C210838   6.234   1.269   2.270  0.2063  0.1664  0.5999
  106SAPE    HS10839   6.181   1.367   2.268  2.3543  1.4217 -3.1597
  106SAPE   O2110840   6.319   1.264   2.387 -0.0511  0.1535 -0.5248
  106SAPE   C2110841   6.400   1.373   2.404  0.5934  0.6922  0.2519
  106SAPE   O2210842   6.403   1.467   2.327 -0.2330 -0.4963 -0.1197
  106SAPE   C2210843   6.477   1.352   2.529  0.1119 -0.3184 -0.6215
  106SAPE   H2R10844   6.401   1.337   2.608  1.5040 -0.3209  0.7632
  106SAPE   H2S10845   6.538   1.259   2.530  0.4236 -0.1232 -0.8387
  106SAPE    C310846   6.132   1.157   2.283  1.5062  0.1564  0.1376
  106SAPE    HX10847   6.183   1.059   2.268  1.8339  0.5996 -1.9988
  106SAPE    HY10848   6.059   1.168   2.200 -0.1937  1.3939  1.7291
  106SAPE   O3110849   6.057   1.179   2.407 -0.2579  0.3542  0.2801
  106SAPE   C3110850   6.013   1.072   2.470  1.3700  0.0893  0.2991
  106SAPE   O3210851   6.045   0.958   2.444 -0.4286 -0.0718 -0.2890
  106SAPE   C3210852   5.938   1.132   2.587  0.2104  0.5632 -0.7687
  106SAPE   H2X10853   5.833   1.132   2.550  0.3845 -2.2204 -1.4537
  106SAPE   H2Y10854   5.959   1.240   2.601 -0.3940  0.8853 -2.1714
  106SAPE   C2310855   6.561   1.479   2.556  0.3816  0.0510  0.2659
  106SAPE   H3R10856   6.517   1.570   2.511  0.0927  0.1583  0.7515
  106SAPE   H3S10857   6.655   1.467   2.498 -0.1420 -0.0423 -0.5745
  106SAPE   C2410858   6.595   1.486   2.707 -0.2684 -0.2150  0.5177
  106SAPE   H4R10859   6.628   1.382   2.726 -2.5568 -1.4161 -1.6123
  106SAPE   H4S10860   6.499   1.509   2.757 -0.7493  2.2513 -1.3471
  106SAPE   C2510861   6.706   1.583   2.751  0.2289  0.7767 -0.6653
  106SAPE   H5R10862   6.809   1.553   2.728  0.7964  1.7288  0.5214
  106SAPE   C2610863   6.677   1.688   2.832 -0.2477  0.0467  0.5074
  106SAPE   H6R10864   6.764   1.748   2.863  0.8491 -2.0155  1.6100
  106SAPE   C2710865   6.544   1.726   2.896  0.1347 -0.2209  0.2335
  106SAPE   H7R10866   6.458   1.724   2.826  0.0926  3.4981  0.0313
  106SAPE   H7S10867   6.543   1.834   2.922  0.8700  0.0893 -0.9547
  106SAPE   C2810868   6.506   1.632   3.008 -0.2386 -1.0104 -0.8301
  106SAPE   H8R10869   6.463   1.534   2.985  3.8437 -3.3986  0.6597
  106SAPE   C2910870   6.529   1.651   3.138  0.3252  0.0768 -0.5498
  106SAPE   H9R10871   6.485   1.573   3.202 -1.4192 -0.2155 -2.0405
  106SAPE  C21010872   6.597   1.769   3.205 -0.5774 -0.7852 -0.5126
  106SAPE  H10R10873   6.527   1.811   3.280  2.1626  0.5278  1.5109
  106SAPE  H10S10874   6.629   1.855   3.142 -1.3940  0.6627  0.9909
  106SAPE  C21110875   6.713   1.707   3.282  0.9888 -0.3012  0.4448
  106SAPE  H11R10876   6.785   1.660   3.213 -1.8269 -1.8495 -1.6537
  106SAPE  C21210877   6.736   1.727   3.410 -0.7582  0.2290  0.2118
  106SAPE  H12R10878   6.817   1.673   3.460 -1.0630  0.4729  0.9845
  106SAPE  C21310879   6.640   1.797   3.506 -0.3989 -0.1627 -0.6678
  106SAPE  H13R10880   6.584   1.878   3.455  1.1119  0.4473 -1.4353
  106SAPE  H13S10881   6.703   1.854   3.578  0.3230 -0.5054 -1.0198
  106SAPE  C21410882   6.545   1.707   3.576  0.4293 -0.7576 -0.0692
  106SAPE  H14R10883   6.505   1.636   3.502 -1.2689  0.3279 -0.2568
  106SAPE  C21510884   6.500   1.693   3.708 -0.1140 -0.1127  0.4615
  106SAPE  H15R10885   6.421   1.620   3.731  0.1931 -1.0524 -1.2647
  106SAPE  C21610886   6.548   1.785   3.817  0.2860  0.8238  0.1075
  106SAPE  H16R10887   6.567   1.888   3.780  0.1380  0.7698 -0.1198
  106SAPE  H16S10888   6.643   1.751   3.864 -0.3472 -0.5146  0.4820
  106SAPE  C21710889   6.447   1.803   3.931 -0.2053 -0.3127 -0.2995
  106SAPE  H17R10890   6.427   1.706   3.981  2.4749 -1.0561 -0.4724
  106SAPE  H17S10891   6.350   1.837   3.890 -0.3746 -0.6044 -0.1399
  106SAPE  C21810892   6.500   1.897   4.036  0.1162 -0.4149 -0.7903
  106SAPE  H18R10893   6.511   1.990   3.976  0.0694 -0.9398 -1.6241
  106SAPE  H18S10894   6.601   1.873   4.076  0.5758  0.1193 -1.6043
  106SAPE  C21910895   6.404   1.906   4.154 -0.2683  0.5307 -0.0753
  106SAPE  H19R10896   6.407   1.817   4.221  1.4199  1.2937  0.9418
  106SAPE  H19S10897   6.309   1.917   4.098  1.2286  1.1755 -2.6893
  106SAPE  C22010898   6.424   2.034   4.236 -0.3811 -0.1958 -0.2271
  106SAPE  H20R10899   6.421   2.118   4.164 -0.2899  0.1310  0.1425
  106SAPE  H20S10900   6.521   2.038   4.292 -0.4337  1.1636 -0.1821
  106SAPE  H20T10901   6.336   2.038   4.303 -0.7081 -1.6349 -0.5475
  106SAPE   C3310902   5.934   1.043   2.711  0.2709 -0.4168 -0.1204
  106SAPE   H3X10903   6.040   1.015   2.728  0.2047 -0.7490 -0.2574
  106SAPE   H3Y10904   5.879   0.950   2.688  0.5639 -0.3169 -1.2970
  106SAPE   C3410905   5.881   1.110   2.846  0.2161 -0.4231  0.5260
  106SAPE   H4X10906   5.771   1.119   2.829  0.1861  2.9969  1.7722
  106SAPE   H4Y10907   5.907   1.217   2.860  3.7718 -1.1991  0.8401
  106SAPE   C3510908   5.912   1.021   2.961 -1.3886  0.1902 -0.2323
  106SAPE   H5X10909   5.879   0.916   2.942  0.1222 -0.7281  1.7756
  106SAPE   H5Y10910   5.860   1.049   3.054  0.9682 -1.1484  1.5991
  106SAPE   C3610911   6.064   1.031   2.994  0.0900 -0.0041 -0.1080
  106SAPE   H6X10912   6.104   1.132   2.970 -1.6634  1.7463  3.5344
  106SAPE   H6Y10913   6.118   0.954   2.935  0.2487 -1.0733  1.4116
  106SAPE   C3710914   6.086   1.002   3.144 -0.8078 -0.0099  0.1409
  106SAPE   H7X10915   6.194   0.981   3.160 -0.4448  0.8549 -0.9641
  106SAPE   H7Y10916   6.022   0.919   3.180  0.1876 -0.3631  1.1386
  106SAPE   C3810917   6.056   1.122   3.229  0.1725  0.5604  0.2481
  106SAPE   H8X10918   5.965   1.164   3.183 -0.8111 -2.8602 -1.2519
  106SAPE   H8Y10919   6.139   1.195   3.217  0.3026  0.6231  1.4097
  106SAPE   C3910920   6.037   1.083   3.376  0.5819 -0.5805 -0.0383
  106SAPE   H9X10921   6.102   0.999   3.410  2.2877  0.3346 -0.9655
  106SAPE   H9Y10922   5.926   1.068   3.379  0.1372  2.1123 -0.7770
  106SAPE  C31010923   6.064   1.202   3.464 -0.1688  0.1925  0.5387
  106SAPE  H10X10924   6.030   1.296   3.416  3.1756  1.9797  1.3995
  106SAPE  H10Y10925   6.174   1.208   3.477 -0.2562  0.8114  1.0929
  106SAPE  C31110926   5.995   1.190   3.596  0.2375  0.4024 -0.8663
  106SAPE  H11X10927   5.890   1.226   3.590 -0.0357 -0.1237  0.4701
  106SAPE  H11Y10928   6.057   1.262   3.654  2.4960 -0.2859 -2.2868
  106SAPE  C31210929   6.008   1.053   3.672 -0.1115 -0.1323 -0.6430
  106SAPE  H12X10930   6.115   1.021   3.668 -0.6147 -2.0357  0.0726
  106SAPE  H12Y10931   5.950   0.976   3.617  0.5532 -0.3636 -1.0327
  106SAPE  C31310932   5.948   1.061   3.810 -0.2090 -0.0472  0.1388
  106SAPE  H13X10933   5.843   1.094   3.796 -0.1776 -0.4405 -1.1995
  106SAPE  H13Y10934   6.005   1.129   3.877  0.2066  0.4891 -0.7378
  106SAPE  C31410935   5.949   0.924   3.883  0.6337  0.2042  0.2487
  106SAPE  H14X10936   6.057   0.899   3.894  1.1995  1.9553 -0.8990
  106SAPE  H14Y10937   5.897   0.851   3.817 -0.7803  1.9269 -0.6057
  106SAPE  C31510938   5.866   0.952   4.006 -0.4982  0.4301 -0.9011
  106SAPE  H15X10939   5.760   0.975   3.983 -0.3708  0.4103 -1.5478
  106SAPE  H15Y10940   5.899   1.049   4.048 -0.9541  0.3120 -0.2585
  106SAPE  C31610941   5.897   0.841   4.110 -0.6366 -0.5570 -0.6830
  106SAPE  H16X10942   6.004   0.826   4.132 -0.0713  2.9117 -0.5373
  106SAPE  H16Y10943   5.858   0.741   4.081 -0.4123 -2.0580  3.5470
  106SAPE  C31710944   5.827   0.874   4.242  0.1262  0.1994 -0.0787
  106SAPE  H17X10945   5.724   0.912   4.225  0.3999  1.5104  1.0391
  106SAPE  H17Y10946   5.882   0.958   4.291 -0.5128  0.0055  1.0095
  106SAPE  C31810947   5.824   0.760   4.348  0.2698  0.6066 -0.5442
  106SAPE  H18X10948   5.746   0.687   4.317  0.8776  0.0286 -0.7360
  106SAPE  H18Y10949   5.791   0.794   4.449 -0.8120 -1.5057 -0.1441
  106SAPE  H18Z10950   5.921   0.707   4.341 -0.4874 -1.0805  0.9911
  107SAPE     N10951   2.178   6.110   2.008  0.1994  0.0671  0.5734
  107SAPE   HN110952   2.280   6.094   2.003  0.7359  2.8701  1.3353
  107SAPE   HN210953   2.148   6.125   1.910 -0.7752  0.6064  0.9428
  107SAPE   HN310954   2.161   6.201   2.055  0.1469  1.4186 -1.9281
  107SAPE   C1210955   2.122   5.993   2.086 -0.8837  0.0667  0.0442
  107SAPE  H12A10956   2.128   5.911   2.012 -1.3636  0.9719 -1.0352
  107SAPE  H12B10957   2.016   6.020   2.107 -0.4312  0.7534  1.6457
  107SAPE   C1110958   2.209   5.958   2.203  0.1200  0.2152  0.1797
  107SAPE  H11A10959   2.154   5.888   2.269  2.4607 -1.4365  0.4866
  107SAPE  H11B10960   2.229   6.043   2.272  1.3693 -0.8233  1.1436
  107SAPE     P10961   2.466   5.975   2.167 -0.0792 -0.4778 -0.0487
  107SAPE   O1310962   2.579   5.879   2.156  0.0913 -0.5129 -0.5678
  107SAPE   O1410963   2.467   6.082   2.068 -0.2986 -0.9389 -0.3555
  107SAPE   O1210964   2.332   5.897   2.162  0.3527  0.4327  0.3360
  107SAPE   O1110965   2.465   6.029   2.311 -0.4547 -0.1890  0.1551
  107SAPE    C110966   2.537   5.962   2.414  0.6594 -0.1143  0.1456
  107SAPE    HA10967   2.508   5.855   2.417  0.9064 -0.2244 -0.9014
  107SAPE    HB10968   2.646   5.966   2.394  0.5148  3.1655 -0.5972
  107SAPE    C210969   2.500   6.029   2.551 -0.0312  0.0504 -0.1023
  107SAPE    HS10970   2.527   6.137   2.543 -0.5725  0.0944 -1.8061
  107SAPE   O2110971   2.559   5.951   2.655 -0.3268 -0.5396  0.1386
  107SAPE   C2110972   2.689   5.974   2.677  0.6552  0.0213 -0.8289
  107SAPE   O2210973   2.756   6.062   2.630 -0.0515 -0.2517  0.3394
  107SAPE   C2210974   2.746   5.886   2.784  0.4412  0.8798 -1.2195
  107SAPE   H2R10975   2.671   5.806   2.801 -2.5195  3.7921  0.4747
  107SAPE   H2S10976   2.837   5.843   2.737  0.1419  1.6449 -2.5518
  107SAPE    C310977   2.345   6.037   2.552 -0.1833  0.3635  0.0821
  107SAPE    HX10978   2.307   5.949   2.497  0.8786 -1.6665  2.4163
  107SAPE    HY10979   2.325   6.130   2.494 -0.6918  2.2356  3.0501
  107SAPE   O3110980   2.289   6.050   2.682 -0.1918 -0.1649 -0.1037
  107SAPE   C3110981   2.266   5.939   2.750  0.0164 -1.0653  0.9838
  107SAPE   O3210982   2.280   5.823   2.707 -0.3031  0.0560  0.3429
  107SAPE   C3210983   2.223   5.969   2.889 -0.4388  0.0115  0.0223
  107SAPE   H2X10984   2.221   5.878   2.952 -2.9115  0.8326  1.2583
  107SAPE   H2Y10985   2.120   6.010   2.887 -0.6651 -0.4797 -2.6667
  107SAPE   C2310986   2.768   5.969   2.915  0.4217  0.4598 -0.0479
  107SAPE   H3R10987   2.670   6.014   2.944  0.1260 -0.4400  0.3881
  107SAPE   H3S10988   2.843   6.050   2.902  1.6819 -0.6829 -0.1019
  107SAPE   C2410989   2.814   5.879   3.037 -0.5492 -0.7405  0.9013
  107SAPE   H4R10990   2.844   5.939   3.126  1.8464 -2.1352  1.1106
  107SAPE   H4S10991   2.910   5.837   2.999  0.3244  0.8654  1.2349
  107SAPE   C2510992   2.716   5.774   3.077 -0.3837 -0.0007  0.2878
  107SAPE   H5R10993   2.686   5.714   2.990  2.3154  0.0806 -0.7815
  107SAPE   C2610994   2.677   5.741   3.198  0.2867  0.2024  0.4629
  107SAPE   H6R10995   2.598   5.665   3.198  1.0714 -0.6545  1.6427
  107SAPE   C2710996   2.702   5.812   3.328  0.1612 -0.1994 -0.1115
  107SAPE   H7R10997   2.773   5.897   3.321  1.2019 -0.7669  2.3883
  107SAPE   H7S10998   2.765   5.743   3.389  1.3024  0.5760 -0.3932
  107SAPE   C2810999   2.573   5.852   3.395  0.0413  0.2819 -0.2408
  107SAPE   H8R11000   2.487   5.857   3.327  1.5720 -0.4424 -2.3400
  107SAPE   C2911001   2.558   5.878   3.531  0.0900  0.2700  0.2617
  107SAPE   H9R11002   2.460   5.915   3.565 -0.0206  0.5652 -0.3778
  107SAPE  C21011003   2.680   5.876   3.629  0.8172 -0.0058 -0.3428
  107SAPE  H10R11004   2.646   5.930   3.720 -0.7071 -2.5735  0.7278
  107SAPE  H10S11005   2.776   5.919   3.593  0.6288  2.6067  1.9397
  107SAPE  C21111006   2.712   5.738   3.678 -0.1754 -0.3853 -0.0987
  107SAPE  H11R11007   2.777   5.686   3.606 -1.6285  0.5368 -2.1878
  107SAPE  C21211008   2.674   5.667   3.786  0.8417  0.4343 -0.1855
  107SAPE  H12R11009   2.706   5.562   3.797 -1.5055 -0.4176 -0.7945
  107SAPE  C21311010   2.586   5.715   3.899  0.3731  0.6369 -0.0627
  107SAPE  H13R11011   2.514   5.634   3.925  0.4646  0.2824 -0.8894
  107SAPE  H13S11012   2.517   5.790   3.855  0.0721  0.5109  0.1819
  107SAPE  C21411013   2.672   5.760   4.018 -0.1203  0.5633 -0.1875
  107SAPE  H14R11014   2.780   5.742   4.026 -0.3418 -1.3167 -0.8669
  107SAPE  C21511015   2.609   5.824   4.120 -0.1201 -0.6542  0.4053
  107SAPE  H15R11016   2.667   5.854   4.209 -0.5305 -0.8528  0.7444
  107SAPE  C21611017   2.464   5.853   4.130  0.9378  0.0055  0.4082
  107SAPE  H16R11018   2.407   5.782   4.067  2.5033 -0.0947 -0.9615
  107SAPE  H16S11019   2.454   5.951   4.080  2.6451 -0.0348 -0.1076
  107SAPE  C21711020   2.409   5.865   4.272  0.0475 -0.3174  0.3791
  107SAPE  H17R11021   2.315   5.923   4.263 -0.0149 -0.7212 -3.0187
  107SAPE  H17S11022   2.481   5.929   4.328  1.3255 -0.1981 -1.3007
  107SAPE  C21811023   2.400   5.731   4.337 -0.0332  0.1328 -0.4094
  107SAPE  H18R11024   2.499   5.681   4.342 -0.0942 -0.0280 -0.7361
  107SAPE  H18S11025   2.334   5.667   4.274  0.3729  0.3534 -1.0762
  107SAPE  C21911026   2.336   5.736   4.472  0.7891  0.2576  0.9845
  107SAPE  H19R11027   2.372   5.825   4.529 -2.0723  1.9147  0.4171
  107SAPE  H19S11028   2.351   5.645   4.533  0.0007 -1.6934 -1.5408
  107SAPE  C22011029   2.187   5.784   4.475 -0.2948  0.5654 -0.5439
  107SAPE  H20R11030   2.119   5.703   4.440 -0.3997  0.7919 -0.8800
  107SAPE  H20S11031   2.173   5.862   4.397 -0.0324  0.7455 -0.4140
  107SAPE  H20T11032   2.150   5.817   4.574  0.1837  1.6512 -0.7170
  107SAPE   C3311033   2.322   6.055   2.962 -0.3405 -0.0159 -0.7445
  107SAPE   H3X11034   2.335   6.156   2.919  1.1021  0.9850  1.8380
  107SAPE   H3Y11035   2.423   6.009   2.968  0.1555  1.0557 -0.7703
  107SAPE   C3411036   2.272   6.090   3.104 -0.0028  0.1811 -1.2760
  107SAPE   H4X11037   2.305   6.003   3.165 -0.9008  0.0770 -0.9308
  107SAPE   H4Y11038   2.163   6.103   3.117  0.0594 -0.7952  0.4692
  107SAPE   C3511039   2.350   6.210   3.165 -0.4374 -0.2392 -0.1028
  107SAPE   H5X11040   2.337   6.300   3.101 -2.9401 -1.7208 -1.8022
  107SAPE   H5Y11041   2.459   6.196   3.182  0.3299  2.8147 -1.6721
  107SAPE   C3611042   2.297   6.247   3.308 -0.1747 -0.9816  0.1361
  107SAPE   H6X11043   2.187   6.251   3.297 -0.0546  0.9965 -0.6606
  107SAPE   H6Y11044   2.340   6.347   3.330  2.3333 -1.2870 -2.7810
  107SAPE   C3711045   2.334   6.149   3.416  0.1197  0.0906 -0.8959
  107SAPE   H7X11046   2.444   6.152   3.430 -0.0816 -1.6969  1.7955
  107SAPE   H7Y11047   2.301   6.050   3.379  2.0846 -0.2145 -1.9391
  107SAPE   C3811048   2.260   6.188   3.548 -0.2630 -0.2255  0.7217
  107SAPE   H8X11049   2.153   6.207   3.526 -0.2906 -1.7294 -0.6174
  107SAPE   H8Y11050   2.311   6.284   3.570  1.0182 -0.9974  1.2106
  107SAPE   C3911051   2.282   6.096   3.661 -1.1404 -0.4079  0.2958
  107SAPE   H9X11052   2.391   6.107   3.680 -1.2936  0.4484  0.7092
  107SAPE   H9Y11053   2.246   5.993   3.637  1.0391 -0.9568 -0.9612
  107SAPE  C31011054   2.221   6.157   3.788 -0.9031  1.0850  0.2139
  107SAPE  H10X11055   2.114   6.131   3.800 -0.4424 -0.7879  0.4530
  107SAPE  H10Y11056   2.236   6.267   3.778  1.3782  0.8284  0.2825
  107SAPE  C31111057   2.291   6.113   3.917 -0.1629  0.0903  0.4425
  107SAPE  H11X11058   2.398   6.090   3.899 -0.3405  0.3727 -1.1469
  107SAPE  H11Y11059   2.237   6.022   3.952 -1.3005  0.8686  0.7942
  107SAPE  C31211060   2.260   6.205   4.037  0.0156 -0.2963  0.8862
  107SAPE  H12X11061   2.300   6.161   4.131  0.6874 -1.9043 -0.1118
  107SAPE  H12Y11062   2.151   6.223   4.048  0.1777  1.2686  0.1896
  107SAPE  C31311063   2.331   6.342   4.030  0.4632  0.0247  0.7369
  107SAPE  H13X11064   2.308   6.397   3.936  0.6496  0.3594  0.8848
  107SAPE  H13Y11065   2.441   6.331   4.015  0.3330  1.1730 -1.6053
  107SAPE  C31411066   2.288   6.431   4.144  0.0200  0.2561 -0.1966
  107SAPE  H14X11067   2.341   6.396   4.235 -1.6531  1.0597  1.1153
  107SAPE  H14Y11068   2.181   6.406   4.159  0.7264 -1.2838  3.2701
  107SAPE  C31511069   2.320   6.579   4.122 -0.6011 -0.1639  0.0665
  107SAPE  H15X11070   2.272   6.610   4.027  0.3573  1.1573 -0.0216
  107SAPE  H15Y11071   2.430   6.597   4.122 -0.8526  1.5605 -0.6434
  107SAPE  C31611072   2.282   6.672   4.237 -0.1439  0.0098  0.3297
  107SAPE  H16X11073   2.341   6.637   4.325 -0.0891 -0.3203  0.1632
  107SAPE  H16Y11074   2.172   6.676   4.251 -0.3700  2.9642 -1.4373
  107SAPE  C31711075   2.322   6.814   4.204  0.3095  0.1325 -0.6197
  107SAPE  H17X11076   2.249   6.852   4.130 -0.2821  1.2207  0.4832
  107SAPE  H17Y11077   2.422   6.829   4.157  0.7154 -0.2111  0.1146
  107SAPE  C31811078   2.314   6.904   4.322 -0.4077 -0.1848 -0.6046
  107SAPE  H18X11079   2.389   6.861   4.392  0.0811 -1.6661 -1.9925
  107SAPE  H18Y11080   2.212   6.887   4.362 -0.3642 -0.7164 -0.7222
  107SAPE  H18Z11081   2.329   7.010   4.293 -1.7427  0.3823  0.6036
  108SAPE     N11082   3.768   0.627   2.238 -0.1344  0.3647 -0.0368
  108SAPE   HN111083   3.849   0.564   2.218  0.1160  1.0321 -1.1726
  108SAPE   HN211084   3.764   0.631   2.342 -0.3307  0.3403 -0.0442
  108SAPE   HN311085   3.682   0.579   2.205  1.5705 -1.6600 -1.9117
  108SAPE   C1211086   3.792   0.764   2.189  0.1728 -0.3034  0.0700
  108SAPE  H12A11087   3.849   0.821   2.265 -0.1353  0.0449  0.0393
  108SAPE  H12B11088   3.690   0.805   2.174  1.1533  1.9994 -0.6401
  108SAPE   C1111089   3.865   0.767   2.051  0.1916  0.0381  0.1600
  108SAPE  H11A11090   3.857   0.875   2.026 -0.6162 -0.3057 -1.2138
  108SAPE  H11B11091   3.800   0.698   1.993 -0.2191 -1.9390  2.7749
  108SAPE     P11092   4.134   0.802   2.054  0.4014 -0.2834  0.3266
  108SAPE   O1311093   4.252   0.704   2.067 -0.6559 -0.1244  0.4569
  108SAPE   O1411094   4.130   0.887   1.934  0.4668 -0.1231  0.6410
  108SAPE   O1211095   3.998   0.715   2.059 -0.4311 -0.7257  0.0202
  108SAPE   O1111096   4.122   0.891   2.188 -0.9475 -0.6334  0.1760
  108SAPE    C111097   4.174   0.826   2.307 -0.0600  0.0866 -0.7130
  108SAPE    HA11098   4.126   0.875   2.395  0.3290  0.6198 -0.7862
  108SAPE    HB11099   4.155   0.717   2.317 -0.5917  0.3318  1.4912
  108SAPE    C211100   4.330   0.852   2.326  0.6233 -0.2677 -0.0225
  108SAPE    HS11101   4.368   0.779   2.251 -0.8380 -3.5618  2.2083
  108SAPE   O2111102   4.379   0.811   2.455 -0.2134 -0.3352 -0.2930
  108SAPE   C2111103   4.516   0.815   2.468  0.7003  0.2485  0.3538
  108SAPE   O2211104   4.594   0.827   2.379 -0.4608  0.1958  0.5976
  108SAPE   C2211105   4.545   0.772   2.611  0.5770 -0.0502 -0.3242
  108SAPE   H2R11106   4.454   0.719   2.645 -1.1483  0.5467 -3.5273
  108SAPE   H2S11107   4.618   0.689   2.616  0.2096 -0.2776  2.3954
  108SAPE    C311108   4.366   1.006   2.300 -0.1234  0.1940 -0.1654
  108SAPE    HX11109   4.311   1.036   2.208  0.9781  0.5372 -0.7287
  108SAPE    HY11110   4.473   1.014   2.274  0.6883  0.9135  3.0039
  108SAPE   O3111111   4.323   1.095   2.409 -0.3368  0.1046  0.1891
  108SAPE   C3111112   4.408   1.151   2.485 -0.4079  0.4767 -0.4114
  108SAPE   O3211113   4.529   1.145   2.475 -0.1978 -0.2013  0.1052
  108SAPE   C3211114   4.341   1.219   2.615 -0.0361 -0.4341 -1.1179
  108SAPE   H2X11115   4.303   1.317   2.577  1.3883  0.1601 -1.0737
  108SAPE   H2Y11116   4.427   1.246   2.680  0.4018 -1.3507 -1.3122
  108SAPE   C2311117   4.597   0.888   2.698  0.2293 -0.6054 -0.3086
  108SAPE   H3R11118   4.523   0.970   2.703  1.7033  0.7132  1.4666
  108SAPE   H3S11119   4.684   0.937   2.649 -2.0644  3.5529 -0.7250
  108SAPE   C2411120   4.631   0.823   2.836  0.0739 -0.0726 -0.4926
  108SAPE   H4R11121   4.664   0.911   2.897  1.9762 -0.1802 -1.2859
  108SAPE   H4S11122   4.728   0.772   2.821 -0.1342 -0.4839 -0.4297
  108SAPE   C2511123   4.532   0.738   2.907  0.7918  0.3069  0.4501
  108SAPE   H5R11124   4.524   0.637   2.864  1.4725  0.4133  0.0698
  108SAPE   C2611125   4.448   0.762   3.007 -0.0617 -0.5654 -0.0588
  108SAPE   H6R11126   4.377   0.683   3.035 -0.1401 -1.2402 -2.0294
  108SAPE   C2711127   4.441   0.895   3.083  0.3926  0.4368  0.3027
  108SAPE   H7R11128   4.340   0.902   3.128  0.9081 -1.3878  1.8787
  108SAPE   H7S11129   4.457   0.980   3.014 -0.2090  0.7245  0.5096
  108SAPE   C2811130   4.537   0.909   3.202  0.9435 -0.2733 -0.2781
  108SAPE   H8R11131   4.642   0.920   3.171  1.3084  1.0686  1.2920
  108SAPE   C2911132   4.517   0.927   3.336  1.0463 -0.2474  0.5318
  108SAPE   H9R11133   4.606   0.922   3.400  1.4904 -3.2742 -0.1526
  108SAPE  C21011134   4.385   0.929   3.406  0.6661 -0.2899 -0.0263
  108SAPE  H10R11135   4.306   0.970   3.339 -0.9505  3.9705  4.0002
  108SAPE  H10S11136   4.382   1.002   3.490  0.7505 -0.6240  0.2699
  108SAPE  C21111137   4.350   0.794   3.458 -0.0187 -0.4214 -0.2163
  108SAPE  H11R11138   4.371   0.715   3.385 -0.9366 -0.0388 -0.9156
  108SAPE  C21211139   4.271   0.778   3.568 -0.1325 -0.1052  0.0800
  108SAPE  H12R11140   4.250   0.675   3.601 -1.7677 -0.3400 -1.5030
  108SAPE  C21311141   4.207   0.888   3.647 -0.0942 -0.4213 -0.5634
  108SAPE  H13R11142   4.108   0.905   3.600  0.6032  0.7058 -1.6555
  108SAPE  H13S11143   4.265   0.982   3.649  0.1945 -0.6006  0.4728
  108SAPE  C21411144   4.175   0.856   3.794  0.7314 -0.2930  0.3600
  108SAPE  H14R11145   4.258   0.888   3.859 -0.5266 -0.6037  2.1891
  108SAPE  C21511146   4.060   0.824   3.851 -0.3118  0.0686 -0.5660
  108SAPE  H15R11147   4.063   0.822   3.961 -1.5029  2.1270 -0.4336
  108SAPE  C21611148   3.928   0.788   3.784  0.2550 -0.0715 -0.3772
  108SAPE  H16R11149   3.934   0.713   3.702  3.0321 -0.5180  0.1646
  108SAPE  H16S11150   3.880   0.877   3.737  0.2553  0.6585  0.9564
  108SAPE  C21711151   3.833   0.728   3.893  0.2573 -0.1105 -0.8727
  108SAPE  H17R11152   3.840   0.795   3.982 -0.7398 -2.2083  0.8702
  108SAPE  H17S11153   3.890   0.639   3.927  1.4932  1.2345  0.8265
  108SAPE  C21811154   3.695   0.705   3.842  0.6826 -0.4258 -0.0780
  108SAPE  H18R11155   3.706   0.627   3.764  0.4815 -1.3139  0.7594
  108SAPE  H18S11156   3.659   0.797   3.791  0.2678 -1.1997 -1.2225
  108SAPE  C21911157   3.600   0.657   3.951  0.8410 -0.1481  0.3868
  108SAPE  H19R11158   3.592   0.735   4.030 -2.1116  0.4665 -0.4327
  108SAPE  H19S11159   3.647   0.566   3.994  0.6779 -0.5912 -0.3579
  108SAPE  C22011160   3.457   0.633   3.893 -0.6071  0.4646  0.0419
  108SAPE  H20R11161   3.380   0.593   3.962 -0.0448 -0.9169 -0.1106
  108SAPE  H20S11162   3.464   0.563   3.808 -0.9997  0.1855  0.2363
  108SAPE  H20T11163   3.414   0.726   3.848 -1.5007 -0.9189 -2.1165
  108SAPE   C3311164   4.227   1.136   2.684 -0.2605  0.1007 -0.0990
  108SAPE   H3X11165   4.277   1.046   2.725  1.2073 -0.3904 -2.7485
  108SAPE   H3Y11166   4.150   1.104   2.610 -1.5715  0.2451  1.1543
  108SAPE   C3411167   4.165   1.196   2.810  0.2520 -0.1995 -0.2296
  108SAPE   H4X11168   4.077   1.135   2.842  1.2546 -0.8399  1.4107
  108SAPE   H4Y11169   4.123   1.296   2.785  1.7275  0.2999 -0.8223
  108SAPE   C3511170   4.258   1.218   2.933  0.0691 -0.1749 -0.3162
  108SAPE   H5X11171   4.341   1.144   2.920  0.5782 -0.0807  1.9143
  108SAPE   H5Y11172   4.298   1.320   2.913 -1.3037  0.2413 -1.0585
  108SAPE   C3611173   4.172   1.217   3.062  0.5202 -0.4903 -0.7899
  108SAPE   H6X11174   4.142   1.113   3.087 -0.0486 -0.7676 -2.4949
  108SAPE   H6Y11175   4.082   1.279   3.044 -0.0968 -0.4702  1.9878
  108SAPE   C3711176   4.237   1.285   3.182  0.0484 -0.3690 -0.1370
  108SAPE   H7X11177   4.290   1.371   3.136  0.6633  1.5081  3.6690
  108SAPE   H7Y11178   4.322   1.231   3.228  0.1686  0.1322  0.2424
  108SAPE   C3811179   4.134   1.332   3.295  0.6209 -0.2182  0.3488
  108SAPE   H8X11180   4.040   1.354   3.240  0.0477 -1.3698  0.8278
  108SAPE   H8Y11181   4.178   1.423   3.340  0.4235  0.6398 -1.1365
  108SAPE   C3911182   4.092   1.220   3.397  0.1398  0.0454 -0.0668
  108SAPE   H9X11183   4.182   1.163   3.425  0.0112 -0.2309 -0.2128
  108SAPE   H9Y11184   4.010   1.160   3.352  1.2827 -2.2732  0.8232
  108SAPE  C31011185   4.042   1.303   3.519 -0.4653 -0.0111  0.0184
  108SAPE  H10X11186   3.965   1.374   3.482  0.9240  2.0398  0.8315
  108SAPE  H10Y11187   4.123   1.365   3.565 -1.3141  0.6736  0.6318
  108SAPE  C31111188   3.990   1.208   3.626  0.4111 -0.3396 -0.1613
  108SAPE  H11X11189   4.069   1.134   3.649 -0.5914 -1.6114 -0.7302
  108SAPE  H11Y11190   3.897   1.159   3.590  1.3467 -0.4869 -2.5461
  108SAPE  C31211191   3.956   1.274   3.758 -0.4581 -0.0999 -0.2042
  108SAPE  H12X11192   3.867   1.335   3.731  0.0558  0.9276  0.3504
  108SAPE  H12Y11193   4.026   1.353   3.791 -0.8460 -0.5439  1.7950
  108SAPE  C31311194   3.937   1.172   3.871 -0.5529  0.2791 -1.0551
  108SAPE  H13X11195   4.034   1.119   3.880 -0.6931  0.1430 -0.3136
  108SAPE  H13Y11196   3.855   1.100   3.849 -3.3990  2.5428  1.2704
  108SAPE  C31411197   3.914   1.238   4.011  0.2875  0.3895 -0.4571
  108SAPE  H14X11198   3.955   1.341   4.008  1.9970 -0.2230  0.4329
  108SAPE  H14Y11199   3.970   1.180   4.087 -0.3344  0.1169 -0.2016
  108SAPE  C31511200   3.759   1.249   4.025  0.0028 -0.3247 -0.2584
  108SAPE  H15X11201   3.725   1.144   4.044  0.0529 -0.0751  1.3991
  108SAPE  H15Y11202   3.721   1.268   3.922  0.7289 -0.7968 -0.6226
  108SAPE  C31611203   3.710   1.342   4.131  0.1745 -0.7729 -0.2752
  108SAPE  H16X11204   3.720   1.450   4.106 -2.1631  0.0144  1.7972
  108SAPE  H16Y11205   3.785   1.338   4.213  0.7135  1.6253 -0.5843
  108SAPE  C31711206   3.571   1.311   4.177 -0.1998  0.0838  0.4548
  108SAPE  H17X11207   3.577   1.207   4.217 -0.4225 -0.3072 -0.5014
  108SAPE  H17Y11208   3.504   1.296   4.090  0.7244 -1.6926  0.0138
  108SAPE  C31811209   3.518   1.400   4.292 -0.0307  0.7224 -0.0120
  108SAPE  H18X11210   3.432   1.356   4.347  2.4437  0.8678  4.4345
  108SAPE  H18Y11211   3.502   1.501   4.248  1.1518  0.6906 -0.5612
  108SAPE  H18Z11212   3.592   1.408   4.374 -1.0837  1.9270  0.8542
  109SAPE     N11213   4.736   4.651   2.226 -0.4011  0.2228  0.4083
  109SAPE   HN111214   4.821   4.605   2.188  0.2782  2.9441 -1.6831
  109SAPE   HN211215   4.698   4.588   2.300  0.8489  1.0015  1.7715
  109SAPE   HN311216   4.674   4.650   2.142  1.9759 -1.4358 -1.4585
  109SAPE   C1211217   4.760   4.790   2.262 -0.0979  0.6165 -0.6857
  109SAPE  H12A11218   4.775   4.843   2.165 -1.8249  0.7782 -0.9143
  109SAPE  H12B11219   4.852   4.793   2.323 -0.6624 -2.4310  0.4793
  109SAPE   C1111220   4.629   4.863   2.333 -0.1016  0.3007  1.1929
  109SAPE  H11A11221   4.663   4.966   2.357 -2.5147  1.3604  0.4440
  109SAPE  H11B11222   4.615   4.804   2.426  0.0109 -2.2943 -0.3530
  109SAPE     P11223   4.373   4.846   2.324 -0.1603 -0.2568  0.0064
  109SAPE   O1311224   4.270   4.829   2.222  0.2917 -0.5048  0.0089
  109SAPE   O1411225   4.384   4.732   2.413 -0.1057 -0.1233 -0.2656
  109SAPE   O1211226   4.512   4.865   2.249 -1.0950  0.5230 -0.0070
  109SAPE   O1111227   4.362   4.982   2.409 -0.1589 -0.1128 -0.0112
  109SAPE    C111228   4.263   5.006   2.506 -0.5607 -0.2270  0.4755
  109SAPE    HA11229   4.214   5.100   2.472  0.6646 -0.0413 -0.9145
  109SAPE    HB11230   4.186   4.926   2.506 -1.0878  0.2784  0.7953
  109SAPE    C211231   4.337   5.012   2.642  0.7703 -0.1727  0.0020
  109SAPE    HS11232   4.367   4.909   2.670  0.6931  0.2505  1.7107
  109SAPE   O2111233   4.257   5.070   2.744 -0.0463 -0.9238 -0.2332
  109SAPE   C2111234   4.155   5.001   2.782  0.6202  0.1137 -0.2773
  109SAPE   O2211235   4.127   4.890   2.736  0.8455 -0.0085  0.2645
  109SAPE   C2211236   4.078   5.087   2.880  0.2175 -0.1246  0.0019
  109SAPE   H2R11237   4.125   5.188   2.878 -0.9834  0.4435 -0.1655
  109SAPE   H2S11238   3.978   5.109   2.839 -0.0210  1.2611  1.2291
  109SAPE    C311239   4.471   5.088   2.631 -0.6743  0.0146  0.1207
  109SAPE    HX11240   4.457   5.187   2.583  0.4002 -0.5822 -1.4982
  109SAPE    HY11241   4.535   5.038   2.556 -1.2370 -1.4334  0.5715
  109SAPE   O3111242   4.531   5.099   2.762 -0.2675  0.0741  0.1875
  109SAPE   C3111243   4.656   5.138   2.763  0.0049 -0.0337 -0.3232
  109SAPE   O3211244   4.723   5.147   2.661 -0.0732 -0.3655  0.9569
  109SAPE   C3211245   4.697   5.178   2.908 -0.3280 -0.2550  0.6038
  109SAPE   H2X11246   4.735   5.086   2.957 -0.0419 -1.7860 -2.2689
  109SAPE   H2Y11247   4.609   5.218   2.963 -1.4249  0.7874 -1.7897
  109SAPE   C2311248   4.095   5.049   3.033  0.3747 -0.6062 -0.0932
  109SAPE   H3R11249   4.061   5.131   3.101 -1.3103 -1.0621 -0.3559
  109SAPE   H3S11250   4.205   5.031   3.036  0.4351 -0.4362 -1.0302
  109SAPE   C2411251   4.024   4.916   3.069 -0.0847  0.1153 -0.0503
  109SAPE   H4R11252   4.051   4.906   3.177 -0.4308 -0.4157 -0.0093
  109SAPE   H4S11253   4.070   4.826   3.023  0.2230  0.7654 -1.0374
  109SAPE   C2511254   3.880   4.908   3.039  1.1366 -0.0903 -0.6280
  109SAPE   H5R11255   3.840   4.918   2.937 -1.1639  1.3334  0.3537
  109SAPE   C2611256   3.781   4.885   3.126 -0.1722 -0.5464 -0.0076
  109SAPE   H6R11257   3.677   4.903   3.095 -0.1812 -1.9595 -0.8402
  109SAPE   C2711258   3.798   4.858   3.270  0.6142 -0.1646  0.7709
  109SAPE   H7R11259   3.715   4.903   3.329  0.3349  0.1135  0.1736
  109SAPE   H7S11260   3.881   4.921   3.308 -0.1632  0.3774  1.6118
  109SAPE   C2811261   3.831   4.713   3.293 -0.1022 -0.8387  0.4574
  109SAPE   H8R11262   3.835   4.637   3.213 -1.3453  3.0549 -3.7168
  109SAPE   C2911263   3.857   4.673   3.419  0.5057  0.3659 -0.6314
  109SAPE   H9R11264   3.865   4.565   3.437  1.4887  0.5496  0.1448
  109SAPE  C21011265   3.850   4.758   3.543 -0.1213  0.5733 -0.1468
  109SAPE  H10R11266   3.757   4.820   3.545  0.7145  1.8446  0.6797
  109SAPE  H10S11267   3.921   4.842   3.529 -0.7528  1.0866 -0.3592
  109SAPE  C21111268   3.877   4.690   3.671 -0.9283  0.3415 -0.3962
  109SAPE  H11R11269   3.981   4.669   3.701 -0.4739  1.9700 -0.7687
  109SAPE  C21211270   3.792   4.680   3.773  0.2352  0.4640  0.4723
  109SAPE  H12R11271   3.821   4.633   3.868 -3.0096  1.2972  2.0335
  109SAPE  C21311272   3.649   4.724   3.773  0.0099 -0.2338  0.1501
  109SAPE  H13R11273   3.627   4.808   3.703  1.4144 -0.0043 -0.0460
  109SAPE  H13S11274   3.634   4.773   3.872  1.4228  2.9714 -1.0510
  109SAPE  C21411275   3.552   4.614   3.746  0.1088  0.2671  0.4130
  109SAPE  H14R11276   3.551   4.576   3.643 -1.9998  0.8552  0.1754
  109SAPE  C21511277   3.441   4.591   3.829  0.0550 -0.1224 -0.3953
  109SAPE  H15R11278   3.383   4.501   3.806 -2.7387  1.5660 -0.4121
  109SAPE  C21611279   3.417   4.645   3.965  0.4109 -0.1122 -0.2543
  109SAPE  H16R11280   3.306   4.654   3.967  0.4855  0.7685  0.3366
  109SAPE  H16S11281   3.464   4.746   3.971 -1.2544  0.7115 -0.5750
  109SAPE  C21711282   3.458   4.561   4.089 -0.5160 -0.2837  0.1070
  109SAPE  H17R11283   3.568   4.543   4.089 -0.5431 -0.6719  1.8327
  109SAPE  H17S11284   3.410   4.460   4.090 -0.6573 -0.2422  1.9955
  109SAPE  C21811285   3.425   4.621   4.223 -0.2706 -0.3310 -0.2911
  109SAPE  H18R11286   3.332   4.680   4.212  0.2111  0.2561 -1.3822
  109SAPE  H18S11287   3.504   4.695   4.250 -0.2438  0.1443 -1.5982
  109SAPE  C21911288   3.415   4.517   4.332 -0.0449  0.6273  0.1477
  109SAPE  H19R11289   3.511   4.460   4.328 -1.1445 -1.2066 -2.6759
  109SAPE  H19S11290   3.335   4.445   4.307  1.4360  0.0130 -3.4333
  109SAPE  C22011291   3.404   4.575   4.476 -0.1656 -0.5011  0.3684
  109SAPE  H20R11292   3.433   4.507   4.558 -0.2700  1.3357  2.0187
  109SAPE  H20S11293   3.298   4.599   4.498 -0.4886 -0.9122 -0.6670
  109SAPE  H20T11294   3.457   4.672   4.487  0.5752 -0.6480 -1.4757
  109SAPE   C3311295   4.813   5.284   2.900  0.1981  0.4643  0.0216
  109SAPE   H3X11296   4.783   5.383   2.858 -0.7604  0.4463  0.6468
  109SAPE   H3Y11297   4.893   5.248   2.832  0.1162 -0.6823  0.5062
  109SAPE   C3411298   4.896   5.300   3.034 -0.0880 -0.3700 -0.6135
  109SAPE   H4X11299   4.986   5.366   3.027  1.0577 -1.3558  2.8756
  109SAPE   H4Y11300   4.939   5.199   3.053 -0.1784 -0.8363 -2.6683
  109SAPE   C3511301   4.814   5.344   3.154  0.9455 -0.2732  0.0165
  109SAPE   H5X11302   4.709   5.364   3.124  0.6636 -1.5866  0.0392
  109SAPE   H5Y11303   4.857   5.441   3.185  0.9113  0.2767 -1.5924
  109SAPE   C3611304   4.813   5.240   3.269  0.1709 -0.0079 -0.1997
  109SAPE   H6X11305   4.918   5.226   3.304  0.4431  2.3165  0.0583
  109SAPE   H6Y11306   4.790   5.142   3.222  0.7717  0.2782 -1.1249
  109SAPE   C3711307   4.726   5.281   3.384 -0.2496 -0.7394  0.1809
  109SAPE   H7X11308   4.619   5.289   3.356 -0.5426  0.3383  1.4786
  109SAPE   H7Y11309   4.757   5.385   3.409 -0.8768 -1.2938  3.8423
  109SAPE   C3811310   4.751   5.210   3.516  0.2975 -0.0130  0.1464
  109SAPE   H8X11311   4.719   5.273   3.602 -0.3272  0.9445 -0.7646
  109SAPE   H8Y11312   4.855   5.171   3.523 -0.4952 -2.5311 -0.9798
  109SAPE   C3911313   4.659   5.092   3.528  0.1911  0.2248 -0.5227
  109SAPE   H9X11314   4.661   5.027   3.437 -2.7772 -0.6483 -0.0947
  109SAPE   H9Y11315   4.554   5.128   3.529 -0.2687 -0.9609  2.1886
  109SAPE  C31011316   4.676   5.007   3.658  0.1257 -0.0703  0.6946
  109SAPE  H10X11317   4.781   4.973   3.664  0.3885  0.2280 -1.6301
  109SAPE  H10Y11318   4.607   4.920   3.653  0.7029 -0.7514  3.0706
  109SAPE  C31111319   4.642   5.078   3.793 -1.0597 -0.1652  0.8141
  109SAPE  H11X11320   4.547   5.134   3.775 -1.0643 -0.7147 -1.0842
  109SAPE  H11Y11321   4.727   5.146   3.815  0.9219 -2.3227  0.1162
  109SAPE  C31211322   4.640   4.978   3.909  0.1840 -0.3047  0.1709
  109SAPE  H12X11323   4.734   4.918   3.908 -0.8395 -1.9589  0.2066
  109SAPE  H12Y11324   4.558   4.906   3.889 -0.4327 -0.1826  2.1200
  109SAPE  C31311325   4.627   5.034   4.054  0.5812  0.3524  0.9258
  109SAPE  H13X11326   4.684   5.129   4.059  0.9380  0.2561 -0.8301
  109SAPE  H13Y11327   4.663   4.952   4.118  1.4934  0.8570  1.0794
  109SAPE  C31411328   4.482   5.075   4.094 -0.0919 -0.0665 -0.1696
  109SAPE  H14X11329   4.409   4.992   4.089 -0.4127  0.1182  1.1304
  109SAPE  H14Y11330   4.453   5.158   4.025  0.0266  0.2157  0.1163
  109SAPE  C31511331   4.476   5.132   4.236 -0.3425  0.3298 -0.2579
  109SAPE  H15X11332   4.407   5.218   4.247 -0.3070  0.3728 -0.3659
  109SAPE  H15Y11333   4.571   5.191   4.240  0.4997 -1.0520  1.2802
  109SAPE  C31611334   4.431   5.024   4.337 -0.2929  0.1942 -0.4595
  109SAPE  H16X11335   4.473   4.926   4.307 -2.0489 -0.6643 -0.2431
  109SAPE  H16Y11336   4.321   5.012   4.328 -0.0141 -2.6183 -0.8412
  109SAPE  C31711337   4.474   5.068   4.472 -0.8739 -0.0947  0.1654
  109SAPE  H17X11338   4.442   5.172   4.494 -1.7337 -0.1969 -0.5620
  109SAPE  H17Y11339   4.584   5.054   4.468 -0.7964 -0.6854  2.6968
  109SAPE  C31811340   4.428   4.983   4.589  0.9797 -0.1844  0.4826
  109SAPE  H18X11341   4.317   4.975   4.594  0.7869  2.2598  2.0484
  109SAPE  H18Y11342   4.476   5.007   4.686 -1.8411  2.1444  1.4510
  109SAPE  H18Z11343   4.457   4.880   4.560 -0.2198  0.2370 -2.5919
  110SAPE     N11344   4.617   3.131   2.481  0.0508  0.5414 -0.0631
  110SAPE   HN111345   4.660   3.055   2.425 -2.4282 -1.3725  0.4242
  110SAPE   HN211346   4.515   3.129   2.459 -0.7828 -0.4555  3.1890
  110SAPE   HN311347   4.662   3.223   2.464  1.8032 -0.0915  0.9616
  110SAPE   C1211348   4.635   3.083   2.622  0.4167 -0.0980  0.0669
  110SAPE  H12A11349   4.744   3.081   2.643  0.9271  0.8374 -2.1907
  110SAPE  H12B11350   4.597   2.979   2.632 -2.4015  0.7056 -1.2704
  110SAPE   C1111351   4.568   3.170   2.726  0.0673  0.3613 -0.7881
  110SAPE  H11A11352   4.617   3.270   2.725 -1.7473  1.2962 -2.3269
  110SAPE  H11B11353   4.591   3.135   2.828  0.1497  2.6172  0.0215
  110SAPE     P11354   4.350   3.285   2.629 -0.1108  0.7743  0.1730
  110SAPE   O1311355   4.410   3.415   2.642 -0.0285  0.4213 -0.6866
  110SAPE   O1411356   4.345   3.231   2.490 -0.0423  0.5345  0.0542
  110SAPE   O1211357   4.426   3.176   2.711  0.0306 -0.2437  0.5878
  110SAPE   O1111358   4.201   3.288   2.684  0.5200 -0.7876  0.1512
  110SAPE    C111359   4.172   3.376   2.796 -0.0856  0.8532  0.7275
  110SAPE    HA11360   4.266   3.423   2.832  1.7274  0.0725 -2.5585
  110SAPE    HB11361   4.095   3.451   2.766 -1.3168 -0.4130  0.6207
  110SAPE    C211362   4.104   3.291   2.911 -0.2513  0.4819  0.2732
  110SAPE    HS11363   4.082   3.361   2.994 -1.0186  2.7973 -1.7560
  110SAPE   O2111364   4.182   3.172   2.952  0.1724 -0.2998 -0.3393
  110SAPE   C2111365   4.292   3.205   3.023  0.2456 -0.0894 -0.2291
  110SAPE   O2211366   4.325   3.321   3.043  0.1190 -0.9700 -0.5964
  110SAPE   C2211367   4.365   3.083   3.070  0.1537 -0.2645 -0.1564
  110SAPE   H2R11368   4.302   3.023   3.139  0.3158  0.1222  0.3308
  110SAPE   H2S11369   4.391   3.025   2.978  2.6535  2.2784 -1.1830
  110SAPE    C311370   3.971   3.233   2.865  0.6706 -0.4045 -0.3474
  110SAPE    HX11371   3.902   3.301   2.811  0.2806 -0.6583 -0.1741
  110SAPE    HY11372   3.990   3.141   2.805  1.6380  0.5347 -1.5316
  110SAPE   O3111373   3.895   3.194   2.983  0.4273 -0.1072 -0.3481
  110SAPE   C3111374   3.812   3.282   3.037  0.1091 -0.0205 -0.6494
  110SAPE   O3211375   3.808   3.403   3.006  0.7879  0.1888 -0.0360
  110SAPE   C3211376   3.713   3.218   3.135 -0.1113 -0.6027  0.4208
  110SAPE   H2X11377   3.706   3.109   3.114  3.0466 -1.6754  3.8454
  110SAPE   H2Y11378   3.613   3.264   3.126 -0.5094 -1.6129 -0.4430
  110SAPE   C2311379   4.498   3.119   3.140  0.1501  0.6200 -0.1275
  110SAPE   H3R11380   4.485   3.161   3.242 -2.9731  1.9396 -0.9738
  110SAPE   H3S11381   4.559   3.197   3.090  1.9294 -0.5928  0.0226
  110SAPE   C2411382   4.592   2.996   3.147 -0.6335  0.0846 -0.0875
  110SAPE   H4R11383   4.688   3.017   3.199 -0.0171  0.2506 -1.2577
  110SAPE   H4S11384   4.612   2.962   3.043 -0.9715 -0.7662  0.1196
  110SAPE   C2511385   4.531   2.877   3.223  0.2993  0.0367 -0.0723
  110SAPE   H5R11386   4.483   2.795   3.168  1.0915 -1.0466  0.7970
  110SAPE   C2611387   4.513   2.880   3.354 -0.5409 -0.2274  0.1854
  110SAPE   H6R11388   4.464   2.797   3.406  0.5434 -0.5924  0.6513
  110SAPE   C2711389   4.549   2.987   3.457  0.0427 -0.3373 -0.3633
  110SAPE   H7R11390   4.458   3.033   3.501  0.8257  0.7150  0.2256
  110SAPE   H7S11391   4.608   3.071   3.414  0.8443 -0.7000  0.0036
  110SAPE   C2811392   4.638   2.930   3.569 -0.2178 -0.3082  0.0834
  110SAPE   H8R11393   4.742   2.907   3.542 -0.3887 -1.7948  0.6122
  110SAPE   C2911394   4.611   2.929   3.704  0.2805  0.1467  0.1521
  110SAPE   H9R11395   4.694   2.890   3.765  0.2111 -0.9321 -0.4188
  110SAPE  C21011396   4.485   2.965   3.786  0.2488  0.7723  0.6068
  110SAPE  H10R11397   4.478   2.886   3.864  1.7260 -0.3109 -0.2941
  110SAPE  H10S11398   4.398   2.947   3.719  0.5401 -1.0538  0.6653
  110SAPE  C21111399   4.488   3.105   3.842  0.7450  0.2369  0.4061
  110SAPE  H11R11400   4.469   3.188   3.773 -0.8471  0.2062  0.7746
  110SAPE  C21211401   4.498   3.129   3.975 -0.3237 -0.3330  0.3771
  110SAPE  H12R11402   4.485   3.232   4.012  1.7801  0.5185 -1.0343
  110SAPE  C21311403   4.497   3.033   4.089  0.0367 -0.2875 -0.3037
  110SAPE  H13R11404   4.554   3.081   4.171  0.3910 -2.2476  0.6570
  110SAPE  H13S11405   4.542   2.938   4.053 -2.2432 -2.1331  1.4160
  110SAPE  C21411406   4.359   2.999   4.144 -0.3132 -0.8700 -0.4350
  110SAPE  H14R11407   4.283   3.076   4.127  0.1955 -0.9882 -3.7980
  110SAPE  C21511408   4.330   2.877   4.196  0.7848  0.4941 -0.0289
  110SAPE  H15R11409   4.233   2.854   4.243  0.9888 -2.3655 -0.8348
  110SAPE  C21611410   4.418   2.753   4.210 -0.3631 -0.4150  0.4535
  110SAPE  H16R11411   4.490   2.778   4.291 -1.4136  0.3819  1.1548
  110SAPE  H16S11412   4.465   2.725   4.113 -0.1618  1.2747  0.0353
  110SAPE  C21711413   4.347   2.616   4.256  0.4586 -0.7877 -0.6005
  110SAPE  H17R11414   4.384   2.520   4.214 -2.2926 -2.7067  1.0215
  110SAPE  H17S11415   4.242   2.628   4.223  1.0346  0.3866 -2.1576
  110SAPE  C21811416   4.338   2.594   4.405 -0.1346 -0.4465 -0.4869
  110SAPE  H18R11417   4.334   2.697   4.446  0.4453 -0.6032 -0.0206
  110SAPE  H18S11418   4.436   2.551   4.436  0.2884  0.6358 -0.2630
  110SAPE  C21911419   4.224   2.512   4.448 -0.1097  0.1859 -0.1377
  110SAPE  H19R11420   4.231   2.413   4.397  2.9275  0.3518 -0.2313
  110SAPE  H19S11421   4.131   2.556   4.407 -1.8461 -2.9284  0.1600
  110SAPE  C22011422   4.207   2.480   4.594 -0.4571 -0.4277  0.9090
  110SAPE  H20R11423   4.298   2.426   4.629 -0.2623  0.6491  2.1569
  110SAPE  H20S11424   4.121   2.413   4.614  0.4081 -1.3820  1.5784
  110SAPE  H20T11425   4.201   2.570   4.660  2.5188  0.6875 -0.1328
  110SAPE   C3311426   3.776   3.213   3.277  0.0602 -0.9688 -0.0082
  110SAPE   H3X11427   3.792   3.317   3.312 -0.0582 -0.9513 -0.0091
  110SAPE   H3Y11428   3.875   3.162   3.276  1.4979  1.6596  0.0985
  110SAPE   C3411429   3.697   3.136   3.380 -0.3850  0.8874 -0.3101
  110SAPE   H4X11430   3.760   3.096   3.462  0.3292  2.2761 -0.1507
  110SAPE   H4Y11431   3.653   3.046   3.332  2.3971 -0.9426  0.3376
  110SAPE   C3511432   3.587   3.216   3.443 -0.4392  0.6133  0.3347
  110SAPE   H5X11433   3.525   3.255   3.360  1.1292 -0.6536 -1.5290
  110SAPE   H5Y11434   3.628   3.309   3.490 -1.2888  1.5327 -0.6921
  110SAPE   C3611435   3.514   3.137   3.557 -0.5695  0.4019  0.4205
  110SAPE   H6X11436   3.463   3.053   3.505 -1.5299  2.3197 -1.9658
  110SAPE   H6Y11437   3.438   3.208   3.597 -0.8152  0.1674  0.3742
  110SAPE   C3711438   3.613   3.104   3.674  0.5879  0.0223  0.5055
  110SAPE   H7X11439   3.678   3.190   3.698  1.7653 -1.1116  1.5448
  110SAPE   H7Y11440   3.679   3.023   3.636 -0.5056  0.9533 -3.9477
  110SAPE   C3811441   3.539   3.049   3.794 -0.5259  0.1446  0.4681
  110SAPE   H8X11442   3.611   2.980   3.843 -0.6915 -0.3148  0.0714
  110SAPE   H8Y11443   3.449   2.998   3.752  0.4610 -0.5606 -0.8511
  110SAPE   C3911444   3.481   3.152   3.889 -0.3794  0.4676 -0.0982
  110SAPE   H9X11445   3.397   3.202   3.836 -0.7540 -0.0533 -0.0122
  110SAPE   H9Y11446   3.552   3.236   3.904 -1.1333  1.7793 -3.1660
  110SAPE  C31011447   3.415   3.092   4.017  0.3115 -0.3715  0.4875
  110SAPE  H10X11448   3.504   3.048   4.067  1.0919  0.9080  0.2794
  110SAPE  H10Y11449   3.341   3.015   3.985 -2.1015  2.6536 -1.9095
  110SAPE  C31111450   3.348   3.192   4.101 -0.0731  0.4498 -0.5657
  110SAPE  H11X11451   3.252   3.228   4.059 -1.6340 -0.5194  1.9591
  110SAPE  H11Y11452   3.418   3.278   4.108 -0.2971  0.5965 -0.1209
  110SAPE  C31211453   3.321   3.138   4.241 -0.2201 -0.0806 -0.8261
  110SAPE  H12X11454   3.414   3.092   4.278  0.7699  2.3407 -0.1221
  110SAPE  H12Y11455   3.252   3.051   4.233  0.2244 -0.3543 -1.9223
  110SAPE  C31311456   3.271   3.241   4.340  0.2473 -0.4479  0.3803
  110SAPE  H13X11457   3.200   3.312   4.293 -0.9034 -0.3139  2.2326
  110SAPE  H13Y11458   3.359   3.302   4.368  1.4432 -1.9103 -0.0879
  110SAPE  C31411459   3.196   3.166   4.456 -0.0162  0.6712  0.1745
  110SAPE  H14X11460   3.256   3.084   4.500 -0.9311  1.1838  2.5955
  110SAPE  H14Y11461   3.098   3.126   4.424 -0.1800 -1.9446  3.3565
  110SAPE  C31511462   3.188   3.258   4.580  0.3823  0.2263 -0.4365
  110SAPE  H15X11463   3.295   3.276   4.601 -0.2151  1.8435  1.5666
  110SAPE  H15Y11464   3.147   3.203   4.668  0.4361  1.6097  0.4900
  110SAPE  C31611465   3.115   3.390   4.552 -0.1468  0.9896  0.2665
  110SAPE  H16X11466   3.092   3.402   4.444  0.6641  0.1509 -0.0018
  110SAPE  H16Y11467   3.165   3.488   4.567  1.2593  0.1093  1.5698
  110SAPE  C31711468   2.982   3.400   4.637 -0.3498 -0.5941  0.1488
  110SAPE  H17X11469   3.015   3.394   4.743  0.8027 -2.9371 -0.2593
  110SAPE  H17Y11470   2.918   3.310   4.623 -0.5831 -0.4101  0.0226
  110SAPE  C31811471   2.905   3.524   4.603  0.2466  0.3268  0.0205
  110SAPE  H18X11472   2.824   3.533   4.678 -1.9508 -0.4467 -2.1554
  110SAPE  H18Y11473   2.852   3.515   4.506 -2.2786 -0.4041  1.3837
  110SAPE  H18Z11474   2.975   3.609   4.586  0.1874  0.6922  1.4628
  111SAPE     N11475   3.086   3.737   2.221 -0.9862 -0.4765  0.1592
  111SAPE   HN111476   3.052   3.688   2.306 -0.1965  1.8304  1.9363
  111SAPE   HN211477   2.999   3.773   2.177 -0.1085  0.6268 -0.7742
  111SAPE   HN311478   3.138   3.668   2.164  1.0368 -1.0767  2.5511
  111SAPE   C1211479   3.184   3.834   2.280  0.3990  0.0078  0.3835
  111SAPE  H12A11480   3.205   3.909   2.200 -0.0268 -0.5349 -0.2556
  111SAPE  H12B11481   3.275   3.775   2.305  0.3780 -1.2282 -2.0827
  111SAPE   C1111482   3.119   3.900   2.405  0.1629  0.0413 -0.4183
  111SAPE  H11A11483   3.195   3.972   2.444 -0.0572  0.5722 -0.9498
  111SAPE  H11B11484   3.087   3.819   2.473  0.0095  0.4833  0.0452
  111SAPE     P11485   2.894   4.020   2.467  0.5286 -0.4952 -0.3362
  111SAPE   O1311486   2.815   4.140   2.409 -0.2345 -0.1041 -0.6928
  111SAPE   O1411487   2.818   3.900   2.508 -0.1653 -0.2439  0.3232
  111SAPE   O1211488   3.009   3.977   2.363 -0.5341  0.4721 -0.0379
  111SAPE   O1111489   2.973   4.061   2.597 -0.1883  0.3318  0.3011
  111SAPE    C111490   3.075   4.168   2.587  0.1263  0.2283  0.1469
  111SAPE    HA11491   3.174   4.122   2.566 -0.1861 -1.1496  1.5464
  111SAPE    HB11492   3.068   4.240   2.502 -1.3060  0.1246  0.1622
  111SAPE    C211493   3.077   4.258   2.711  0.3768 -0.3549  0.0560
  111SAPE    HS11494   3.151   4.340   2.697 -2.5917  2.4918 -0.1953
  111SAPE   O2111495   3.095   4.188   2.830  0.3103  0.4704  0.1616
  111SAPE   C2111496   3.213   4.125   2.843 -0.4911 -0.3590 -0.1224
  111SAPE   O2211497   3.318   4.156   2.792 -0.3991 -0.0727  0.1974
  111SAPE   C2211498   3.195   4.011   2.946  0.1388 -0.4792 -0.2563
  111SAPE   H2R11499   3.157   3.924   2.888  0.8235  0.0528 -1.5211
  111SAPE   H2S11500   3.298   3.988   2.982 -0.2694  0.1332  1.3869
  111SAPE    C311501   2.942   4.347   2.722 -0.5316  0.3388  0.3259
  111SAPE    HX11502   2.860   4.276   2.700  1.1886 -1.6285 -0.0720
  111SAPE    HY11503   2.933   4.423   2.642 -1.6472  0.3231  0.4196
  111SAPE   O3111504   2.925   4.399   2.861 -0.0275 -0.1868  0.2921
  111SAPE   C3111505   3.020   4.487   2.893  0.3162 -0.1120  0.5175
  111SAPE   O3211506   3.102   4.536   2.819  0.1447  0.6233  0.6823
  111SAPE   C3211507   2.994   4.529   3.033 -0.0238 -0.0580 -0.5557
  111SAPE   H2X11508   2.886   4.554   3.041  0.2732  1.6502 -1.3361
  111SAPE   H2Y11509   3.055   4.614   3.069  1.8694 -2.2074  1.7028
  111SAPE   C2311510   3.100   4.043   3.062  0.6227  0.4168  0.4513
  111SAPE   H3R11511   3.017   4.114   3.042 -0.0069  0.1027  1.7836
  111SAPE   H3S11512   3.159   4.091   3.144  0.2577 -1.1749  1.7035
  111SAPE   C2411513   3.040   3.916   3.122  0.1616 -0.3896  0.0379
  111SAPE   H4R11514   2.963   3.866   3.060  1.1410 -1.1264 -0.6203
  111SAPE   H4S11515   2.982   3.949   3.211  0.0512  0.0097 -0.1822
  111SAPE   C2511516   3.139   3.810   3.168 -0.4053 -0.0786 -0.3178
  111SAPE   H5R11517   3.206   3.792   3.082  1.9603  1.9302  1.0001
  111SAPE   C2611518   3.168   3.759   3.284 -0.3195  0.1145  0.1826
  111SAPE   H6R11519   3.230   3.667   3.285  0.2910  0.5170 -0.2871
  111SAPE   C2711520   3.098   3.779   3.413  0.0077  0.2824 -0.6284
  111SAPE   H7R11521   3.103   3.688   3.477 -1.9611  1.6128  1.6085
  111SAPE   H7S11522   2.988   3.793   3.401 -0.3052 -0.9595  0.5486
  111SAPE   C2811523   3.154   3.901   3.481  0.1695  0.7856  0.4152
  111SAPE   H8R11524   3.184   3.978   3.409 -0.6483 -0.8396 -1.7849
  111SAPE   C2911525   3.180   3.908   3.615 -0.1583 -0.2513  0.4459
  111SAPE   H9R11526   3.228   3.993   3.666  2.5212 -2.9212  2.7675
  111SAPE  C21011527   3.141   3.794   3.712 -1.1919  0.0793  0.2373
  111SAPE  H10R11528   3.210   3.794   3.798  0.8011  0.8746 -1.2748
  111SAPE  H10S11529   3.154   3.695   3.663 -0.3040 -0.1114  0.8444
  111SAPE  C21111530   2.998   3.811   3.761 -0.7675  0.4718 -0.3316
  111SAPE  H11R11531   2.922   3.810   3.683  0.5490  1.8494 -1.7083
  111SAPE  C21211532   2.947   3.824   3.887 -0.2658  0.1423 -0.2353
  111SAPE  H12R11533   2.838   3.827   3.889 -0.3741 -1.9871  0.1836
  111SAPE  C21311534   3.025   3.836   4.019 -0.6022 -0.1957  0.0988
  111SAPE  H13R11535   3.132   3.820   3.994 -1.0114 -0.6161 -1.4920
  111SAPE  H13S11536   2.988   3.758   4.088 -0.3353 -0.2766  0.1541
  111SAPE  C21411537   3.010   3.978   4.069  0.5021  0.5723  0.4094
  111SAPE  H14R11538   2.976   4.051   3.994 -0.7895 -2.8842 -2.6841
  111SAPE  C21511539   3.029   4.018   4.195 -0.2723 -0.0092 -0.3101
  111SAPE  H15R11540   2.996   4.118   4.224 -2.3526 -1.0716  1.3098
  111SAPE  C21611541   3.072   3.929   4.309  0.2602 -0.1545  0.0199
  111SAPE  H16R11542   3.166   3.965   4.355  0.4959 -0.2658 -0.3752
  111SAPE  H16S11543   3.099   3.828   4.273  1.7885  0.4584 -0.6560
  111SAPE  C21711544   2.996   3.907   4.449  0.3352  0.6233 -0.4231
  111SAPE  H17R11545   3.070   3.890   4.530  0.2395  0.4035 -0.3821
  111SAPE  H17S11546   2.929   3.818   4.442  2.5185 -1.0699 -1.0985
  111SAPE  C21811547   2.934   4.035   4.499  0.4434  0.8741 -0.5323
  111SAPE  H18R11548   2.836   4.053   4.449 -1.0596 -1.9025  1.1797
  111SAPE  H18S11549   3.012   4.114   4.495  0.3957  1.1315  2.1744
  111SAPE  C21911550   2.909   4.025   4.649 -0.0382  0.4028 -0.3185
  111SAPE  H19R11551   3.007   4.040   4.700 -0.8736  0.0650  1.4441
  111SAPE  H19S11552   2.894   3.920   4.681  0.6230  1.0077  2.2543
  111SAPE  C22011553   2.798   4.107   4.711  0.1381  0.7528  0.1488
  111SAPE  H20R11554   2.824   4.215   4.717  0.8855  0.5965 -0.1867
  111SAPE  H20S11555   2.771   4.077   4.814 -1.0802 -0.5594 -0.5149
  111SAPE  H20T11556   2.699   4.097   4.662  1.3588 -0.8319 -2.1840
  111SAPE   C3311557   3.036   4.420   3.132  0.9352  0.3160  0.7940
  111SAPE   H3X11558   3.136   4.376   3.114  0.9706  0.4096  0.7647
  111SAPE   H3Y11559   2.968   4.333   3.118 -0.1439  1.2289  0.2262
  111SAPE   C3411560   3.025   4.455   3.279 -0.6120  0.0022 -0.2590
  111SAPE   H4X11561   2.922   4.491   3.297 -0.6081 -0.3348  0.4519
  111SAPE   H4Y11562   3.101   4.535   3.295 -0.7414  0.6891 -2.6803
  111SAPE   C3511563   3.051   4.338   3.379 -0.1087  0.0100 -0.6410
  111SAPE   H5X11564   3.150   4.301   3.344 -0.4310 -1.6445  0.0909
  111SAPE   H5Y11565   2.983   4.251   3.374 -0.3886  0.2233 -0.5909
  111SAPE   C3611566   3.046   4.391   3.519 -0.5906 -0.1474 -0.1950
  111SAPE   H6X11567   2.945   4.432   3.541 -1.1442 -0.8453 -1.3709
  111SAPE   H6Y11568   3.109   4.483   3.517  2.4072 -2.0674 -0.3547
  111SAPE   C3711569   3.102   4.281   3.616  0.4569 -0.1570 -0.4016
  111SAPE   H7X11570   3.212   4.268   3.625  0.3911  0.0314  0.8299
  111SAPE   H7Y11571   3.069   4.183   3.573  3.5938 -1.3168 -0.4041
  111SAPE   C3811572   3.049   4.299   3.762 -0.4025 -0.5675 -0.4448
  111SAPE   H8X11573   3.062   4.206   3.821 -2.0052 -0.8372 -0.4613
  111SAPE   H8Y11574   2.940   4.319   3.748 -0.4336 -2.0452 -2.8190
  111SAPE   C3911575   3.132   4.414   3.830  0.0174 -0.5536 -0.0727
  111SAPE   H9X11576   3.120   4.500   3.761 -1.1875  0.1044  0.9299
  111SAPE   H9Y11577   3.242   4.399   3.832  0.1800  0.0112 -2.0580
  111SAPE  C31011578   3.093   4.439   3.974 -0.4062 -0.1005  0.4335
  111SAPE  H10X11579   3.140   4.521   4.032 -0.1505 -1.2920  1.9733
  111SAPE  H10Y11580   3.122   4.346   4.028 -0.5185 -1.4946 -1.7829
  111SAPE  C31111581   2.942   4.464   3.992 -0.3992 -0.2019  0.5876
  111SAPE  H11X11582   2.890   4.371   3.959 -0.1280 -0.7362  1.6195
  111SAPE  H11Y11583   2.911   4.546   3.925 -0.4827 -0.5950  0.1397
  111SAPE  C31211584   2.907   4.490   4.137  0.2831  0.4317 -0.3601
  111SAPE  H12X11585   2.799   4.516   4.144 -0.9315 -4.1214  4.3382
  111SAPE  H12Y11586   2.962   4.575   4.183 -0.7685  1.3352 -0.7192
  111SAPE  C31311587   2.926   4.366   4.227  0.4267 -0.4469  0.0083
  111SAPE  H13X11588   3.030   4.325   4.232  2.3785  3.8766 -0.7412
  111SAPE  H13Y11589   2.857   4.294   4.179 -1.8919  0.1044  2.2901
  111SAPE  C31411590   2.866   4.381   4.361 -0.4107 -0.1374 -0.0936
  111SAPE  H14X11591   2.856   4.278   4.403  1.3951 -1.4463 -2.5668
  111SAPE  H14Y11592   2.774   4.440   4.377  1.0882  2.1585  0.5493
  111SAPE  C31511593   2.968   4.458   4.442  0.0211  0.3411  0.2053
  111SAPE  H15X11594   2.966   4.558   4.395 -1.0305 -0.8663 -2.5169
  111SAPE  H15Y11595   3.065   4.406   4.423 -1.0060 -1.1650 -1.2475
  111SAPE  C31611596   2.942   4.446   4.587  0.8035 -0.2493  0.2293
  111SAPE  H16X11597   2.964   4.343   4.625 -0.2051  1.1229  5.3760
  111SAPE  H16Y11598   2.839   4.476   4.615  0.6929  0.1950 -0.6236
  111SAPE  C31711599   3.034   4.532   4.671 -0.0839 -0.3094 -0.5405
  111SAPE  H17X11600   3.139   4.498   4.657  0.0366 -0.1438 -0.0702
  111SAPE  H17Y11601   3.030   4.491   4.774  3.4078 -1.4104 -0.7020
  111SAPE  C31811602   3.014   4.681   4.683 -0.4638 -0.1992 -0.1121
  111SAPE  H18X11603   2.990   4.713   4.579  1.4460  0.0365 -0.5125
  111SAPE  H18Y11604   3.101   4.735   4.725  0.8568 -2.9983  0.9677
  111SAPE  H18Z11605   2.925   4.702   4.747  0.2188 -0.0895  0.8171
  112SAPE     N11606   6.824   3.943   2.003 -0.0883  0.0007  0.2340
  112SAPE   HN111607   6.757   3.983   1.935 -1.6326  0.2216  1.8285
  112SAPE   HN211608   6.902   4.011   2.005 -2.0342  2.3342  0.8179
  112SAPE   HN311609   6.856   3.847   1.978  0.0661 -0.7106  2.8251
  112SAPE   C1211610   6.766   3.928   2.138 -0.7093 -0.0842  0.3980
  112SAPE  H12A11611   6.670   3.874   2.124 -1.2686  1.5509 -3.1474
  112SAPE  H12B11612   6.761   4.031   2.178 -1.4337 -0.0993  0.3613
  112SAPE   C1111613   6.852   3.847   2.235 -0.0006  0.4280  0.4428
  112SAPE  H11A11614   6.787   3.798   2.311  0.1918  0.7356  0.8064
  112SAPE  H11B11615   6.928   3.906   2.291  1.9640 -3.9629  2.9863
  112SAPE     P11616   7.054   3.671   2.210 -0.2443  0.1313  0.2215
  112SAPE   O1311617   7.034   3.541   2.280  0.2491  0.1801  0.0557
  112SAPE   O1411618   7.146   3.674   2.095 -0.1031  0.2702 -0.5314
  112SAPE   O1211619   6.917   3.735   2.173  0.2372  0.5134 -0.2763
  112SAPE   O1111620   7.110   3.774   2.313 -0.2715  0.3968  0.1639
  112SAPE    C111621   7.166   3.726   2.435  0.5648 -0.8032 -0.0633
  112SAPE    HA11622   7.228   3.634   2.431 -1.1950 -2.1886  2.4655
  112SAPE    HB11623   7.239   3.801   2.475  2.1360 -1.2146 -1.9769
  112SAPE    C211624   7.054   3.707   2.543 -0.9143  0.8447  0.6115
  112SAPE    HS11625   6.992   3.618   2.519  1.1537  0.1314 -2.8556
  112SAPE   O2111626   6.982   3.829   2.557  0.2675  0.4502 -0.5989
  112SAPE   C2111627   6.859   3.802   2.598  0.4844  0.3048 -0.4232
  112SAPE   O2211628   6.807   3.689   2.606  0.1545 -0.4188  0.2725
  112SAPE   C2211629   6.786   3.932   2.647 -1.2025 -0.7171  0.4772
  112SAPE   H2R11630   6.866   4.008   2.654 -1.7090 -0.2763  2.0994
  112SAPE   H2S11631   6.719   3.945   2.560 -0.8657 -2.5690 -0.0998
  112SAPE    C311632   7.128   3.679   2.671 -0.8774  0.1337 -0.1366
  112SAPE    HX11633   7.208   3.753   2.694 -0.5124 -0.3399  0.1424
  112SAPE    HY11634   7.188   3.587   2.655 -1.0677  0.1453 -0.9611
  112SAPE   O3111635   7.042   3.660   2.784  0.0213  0.0647  0.1304
  112SAPE   C3111636   7.062   3.554   2.869  0.4734  0.3784  0.0965
  112SAPE   O3211637   7.154   3.480   2.866 -0.1142  0.0655  0.4482
  112SAPE   C3211638   6.952   3.546   2.970  0.6009 -0.2004 -0.3166
  112SAPE   H2X11639   6.942   3.442   3.007  0.3390 -0.1456 -0.2319
  112SAPE   H2Y11640   6.860   3.580   2.919  0.9214  0.6993 -0.3261
  112SAPE   C2311641   6.707   3.920   2.782  0.2636  0.2719  0.3858
  112SAPE   H3R11642   6.622   3.851   2.761  0.6188 -0.2512  0.6448
  112SAPE   H3S11643   6.663   4.022   2.788 -1.1467  0.0605 -3.3707
  112SAPE   C2411644   6.783   3.871   2.898  0.1870 -1.0349  0.0707
  112SAPE   H4R11645   6.854   3.793   2.863  1.3678  0.1973 -0.3520
  112SAPE   H4S11646   6.713   3.827   2.973  0.6489 -2.0500 -0.0738
  112SAPE   C2511647   6.857   3.988   2.955  0.5454  0.1402  0.2608
  112SAPE   H5R11648   6.961   4.001   2.922  0.4251  2.6720  0.7137
  112SAPE   C2611649   6.814   4.079   3.037  0.0068 -0.5093  0.2942
  112SAPE   H6R11650   6.880   4.156   3.079  2.9847 -3.3463  1.2945
  112SAPE   C2711651   6.678   4.089   3.091 -0.4931 -0.1400 -0.9555
  112SAPE   H7R11652   6.684   4.069   3.200 -2.3816 -0.8128 -0.9417
  112SAPE   H7S11653   6.607   4.008   3.066 -1.7045  0.2646  0.9703
  112SAPE   C2811654   6.633   4.233   3.056 -0.5216  0.4046 -0.9111
  112SAPE   H8R11655   6.559   4.231   2.975  0.0707 -0.7954 -1.4612
  112SAPE   C2911656   6.667   4.346   3.132 -0.5534  0.6310 -0.1747
  112SAPE   H9R11657   6.630   4.449   3.120  2.3007  2.3998  4.0426
  112SAPE  C21011658   6.759   4.341   3.258  0.1154 -0.3067 -1.0981
  112SAPE  H10R11659   6.851   4.404   3.255 -0.8916  1.2367 -1.1044
  112SAPE  H10S11660   6.805   4.241   3.250 -0.3400 -0.4768 -1.6215
  112SAPE  C21111661   6.681   4.345   3.393  0.3235 -0.2601  0.5882
  112SAPE  H11R11662   6.589   4.284   3.391  0.5620 -0.6092 -1.4003
  112SAPE  C21211663   6.714   4.411   3.504 -0.5080 -0.2497  0.1065
  112SAPE  H12R11664   6.653   4.400   3.595 -1.3869 -0.2267 -0.4640
  112SAPE  C21311665   6.847   4.490   3.516  1.1235  0.1092 -0.1362
  112SAPE  H13R11666   6.884   4.525   3.417 -0.8728 -0.5823 -1.1680
  112SAPE  H13S11667   6.924   4.413   3.539  2.6907  2.1281  1.8061
  112SAPE  C21411668   6.856   4.601   3.619  0.9515 -0.5161 -0.0074
  112SAPE  H14R11669   6.852   4.703   3.578  1.9800 -1.5141 -2.8121
  112SAPE  C21511670   6.908   4.591   3.746  0.7433  0.1352 -0.0724
  112SAPE  H15R11671   6.914   4.675   3.816  1.8004 -0.6048  0.7632
  112SAPE  C21611672   6.952   4.466   3.812  0.8623  0.2565  0.4601
  112SAPE  H16R11673   7.062   4.455   3.818  0.8790 -2.0000 -2.3911
  112SAPE  H16S11674   6.926   4.376   3.753 -1.0930  1.7694 -1.1787
  112SAPE  C21711675   6.902   4.461   3.960 -0.1599  0.3634 -0.0761
  112SAPE  H17R11676   6.922   4.559   4.010 -0.5736  0.6967 -0.5541
  112SAPE  H17S11677   6.965   4.379   4.001  0.0413  0.6237  0.1432
  112SAPE  C21811678   6.747   4.433   3.979 -0.0927  1.0963 -0.0530
  112SAPE  H18R11679   6.708   4.365   3.900 -1.5238  1.2829  0.4567
  112SAPE  H18S11680   6.687   4.525   3.959 -0.4720  0.9305  0.3065
  112SAPE  C21911681   6.724   4.368   4.121 -0.0438  0.1811 -0.1370
  112SAPE  H19R11682   6.792   4.421   4.190 -0.3924  1.3163 -0.6457
  112SAPE  H19S11683   6.766   4.266   4.133 -0.0892  0.3104  1.2067
  112SAPE  C22011684   6.585   4.373   4.171 -0.0177  0.5337 -0.0982
  112SAPE  H20R11685   6.512   4.359   4.089 -0.9515  2.6759  0.2908
  112SAPE  H20S11686   6.572   4.477   4.208  1.7003  0.7376  0.0090
  112SAPE  H20T11687   6.564   4.300   4.253 -0.5256  2.4926  1.5982
  112SAPE   C3311688   6.999   3.641   3.085  0.3115  0.4694  0.0977
  112SAPE   H3X11689   7.009   3.743   3.042 -0.2608  0.3356 -0.3697
  112SAPE   H3Y11690   7.099   3.606   3.118  0.9242  1.9011 -0.1561
  112SAPE   C3411691   6.902   3.647   3.205  0.2754  0.1214  0.0307
  112SAPE   H4X11692   6.887   3.543   3.242  1.3605 -0.3170 -0.7226
  112SAPE   H4Y11693   6.807   3.690   3.167 -0.1848  0.0341  1.0537
  112SAPE   C3511694   6.952   3.736   3.314  0.1429 -0.4260 -0.5475
  112SAPE   H5X11695   6.983   3.833   3.271 -2.6884  0.7904 -0.0920
  112SAPE   H5Y11696   7.031   3.689   3.377  0.8008 -1.2359 -1.9517
  112SAPE   C3611697   6.844   3.785   3.411 -0.3723  0.6615 -0.1454
  112SAPE   H6X11698   6.780   3.703   3.451 -0.7608  0.4879 -1.0871
  112SAPE   H6Y11699   6.772   3.844   3.351 -2.0009 -0.4205  0.6473
  112SAPE   C3711700   6.899   3.873   3.524  0.5111  0.0647 -0.5557
  112SAPE   H7X11701   6.965   3.947   3.473  1.0457 -0.1085 -0.1243
  112SAPE   H7Y11702   6.973   3.813   3.582 -0.9676 -1.4165 -0.1401
  112SAPE   C3811703   6.792   3.961   3.586 -0.9110 -0.1200 -0.0629
  112SAPE   H8X11704   6.713   3.894   3.627 -1.6061  0.2098 -0.8176
  112SAPE   H8Y11705   6.744   4.022   3.506 -3.0905 -1.6253 -0.0028
  112SAPE   C3911706   6.846   4.057   3.688 -0.3099 -0.3706  0.8935
  112SAPE   H9X11707   6.779   4.145   3.700 -0.5110 -0.3561 -0.2627
  112SAPE   H9Y11708   6.944   4.094   3.651  0.5356 -2.0145  1.4044
  112SAPE  C31011709   6.855   3.983   3.824  0.0025  0.6373 -0.0840
  112SAPE  H10X11710   6.901   3.882   3.815  1.0515  0.2539  5.6958
  112SAPE  H10Y11711   6.755   3.970   3.872 -0.3441 -1.2984 -1.2370
  112SAPE  C31111712   6.951   4.048   3.929 -0.2183  0.2441 -0.0268
  112SAPE  H11X11713   6.887   4.128   3.972  1.9206  1.4316  1.0700
  112SAPE  H11Y11714   7.036   4.099   3.879 -2.0048  2.0516 -1.4431
  112SAPE  C31211715   6.989   3.967   4.052  0.0438 -0.4338 -0.3603
  112SAPE  H12X11716   7.030   3.870   4.016  1.4080  0.3000 -0.8842
  112SAPE  H12Y11717   6.897   3.937   4.105 -0.4453 -1.4001 -1.7055
  112SAPE  C31311718   7.093   4.041   4.142  0.2328 -0.3545  1.0090
  112SAPE  H13X11719   7.174   4.081   4.077  0.2432 -1.1407  0.5341
  112SAPE  H13Y11720   7.119   3.960   4.212 -2.4783 -2.6049 -0.3914
  112SAPE  C31411721   7.053   4.168   4.220  0.1754 -0.4934 -0.3098
  112SAPE  H14X11722   6.959   4.149   4.276  0.7712  0.5529  1.1169
  112SAPE  H14Y11723   7.027   4.247   4.147  0.4675  0.9245  1.0645
  112SAPE  C31511724   7.166   4.193   4.323  0.3295 -0.1335  0.8472
  112SAPE  H15X11725   7.268   4.190   4.278  1.8186 -4.8192  3.7733
  112SAPE  H15Y11726   7.163   4.119   4.406  1.6218  0.6622  1.6237
  112SAPE  C31611727   7.139   4.322   4.401  0.6404 -0.4227  0.3752
  112SAPE  H16X11728   7.197   4.330   4.495  0.1228  2.5891  0.5388
  112SAPE  H16Y11729   7.035   4.330   4.440  0.1561  0.6167 -1.0423
  112SAPE  C31711730   7.174   4.438   4.314  0.0673  0.0307  1.3978
  112SAPE  H17X11731   7.139   4.429   4.209  1.4001 -0.2791  0.9659
  112SAPE  H17Y11732   7.284   4.441   4.308 -0.0108  0.7154 -0.2473
  112SAPE  C31811733   7.138   4.579   4.366 -0.0479 -0.5386  0.2288
  112SAPE  H18X11734   7.191   4.602   4.461 -4.6365  1.6856  2.5774
  112SAPE  H18Y11735   7.033   4.568   4.399  0.6405  0.2660  2.9156
  112SAPE  H18Z11736   7.158   4.668   4.303  0.9470 -0.4900  0.5968
  113SAPE     N11737   0.116   6.821   2.230 -0.3454 -0.2192  0.2128
  113SAPE   HN111738   0.170   6.765   2.161  0.4720 -1.0858  1.4927
  113SAPE   HN211739   0.066   6.753   2.291 -0.9801  0.6750  0.7205
  113SAPE   HN311740   0.047   6.885   2.185 -0.5364  0.1929  1.0636
  113SAPE   C1211741   0.220   6.908   2.302 -0.3324  0.3064  0.8491
  113SAPE  H12A11742   0.300   6.842   2.343 -0.5415  0.9269  2.3377
  113SAPE  H12B11743   0.169   6.962   2.385 -0.0794 -1.2234  2.0536
  113SAPE   C1111744   0.283   7.018   2.209  0.0435 -0.2248 -0.4518
  113SAPE  H11A11745   0.332   6.953   2.133  0.4558 -3.1569  2.1206
  113SAPE  H11B11746   0.361   7.083   2.254 -0.1505  0.2384 -0.7790
  113SAPE     P11747   0.186   7.257   2.132 -0.1831  0.0006 -0.4579
  113SAPE   O1311748   0.311   7.300   2.063 -0.0648  0.2054  0.2860
  113SAPE   O1411749   0.056   7.303   2.080 -0.0939  0.0224  0.4730
  113SAPE   O1211750   0.183   7.100   2.138  0.0813  0.5682  0.4109
  113SAPE   O1111751   0.202   7.299   2.283 -0.2725 -0.3848 -0.0274
  113SAPE    C111752   0.115   7.285   2.397 -0.0374  0.2335 -1.0740
  113SAPE    HA11753   0.016   7.242   2.374  0.4911 -1.9901  0.4958
  113SAPE    HB11754   0.155   7.217   2.475 -0.8680  0.7440 -0.1916
  113SAPE    C211755   0.101   7.417   2.473 -0.7310 -0.4872 -0.5204
  113SAPE    HS11756   0.054   7.484   2.398  0.2761  1.6425  0.6614
  113SAPE   O2111757   0.226   7.465   2.530 -0.3563  0.5699  0.4633
  113SAPE   C2111758   0.229   7.592   2.561 -0.3056 -0.0547  0.2439
  113SAPE   O2211759   0.146   7.674   2.531  0.0736  0.2636 -0.3075
  113SAPE   C2211760   0.369   7.634   2.606 -0.1620 -0.7609 -0.2286
  113SAPE   H2R11761   0.433   7.543   2.612  0.9897  0.0802  0.9113
  113SAPE   H2S11762   0.415   7.698   2.528 -2.5889 -0.4713 -1.5052
  113SAPE    C311763   0.005   7.399   2.595 -0.3280  0.2000  0.7321
  113SAPE    HX11764  -0.082   7.349   2.547  0.7622 -1.1608  0.0938
  113SAPE    HY11765  -0.032   7.490   2.647 -0.6720  0.1655  0.5519
  113SAPE   O3111766   0.060   7.298   2.687  0.0792 -0.3607  0.3597
  113SAPE   C3111767   0.100   7.332   2.804  0.0375  0.3278  0.8524
  113SAPE   O3211768   0.125   7.449   2.835  0.5471  0.3918 -0.3233
  113SAPE   C3211769   0.126   7.199   2.886 -0.1812 -0.6970  0.0618
  113SAPE   H2X11770   0.233   7.187   2.912  0.1303  0.4620 -0.5812
  113SAPE   H2Y11771   0.099   7.112   2.823 -1.6194  1.1477 -2.0354
  113SAPE   C2311772   0.367   7.719   2.733  1.1186 -0.2367  0.1062
  113SAPE   H3R11773   0.323   7.669   2.822 -1.0818  0.8004 -0.3326
  113SAPE   H3S11774   0.290   7.795   2.711 -1.8989 -3.0122  0.3795
  113SAPE   C2411775   0.485   7.801   2.771 -0.0998  0.1859  0.4109
  113SAPE   H4R11776   0.508   7.874   2.690  1.4380 -0.0670  0.5780
  113SAPE   H4S11777   0.570   7.731   2.790 -0.0147 -0.0642 -0.8154
  113SAPE   C2511778   0.444   7.893   2.888 -0.1616  0.4156  0.3255
  113SAPE   H5R11779   0.336   7.913   2.890  0.1166  2.0676  0.1584
  113SAPE   C2611780   0.519   7.966   2.971 -0.4387  0.1265 -0.1245
  113SAPE   H6R11781   0.465   8.017   3.052  1.3455  0.7440  0.7166
  113SAPE   C2711782   0.670   7.987   2.984  0.1093 -0.4887  0.2158
  113SAPE   H7R11783   0.728   7.942   2.900 -0.3181  1.1725 -1.0129
  113SAPE   H7S11784   0.697   7.925   3.072 -0.8795  0.7389  1.4355
  113SAPE   C2811785   0.696   8.137   3.001  0.4364  0.3888 -0.1130
  113SAPE   H8R11786   0.713   8.202   2.915 -0.0479  1.4275  0.5603
  113SAPE   C2911787   0.713   8.198   3.122  0.1878 -0.9932 -0.4012
  113SAPE   H9R11788   0.727   8.307   3.122  0.6969 -1.0478 -1.4779
  113SAPE  C21011789   0.702   8.131   3.262 -0.0908 -0.4240 -0.2550
  113SAPE  H10R11790   0.750   8.209   3.325 -0.5619  0.1424 -0.5824
  113SAPE  H10S11791   0.765   8.040   3.261  2.2213  1.0821 -1.4744
  113SAPE  C21111792   0.560   8.108   3.317  0.1488  0.3659 -0.5998
  113SAPE  H11R11793   0.478   8.143   3.252  0.2220 -0.5713 -1.2171
  113SAPE  C21211794   0.533   8.042   3.431  0.2107  0.3731 -0.2150
  113SAPE  H12R11795   0.427   8.022   3.455  0.4109 -0.0528  0.3416
  113SAPE  C21311796   0.634   7.977   3.529 -0.3861  0.0517 -0.1452
  113SAPE  H13R11797   0.626   8.009   3.635 -0.8221 -2.1990  0.5523
  113SAPE  H13S11798   0.741   7.983   3.499 -1.0778  1.1753 -2.6632
  113SAPE  C21411799   0.602   7.830   3.526 -0.0563  0.0933 -0.5176
  113SAPE  H14R11800   0.584   7.794   3.423  0.8938 -0.0007 -0.6605
  113SAPE  C21511801   0.601   7.746   3.630 -0.2383  0.0807 -0.3890
  113SAPE  H15R11802   0.566   7.644   3.610 -1.2805  0.1246  1.0682
  113SAPE  C21611803   0.629   7.779   3.777 -0.7033 -0.4301  0.0275
  113SAPE  H16R11804   0.593   7.698   3.843 -2.3227  1.8260  2.0804
  113SAPE  H16S11805   0.584   7.875   3.810 -1.3047 -0.8802  0.5252
  113SAPE  C21711806   0.784   7.798   3.784  0.9209  0.4281  0.0607
  113SAPE  H17R11807   0.809   7.821   3.889 -0.4710  0.7496  0.3455
  113SAPE  H17S11808   0.804   7.886   3.718 -0.9571  0.7602 -0.1182
  113SAPE  C21811809   0.865   7.670   3.746 -0.5078 -0.2216  0.1531
  113SAPE  H18R11810   0.841   7.645   3.641  0.0045  1.2029 -0.3275
  113SAPE  H18S11811   0.850   7.586   3.818  1.3288  0.4092  1.3415
  113SAPE  C21911812   1.016   7.708   3.750 -0.4204  0.1825  0.2435
  113SAPE  H19R11813   1.076   7.615   3.752  1.0077  1.0521 -0.6841
  113SAPE  H19S11814   1.029   7.760   3.848  0.9591  0.2313  0.0553
  113SAPE  C22011815   1.064   7.792   3.625  0.1080 -0.5849 -0.4185
  113SAPE  H20R11816   1.018   7.893   3.624  1.9981  0.3265 -1.8891
  113SAPE  H20S11817   1.026   7.750   3.530 -0.5286  1.8406 -1.3056
  113SAPE  H20T11818   1.174   7.793   3.617  0.1302 -0.1105 -0.0703
  113SAPE   C3311819   0.057   7.193   3.028 -0.0049 -0.1286 -0.5594
  113SAPE   H3X11820  -0.050   7.225   3.027  0.0571  0.2099 -2.6647
  113SAPE   H3Y11821   0.092   7.265   3.105 -1.5510  1.0355 -0.8756
  113SAPE   C3411822   0.056   7.051   3.092  0.2088 -0.7977 -0.8679
  113SAPE   H4X11823   0.155   7.034   3.139  0.1254 -0.7046 -0.6580
  113SAPE   H4Y11824   0.047   6.971   3.015 -1.5393  0.1490 -1.7075
  113SAPE   C3511825  -0.041   7.026   3.201 -0.0746 -0.1856 -0.2860
  113SAPE   H5X11826  -0.038   6.917   3.223 -1.1212 -0.4291 -1.2352
  113SAPE   H5Y11827  -0.147   7.041   3.170  0.2464  0.7401 -0.9784
  113SAPE   C3611828  -0.007   7.096   3.337  0.3734 -0.4215  0.4729
  113SAPE   H6X11829  -0.044   7.199   3.321 -1.4206 -1.3543 -2.2358
  113SAPE   H6Y11830   0.104   7.090   3.344  0.6233  1.2130 -1.3861
  113SAPE   C3711831  -0.076   7.046   3.455 -0.5206 -0.2945  0.0426
  113SAPE   H7X11832  -0.045   6.941   3.477  1.2957  0.1375 -0.2428
  113SAPE   H7Y11833  -0.184   7.062   3.437  0.1082  1.1588 -3.0268
  113SAPE   C3811834  -0.031   7.126   3.576 -0.6184 -0.3120  0.6036
  113SAPE   H8X11835   0.079   7.140   3.580 -0.3177 -1.9500 -0.7152
  113SAPE   H8Y11836  -0.082   7.224   3.588 -2.0157 -1.0469  0.9931
  113SAPE   C3911837  -0.054   7.043   3.706 -0.0526 -0.3709  0.0129
  113SAPE   H9X11838   0.002   6.948   3.699  1.6201  0.4589  1.2734
  113SAPE   H9Y11839  -0.159   7.009   3.705 -0.3549  0.5000  0.6722
  113SAPE  C31011840  -0.023   7.108   3.842  0.4836  0.1986 -0.1826
  113SAPE  H10X11841   0.080   7.151   3.840  0.8458 -0.6389 -0.0233
  113SAPE  H10Y11842  -0.018   7.035   3.926  4.6114 -1.2592 -1.4206
  113SAPE  C31111843  -0.135   7.209   3.889 -0.0040 -0.1681  0.4379
  113SAPE  H11X11844  -0.241   7.180   3.870 -0.4063  1.1493  0.5561
  113SAPE  H11Y11845  -0.122   7.306   3.837 -0.4028  0.0661  0.7672
  113SAPE  C31211846  -0.121   7.247   4.034 -0.4531  0.1717 -0.1370
  113SAPE  H12X11847  -0.149   7.170   4.109  0.1757  1.3623  1.3817
  113SAPE  H12Y11848  -0.195   7.326   4.060  1.0052  1.6340 -0.2958
  113SAPE  C31311849   0.015   7.307   4.075 -0.4425  0.1719 -0.4880
  113SAPE  H13X11850   0.046   7.389   4.006  0.9442  1.1153  1.1798
  113SAPE  H13Y11851   0.098   7.233   4.071 -0.4444  0.0649  1.1478
  113SAPE  C31411852   0.018   7.365   4.215 -0.5279  0.4735 -0.1443
  113SAPE  H14X11853   0.007   7.282   4.289 -1.7209 -0.3497 -1.2002
  113SAPE  H14Y11854  -0.070   7.432   4.227 -1.3019 -0.5058 -0.1563
  113SAPE  C31511855   0.146   7.444   4.238 -0.1302  0.1678  0.0895
  113SAPE  H15X11856   0.145   7.512   4.151  0.4286 -2.2701 -1.9438
  113SAPE  H15Y11857   0.230   7.372   4.224  0.7071  0.9161  1.1153
  113SAPE  C31611858   0.158   7.523   4.376 -0.2970 -0.0790  0.5317
  113SAPE  H16X11859   0.156   7.443   4.452 -0.3961 -0.6224 -0.0304
  113SAPE  H16Y11860   0.066   7.584   4.394 -1.0701 -1.1807  0.4407
  113SAPE  C31711861   0.279   7.614   4.378 -0.0544  0.8901  0.2011
  113SAPE  H17X11862   0.266   7.705   4.316 -0.9217  0.3668 -0.4093
  113SAPE  H17Y11863   0.374   7.560   4.358 -0.2502  0.1407  1.2055
  113SAPE  C31811864   0.315   7.670   4.518  0.0618 -0.0583  0.1497
  113SAPE  H18X11865   0.409   7.728   4.512 -0.2218  0.8044  2.7861
  113SAPE  H18Y11866   0.346   7.600   4.599  2.2023 -0.8278 -1.2685
  113SAPE  H18Z11867   0.237   7.737   4.560 -1.1529  0.5655 -2.8244
  114SAPE     N11868   2.702   3.687   2.579  0.4211 -0.8746  0.0623
  114SAPE   HN111869   2.736   3.651   2.670  0.1430  0.3777  0.6830
  114SAPE   HN211870   2.700   3.609   2.510  0.6941 -1.5545  0.8141
  114SAPE   HN311871   2.775   3.753   2.546  0.5054 -0.8030  0.3899
  114SAPE   C1211872   2.568   3.755   2.607 -0.5232 -0.7373 -0.2188
  114SAPE  H12A11873   2.556   3.835   2.531  1.6921  0.2381  0.3678
  114SAPE  H12B11874   2.577   3.814   2.701  1.5107  0.9890 -1.4101
  114SAPE   C1111875   2.450   3.656   2.621 -0.2925  0.5187 -0.1875
  114SAPE  H11A11876   2.355   3.687   2.669 -0.2807  1.1973 -0.5895
  114SAPE  H11B11877   2.480   3.579   2.695 -1.4629 -0.5202 -0.7594
  114SAPE     P11878   2.467   3.475   2.428  0.2269  0.0110  0.4046
  114SAPE   O1311879   2.423   3.476   2.286 -0.2925 -0.2517  0.3869
  114SAPE   O1411880   2.610   3.464   2.453  0.2805 -0.1601  0.3733
  114SAPE   O1211881   2.411   3.601   2.496  0.1894 -0.0233 -0.0877
  114SAPE   O1111882   2.394   3.354   2.505 -0.1289 -0.0594 -0.6430
  114SAPE    C111883   2.252   3.348   2.505  0.5017  0.3316 -0.2931
  114SAPE    HA11884   2.200   3.438   2.465 -2.3050 -2.2588 -3.0009
  114SAPE    HB11885   2.217   3.281   2.423 -0.8061 -0.1941  0.6682
  114SAPE    C211886   2.176   3.296   2.637  0.4305  0.7648  0.3038
  114SAPE    HS11887   2.068   3.310   2.614  0.6816 -0.4195 -1.8613
  114SAPE   O2111888   2.232   3.371   2.747  0.0821  0.1119 -0.5373
  114SAPE   C2111889   2.147   3.452   2.807 -0.5404  0.1162  0.2967
  114SAPE   O2211890   2.033   3.467   2.778  0.2749 -0.4901 -0.3574
  114SAPE   C2211891   2.225   3.546   2.901  0.3255  0.9612 -0.4082
  114SAPE   H2R11892   2.322   3.498   2.929  0.8041  1.3537 -1.3630
  114SAPE   H2S11893   2.245   3.647   2.861  1.9060  0.7535 -0.2266
  114SAPE    C311894   2.221   3.148   2.656 -0.4112  1.3199 -0.4870
  114SAPE    HX11895   2.331   3.135   2.656 -0.5651 -0.1215 -0.6097
  114SAPE    HY11896   2.169   3.107   2.567  1.0803  2.1480 -1.7876
  114SAPE   O3111897   2.167   3.081   2.771 -0.2759 -0.7778 -0.8300
  114SAPE   C3111898   2.229   3.097   2.893 -0.4489 -0.1118  0.5959
  114SAPE   O3211899   2.327   3.164   2.920  0.0995 -0.3973  0.3015
  114SAPE   C3211900   2.142   3.009   2.986 -0.4060  0.2959 -0.3929
  114SAPE   H2X11901   2.074   2.943   2.928 -1.1209  2.9489 -2.8216
  114SAPE   H2Y11902   2.082   3.084   3.042  0.2212 -0.3749  1.2184
  114SAPE   C2311903   2.143   3.569   3.029 -0.1165  0.0525 -0.4393
  114SAPE   H3R11904   2.051   3.622   2.998 -0.1690  2.1436  2.8499
  114SAPE   H3S11905   2.193   3.639   3.099  0.9046  0.4384 -1.5205
  114SAPE   C2411906   2.109   3.446   3.108 -0.3155 -0.2493  0.7578
  114SAPE   H4R11907   2.031   3.384   3.059  0.7006  0.9122 -2.6090
  114SAPE   H4S11908   2.057   3.477   3.201 -1.6885 -0.9522  0.2599
  114SAPE   C2511909   2.229   3.359   3.140  0.3479  0.0327  0.3218
  114SAPE   H5R11910   2.292   3.336   3.053  1.1058 -2.6390  1.4833
  114SAPE   C2611911   2.261   3.300   3.259  0.4001 -0.1853  0.0086
  114SAPE   H6R11912   2.339   3.225   3.242 -3.1139 -3.4381 -4.0551
  114SAPE   C2711913   2.193   3.315   3.390 -0.1877 -0.0987 -0.2247
  114SAPE   H7R11914   2.177   3.424   3.405 -2.2234  0.1754 -3.3707
  114SAPE   H7S11915   2.259   3.265   3.465  0.5526  0.8574 -0.2216
  114SAPE   C2811916   2.063   3.243   3.394 -0.0450 -0.3641  0.8493
  114SAPE   H8R11917   2.060   3.158   3.324  0.6094  2.4214 -2.8899
  114SAPE   C2911918   1.959   3.266   3.473  0.3009  0.5549  0.2295
  114SAPE   H9R11919   1.889   3.182   3.473  2.3936 -1.3374  2.6210
  114SAPE  C21011920   1.946   3.378   3.581 -0.3817 -0.3949  0.3512
  114SAPE  H10R11921   2.038   3.438   3.600 -1.7401  1.6088  0.7924
  114SAPE  H10S11922   1.922   3.320   3.672 -0.0339 -0.4902  0.3841
  114SAPE  C21111923   1.831   3.472   3.545 -0.8009 -0.4470 -0.1663
  114SAPE  H11R11924   1.856   3.571   3.503 -2.0060 -0.1817 -0.2981
  114SAPE  C21211925   1.703   3.438   3.550 -0.7375 -0.5807  0.7737
  114SAPE  H12R11926   1.632   3.513   3.513 -0.8519 -0.4575  1.2384
  114SAPE  C21311927   1.629   3.314   3.597 -0.4103 -0.7042  0.2267
  114SAPE  H13R11928   1.696   3.242   3.650 -0.6821 -1.3848 -0.3386
  114SAPE  H13S11929   1.592   3.265   3.505  0.6167 -0.7516 -0.1807
  114SAPE  C21411930   1.511   3.354   3.684  0.5475 -0.2461  0.9134
  114SAPE  H14R11931   1.416   3.345   3.629  0.7183  0.1773  0.5483
  114SAPE  C21511932   1.502   3.380   3.819  0.0715  0.6357 -0.6175
  114SAPE  H15R11933   1.407   3.421   3.856 -0.7810 -0.3376 -1.6746
  114SAPE  C21611934   1.618   3.380   3.919 -0.7176  0.3703 -0.1413
  114SAPE  H16R11935   1.714   3.353   3.871 -0.2687 -1.0403  1.4327
  114SAPE  H16S11936   1.600   3.292   3.986 -1.1673 -0.6376 -1.5444
  114SAPE  C21711937   1.628   3.510   3.992  0.1575 -0.3684  0.2384
  114SAPE  H17R11938   1.533   3.533   4.044  0.2159 -2.2898  1.2540
  114SAPE  H17S11939   1.645   3.584   3.910 -1.9584  1.1854  1.0887
  114SAPE  C21811940   1.750   3.522   4.087 -0.0374  0.8979  0.3349
  114SAPE  H18R11941   1.845   3.509   4.032 -0.1993 -0.5655  0.3696
  114SAPE  H18S11942   1.749   3.441   4.163 -0.1501  0.6108  0.0315
  114SAPE  C21911943   1.747   3.653   4.167 -0.1880 -0.4338  0.2913
  114SAPE  H19R11944   1.813   3.639   4.256  1.1066  0.2126 -0.5347
  114SAPE  H19S11945   1.651   3.683   4.213  1.5784  2.6648  2.2815
  114SAPE  C22011946   1.801   3.768   4.097  0.3732 -0.5654  0.0178
  114SAPE  H20R11947   1.780   3.862   4.152  0.9848 -0.6332  0.3701
  114SAPE  H20S11948   1.760   3.773   3.994  0.7741 -1.0522 -0.1729
  114SAPE  H20T11949   1.911   3.753   4.094  0.4110 -0.3816  0.4371
  114SAPE   C3311950   2.238   2.932   3.084  0.0919 -0.8022 -0.5138
  114SAPE   H3X11951   2.276   3.018   3.144 -0.4167 -1.6455  1.0683
  114SAPE   H3Y11952   2.325   2.887   3.032  2.0603  1.7318  0.3552
  114SAPE   C3411953   2.159   2.839   3.177 -0.2752 -0.1083  0.1086
  114SAPE   H4X11954   2.158   2.742   3.123 -1.6317 -0.0267 -0.0601
  114SAPE   H4Y11955   2.057   2.884   3.186  0.5065  1.9017 -0.4841
  114SAPE   C3511956   2.228   2.814   3.315  0.7134  0.2035  0.5947
  114SAPE   H5X11957   2.235   2.915   3.362 -0.3081  0.8574 -0.6253
  114SAPE   H5Y11958   2.331   2.776   3.295  0.9406  0.4954  1.1590
  114SAPE   C3611959   2.148   2.718   3.405 -0.3827  0.0658 -0.3584
  114SAPE   H6X11960   2.124   2.624   3.353 -3.0500  0.5914 -0.2426
  114SAPE   H6Y11961   2.047   2.759   3.427 -0.4374 -0.4145  0.3221
  114SAPE   C3711962   2.212   2.684   3.538  0.2900  0.7952  0.2547
  114SAPE   H7X11963   2.219   2.779   3.593 -2.7593  1.9899 -1.2118
  114SAPE   H7Y11964   2.315   2.647   3.518 -0.6392 -1.4383 -0.7661
  114SAPE   C3811965   2.137   2.574   3.614  0.0708  0.1001  1.1529
  114SAPE   H8X11966   2.134   2.491   3.540  0.0787  0.3290  0.8974
  114SAPE   H8Y11967   2.031   2.604   3.634 -0.7627 -1.7321 -0.1916
  114SAPE   C3911968   2.202   2.527   3.746  0.9383 -0.5524  0.2609
  114SAPE   H9X11969   2.185   2.601   3.827 -0.6590 -0.6059 -0.0010
  114SAPE   H9Y11970   2.310   2.512   3.722  0.1484 -1.7442 -3.1625
  114SAPE  C31011971   2.156   2.395   3.808  0.9233 -0.3668 -0.4498
  114SAPE  H10X11972   2.177   2.312   3.737  0.8705  1.2496 -2.4672
  114SAPE  H10Y11973   2.051   2.396   3.844  1.3728 -1.8888  1.0218
  114SAPE  C31111974   2.246   2.366   3.935 -0.0393 -0.2550  1.0727
  114SAPE  H11X11975   2.228   2.444   4.013  0.9022 -0.2324  1.2864
  114SAPE  H11Y11976   2.353   2.392   3.916 -0.6140  1.1525 -0.4666
  114SAPE  C31211977   2.222   2.228   3.999 -0.1708  0.3494  0.1040
  114SAPE  H12X11978   2.318   2.191   4.041 -1.6034 -0.0589  3.3283
  114SAPE  H12Y11979   2.191   2.166   3.912 -1.6760  1.5513 -0.2473
  114SAPE  C31311980   2.117   2.226   4.108  0.1486 -0.3373  0.4423
  114SAPE  H13X11981   2.080   2.122   4.101  1.7281 -0.8797 -0.3727
  114SAPE  H13Y11982   2.035   2.297   4.083  2.7683  2.9039  0.3557
  114SAPE  C31411983   2.172   2.236   4.256  0.0334  0.0352  0.3302
  114SAPE  H14X11984   2.224   2.333   4.271  0.7412 -0.1424 -0.8267
  114SAPE  H14Y11985   2.263   2.177   4.280  1.1179  0.9726 -1.2351
  114SAPE  C31511986   2.062   2.200   4.359 -0.3453  0.4037  0.4824
  114SAPE  H15X11987   2.029   2.096   4.339  1.4235 -0.3447  1.1581
  114SAPE  H15Y11988   1.978   2.268   4.336 -1.2389  0.1209  2.6880
  114SAPE  C31611989   2.101   2.229   4.506  0.0688 -0.5607  0.2969
  114SAPE  H16X11990   2.139   2.332   4.527  0.4676 -0.5168 -0.5813
  114SAPE  H16Y11991   2.198   2.179   4.524  1.7677  2.7642  1.1224
  114SAPE  C31711992   1.991   2.187   4.600 -0.3690  0.1709  0.2994
  114SAPE  H17X11993   1.971   2.079   4.582 -1.5832  0.4466 -0.1031
  114SAPE  H17Y11994   1.896   2.242   4.580  0.8176  1.6276 -1.6604
  114SAPE  C31811995   2.023   2.199   4.753 -0.4231  0.4696  0.7321
  114SAPE  H18X11996   1.932   2.185   4.817 -1.2677 -2.4074 -0.9238
  114SAPE  H18Y11997   2.062   2.301   4.771 -0.3906  0.1482  2.8002
  114SAPE  H18Z11998   2.107   2.129   4.772 -1.1509 -0.9418 -0.9579
  115SAPE     N11999   4.922   6.178   1.971 -0.9945  0.0238  1.4154
  115SAPE   HN112000   4.832   6.197   2.020 -1.1443  0.6204  0.9157
  115SAPE   HN212001   4.917   6.220   1.876 -0.9062  0.5376  1.6327
  115SAPE   HN312002   4.936   6.077   1.951 -2.0388 -0.0673  1.0393
  115SAPE   C1212003   5.029   6.229   2.054  0.7356 -0.1824  0.3110
  115SAPE  H12A12004   4.991   6.289   2.139  1.0500 -0.6980  0.8273
  115SAPE  H12B12005   5.102   6.282   1.989 -1.1194  2.2975  0.1368
  115SAPE   C1112006   5.098   6.115   2.129  0.3536 -0.2353  0.7244
  115SAPE  H11A12007   5.025   6.038   2.162  1.6142 -1.5335  0.5130
  115SAPE  H11B12008   5.135   6.154   2.226  2.8522  0.0214 -0.2599
  115SAPE     P12009   5.349   6.101   2.084 -0.2167  0.5449 -0.2077
  115SAPE   O1312010   5.432   6.039   1.978 -0.1771  0.0531 -0.2440
  115SAPE   O1412011   5.342   6.251   2.089  0.0206 -0.2161 -0.0114
  115SAPE   O1212012   5.200   6.055   2.052 -0.4656  0.0608 -0.6613
  115SAPE   O1112013   5.387   6.026   2.219 -0.3694  0.9055 -0.3915
  115SAPE    C112014   5.334   5.896   2.243  0.1803 -0.4823 -0.0404
  115SAPE    HA12015   5.223   5.892   2.243 -0.0456  2.5976  1.6762
  115SAPE    HB12016   5.375   5.826   2.167 -0.9525 -1.6017  0.3459
  115SAPE    C212017   5.384   5.837   2.380  0.4327 -0.1815 -0.4276
  115SAPE    HS12018   5.329   5.741   2.393  1.7735 -0.8981  0.0976
  115SAPE   O2112019   5.353   5.922   2.491 -0.0229 -0.4102 -0.2875
  115SAPE   C2112020   5.232   5.932   2.524 -0.0930 -0.6193 -0.5107
  115SAPE   O2212021   5.138   5.872   2.474  0.0384 -1.3812  0.3208
  115SAPE   C2212022   5.213   6.046   2.633 -0.0541  0.5872  0.2479
  115SAPE   H2R12023   5.312   6.068   2.678  0.5660 -1.1002 -0.2419
  115SAPE   H2S12024   5.186   6.137   2.575  3.2406  0.0980 -2.3506
  115SAPE    C312025   5.530   5.805   2.376  0.7693  0.3367 -0.2907
  115SAPE    HX12026   5.584   5.895   2.341 -0.1317  1.2405  0.5713
  115SAPE    HY12027   5.559   5.716   2.316  0.5821  1.5652 -2.2878
  115SAPE   O3112028   5.577   5.784   2.514  0.1501 -0.1833  0.2658
  115SAPE   C3112029   5.513   5.684   2.585 -0.0371 -0.0309 -0.5687
  115SAPE   O3212030   5.441   5.597   2.548 -0.7215  0.4015 -0.1815
  115SAPE   C3212031   5.547   5.709   2.731 -0.4365  0.7361 -0.8822
  115SAPE   H2X12032   5.467   5.778   2.766 -2.4639 -1.4058 -1.1087
  115SAPE   H2Y12033   5.646   5.759   2.734 -0.2558  0.4109 -1.3587
  115SAPE   C2312034   5.111   5.994   2.746 -0.3860 -0.1688  1.2186
  115SAPE   H3R12035   5.135   5.886   2.761  2.6909  0.0225 -1.3126
  115SAPE   H3S12036   5.009   6.007   2.704 -0.0109  0.8511  0.6078
  115SAPE   C2412037   5.141   6.065   2.879  0.0744 -0.4694  0.6043
  115SAPE   H4R12038   5.250   6.053   2.898  0.0995  1.4011  1.9200
  115SAPE   H4S12039   5.087   6.016   2.963 -1.2577  0.1617  0.1445
  115SAPE   C2512040   5.113   6.209   2.863 -0.3645 -0.1928 -0.3837
  115SAPE   H5R12041   5.157   6.255   2.773 -1.4762  0.8272 -0.4349
  115SAPE   C2612042   5.026   6.282   2.940  0.1743 -0.3504  0.1036
  115SAPE   H6R12043   5.015   6.388   2.913 -0.3858 -0.3866  0.1637
  115SAPE   C2712044   4.961   6.236   3.074  0.2018 -0.5349  0.0647
  115SAPE   H7R12045   4.952   6.324   3.142  3.6840  0.2333 -0.2587
  115SAPE   H7S12046   5.027   6.164   3.127 -1.0726 -1.0664  0.9725
  115SAPE   C2812047   4.824   6.174   3.050 -0.1807  0.0098  0.1914
  115SAPE   H8R12048   4.801   6.129   2.952  2.3706 -1.0833  0.0189
  115SAPE   C2912049   4.729   6.191   3.136 -0.4216 -0.6448 -0.8888
  115SAPE   H9R12050   4.627   6.155   3.117 -0.4424 -0.7135 -0.6480
  115SAPE  C21012051   4.753   6.248   3.277 -1.2407 -0.2189 -0.0088
  115SAPE  H10R12052   4.772   6.357   3.278 -0.4767 -0.3469  0.2524
  115SAPE  H10S12053   4.844   6.203   3.323 -0.0687  2.6583  0.7323
  115SAPE  C21112054   4.628   6.234   3.364 -0.1802  0.0788  0.2238
  115SAPE  H11R12055   4.560   6.320   3.349  0.3772  0.3397 -0.9379
  115SAPE  C21212056   4.584   6.136   3.447  0.3537 -0.0234 -0.3679
  115SAPE  H12R12057   4.499   6.158   3.513 -0.2592  1.3069 -1.5449
  115SAPE  C21312058   4.640   6.000   3.482 -0.2366  0.5560  0.0287
  115SAPE  H13R12059   4.649   6.004   3.593 -1.8076  0.8415  0.1724
  115SAPE  H13S12060   4.746   5.992   3.453 -0.6706  0.3898 -1.6091
  115SAPE  C21412061   4.563   5.881   3.433  0.2380  0.5490  0.4414
  115SAPE  H14R12062   4.517   5.886   3.333 -1.1063 -1.2687  0.9304
  115SAPE  C21512063   4.559   5.762   3.495 -0.3091 -0.0570 -0.8150
  115SAPE  H15R12064   4.518   5.673   3.443 -0.0348 -1.0236  0.5666
  115SAPE  C21612065   4.625   5.739   3.623 -0.0172 -0.1871 -0.0614
  115SAPE  H16R12066   4.700   5.813   3.658 -1.2424  0.3010  1.7224
  115SAPE  H16S12067   4.690   5.650   3.609 -1.2960 -1.3390  0.9587
  115SAPE  C21712068   4.536   5.705   3.740 -0.2897 -0.4579  0.3270
  115SAPE  H17R12069   4.440   5.761   3.734  0.4972  0.8753 -0.2804
  115SAPE  H17S12070   4.582   5.747   3.832  1.2405 -1.5217  0.0905
  115SAPE  C21812071   4.506   5.560   3.756  0.1370 -0.3573 -0.0426
  115SAPE  H18R12072   4.602   5.513   3.785 -0.5341 -0.4678  2.2254
  115SAPE  H18S12073   4.463   5.524   3.660 -0.9286  1.2581 -0.2058
  115SAPE  C21912074   4.396   5.533   3.861  0.4410  0.7182 -0.0568
  115SAPE  H19R12075   4.411   5.425   3.882  0.5575  0.8363  0.4703
  115SAPE  H19S12076   4.295   5.540   3.816 -0.5803  0.8655  2.1435
  115SAPE  C22012077   4.409   5.615   3.984  0.8843  0.3911 -0.1185
  115SAPE  H20R12078   4.412   5.723   3.957  1.8080  0.4436  0.1452
  115SAPE  H20S12079   4.507   5.588   4.030  1.3751  0.6252 -1.0140
  115SAPE  H20T12080   4.318   5.593   4.044 -0.1373 -2.6519 -2.5424
  115SAPE   C3312081   5.547   5.578   2.811 -0.8414  0.5907 -0.3232
  115SAPE   H3X12082   5.622   5.508   2.770 -0.9852 -0.3031  0.8857
  115SAPE   H3Y12083   5.445   5.534   2.814  0.5181 -3.0385 -1.8198
  115SAPE   C3412084   5.577   5.606   2.960 -0.2103 -0.2269  0.1881
  115SAPE   H4X12085   5.525   5.700   2.989 -0.2228  0.7698 -2.7132
  115SAPE   H4Y12086   5.685   5.621   2.977 -0.6508  1.9110  1.3974
  115SAPE   C3512087   5.516   5.487   3.037 -0.7588  0.5800  0.0843
  115SAPE   H5X12088   5.543   5.392   2.984 -2.8570  1.0303 -1.9579
  115SAPE   H5Y12089   5.405   5.491   3.028 -0.8890 -2.5207 -1.0217
  115SAPE   C3612090   5.574   5.477   3.176 -0.1156  0.4453 -0.2505
  115SAPE   H6X12091   5.683   5.494   3.165 -0.2202  1.7477  0.4763
  115SAPE   H6Y12092   5.556   5.373   3.210 -2.1884  0.9344  0.2861
  115SAPE   C3712093   5.515   5.579   3.273 -0.1200  0.5980 -0.0308
  115SAPE   H7X12094   5.408   5.556   3.286 -0.5552  1.3648 -1.8763
  115SAPE   H7Y12095   5.536   5.680   3.229  0.1983  0.1541 -0.9377
  115SAPE   C3812096   5.576   5.569   3.414 -0.3493 -0.7712 -0.6412
  115SAPE   H8X12097   5.590   5.465   3.451  0.2281  0.0375  1.5958
  115SAPE   H8Y12098   5.511   5.628   3.481 -0.2727 -1.0891 -0.2788
  115SAPE   C3912099   5.717   5.623   3.431 -0.3107 -0.1368  0.5285
  115SAPE   H9X12100   5.719   5.727   3.392  2.0012 -0.6636 -1.0032
  115SAPE   H9Y12101   5.778   5.563   3.360 -0.1651 -0.7455  1.1582
  115SAPE  C31012102   5.769   5.626   3.574 -0.7825  0.4244 -0.3212
  115SAPE  H10X12103   5.769   5.525   3.619  0.5184 -1.0402 -3.3975
  115SAPE  H10Y12104   5.706   5.691   3.640 -1.4683 -0.7197  0.1903
  115SAPE  C31112105   5.921   5.668   3.574 -0.5462  0.5574 -0.1791
  115SAPE  H11X12106   5.942   5.771   3.540  0.1795  0.5239  0.1548
  115SAPE  H11Y12107   5.975   5.601   3.504  0.4807 -0.4327  1.4971
  115SAPE  C31212108   5.989   5.648   3.712  0.5387 -0.5727  0.3647
  115SAPE  H12X12109   6.099   5.630   3.708  0.4904 -1.1386  1.2890
  115SAPE  H12Y12110   5.942   5.557   3.753 -0.1425 -0.6080 -0.4778
  115SAPE  C31312111   5.951   5.763   3.809  0.6851  0.2364 -0.1938
  115SAPE  H13X12112   5.840   5.772   3.808  0.7105  0.8796  1.0823
  115SAPE  H13Y12113   5.995   5.856   3.766 -2.3807  2.0894  0.3962
  115SAPE  C31412114   6.021   5.750   3.940 -0.5599  0.7782  0.1357
  115SAPE  H14X12115   6.128   5.775   3.925 -0.2055 -0.5058  0.4124
  115SAPE  H14Y12116   6.019   5.644   3.972 -0.2504  1.1927  1.5725
  115SAPE  C31512117   5.960   5.847   4.039 -0.7302  0.0452 -0.0100
  115SAPE  H15X12118   5.866   5.800   4.072 -1.0003  0.1611 -0.6085
  115SAPE  H15Y12119   5.941   5.936   3.975  1.2523 -0.3031 -1.1676
  115SAPE  C31612120   6.054   5.905   4.148 -0.2335  0.0569 -0.4887
  115SAPE  H16X12121   6.157   5.919   4.108  0.4249 -2.3286  0.2343
  115SAPE  H16Y12122   6.063   5.834   4.232  0.4830  0.7263  0.0193
  115SAPE  C31712123   6.014   6.029   4.228  0.2831 -0.7196  0.5351
  115SAPE  H17X12124   5.993   6.116   4.161 -2.1348 -1.9494 -0.4362
  115SAPE  H17Y12125   6.103   6.060   4.287  1.9196 -0.8139 -1.7602
  115SAPE  C31812126   5.893   6.007   4.320 -0.0027 -0.2105 -0.5626
  115SAPE  H18X12127   5.878   6.100   4.379  0.6599 -1.0940  1.0398
  115SAPE  H18Y12128   5.919   5.918   4.380  2.9840 -1.2541 -3.0847
  115SAPE  H18Z12129   5.799   5.993   4.262  0.1524 -1.7130 -0.4866
  116SAPE     N12130   5.702   6.582   2.307  0.5245 -0.4196  0.2193
  116SAPE   HN112131   5.679   6.485   2.280 -0.1534  0.2711 -1.8722
  116SAPE   HN212132   5.788   6.587   2.365  0.1295  0.0731  0.7874
  116SAPE   HN312133   5.624   6.612   2.369  0.2959  0.8768 -0.6639
  116SAPE   C1212134   5.704   6.673   2.183 -0.0441  0.4731  0.4991
  116SAPE  H12A12135   5.628   6.625   2.118 -0.3666  0.4515  0.8910
  116SAPE  H12B12136   5.797   6.653   2.125  0.8207  1.0335  1.6408
  116SAPE   C1112137   5.680   6.813   2.212 -0.1605 -0.0429  0.3578
  116SAPE  H11A12138   5.697   6.871   2.119 -1.8035  0.7414  0.5034
  116SAPE  H11B12139   5.748   6.851   2.291  0.2477 -0.1738  0.0698
  116SAPE     P12140   5.420   6.809   2.167  0.4323 -0.2558 -0.0019
  116SAPE   O1312141   5.329   6.917   2.210  0.1579  0.7890  0.3303
  116SAPE   O1412142   5.449   6.778   2.023  0.1289 -0.3023  0.6985
  116SAPE   O1212143   5.548   6.838   2.253  0.1303 -0.2143 -0.3324
  116SAPE   O1112144   5.364   6.673   2.229 -0.9247  0.4468 -0.3636
  116SAPE    C112145   5.277   6.686   2.338 -0.4279 -0.2119 -0.2778
  116SAPE    HA12146   5.328   6.726   2.429  0.1462  0.4235 -0.8686
  116SAPE    HB12147   5.189   6.747   2.309  1.1140  2.4980  0.3676
  116SAPE    C212148   5.214   6.547   2.380 -0.5952 -0.4815 -0.3520
  116SAPE    HS12149   5.182   6.495   2.287 -1.4353 -0.1274 -0.2740
  116SAPE   O2112150   5.096   6.560   2.462 -0.6532  0.6867 -0.2591
  116SAPE   C2112151   5.034   6.442   2.467 -0.2104  0.7609 -0.2658
  116SAPE   O2212152   5.055   6.340   2.398  0.2201 -0.7004 -0.4058
  116SAPE   C2212153   4.931   6.441   2.580 -0.0027 -0.5830 -0.2909
  116SAPE   H2R12154   4.970   6.494   2.670 -1.1667  0.2101 -0.2320
  116SAPE   H2S12155   4.844   6.496   2.538 -0.3006 -2.1539 -1.8462
  116SAPE    C312156   5.331   6.471   2.458  0.5269 -0.6652 -0.0159
  116SAPE    HX12157   5.427   6.465   2.402  0.4217 -1.4798 -0.1258
  116SAPE    HY12158   5.306   6.363   2.463  0.2333 -0.6669 -1.1764
  116SAPE   O3112159   5.354   6.522   2.594 -0.1209 -0.5881 -0.3445
  116SAPE   C3112160   5.459   6.600   2.613  0.6561 -0.2800  0.0018
  116SAPE   O3212161   5.539   6.647   2.532  0.4103 -0.4203 -0.0438
  116SAPE   C3212162   5.476   6.612   2.765  0.5272  0.0715  0.2753
  116SAPE   H2X12163   5.459   6.715   2.803 -0.4744 -0.9396  2.7968
  116SAPE   H2Y12164   5.583   6.602   2.793  0.4792  1.1153  0.8632
  116SAPE   C2312165   4.877   6.298   2.595 -0.1208 -0.2011 -0.5479
  116SAPE   H3R12166   4.956   6.224   2.624  1.0694  1.0218 -0.5623
  116SAPE   H3S12167   4.834   6.255   2.502  1.0410 -2.6612 -0.0379
  116SAPE   C2412168   4.757   6.289   2.697 -0.1261 -0.2359 -0.2473
  116SAPE   H4R12169   4.811   6.307   2.792  0.4502  1.5385 -0.8743
  116SAPE   H4S12170   4.721   6.185   2.680 -2.1372 -0.0479  2.2791
  116SAPE   C2512171   4.639   6.379   2.681 -0.7719  0.2137  0.4985
  116SAPE   H5R12172   4.582   6.369   2.587 -1.5997 -0.9935  1.1060
  116SAPE   C2612173   4.591   6.468   2.764 -0.2302 -0.3146  0.0698
  116SAPE   H6R12174   4.517   6.539   2.724 -1.5560 -1.9316 -0.4753
  116SAPE   C2712175   4.649   6.508   2.896 -0.1356 -0.5362  0.2154
  116SAPE   H7R12176   4.759   6.494   2.885 -0.1292 -0.7741  0.5679
  116SAPE   H7S12177   4.612   6.440   2.976 -0.4501 -1.5667 -0.7740
  116SAPE   C2812178   4.632   6.649   2.939 -0.2598  0.2827 -0.4587
  116SAPE   H8R12179   4.704   6.720   2.896  1.2165  1.1398  3.0954
  116SAPE   C2912180   4.547   6.711   3.028  0.9588  0.3992 -0.3687
  116SAPE   H9R12181   4.564   6.813   3.063  1.4337  0.1038  0.2708
  116SAPE  C21012182   4.450   6.643   3.118  0.6034 -0.0071  0.3643
  116SAPE  H10R12183   4.466   6.679   3.222 -0.7925  1.9867 -0.0514
  116SAPE  H10S12184   4.476   6.535   3.121  0.4597 -0.0749 -0.6049
  116SAPE  C21112185   4.313   6.673   3.063 -0.5642  0.0929  0.0683
  116SAPE  H11R12186   4.275   6.604   2.986  1.2835 -0.1960 -0.6377
  116SAPE  C21212187   4.242   6.788   3.071 -0.0894 -0.2088  0.2532
  116SAPE  H12R12188   4.147   6.813   3.021  0.3184  0.6611 -0.1091
  116SAPE  C21312189   4.280   6.892   3.176  0.1517 -0.2760  0.4465
  116SAPE  H13R12190   4.387   6.887   3.207  0.2064 -1.5588  0.1103
  116SAPE  H13S12191   4.220   6.865   3.265 -0.1303 -3.3403 -0.5425
  116SAPE  C21412192   4.259   7.028   3.117  0.6668 -0.6727 -0.1851
  116SAPE  H14R12193   4.330   7.054   3.037 -0.9179  0.6198 -1.2507
  116SAPE  C21512194   4.175   7.126   3.157 -0.6140 -0.2744 -0.5493
  116SAPE  H15R12195   4.183   7.222   3.103 -0.2684  0.2104  0.3205
  116SAPE  C21612196   4.077   7.115   3.277 -0.5194  0.9112 -0.8128
  116SAPE  H16R12197   4.049   7.008   3.289 -1.2717  1.3622  2.2933
  116SAPE  H16S12198   3.978   7.166   3.270 -0.4503  1.5776  1.8696
  116SAPE  C21712199   4.143   7.156   3.411  0.4070  0.2417 -0.5790
  116SAPE  H17R12200   4.147   7.266   3.405 -0.5193  0.1992 -3.1025
  116SAPE  H17S12201   4.236   7.104   3.443  0.1233 -0.2679 -0.5564
  116SAPE  C21812202   4.054   7.123   3.537  0.2450  0.3287  0.4681
  116SAPE  H18R12203   4.023   7.016   3.536 -1.6757  0.8322 -1.6358
  116SAPE  H18S12204   3.957   7.177   3.536  0.3762  0.5815 -1.1198
  116SAPE  C21912205   4.117   7.148   3.672 -0.1530 -0.3215 -0.3348
  116SAPE  H19R12206   4.176   7.243   3.679  0.6436 -0.8071 -0.2836
  116SAPE  H19S12207   4.198   7.072   3.679  0.3754  0.0537 -1.8374
  116SAPE  C22012208   4.025   7.129   3.795  0.4833 -0.0919 -0.1860
  116SAPE  H20R12209   3.970   7.032   3.797 -4.1418  2.2671  0.0915
  116SAPE  H20S12210   3.943   7.204   3.793 -0.1626 -0.7428  0.6431
  116SAPE  H20T12211   4.088   7.131   3.886 -1.0717 -2.8104  1.0665
  116SAPE   C3312212   5.383   6.523   2.851 -0.1942  0.0216  0.5147
  116SAPE   H3X12213   5.428   6.423   2.834  0.6611  0.6555 -1.1545
  116SAPE   H3Y12214   5.284   6.531   2.803  0.4720  1.5826 -0.7030
  116SAPE   C3412215   5.391   6.553   2.997  0.9140 -0.3836  0.0961
  116SAPE   H4X12216   5.364   6.660   3.000 -0.9361 -0.7866 -0.6054
  116SAPE   H4Y12217   5.494   6.531   3.031  0.9270 -0.8105 -0.2026
  116SAPE   C3512218   5.287   6.482   3.078  0.2154 -0.2700  0.4650
  116SAPE   H5X12219   5.294   6.372   3.067 -0.3722 -0.2970  0.3576
  116SAPE   H5Y12220   5.188   6.511   3.037  0.2722  0.8604  1.0790
  116SAPE   C3612221   5.275   6.522   3.223 -0.0686  0.3787  0.2008
  116SAPE   H6X12222   5.275   6.633   3.235  0.9245  0.2586  1.4498
  116SAPE   H6Y12223   5.374   6.491   3.261  0.6758 -0.2979 -2.1200
  116SAPE   C3712224   5.158   6.451   3.297  0.2162 -0.1350  0.1147
  116SAPE   H7X12225   5.169   6.341   3.292  1.3664 -0.0729  0.7826
  116SAPE   H7Y12226   5.061   6.470   3.247 -0.4095  0.7064  1.5846
  116SAPE   C3812227   5.150   6.492   3.443  0.5245  0.8336  0.1721
  116SAPE   H8X12228   5.139   6.603   3.449  0.9623  1.0725 -2.3732
  116SAPE   H8Y12229   5.246   6.470   3.493  2.1082 -0.2677 -3.0692
  116SAPE   C3912230   5.033   6.419   3.516  0.0796  0.1783 -0.3496
  116SAPE   H9X12231   4.945   6.402   3.450  0.4999 -0.8685 -0.6654
  116SAPE   H9Y12232   4.999   6.465   3.612  1.9463 -1.4633  1.1995
  116SAPE  C31012233   5.076   6.276   3.565 -0.0136  0.7379 -0.7676
  116SAPE  H10X12234   5.149   6.293   3.647  0.7661  0.9049 -1.4769
  116SAPE  H10Y12235   5.113   6.213   3.481  0.4816  0.7625 -0.5697
  116SAPE  C31112236   4.963   6.195   3.625  0.9335 -0.2746  0.2631
  116SAPE  H11X12237   4.884   6.172   3.550  0.3630  0.9894  0.4462
  116SAPE  H11Y12238   4.913   6.258   3.703 -2.4317 -0.6281 -1.4129
  116SAPE  C31212239   5.005   6.066   3.697 -0.8247  0.1965  0.1391
  116SAPE  H12X12240   5.099   6.066   3.756 -0.5718  1.4846 -0.2469
  116SAPE  H12Y12241   5.035   6.000   3.613 -2.5845 -0.5018  0.0054
  116SAPE  C31312242   4.892   5.995   3.774 -0.1018 -0.0946 -0.2382
  116SAPE  H13X12243   4.901   5.889   3.741 -0.2183  0.3477 -1.7729
  116SAPE  H13Y12244   4.796   6.036   3.735 -1.8008 -0.8307  2.8126
  116SAPE  C31412245   4.918   6.007   3.918 -0.1697  0.0229 -0.3270
  116SAPE  H14X12246   4.933   6.114   3.945 -0.7462  0.4265 -1.5624
  116SAPE  H14Y12247   5.009   5.951   3.948 -0.0031  0.4412 -0.0387
  116SAPE  C31512248   4.798   5.964   4.007  0.3013  0.3839 -0.0447
  116SAPE  H15X12249   4.794   5.853   4.003  0.5092  0.3135  1.3382
  116SAPE  H15Y12250   4.705   6.004   3.960 -0.2458  0.6249  1.2186
  116SAPE  C31612251   4.803   6.012   4.153 -0.1205 -0.3089 -1.0297
  116SAPE  H16X12252   4.710   5.981   4.205  0.4158 -2.0232 -1.0238
  116SAPE  H16Y12253   4.804   6.123   4.155 -0.3680 -0.3076 -0.9437
  116SAPE  C31712254   4.929   5.957   4.233 -0.4558  0.3891 -0.3889
  116SAPE  H17X12255   5.021   5.980   4.174  1.0861 -0.5419  1.5578
  116SAPE  H17Y12256   4.922   5.846   4.229  1.8356  0.1659  0.5101
  116SAPE  C31812257   4.954   6.011   4.372  0.9695 -0.2843  0.3394
  116SAPE  H18X12258   5.051   5.977   4.414 -0.1437  0.8357  4.2745
  116SAPE  H18Y12259   4.872   5.986   4.443  0.0075 -0.9547 -0.9737
  116SAPE  H18Z12260   4.944   6.122   4.376  0.9857 -0.2962  0.8275
  117SOPE     N12261   5.355   3.158   6.577 -0.4623 -0.3235 -0.3369
  117SOPE   HN112262   5.271   3.098   6.569 -0.8033  0.2253 -0.9679
  117SOPE   HN212263   5.355   3.239   6.511  0.0539  2.3030  2.6465
  117SOPE   HN312264   5.440   3.097   6.575  0.9241  1.5251 -1.7785
  117SOPE   C1212265   5.355   3.237   6.700  0.2485 -0.0200 -0.6734
  117SOPE  H12A12266   5.255   3.268   6.739  0.1460 -0.6965 -0.3981
  117SOPE  H12B12267   5.401   3.337   6.680 -2.7435  1.7092  0.3247
  117SOPE   C1112268   5.414   3.154   6.811  0.2566 -0.4720  0.1423
  117SOPE  H11A12269   5.345   3.068   6.822 -1.6898  1.0289  0.2121
  117SOPE  H11B12270   5.406   3.214   6.904 -2.0794 -1.9822  0.9977
  117SOPE     P12271   5.584   2.964   6.740  0.0277 -0.1875 -0.1042
  117SOPE   O1312272   5.507   2.879   6.833 -0.0958  0.2018  0.1183
  117SOPE   O1412273   5.728   2.958   6.735 -0.6148 -0.1571 -0.0580
  117SOPE   O1212274   5.549   3.116   6.782 -0.0152 -0.1762 -0.2185
  117SOPE   O1112275   5.525   2.953   6.595 -0.1873 -0.0771  0.2251
  117SOPE    C112276   5.479   2.828   6.545 -0.5890 -0.5003  0.1258
  117SOPE    HA12277   5.395   2.842   6.474 -0.1488 -0.2039 -0.3360
  117SOPE    HB12278   5.429   2.762   6.620 -0.0494 -0.3877  0.5879
  117SOPE    C212279   5.590   2.747   6.466  0.0741  0.6545 -0.0303
  117SOPE    HS12280   5.678   2.726   6.531  0.4410  2.1484 -0.0141
  117SOPE   O2112281   5.613   2.823   6.344 -0.0281 -0.4731  0.0534
  117SOPE   C2112282   5.737   2.841   6.315  0.5632 -0.0671 -0.2233
  117SOPE   O2212283   5.834   2.785   6.370  0.0564 -0.2587  0.3404
  117SOPE   C2212284   5.763   2.927   6.186 -0.6671 -0.3625  0.3677
  117SOPE   H2R12285   5.854   2.981   6.219  0.3642 -1.8876  0.1446
  117SOPE   H2S12286   5.691   3.010   6.170  1.7196  1.6832 -0.3108
  117SOPE    C312287   5.533   2.608   6.425 -0.1959  0.0163  0.4660
  117SOPE    HX12288   5.432   2.629   6.383 -0.2021  0.0612  0.5033
  117SOPE    HY12289   5.506   2.549   6.516  1.0854  0.1973  0.9775
  117SOPE   O3112290   5.630   2.542   6.339 -0.4611 -0.9737 -0.8477
  117SOPE   C3112291   5.708   2.448   6.394  0.0232 -0.0546 -0.0430
  117SOPE   O3212292   5.709   2.416   6.512 -0.2425  1.1552 -0.1977
  117SOPE   C3212293   5.802   2.378   6.289  0.4511 -0.0651  0.3742
  117SOPE   H2X12294   5.742   2.334   6.206  0.2803  0.8860 -0.0223
  117SOPE   H2Y12295   5.867   2.298   6.330  0.7388 -1.2266 -2.1372
  117SOPE   C2312296   5.793   2.851   6.057  0.4359 -0.1722  0.2905
  117SOPE   H3R12297   5.844   2.754   6.071  0.1036 -0.3819  0.0550
  117SOPE   H3S12298   5.866   2.910   5.997 -0.1618  0.0681 -0.2214
  117SOPE   C2412299   5.669   2.826   5.970  0.1437 -0.6231  0.3245
  117SOPE   H4R12300   5.599   2.754   6.016 -0.5479 -0.1476  0.0365
  117SOPE   H4S12301   5.610   2.920   5.964  1.0692 -0.0906 -1.0271
  117SOPE   C2512302   5.709   2.782   5.829 -0.5082  0.7194 -0.3707
  117SOPE   H5R12303   5.773   2.861   5.784 -1.1537  1.1544 -0.5255
  117SOPE   H5S12304   5.767   2.687   5.825  0.1343  1.0853  0.0464
  117SOPE   C2612305   5.589   2.777   5.733 -0.1207  0.2103 -0.2833
  117SOPE   H6R12306   5.499   2.719   5.764 -1.1397  0.4319 -2.6346
  117SOPE   H6S12307   5.555   2.882   5.717  0.1929  0.0425 -2.2559
  117SOPE   C2712308   5.633   2.724   5.599  0.5495  0.0387  0.2814
  117SOPE   H7R12309   5.732   2.769   5.574 -0.6382  2.7302  0.1233
  117SOPE   H7S12310   5.638   2.613   5.606 -1.2708 -0.0310  1.0260
  117SOPE   C2812311   5.531   2.754   5.496  0.5763  1.0749 -0.0528
  117SOPE   H8R12312   5.433   2.711   5.526  0.5855  1.1681  0.1128
  117SOPE   H8S12313   5.510   2.860   5.473 -1.2223  0.0848 -3.6773
  117SOPE   C2912314   5.561   2.692   5.359  0.8663  0.2451 -0.7984
  117SOPE   H9112315   5.667   2.706   5.332  0.8380 -1.0584 -1.7111
  117SOPE  C21012316   5.482   2.646   5.262  0.3762 -0.1415 -0.6555
  117SOPE  H10112317   5.532   2.595   5.179  3.1939  0.7299  0.3934
  117SOPE  C21112318   5.335   2.640   5.260 -0.4377  0.4110 -0.0431
  117SOPE  H11R12319   5.279   2.696   5.338 -1.5615  1.7597 -1.7324
  117SOPE  H11S12320   5.308   2.533   5.270 -0.3466  0.4436  0.5521
  117SOPE  C21212321   5.283   2.699   5.121 -0.6081 -0.1890 -0.0755
  117SOPE  H12R12322   5.330   2.631   5.047  0.6085 -0.3477  0.8266
  117SOPE  H12S12323   5.326   2.797   5.090  2.9660 -0.0902  4.2422
  117SOPE  C21312324   5.128   2.687   5.110  0.6274  0.6439  0.4556
  117SOPE  H13R12325   5.074   2.753   5.180 -2.5555 -0.4021 -0.8361
  117SOPE  H13S12326   5.110   2.581   5.136  0.1462  0.6058 -0.0243
  117SOPE  C21412327   5.077   2.701   4.967 -0.7170 -0.2409  0.2312
  117SOPE  H14R12328   4.981   2.645   4.961  0.0302 -1.4779 -0.5336
  117SOPE  H14S12329   5.155   2.668   4.895 -0.7630 -1.0098  0.5232
  117SOPE  C21512330   5.034   2.843   4.922 -0.4037  0.0875 -0.1147
  117SOPE  H15R12331   5.004   2.839   4.815 -1.8070 -0.7767  0.2902
  117SOPE  H15S12332   5.111   2.924   4.923 -0.8571  0.5278 -0.4634
  117SOPE  C21612333   4.908   2.884   5.003  0.3210 -0.0817 -0.2869
  117SOPE  H16R12334   4.941   2.931   5.098  0.5780  1.0652 -0.9244
  117SOPE  H16S12335   4.849   2.792   5.021  2.1760 -1.2622 -0.0031
  117SOPE  C21712336   4.840   2.995   4.927 -0.5118 -0.6619 -0.1347
  117SOPE  H17R12337   4.803   2.943   4.835  0.8038  1.5808 -2.0521
  117SOPE  H17S12338   4.909   3.075   4.892 -1.2552 -0.8098 -2.0819
  117SOPE  C21812339   4.727   3.049   5.008 -0.2604  0.6063  0.0098
  117SOPE  H18R12340   4.640   3.079   4.946 -0.4309  1.4794  0.6433
  117SOPE  H18S12341   4.747   3.137   5.072 -1.4469 -0.3234  1.7420
  117SOPE  H18T12342   4.681   2.976   5.077 -0.2908  0.7896  0.1857
  117SOPE   C3312343   5.903   2.488   6.237 -0.3286 -0.3789 -0.4659
  117SOPE   H3X12344   5.965   2.526   6.321  0.0318 -0.7598 -0.5531
  117SOPE   H3Y12345   5.853   2.568   6.178  2.0419  0.5383 -1.3624
  117SOPE   C3412346   5.999   2.415   6.141  0.2339 -0.0023  1.3445
  117SOPE   H4X12347   6.052   2.329   6.188  1.5406 -0.0656 -0.1750
  117SOPE   H4Y12348   6.074   2.494   6.119  2.0942 -1.8358  0.8075
  117SOPE   C3512349   5.938   2.366   6.005 -0.4738  0.0381  0.0902
  117SOPE   H5X12350   5.919   2.456   5.942  0.4221  1.6556  2.0233
  117SOPE   H5Y12351   5.850   2.305   6.035  0.3469 -0.2890  1.9452
  117SOPE   C3612352   6.045   2.288   5.923 -0.0156  0.3958 -0.1286
  117SOPE   H6X12353   6.075   2.201   5.984 -1.5963 -0.9314 -1.1414
  117SOPE   H6Y12354   6.130   2.359   5.915  0.2426  0.2518  1.2155
  117SOPE   C3712355   6.007   2.233   5.779  0.0285  0.2677  0.6495
  117SOPE   H7X12356   5.944   2.308   5.727 -0.2818 -2.3611 -3.1836
  117SOPE   H7Y12357   5.942   2.146   5.803  1.0118 -0.5138  0.5454
  117SOPE   C3812358   6.138   2.209   5.690 -0.0092 -0.1331 -0.6618
  117SOPE   H8X12359   6.212   2.158   5.754  1.5123  1.6515 -0.9230
  117SOPE   H8Y12360   6.185   2.309   5.675 -0.7819  0.1347 -1.4558
  117SOPE   C3912361   6.104   2.156   5.548 -0.1459  0.3677 -0.3546
  117SOPE   H9X12362   6.026   2.223   5.506  0.2499  1.3716  0.4621
  117SOPE   H9Y12363   6.056   2.056   5.561  2.5916 -1.1161 -0.8943
  117SOPE  C31012364   6.228   2.137   5.461 -0.4352  0.0374  0.8218
  117SOPE  H10X12365   6.307   2.130   5.539  0.5894  1.1307 -0.0687
  117SOPE  H10Y12366   6.240   2.236   5.411 -0.6548  0.9209  2.4620
  117SOPE  C31112367   6.209   2.020   5.358  0.6592  0.1551  0.2902
  117SOPE  H11X12368   6.185   1.926   5.412  0.0340 -0.3678 -0.8502
  117SOPE  H11Y12369   6.304   1.998   5.304  0.9676  0.6529  0.6224
  117SOPE  C31212370   6.091   2.057   5.264 -0.5536  0.8938 -0.0150
  117SOPE  H12X12371   6.114   2.158   5.223 -1.7620  1.9707  1.8005
  117SOPE  H12Y12372   6.002   2.075   5.328 -0.0939 -1.1692  1.3215
  117SOPE  C31312373   6.082   1.951   5.159 -0.0839  0.2772  0.0189
  117SOPE  H13X12374   6.089   1.847   5.198 -1.9956 -0.2644 -0.9654
  117SOPE  H13Y12375   6.174   1.969   5.098 -1.9397  1.2846 -2.6682
  117SOPE  C31412376   5.953   1.969   5.074  0.2260  0.3903  0.0646
  117SOPE  H14X12377   5.951   2.072   5.033 -1.0511  0.7223  0.9082
  117SOPE  H14Y12378   5.862   1.956   5.135  1.1798 -4.3655  0.9047
  117SOPE  C31512379   5.958   1.862   4.960 -0.0689  0.3218 -0.3281
  117SOPE  H15X12380   5.859   1.831   4.921  0.2392 -2.2112  0.7348
  117SOPE  H15Y12381   5.986   1.773   5.020  0.8388  0.3385 -0.7095
  117SOPE  C31612382   6.058   1.904   4.848  0.5125  0.5731  0.3178
  117SOPE  H16X12383   6.096   1.807   4.810 -1.7993 -0.3656  0.2240
  117SOPE  H16Y12384   6.142   1.964   4.891  2.0104 -1.8815  1.0270
  117SOPE  C31712385   5.987   1.968   4.733 -0.4051 -0.3126  0.2018
  117SOPE  H17X12386   5.948   2.070   4.756 -1.4412 -0.9285  1.2965
  117SOPE  H17Y12387   5.896   1.911   4.704  0.0138  0.2980 -2.7003
  117SOPE  C31812388   6.074   1.980   4.606 -0.7816 -0.5322 -0.1473
  117SOPE  H18X12389   6.082   1.877   4.565 -0.1328 -1.6588  2.5298
  117SOPE  H18Y12390   6.172   2.022   4.636 -0.6273 -1.5397  0.8330
  117SOPE  H18Z12391   6.026   2.046   4.531  0.4666  2.2882  1.3793
  118SOPE     N12392   4.889   5.965   6.939  0.2777  0.0400  0.2470
  118SOPE   HN112393   4.977   5.946   6.885 -0.3210  0.6170 -0.9692
  118SOPE   HN212394   4.837   6.015   6.865 -0.3108 -3.3181 -1.8348
  118SOPE   HN312395   4.907   6.032   7.016  1.2750  1.9400 -1.5572
  118SOPE   C1212396   4.813   5.841   6.972 -0.9472  0.5874 -0.1842
  118SOPE  H12A12397   4.768   5.804   6.877  1.8220  0.9862 -1.7441
  118SOPE  H12B12398   4.724   5.874   7.031 -0.4213  0.7566  0.5212
  118SOPE   C1112399   4.909   5.749   7.048  0.2184 -0.1153 -0.6494
  118SOPE  H11A12400   4.854   5.667   7.099  0.5134 -1.4009 -2.3225
  118SOPE  H11B12401   4.961   5.793   7.136  1.2899 -2.5061 -0.0186
  118SOPE     P12402   4.967   5.580   6.864  0.3890  0.0584 -0.1766
  118SOPE   O1312403   4.831   5.528   6.894  0.7004  0.3446 -0.1097
  118SOPE   O1412404   5.074   5.484   6.874 -0.1316  0.0387  0.0843
  118SOPE   O1212405   5.010   5.704   6.961 -0.3757  0.0632  0.2073
  118SOPE   O1112406   4.967   5.643   6.717  0.1573  0.3332 -0.0698
  118SOPE    C112407   4.853   5.643   6.634  0.0058  0.0368  0.2787
  118SOPE    HA12408   4.865   5.723   6.558  1.6366 -0.7266 -0.3240
  118SOPE    HB12409   4.760   5.673   6.687 -0.5152  1.7242 -1.4545
  118SOPE    C212410   4.821   5.509   6.553  0.0106  0.0686 -0.0657
  118SOPE    HS12411   4.790   5.438   6.632 -3.1480  0.5411 -0.7562
  118SOPE   O2112412   4.933   5.467   6.471  0.3968 -0.7831 -0.3407
  118SOPE   C2112413   4.932   5.340   6.435 -0.1960 -0.1663 -0.6867
  118SOPE   O2212414   4.842   5.266   6.468  0.1118  0.5110 -0.5558
  118SOPE   C2212415   5.053   5.301   6.339 -0.7599  0.6076 -0.1245
  118SOPE   H2R12416   5.035   5.197   6.305 -0.5727  1.4224 -2.9057
  118SOPE   H2S12417   5.145   5.318   6.400 -0.7049 -0.0509 -0.0236
  118SOPE    C312418   4.694   5.526   6.456  0.1980 -0.0582 -0.0696
  118SOPE    HX12419   4.616   5.559   6.528  0.1068  0.5785 -0.4590
  118SOPE    HY12420   4.666   5.428   6.413  0.1825 -0.5638  1.0487
  118SOPE   O3112421   4.710   5.641   6.364  0.2212  0.7923 -0.0661
  118SOPE   C3112422   4.745   5.603   6.237  0.2535  0.2742 -0.1762
  118SOPE   O3212423   4.748   5.487   6.194  0.1591  0.4200  0.1300
  118SOPE   C3212424   4.808   5.720   6.162  0.2480 -0.4928  0.0226
  118SOPE   H2X12425   4.873   5.776   6.232 -1.9922 -0.2062  2.0467
  118SOPE   H2Y12426   4.727   5.790   6.133  2.1623  1.7167 -0.2741
  118SOPE   C2312427   5.064   5.397   6.218 -0.0574  0.8370 -0.5488
  118SOPE   H3R12428   5.055   5.504   6.248 -0.2756  1.6149 -3.1056
  118SOPE   H3S12429   4.971   5.377   6.160 -1.2892 -0.0089  1.5926
  118SOPE   C2412430   5.195   5.365   6.140 -0.4948  0.4200  0.7808
  118SOPE   H4R12431   5.280   5.397   6.204  0.7648 -0.2508 -0.4838
  118SOPE   H4S12432   5.198   5.254   6.140 -1.0603  0.3543  2.9108
  118SOPE   C2512433   5.192   5.422   5.998  0.8567 -0.6449  0.2286
  118SOPE   H5R12434   5.096   5.398   5.949 -0.1019  1.3922  0.9978
  118SOPE   H5S12435   5.195   5.533   6.004 -0.2634 -0.4774 -1.6296
  118SOPE   C2612436   5.298   5.369   5.900 -0.3734 -0.6549 -0.8840
  118SOPE   H6R12437   5.399   5.392   5.939  0.6499 -2.0204 -2.6180
  118SOPE   H6S12438   5.275   5.262   5.880  0.4138 -1.0470  0.2135
  118SOPE   C2712439   5.277   5.440   5.764 -0.2455 -1.3821  0.3653
  118SOPE   H7R12440   5.180   5.448   5.710  0.6066  1.4914 -0.9435
  118SOPE   H7S12441   5.311   5.546   5.768 -0.7491 -1.0679 -2.0361
  118SOPE   C2812442   5.363   5.386   5.656 -0.1119  0.9072 -0.1494
  118SOPE   H8R12443   5.345   5.452   5.568  0.0513  0.0753 -0.8148
  118SOPE   H8S12444   5.471   5.388   5.682 -0.1105 -1.9370  0.3187
  118SOPE   C2912445   5.328   5.242   5.615 -0.7176  0.4903  0.1499
  118SOPE   H9112446   5.396   5.159   5.641 -2.0414 -0.4103  0.8299
  118SOPE  C21012447   5.231   5.205   5.527 -0.5135  0.2016 -0.1446
  118SOPE  H10112448   5.209   5.102   5.496  0.6771 -0.1457  0.1016
  118SOPE  C21112449   5.143   5.311   5.456 -0.7120  1.0412  0.0327
  118SOPE  H11R12450   5.182   5.413   5.476 -0.9616  1.0093  0.7448
  118SOPE  H11S12451   5.040   5.295   5.495 -1.2459  0.1833 -1.6564
  118SOPE  C21212452   5.145   5.282   5.302 -0.5107  0.5303 -0.1371
  118SOPE  H12R12453   5.062   5.336   5.252 -0.5878  0.9107  0.4003
  118SOPE  H12S12454   5.124   5.176   5.276 -3.1221  1.3404 -1.7008
  118SOPE  C21312455   5.269   5.347   5.235  0.6359 -0.4730  0.3465
  118SOPE  H13R12456   5.365   5.301   5.267  0.4358 -0.5371  0.8719
  118SOPE  H13S12457   5.267   5.456   5.257 -0.4196 -0.1036 -1.3513
  118SOPE  C21412458   5.243   5.349   5.083 -0.2331  0.5004 -0.0008
  118SOPE  H14R12459   5.300   5.418   5.018 -1.5033  0.1530 -1.5309
  118SOPE  H14S12460   5.141   5.389   5.063 -1.4499 -2.5927 -0.6476
  118SOPE  C21512461   5.252   5.206   5.024  0.2360  0.0289 -0.3199
  118SOPE  H15R12462   5.152   5.175   4.988  0.6386 -0.6745 -0.8564
  118SOPE  H15S12463   5.285   5.139   5.106 -1.4992  0.2609  0.6044
  118SOPE  C21612464   5.328   5.196   4.895 -1.0376  0.3943 -0.7052
  118SOPE  H16R12465   5.432   5.228   4.916 -1.4414  2.1432 -1.1678
  118SOPE  H16S12466   5.282   5.263   4.819  0.4620  2.3860  0.0532
  118SOPE  C21712467   5.331   5.052   4.850  0.1094  0.1951  0.6101
  118SOPE  H17R12468   5.228   5.017   4.829  0.6064  0.3155 -2.5543
  118SOPE  H17S12469   5.351   4.981   4.933 -1.6858  1.2086  1.9824
  118SOPE  C21812470   5.421   5.032   4.728  0.5158  0.0844  0.2695
  118SOPE  H18R12471   5.409   4.929   4.687  0.2587  0.5566 -0.8597
  118SOPE  H18S12472   5.519   5.066   4.768 -0.0020  2.8080 -0.6072
  118SOPE  H18T12473   5.393   5.105   4.650  0.8285  0.5256  0.5710
  118SOPE   C3312474   4.879   5.677   6.036  0.7390  0.0251 -0.2596
  118SOPE   H3X12475   4.955   5.598   6.055  0.0334 -0.5884  0.0991
  118SOPE   H3Y12476   4.938   5.764   6.002  0.1820  0.6393  0.3111
  118SOPE   C3412477   4.780   5.639   5.923 -0.2953  0.1314  0.2590
  118SOPE   H4X12478   4.723   5.731   5.897  1.5895  0.8226 -1.7292
  118SOPE   H4Y12479   4.717   5.554   5.957  0.7127 -1.7696 -2.3294
  118SOPE   C3512480   4.863   5.602   5.793 -0.3991 -0.1034 -0.6937
  118SOPE   H5X12481   4.934   5.522   5.822 -0.0038 -0.7227 -3.1356
  118SOPE   H5Y12482   4.932   5.688   5.779  0.8131 -0.8798  0.3377
  118SOPE   C3612483   4.778   5.577   5.675  0.1477 -0.0470  0.3204
  118SOPE   H6X12484   4.697   5.654   5.671  1.1141  0.9523 -1.4930
  118SOPE   H6Y12485   4.729   5.480   5.695 -2.0583  0.7225 -0.9210
  118SOPE   C3712486   4.844   5.567   5.546 -0.5197  0.6615  0.5337
  118SOPE   H7X12487   4.913   5.481   5.535 -0.7455  0.5447 -0.0475
  118SOPE   H7Y12488   4.904   5.654   5.514 -0.4667  0.0456 -1.1401
  118SOPE   C3812489   4.748   5.536   5.429  0.7986  0.1547  0.0906
  118SOPE   H8X12490   4.679   5.622   5.415  2.3119  1.6350  1.3027
  118SOPE   H8Y12491   4.676   5.455   5.456 -0.2627  1.2506  0.6389
  118SOPE   C3912492   4.816   5.484   5.297 -0.6728  0.1551  0.3621
  118SOPE   H9X12493   4.870   5.393   5.328  2.6060  1.7406 -0.3058
  118SOPE   H9Y12494   4.892   5.557   5.261 -0.1583 -1.3948 -1.8203
  118SOPE  C31012495   4.714   5.445   5.194  0.4696 -0.2607 -0.0854
  118SOPE  H10X12496   4.642   5.528   5.198 -1.4925 -1.8869  0.0052
  118SOPE  H10Y12497   4.665   5.350   5.227 -1.3004  1.1284  1.4734
  118SOPE  C31112498   4.784   5.421   5.059  0.4467 -0.4343 -0.4421
  118SOPE  H11X12499   4.867   5.350   5.079 -0.3581 -0.5026  3.2701
  118SOPE  H11Y12500   4.830   5.514   5.020 -0.5112  1.3254  2.3689
  118SOPE  C31212501   4.692   5.363   4.953 -0.2576  0.8147  0.3762
  118SOPE  H12X12502   4.633   5.278   4.995 -1.5574  1.0711 -0.8524
  118SOPE  H12Y12503   4.755   5.318   4.874  2.4840 -2.0463  3.8556
  118SOPE  C31312504   4.589   5.466   4.897 -0.1746 -0.0191 -0.0830
  118SOPE  H13X12505   4.651   5.540   4.842  0.2215  0.2994  0.7805
  118SOPE  H13Y12506   4.547   5.502   4.993  0.3205  0.6125 -0.0979
  118SOPE  C31412507   4.485   5.411   4.805  0.4832  0.0116  0.1095
  118SOPE  H14X12508   4.538   5.377   4.713 -0.6620  0.6608 -0.8087
  118SOPE  H14Y12509   4.409   5.486   4.775 -1.1026 -0.4439  2.7085
  118SOPE  C31512510   4.411   5.280   4.838 -0.0713  0.6873 -0.0078
  118SOPE  H15X12511   4.487   5.206   4.870  0.2389  1.2729  0.6157
  118SOPE  H15Y12512   4.356   5.236   4.751 -2.0154 -1.3263  2.0989
  118SOPE  C31612513   4.320   5.290   4.961  0.6327  0.4528  0.5016
  118SOPE  H16X12514   4.220   5.325   4.929  0.9389 -0.4143 -1.5073
  118SOPE  H16Y12515   4.360   5.351   5.045 -1.3588 -0.0112  1.8768
  118SOPE  C31712516   4.295   5.155   5.032  0.3344 -0.0988  0.0291
  118SOPE  H17X12517   4.385   5.090   5.042  1.5330  1.4116 -0.4709
  118SOPE  H17Y12518   4.223   5.096   4.972 -0.0767  1.0701 -0.6773
  118SOPE  C31812519   4.241   5.179   5.170 -0.1285  0.1485 -0.0980
  118SOPE  H18X12520   4.240   5.089   5.235 -1.9880  0.0573 -0.1876
  118SOPE  H18Y12521   4.135   5.211   5.158 -0.6019 -0.7141  1.4688
  118SOPE  H18Z12522   4.293   5.262   5.222 -0.3300  0.4262 -0.3380
  119SOPE     N12523   0.990   5.894   6.499 -0.1549  0.3100 -0.4457
  119SOPE   HN112524   0.899   5.874   6.547  0.8136 -1.3643  0.8309
  119SOPE   HN212525   0.980   5.975   6.435  0.3251  0.2660 -0.5768
  119SOPE   HN312526   1.026   5.809   6.450 -0.4849  0.7791 -1.5333
  119SOPE   C1212527   1.086   5.937   6.600 -0.4458  0.5688 -0.5686
  119SOPE  H12A12528   1.038   6.018   6.658  1.1305  0.4318  0.9884
  119SOPE  H12B12529   1.170   5.983   6.543 -0.5907 -0.2739 -1.4870
  119SOPE   C1112530   1.143   5.838   6.698 -0.3544  0.3150 -0.1342
  119SOPE  H11A12531   1.052   5.808   6.755 -1.1312  0.6233 -1.1638
  119SOPE  H11B12532   1.219   5.880   6.767  0.5766 -0.7941 -0.4628
  119SOPE     P12533   1.286   5.617   6.682 -0.0788  0.1772 -0.3288
  119SOPE   O1312534   1.205   5.500   6.710  0.2943 -0.0709 -0.2786
  119SOPE   O1412535   1.361   5.678   6.799  0.0976  0.4231 -0.4497
  119SOPE   O1212536   1.194   5.727   6.614  0.1370 -0.2376 -0.9347
  119SOPE   O1112537   1.395   5.586   6.575  0.2582 -0.0641 -0.4621
  119SOPE    C112538   1.419   5.678   6.471  0.9921  0.0956  0.8483
  119SOPE    HA12539   1.529   5.678   6.452  1.0180 -0.1923  0.9830
  119SOPE    HB12540   1.400   5.785   6.494  1.5235  0.2119  0.7565
  119SOPE    C212541   1.351   5.636   6.344 -0.7679  0.0932 -0.0857
  119SOPE    HS12542   1.250   5.593   6.364 -0.1710 -0.9985  0.7133
  119SOPE   O2112543   1.442   5.544   6.278  0.2216 -0.4988 -0.4052
  119SOPE   C2112544   1.427   5.412   6.312 -0.5796 -0.3671 -0.0813
  119SOPE   O2212545   1.345   5.367   6.389  0.4666 -0.3291 -0.1635
  119SOPE   C2212546   1.522   5.323   6.233 -0.5306  0.1736  0.1353
  119SOPE   H2R12547   1.561   5.249   6.306  0.8763 -1.0384 -1.7300
  119SOPE   H2S12548   1.597   5.391   6.188  0.1286 -1.4981 -1.4145
  119SOPE    C312549   1.334   5.756   6.251  0.3881 -0.0533 -0.7248
  119SOPE    HX12550   1.434   5.801   6.230 -0.7469  2.3024 -1.4362
  119SOPE    HY12551   1.284   5.830   6.317  0.4974 -0.1918 -0.4856
  119SOPE   O3112552   1.256   5.716   6.138  0.3234 -0.1077 -0.0344
  119SOPE   C3112553   1.124   5.726   6.141 -0.4240 -0.0684 -0.2921
  119SOPE   O3212554   1.059   5.805   6.204 -0.5776 -0.2662 -0.5870
  119SOPE   C3212555   1.080   5.652   6.015  0.6128 -0.0242 -0.3476
  119SOPE   H2X12556   1.148   5.681   5.932  2.7770 -0.7311  1.0955
  119SOPE   H2Y12557   0.977   5.689   5.993  1.5749  3.5586  0.4933
  119SOPE   C2312558   1.445   5.248   6.123 -0.2193 -0.2578  0.2006
  119SOPE   H3R12559   1.412   5.328   6.053  1.7680 -0.5806 -1.1581
  119SOPE   H3S12560   1.357   5.205   6.177 -0.0143 -0.6744  0.2045
  119SOPE   C2412561   1.515   5.125   6.065  0.1048 -0.2969 -0.0525
  119SOPE   H4R12562   1.537   5.055   6.149  0.2051 -0.8736 -0.5576
  119SOPE   H4S12563   1.448   5.069   5.996  0.1486  0.2919 -0.5805
  119SOPE   C2512564   1.652   5.149   5.995  0.5243 -0.5705  0.3271
  119SOPE   H5R12565   1.729   5.200   6.057  0.7364 -1.3784  0.7400
  119SOPE   H5S12566   1.693   5.051   5.963 -0.9828 -0.7883 -1.1083
  119SOPE   C2612567   1.636   5.241   5.868  0.1942 -0.0349 -0.1018
  119SOPE   H6R12568   1.543   5.205   5.819  0.0037 -0.4822  0.5783
  119SOPE   H6S12569   1.611   5.338   5.916  1.5614 -1.1662  3.1841
  119SOPE   C2712570   1.757   5.249   5.780 -0.6444 -0.1908  0.6466
  119SOPE   H7R12571   1.825   5.310   5.843 -1.3639  1.2696  0.0320
  119SOPE   H7S12572   1.799   5.146   5.782  3.1992  1.2040  1.4674
  119SOPE   C2812573   1.755   5.307   5.643  0.7157  0.6670  0.0533
  119SOPE   H8R12574   1.672   5.256   5.589 -0.0607 -0.4913  2.1980
  119SOPE   H8S12575   1.717   5.411   5.645  2.4876  1.3561  1.7123
  119SOPE   C2912576   1.890   5.295   5.575 -0.0585  0.0776  0.9188
  119SOPE   H9112577   1.977   5.314   5.640 -1.0612  1.1441  2.0063
  119SOPE  C21012578   1.902   5.309   5.439 -0.4068  0.4539  0.3959
  119SOPE  H10112579   2.002   5.292   5.396 -0.9428 -2.1038  0.0144
  119SOPE  C21112580   1.806   5.307   5.326  0.2502  0.6917  0.4309
  119SOPE  H11R12581   1.715   5.255   5.362 -0.3289  1.9555  0.8557
  119SOPE  H11S12582   1.826   5.249   5.233 -0.5768  0.9680  0.0774
  119SOPE  C21212583   1.775   5.455   5.286  0.0700  0.6833 -0.1066
  119SOPE  H12R12584   1.735   5.517   5.368  1.8800  2.1274 -0.2524
  119SOPE  H12S12585   1.701   5.435   5.205 -0.9464 -1.5175  1.2769
  119SOPE  C21312586   1.909   5.516   5.237  0.0364 -0.1156 -0.4466
  119SOPE  H13R12587   1.956   5.428   5.189 -1.3441 -1.2632  0.2450
  119SOPE  H13S12588   1.965   5.553   5.325 -1.6264 -1.8423  1.4174
  119SOPE  C21412589   1.881   5.626   5.128  0.3043 -0.2783 -0.9192
  119SOPE  H14R12590   1.982   5.670   5.115  0.6322 -0.9027 -0.5578
  119SOPE  H14S12591   1.820   5.706   5.175  1.0317 -0.3013  0.0921
  119SOPE  C21512592   1.804   5.576   5.009 -0.4097  0.3644 -0.8160
  119SOPE  H15R12593   1.701   5.556   5.046  0.2152  0.9418  1.3965
  119SOPE  H15S12594   1.836   5.475   4.976 -0.6758 -0.3259  0.8950
  119SOPE  C21612595   1.807   5.681   4.896 -0.2146  0.0251  0.2298
  119SOPE  H16R12596   1.903   5.675   4.840 -0.8791  0.6156 -1.0043
  119SOPE  H16S12597   1.786   5.783   4.935  0.6935  0.0982  0.5564
  119SOPE  C21712598   1.705   5.672   4.783  0.2592 -0.2354 -0.4821
  119SOPE  H17R12599   1.605   5.691   4.828  0.1900  0.4842 -0.9390
  119SOPE  H17S12600   1.685   5.566   4.758  0.5259  0.0798 -2.1440
  119SOPE  C21812601   1.716   5.764   4.663  0.4677 -0.4212  0.0765
  119SOPE  H18R12602   1.722   5.873   4.684  2.1506 -0.3630 -0.5440
  119SOPE  H18S12603   1.626   5.741   4.603 -0.2941 -0.4494  1.2065
  119SOPE  H18T12604   1.809   5.740   4.606  0.5516  0.7950 -0.3389
  119SOPE   C3312605   1.076   5.499   6.049 -0.1644  0.3502  0.2120
  119SOPE   H3X12606   1.001   5.477   6.128  0.1225  0.7110  0.5907
  119SOPE   H3Y12607   1.172   5.451   6.080 -0.8557 -0.9542  0.3971
  119SOPE   C3412608   1.036   5.411   5.926  0.1773 -0.0030  0.0629
  119SOPE   H4X12609   0.931   5.440   5.903  0.7776  1.3697 -1.1706
  119SOPE   H4Y12610   1.034   5.302   5.947 -2.0225 -1.3402 -5.3289
  119SOPE   C3512611   1.118   5.421   5.798 -0.1684 -0.8326  0.3226
  119SOPE   H5X12612   1.116   5.521   5.751 -1.8432 -0.1945  1.6774
  119SOPE   H5Y12613   1.072   5.349   5.726 -0.4275 -0.8868  0.5400
  119SOPE   C3612614   1.264   5.379   5.825 -0.3787  0.4707 -0.1957
  119SOPE   H6X12615   1.269   5.282   5.879  1.0058  0.1985 -0.7698
  119SOPE   H6Y12616   1.315   5.452   5.890  0.6874  0.9610 -1.5279
  119SOPE   C3712617   1.347   5.371   5.697 -0.5536  0.1146  0.3311
  119SOPE   H7X12618   1.454   5.355   5.719  0.1713  0.5039 -2.5101
  119SOPE   H7Y12619   1.344   5.468   5.643 -0.7354 -0.5181 -0.8332
  119SOPE   C3812620   1.314   5.254   5.604  0.3467  0.0491 -0.2587
  119SOPE   H8X12621   1.205   5.258   5.582  0.4160  2.2020 -0.4642
  119SOPE   H8Y12622   1.341   5.160   5.655 -0.2197  0.0153 -0.0075
  119SOPE   C3912623   1.379   5.265   5.470 -0.1648  0.1432  0.3504
  119SOPE   H9X12624   1.490   5.273   5.465 -0.1601 -0.3702 -0.7167
  119SOPE   H9Y12625   1.337   5.359   5.428 -4.1574 -1.0758  1.1767
  119SOPE  C31012626   1.319   5.171   5.370  0.2640  0.8820  0.5198
  119SOPE  H10X12627   1.208   5.165   5.369  0.2773  0.6896  0.2160
  119SOPE  H10Y12628   1.356   5.067   5.384  1.2047  0.8902 -1.5476
  119SOPE  C31112629   1.356   5.209   5.224  0.4391 -0.3903  0.6672
  119SOPE  H11X12630   1.374   5.318   5.217  1.1353 -0.6119 -2.5602
  119SOPE  H11Y12631   1.271   5.189   5.156  0.1188 -1.1860  1.2771
  119SOPE  C31212632   1.469   5.129   5.159 -0.2977  0.2441 -0.3057
  119SOPE  H12X12633   1.429   5.025   5.164 -1.1061  0.5155 -0.8093
  119SOPE  H12Y12634   1.555   5.144   5.227 -0.4050 -0.6909  0.0539
  119SOPE  C31312635   1.498   5.150   5.013  0.6711  0.3132  0.6035
  119SOPE  H13X12636   1.550   5.246   4.994  1.2426 -0.1797 -0.4129
  119SOPE  H13Y12637   1.398   5.140   4.965  1.1093 -0.0365 -0.2655
  119SOPE  C31412638   1.585   5.044   4.947  0.6606 -0.2036  0.7565
  119SOPE  H14X12639   1.576   4.942   4.992  1.5021 -1.6045 -2.0185
  119SOPE  H14Y12640   1.691   5.077   4.957  1.0327 -0.9346 -0.5730
  119SOPE  C31512641   1.548   5.030   4.796 -0.0818 -0.0192 -0.3414
  119SOPE  H15X12642   1.623   4.961   4.751  0.7301  0.2056  0.6298
  119SOPE  H15Y12643   1.555   5.129   4.746  2.3792  0.9702  1.7033
  119SOPE  C31612644   1.409   4.971   4.777  0.1608  0.6684  0.2718
  119SOPE  H16X12645   1.347   5.027   4.703 -1.4014  2.0198  2.5025
  119SOPE  H16Y12646   1.342   4.990   4.863 -0.6691  0.9303 -0.4162
  119SOPE  C31712647   1.416   4.821   4.732 -0.3835 -0.2115  0.5354
  119SOPE  H17X12648   1.472   4.826   4.637  0.0522 -0.0334  0.8012
  119SOPE  H17Y12649   1.312   4.784   4.717 -0.3063 -0.9322  1.6070
  119SOPE  C31812650   1.487   4.732   4.833  0.9232  0.1331 -0.2143
  119SOPE  H18X12651   1.482   4.622   4.818 -0.8739 -0.6600  4.6166
  119SOPE  H18Y12652   1.438   4.750   4.931 -0.6558  0.0565 -0.9534
  119SOPE  H18Z12653   1.596   4.751   4.840  1.3502 -2.1637  0.1746
  120SOPE     N12654   6.304   0.508   6.796  0.6174  0.5416 -0.8208
  120SOPE   HN112655   6.381   0.545   6.855  0.0863  0.6324 -0.1739
  120SOPE   HN212656   6.330   0.546   6.702  0.1461 -0.2363 -1.2787
  120SOPE   HN312657   6.210   0.543   6.823  0.1375 -1.2547 -0.0144
  120SOPE   C1212658   6.288   0.361   6.790  0.1713  0.8775 -0.3974
  120SOPE  H12A12659   6.180   0.335   6.789  0.5841 -0.9884 -0.6666
  120SOPE  H12B12660   6.332   0.321   6.884 -0.7821  1.0117  0.1177
  120SOPE   C1112661   6.368   0.306   6.667 -0.4032 -0.5948 -0.4296
  120SOPE  H11A12662   6.308   0.334   6.578 -0.7851 -2.2063 -0.7063
  120SOPE  H11B12663   6.367   0.195   6.679  0.7305 -0.5506  0.1974
  120SOPE     P12664   6.629   0.271   6.619  0.4104  0.2791  0.2265
  120SOPE   O1312665   6.642   0.175   6.739 -0.0627  0.0151 -0.3469
  120SOPE   O1412666   6.742   0.362   6.594 -0.1350 -0.1458 -0.0825
  120SOPE   O1212667   6.503   0.354   6.656  0.0210 -0.4786 -0.3172
  120SOPE   O1112668   6.591   0.193   6.487 -0.7567  0.1702 -0.1547
  120SOPE    C112669   6.544   0.255   6.373  0.0317  0.3131  0.4733
  120SOPE    HA12670   6.606   0.341   6.338 -0.9538  1.0011  0.3722
  120SOPE    HB12671   6.443   0.299   6.388  0.4505  1.5603 -0.1719
  120SOPE    C212672   6.537   0.154   6.246  0.1443 -0.1396 -0.1197
  120SOPE    HS12673   6.450   0.189   6.187 -1.2767 -2.1723  0.6382
  120SOPE   O2112674   6.523   0.012   6.282 -0.1404 -0.0551  0.1191
  120SOPE   C2112675   6.400  -0.010   6.333 -0.0252  0.4264 -0.2483
  120SOPE   O2212676   6.310   0.072   6.341  0.0499 -0.1898 -0.1776
  120SOPE   C2212677   6.382  -0.165   6.363 -0.3270 -0.0894 -0.0945
  120SOPE   H2R12678   6.290  -0.175   6.424 -0.3982  0.4608 -0.1006
  120SOPE   H2S12679   6.467  -0.199   6.426 -0.9814  0.2237  0.9760
  120SOPE    C312680   6.660   0.165   6.153  0.0886  0.1532  0.1657
  120SOPE    HX12681   6.652   0.111   6.056 -1.1022  1.6384 -0.5984
  120SOPE    HY12682   6.751   0.132   6.208  1.4491  1.4958 -1.2150
  120SOPE   O3112683   6.683   0.308   6.123 -0.4145 -0.2142 -0.6523
  120SOPE   C3112684   6.812   0.324   6.085  0.0889 -0.2433 -0.0668
  120SOPE   O3212685   6.887   0.236   6.054 -0.2587  0.1787 -0.3841
  120SOPE   C3212686   6.845   0.467   6.090 -0.3730 -0.2624 -0.3513
  120SOPE   H2X12687   6.810   0.503   6.189 -0.8469 -1.6274  0.0088
  120SOPE   H2Y12688   6.791   0.507   6.001  2.4590 -1.5398 -2.8203
  120SOPE   C2312689   6.379  -0.263   6.241 -0.3490  0.5257 -0.1503
  120SOPE   H3R12690   6.373  -0.366   6.281 -0.1437  0.7326  0.4287
  120SOPE   H3S12691   6.470  -0.258   6.176  0.9169 -3.3964  1.0598
  120SOPE   C2412692   6.263  -0.229   6.147 -1.0363  0.1829  0.0322
  120SOPE   H4R12693   6.180  -0.231   6.221 -0.4007 -1.0668  0.7417
  120SOPE   H4S12694   6.284  -0.126   6.110 -0.0298 -0.3230 -0.8776
  120SOPE   C2512695   6.240  -0.329   6.032  0.0674 -0.1924  0.1982
  120SOPE   H5R12696   6.331  -0.328   5.968  0.4523  3.4825  0.5672
  120SOPE   H5S12697   6.216  -0.428   6.076 -1.0269 -0.2139 -0.4169
  120SOPE   C2612698   6.114  -0.292   5.949 -0.2427  0.5952 -0.1881
  120SOPE   H6R12699   6.025  -0.271   6.012  0.6187 -0.2703  1.3778
  120SOPE   H6S12700   6.130  -0.193   5.900  2.5740  0.1717 -0.2905
  120SOPE   C2712701   6.071  -0.387   5.832 -0.1087 -0.3470  0.0582
  120SOPE   H7R12702   6.161  -0.427   5.782  1.0478  1.6602  0.4118
  120SOPE   H7S12703   6.015  -0.465   5.889 -0.2469  0.5058  1.1344
  120SOPE   C2812704   5.971  -0.332   5.725 -0.3137 -0.1586  0.4580
  120SOPE   H8R12705   5.932  -0.413   5.659 -0.3626  1.3829 -1.4858
  120SOPE   H8S12706   5.880  -0.286   5.767 -0.5084 -0.2302  0.1242
  120SOPE   C2912707   6.047  -0.239   5.637 -0.3283 -0.2812 -0.2853
  120SOPE   H9112708   6.081  -0.152   5.695 -0.0962 -1.8344  2.0203
  120SOPE  C21012709   6.069  -0.234   5.505  0.7738 -0.2105  0.0294
  120SOPE  H10112710   6.140  -0.159   5.466  1.3515 -0.3795  0.7227
  120SOPE  C21112711   6.024  -0.335   5.397  0.1931 -1.2987 -0.6424
  120SOPE  H11R12712   5.928  -0.382   5.427 -0.1975 -0.9528 -1.3411
  120SOPE  H11S12713   6.104  -0.409   5.374  1.1753  0.1234 -1.9823
  120SOPE  C21212714   5.992  -0.251   5.273  0.6038 -0.0712 -0.3314
  120SOPE  H12R12715   6.086  -0.207   5.236  0.0842  0.8459 -0.5965
  120SOPE  H12S12716   5.911  -0.178   5.297  0.5969 -1.0304  3.0299
  120SOPE  C21312717   5.932  -0.344   5.161 -0.6772 -0.4956  0.0525
  120SOPE  H13R12718   5.857  -0.414   5.204 -2.2612  1.0474 -0.0869
  120SOPE  H13S12719   6.007  -0.415   5.120 -1.9422 -3.0591  1.8874
  120SOPE  C21412720   5.863  -0.258   5.053 -0.5979  0.1747 -0.4496
  120SOPE  H14R12721   5.931  -0.187   5.001  1.3660 -0.8755  0.5397
  120SOPE  H14S12722   5.779  -0.206   5.102  0.3050  1.1184  0.1394
  120SOPE  C21512723   5.790  -0.345   4.954  0.3732 -0.0058  0.0411
  120SOPE  H15R12724   5.714  -0.397   5.016  0.6077 -0.5753 -0.1413
  120SOPE  H15S12725   5.859  -0.418   4.907 -0.4531 -1.5287  1.1077
  120SOPE  C21612726   5.713  -0.261   4.847 -0.1518 -0.1601 -0.4494
  120SOPE  H16R12727   5.775  -0.176   4.814  0.6843  0.1624  1.7558
  120SOPE  H16S12728   5.622  -0.217   4.893  2.0218  1.2760  2.8903
  120SOPE  C21712729   5.668  -0.356   4.728 -0.5398 -0.8498 -0.1851
  120SOPE  H17R12730   5.754  -0.422   4.704  2.4913  2.4276  0.7606
  120SOPE  H17S12731   5.639  -0.307   4.633  2.3378  1.1808 -0.1331
  120SOPE  C21812732   5.549  -0.440   4.774  0.7376  0.0194 -0.5046
  120SOPE  H18R12733   5.465  -0.369   4.793 -0.4535 -1.2127 -1.0554
  120SOPE  H18S12734   5.566  -0.490   4.872 -1.5722  2.8858  1.5604
  120SOPE  H18T12735   5.533  -0.521   4.701  0.5263  0.4016 -0.8846
  120SOPE   C3312736   6.992   0.507   6.070  0.6073 -0.8226 -0.6943
  120SOPE   H3X12737   7.033   0.455   5.981  2.4999  1.2903 -1.1498
  120SOPE   H3Y12738   7.046   0.465   6.157  2.8643  1.9499 -0.5868
  120SOPE   C3412739   7.033   0.652   6.056  0.5413  0.6315  0.7607
  120SOPE   H4X12740   7.140   0.669   6.028  0.8050  0.2973  1.5347
  120SOPE   H4Y12741   7.010   0.697   6.155 -1.5621  2.7625 -0.6034
  120SOPE   C3512742   6.943   0.734   5.962 -0.3673 -0.2029 -1.4118
  120SOPE   H5X12743   6.946   0.841   5.990  0.3155 -0.4093 -0.6550
  120SOPE   H5Y12744   6.835   0.716   5.982 -0.0857  0.5365  1.1423
  120SOPE   C3612745   6.973   0.713   5.816 -0.5858  0.2107 -0.9677
  120SOPE   H6X12746   6.962   0.605   5.792  0.8084  0.1050 -1.2185
  120SOPE   H6Y12747   7.078   0.734   5.787 -0.2893 -0.3755 -0.3609
  120SOPE   C3712748   6.882   0.797   5.727  0.2978 -0.2956 -0.0327
  120SOPE   H7X12749   6.915   0.900   5.753  0.9905 -0.8860  1.5627
  120SOPE   H7Y12750   6.775   0.793   5.757  0.8346  1.0288  2.2743
  120SOPE   C3812751   6.900   0.760   5.579 -0.0840 -0.0914 -0.2575
  120SOPE   H8X12752   7.003   0.727   5.552  0.6992  2.6423 -0.9000
  120SOPE   H8Y12753   6.865   0.841   5.512 -1.9940 -2.0115 -1.6976
  120SOPE   C3912754   6.809   0.644   5.551 -0.2969 -0.5790 -0.0367
  120SOPE   H9X12755   6.704   0.679   5.551  0.1207  0.8282  2.0486
  120SOPE   H9Y12756   6.808   0.581   5.643 -0.9932  0.1801  0.4905
  120SOPE  C31012757   6.845   0.564   5.423  0.4774 -0.3628  0.0761
  120SOPE  H10X12758   6.945   0.522   5.446  0.9737  1.7233  2.1851
  120SOPE  H10Y12759   6.859   0.643   5.345 -3.8423 -1.6331 -2.2823
  120SOPE  C31112760   6.742   0.450   5.388 -1.1502  0.0860  0.1151
  120SOPE  H11X12761   6.644   0.503   5.381 -0.7894  0.8492  0.7231
  120SOPE  H11Y12762   6.724   0.378   5.470 -1.5861  0.8766  0.7220
  120SOPE  C31212763   6.779   0.394   5.246  0.4220 -0.2205 -0.5408
  120SOPE  H12X12764   6.857   0.316   5.252  1.2042  0.5895 -0.1308
  120SOPE  H12Y12765   6.827   0.476   5.187  1.8456  0.8441  1.9713
  120SOPE  C31312766   6.665   0.331   5.173  0.6510  0.1492 -0.0739
  120SOPE  H13X12767   6.583   0.405   5.182  0.6019 -0.1203  2.6640
  120SOPE  H13Y12768   6.628   0.238   5.223  2.1146 -1.0025 -1.0776
  120SOPE  C31412769   6.698   0.303   5.028  0.4248  0.7165  0.2015
  120SOPE  H14X12770   6.744   0.398   4.994  0.5040  0.6300  0.0662
  120SOPE  H14Y12771   6.601   0.280   4.979  2.4041 -3.3580 -2.3186
  120SOPE  C31512772   6.784   0.173   5.012 -0.1617 -0.4735  0.6712
  120SOPE  H15X12773   6.745   0.093   5.080 -1.9777 -0.0690  0.1625
  120SOPE  H15Y12774   6.884   0.205   5.050 -0.2461 -0.1143  0.5940
  120SOPE  C31612775   6.783   0.124   4.870  1.1211 -0.2425  0.1870
  120SOPE  H16X12776   6.832   0.205   4.811 -1.0250  0.0714 -1.2655
  120SOPE  H16Y12777   6.676   0.117   4.842  0.6969  2.8344  0.6410
  120SOPE  C31712778   6.846  -0.013   4.855 -0.1061  0.5420  0.6413
  120SOPE  H17X12779   6.938  -0.027   4.916  0.4866 -0.2161 -0.3794
  120SOPE  H17Y12780   6.896  -0.030   4.757 -0.8498  1.5512  0.0646
  120SOPE  C31812781   6.757  -0.134   4.869  0.3384  0.7730  0.3149
  120SOPE  H18X12782   6.679  -0.123   4.790  1.4117 -0.0128 -0.8925
  120SOPE  H18Y12783   6.702  -0.133   4.966  2.3933  1.6297  1.5271
  120SOPE  H18Z12784   6.813  -0.229   4.864 -1.4591 -0.3424  0.7048
  121SOPE     N12785   0.882   0.650   6.742  0.2192 -0.0548 -0.1036
  121SOPE   HN112786   0.848   0.652   6.840 -1.4867 -0.4099 -0.6498
  121SOPE   HN212787   0.979   0.614   6.745  0.2236 -0.1355  4.4092
  121SOPE   HN312788   0.886   0.743   6.695 -1.0941 -0.8932 -2.0328
  121SOPE   C1212789   0.790   0.572   6.659 -0.2425  0.2303  0.3540
  121SOPE  H12A12790   0.819   0.465   6.652 -1.0102  0.1202 -2.9842
  121SOPE  H12B12791   0.800   0.606   6.554 -0.4349  0.7873  0.5129
  121SOPE   C1112792   0.652   0.598   6.711 -1.0039 -0.8674 -0.8367
  121SOPE  H11A12793   0.585   0.536   6.648 -2.2892 -0.3035 -0.0687
  121SOPE  H11B12794   0.616   0.703   6.708  0.0736 -0.1893  3.2050
  121SOPE     P12795   0.526   0.485   6.906  0.2148 -0.0948 -0.2080
  121SOPE   O1312796   0.408   0.571   6.888  0.7003 -0.1109 -0.3028
  121SOPE   O1412797   0.554   0.445   7.042  0.6800 -0.1532 -0.0278
  121SOPE   O1212798   0.654   0.557   6.849 -0.1752 -0.0933 -0.1106
  121SOPE   O1112799   0.510   0.358   6.811 -0.9026 -0.0214 -0.4293
  121SOPE    C112800   0.601   0.249   6.812 -0.5366  0.4808  0.4011
  121SOPE    HA12801   0.546   0.164   6.858 -0.4222  0.8630  1.2504
  121SOPE    HB12802   0.684   0.285   6.876  0.4688  1.9529 -1.6300
  121SOPE    C212803   0.654   0.214   6.669 -1.1897 -0.2989  0.0496
  121SOPE    HS12804   0.739   0.283   6.652 -0.5229 -0.7829  1.2322
  121SOPE   O2112805   0.551   0.228   6.577 -0.0110 -0.1986  0.1457
  121SOPE   C2112806   0.585   0.275   6.458  0.4933  0.0407 -0.0847
  121SOPE   O2212807   0.693   0.315   6.430 -0.7201 -0.1127  0.2226
  121SOPE   C2212808   0.466   0.263   6.361 -0.2593  0.2405 -0.0123
  121SOPE   H2R12809   0.380   0.321   6.401 -0.5474  0.1710 -0.5185
  121SOPE   H2S12810   0.416   0.164   6.366 -1.3128  0.7407 -0.3347
  121SOPE    C312811   0.720   0.069   6.660 -0.0117  0.5029 -0.2222
  121SOPE    HX12812   0.643  -0.004   6.691  1.0442 -0.1508  0.9349
  121SOPE    HY12813   0.800   0.048   6.734  2.0891  0.7556 -2.3095
  121SOPE   O3112814   0.781   0.041   6.531  0.6328 -0.0202  0.3346
  121SOPE   C3112815   0.702  -0.035   6.441 -0.8743  0.6008 -0.3037
  121SOPE   O3212816   0.586  -0.054   6.450  0.0984 -0.2517  0.4708
  121SOPE   C3212817   0.793  -0.076   6.324 -0.0556  0.2753 -0.0536
  121SOPE   H2X12818   0.833  -0.179   6.318 -1.6053 -0.3318 -0.5066
  121SOPE   H2Y12819   0.878  -0.005   6.314 -1.0687  1.2238 -2.8865
  121SOPE   C2312820   0.499   0.305   6.213 -0.4231 -0.1911 -0.5266
  121SOPE   H3R12821   0.606   0.288   6.188 -0.5027 -0.0969 -0.9406
  121SOPE   H3S12822   0.463   0.410   6.201 -0.6995 -0.1386  0.6344
  121SOPE   C2412823   0.418   0.227   6.110 -0.3096  0.0101 -0.4785
  121SOPE   H4R12824   0.456   0.123   6.124  2.1141  1.0603  1.5042
  121SOPE   H4S12825   0.309   0.214   6.129 -0.4004  0.4503 -0.6924
  121SOPE   C2512826   0.443   0.284   5.961 -0.1696 -0.0683 -0.3490
  121SOPE   H5R12827   0.395   0.384   5.969  0.5177  0.1496  1.5891
  121SOPE   H5S12828   0.548   0.307   5.935 -0.1373 -1.2506 -1.3337
  121SOPE   C2612829   0.352   0.221   5.854  0.0173 -0.0626  0.1265
  121SOPE   H6R12830   0.396   0.119   5.850 -0.8695 -0.4054 -1.1922
  121SOPE   H6S12831   0.251   0.210   5.899  0.2633  0.1986  0.7637
  121SOPE   C2712832   0.351   0.291   5.722  0.6594 -0.2149 -0.5482
  121SOPE   H7R12833   0.333   0.399   5.739  2.1306  0.0556 -0.5066
  121SOPE   H7S12834   0.450   0.279   5.673  0.2315  0.3488 -1.5817
  121SOPE   C2812835   0.242   0.237   5.618 -1.3469 -0.2940  0.2193
  121SOPE   H8R12836   0.146   0.228   5.674 -3.6368 -3.1718 -3.6790
  121SOPE   H8S12837   0.230   0.316   5.542 -1.7465 -1.5018 -1.0091
  121SOPE   C2912838   0.275   0.106   5.547 -0.4446 -0.1154 -0.9370
  121SOPE   H9112839   0.214   0.023   5.583  1.9791 -0.7562  2.0560
  121SOPE  C21012840   0.367   0.083   5.451  1.0208 -0.3044  0.4076
  121SOPE  H10112841   0.384  -0.019   5.414 -2.2052 -0.7737 -0.0755
  121SOPE  C21112842   0.462   0.189   5.400  0.4920  0.9950 -0.9400
  121SOPE  H11R12843   0.568   0.160   5.418  0.1284  0.2689  0.0770
  121SOPE  H11S12844   0.470   0.285   5.455  1.2015  1.1120 -1.2341
  121SOPE  C21212845   0.457   0.234   5.253  0.7211  0.8953 -0.5148
  121SOPE  H12R12846   0.484   0.143   5.195 -0.8404  0.1795 -0.1661
  121SOPE  H12S12847   0.536   0.310   5.238  2.6068 -0.6788  0.9317
  121SOPE  C21312848   0.310   0.275   5.209  0.1221  0.0665  0.1879
  121SOPE  H13R12849   0.268   0.350   5.279  1.0848  0.0617  0.7851
  121SOPE  H13S12850   0.247   0.184   5.219 -1.6653  0.9617 -2.0150
  121SOPE  C21412851   0.291   0.340   5.069  0.4541  0.6492  0.9664
  121SOPE  H14R12852   0.359   0.428   5.065  0.2545  0.7824  0.5591
  121SOPE  H14S12853   0.184   0.365   5.058  0.1416 -0.3472  1.5873
  121SOPE  C21512854   0.343   0.246   4.954 -0.1479 -0.5811 -0.7536
  121SOPE  H15R12855   0.283   0.153   4.946 -1.4792 -0.1034  2.1359
  121SOPE  H15S12856   0.443   0.208   4.983  0.6856 -0.0198 -2.7366
  121SOPE  C21612857   0.347   0.315   4.822 -0.6565  0.1239 -0.1239
  121SOPE  H16R12858   0.403   0.244   4.758 -0.5226 -0.2932  0.4442
  121SOPE  H16S12859   0.409   0.405   4.843  0.8922 -0.9928  0.2915
  121SOPE  C21712860   0.214   0.345   4.772 -0.1466  0.2547  0.3458
  121SOPE  H17R12861   0.170   0.413   4.847  1.7648  1.2436  0.6440
  121SOPE  H17S12862   0.161   0.251   4.746  1.9401 -0.9939  0.3593
  121SOPE  C21812863   0.210   0.426   4.642  0.0493  0.4827  0.4511
  121SOPE  H18R12864   0.270   0.518   4.654  3.3830 -1.3833 -0.7081
  121SOPE  H18S12865   0.109   0.465   4.617  1.6351  3.9572 -1.1098
  121SOPE  H18T12866   0.256   0.373   4.556 -1.7143 -1.6126  0.6979
  121SOPE   C3312867   0.717  -0.081   6.195  0.1420 -0.0657 -0.0894
  121SOPE   H3X12868   0.678   0.022   6.178 -0.0988  0.2596  2.1852
  121SOPE   H3Y12869   0.631  -0.149   6.204  0.5958 -0.4310  1.9304
  121SOPE   C3412870   0.805  -0.106   6.065  0.3976  0.2342 -0.5975
  121SOPE   H4X12871   0.831  -0.214   6.069 -1.5267 -0.2191  1.8642
  121SOPE   H4Y12872   0.898  -0.046   6.076  1.6127 -1.6411 -0.0504
  121SOPE   C3512873   0.732  -0.062   5.938 -1.3443  0.7649  0.3241
  121SOPE   H5X12874   0.712   0.047   5.948  1.9392  1.5844 -0.7320
  121SOPE   H5Y12875   0.634  -0.114   5.943  0.2710 -2.5316  0.1288
  121SOPE   C3612876   0.793  -0.091   5.805  0.7544  0.3344  0.4705
  121SOPE   H6X12877   0.815  -0.200   5.803 -0.7265  0.0176 -1.1494
  121SOPE   H6Y12878   0.890  -0.040   5.785  1.7154 -2.3823 -2.5530
  121SOPE   C3712879   0.706  -0.053   5.684 -0.2678 -0.3199  0.1086
  121SOPE   H7X12880   0.686   0.056   5.693  1.3141 -0.0765  0.9349
  121SOPE   H7Y12881   0.605  -0.099   5.675 -0.0836 -0.5962 -0.7421
  121SOPE   C3812882   0.786  -0.079   5.542 -0.0782  0.3639 -0.2777
  121SOPE   H8X12883   0.890  -0.038   5.546  0.8238 -1.8364  0.1115
  121SOPE   H8Y12884   0.728  -0.014   5.472  0.6011  2.3443  0.9154
  121SOPE   C3912885   0.780  -0.229   5.499 -0.0340  0.2572  0.4813
  121SOPE   H9X12886   0.677  -0.267   5.514 -0.3436  0.1452 -1.6352
  121SOPE   H9Y12887   0.856  -0.291   5.552  0.3532 -0.9627 -1.4142
  121SOPE  C31012888   0.805  -0.238   5.345 -0.1559 -0.4632 -0.0252
  121SOPE  H10X12889   0.826  -0.341   5.309 -0.2030 -0.3319 -0.4330
  121SOPE  H10Y12890   0.907  -0.198   5.326 -0.6957  0.6829 -0.5735
  121SOPE  C31112891   0.695  -0.181   5.259  0.6178  0.9147  0.6017
  121SOPE  H11X12892   0.722  -0.194   5.152  0.2677  1.8975  0.3792
  121SOPE  H11Y12893   0.694  -0.070   5.269 -1.2929  1.0912 -0.7651
  121SOPE  C31212894   0.554  -0.234   5.283  0.0561 -0.2962 -0.2171
  121SOPE  H12X12895   0.523  -0.193   5.381 -0.9187 -0.5647 -0.4100
  121SOPE  H12Y12896   0.564  -0.345   5.280  0.0942 -0.2983 -0.0008
  121SOPE  C31312897   0.459  -0.187   5.174 -0.4482  0.0887  0.1898
  121SOPE  H13X12898   0.501  -0.228   5.079 -1.1395  0.3829 -0.2518
  121SOPE  H13Y12899   0.467  -0.076   5.168  2.5730 -0.0479  0.2615
  121SOPE  C31412900   0.314  -0.227   5.194 -0.1943 -0.1712 -0.0662
  121SOPE  H14X12901   0.252  -0.168   5.123 -0.0841  0.2278  0.1680
  121SOPE  H14Y12902   0.277  -0.196   5.295 -1.2722  1.1969 -0.8477
  121SOPE  C31512903   0.278  -0.377   5.162 -0.0268  0.1465 -0.0836
  121SOPE  H15X12904   0.268  -0.447   5.248  0.6936 -1.5590 -1.3122
  121SOPE  H15Y12905   0.367  -0.413   5.105 -0.4358  1.3503 -1.5495
  121SOPE  C31612906   0.155  -0.396   5.072 -0.0582  0.1593 -0.3027
  121SOPE  H16X12907   0.168  -0.341   4.976 -0.7985 -1.3091 -1.2835
  121SOPE  H16Y12908   0.064  -0.354   5.121 -0.3123  1.5168 -1.8479
  121SOPE  C31712909   0.116  -0.544   5.041 -0.0402 -0.4004  0.4249
  121SOPE  H17X12910   0.197  -0.598   4.989  1.3739  0.7194  1.3659
  121SOPE  H17Y12911   0.034  -0.532   4.968  0.8469  0.0601 -0.5157
  121SOPE  C31812912   0.067  -0.614   5.163  0.4772  0.3382  0.4003
  121SOPE  H18X12913   0.027  -0.713   5.132  0.0194  1.0253 -1.3298
  121SOPE  H18Y12914  -0.010  -0.556   5.218  0.7853 -0.7142  1.9910
  121SOPE  H18Z12915   0.140  -0.627   5.245 -1.3553 -0.2270  2.0293
  122SOPE     N12916   3.418   6.064   6.337  0.3450 -0.4530 -0.1586
  122SOPE   HN112917   3.493   6.033   6.402  0.7755 -0.5694 -0.7025
  122SOPE   HN212918   3.387   5.979   6.286 -1.6902 -0.2112  0.5615
  122SOPE   HN312919   3.456   6.138   6.274 -0.9758 -1.6649 -2.5094
  122SOPE   C1212920   3.302   6.119   6.417  0.2904 -0.3035  0.7487
  122SOPE  H12A12921   3.244   6.174   6.340  3.1420  1.4478 -0.3355
  122SOPE  H12B12922   3.356   6.191   6.482  0.2649 -0.6402  1.1444
  122SOPE   C1112923   3.232   6.010   6.496  0.5394 -1.2699 -0.0314
  122SOPE  H11A12924   3.198   5.931   6.426 -0.5814 -1.0326  0.2177
  122SOPE  H11B12925   3.139   6.052   6.542 -0.7718 -3.8632 -0.1145
  122SOPE     P12926   3.379   5.827   6.595  0.1608  0.1657  0.2265
  122SOPE   O1312927   3.304   5.729   6.673 -0.1318  0.6469 -0.0399
  122SOPE   O1412928   3.520   5.857   6.633 -0.0498  0.3030  0.3153
  122SOPE   O1212929   3.308   5.969   6.605  0.6566 -0.0592 -0.3004
  122SOPE   O1112930   3.382   5.784   6.444  0.3870  0.4105  0.1296
  122SOPE    C112931   3.396   5.642   6.421  0.0401  0.4686  0.5817
  122SOPE    HA12932   3.307   5.584   6.454 -0.1844 -0.0042 -0.7853
  122SOPE    HB12933   3.489   5.595   6.460 -0.0310 -1.4090 -1.3393
  122SOPE    C212934   3.384   5.609   6.267 -0.2429 -0.2845  0.4070
  122SOPE    HS12935   3.466   5.662   6.214  0.9015  1.2818  3.4971
  122SOPE   O2112936   3.255   5.647   6.215  0.0003 -0.0327 -0.1941
  122SOPE   C2112937   3.243   5.772   6.171  0.4592  0.1391 -0.5835
  122SOPE   O2212938   3.332   5.858   6.177 -0.1311  0.4728  0.2285
  122SOPE   C2212939   3.108   5.775   6.097 -0.2490  0.5497  0.4325
  122SOPE   H2R12940   3.056   5.851   6.157 -0.8164 -0.5982  1.4359
  122SOPE   H2S12941   3.055   5.678   6.110  0.1990  0.3500  0.8086
  122SOPE    C312942   3.405   5.461   6.257  0.4835  0.0917  0.6584
  122SOPE    HX12943   3.340   5.396   6.319 -0.5388 -0.0285 -0.5108
  122SOPE    HY12944   3.504   5.430   6.298  0.1320  1.2313  2.5131
  122SOPE   O3112945   3.404   5.420   6.124 -0.4686 -0.3345  0.8951
  122SOPE   C3112946   3.297   5.363   6.068 -0.3608  0.3212 -0.5291
  122SOPE   O3212947   3.193   5.330   6.124 -0.4055 -0.1029 -0.8558
  122SOPE   C3212948   3.319   5.332   5.919 -0.3528  0.3601 -0.1877
  122SOPE   H2X12949   3.227   5.275   5.893  0.1959 -0.4441 -0.4058
  122SOPE   H2Y12950   3.404   5.262   5.906 -0.5995  0.1491 -0.6975
  122SOPE   C2312951   3.120   5.816   5.941 -0.0432 -0.1236 -0.0658
  122SOPE   H3R12952   3.195   5.748   5.896 -0.7521 -0.1659 -1.2384
  122SOPE   H3S12953   3.149   5.923   5.934  0.3417 -0.3386 -3.4093
  122SOPE   C2412954   2.982   5.810   5.876 -0.2485  0.0232 -0.0705
  122SOPE   H4R12955   2.941   5.709   5.895  0.8603 -0.4810 -0.3098
  122SOPE   H4S12956   2.915   5.886   5.921  0.5939  0.3680  0.6371
  122SOPE   C2512957   2.998   5.844   5.726  0.3432  0.1235 -0.0853
  122SOPE   H5R12958   3.073   5.780   5.675 -1.3824 -0.5658 -1.8728
  122SOPE   H5S12959   2.904   5.828   5.669 -0.5217 -1.2066  1.6165
  122SOPE   C2612960   3.037   5.986   5.684  0.4112 -0.2742  0.0003
  122SOPE   H6R12961   2.973   6.064   5.731  1.9075  2.0813 -1.6296
  122SOPE   H6S12962   3.144   6.009   5.704  0.3806  1.5967 -1.6993
  122SOPE   C2712963   3.001   6.027   5.535 -0.0207 -0.3908 -0.0855
  122SOPE   H7R12964   3.058   6.120   5.514  0.8132 -1.0407 -0.8149
  122SOPE   H7S12965   3.038   5.957   5.457 -0.5997 -0.5884 -0.1835
  122SOPE   C2812966   2.848   6.046   5.518 -0.3794 -0.0257  0.8682
  122SOPE   H8R12967   2.830   5.943   5.481 -1.3473  0.3585  0.2455
  122SOPE   H8S12968   2.791   6.055   5.613  0.6119 -1.2863  1.6251
  122SOPE   C2912969   2.811   6.147   5.406 -0.2220  0.1220  0.0593
  122SOPE   H9112970   2.822   6.244   5.455  0.5321 -0.6333  1.4446
  122SOPE  C21012971   2.784   6.124   5.276  0.0894 -0.5183  0.4333
  122SOPE  H10112972   2.771   6.208   5.207 -0.7171  0.1764  1.3914
  122SOPE  C21112973   2.774   5.991   5.206 -0.5342  0.8149  0.3341
  122SOPE  H11R12974   2.696   6.012   5.130 -1.0303  1.7152  1.0652
  122SOPE  H11S12975   2.744   5.917   5.283  1.2610  1.3631  1.6295
  122SOPE  C21212976   2.904   5.941   5.145  0.2092 -0.3008 -0.1560
  122SOPE  H12R12977   2.971   5.925   5.233  0.5775  2.0275  0.0667
  122SOPE  H12S12978   2.940   6.012   5.067  1.7689  3.1749  3.3560
  122SOPE  C21312979   2.886   5.796   5.077 -0.0634 -0.8269  0.3866
  122SOPE  H13R12980   2.974   5.803   5.009  1.3044  0.0504  2.1509
  122SOPE  H13S12981   2.795   5.780   5.016  0.5966  2.0373 -1.5097
  122SOPE  C21412982   2.909   5.686   5.180  0.4318  0.0314 -0.4943
  122SOPE  H14R12983   2.834   5.698   5.261  1.0440 -2.2145  0.4863
  122SOPE  H14S12984   3.009   5.698   5.227  0.3459  2.4600 -0.8180
  122SOPE  C21512985   2.898   5.545   5.122  0.7228  0.1242  0.2812
  122SOPE  H15R12986   2.985   5.518   5.058  0.6579  0.8801 -0.1359
  122SOPE  H15S12987   2.815   5.546   5.049 -0.0931  0.5540  1.1923
  122SOPE  C21612988   2.871   5.446   5.231  0.4327 -0.2535 -0.6847
  122SOPE  H16R12989   2.780   5.477   5.287  1.2512 -1.1691  1.2711
  122SOPE  H16S12990   2.951   5.423   5.305 -0.5134  1.4491  0.9785
  122SOPE  C21712991   2.835   5.310   5.176  0.1688 -0.0547  0.6467
  122SOPE  H17R12992   2.919   5.280   5.110 -0.2729  1.1584 -0.4875
  122SOPE  H17S12993   2.738   5.323   5.122 -0.7228  0.9876  2.3840
  122SOPE  C21812994   2.813   5.199   5.279  0.0710 -0.7537 -0.3021
  122SOPE  H18R12995   2.830   5.107   5.219  1.4681 -1.4667  1.1168
  122SOPE  H18S12996   2.709   5.193   5.319 -0.1009 -0.0519 -0.6329
  122SOPE  H18T12997   2.895   5.198   5.353 -1.3206 -1.0367  1.2937
  122SOPE   C3312998   3.334   5.467   5.845 -0.5225 -0.4921 -0.0074
  122SOPE   H3X12999   3.425   5.523   5.875  0.4079 -1.1713 -1.4190
  122SOPE   H3Y13000   3.247   5.528   5.877 -1.5094 -1.9450  0.2028
  122SOPE   C3413001   3.320   5.456   5.686  0.1631 -0.0230 -0.4547
  122SOPE   H4X13002   3.230   5.392   5.672  0.0647  0.3598 -1.6350
  122SOPE   H4Y13003   3.401   5.397   5.639  0.2187 -0.8341  0.6356
  122SOPE   C3513004   3.283   5.588   5.619  0.1367  0.2891  0.0296
  122SOPE   H5X13005   3.337   5.676   5.662  1.8719  0.8529 -2.9958
  122SOPE   H5Y13006   3.173   5.599   5.614  0.2995  1.4785 -2.9771
  122SOPE   C3613007   3.334   5.592   5.470 -0.0567 -0.4199 -0.4758
  122SOPE   H6X13008   3.445   5.598   5.470 -0.0450  1.2308 -3.2108
  122SOPE   H6Y13009   3.300   5.692   5.436  1.4336  0.1746 -0.3014
  122SOPE   C3713010   3.293   5.490   5.366 -0.0317  0.6331 -0.9331
  122SOPE   H7X13011   3.183   5.476   5.354  0.2575 -1.9204 -1.1797
  122SOPE   H7Y13012   3.344   5.395   5.393  1.7992  1.6059 -0.8266
  122SOPE   C3813013   3.324   5.526   5.222  0.0748 -0.0019  0.6316
  122SOPE   H8X13014   3.432   5.534   5.198 -0.2199 -1.1955 -1.3379
  122SOPE   H8Y13015   3.275   5.620   5.189  0.5950  0.6180  1.5762
  122SOPE   C3913016   3.294   5.405   5.137 -0.6989  0.8255  0.1695
  122SOPE   H9X13017   3.183   5.395   5.130 -0.5854  0.7221 -2.3602
  122SOPE   H9Y13018   3.339   5.319   5.191 -1.7581  1.3285  1.9661
  122SOPE  C31013019   3.340   5.410   4.987 -0.3823 -0.4820  0.0831
  122SOPE  H10X13020   3.327   5.308   4.946 -0.3194 -0.0066 -1.1403
  122SOPE  H10Y13021   3.450   5.426   4.982 -0.4816  0.3830  0.4455
  122SOPE  C31113022   3.259   5.504   4.899 -0.1711  0.0843 -0.4322
  122SOPE  H11X13023   3.285   5.604   4.940  1.4668 -0.4922  0.0148
  122SOPE  H11Y13024   3.152   5.491   4.923  0.2484  0.8864  2.2472
  122SOPE  C31213025   3.298   5.499   4.751  0.3009  0.6612 -0.2112
  122SOPE  H12X13026   3.276   5.400   4.706 -1.3873  0.2544  1.4007
  122SOPE  H12Y13027   3.404   5.528   4.735  0.2076  1.8024  1.0358
  122SOPE  C31313028   3.216   5.606   4.676  0.1596  0.3710 -0.0298
  122SOPE  H13X13029   3.259   5.593   4.575  0.4905 -2.6272  0.4073
  122SOPE  H13Y13030   3.244   5.712   4.691  1.0022  0.0996  0.3723
  122SOPE  C31413031   3.061   5.574   4.688  0.0797 -0.1616 -0.1623
  122SOPE  H14X13032   3.028   5.630   4.778 -1.6455 -2.0749  0.4695
  122SOPE  H14Y13033   3.040   5.468   4.713  1.1617 -0.3613 -0.0341
  122SOPE  C31513034   2.978   5.607   4.562 -0.0220  0.0103 -0.0405
  122SOPE  H15X13035   2.989   5.528   4.485 -3.3044 -0.0281 -0.6380
  122SOPE  H15Y13036   3.018   5.705   4.531  5.6632 -1.2877  2.0475
  122SOPE  C31613037   2.818   5.609   4.575  0.0298 -0.0953 -0.2600
  122SOPE  H16X13038   2.774   5.513   4.607  2.1858 -0.7178  1.0514
  122SOPE  H16Y13039   2.777   5.640   4.476 -0.1708  2.4459  0.5410
  122SOPE  C31713040   2.775   5.720   4.673 -0.0867  0.5021  0.0233
  122SOPE  H17X13041   2.869   5.761   4.716  0.4542 -0.8343  0.1519
  122SOPE  H17Y13042   2.728   5.677   4.763 -0.6269 -0.2521 -0.6052
  122SOPE  C31813043   2.694   5.827   4.613  0.2071 -0.5595 -0.2108
  122SOPE  H18X13044   2.745   5.866   4.522  0.3126  3.2155  1.3226
  122SOPE  H18Y13045   2.683   5.912   4.683  0.5681 -0.1266 -0.6680
  122SOPE  H18Z13046   2.597   5.790   4.573 -0.0985  0.7531 -0.7218
  123SOPE     N13047   2.842   3.406   2.340 -0.5837 -0.1190 -1.1954
  123SOPE   HN113048   2.747   3.422   2.380 -0.2855 -1.3218  0.1118
  123SOPE   HN213049   2.904   3.487   2.359 -1.1340  0.1807 -0.6386
  123SOPE   HN313050   2.841   3.383   2.239 -0.7052  3.2697 -2.0636
  123SOPE   C1213051   2.898   3.301   2.433  0.0517 -0.5769  0.2750
  123SOPE  H12A13052   3.005   3.277   2.412 -0.0244  0.7405 -1.9949
  123SOPE  H12B13053   2.841   3.206   2.420 -1.8335  0.5665 -0.1171
  123SOPE   C1113054   2.885   3.343   2.582  0.3342 -0.7135 -1.0538
  123SOPE  H11A13055   2.940   3.284   2.659 -0.8935  2.2798  2.4077
  123SOPE  H11B13056   2.780   3.319   2.609  0.0485  2.1075  0.7850
  123SOPE     P13057   3.062   3.544   2.586  0.1099 -0.2909 -0.8732
  123SOPE   O1313058   3.066   3.669   2.674 -0.0513  0.1250 -0.2597
  123SOPE   O1413059   3.069   3.567   2.440 -0.1487  0.2920 -0.8106
  123SOPE   O1213060   2.914   3.479   2.605 -0.1417 -0.4752 -0.1992
  123SOPE   O1113061   3.170   3.433   2.632  0.1654  0.1397 -0.4233
  123SOPE    C113062   3.195   3.410   2.769 -0.3946  0.4585 -0.4786
  123SOPE    HA13063   3.098   3.393   2.819  0.4989 -1.5293  0.7135
  123SOPE    HB13064   3.246   3.496   2.818 -0.1911 -0.5062  1.0399
  123SOPE    C213065   3.281   3.279   2.789  0.0971 -0.3914  1.4693
  123SOPE    HS13066   3.360   3.286   2.711  0.6158 -0.8434  1.9483
  123SOPE   O2113067   3.189   3.177   2.743  0.0405  0.3930 -0.3941
  123SOPE   C2113068   3.250   3.060   2.726 -0.2460  0.3831 -0.0886
  123SOPE   O2213069   3.371   3.039   2.758  0.4234 -0.2647  0.0915
  123SOPE   C2213070   3.155   2.958   2.670  0.2096  0.0542  0.1431
  123SOPE   H2R13071   3.197   2.910   2.578 -0.5194  3.0844 -1.9340
  123SOPE   H2S13072   3.056   2.997   2.639 -1.0142 -3.9961 -1.8113
  123SOPE    C313073   3.322   3.267   2.937 -0.0292  0.1114 -0.0715
  123SOPE    HX13074   3.397   3.345   2.958 -0.6107  0.2846  1.4439
  123SOPE    HY13075   3.383   3.176   2.957  0.3746  0.3433 -0.2388
  123SOPE   O3113076   3.222   3.271   3.038 -0.1859 -0.5407 -0.2462
  123SOPE   C3113077   3.170   3.384   3.088  0.1360  0.5456 -0.4673
  123SOPE   O3213078   3.204   3.497   3.053  0.5287  0.2465  0.2868
  123SOPE   C3213079   3.069   3.350   3.203  0.1101 -0.0490 -0.0074
  123SOPE   H2X13080   3.030   3.249   3.179 -1.0082  0.5680 -0.8819
  123SOPE   H2Y13081   2.981   3.418   3.199 -1.6908 -2.2808 -0.1678
  123SOPE   C2313082   3.111   2.857   2.778  0.4366  0.7868 -0.3325
  123SOPE   H3R13083   3.199   2.797   2.810 -0.1302 -0.4252 -0.9875
  123SOPE   H3S13084   3.047   2.773   2.744  1.0141 -0.0663  0.6539
  123SOPE   C2413085   3.037   2.918   2.898 -0.4773  0.3802 -0.4264
  123SOPE   H4R13086   3.092   2.975   2.976 -1.2446 -2.2977  2.2701
  123SOPE   H4S13087   2.976   3.003   2.861  0.3905  1.2291  0.0312
  123SOPE   C2513088   2.948   2.822   2.984 -0.9209  0.1999  0.5529
  123SOPE   H5R13089   2.873   2.777   2.914 -0.1552 -1.7784  0.9362
  123SOPE   H5S13090   3.008   2.743   3.034  0.9369  2.2249  1.6826
  123SOPE   C2613091   2.869   2.892   3.093  0.7208  0.2068  1.1415
  123SOPE   H6R13092   2.933   2.970   3.141  1.6954  0.0820  0.0702
  123SOPE   H6S13093   2.787   2.938   3.033 -0.2169 -2.9363 -0.1526
  123SOPE   C2713094   2.815   2.799   3.202 -0.4485 -0.4393  0.0144
  123SOPE   H7R13095   2.756   2.718   3.153  0.1849 -0.8891 -0.0294
  123SOPE   H7S13096   2.903   2.744   3.243 -1.4681 -1.9123  0.3128
  123SOPE   C2813097   2.743   2.876   3.319 -0.0946 -1.1323  0.1203
  123SOPE   H8R13098   2.743   2.816   3.412 -1.2510  0.3247  1.1060
  123SOPE   H8S13099   2.801   2.970   3.332 -1.6320 -0.2399  0.8093
  123SOPE   C2913100   2.596   2.909   3.289 -0.4886  0.2014 -0.2347
  123SOPE   H9113101   2.534   2.833   3.238 -1.5303 -0.8066  2.3630
  123SOPE  C21013102   2.528   3.007   3.346 -0.1042  0.0958 -0.5217
  123SOPE  H10113103   2.420   3.006   3.324 -0.1317 -0.7983 -0.3764
  123SOPE  C21113104   2.581   3.125   3.417 -0.1221 -0.1779 -0.6719
  123SOPE  H11R13105   2.541   3.221   3.379  0.7368  0.3989 -0.1397
  123SOPE  H11S13106   2.687   3.156   3.418 -0.2787  0.6249 -2.9276
  123SOPE  C21213107   2.541   3.118   3.570  0.1738 -0.2968  0.2795
  123SOPE  H12R13108   2.430   3.113   3.577  0.0976 -0.0742 -0.6709
  123SOPE  H12S13109   2.573   3.212   3.620  1.4988 -0.6358  0.1028
  123SOPE  C21313110   2.613   3.003   3.642  0.2106 -0.0816 -0.0197
  123SOPE  H13R13111   2.722   3.023   3.646 -0.3224  3.2913  0.1149
  123SOPE  H13S13112   2.612   2.911   3.580  0.9145 -0.6101  0.7361
  123SOPE  C21413113   2.544   2.981   3.775 -0.6428  0.0615 -0.1971
  123SOPE  H14R13114   2.586   2.895   3.830  0.0069  0.3331 -0.2566
  123SOPE  H14S13115   2.440   2.948   3.755 -0.8297 -2.5040  3.8893
  123SOPE  C21513116   2.530   3.093   3.877  0.4882 -0.7190 -0.1628
  123SOPE  H15R13117   2.472   3.172   3.825 -0.5970 -1.5131 -0.1860
  123SOPE  H15S13118   2.627   3.131   3.917  0.6118  0.9950 -1.9414
  123SOPE  C21613119   2.434   3.059   3.987  0.8628  0.7979 -0.6531
  123SOPE  H16R13120   2.334   3.043   3.943  0.3622 -1.3449  1.1188
  123SOPE  H16S13121   2.425   3.132   4.070  0.4835 -1.8643  1.7856
  123SOPE  C21713122   2.453   2.926   4.061 -0.6437 -0.4493  0.2650
  123SOPE  H17R13123   2.556   2.925   4.103 -0.6399 -2.1317  0.2797
  123SOPE  H17S13124   2.434   2.845   3.987 -2.9101  0.8071 -0.6103
  123SOPE  C21813125   2.347   2.899   4.160  0.2677 -0.3269 -0.7105
  123SOPE  H18R13126   2.249   2.881   4.112  1.0836 -0.9108 -2.2431
  123SOPE  H18S13127   2.332   2.982   4.232  0.2954 -0.1053 -0.9583
  123SOPE  H18T13128   2.379   2.812   4.222  0.3078  0.5509  0.5198
  123SOPE   C3313129   3.134   3.346   3.345  0.0691 -0.2125  0.0660
  123SOPE   H3X13130   3.178   3.445   3.369  1.2189 -0.8087  0.4750
  123SOPE   H3Y13131   3.219   3.275   3.345 -0.1673 -0.5068 -0.8190
  123SOPE   C3413132   3.046   3.331   3.466  0.3922 -0.9642  0.3483
  123SOPE   H4X13133   2.979   3.249   3.435 -0.3935 -0.0555 -0.4152
  123SOPE   H4Y13134   2.973   3.413   3.484  0.3220 -1.1327  0.8456
  123SOPE   C3513135   3.118   3.293   3.593 -0.4503  0.4082  0.2702
  123SOPE   H5X13136   3.198   3.369   3.609 -0.0726  1.0410 -3.6493
  123SOPE   H5Y13137   3.175   3.198   3.586 -2.9153 -1.1070 -0.4338
  123SOPE   C3613138   3.018   3.292   3.712  0.0705  0.3426  0.1170
  123SOPE   H6X13139   3.083   3.258   3.795  2.0801  0.7565 -1.2044
  123SOPE   H6Y13140   2.944   3.211   3.693 -0.1326  0.9973 -2.1489
  123SOPE   C3713141   2.951   3.427   3.742  0.1819 -0.7845 -0.6129
  123SOPE   H7X13142   2.877   3.461   3.666 -2.5399 -1.0140  1.7578
  123SOPE   H7Y13143   3.022   3.513   3.747 -0.5110 -0.2650  0.9064
  123SOPE   C3813144   2.883   3.429   3.882  0.3807  0.3445  0.2714
  123SOPE   H8X13145   2.836   3.329   3.898 -1.8402  1.5148  1.5682
  123SOPE   H8Y13146   2.797   3.500   3.877  0.5764  0.5026 -0.9589
  123SOPE   C3913147   2.972   3.469   4.006  0.4991 -0.1479 -0.0803
  123SOPE   H9X13148   3.010   3.571   3.983  0.2227  0.5192  2.1754
  123SOPE   H9Y13149   3.062   3.405   4.015  1.8743  1.9710  2.7248
  123SOPE  C31013150   2.890   3.469   4.131 -0.5017 -0.0558 -0.8232
  123SOPE  H10X13151   2.804   3.536   4.110  0.3150  0.6956 -1.9111
  123SOPE  H10Y13152   2.940   3.515   4.219 -3.7207 -1.0478  1.6860
  123SOPE  C31113153   2.846   3.332   4.166  0.5587  0.3895  0.9050
  123SOPE  H11X13154   2.925   3.254   4.156 -0.6496 -0.7849  0.0752
  123SOPE  H11Y13155   2.753   3.319   4.106  0.0006  2.0461  1.3668
  123SOPE  C31213156   2.791   3.314   4.312 -0.0707 -0.3134 -0.0703
  123SOPE  H12X13157   2.709   3.382   4.344  0.4503  0.2395  0.1110
  123SOPE  H12Y13158   2.876   3.342   4.378  1.1725 -1.0712 -1.3061
  123SOPE  C31313159   2.754   3.174   4.338  0.1975  0.6503  0.3120
  123SOPE  H13X13160   2.850   3.120   4.335  0.6867  1.5537 -1.6664
  123SOPE  H13Y13161   2.692   3.128   4.259  2.9695 -0.0807 -1.5574
  123SOPE  C31413162   2.687   3.141   4.470 -0.3282  0.3526 -0.1531
  123SOPE  H14X13163   2.592   3.197   4.477 -0.7766 -0.2898 -0.8828
  123SOPE  H14Y13164   2.750   3.182   4.551  0.4860 -0.7246 -0.2162
  123SOPE  C31513165   2.670   2.989   4.484 -0.3403  0.0142 -0.2001
  123SOPE  H15X13166   2.725   2.951   4.573 -1.0062 -1.6093 -0.4384
  123SOPE  H15Y13167   2.708   2.941   4.391 -0.5804  2.1657 -1.4559
  123SOPE  C31613168   2.525   2.958   4.486 -0.0267  0.3322 -0.6031
  123SOPE  H16X13169   2.514   2.854   4.446 -0.3764  0.2932 -0.4113
  123SOPE  H16Y13170   2.473   3.019   4.409 -3.9801 -0.6013  1.0273
  123SOPE  C31713171   2.447   2.966   4.616 -0.5234 -0.5196  0.6132
  123SOPE  H17X13172   2.446   3.069   4.657 -0.9983  0.1920 -1.0753
  123SOPE  H17Y13173   2.509   2.895   4.675 -1.8048 -2.9148 -0.7540
  123SOPE  C31813174   2.306   2.912   4.617 -0.3289  0.5029 -0.2662
  123SOPE  H18X13175   2.247   2.938   4.527 -0.8599  0.1053 -0.0425
  123SOPE  H18Y13176   2.253   2.962   4.701 -0.9305 -2.7229  1.4474
  123SOPE  H18Z13177   2.305   2.806   4.651  1.4034  1.3113  2.6399
  124SOPE     N13178   5.977   2.250   2.410 -0.2324  0.5307  0.4402
  124SOPE   HN113179   5.958   2.216   2.314  3.4570  0.2787 -0.3480
  124SOPE   HN213180   6.015   2.347   2.412  0.7736  0.2726 -2.2793
  124SOPE   HN313181   6.062   2.195   2.430  2.2763  3.4847 -1.2968
  124SOPE   C1213182   5.848   2.237   2.490 -0.2452  0.1681 -0.4040
  124SOPE  H12A13183   5.792   2.333   2.488 -1.8603 -0.7232  0.2832
  124SOPE  H12B13184   5.870   2.229   2.599  2.3766  2.1084 -0.6678
  124SOPE   C1113185   5.759   2.124   2.451  0.3426  0.4380 -0.3711
  124SOPE  H11A13186   5.691   2.098   2.536 -0.5598  0.2153 -1.1454
  124SOPE  H11B13187   5.820   2.032   2.445 -1.8484 -1.1627  0.4011
  124SOPE     P13188   5.581   2.229   2.298 -0.1254 -0.2549  0.4374
  124SOPE   O1313189   5.483   2.153   2.215 -0.1897  0.2898 -0.0436
  124SOPE   O1413190   5.647   2.343   2.238  0.0866 -0.8358 -0.1484
  124SOPE   O1213191   5.696   2.129   2.331  0.0523 -0.0291 -0.0079
  124SOPE   O1113192   5.534   2.273   2.435 -0.7091 -0.2029 -0.0796
  124SOPE    C113193   5.426   2.206   2.497  0.7301  0.0776 -0.1119
  124SOPE    HA13194   5.452   2.099   2.513 -0.6152 -0.1732  0.5182
  124SOPE    HB13195   5.335   2.196   2.433 -1.1046 -1.1070  2.5040
  124SOPE    C213196   5.391   2.278   2.628  0.1926  0.5133  0.2324
  124SOPE    HS13197   5.388   2.388   2.613  0.4573  0.2691 -2.0223
  124SOPE   O2113198   5.485   2.230   2.722 -0.9688  0.1657 -0.6699
  124SOPE   C2113199   5.513   2.316   2.817 -0.1149 -0.3099  0.0277
  124SOPE   O2213200   5.467   2.427   2.829 -0.1829 -0.3546  0.3540
  124SOPE   C2213201   5.623   2.251   2.895 -0.1322  0.2840 -0.9000
  124SOPE   H2R13202   5.709   2.246   2.824  0.2797 -0.1630 -0.3843
  124SOPE   H2S13203   5.594   2.144   2.906 -0.9900  0.5042 -0.9965
  124SOPE    C313204   5.245   2.227   2.679 -0.2936 -0.7650  0.0853
  124SOPE    HX13205   5.166   2.278   2.620  0.0206 -1.6922 -1.1741
  124SOPE    HY13206   5.228   2.255   2.785  0.4340  1.7271 -0.3862
  124SOPE   O3113207   5.233   2.086   2.651  0.7242 -0.0548  0.4120
  124SOPE   C3113208   5.239   2.004   2.754  0.0261 -0.6029  0.1917
  124SOPE   O3213209   5.252   2.039   2.869  0.0144 -0.4544  0.1155
  124SOPE   C3213210   5.230   1.862   2.703 -0.1017  0.2701 -0.4801
  124SOPE   H2X13211   5.284   1.836   2.609  1.7631 -2.0396  1.1299
  124SOPE   H2Y13212   5.122   1.845   2.687  0.3288 -1.5301 -1.6772
  124SOPE   C2313213   5.654   2.313   3.033 -0.2714  0.5366  0.1230
  124SOPE   H3R13214   5.550   2.316   3.073  0.5139  2.1631  2.2471
  124SOPE   H3S13215   5.693   2.417   3.028 -0.9336  0.8872  1.7746
  124SOPE   C2413216   5.753   2.229   3.107 -0.1239 -0.2219  0.4846
  124SOPE   H4R13217   5.708   2.127   3.111 -1.6256  0.3000 -1.5363
  124SOPE   H4S13218   5.852   2.205   3.063  0.0153  0.2387  0.5442
  124SOPE   C2513219   5.790   2.291   3.240  0.4236  0.1018  0.3826
  124SOPE   H5R13220   5.879   2.237   3.281  1.0933  0.1523 -0.9497
  124SOPE   H5S13221   5.829   2.394   3.227 -0.5422  0.4840  0.4937
  124SOPE   C2613222   5.664   2.294   3.336  0.1620  0.6707 -0.4787
  124SOPE   H6R13223   5.601   2.374   3.291 -1.3893 -0.0178  0.3947
  124SOPE   H6S13224   5.600   2.204   3.334  1.4902 -0.3063 -1.3566
  124SOPE   C2713225   5.699   2.335   3.487 -0.2837 -0.9128 -0.6953
  124SOPE   H7R13226   5.782   2.270   3.524  2.1234  2.8905  1.2890
  124SOPE   H7S13227   5.751   2.433   3.491 -0.3755 -0.8982  1.0367
  124SOPE   C2813228   5.590   2.323   3.586 -0.3845  0.3631  0.2945
  124SOPE   H8R13229   5.510   2.398   3.568  0.4273  1.2449  0.2879
  124SOPE   H8S13230   5.563   2.215   3.578  0.4897 -0.2206  3.4772
  124SOPE   C2913231   5.648   2.343   3.725  0.4143  1.0388  0.0775
  124SOPE   H9113232   5.756   2.324   3.736  0.0783 -0.6216  0.9066
  124SOPE  C21013233   5.578   2.378   3.834 -0.1148  0.2684 -0.1261
  124SOPE  H10113234   5.635   2.379   3.928  0.5245  1.6303 -0.5002
  124SOPE  C21113235   5.432   2.409   3.837  0.5389  0.5775  0.0383
  124SOPE  H11R13236   5.376   2.334   3.778  1.9503  0.2271 -0.9256
  124SOPE  H11S13237   5.416   2.511   3.795 -2.0146  0.5117  0.7210
  124SOPE  C21213238   5.391   2.413   3.987  0.5170 -0.0370  0.8401
  124SOPE  H12R13239   5.425   2.321   4.041  2.8842 -0.2254 -0.8169
  124SOPE  H12S13240   5.281   2.421   3.977  0.5862  0.9691  0.8461
  124SOPE  C21313241   5.451   2.523   4.070 -0.0441  0.8008 -0.6216
  124SOPE  H13R13242   5.452   2.620   4.016  0.7520  0.8525 -0.5250
  124SOPE  H13S13243   5.558   2.509   4.098 -0.4730  0.6283  1.0402
  124SOPE  C21413244   5.375   2.562   4.204 -0.0775 -0.8029 -0.3040
  124SOPE  H14R13245   5.287   2.621   4.170  0.5178  0.5302  0.3837
  124SOPE  H14S13246   5.429   2.640   4.262  0.2405 -0.7272 -0.6960
  124SOPE  C21513247   5.317   2.452   4.289  0.1685 -0.7761  0.1684
  124SOPE  H15R13248   5.240   2.394   4.235 -0.3318 -0.8756  0.9729
  124SOPE  H15S13249   5.259   2.491   4.376 -1.7180 -0.8872 -0.9841
  124SOPE  C21613250   5.431   2.360   4.338 -0.1987 -0.3640  1.4152
  124SOPE  H16R13251   5.515   2.417   4.384  1.7785 -1.8424 -0.1991
  124SOPE  H16S13252   5.468   2.320   4.241 -2.3167  0.6520  0.1118
  124SOPE  C21713253   5.385   2.259   4.448  0.2815 -0.1107 -0.0463
  124SOPE  H17R13254   5.291   2.212   4.412  1.3309 -1.4579 -1.1733
  124SOPE  H17S13255   5.359   2.315   4.540 -0.6509 -2.2401  1.0739
  124SOPE  C21813256   5.496   2.154   4.472  0.1432  1.1749  0.6155
  124SOPE  H18R13257   5.460   2.057   4.512  0.4942  0.2364 -1.2435
  124SOPE  H18S13258   5.578   2.191   4.538  1.2884 -0.3672  0.1175
  124SOPE  H18T13259   5.550   2.143   4.376 -2.2640 -0.8117 -0.6266
  124SOPE   C3313260   5.279   1.759   2.800 -0.3627  0.0142  0.0089
  124SOPE   H3X13261   5.376   1.794   2.842 -0.3471 -0.6255  0.5226
  124SOPE   H3Y13262   5.289   1.670   2.734  0.6057  1.0450 -1.2943
  124SOPE   C3413263   5.184   1.733   2.914  0.9504  0.5528 -0.3148
  124SOPE   H4X13264   5.089   1.693   2.874  1.7230 -1.2545 -0.4400
  124SOPE   H4Y13265   5.164   1.831   2.962  0.2931  0.9561 -1.3732
  124SOPE   C3513266   5.241   1.641   3.024  0.0735 -0.2879  0.2094
  124SOPE   H5X13267   5.324   1.695   3.074 -1.3699  0.6007  1.7209
  124SOPE   H5Y13268   5.288   1.550   2.980 -0.5078 -0.6712  0.3673
  124SOPE   C3613269   5.127   1.614   3.123 -0.1234  0.2499  0.0919
  124SOPE   H6X13270   5.046   1.556   3.073 -0.1639 -0.8370  1.3584
  124SOPE   H6Y13271   5.085   1.714   3.146  0.0867  0.7590 -1.6060
  124SOPE   C3713272   5.172   1.543   3.251  0.5762  0.1536 -0.6351
  124SOPE   H7X13273   5.260   1.588   3.301 -0.5266  2.1285 -0.3452
  124SOPE   H7Y13274   5.200   1.441   3.218  2.0423  0.2616  0.1745
  124SOPE   C3813275   5.065   1.522   3.358  0.5141  0.2091 -0.7365
  124SOPE   H8X13276   4.988   1.460   3.307  0.2121  1.0828 -1.3733
  124SOPE   H8Y13277   5.023   1.617   3.396 -1.8371  0.1889 -2.9814
  124SOPE   C3913278   5.106   1.439   3.476 -0.1258  0.2812  0.8673
  124SOPE   H9X13279   5.178   1.499   3.536 -1.3155  1.7025  0.9127
  124SOPE   H9Y13280   5.161   1.351   3.434  1.0161  1.4220 -0.1294
  124SOPE  C31013281   4.989   1.394   3.567 -0.3607  0.0225 -0.2160
  124SOPE  H10X13282   4.925   1.318   3.517 -0.2486  1.1341 -2.1250
  124SOPE  H10Y13283   4.917   1.475   3.588 -0.0394  0.1806  0.3090
  124SOPE  C31113284   5.038   1.344   3.702 -0.3580 -0.1517  0.7653
  124SOPE  H11X13285   5.115   1.413   3.744 -1.4830  0.5884  1.6496
  124SOPE  H11Y13286   5.088   1.245   3.687  0.9212  0.7014 -0.9790
  124SOPE  C31213287   4.931   1.342   3.808  0.2508 -1.1159 -0.0866
  124SOPE  H12X13288   4.841   1.288   3.772 -0.4672  0.5859 -0.9655
  124SOPE  H12Y13289   4.901   1.448   3.824  0.4153 -1.1950  0.7989
  124SOPE  C31313290   4.967   1.272   3.942 -0.3061  0.7124  0.4399
  124SOPE  H13X13291   4.994   1.166   3.920 -0.3597  0.6821  0.5228
  124SOPE  H13Y13292   4.886   1.264   4.017 -1.0416  3.8558  0.1058
  124SOPE  C31413293   5.090   1.339   4.012  0.7630 -0.0555  0.0074
  124SOPE  H14X13294   5.063   1.443   4.040 -0.0182 -0.6745  1.7198
  124SOPE  H14Y13295   5.171   1.336   3.936  0.8476 -2.2664  0.1166
  124SOPE  C31513296   5.125   1.263   4.146 -0.1313  0.2118 -0.1608
  124SOPE  H15X13297   5.151   1.158   4.121 -1.5227 -0.3836  0.8019
  124SOPE  H15Y13298   5.040   1.239   4.212  1.5467 -0.8774  1.7154
  124SOPE  C31613299   5.242   1.326   4.227  0.3566  0.4369  0.6487
  124SOPE  H16X13300   5.322   1.350   4.153 -0.8092  0.2141 -0.7298
  124SOPE  H16Y13301   5.291   1.259   4.301  1.8364  1.9405  1.0997
  124SOPE  C31713302   5.195   1.445   4.302  0.1700 -0.5812 -0.4217
  124SOPE  H17X13303   5.110   1.412   4.365 -0.1319 -2.3503 -1.6928
  124SOPE  H17Y13304   5.164   1.528   4.235  1.6766 -0.6293 -1.2143
  124SOPE  C31813305   5.317   1.502   4.382  0.1074  0.1247  0.1467
  124SOPE  H18X13306   5.287   1.597   4.430 -0.4477  0.0327 -0.0031
  124SOPE  H18Y13307   5.392   1.530   4.305  0.6542 -2.0311 -0.1661
  124SOPE  H18Z13308   5.360   1.418   4.441 -1.0031 -1.7739 -1.5971
  125SOPE     N13309   1.144   2.965   2.378  1.3349 -0.0700  0.0460
  125SOPE   HN113310   1.087   3.010   2.452  0.8778 -2.3207  1.1501
  125SOPE   HN213311   1.194   2.887   2.425  1.7887 -0.7961 -1.5590
  125SOPE   HN313312   1.212   3.035   2.342 -0.0298  1.3450  0.1143
  125SOPE   C1213313   1.059   2.911   2.267 -0.5234 -0.2930 -0.1287
  125SOPE  H12A13314   1.113   2.825   2.223  1.3548  0.4065  0.7332
  125SOPE  H12B13315   1.041   2.992   2.192 -1.0094  1.3175  1.6344
  125SOPE   C1113316   0.920   2.866   2.322 -0.4658  0.0594 -0.1533
  125SOPE  H11A13317   0.858   2.817   2.244 -1.0943  1.0825 -0.3117
  125SOPE  H11B13318   0.874   2.964   2.345 -1.0120 -0.7325  2.5407
  125SOPE     P13319   0.833   2.673   2.490 -0.2151 -0.2257 -0.0642
  125SOPE   O1313320   0.907   2.548   2.504  0.2420 -0.1031  0.2641
  125SOPE   O1413321   0.721   2.668   2.390  0.6820 -0.1275 -0.8455
  125SOPE   O1213322   0.931   2.790   2.441  0.2609  0.8828  0.4124
  125SOPE   O1113323   0.784   2.731   2.629 -0.0654 -0.5443 -0.0192
  125SOPE    C113324   0.698   2.841   2.635 -0.3047  0.4786 -0.0755
  125SOPE    HA13325   0.603   2.824   2.581 -1.8340  1.2431  2.2292
  125SOPE    HB13326   0.748   2.926   2.583  1.7107  0.4877  1.7012
  125SOPE    C213327   0.656   2.875   2.782  0.4450  0.5437 -0.6426
  125SOPE    HS13328   0.597   2.969   2.778  0.1577  0.3485 -4.1635
  125SOPE   O2113329   0.770   2.890   2.873 -0.3707 -0.5619 -0.0252
  125SOPE   C2113330   0.862   2.991   2.852  0.0227  0.0556  0.2079
  125SOPE   O2213331   0.845   3.088   2.781  0.2412  0.3188 -0.1141
  125SOPE   C2213332   0.997   2.951   2.937  0.3169 -0.5956 -0.5511
  125SOPE   H2R13333   0.991   3.012   3.030  0.3772  1.6400 -1.9367
  125SOPE   H2S13334   1.079   2.990   2.874 -2.0522  1.4399 -2.5892
  125SOPE    C313335   0.551   2.773   2.832  0.0999  0.3200 -0.4023
  125SOPE    HX13336   0.617   2.690   2.865  0.7921  0.2459 -1.8495
  125SOPE    HY13337   0.492   2.751   2.740 -0.2628 -2.2875  0.3603
  125SOPE   O3113338   0.471   2.836   2.937  0.9196 -0.0310  0.5513
  125SOPE   C3113339   0.404   2.741   3.008 -0.2374 -0.1366  0.1043
  125SOPE   O3213340   0.403   2.622   2.981  0.1558 -0.0974  0.3298
  125SOPE   C3213341   0.354   2.806   3.140  0.3045 -0.0710  0.4639
  125SOPE   H2X13342   0.255   2.846   3.109 -0.0077 -1.3167 -0.2330
  125SOPE   H2Y13343   0.418   2.891   3.172 -2.4477  2.1725  0.3987
  125SOPE   C2313344   1.009   2.798   2.956 -0.4727  0.4847  0.2362
  125SOPE   H3R13345   1.113   2.769   2.928 -0.8661  0.6884 -1.5405
  125SOPE   H3S13346   0.948   2.745   2.880 -1.1636  1.7610 -0.1347
  125SOPE   C2413347   0.985   2.754   3.102  0.3045 -0.5513  0.0030
  125SOPE   H4R13348   1.030   2.655   3.124 -0.0831 -1.1952 -1.9669
  125SOPE   H4S13349   1.039   2.834   3.158  2.6665 -0.6465 -1.9808
  125SOPE   C2513350   0.833   2.755   3.123 -0.0955  0.5779  0.2441
  125SOPE   H5R13351   0.784   2.851   3.095  0.3493  0.4712 -0.9628
  125SOPE   H5S13352   0.797   2.693   3.038  0.7249  0.6756 -0.1796
  125SOPE   C2613353   0.783   2.704   3.247 -0.3933  0.5052  0.7315
  125SOPE   H6R13354   0.675   2.731   3.246 -0.3699  0.6813 -1.3030
  125SOPE   H6S13355   0.789   2.594   3.256  0.2112  0.4282 -0.4719
  125SOPE   C2713356   0.847   2.769   3.369 -0.6714 -0.2334 -0.2952
  125SOPE   H7R13357   0.831   2.700   3.454  0.7928 -1.0184 -0.6362
  125SOPE   H7S13358   0.956   2.778   3.348 -0.3422 -0.1579  1.3412
  125SOPE   C2813359   0.773   2.896   3.419 -0.9367  0.2052 -0.5732
  125SOPE   H8R13360   0.675   2.861   3.458 -0.7383 -0.8320 -0.9562
  125SOPE   H8S13361   0.823   2.932   3.511  0.0897 -0.8950 -0.6751
  125SOPE   C2913362   0.781   3.010   3.321 -0.4057 -0.7300  0.1434
  125SOPE   H9113363   0.856   3.001   3.241  0.9700  1.2484  1.1192
  125SOPE  C21013364   0.701   3.116   3.331 -0.0115  0.5117  0.7421
  125SOPE  H10113365   0.725   3.201   3.265 -0.4268 -0.0415 -0.1457
  125SOPE  C21113366   0.582   3.148   3.420  0.8627  0.1633  0.4194
  125SOPE  H11R13367   0.537   3.056   3.464  1.2153 -0.6480 -0.8612
  125SOPE  H11S13368   0.506   3.201   3.358  0.2972 -2.7345 -1.5818
  125SOPE  C21213369   0.629   3.219   3.538  0.1228  0.7304  0.6228
  125SOPE  H12R13370   0.680   3.314   3.511 -0.2463  0.5381 -0.8168
  125SOPE  H12S13371   0.694   3.154   3.602 -0.6826  0.2623  0.9772
  125SOPE  C21313372   0.517   3.267   3.641  0.4105 -0.3602 -0.3839
  125SOPE  H13R13373   0.429   3.286   3.577 -0.9173 -0.7099  1.2740
  125SOPE  H13S13374   0.544   3.367   3.683  0.7257 -0.4129 -0.4587
  125SOPE  C21413375   0.476   3.184   3.765 -0.2249 -0.0371 -1.0264
  125SOPE  H14R13376   0.509   3.079   3.748 -0.0726 -0.5115  1.8428
  125SOPE  H14S13377   0.367   3.172   3.782  0.2655 -2.4375  1.0198
  125SOPE  C21513378   0.540   3.248   3.891 -0.2368  0.5295 -0.3611
  125SOPE  H15R13379   0.499   3.349   3.912  1.4805  0.7723  2.2203
  125SOPE  H15S13380   0.650   3.257   3.874 -0.2499  2.7873  0.4109
  125SOPE  C21613381   0.519   3.170   4.016  1.1608  0.7320 -0.5914
  125SOPE  H16R13382   0.523   3.062   3.994 -1.6210 -0.2974  2.9437
  125SOPE  H16S13383   0.414   3.185   4.050  0.5917 -3.6852  0.0897
  125SOPE  C21713384   0.613   3.196   4.129 -0.2510  0.2219  0.5465
  125SOPE  H17R13385   0.600   3.296   4.175 -1.5713 -0.5784  2.0027
  125SOPE  H17S13386   0.710   3.179   4.077 -0.1096  0.1762  0.8291
  125SOPE  C21813387   0.622   3.091   4.242  0.1739  0.0224 -0.0041
  125SOPE  H18R13388   0.699   3.116   4.318 -0.2668 -1.2313  0.8974
  125SOPE  H18S13389   0.646   2.991   4.199 -1.0624 -0.0787 -0.5158
  125SOPE  H18T13390   0.526   3.068   4.295  0.4434  0.2972  0.6083
  125SOPE   C3313391   0.354   2.699   3.250 -0.1596  0.2724 -0.1024
  125SOPE   H3X13392   0.441   2.631   3.239 -1.0639 -0.9043 -0.1514
  125SOPE   H3Y13393   0.266   2.634   3.231  0.7945 -0.9888 -0.3915
  125SOPE   C3413394   0.348   2.760   3.389  0.6305 -0.2208  0.9967
  125SOPE   H4X13395   0.260   2.828   3.397  0.4778 -0.2406 -0.1932
  125SOPE   H4Y13396   0.439   2.821   3.410  0.8779 -0.3390  0.3087
  125SOPE   C3513397   0.340   2.656   3.497 -0.0611 -0.1584  0.6628
  125SOPE   H5X13398   0.447   2.627   3.505 -0.4713 -1.5037  1.6956
  125SOPE   H5Y13399   0.285   2.563   3.472  1.0796 -1.2403  2.0096
  125SOPE   C3613400   0.325   2.711   3.643 -0.2487  0.1139 -0.5985
  125SOPE   H6X13401   0.291   2.632   3.713  0.8589 -0.4683 -0.6965
  125SOPE   H6Y13402   0.233   2.774   3.650 -0.1102  0.4336 -1.4671
  125SOPE   C3713403   0.447   2.792   3.703 -0.1645  0.0435  0.4332
  125SOPE   H7X13404   0.423   2.839   3.800  0.4957 -0.1925  0.7120
  125SOPE   H7Y13405   0.459   2.886   3.644  1.5733  0.0988  0.8301
  125SOPE   C3813406   0.583   2.724   3.719  0.5474 -0.4866 -0.2164
  125SOPE   H8X13407   0.631   2.709   3.620 -0.7320 -1.4448 -0.7141
  125SOPE   H8Y13408   0.567   2.626   3.770 -3.4316 -1.6904 -3.2266
  125SOPE   C3913409   0.682   2.801   3.806 -0.2184 -0.1117  0.1771
  125SOPE   H9X13410   0.634   2.791   3.906  1.5707  0.0732  1.0813
  125SOPE   H9Y13411   0.690   2.904   3.766 -0.2344 -1.1531 -2.7375
  125SOPE  C31013412   0.812   2.716   3.823 -0.0532 -0.3127  0.1667
  125SOPE  H10X13413   0.853   2.695   3.722  0.2159  1.2958 -0.0827
  125SOPE  H10Y13414   0.794   2.617   3.870  0.3398  0.5541  2.2386
  125SOPE  C31113415   0.925   2.783   3.908  0.7808 -0.2568  0.5528
  125SOPE  H11X13416   0.953   2.877   3.855 -1.4859 -0.0425 -0.3721
  125SOPE  H11Y13417   1.009   2.711   3.901  1.3425  0.4090  0.2720
  125SOPE  C31213418   0.883   2.824   4.051 -0.1107  0.1094  0.1332
  125SOPE  H12X13419   0.848   2.726   4.090  1.0304 -0.6887 -0.7828
  125SOPE  H12Y13420   0.797   2.895   4.048  1.1338  1.6726 -2.3306
  125SOPE  C31313421   0.996   2.885   4.137  0.1043  0.3756 -0.5926
  125SOPE  H13X13422   1.068   2.801   4.153  0.0493  0.3708 -0.3623
  125SOPE  H13Y13423   0.948   2.893   4.237  0.9709  0.6229 -0.1852
  125SOPE  C31413424   1.053   3.022   4.094  0.1172 -0.0109  0.4063
  125SOPE  H14X13425   0.970   3.095   4.089  0.5162  0.3991 -0.5596
  125SOPE  H14Y13426   1.102   2.997   3.997  0.2822  0.1434  0.4500
  125SOPE  C31513427   1.151   3.093   4.184  0.2771  0.3007 -0.4864
  125SOPE  H15X13428   1.110   3.116   4.285  1.5463 -1.1264  0.3908
  125SOPE  H15Y13429   1.177   3.194   4.145 -0.6072  0.9126  0.4414
  125SOPE  C31613430   1.285   3.026   4.197  0.8266 -0.3784  0.5214
  125SOPE  H16X13431   1.335   3.006   4.100  3.0549  2.6295  0.9054
  125SOPE  H16Y13432   1.263   2.926   4.242 -1.3334  0.3673  1.2696
  125SOPE  C31713433   1.391   3.082   4.296 -0.2405 -0.2764 -0.3553
  125SOPE  H17X13434   1.486   3.025   4.305  1.2846  2.2476  0.9671
  125SOPE  H17Y13435   1.342   3.074   4.396 -0.3082  0.2355 -0.3442
  125SOPE  C31813436   1.410   3.235   4.276 -0.0014  0.5112  0.0989
  125SOPE  H18X13437   1.323   3.299   4.302 -0.1328  0.9351 -1.3296
  125SOPE  H18Y13438   1.437   3.263   4.173  2.0129  0.3185  0.5325
  125SOPE  H18Z13439   1.484   3.276   4.348 -0.0239  0.2266  0.2878
  126SOPE     N13440   2.052   6.695   1.977 -0.0224 -0.0060 -0.7862
  126SOPE   HN113441   1.996   6.735   2.054  0.3469 -1.3599  0.2160
  126SOPE   HN213442   2.070   6.763   1.900  1.5538 -1.0754 -1.4209
  126SOPE   HN313443   2.010   6.606   1.943  1.4207 -1.4535  0.9923
  126SOPE   C1213444   2.181   6.654   2.033  0.1506  0.5821  0.1029
  126SOPE  H12A13445   2.247   6.743   2.033 -0.1277  0.7873 -0.0717
  126SOPE  H12B13446   2.218   6.567   1.975  0.0143  0.8559 -0.3932
  126SOPE   C1113447   2.159   6.598   2.174  0.5179 -0.1075 -0.3769
  126SOPE  H11A13448   2.160   6.691   2.234  0.4154  2.0762 -3.5439
  126SOPE  H11B13449   2.251   6.545   2.209  0.7276  1.1559  1.0705
  126SOPE     P13450   2.042   6.377   2.261 -0.0364  0.2509  0.0727
  126SOPE   O1313451   2.153   6.302   2.207 -0.1750 -0.0011  0.3631
  126SOPE   O1413452   1.916   6.306   2.242  0.6910  0.1256 -0.3123
  126SOPE   O1213453   2.036   6.517   2.188  0.7457 -0.0107 -0.1238
  126SOPE   O1113454   2.062   6.408   2.412 -0.1136 -0.9435 -0.6939
  126SOPE    C113455   1.994   6.525   2.465  0.2081 -0.5937 -0.2680
  126SOPE    HA13456   1.884   6.511   2.471 -0.0220  1.2106  0.5906
  126SOPE    HB13457   1.999   6.619   2.405  0.0525  0.3899  1.1944
  126SOPE    C213458   2.034   6.546   2.616 -0.5112 -0.0446 -0.1682
  126SOPE    HS13459   1.977   6.635   2.649  0.4165 -0.0418  1.5334
  126SOPE   O2113460   2.174   6.566   2.619  0.4868  0.3342  0.0188
  126SOPE   C2113461   2.215   6.631   2.725 -0.6824  0.2136  0.5765
  126SOPE   O2213462   2.144   6.692   2.801 -0.0822 -0.1815 -0.1517
  126SOPE   C2213463   2.365   6.615   2.752 -0.0460 -0.6736 -0.1337
  126SOPE   H2R13464   2.424   6.707   2.732 -0.7015 -0.2831 -0.3209
  126SOPE   H2S13465   2.402   6.538   2.680  0.2370 -1.5360  0.9053
  126SOPE    C313466   1.990   6.424   2.703  0.4375 -0.2224 -0.6018
  126SOPE    HX13467   2.044   6.329   2.682 -3.1625 -2.1330 -2.0608
  126SOPE    HY13468   1.887   6.388   2.686  0.1177  0.2969  0.2178
  126SOPE   O3113469   2.000   6.461   2.842  0.3515  0.1274  0.2343
  126SOPE   C3113470   1.909   6.546   2.882 -0.1161 -0.0771 -0.1348
  126SOPE   O3213471   1.820   6.597   2.820  0.6765  0.4076 -0.1396
  126SOPE   C3213472   1.951   6.593   3.018  0.0439  0.2594  0.0336
  126SOPE   H2X13473   1.858   6.628   3.069  1.9067  2.5845  2.0413
  126SOPE   H2Y13474   2.024   6.676   3.008 -2.4177  2.6247  0.3510
  126SOPE   C2313475   2.411   6.573   2.898 -0.2103 -0.6189  0.2520
  126SOPE   H3R13476   2.521   6.559   2.910 -0.1929 -0.2135  0.6097
  126SOPE   H3S13477   2.368   6.473   2.919  2.9431 -1.7427  2.1327
  126SOPE   C2413478   2.384   6.673   3.011  0.1099  0.0402  0.3902
  126SOPE   H4R13479   2.447   6.763   2.994 -0.7460  0.9456  1.7487
  126SOPE   H4S13480   2.279   6.708   3.013  0.6501  1.8584 -0.5247
  126SOPE   C2513481   2.421   6.607   3.147 -0.1575  0.3464 -0.0105
  126SOPE   H5R13482   2.360   6.515   3.159  1.4252 -0.6437  0.9090
  126SOPE   H5S13483   2.526   6.572   3.145 -0.6547 -1.5170  1.9999
  126SOPE   C2613484   2.400   6.702   3.264  0.2308 -0.4364  0.1280
  126SOPE   H6R13485   2.475   6.784   3.259  0.6287 -0.6377  2.2154
  126SOPE   H6S13486   2.303   6.751   3.243  0.5047  0.1135  0.1382
  126SOPE   C2713487   2.427   6.644   3.403 -0.0370  0.0535 -0.3756
  126SOPE   H7R13488   2.339   6.576   3.408 -2.2106  2.7029 -0.1277
  126SOPE   H7S13489   2.527   6.595   3.409 -0.2644 -0.4378 -0.5375
  126SOPE   C2813490   2.411   6.748   3.516  0.6086  0.5016 -0.6061
  126SOPE   H8R13491   2.501   6.814   3.513  1.1879 -0.2964 -0.9345
  126SOPE   H8S13492   2.313   6.797   3.501 -0.9093 -2.6056 -1.6164
  126SOPE   C2913493   2.404   6.677   3.654  0.7783  0.8622  0.4884
  126SOPE   H9113494   2.423   6.570   3.646 -1.4051  0.3581  1.2181
  126SOPE  C21013495   2.345   6.730   3.765  0.2320  0.0403  0.6605
  126SOPE  H10113496   2.329   6.657   3.845  2.8724 -2.6049 -0.9984
  126SOPE  C21113497   2.290   6.868   3.773  0.3409 -0.6318 -0.2705
  126SOPE  H11R13498   2.219   6.884   3.858  0.0875 -0.7116 -0.4650
  126SOPE  H11S13499   2.228   6.901   3.687  1.2693  0.4296 -0.5549
  126SOPE  C21213500   2.407   6.966   3.789 -0.3323  0.0874  0.5745
  126SOPE  H12R13501   2.367   7.069   3.778  3.0716  1.5819  1.0802
  126SOPE  H12S13502   2.463   6.952   3.694 -1.4982 -3.3706  0.2387
  126SOPE  C21313503   2.508   6.954   3.903 -0.2784  0.1655 -0.5954
  126SOPE  H13R13504   2.538   6.850   3.931 -1.1161  0.2853  0.8231
  126SOPE  H13S13505   2.465   6.986   4.000  1.6271  0.9555  0.0285
  126SOPE  C21413506   2.630   7.041   3.877  0.1935  0.2151 -0.7827
  126SOPE  H14R13507   2.608   7.147   3.850  2.4159  1.5870  2.2085
  126SOPE  H14S13508   2.695   7.011   3.793  1.8345  2.1608 -0.2772
  126SOPE  C21513509   2.721   7.060   4.003  0.5055 -0.3952  0.3297
  126SOPE  H15R13510   2.652   7.111   4.074 -1.0015 -3.9155  1.6431
  126SOPE  H15S13511   2.802   7.130   3.973  1.1338 -0.9476  0.6997
  126SOPE  C21613512   2.793   6.930   4.053  0.5253  0.8633  0.0989
  126SOPE  H16R13513   2.845   6.887   3.964 -0.2494 -1.2397  0.6187
  126SOPE  H16S13514   2.714   6.858   4.079  0.0619  1.5831  0.7240
  126SOPE  C21713515   2.896   6.950   4.164 -0.2634 -0.3780 -0.0679
  126SOPE  H17R13516   2.975   7.017   4.125 -0.1539 -0.4546  0.0239
  126SOPE  H17S13517   2.952   6.857   4.187 -0.6996 -0.7087 -0.3261
  126SOPE  C21813518   2.846   7.021   4.289 -0.3417 -0.2462  0.6304
  126SOPE  H18R13519   2.801   6.948   4.360  1.3413 -0.9168  1.0448
  126SOPE  H18S13520   2.776   7.104   4.269  0.3776  0.2676  0.2303
  126SOPE  H18T13521   2.930   7.065   4.346 -0.8601  2.3843 -0.5266
  126SOPE   C3313522   2.024   6.486   3.109 -0.5330 -0.2703 -0.5418
  126SOPE   H3X13523   2.114   6.453   3.053  1.0589  1.6665  0.7497
  126SOPE   H3Y13524   1.967   6.396   3.140  0.7411 -0.9170  0.0011
  126SOPE   C3413525   2.088   6.551   3.240 -0.3767 -0.5853 -0.4093
  126SOPE   H4X13526   2.119   6.649   3.198 -3.1144  1.4041  1.8399
  126SOPE   H4Y13527   2.174   6.487   3.270  1.1211  1.3052 -0.4344
  126SOPE   C3513528   1.985   6.586   3.355  0.5609 -0.0318 -0.2626
  126SOPE   H5X13529   1.912   6.504   3.365 -0.0414  0.1838 -2.4554
  126SOPE   H5Y13530   1.930   6.678   3.326 -0.8941 -1.0443 -0.7988
  126SOPE   C3613531   2.049   6.615   3.499 -0.3106  0.4735 -0.3058
  126SOPE   H6X13532   2.075   6.722   3.506  0.5550  0.2510 -0.0367
  126SOPE   H6Y13533   2.138   6.548   3.502 -1.0933 -0.5607  1.1854
  126SOPE   C3713534   1.953   6.581   3.614 -0.5738  0.0370 -0.7047
  126SOPE   H7X13535   1.922   6.475   3.618 -0.1527 -0.1897 -2.5410
  126SOPE   H7Y13536   1.857   6.638   3.614 -1.1243 -0.7841  1.4322
  126SOPE   C3813537   2.008   6.603   3.758  0.1548 -1.0361  0.2838
  126SOPE   H8X13538   2.023   6.713   3.767  1.5420 -1.2204  0.5321
  126SOPE   H8Y13539   2.111   6.561   3.753 -0.0151 -1.4502  0.2111
  126SOPE   C3913540   1.916   6.566   3.875  0.1212 -0.3050  0.1608
  126SOPE   H9X13541   1.914   6.455   3.884  0.6484 -0.4330 -0.9834
  126SOPE   H9Y13542   1.813   6.591   3.845  0.1963  0.0152  0.1686
  126SOPE  C31013543   1.951   6.634   4.005 -0.2929 -0.0930 -0.2109
  126SOPE  H10X13544   1.977   6.742   3.999  1.3476 -0.4361  0.3359
  126SOPE  H10Y13545   2.039   6.579   4.044  0.6570  0.4902 -1.4642
  126SOPE  C31113546   1.834   6.623   4.107 -0.0919 -0.8209 -0.1722
  126SOPE  H11X13547   1.811   6.517   4.128  0.3942 -0.5652  1.9032
  126SOPE  H11Y13548   1.742   6.668   4.064  0.0594  1.3451  1.5436
  126SOPE  C31213549   1.878   6.676   4.246 -0.6026 -0.7297  0.6863
  126SOPE  H12X13550   1.925   6.775   4.228  1.0633 -1.5948 -0.0238
  126SOPE  H12Y13551   1.961   6.617   4.290 -0.3535 -0.4716  0.5649
  126SOPE  C31313552   1.768   6.698   4.348 -0.1180 -0.1935 -0.2140
  126SOPE  H13X13553   1.688   6.765   4.311  0.2613  0.6737  0.5203
  126SOPE  H13Y13554   1.814   6.759   4.427  0.0614 -1.0747  0.3796
  126SOPE  C31413555   1.707   6.569   4.396 -0.3670  0.0162 -0.1516
  126SOPE  H14X13556   1.785   6.512   4.449 -0.4134  0.1407  0.0519
  126SOPE  H14Y13557   1.667   6.500   4.319 -1.1513 -0.3874  0.5978
  126SOPE  C31513558   1.595   6.590   4.498  0.4874  0.1699  0.4602
  126SOPE  H15X13559   1.578   6.503   4.565 -1.4731  0.0297 -0.1750
  126SOPE  H15Y13560   1.502   6.604   4.441  0.1818  2.6224  1.4552
  126SOPE  C31613561   1.602   6.720   4.577 -0.0198  0.1370 -0.0188
  126SOPE  H16X13562   1.596   6.814   4.517 -2.9053 -0.4432 -0.7782
  126SOPE  H16Y13563   1.695   6.721   4.637 -0.2883 -1.0414  0.4272
  126SOPE  C31713564   1.483   6.729   4.674 -0.2389 -0.2949 -0.4346
  126SOPE  H17X13565   1.490   6.638   4.737 -0.6229  0.1176  0.2197
  126SOPE  H17Y13566   1.382   6.715   4.632 -0.1723 -1.5685 -0.2169
  126SOPE  C31813567   1.479   6.849   4.765 -0.0670 -0.4897 -0.8801
  126SOPE  H18X13568   1.555   6.840   4.846  0.2206 -1.2209 -1.2263
  126SOPE  H18Y13569   1.387   6.858   4.826 -0.2183 -0.8248 -1.0599
  126SOPE  H18Z13570   1.497   6.945   4.711  1.1833  0.3525  0.9474
  127SOPE     N13571   2.855   1.323   2.303  0.3634 -0.1392  0.2905
  127SOPE   HN113572   2.785   1.389   2.266  1.1990  0.3598 -0.4563
  127SOPE   HN213573   2.877   1.359   2.398  0.6570  1.6384 -0.4234
  127SOPE   HN313574   2.941   1.333   2.245 -0.1134  2.5779 -0.0509
  127SOPE   C1213575   2.825   1.174   2.287  0.5939 -0.4393 -0.5327
  127SOPE  H12A13576   2.893   1.117   2.352 -0.0858 -1.1912 -0.4700
  127SOPE  H12B13577   2.844   1.132   2.186 -0.4894 -0.2698 -0.8196
  127SOPE   C1113578   2.679   1.151   2.324 -0.1325  0.1673  0.3273
  127SOPE  H11A13579   2.664   1.163   2.434 -0.7647 -0.9517  0.3739
  127SOPE  H11B13580   2.661   1.042   2.309 -1.0556  0.2609  0.6958
  127SOPE     P13581   2.488   1.321   2.284 -0.1321  0.0281  0.0500
  127SOPE   O1313582   2.409   1.371   2.171  0.3879 -0.5372  0.2388
  127SOPE   O1413583   2.575   1.418   2.354  0.0641 -0.1477  0.8594
  127SOPE   O1213584   2.589   1.211   2.234  0.1905  0.3129 -0.2454
  127SOPE   O1113585   2.392   1.252   2.394  0.0284  0.4641 -0.0083
  127SOPE    C113586   2.309   1.143   2.348  0.4780  0.2533  0.1233
  127SOPE    HA13587   2.363   1.056   2.307 -1.4020  0.7182 -3.8553
  127SOPE    HB13588   2.214   1.174   2.299  0.6312 -0.8458 -0.9074
  127SOPE    C213589   2.256   1.075   2.482 -0.7530  0.1624 -0.2883
  127SOPE    HS13590   2.255   0.966   2.458  0.5189  0.2492 -0.8105
  127SOPE   O2113591   2.120   1.122   2.506  0.2446  0.0651 -0.8754
  127SOPE   C2113592   2.038   1.050   2.582  0.3053  0.1718  0.4671
  127SOPE   O2213593   2.059   0.938   2.615 -0.1216 -0.2274  0.2004
  127SOPE   C2213594   1.913   1.125   2.624 -0.4484 -0.5484  0.1613
  127SOPE   H2R13595   1.837   1.090   2.551  0.6545 -0.2351 -1.1699
  127SOPE   H2S13596   1.932   1.234   2.610  0.3466 -0.9065 -1.8398
  127SOPE    C313597   2.351   1.091   2.609 -0.3235  0.3014  0.5330
  127SOPE    HX13598   2.354   1.197   2.641  0.1969  0.2952  0.5186
  127SOPE    HY13599   2.456   1.069   2.579 -0.3202 -0.4625  1.0691
  127SOPE   O3113600   2.298   1.015   2.718 -0.9212 -0.4977 -0.3451
  127SOPE   C3113601   2.345   0.893   2.725 -0.7832 -0.3836 -0.0468
  127SOPE   O3213602   2.414   0.837   2.645  0.2997 -0.0638 -0.1742
  127SOPE   C3213603   2.307   0.833   2.866 -0.2639  0.0914  0.4272
  127SOPE   H2X13604   2.211   0.872   2.904  0.4830  0.9282  1.5279
  127SOPE   H2Y13605   2.378   0.872   2.943 -0.0096 -1.5391  1.0575
  127SOPE   C2313606   1.867   1.099   2.767  0.2984  0.5405  0.6557
  127SOPE   H3R13607   1.836   0.993   2.781  0.6462 -0.2229 -3.2591
  127SOPE   H3S13608   1.775   1.159   2.785 -0.1034 -0.5614  2.5790
  127SOPE   C2413609   1.976   1.130   2.873 -0.5663 -0.1562  0.1615
  127SOPE   H4R13610   2.068   1.078   2.836  0.3425  1.1148  0.5735
  127SOPE   H4S13611   1.994   1.238   2.892 -1.2114  0.1498 -0.9273
  127SOPE   C2513612   1.928   1.064   3.005 -0.4140  0.2643  0.0754
  127SOPE   H5R13613   1.827   1.102   3.030 -1.7765 -2.6622 -0.5610
  127SOPE   H5S13614   1.913   0.955   2.988  0.9029 -0.1453  1.3529
  127SOPE   C2613615   2.031   1.066   3.115  0.1873  0.2627  0.7976
  127SOPE   H6R13616   2.124   1.020   3.075 -0.4487 -2.1151  1.8453
  127SOPE   H6S13617   2.058   1.169   3.145 -0.4152  1.4306 -2.3310
  127SOPE   C2713618   1.977   0.996   3.244  0.1564  0.7559 -0.5112
  127SOPE   H7R13619   1.891   1.056   3.282  0.1113 -0.4783  1.4825
  127SOPE   H7S13620   1.930   0.898   3.222  1.9707  0.0611 -1.4563
  127SOPE   C2813621   2.084   0.989   3.355 -0.7930  0.1547 -0.2115
  127SOPE   H8R13622   2.123   1.093   3.366  1.9756 -0.8613  0.3398
  127SOPE   H8S13623   2.048   0.961   3.456  0.9940  0.7239  0.6183
  127SOPE   C2913624   2.209   0.915   3.327  0.6638 -0.5621  0.8727
  127SOPE   H9113625   2.276   0.958   3.250  0.7622 -3.0553 -0.5141
  127SOPE  C21013626   2.250   0.813   3.395 -0.2572  0.3659  0.2875
  127SOPE  H10113627   2.348   0.765   3.385 -0.1408 -0.1575  2.9910
  127SOPE  C21113628   2.170   0.737   3.500  0.0970 -0.0102 -0.3350
  127SOPE  H11R13629   2.106   0.659   3.455 -2.1396  1.9080 -0.6330
  127SOPE  H11S13630   2.112   0.811   3.559 -1.2798  0.1560 -1.8459
  127SOPE  C21213631   2.277   0.665   3.589 -0.3417  0.5658 -1.0362
  127SOPE  H12R13632   2.366   0.628   3.534  0.2208  0.4708 -0.0824
  127SOPE  H12S13633   2.214   0.590   3.641  0.1003  1.6597  1.1693
  127SOPE  C21313634   2.333   0.756   3.699  0.6344  0.4159 -0.4643
  127SOPE  H13R13635   2.242   0.810   3.733  0.5919  1.7313 -2.5159
  127SOPE  H13S13636   2.399   0.832   3.654 -0.4274  1.4335 -0.3554
  127SOPE  C21413637   2.402   0.670   3.803 -0.0470  0.1522  0.5352
  127SOPE  H14R13638   2.479   0.609   3.751 -1.9029  1.0851 -3.6556
  127SOPE  H14S13639   2.319   0.609   3.847 -0.5833 -1.2257 -2.2059
  127SOPE  C21513640   2.485   0.739   3.910 -0.2884 -1.3180  1.2464
  127SOPE  H15R13641   2.416   0.807   3.966  1.3132  1.5004  0.0277
  127SOPE  H15S13642   2.568   0.799   3.867  0.6723 -2.0713  2.0341
  127SOPE  C21613643   2.542   0.647   4.008  0.6092 -0.6739 -0.8132
  127SOPE  H16R13644   2.620   0.589   3.954  1.8429  1.3614 -1.3123
  127SOPE  H16S13645   2.459   0.591   4.057 -0.9669  1.1187 -1.2895
  127SOPE  C21713646   2.614   0.729   4.122  0.0612  0.0790 -0.0195
  127SOPE  H17R13647   2.539   0.796   4.171 -0.0173 -0.3905  0.5176
  127SOPE  H17S13648   2.677   0.799   4.064 -0.5070  1.1506  0.6094
  127SOPE  C21813649   2.697   0.645   4.212  0.3133 -0.3093  0.1736
  127SOPE  H18R13650   2.634   0.600   4.292 -0.0844 -2.1137 -1.1084
  127SOPE  H18S13651   2.773   0.711   4.260 -0.4371  0.9982 -0.3785
  127SOPE  H18T13652   2.760   0.576   4.153  1.0793 -0.6248  1.3134
  127SOPE   C3313653   2.354   0.686   2.868  0.5576 -0.1293 -0.0703
  127SOPE   H3X13654   2.464   0.678   2.853  1.2233 -0.2210  3.9257
  127SOPE   H3Y13655   2.310   0.634   2.779 -0.9789  2.2115 -0.7644
  127SOPE   C3413656   2.324   0.610   2.999 -0.4268 -0.1519 -0.8049
  127SOPE   H4X13657   2.216   0.585   2.997 -0.5053  0.1148 -0.1256
  127SOPE   H4Y13658   2.346   0.672   3.089  0.2870  0.9390 -1.7013
  127SOPE   C3513659   2.401   0.478   3.010  0.0378 -0.2479 -0.6015
  127SOPE   H5X13660   2.409   0.446   3.116 -1.3673 -2.3046 -1.0504
  127SOPE   H5Y13661   2.505   0.485   2.972  0.9667  0.6919  1.8977
  127SOPE   C3613662   2.333   0.358   2.934  0.5462  0.3021 -0.6320
  127SOPE   H6X13663   2.312   0.396   2.831  0.5246  2.9679  0.2748
  127SOPE   H6Y13664   2.241   0.336   2.991 -0.0756  0.6192 -1.4840
  127SOPE   C3713665   2.414   0.225   2.943 -0.8274  0.1670 -0.2043
  127SOPE   H7X13666   2.345   0.145   2.909 -1.3105  0.2247  0.6172
  127SOPE   H7Y13667   2.429   0.200   3.050 -3.3373 -0.1531  0.1354
  127SOPE   C3813668   2.537   0.224   2.850  0.3456  0.3164 -0.3902
  127SOPE   H8X13669   2.591   0.319   2.873  3.7274 -1.7939  1.2105
  127SOPE   H8Y13670   2.520   0.237   2.741  0.9833  1.2657 -0.3906
  127SOPE   C3913671   2.641   0.108   2.876  0.2943  0.2351 -0.5409
  127SOPE   H9X13672   2.735   0.128   2.819 -1.1791  0.9631 -2.8887
  127SOPE   H9Y13673   2.590   0.018   2.836  0.6798  0.5687 -1.8347
  127SOPE  C31013674   2.682   0.092   3.022 -0.3413  0.4182  0.6170
  127SOPE  H10X13675   2.592   0.063   3.080 -0.5894  0.6873  0.3701
  127SOPE  H10Y13676   2.720   0.191   3.055 -1.0254 -0.0052  2.8851
  127SOPE  C31113677   2.776  -0.025   3.044  0.1600  0.3589  0.3231
  127SOPE  H11X13678   2.866  -0.001   2.984 -0.2926 -0.4522 -0.7188
  127SOPE  H11Y13679   2.740  -0.121   3.000  1.4279 -0.7257  1.5821
  127SOPE  C31213680   2.807  -0.053   3.188 -1.0299  0.0852  0.0221
  127SOPE  H12X13681   2.848  -0.156   3.196  1.8004  1.0801 -0.3593
  127SOPE  H12Y13682   2.716  -0.054   3.252 -0.1090 -2.1602  1.4051
  127SOPE  C31313683   2.899   0.055   3.261  0.9833 -0.5437  0.3774
  127SOPE  H13X13684   2.857   0.157   3.272 -3.4020 -2.0624 -0.2401
  127SOPE  H13Y13685   2.995   0.062   3.206  1.6844  2.3437  1.7518
  127SOPE  C31413686   2.928   0.012   3.409  0.1737 -1.0143  0.0269
  127SOPE  H14X13687   2.933  -0.099   3.413  1.3991 -0.9939 -0.5420
  127SOPE  H14Y13688   2.837   0.041   3.465  0.3982 -1.8984  0.8828
  127SOPE  C31513689   3.054   0.074   3.465 -0.5639 -0.7821  0.2092
  127SOPE  H15X13690   3.124   0.120   3.392 -1.4473  1.8423  0.9113
  127SOPE  H15Y13691   3.106   0.005   3.535  1.4977  0.9090  0.4372
  127SOPE  C31613692   3.025   0.200   3.550  0.4256 -0.0984 -0.6749
  127SOPE  H16X13693   2.934   0.243   3.502  0.9980  3.5518  1.1821
  127SOPE  H16Y13694   3.102   0.278   3.537  1.2582 -1.0858 -1.8721
  127SOPE  C31713695   2.997   0.166   3.705 -0.0928  0.1078 -0.1970
  127SOPE  H17X13696   2.976   0.057   3.700  3.0916 -0.5680 -0.5744
  127SOPE  H17Y13697   2.908   0.224   3.738 -0.7428 -1.1767  0.4102
  127SOPE  C31813698   3.119   0.172   3.798  0.3486 -0.7589 -0.0682
  127SOPE  H18X13699   3.150   0.278   3.814  1.1203 -1.0551  0.4669
  127SOPE  H18Y13700   3.204   0.122   3.747 -0.3951  2.0019 -4.5342
  127SOPE  H18Z13701   3.093   0.132   3.898  0.6641 -0.2659  0.2165
  128SOPE     N13702   0.112   6.171   2.530 -0.2381 -0.2381  0.0779
  128SOPE   HN113703   0.105   6.269   2.566  2.6273 -0.0432  0.3821
  128SOPE   HN213704   0.029   6.148   2.471  0.2198 -1.9229  0.0353
  128SOPE   HN313705   0.123   6.103   2.607  4.6522 -0.2325 -0.3207
  128SOPE   C1213706   0.236   6.154   2.442  0.6529 -0.4446  0.0903
  128SOPE  H12A13707   0.230   6.234   2.365  0.7571  0.3149  0.8595
  128SOPE  H12B13708   0.225   6.053   2.396  0.9763 -0.2066 -0.5174
  128SOPE   C1113709   0.374   6.150   2.517 -0.2272  0.2894 -0.1057
  128SOPE  H11A13710   0.411   6.255   2.507  1.2274 -0.1642  0.2417
  128SOPE  H11B13711   0.458   6.097   2.468 -1.5040 -2.7186  0.7594
  128SOPE     P13712   0.473   6.117   2.754 -0.0564  0.8414  0.2070
  128SOPE   O1313713   0.533   6.252   2.735  0.0086  0.2997 -0.5720
  128SOPE   O1413714   0.560   5.997   2.753  0.4442  0.3112 -0.4325
  128SOPE   O1213715   0.362   6.101   2.650  0.4529 -0.2097  0.1362
  128SOPE   O1113716   0.390   6.131   2.891  0.7082 -0.2160 -0.8343
  128SOPE    C113717   0.257   6.177   2.911 -0.1885  0.4249  0.2891
  128SOPE    HA13718   0.202   6.108   2.843 -1.3847  2.3477 -0.7475
  128SOPE    HB13719   0.256   6.280   2.872  0.9229 -0.0197 -1.0085
  128SOPE    C213720   0.202   6.148   3.049  0.1247 -0.4722 -0.2218
  128SOPE    HS13721   0.113   6.212   3.065  0.4548 -0.3161  1.1847
  128SOPE   O2113722   0.307   6.182   3.148 -0.0829 -0.0779 -0.0831
  128SOPE   C2113723   0.316   6.316   3.167 -0.2119  0.6244  0.5810
  128SOPE   O2213724   0.255   6.400   3.102 -0.4979  0.0151 -0.3852
  128SOPE   C2213725   0.408   6.345   3.290  0.0158 -0.0592 -0.5143
  128SOPE   H2R13726   0.488   6.413   3.255 -0.1028 -0.0401 -0.7542
  128SOPE   H2S13727   0.458   6.250   3.318  3.1401  1.1914 -1.4254
  128SOPE    C313728   0.161   6.005   3.074  1.0031 -0.2525 -0.2287
  128SOPE    HX13729   0.244   5.931   3.075  0.0368 -1.3733 -1.1508
  128SOPE    HY13730   0.091   5.972   2.995  0.0390  0.2810  0.3886
  128SOPE   O3113731   0.088   5.986   3.198 -0.2365  0.3933  0.2753
  128SOPE   C3113732  -0.040   6.013   3.196 -0.3046 -0.3580 -0.1100
  128SOPE   O3213733  -0.107   6.051   3.096 -0.3776 -0.2606 -0.2868
  128SOPE   C3213734  -0.112   5.975   3.327 -0.0176  1.1066  0.2563
  128SOPE   H2X13735  -0.139   5.868   3.310  1.0749  0.7496  0.6851
  128SOPE   H2Y13736  -0.204   6.037   3.335 -0.0957  1.7572 -3.5673
  128SOPE   C2313737   0.340   6.406   3.422  0.5886  0.1646  0.3102
  128SOPE   H3R13738   0.246   6.354   3.453  2.0209 -1.7131  1.7668
  128SOPE   H3S13739   0.303   6.508   3.402 -3.1338 -0.4139  3.0611
  128SOPE   C2413740   0.425   6.400   3.547  0.3971  0.3361  0.0138
  128SOPE   H4R13741   0.444   6.295   3.579  1.0635  1.1447  2.4962
  128SOPE   H4S13742   0.514   6.465   3.529  0.0770  0.8955  0.4401
  128SOPE   C2513743   0.356   6.474   3.674  0.0444  0.1252  0.7188
  128SOPE   H5R13744   0.348   6.582   3.651  1.0398  0.1350  0.3384
  128SOPE   H5S13745   0.259   6.420   3.682  0.2409 -0.5380 -0.9557
  128SOPE   C2613746   0.425   6.439   3.814  0.1573 -0.9245  0.0555
  128SOPE   H6R13747   0.450   6.332   3.825 -0.5680 -1.2479 -1.2286
  128SOPE   H6S13748   0.522   6.492   3.798 -0.8771  1.2440  0.5799
  128SOPE   C2713749   0.340   6.493   3.927 -0.2103  0.1512 -0.4074
  128SOPE   H7R13750   0.313   6.600   3.908 -2.3332 -0.2564  0.0350
  128SOPE   H7S13751   0.247   6.435   3.941  0.3749 -1.2999 -2.1362
  128SOPE   C2813752   0.412   6.497   4.058  0.0324 -0.2587 -0.0933
  128SOPE   H8R13753   0.448   6.393   4.075 -1.4396 -0.8073 -0.2400
  128SOPE   H8S13754   0.501   6.565   4.055  1.2224 -1.7315  0.4108
  128SOPE   C2913755   0.322   6.539   4.171 -0.0961  0.1672 -0.3002
  128SOPE   H9113756   0.331   6.647   4.192  1.9963 -0.0669  0.2157
  128SOPE  C21013757   0.260   6.457   4.262  0.5732 -0.5254 -0.2962
  128SOPE  H10113758   0.191   6.497   4.338 -0.4821  0.7137 -1.8225
  128SOPE  C21113759   0.255   6.308   4.265 -0.7504  0.4056  0.4129
  128SOPE  H11R13760   0.331   6.276   4.191 -0.5353  1.3864  0.1896
  128SOPE  H11S13761   0.160   6.265   4.225  0.0029  0.0863 -1.1307
  128SOPE  C21213762   0.296   6.230   4.392 -1.5105  0.0562  0.3057
  128SOPE  H12R13763   0.381   6.278   4.445  0.4332 -2.4813 -0.2728
  128SOPE  H12S13764   0.341   6.130   4.374  1.4161  1.3794 -0.2891
  128SOPE  C21313765   0.187   6.219   4.492 -0.1135  0.2055  0.4670
  128SOPE  H13R13766   0.087   6.194   4.449  0.7077 -0.6666 -0.9837
  128SOPE  H13S13767   0.159   6.310   4.550 -2.8659 -0.5361  0.4620
  128SOPE  C21413768   0.216   6.105   4.588  0.1419  0.1818  0.3927
  128SOPE  H14R13769   0.320   6.124   4.622  0.7983 -0.0693 -1.3614
  128SOPE  H14S13770   0.203   6.006   4.538 -0.1668 -0.0093  0.8521
  128SOPE  C21513771   0.124   6.101   4.707 -0.8260 -0.2155 -0.7304
  128SOPE  H15R13772   0.017   6.125   4.688 -1.6118 -2.4718  0.4950
  128SOPE  H15S13773   0.158   6.180   4.777 -0.0431 -1.1222 -0.0638
  128SOPE  C21613774   0.105   5.958   4.778  0.7017 -0.1126 -0.5505
  128SOPE  H16R13775   0.064   5.888   4.701 -1.2068 -0.0539  0.3433
  128SOPE  H16S13776   0.023   5.968   4.852  0.4561  1.9187 -1.0427
  128SOPE  C21713777   0.232   5.918   4.856 -0.2067  0.3387  0.0428
  128SOPE  H17R13778   0.264   5.990   4.935 -0.8650  1.0215 -0.2992
  128SOPE  H17S13779   0.311   5.917   4.777 -0.2489  1.7577 -0.0526
  128SOPE  C21813780   0.218   5.775   4.915  0.1101 -0.1089  0.1196
  128SOPE  H18R13781   0.313   5.730   4.951 -0.8531 -1.3660  1.2136
  128SOPE  H18S13782   0.186   5.705   4.834 -0.5763  0.4911 -0.1457
  128SOPE  H18T13783   0.141   5.766   4.995  1.0083 -0.2647  0.9884
  128SOPE   C3313784  -0.016   5.983   3.449  0.4603  0.3415  0.3676
  128SOPE   H3X13785   0.073   5.922   3.421  0.5708  0.7758 -0.2329
  128SOPE   H3Y13786  -0.063   5.925   3.532  0.4552  0.0620  0.1734
  128SOPE   C3413787   0.026   6.122   3.493  0.1654  0.0046  0.0259
  128SOPE   H4X13788  -0.062   6.161   3.549  0.3402 -1.1801  1.1982
  128SOPE   H4Y13789   0.059   6.176   3.402  3.8814 -0.6954  0.7757
  128SOPE   C3513790   0.157   6.124   3.567 -0.5166  0.0866 -0.0351
  128SOPE   H5X13791   0.189   6.228   3.589 -0.6635  0.2494 -0.5846
  128SOPE   H5Y13792   0.229   6.084   3.492 -2.5531 -0.4728 -1.8061
  128SOPE   C3613793   0.164   6.040   3.696  0.4672 -0.9163  0.0910
  128SOPE   H6X13794   0.273   6.036   3.717  0.6484 -0.4244 -0.7117
  128SOPE   H6Y13795   0.113   5.941   3.698 -1.3374 -0.0172  1.3018
  128SOPE   C3713796   0.107   6.116   3.816 -0.0774 -0.2143 -0.2505
  128SOPE   H7X13797   0.005   6.138   3.779  0.0150 -0.1786 -0.4921
  128SOPE   H7Y13798   0.164   6.210   3.834  2.8899 -1.5528 -1.9241
  128SOPE   C3813799   0.097   6.035   3.946 -0.9436  0.4044 -0.0274
  128SOPE   H8X13800   0.059   5.937   3.911 -0.7823 -0.3462  1.8089
  128SOPE   H8Y13801   0.033   6.079   4.025 -1.1653 -0.6791  0.4127
  128SOPE   C3913802   0.240   6.012   4.017  0.2301 -0.0285 -0.0625
  128SOPE   H9X13803   0.280   6.114   4.036 -0.1627  0.3628 -1.2053
  128SOPE   H9Y13804   0.307   5.967   3.941  0.9872 -1.2421  1.2818
  128SOPE  C31013805   0.234   5.921   4.144 -0.7230  0.0479  0.1170
  128SOPE  H10X13806   0.197   5.822   4.109  0.7809 -0.7614  0.7430
  128SOPE  H10Y13807   0.165   5.966   4.218  1.2226 -0.1688  2.1537
  128SOPE  C31113808   0.371   5.902   4.206  0.3922  0.0572 -0.5422
  128SOPE  H11X13809   0.411   6.002   4.234 -0.3963  0.0839  0.5479
  128SOPE  H11Y13810   0.441   5.850   4.137  2.6146 -0.8985  2.2214
  128SOPE  C31213811   0.368   5.825   4.338 -0.0818  0.2145 -0.4962
  128SOPE  H12X13812   0.353   5.716   4.320 -0.0481  0.0789  0.2697
  128SOPE  H12Y13813   0.275   5.851   4.393  0.8854  3.6694 -0.2790
  128SOPE  C31313814   0.479   5.856   4.433  0.1184 -0.2793 -0.0322
  128SOPE  H13X13815   0.482   5.964   4.460  0.4784 -0.6625  1.5513
  128SOPE  H13Y13816   0.578   5.831   4.390  1.0664  2.3894  0.4113
  128SOPE  C31413817   0.475   5.773   4.566  0.1190 -0.1191  0.3221
  128SOPE  H14X13818   0.472   5.667   4.535  0.7413 -0.3760  1.1146
  128SOPE  H14Y13819   0.381   5.796   4.620 -1.2989 -1.1653 -1.6140
  128SOPE  C31513820   0.608   5.785   4.644 -0.6064  0.0154  1.0063
  128SOPE  H15X13821   0.580   5.740   4.742 -0.5673 -1.5650  0.3195
  128SOPE  H15Y13822   0.640   5.890   4.657  2.3982 -0.4084 -1.6961
  128SOPE  C31613823   0.731   5.715   4.588 -0.2954 -0.5706  0.6010
  128SOPE  H16X13824   0.788   5.793   4.535 -0.3992  1.6198  3.4618
  128SOPE  H16Y13825   0.704   5.625   4.528 -1.4059 -1.0656  1.7849
  128SOPE  C31713826   0.819   5.655   4.696  0.2145 -0.7889 -0.2733
  128SOPE  H17X13827   0.897   5.596   4.644  0.5871 -1.4073  0.9492
  128SOPE  H17Y13828   0.763   5.580   4.756  1.1590 -2.0491 -0.9233
  128SOPE  C31813829   0.891   5.768   4.775  0.4865 -0.1451 -0.3610
  128SOPE  H18X13830   0.813   5.814   4.839 -1.2416 -1.7991 -1.1772
  128SOPE  H18Y13831   0.942   5.851   4.722 -3.1701  1.0385 -2.3607
  128SOPE  H18Z13832   0.969   5.716   4.836  0.4339  0.5998  0.3631
  129OSM      N13833   6.831   2.934   6.873 -0.1790  0.5213  0.3215
  129OSM    C1513834   6.783   2.934   7.017  0.3851  0.5805  1.2811
  129OSM   H15A13835   6.726   2.842   7.026 -2.3264  1.8972 -0.9258
  129OSM   H15B13836   6.717   3.019   7.023  1.3490  1.7899 -2.5961
  129OSM   H15C13837   6.861   2.945   7.091  2.1403 -3.2429  0.2547
  129OSM    C1413838   6.909   3.063   6.854 -0.4366  0.8425 -0.2130
  129OSM   H14A13839   6.990   3.048   6.924  0.1046  0.7335 -0.8550
  129OSM   H14B13840   6.849   3.144   6.891 -2.4526 -1.3299  1.6213
  129OSM   H14C13841   6.943   3.076   6.752  1.1532 -0.8819  0.0459
  129OSM    C1313842   6.924   2.821   6.850 -0.0438  0.3965 -0.3377
  129OSM   H13A13843   6.976   2.813   6.945 -0.8925 -0.5585  0.0713
  129OSM   H13B13844   6.985   2.843   6.764 -0.3849  0.2319 -0.6224
  129OSM   H13C13845   6.879   2.724   6.834  2.9950 -1.0664 -0.6821
  129OSM    C1213846   6.714   2.935   6.777 -0.2572 -0.0936 -0.4012
  129OSM   H12A13847   6.649   3.018   6.803 -0.6139 -0.7761  0.9846
  129OSM   H12B13848   6.653   2.850   6.805 -0.8745 -0.0127 -1.4339
  129OSM    C1113849   6.738   2.940   6.624  0.0455  0.3677 -0.4975
  129OSM   H11A13850   6.641   2.914   6.576  0.0700 -2.1113  0.5959
  129OSM   H11B13851   6.808   2.857   6.598  0.0247  0.2898 -0.3079
  129OSM      P13852   6.669   3.187   6.578  0.1772  0.0403 -0.4471
  129OSM    O1313853   6.584   3.194   6.698  0.2510  0.2497 -0.2110
  129OSM    O1413854   6.740   3.307   6.531 -0.2745 -0.3456  0.3407
  129OSM    O1113855   6.580   3.123   6.461 -0.5049  0.1462 -0.5080
  129OSM    O1213856   6.774   3.071   6.586  0.0242 -0.4970 -0.1382
  129OSM    C1S13857   6.633   3.098   6.334  0.7032 -0.4508 -0.3990
  129OSM    H1S13858   6.738   3.065   6.348 -0.0474 -3.1229 -0.6675
  129OSM    H1T13859   6.619   3.183   6.263  2.0023 -2.3613 -3.0924
  129OSM     NF13860   6.617   2.970   6.120 -0.2301 -0.0715 -0.6985
  129OSM    HNF13861   6.579   3.033   6.052  0.2124  1.1232  0.1135
  129OSM    C2S13862   6.567   2.981   6.260 -0.3530  0.3832 -0.0915
  129OSM    H2S13863   6.595   2.885   6.309 -1.4389  0.5430  0.9076
  129OSM    C3S13864   6.415   2.997   6.274  0.1090 -0.0633  0.4680
  129OSM    H3S13865   6.378   3.092   6.229 -2.3600 -0.9915  0.3689
  129OSM     O313866   6.375   2.982   6.407 -0.6054  0.1094 -0.0479
  129OSM    HO313867   6.447   3.032   6.448  0.1613 -0.4464 -0.6747
  129OSM    C4S13868   6.341   2.887   6.204 -0.2141 -0.1353  0.3435
  129OSM    H4S13869   6.353   2.783   6.238  0.7550  0.2432  1.2339
  129OSM    C5S13870   6.241   2.908   6.108 -0.4324 -0.2605 -0.0634
  129OSM    H5S13871   6.207   3.009   6.082  0.8986  0.0709 -0.5875
  129OSM    C6S13872   6.182   2.786   6.038  0.3567  0.3103 -0.0004
  129OSM    H6S13873   6.076   2.768   6.063  0.0010  1.0383 -0.9340
  129OSM    H6T13874   6.230   2.691   6.071 -1.2099 -0.6190 -0.2691
  129OSM    C7S13875   6.189   2.797   5.881  0.2859  0.0461  0.1939
  129OSM    H7S13876   6.296   2.816   5.858  0.0547  0.1042 -0.9064
  129OSM    H7T13877   6.115   2.875   5.856 -0.3557 -0.3858  0.6945
  129OSM    C8S13878   6.129   2.674   5.809 -0.4996 -1.0520  0.0284
  129OSM    H8S13879   6.040   2.644   5.869 -0.2163 -0.5692  0.6950
  129OSM    H8T13880   6.207   2.596   5.828 -0.6821 -1.1612  0.3461
  129OSM    C9S13881   6.090   2.691   5.663 -0.3150 -0.1435  0.4544
  129OSM    H9S13882   6.185   2.696   5.607 -0.3509 -1.5521  0.2198
  129OSM    H9T13883   6.030   2.783   5.648 -1.6140 -0.9309  0.5453
  129OSM   C10S13884   5.994   2.586   5.602 -0.1424  0.6613  0.3321
  129OSM   H10S13885   5.893   2.632   5.597 -0.0054  0.9973  0.6417
  129OSM   H10T13886   5.993   2.495   5.665 -0.7789 -0.5893 -1.4210
  129OSM   C11S13887   6.022   2.554   5.460  0.7947  0.3957  0.1171
  129OSM   H11S13888   5.960   2.476   5.412  0.6878 -0.4057  1.4934
  129OSM   H11T13889   6.120   2.502   5.459  0.6841  0.1923 -0.5857
  129OSM   C12S13890   6.036   2.677   5.366 -0.7102 -0.2235 -0.5391
  129OSM   H12S13891   6.129   2.734   5.391 -0.0545 -0.7420 -1.7187
  129OSM   H12T13892   5.951   2.744   5.390 -0.5078 -0.5666  1.2792
  129OSM   C13S13893   6.032   2.646   5.211 -0.1791  0.3519 -0.1288
  129OSM   H13S13894   6.022   2.738   5.151  0.1141  1.2841  1.2097
  129OSM   H13T13895   5.939   2.588   5.195  0.2943 -0.3413 -0.4777
  129OSM   C14S13896   6.144   2.558   5.161  0.3787  0.5887  0.0543
  129OSM   H14S13897   6.142   2.462   5.217 -0.0199  1.1862  1.0864
  129OSM   H14T13898   6.235   2.614   5.193  0.9614  0.8188 -1.8857
  129OSM   C15S13899   6.151   2.533   5.010  0.2136  0.6415  0.6308
  129OSM   H15S13900   6.071   2.461   4.980  1.9891 -0.4498 -1.8668
  129OSM   H15T13901   6.249   2.486   4.989  0.5780  2.1262 -1.2758
  129OSM   C16S13902   6.163   2.658   4.925 -0.3049  0.2399 -0.0793
  129OSM   H16S13903   6.249   2.720   4.957 -0.7800  1.1628 -0.5295
  129OSM   H16T13904   6.076   2.725   4.939  0.3418  0.9061  0.8286
  129OSM   C17S13905   6.177   2.634   4.774  0.0440 -0.0370 -0.5783
  129OSM   H17S13906   6.275   2.587   4.752  0.2655  1.1828 -2.4712
  129OSM   H17T13907   6.182   2.731   4.721 -2.7700  0.6191  0.1832
  129OSM   C18S13908   6.062   2.551   4.715  0.1494  0.1940 -0.5046
  129OSM   H18S13909   6.089   2.523   4.611  1.3997  2.6524 -0.9348
  129OSM   H18T13910   5.971   2.614   4.716 -1.2030 -1.6859  0.6913
  129OSM   H18U13911   6.035   2.460   4.773  0.7144  1.2144  1.4528
  129OSM    C1F13912   6.748   2.944   6.108  0.1753  0.8425  0.4056
  129OSM     OF13913   6.824   2.907   6.199  0.1971 -0.0385  0.3368
  129OSM    C2F13914   6.793   2.961   5.964 -0.5559 -0.2425 -0.0522
  129OSM    H2F13915   6.857   3.052   5.964  1.1596 -1.3781  0.3968
  129OSM    H2G13916   6.709   2.962   5.892 -1.2327 -0.9290  0.7086
  129OSM    C3F13917   6.885   2.842   5.929  0.2793 -0.0318 -0.3188
  129OSM    H3F13918   6.830   2.746   5.918  1.1880 -0.6870  0.6387
  129OSM    H3G13919   6.967   2.837   6.004 -0.3958  1.2499  0.5617
  129OSM    C4F13920   6.965   2.865   5.795  0.3664  0.1843  0.4328
  129OSM    H4F13921   7.010   2.764   5.783  1.2981  0.3917  1.9079
  129OSM    H4G13922   7.039   2.945   5.816 -1.2181  1.8569 -0.1337
  129OSM    C5F13923   6.874   2.918   5.676 -0.7200  0.2531 -0.5587
  129OSM    H5F13924   6.948   2.924   5.593 -1.4953  0.7188 -1.2321
  129OSM    H5G13925   6.840   3.022   5.696  2.4467  1.2755  0.1157
  129OSM    C6F13926   6.754   2.823   5.641  0.7077 -0.3079 -0.2171
  129OSM    H6F13927   6.688   2.799   5.727  0.8263 -2.2765 -0.6268
  129OSM    H6G13928   6.797   2.726   5.609  1.9560  0.5966 -1.3911
  129OSM    C7F13929   6.673   2.875   5.521  0.8767 -0.3993  0.1047
  129OSM    H7F13930   6.653   2.984   5.532  0.8335 -0.5104  1.2536
  129OSM    H7G13931   6.580   2.815   5.514 -0.3450  1.3700  0.3853
  129OSM    C8F13932   6.740   2.844   5.385  0.3796  0.0516 -0.5706
  129OSM    H8F13933   6.756   2.734   5.393 -0.7504 -0.1963 -1.4041
  129OSM    H8G13934   6.839   2.891   5.365  0.4950 -0.5675 -1.5118
  129OSM    C9F13935   6.645   2.882   5.272  0.1844 -0.1456  0.4932
  129OSM    H9F13936   6.560   2.814   5.255 -0.0015  0.6769 -2.3380
  129OSM   C10F13937   6.642   2.997   5.205 -0.0683 -0.2201  0.5408
  129OSM   H10F13938   6.568   3.002   5.123  1.1882 -1.2080 -0.6992
  129OSM   C11F13939   6.728   3.118   5.222 -0.6742  0.5731  0.4942
  129OSM   H11F13940   6.794   3.102   5.309  0.2822 -0.8283 -0.4438
  129OSM   H11G13941   6.667   3.210   5.234 -1.0797  0.6200 -1.5123
  129OSM   C12F13942   6.808   3.137   5.098 -0.1659 -0.2350 -0.4430
  129OSM   H12F13943   6.873   3.049   5.080  0.6619 -0.5492  3.3943
  129OSM   H12G13944   6.882   3.218   5.117  0.1557 -0.0921 -2.1325
  129OSM   C13F13945   6.726   3.156   4.968 -0.0468  0.5436 -0.0315
  129OSM   H13F13946   6.654   3.230   5.007 -3.2902 -2.3393 -0.0463
  129OSM   H13G13947   6.681   3.060   4.934  1.1967 -0.4090  0.8724
  129OSM   C14F13948   6.814   3.206   4.852 -0.2131 -0.5493 -0.1974
  129OSM   H14F13949   6.895   3.134   4.825  1.9764  2.2498 -1.6540
  129OSM   H14G13950   6.866   3.298   4.887 -0.2990  0.8057 -3.3498
  129OSM   C15F13951   6.743   3.237   4.719 -0.5865 -0.6293  0.4850
  129OSM   H15F13952   6.663   3.313   4.735  0.2132  0.6514 -1.2867
  129OSM   H15G13953   6.702   3.144   4.674 -1.5373  0.2499 -0.5290
  129OSM   C16F13954   6.841   3.298   4.620 -0.6574 -0.2272  0.0184
  129OSM   H16F13955   6.909   3.228   4.567 -1.0704  0.8054 -2.0078
  129OSM   H16G13956   6.908   3.355   4.687 -0.8552 -1.2330  1.1031
  129OSM   C17F13957   6.786   3.385   4.506  0.1512 -0.6786 -0.1465
  129OSM   H17F13958   6.852   3.474   4.500  0.0976 -0.5280  1.2767
  129OSM   H17G13959   6.687   3.424   4.536  1.7304  2.8404  1.0042
  129OSM   C18F13960   6.771   3.305   4.374 -0.1496  0.2807 -0.0700
  129OSM   H18F13961   6.738   3.360   4.283  0.7370 -0.8968 -1.1378
  129OSM   H18G13962   6.705   3.220   4.401  1.3698 -0.5919  1.0405
  129OSM   H18H13963   6.871   3.267   4.344 -0.1264 -1.1139  1.6306
  130OSM      N13964   5.390   5.599   6.988  0.2151 -0.1482 -0.0208
  130OSM    C1513965   5.303   5.704   7.055  0.3914  0.4067  0.3900
  130OSM   H15A13966   5.336   5.805   7.037  0.5308  0.5086  1.1988
  130OSM   H15B13967   5.289   5.693   7.162 -0.0679 -1.1928  0.1932
  130OSM   H15C13968   5.205   5.692   7.012  0.2921 -1.8872  1.1191
  130OSM    C1413969   5.529   5.627   7.044  0.1094  0.4049 -0.5506
  130OSM   H14A13970   5.565   5.724   7.015 -0.6661  0.7533 -0.3670
  130OSM   H14B13971   5.595   5.547   7.013 -1.6568 -1.5050  0.3749
  130OSM   H14C13972   5.531   5.623   7.152  3.6832  0.5631 -0.5103
  130OSM    C1313973   5.358   5.460   7.028  0.5937 -0.2428  0.2295
  130OSM   H13A13974   5.434   5.390   6.998  0.3470  0.0780 -1.1988
  130OSM   H13B13975   5.272   5.431   6.970  0.9180 -1.4658  0.3407
  130OSM   H13C13976   5.332   5.451   7.133  1.5215  1.6544  0.6723
  130OSM    C1213977   5.377   5.610   6.832 -0.7683  0.6128  0.3792
  130OSM   H12A13978   5.287   5.558   6.802 -0.0448  0.5541 -1.8583
  130OSM   H12B13979   5.460   5.558   6.787 -0.7350  0.1453  0.9767
  130OSM    C1113980   5.379   5.747   6.772 -0.4677 -0.4526 -0.1029
  130OSM   H11A13981   5.288   5.800   6.809 -2.2129 -2.8529 -0.7099
  130OSM   H11B13982   5.373   5.730   6.663  0.2248  2.7980 -0.7598
  130OSM      P13983   5.503   5.966   6.831 -0.1306 -0.1345  0.4869
  130OSM    O1313984   5.367   6.024   6.852  0.2635  0.0214  0.2514
  130OSM    O1413985   5.598   5.983   6.938 -0.6235 -0.1205 -0.0275
  130OSM    O1113986   5.565   6.042   6.710  0.2574  0.2925 -0.4040
  130OSM    O1213987   5.502   5.812   6.795 -0.5688  0.2054  0.4749
  130OSM    C1S13988   5.502   6.034   6.581  0.2959  0.4114  0.2643
  130OSM    H1S13989   5.427   6.115   6.591 -1.1954 -1.1301  2.4271
  130OSM    H1T13990   5.444   5.942   6.556  0.7506  0.1468  0.1540
  130OSM     NF13991   5.542   6.007   6.348  0.4521  0.2423 -0.6889
  130OSM    HNF13992   5.576   5.917   6.321 -1.1550 -0.5324 -0.2929
  130OSM    C2S13993   5.602   6.050   6.466 -0.1153  0.0526  0.3174
  130OSM    H2S13994   5.612   6.161   6.464  0.9037 -0.0318  0.2246
  130OSM    C3S13995   5.742   5.984   6.483 -0.1697 -0.0474 -0.6552
  130OSM    H3S13996   5.725   5.875   6.497 -1.5496 -0.2067 -3.0909
  130OSM     O313997   5.810   6.035   6.606 -0.5418 -0.1279  0.3233
  130OSM    HO313998   5.743   6.028   6.673  1.1719 -2.1615  1.9459
  130OSM    C4S13999   5.829   5.997   6.357  0.6424  0.0297 -0.1923
  130OSM    H4S14000   5.892   6.087   6.357  0.9542 -0.1674  0.6523
  130OSM    C5S14001   5.844   5.896   6.275  0.1311 -0.1207  0.3562
  130OSM    H5S14002   5.810   5.798   6.310  0.2396 -0.5274 -0.6611
  130OSM    C6S14003   5.925   5.895   6.152 -0.0691  0.5757  0.0384
  130OSM    H6S14004   5.997   5.811   6.152  2.1015  2.3273  1.0645
  130OSM    H6T14005   5.988   5.980   6.118 -0.1893  0.3494 -0.7616
  130OSM    C7S14006   5.829   5.857   6.032 -0.8678  0.9128 -0.6669
  130OSM    H7S14007   5.786   5.759   6.061  0.0754  0.9322  0.9495
  130OSM    H7T14008   5.889   5.840   5.940 -1.8864 -4.4045 -0.6698
  130OSM    C8S14009   5.715   5.956   6.004  0.1199 -0.3459  0.1964
  130OSM    H8S14010   5.759   6.047   5.956  1.3188 -1.0007  0.0324
  130OSM    H8T14011   5.664   5.994   6.095  1.1710  0.1646  0.5853
  130OSM    C9S14012   5.606   5.903   5.909  0.3085  0.1138  0.3900
  130OSM    H9S14013   5.534   5.987   5.905 -0.8759 -0.8785  0.1131
  130OSM    H9T14014   5.553   5.818   5.957  0.3632 -0.3108 -0.2768
  130OSM   C10S14015   5.655   5.876   5.763  0.2103  0.9868 -0.2897
  130OSM   H10S14016   5.756   5.830   5.759  0.1342  0.7587  0.3975
  130OSM   H10T14017   5.673   5.972   5.710 -2.5083  1.3339 -0.7507
  130OSM   C11S14018   5.539   5.808   5.692 -0.4288  0.0928  0.2940
  130OSM   H11S14019   5.454   5.879   5.676  0.1017  0.6503 -0.1414
  130OSM   H11T14020   5.489   5.732   5.756 -0.4029 -1.3423 -1.3196
  130OSM   C12S14021   5.587   5.723   5.571  0.4552 -0.0308  0.7617
  130OSM   H12S14022   5.511   5.645   5.552  0.9041 -0.0024 -1.3486
  130OSM   H12T14023   5.683   5.676   5.604  2.3869  1.1865 -2.6582
  130OSM   C13S14024   5.619   5.810   5.450 -0.4024 -0.0480  0.4141
  130OSM   H13S14025   5.673   5.900   5.487 -0.6999  0.1801  0.3009
  130OSM   H13T14026   5.530   5.844   5.393 -0.4237  2.2132  1.6669
  130OSM   C14S14027   5.707   5.740   5.345  0.6352  0.6557  0.8890
  130OSM   H14S14028   5.814   5.727   5.374  1.5559  0.3292 -2.2330
  130OSM   H14T14029   5.723   5.817   5.267 -0.2986  1.1736  1.1957
  130OSM   C15S14030   5.653   5.611   5.279  0.3448  0.1379  0.1460
  130OSM   H15S14031   5.553   5.633   5.236  0.1917  1.2724  1.0480
  130OSM   H15T14032   5.646   5.536   5.361 -0.2885 -0.8044 -0.7466
  130OSM   C16S14033   5.738   5.561   5.157 -0.2255  0.3648 -0.5390
  130OSM   H16S14034   5.828   5.505   5.190 -0.7331 -0.9718 -1.3174
  130OSM   H16T14035   5.782   5.648   5.104  2.0820  1.0253  2.2538
  130OSM   C17S14036   5.667   5.455   5.071 -0.7571  0.3826 -0.1530
  130OSM   H17S14037   5.592   5.401   5.133 -1.9337  0.8610 -1.1199
  130OSM   H17T14038   5.748   5.391   5.030 -1.0127 -0.1159  0.1212
  130OSM   C18S14039   5.596   5.508   4.944  0.1463  0.0905 -0.6897
  130OSM   H18S14040   5.528   5.591   4.972  1.0099  0.7957 -0.6333
  130OSM   H18T14041   5.547   5.422   4.893 -1.3066  0.8202 -0.5682
  130OSM   H18U14042   5.678   5.544   4.878 -0.5048  0.0665 -1.5333
  130OSM    C1F14043   5.424   6.058   6.307  0.0809  0.0975 -0.3787
  130OSM     OF14044   5.380   6.161   6.353 -0.2924  0.0794 -0.4016
  130OSM    C2F14045   5.352   5.973   6.209  0.8992 -0.0314  1.1470
  130OSM    H2F14046   5.266   5.922   6.257  0.4342 -3.0390 -2.4445
  130OSM    H2G14047   5.427   5.895   6.183 -0.0442 -1.1557  1.7350
  130OSM    C3F14048   5.307   6.037   6.072  0.3093 -0.2286  0.9108
  130OSM    H3F14049   5.388   6.092   6.020 -1.3001  0.3502 -1.1453
  130OSM    H3G14050   5.233   6.119   6.083  1.5300  1.5205 -2.4700
  130OSM    C4F14051   5.231   5.938   5.978  0.0826 -0.4219  0.5925
  130OSM    H4F14052   5.140   5.905   6.033  0.1811 -2.6316 -0.4913
  130OSM    H4G14053   5.301   5.857   5.948 -2.7818 -2.8613  0.0383
  130OSM    C5F14054   5.198   5.999   5.839  0.6806  0.3439  0.3258
  130OSM    H5F14055   5.287   6.061   5.814 -0.1322  1.0258 -1.0204
  130OSM    H5G14056   5.111   6.067   5.854 -0.6387 -1.4147  0.9802
  130OSM    C6F14057   5.167   5.895   5.729 -0.1428 -0.2357  0.3906
  130OSM    H6F14058   5.081   5.829   5.754 -0.9681  1.5090  2.4873
  130OSM    H6G14059   5.260   5.834   5.717 -0.5297 -0.9335  0.8430
  130OSM    C7F14060   5.145   5.964   5.592 -0.2455 -0.8251  0.2709
  130OSM    H7F14061   5.227   6.035   5.568 -4.3517  4.3849 -0.0367
  130OSM    H7G14062   5.057   6.030   5.607  1.3114  1.6392 -0.7262
  130OSM    C8F14063   5.114   5.879   5.477  0.5793  0.0681 -0.0484
  130OSM    H8F14064   5.077   5.951   5.400 -0.0343 -0.1403  0.0474
  130OSM    H8G14065   5.020   5.823   5.496 -0.0414  1.3008  0.6507
  130OSM    C9F14066   5.223   5.785   5.421 -1.1486 -0.0136 -0.2771
  130OSM    H9F14067   5.304   5.757   5.490 -2.3804 -2.4885  0.3171
  130OSM   C10F14068   5.231   5.746   5.295 -0.2408 -0.1239 -0.7861
  130OSM   H10F14069   5.325   5.693   5.271 -0.6244 -1.7111  0.9621
  130OSM   C11F14070   5.131   5.750   5.183 -0.6447 -0.0383 -0.1071
  130OSM   H11F14071   5.040   5.810   5.202 -1.3203 -1.3381  0.8703
  130OSM   H11G14072   5.095   5.648   5.159  0.6407 -0.5457  0.0430
  130OSM   C12F14073   5.204   5.787   5.050 -0.0551  0.4064  0.1868
  130OSM   H12F14074   5.290   5.723   5.020 -0.2542  0.5982 -0.8611
  130OSM   H12G14075   5.228   5.896   5.053 -1.4691  0.7865 -0.9556
  130OSM   C13F14076   5.114   5.777   4.925 -0.5144  0.4501 -0.4852
  130OSM   H13F14077   5.129   5.873   4.871  1.6340 -0.1935 -1.1206
  130OSM   H13G14078   5.007   5.758   4.948 -0.0487 -2.0515 -0.0834
  130OSM   C14F14079   5.163   5.669   4.828 -0.2339  0.5702  0.1060
  130OSM   H14F14080   5.199   5.582   4.887  1.8290  1.2308 -0.0927
  130OSM   H14G14081   5.249   5.707   4.769 -0.7452  2.7408  0.6813
  130OSM   C15F14082   5.048   5.618   4.742 -0.2847  0.3055 -0.4121
  130OSM   H15F14083   4.955   5.592   4.797 -1.0724 -1.3784 -2.3897
  130OSM   H15G14084   5.082   5.517   4.709 -0.9060 -0.3060  0.7647
  130OSM   C16F14085   5.016   5.712   4.627 -0.6867  0.4502 -0.4129
  130OSM   H16F14086   5.105   5.731   4.563 -0.5576  0.8587 -0.1145
  130OSM   H16G14087   4.997   5.813   4.669 -0.2024  0.7284 -0.8537
  130OSM   C17F14088   4.894   5.668   4.549 -0.0863 -0.1282  0.6638
  130OSM   H17F14089   4.887   5.748   4.472 -0.6462 -0.3313  0.5026
  130OSM   H17G14090   4.804   5.674   4.613 -1.2401  2.8612 -1.0231
  130OSM   C18F14091   4.898   5.530   4.466  0.2730 -0.2690  0.4445
  130OSM   H18F14092   4.901   5.442   4.533 -0.0332 -0.0774  0.7126
  130OSM   H18G14093   4.987   5.525   4.399  1.4876 -0.5981  2.0235
  130OSM   H18H14094   4.817   5.524   4.391  0.0616  0.9457  0.5492
  131OSM      N14095   0.827   3.075   6.796  0.1665  0.3663  0.0495
  131OSM    C1514096   0.849   3.202   6.872 -0.1692 -0.1093  0.3645
  131OSM   H15A14097   0.774   3.224   6.947 -0.5450  0.9311 -0.2887
  131OSM   H15B14098   0.841   3.286   6.804 -3.5504 -0.5246  0.0870
  131OSM   H15C14099   0.948   3.218   6.912  0.1473  0.3692 -0.5726
  131OSM    C1414100   0.823   2.956   6.889  0.7937 -0.5522 -0.0105
  131OSM   H14A14101   0.832   2.871   6.822  0.2147 -1.7220  1.3443
  131OSM   H14B14102   0.724   2.934   6.925  1.2954 -2.5602  0.2805
  131OSM   H14C14103   0.897   2.969   6.967  0.7220  0.3966 -0.0959
  131OSM    C1314104   0.690   3.088   6.732  0.2806  0.1921 -0.4771
  131OSM   H13A14105   0.612   3.082   6.806 -0.6871  1.3854 -1.3495
  131OSM   H13B14106   0.666   3.003   6.669 -1.4793  0.2846  0.0006
  131OSM   H13C14107   0.688   3.177   6.671  0.7870 -0.3664 -1.3329
  131OSM    C1214108   0.926   3.049   6.686 -0.6314  0.5415  0.4883
  131OSM   H12A14109   1.016   3.028   6.741  2.5177  2.0354 -3.6389
  131OSM   H12B14110   0.954   3.142   6.638  0.0480  0.7573  1.2744
  131OSM    C1114111   0.909   2.928   6.578  0.4827 -0.1248  0.2458
  131OSM   H11A14112   1.000   2.926   6.514  0.8203  1.3370  0.6576
  131OSM   H11B14113   0.818   2.945   6.517 -0.6741 -0.9548  1.6753
  131OSM      P14114   0.951   2.656   6.603 -0.0127  0.1642 -0.3578
  131OSM    O1314115   1.035   2.660   6.489 -0.2591 -0.1301  0.8261
  131OSM    O1414116   1.000   2.593   6.730  0.4632  0.2022 -0.0093
  131OSM    O1114117   0.827   2.571   6.570  0.2210 -0.0039 -0.6643
  131OSM    O1214118   0.894   2.800   6.641  0.2595 -0.2985  0.3859
  131OSM    C1S14119   0.734   2.596   6.464 -0.7924 -0.2627 -0.0772
  131OSM    H1S14120   0.746   2.697   6.419  4.4191 -0.7435 -0.3605
  131OSM    H1T14121   0.630   2.584   6.502 -0.7035 -0.0677  0.2345
  131OSM     NF14122   0.637   2.520   6.257  0.2842 -0.1960 -0.4654
  131OSM    HNF14123   0.559   2.459   6.263  0.5469 -0.6539 -1.4632
  131OSM    C2S14124   0.742   2.486   6.345  0.0478  0.1720 -0.0733
  131OSM    H2S14125   0.837   2.512   6.295 -0.2057  1.4116  0.0436
  131OSM    C3S14126   0.748   2.339   6.405  0.0709  0.7699  0.4877
  131OSM    H3S14127   0.656   2.335   6.468 -1.3429  0.3046 -1.4995
  131OSM     O314128   0.848   2.319   6.502 -0.8617 -0.4153 -0.6170
  131OSM    HO314129   0.867   2.407   6.533 -0.5550 -0.6330 -0.1763
  131OSM    C4S14130   0.734   2.233   6.305 -0.3107  0.1620 -0.2226
  131OSM    H4S14131   0.771   2.263   6.207  0.1686 -0.9265 -0.3896
  131OSM    C5S14132   0.668   2.113   6.311  0.0758  0.1812  0.0432
  131OSM    H5S14133   0.613   2.096   6.404 -0.2754  1.3232  0.0498
  131OSM    C6S14134   0.647   2.018   6.196 -0.7678  0.1894 -0.0399
  131OSM    H6S14135   0.542   1.987   6.177 -0.1334 -0.9401 -1.9418
  131OSM    H6T14136   0.694   1.923   6.228  0.0055  0.5460 -0.1050
  131OSM    C7S14137   0.703   2.066   6.062 -0.3757 -0.7253  0.7766
  131OSM    H7S14138   0.808   2.099   6.078 -0.3985  0.3741 -1.0394
  131OSM    H7T14139   0.655   2.164   6.043  1.0948 -0.3580 -1.4249
  131OSM    C8S14140   0.693   1.968   5.955  0.1825 -0.1454  0.3912
  131OSM    H8S14141   0.582   1.959   5.947  0.2335  0.3057 -1.3971
  131OSM    H8T14142   0.735   1.876   6.000  0.4018  0.6362  1.8370
  131OSM    C9S14143   0.757   2.002   5.819 -0.3119 -0.3940  0.0686
  131OSM    H9S14144   0.755   1.911   5.756 -0.6783 -0.2815 -0.0883
  131OSM    H9T14145   0.865   2.022   5.835  0.1653 -2.4521 -0.3158
  131OSM   C10S14146   0.695   2.121   5.751 -0.2536 -0.1596 -0.6375
  131OSM   H10S14147   0.692   2.210   5.817 -1.3089  1.0531 -2.2178
  131OSM   H10T14148   0.587   2.107   5.725 -0.1015 -0.2662 -1.2259
  131OSM   C11S14149   0.776   2.142   5.619  0.2370  0.8312  0.7078
  131OSM   H11S14150   0.883   2.119   5.641  0.4711 -0.2391 -1.3007
  131OSM   H11T14151   0.772   2.248   5.586 -0.2283 -0.0026 -2.2087
  131OSM   C12S14152   0.731   2.051   5.500  0.0700  0.0136 -0.2362
  131OSM   H12S14153   0.629   2.010   5.518 -0.3283  1.5626  1.3139
  131OSM   H12T14154   0.801   1.966   5.485 -1.8244 -1.8464  0.8527
  131OSM   C13S14155   0.726   2.142   5.377  0.2557 -0.3921  0.2936
  131OSM   H13S14156   0.807   2.217   5.366 -2.0197  1.9056 -3.1081
  131OSM   H13T14157   0.641   2.213   5.381 -0.6538 -1.4189 -0.0397
  131OSM   C14S14158   0.721   2.065   5.238 -0.8287 -0.1666  0.1958
  131OSM   H14S14159   0.636   1.994   5.238  0.3020 -1.6081  2.2018
  131OSM   H14T14160   0.809   1.998   5.237 -1.0378 -0.5009 -2.2610
  131OSM   C15S14161   0.717   2.150   5.105  0.3802  0.5721  0.2053
  131OSM   H15S14162   0.796   2.229   5.109  0.4249  0.6425 -1.3199
  131OSM   H15T14163   0.617   2.195   5.088  0.6566  2.4883  2.9951
  131OSM   C16S14164   0.739   2.063   4.977  0.5369  0.1946 -0.0738
  131OSM   H16S14165   0.829   1.999   4.987  0.5249  0.1365 -0.3255
  131OSM   H16T14166   0.761   2.128   4.889 -2.4173 -0.3907 -1.3833
  131OSM   C17S14167   0.630   1.977   4.911 -0.1151 -0.0517 -0.1813
  131OSM   H17S14168   0.543   2.046   4.903 -0.4462 -0.2315  1.4412
  131OSM   H17T14169   0.607   1.894   4.982  0.5669 -1.6478 -1.7546
  131OSM   C18S14170   0.672   1.911   4.783 -0.6470  0.0766  0.6279
  131OSM   H18S14171   0.590   1.842   4.753 -0.5676 -0.0713  0.7459
  131OSM   H18T14172   0.768   1.857   4.800  0.4163  2.2050  1.7908
  131OSM   H18U14173   0.685   1.986   4.703  0.6058 -1.9831 -1.1932
  131OSM    C1F14174   0.637   2.631   6.181  0.4044  0.5220 -0.5229
  131OSM     OF14175   0.748   2.689   6.172 -0.1595 -0.4403 -0.1363
  131OSM    C2F14176   0.523   2.668   6.096  0.4498 -0.2226 -0.0547
  131OSM    H2F14177   0.472   2.757   6.137  2.0653  0.3993  0.6721
  131OSM    H2G14178   0.451   2.583   6.095 -0.3201  0.4242  0.0729
  131OSM    C3F14179   0.568   2.702   5.953  1.0607  0.4515  0.3295
  131OSM    H3F14180   0.639   2.624   5.918  0.4146  0.2110 -0.4688
  131OSM    H3G14181   0.638   2.789   5.952  0.0672  1.2816  1.0586
  131OSM    C4F14182   0.461   2.728   5.844  0.1030  0.5227 -0.3456
  131OSM    H4F14183   0.419   2.827   5.874  1.9509  1.5463 -0.9853
  131OSM    H4G14184   0.379   2.655   5.857 -0.2825  0.8465 -0.8998
  131OSM    C5F14185   0.518   2.743   5.710  0.3663  0.5453 -0.3746
  131OSM    H5F14186   0.552   2.641   5.681 -1.5705 -0.3602  0.3323
  131OSM    H5G14187   0.601   2.814   5.727  1.8308 -1.4901  1.6747
  131OSM    C6F14188   0.423   2.811   5.615  0.2347 -0.5216 -0.0118
  131OSM    H6F14189   0.395   2.909   5.658  0.1235  0.4002 -2.0703
  131OSM    H6G14190   0.324   2.763   5.599 -0.9440  1.5557  0.6806
  131OSM    C7F14191   0.490   2.836   5.480  0.0728  0.0917  0.8489
  131OSM    H7F14192   0.600   2.829   5.492  0.2059  1.9700  1.0311
  131OSM    H7G14193   0.475   2.942   5.453  0.6444 -0.1548 -0.5082
  131OSM    C8F14194   0.437   2.734   5.367  0.6772  0.3261 -0.6953
  131OSM    H8F14195   0.438   2.638   5.424 -3.0186  0.0074 -0.9752
  131OSM    H8G14196   0.518   2.729   5.291  0.8468  0.5334 -0.5281
  131OSM    C9F14197   0.297   2.765   5.315 -0.4804 -0.2292 -0.0162
  131OSM    H9F14198   0.209   2.736   5.374  1.0688 -2.5041  1.3450
  131OSM   C10F14199   0.270   2.823   5.196 -0.0903 -0.5086  0.1102
  131OSM   H10F14200   0.167   2.853   5.172  0.5687  2.2035  0.3265
  131OSM   C11F14201   0.371   2.892   5.102  0.1095 -0.4655 -0.4316
  131OSM   H11F14202   0.464   2.918   5.157  0.0899  0.3590 -0.7817
  131OSM   H11G14203   0.328   2.987   5.065  1.0069 -0.2539 -0.9663
  131OSM   C12F14204   0.415   2.801   4.985  0.0988  0.1153 -0.4689
  131OSM   H12F14205   0.453   2.708   5.032  1.1469 -0.1430 -1.7633
  131OSM   H12G14206   0.492   2.862   4.933  0.4206  1.6767  1.6936
  131OSM   C13F14207   0.293   2.774   4.901 -0.2278 -0.1288 -0.0178
  131OSM   H13F14208   0.237   2.869   4.888  1.8706  1.2935  0.7943
  131OSM   H13G14209   0.227   2.701   4.953  1.4502 -1.0050  0.9350
  131OSM   C14F14210   0.331   2.707   4.771 -0.1270 -0.4696  0.7961
  131OSM   H14F14211   0.269   2.618   4.748 -2.0661  1.3514 -1.6364
  131OSM   H14G14212   0.435   2.670   4.765 -0.7706 -2.3541  0.7659
  131OSM   C15F14213   0.302   2.808   4.662  0.5827  0.7043 -0.0823
  131OSM   H15F14214   0.355   2.905   4.669  0.9006  0.4575  1.1468
  131OSM   H15G14215   0.196   2.841   4.663 -0.4088 -2.1636 -0.4007
  131OSM   C16F14216   0.313   2.756   4.517  0.2896  0.1145 -0.5666
  131OSM   H16F14217   0.215   2.719   4.478  0.0611 -0.3030  0.3705
  131OSM   H16G14218   0.382   2.669   4.516 -0.6765 -0.6777  0.0813
  131OSM   C17F14219   0.343   2.871   4.414  0.5880 -0.0975  0.5093
  131OSM   H17F14220   0.346   2.825   4.313  1.3910  2.4123 -0.6864
  131OSM   H17G14221   0.437   2.924   4.440 -0.5602  1.9668  0.7277
  131OSM   C18F14222   0.236   2.978   4.393 -0.0996 -0.3907  0.3097
  131OSM   H18F14223   0.215   3.045   4.479  1.1992  1.4481 -0.7271
  131OSM   H18G14224   0.137   2.939   4.362  0.0230  0.5847 -1.4552
  131OSM   H18H14225   0.260   3.053   4.315 -4.2659  0.9841  0.0725
  132OSM      N14226   5.948   4.654   6.658  0.5095  0.1095  0.1472
  132OSM    C1514227   6.053   4.548   6.679 -0.3618  0.2279 -0.1284
  132OSM   H15A14228   6.145   4.571   6.730 -1.2654 -0.5061  1.9453
  132OSM   H15B14229   6.074   4.487   6.592 -2.1148  1.3400 -1.4146
  132OSM   H15C14230   6.018   4.477   6.753 -0.5760  0.4288 -0.0347
  132OSM    C1414231   5.972   4.718   6.521  0.1575  0.0002 -1.3346
  132OSM   H14A14232   5.960   4.645   6.442  0.4971  1.3382 -2.6507
  132OSM   H14B14233   6.072   4.759   6.515 -0.8265  2.9458  0.5279
  132OSM   H14C14234   5.898   4.790   6.491  0.0281 -0.6072 -2.5386
  132OSM    C1314235   5.817   4.583   6.663 -0.1898 -0.7938  0.2299
  132OSM   H13A14236   5.733   4.650   6.649  2.0912  1.7206 -3.2477
  132OSM   H13B14237   5.802   4.534   6.758 -0.5432 -1.5320 -0.1951
  132OSM   H13C14238   5.802   4.518   6.579 -0.9684  2.0952 -2.0558
  132OSM    C1214239   5.948   4.763   6.767  0.2867 -0.6507 -0.5291
  132OSM   H12A14240   5.895   4.728   6.855  0.9813 -0.9330 -0.2140
  132OSM   H12B14241   5.885   4.841   6.727  0.1151 -0.2616  0.4659
  132OSM    C1114242   6.076   4.833   6.814 -1.3748 -0.2173 -0.1313
  132OSM   H11A14243   6.047   4.898   6.899  1.3394 -0.6974  1.2755
  132OSM   H11B14244   6.113   4.910   6.743  2.2907 -1.0375  0.6710
  132OSM      P14245   6.335   4.773   6.832 -0.0601  0.0121  0.1174
  132OSM    O1314246   6.365   4.869   6.938  0.1719 -0.0724  0.1005
  132OSM    O1414247   6.413   4.644   6.840 -0.5795 -0.4439  0.4521
  132OSM    O1114248   6.351   4.839   6.696  0.5531 -0.2352 -0.0553
  132OSM    O1214249   6.178   4.740   6.856  0.0843 -0.3465  0.7170
  132OSM    C1S14250   6.458   4.927   6.666  0.8388  0.2405  0.8607
  132OSM    H1S14251   6.550   4.864   6.662  1.1189  0.7127 -0.6142
  132OSM    H1T14252   6.476   5.011   6.736 -0.4828 -0.3143  1.9355
  132OSM     NF14253   6.547   5.083   6.503  0.3981 -0.0867  0.3165
  132OSM    HNF14254   6.515   5.177   6.490 -1.0257 -0.8719 -2.9368
  132OSM    C2S14255   6.444   4.996   6.526 -0.6956 -0.5183 -0.0299
  132OSM    H2S14256   6.463   4.917   6.450 -1.9319  1.1396 -2.1920
  132OSM    C3S14257   6.302   5.053   6.496  0.3414 -0.1825 -0.0259
  132OSM    H3S14258   6.272   5.116   6.582 -0.3921 -0.4215 -0.0955
  132OSM     O314259   6.187   4.960   6.506 -1.1617  0.1465  0.4687
  132OSM    HO314260   6.209   4.906   6.583 -0.3998  1.0542  0.9084
  132OSM    C4S14261   6.292   5.127   6.367 -0.7393  0.2674  0.1397
  132OSM    H4S14262   6.324   5.232   6.375 -1.7424  0.6887 -1.0879
  132OSM    C5S14263   6.250   5.081   6.245 -0.4376  0.3157 -0.3289
  132OSM    H5S14264   6.210   4.979   6.232  1.2535 -0.0229 -4.2132
  132OSM    C6S14265   6.255   5.171   6.126  0.3478  0.4139 -0.5610
  132OSM    H6S14266   6.309   5.267   6.144  0.7571  0.5032 -2.0749
  132OSM    H6T14267   6.150   5.189   6.097 -0.3027 -0.6498  0.9902
  132OSM    C7S14268   6.331   5.103   6.015  0.2283 -0.0097 -0.4152
  132OSM    H7S14269   6.298   4.998   5.998  0.5013 -0.1018 -0.3778
  132OSM    H7T14270   6.439   5.102   6.038  0.2809 -0.1813 -0.6634
  132OSM    C8S14271   6.320   5.167   5.878  0.2656 -0.2349 -0.3403
  132OSM    H8S14272   6.368   5.267   5.884 -0.0051 -0.1990  3.3285
  132OSM    H8T14273   6.214   5.186   5.853 -1.1507 -2.4732  3.1671
  132OSM    C9S14274   6.375   5.078   5.766  0.5249  0.2856 -0.1535
  132OSM    H9S14275   6.292   5.006   5.749 -0.1031  0.9569 -0.0207
  132OSM    H9T14276   6.470   5.031   5.800  0.4436  1.9019  2.6765
  132OSM   C10S14277   6.400   5.151   5.632 -0.0044 -0.1136 -0.1115
  132OSM   H10S14278   6.468   5.238   5.649  0.5079 -0.6548  0.6767
  132OSM   H10T14279   6.302   5.192   5.599 -0.1641  2.2024  2.7461
  132OSM   C11S14280   6.453   5.061   5.523 -0.5891 -0.6075  0.2337
  132OSM   H11S14281   6.385   4.976   5.502 -0.8942 -0.3061 -0.0115
  132OSM   H11T14282   6.547   5.025   5.570  0.5996  2.8175  0.7995
  132OSM   C12S14283   6.482   5.145   5.392 -1.0505 -0.5915 -0.5662
  132OSM   H12S14284   6.533   5.241   5.412 -0.8550 -0.7253 -0.4218
  132OSM   H12T14285   6.388   5.171   5.339 -0.7804  0.0562 -0.7372
  132OSM   C13S14286   6.577   5.086   5.287  0.8394 -0.0755 -0.2744
  132OSM   H13S14287   6.535   4.984   5.272  0.3681  0.0993 -0.1471
  132OSM   H13T14288   6.673   5.072   5.342  1.1308  0.9775 -0.4817
  132OSM   C14S14289   6.609   5.172   5.166 -0.7838 -0.3906  0.1363
  132OSM   H14S14290   6.654   5.268   5.201  0.8105 -1.2710  0.5889
  132OSM   H14T14291   6.519   5.209   5.111 -3.4890  0.6107  4.7361
  132OSM   C15S14292   6.709   5.112   5.069  1.6207  0.0174  0.0299
  132OSM   H15S14293   6.778   5.057   5.136  0.8369  1.2617  1.9595
  132OSM   H15T14294   6.763   5.200   5.028 -1.1097  1.3826 -0.8993
  132OSM   C16S14295   6.646   5.016   4.972 -1.2133 -0.3545  0.2745
  132OSM   H16S14296   6.578   5.074   4.906 -0.4438 -1.4317 -1.5724
  132OSM   H16T14297   6.590   4.933   5.021 -0.7087 -2.0619 -1.8584
  132OSM   C17S14298   6.758   4.950   4.886  0.1229  0.3336  0.2409
  132OSM   H17S14299   6.712   4.858   4.844 -0.3445  1.8270 -2.8017
  132OSM   H17T14300   6.832   4.917   4.962 -0.1788  0.3890  0.5667
  132OSM   C18S14301   6.820   5.039   4.779 -0.2012 -1.0885 -0.3778
  132OSM   H18S14302   6.860   5.133   4.823  0.6071 -1.4957 -0.2336
  132OSM   H18T14303   6.741   5.067   4.707 -0.0546  0.7443  0.1376
  132OSM   H18U14304   6.896   4.980   4.723  1.1089  0.9337 -0.8305
  132OSM    C1F14305   6.672   5.051   6.474  0.3388  0.4049  0.5149
  132OSM     OF14306   6.719   4.942   6.503 -0.2234  0.0859  0.1808
  132OSM    C2F14307   6.752   5.161   6.409 -0.5024  0.0504  0.5675
  132OSM    H2F14308   6.852   5.120   6.384 -1.7698 -4.0019  1.3759
  132OSM    H2G14309   6.751   5.246   6.481  0.2560 -1.1610  2.0412
  132OSM    C3F14310   6.687   5.219   6.277 -0.3157 -0.2310 -0.5290
  132OSM    H3F14311   6.584   5.260   6.283  0.0984  1.0166 -1.5747
  132OSM    H3G14312   6.677   5.137   6.203 -3.6107 -2.4870  2.1101
  132OSM    C4F14313   6.771   5.332   6.214 -0.4924 -0.3379 -0.0234
  132OSM    H4F14314   6.713   5.370   6.127  0.7465  0.7601 -0.3894
  132OSM    H4G14315   6.870   5.302   6.175  1.1342  0.4960  3.1485
  132OSM    C5F14316   6.797   5.446   6.305 -0.0173  0.0182  0.0006
  132OSM    H5F14317   6.874   5.421   6.381 -2.2463 -4.7652  1.1019
  132OSM    H5G14318   6.700   5.464   6.357  0.1726  0.3523  0.2450
  132OSM    C6F14319   6.818   5.574   6.229 -0.2734  0.4219  1.2052
  132OSM    H6F14320   6.735   5.586   6.156  1.7881 -1.0866 -1.5388
  132OSM    H6G14321   6.907   5.555   6.165 -0.6240  1.6759  0.2974
  132OSM    C7F14322   6.838   5.698   6.315  0.7113 -0.5487  0.5462
  132OSM    H7F14323   6.932   5.678   6.371  0.3158 -0.6655  1.1872
  132OSM    H7G14324   6.747   5.714   6.377  1.0733 -1.4369  1.3185
  132OSM    C8F14325   6.850   5.838   6.245  0.8207 -0.2043 -0.2329
  132OSM    H8F14326   6.870   5.918   6.320  0.8860 -0.4213 -0.0165
  132OSM    H8G14327   6.746   5.863   6.214  0.2947  1.7900  2.7098
  132OSM    C9F14328   6.944   5.834   6.127 -0.1053 -0.3168  0.0188
  132OSM    H9F14329   7.038   5.781   6.147 -0.3891 -0.9194 -0.2299
  132OSM   C10F14330   6.931   5.905   6.012  0.8433  0.7458  0.1238
  132OSM   H10F14331   7.015   5.900   5.941  2.0241  1.9667  1.3577
  132OSM   C11F14332   6.816   5.988   5.966 -0.8404 -0.1102  0.6011
  132OSM   H11F14333   6.722   5.967   6.021 -2.2166 -1.6564 -2.1635
  132OSM   H11G14334   6.802   5.955   5.861  0.3748 -0.8152  0.6380
  132OSM   C12F14335   6.870   6.129   5.945 -0.2570 -0.1747 -0.6670
  132OSM   H12F14336   6.965   6.143   5.888  1.3696  3.0787  2.4648
  132OSM   H12G14337   6.906   6.164   6.044  0.5363 -0.0202 -0.9977
  132OSM   C13F14338   6.764   6.222   5.885  0.4816  0.0854  0.3173
  132OSM   H13F14339   6.789   6.330   5.887 -0.6008  0.3578 -0.2084
  132OSM   H13G14340   6.670   6.206   5.943 -1.4912  1.3692 -2.2964
  132OSM   C14F14341   6.727   6.199   5.739 -0.0583 -0.0047 -0.3582
  132OSM   H14F14342   6.700   6.093   5.720  1.1240 -0.2016 -1.0857
  132OSM   H14G14343   6.815   6.218   5.673  0.3268 -2.9945 -0.8438
  132OSM   C15F14344   6.602   6.283   5.705  0.2102 -0.1151 -0.4368
  132OSM   H15F14345   6.627   6.391   5.699 -2.7636  0.7447  0.8703
  132OSM   H15G14346   6.526   6.288   5.785  0.3120  1.7319 -0.3987
  132OSM   C16F14347   6.534   6.240   5.573 -0.1204 -0.1504 -0.7657
  132OSM   H16F14348   6.504   6.133   5.578 -0.1544 -0.1710 -1.3511
  132OSM   H16G14349   6.616   6.253   5.500 -0.4201  0.6798 -0.9586
  132OSM   C17F14350   6.420   6.322   5.523 -0.1454  0.9598  0.8155
  132OSM   H17F14351   6.465   6.415   5.481 -1.9762  1.2852 -0.5382
  132OSM   H17G14352   6.358   6.343   5.613  0.6972  1.3320  1.3282
  132OSM   C18F14353   6.331   6.243   5.425  0.8222 -0.4779  0.3946
  132OSM   H18F14354   6.265   6.310   5.366  2.4846  0.7424 -0.1435
  132OSM   H18G14355   6.265   6.172   5.479  0.3239 -2.8529 -2.9624
  132OSM   H18H14356   6.397   6.186   5.356 -0.5201  0.7971 -2.0890
  133OSM      N14357   4.870   4.252   6.809 -0.3365 -0.3549  0.1587
  133OSM    C1514358   4.969   4.140   6.825  0.6638 -0.1507  0.3468
  133OSM   H15A14359   5.002   4.106   6.728  1.3153  1.4814 -0.0465
  133OSM   H15B14360   4.927   4.064   6.889 -0.1308  0.6395  0.7891
  133OSM   H15C14361   5.062   4.173   6.870 -0.0699  2.0846  0.3715
  133OSM    C1414362   4.764   4.203   6.727 -0.7686  0.1515  0.1350
  133OSM   H14A14363   4.800   4.148   6.642  0.5006 -0.5730  1.0967
  133OSM   H14B14364   4.689   4.272   6.692 -1.4876  0.8058  2.7274
  133OSM   H14C14365   4.728   4.125   6.792 -1.1106  1.4175  1.5367
  133OSM    C1314366   4.827   4.286   6.949  0.1961 -0.2676 -0.3505
  133OSM   H13A14367   4.789   4.194   6.990  0.2611  0.2365  0.8777
  133OSM   H13B14368   4.753   4.364   6.949 -0.6204 -1.0192  0.4516
  133OSM   H13C14369   4.913   4.304   7.012 -1.3931 -1.0119  2.1752
  133OSM    C1214370   4.946   4.367   6.742 -0.7037 -0.1007 -0.0253
  133OSM   H12A14371   4.940   4.344   6.637  0.3235 -2.0492  0.3002
  133OSM   H12B14372   5.050   4.365   6.772 -0.7630  2.3773  0.6017
  133OSM    C1114373   4.894   4.510   6.769  0.4320 -0.0001 -0.1743
  133OSM   H11A14374   4.961   4.572   6.706  1.2065  0.3462  0.9658
  133OSM   H11B14375   4.927   4.521   6.875  1.2774 -3.8263  0.0987
  133OSM      P14376   4.673   4.634   6.819  0.1958  0.1914 -0.0186
  133OSM    O1314377   4.576   4.553   6.893  0.2744 -0.1329 -0.5805
  133OSM    O1414378   4.770   4.714   6.900 -0.0376  0.0671 -0.2232
  133OSM    O1114379   4.604   4.726   6.709  0.8388  0.2942 -0.0919
  133OSM    O1214380   4.753   4.527   6.743 -0.2387  0.0431  0.1007
  133OSM    C1S14381   4.685   4.787   6.604 -0.1390  1.0710 -0.2894
  133OSM    H1S14382   4.791   4.792   6.636  0.2248  3.9373 -1.6783
  133OSM    H1T14383   4.645   4.890   6.595  1.9443  1.9191 -0.3549
  133OSM     NF14384   4.728   4.806   6.362  0.1177  0.0346 -0.3449
  133OSM    HNF14385   4.663   4.848   6.299  0.2367 -0.0099 -0.4955
  133OSM    C2S14386   4.675   4.718   6.469  0.6358  0.5471  0.4053
  133OSM    H2S14387   4.723   4.619   6.477  0.0847  0.2961  0.6368
  133OSM    C3S14388   4.527   4.667   6.427  0.1171  0.5261  0.1376
  133OSM    H3S14389   4.454   4.749   6.444 -0.5977 -0.1509  0.3918
  133OSM     O314390   4.468   4.563   6.514  0.9929 -0.4057  0.5505
  133OSM    HO314391   4.514   4.582   6.596  0.1274  1.1520  0.7133
  133OSM    C4S14392   4.506   4.622   6.286 -0.3495  0.1225 -0.3300
  133OSM    H4S14393   4.545   4.522   6.261 -1.1937  0.0414 -1.3744
  133OSM    C5S14394   4.458   4.697   6.189  0.0933 -0.8957  1.0145
  133OSM    H5S14395   4.431   4.801   6.210  0.2034 -0.5347 -0.5290
  133OSM    C6S14396   4.451   4.663   6.043 -0.4821  0.4560 -0.3932
  133OSM    H6S14397   4.547   4.689   5.995  1.1162 -0.4053  2.1369
  133OSM    H6T14398   4.364   4.722   6.008  0.7134  2.0185 -0.7996
  133OSM    C7S14399   4.435   4.518   6.012 -0.1199  0.0660  0.1546
  133OSM    H7S14400   4.351   4.463   6.058 -0.1576 -0.6486 -0.7309
  133OSM    H7T14401   4.527   4.466   6.048  0.9061  0.6810 -1.4578
  133OSM    C8S14402   4.421   4.496   5.863  0.0566  0.6327 -0.0626
  133OSM    H8S14403   4.500   4.546   5.803 -1.2140  0.1553 -2.1953
  133OSM    H8T14404   4.324   4.529   5.820  0.3298 -0.4609 -1.5959
  133OSM    C9S14405   4.443   4.347   5.837 -0.9901  0.2504 -0.2880
  133OSM    H9S14406   4.392   4.282   5.911 -0.6720 -0.1790 -0.4387
  133OSM    H9T14407   4.550   4.318   5.848 -0.1659  3.0540 -0.1442
  133OSM   C10S14408   4.402   4.311   5.696  0.1222  0.1750 -0.5355
  133OSM   H10S14409   4.308   4.361   5.662 -1.2567 -2.3305 -0.6630
  133OSM   H10T14410   4.389   4.201   5.691  1.1291  0.0572 -0.6914
  133OSM   C11S14411   4.509   4.344   5.594 -0.4215 -0.6342  0.2003
  133OSM   H11S14412   4.599   4.287   5.623 -0.5951 -0.5801  0.8455
  133OSM   H11T14413   4.536   4.452   5.597 -0.8495 -0.5547  2.2055
  133OSM   C12S14414   4.470   4.304   5.451  0.5168  0.2294 -0.4254
  133OSM   H12S14415   4.374   4.359   5.441  1.3893  1.7838 -0.6179
  133OSM   H12T14416   4.448   4.195   5.455  1.1863  0.1280  0.6159
  133OSM   C13S14417   4.568   4.351   5.339  0.1780  0.2785 -1.1788
  133OSM   H13S14418   4.665   4.299   5.354 -1.0435 -1.7736  0.0941
  133OSM   H13T14419   4.579   4.461   5.352 -0.7648  0.2704 -0.1808
  133OSM   C14S14420   4.520   4.305   5.205 -0.3309 -0.1073 -0.2304
  133OSM   H14S14421   4.422   4.354   5.184 -1.6434 -3.1347 -1.8528
  133OSM   H14T14422   4.491   4.198   5.212  2.4773 -1.0624 -1.7798
  133OSM   C15S14423   4.637   4.325   5.107  0.5421 -0.1216 -0.4302
  133OSM   H15S14424   4.723   4.270   5.148  0.0686  1.0183  2.3030
  133OSM   H15T14425   4.662   4.433   5.096  0.4225  0.6632  4.7113
  133OSM   C16S14426   4.581   4.294   4.964 -0.0159 -0.2067  0.6662
  133OSM   H16S14427   4.500   4.370   4.952  0.4157  0.0997 -0.3997
  133OSM   H16T14428   4.527   4.197   4.967  0.9975 -0.7909  0.3369
  133OSM   C17S14429   4.682   4.302   4.852  0.1480  0.6968  0.3523
  133OSM   H17S14430   4.631   4.281   4.756  0.1454  0.8984  0.3100
  133OSM   H17T14431   4.757   4.221   4.865 -1.5278 -0.7827  1.2142
  133OSM   C18S14432   4.751   4.439   4.835  0.0024  0.0907 -0.5590
  133OSM   H18S14433   4.806   4.461   4.929  0.4850 -0.5705 -0.6774
  133OSM   H18T14434   4.673   4.515   4.818  1.4894  1.8345  0.1154
  133OSM   H18U14435   4.820   4.437   4.748 -0.2551  0.4927 -0.7763
  133OSM    C1F14436   4.854   4.848   6.350  1.1014 -0.7758 -0.9754
  133OSM     OF14437   4.941   4.807   6.431 -0.8755  0.0744 -0.4371
  133OSM    C2F14438   4.898   4.920   6.229 -0.2744 -0.2128 -0.5652
  133OSM    H2F14439   4.857   5.022   6.245  0.6660 -0.0438  0.9248
  133OSM    H2G14440   4.855   4.876   6.136  0.2734  0.3073 -1.0716
  133OSM    C3F14441   5.043   4.905   6.226 -1.4722 -0.3464  1.1110
  133OSM    H3F14442   5.074   4.802   6.201  2.9556  0.4365  2.4860
  133OSM    H3G14443   5.105   4.949   6.308 -0.6425 -1.5695  1.1633
  133OSM    C4F14444   5.097   4.986   6.104 -0.3688  0.5067  0.4482
  133OSM    H4F14445   5.062   5.092   6.108 -1.0136  0.2805  0.8801
  133OSM    H4G14446   5.054   4.951   6.007  2.4353 -0.6992 -0.4370
  133OSM    C5F14447   5.247   4.993   6.076 -0.0112 -0.2186  0.4425
  133OSM    H5F14448   5.294   5.040   6.165  1.1353  1.9075 -1.1972
  133OSM    H5G14449   5.260   5.055   5.985  0.4885 -0.9152  0.0238
  133OSM    C6F14450   5.322   4.865   6.037 -0.2074  0.0994 -0.6838
  133OSM    H6F14451   5.349   4.792   6.116  0.5568  0.2049 -0.8433
  133OSM    H6G14452   5.421   4.890   5.995  0.1080  2.7443  1.3891
  133OSM    C7F14453   5.258   4.788   5.914 -0.2859  1.3733  0.1143
  133OSM    H7F14454   5.164   4.736   5.941  0.3688  0.4021  0.5855
  133OSM    H7G14455   5.324   4.701   5.893  0.4287  2.2608 -1.6031
  133OSM    C8F14456   5.247   4.866   5.783  0.3055  0.1330  0.2347
  133OSM    H8F14457   5.346   4.901   5.747  0.1874 -0.2580 -0.4845
  133OSM    H8G14458   5.173   4.946   5.806 -1.0270 -0.8838 -0.3722
  133OSM    C9F14459   5.173   4.787   5.675  0.2830  0.1181 -0.7587
  133OSM    H9F14460   5.073   4.751   5.702 -1.0894  3.1981 -1.2823
  133OSM   C10F14461   5.228   4.765   5.548  0.2663 -0.6852 -0.1482
  133OSM   H10F14462   5.168   4.706   5.477  0.1001 -2.6960  1.5691
  133OSM   C11F14463   5.345   4.825   5.481 -0.0657 -0.2562  0.5642
  133OSM   H11F14464   5.439   4.767   5.495 -0.3881 -0.6842  0.9808
  133OSM   H11G14465   5.356   4.929   5.516 -0.6486  0.0501 -0.1290
  133OSM   C12F14466   5.318   4.827   5.325 -0.7914 -0.2247  0.1426
  133OSM   H12F14467   5.222   4.878   5.304  0.5935  2.4049 -0.3439
  133OSM   H12G14468   5.303   4.722   5.292 -1.1041  0.6096 -2.5865
  133OSM   C13F14469   5.413   4.908   5.240 -0.1221 -0.3428  1.0882
  133OSM   H13F14470   5.466   4.972   5.314 -0.2704 -2.5324  3.2255
  133OSM   H13G14471   5.359   4.969   5.165  0.6748 -0.7147  0.1865
  133OSM   C14F14472   5.524   4.826   5.166 -0.4129 -0.3076  0.1368
  133OSM   H14F14473   5.456   4.766   5.101 -2.4507  0.1065  1.7703
  133OSM   H14G14474   5.579   4.756   5.233 -2.2633 -1.3610  0.6210
  133OSM   C15F14475   5.616   4.911   5.075  0.3862 -0.4987  0.3057
  133OSM   H15F14476   5.692   4.961   5.139  1.5358 -0.0475 -1.3418
  133OSM   H15G14477   5.553   4.982   5.018  0.3954 -2.1082 -1.8410
  133OSM   C16F14478   5.705   4.842   4.968  0.2413 -1.1316 -0.0416
  133OSM   H16F14479   5.769   4.916   4.915  2.1614 -2.1140  0.8239
  133OSM   H16G14480   5.631   4.797   4.899  0.8665 -3.1091  0.5197
  133OSM   C17F14481   5.798   4.726   5.019  0.7050 -0.1634  0.3845
  133OSM   H17F14482   5.734   4.656   5.077  0.5970 -1.2269 -0.9783
  133OSM   H17G14483   5.869   4.782   5.084  0.3115  0.0818  0.6067
  133OSM   C18F14484   5.877   4.641   4.915 -0.1756  0.2106  0.6453
  133OSM   H18F14485   5.945   4.714   4.866 -0.5552  0.3356  0.2927
  133OSM   H18G14486   5.821   4.597   4.830 -1.1410 -0.0963  1.4203
  133OSM   H18H14487   5.937   4.564   4.968 -0.8243 -1.1638 -0.5406
  134OSM      N14488   2.945   0.894   6.931 -0.1783  0.6568 -0.5055
  134OSM    C1514489   3.074   0.854   7.002  0.1358  0.2797 -0.2919
  134OSM   H15A14490   3.061   0.820   7.104  1.5054 -0.8155 -0.4588
  134OSM   H15B14491   3.142   0.937   7.018  0.9095 -0.4613  0.3638
  134OSM   H15C14492   3.127   0.773   6.954 -0.9872 -1.2261  0.9071
  134OSM    C1414493   2.859   0.769   6.939  0.1546  0.5593  0.7666
  134OSM   H14A14494   2.761   0.809   6.915  0.2239  1.8986  2.4530
  134OSM   H14B14495   2.865   0.722   7.036 -1.8880 -1.2084  0.1007
  134OSM   H14C14496   2.874   0.690   6.867 -0.6129  0.8529  0.2709
  134OSM    C1314497   2.880   1.002   7.004  0.9180 -0.1894  0.1508
  134OSM   H13A14498   2.783   1.010   6.957  1.6693 -0.3720 -1.5054
  134OSM   H13B14499   2.930   1.098   6.999  0.1810  0.1554 -1.1098
  134OSM   H13C14500   2.858   0.975   7.106 -1.3654  1.6023  0.2057
  134OSM    C1214501   2.983   0.939   6.789 -0.4781 -0.1268  0.5183
  134OSM   H12A14502   3.042   0.868   6.732 -1.4357  1.2150 -2.3084
  134OSM   H12B14503   3.057   1.017   6.801 -0.5223 -0.2850  1.9393
  134OSM    C1114504   2.878   0.992   6.694  0.0455  0.2033 -0.2277
  134OSM   H11A14505   2.939   1.014   6.604  0.6055 -0.5976 -0.0503
  134OSM   H11B14506   2.838   1.081   6.748 -0.2969  0.2264 -0.5138
  134OSM      P14507   2.761   0.820   6.536  0.3172  0.3670  0.6198
  134OSM    O1314508   2.875   0.729   6.532  0.4212  0.3185  0.3055
  134OSM    O1414509   2.627   0.754   6.530  0.3470 -0.2634  0.1202
  134OSM    O1114510   2.779   0.924   6.416  0.8412  0.4312 -0.8980
  134OSM    O1214511   2.772   0.908   6.659 -0.0719 -0.1049 -0.3849
  134OSM    C1S14512   2.688   1.036   6.425  0.9711 -0.2443 -0.3589
  134OSM    H1S14513   2.723   1.114   6.496  0.4591 -0.1493 -0.2047
  134OSM    H1T14514   2.585   1.011   6.458  1.8521 -1.3622  1.7175
  134OSM     NF14515   2.625   1.248   6.284  0.4747  0.3657 -0.2769
  134OSM    HNF14516   2.537   1.258   6.238  0.2390 -0.3986 -0.0138
  134OSM    C2S14517   2.685   1.112   6.281  0.2334 -0.5051  0.1522
  134OSM    H2S14518   2.791   1.138   6.256  0.5207 -0.0832  1.6993
  134OSM    C3S14519   2.638   1.024   6.164 -0.0542 -0.0976  0.1660
  134OSM    H3S14520   2.527   1.023   6.177 -0.1732  4.1720  0.7634
  134OSM     O314521   2.684   0.889   6.166 -0.5315 -0.0232 -0.1764
  134OSM    HO314522   2.730   0.889   6.250  0.1995  2.4661 -0.5018
  134OSM    C4S14523   2.663   1.091   6.024  0.4075  0.0479  0.1310
  134OSM    H4S14524   2.599   1.176   5.997  0.1169 -0.5917 -1.2423
  134OSM    C5S14525   2.771   1.069   5.941  0.4851  0.1324 -0.9756
  134OSM    H5S14526   2.854   1.008   5.980  0.3384 -0.9681 -2.3011
  134OSM    C6S14527   2.797   1.142   5.813  0.2360  0.2437  0.4538
  134OSM    H6S14528   2.819   1.062   5.738  1.9308 -0.2158  1.3692
  134OSM    H6T14529   2.895   1.193   5.822  0.6395 -0.6542  1.3488
  134OSM    C7S14530   2.679   1.225   5.774 -0.2489  1.0590 -0.3427
  134OSM    H7S14531   2.663   1.304   5.851  1.4538  2.3708 -1.2736
  134OSM    H7T14532   2.594   1.155   5.760 -0.6493  0.9034  2.2828
  134OSM    C8S14533   2.704   1.285   5.634  0.1377  0.1057  0.4869
  134OSM    H8S14534   2.811   1.312   5.631 -0.1709  1.3424 -0.9730
  134OSM    H8T14535   2.647   1.381   5.625  3.3147  2.1322  0.4454
  134OSM    C9S14536   2.662   1.197   5.511 -0.1226 -0.8410  0.0665
  134OSM    H9S14537   2.557   1.161   5.518 -0.4195 -0.0337 -0.0751
  134OSM    H9T14538   2.718   1.102   5.514 -0.1344 -0.8126  2.1298
  134OSM   C10S14539   2.676   1.258   5.367 -0.5655 -0.1512  0.3197
  134OSM   H10S14540   2.784   1.253   5.341 -0.6765 -1.2787  0.0170
  134OSM   H10T14541   2.640   1.363   5.360 -2.8977 -1.0286 -2.4707
  134OSM   C11S14542   2.600   1.172   5.260 -0.0451 -0.6642 -0.4435
  134OSM   H11S14543   2.492   1.153   5.277  0.0486 -0.7956  0.0186
  134OSM   H11T14544   2.649   1.073   5.276 -1.4369 -1.4089 -0.6555
  134OSM   C12S14545   2.624   1.219   5.117 -0.3293 -0.2152 -0.6868
  134OSM   H12S14546   2.723   1.269   5.111 -1.6021  2.3287 -2.0066
  134OSM   H12T14547   2.544   1.293   5.100  0.2080  0.5412 -0.0174
  134OSM   C13S14548   2.616   1.105   5.013  0.3210 -0.0163 -0.6410
  134OSM   H13S14549   2.537   1.032   5.044 -0.3882  0.4898 -1.2177
  134OSM   H13T14550   2.709   1.047   5.000  0.2083  0.1316 -2.2925
  134OSM   C14S14551   2.593   1.166   4.869  0.0844  0.4486 -0.5624
  134OSM   H14S14552   2.679   1.237   4.868  1.7354 -1.4184  1.2138
  134OSM   H14T14553   2.496   1.220   4.872 -0.2124 -0.0654  2.0722
  134OSM   C15S14554   2.594   1.074   4.750  0.1401  0.1186  0.0637
  134OSM   H15S14555   2.500   1.016   4.741  1.2146 -1.3190 -3.2191
  134OSM   H15T14556   2.674   0.997   4.759 -0.8840 -0.9840 -0.0891
  134OSM   C16S14557   2.609   1.152   4.622  0.5839  0.6817 -0.3447
  134OSM   H16S14558   2.696   1.221   4.623  1.2075 -0.0684 -1.2960
  134OSM   H16T14559   2.517   1.214   4.619  0.3604  0.3125 -1.4246
  134OSM   C17S14560   2.620   1.060   4.504 -0.0983 -0.1256 -0.1763
  134OSM   H17S14561   2.536   0.989   4.484  0.9468 -1.3131 -0.5210
  134OSM   H17T14562   2.713   0.999   4.511  0.0538  0.2558  1.4931
  134OSM   C18S14563   2.638   1.143   4.373 -0.3742  0.4434 -0.2069
  134OSM   H18S14564   2.725   1.212   4.385 -1.3016  1.6663 -0.3597
  134OSM   H18T14565   2.557   1.214   4.347 -0.2265  1.1372  1.1699
  134OSM   H18U14566   2.662   1.076   4.288 -1.5212  0.3272 -0.4539
  134OSM    C1F14567   2.678   1.349   6.346 -0.3134 -0.1008 -0.4081
  134OSM     OF14568   2.773   1.333   6.420  0.6650 -0.2507  0.3660
  134OSM    C2F14569   2.613   1.486   6.336 -0.0377  0.0548  0.0587
  134OSM    H2F14570   2.614   1.531   6.438  1.7121  0.0130  0.0763
  134OSM    H2G14571   2.508   1.471   6.302  0.5398 -0.4217 -1.5999
  134OSM    C3F14572   2.686   1.586   6.240 -0.1985  0.2977  0.1698
  134OSM    H3F14573   2.796   1.585   6.253 -0.0898 -1.7174 -0.5038
  134OSM    H3G14574   2.651   1.689   6.264 -0.6607  0.7694 -2.3120
  134OSM    C4F14575   2.670   1.548   6.086  0.1962  0.0526 -0.4959
  134OSM    H4F14576   2.562   1.541   6.062 -1.0739  4.3490  2.8200
  134OSM    H4G14577   2.718   1.451   6.059 -1.5096 -0.6409 -1.1346
  134OSM    C5F14578   2.735   1.653   6.001 -0.4078  0.3223 -0.3243
  134OSM    H5F14579   2.836   1.679   6.038 -0.8463  2.6897 -0.6693
  134OSM    H5G14580   2.686   1.751   6.017 -1.2712 -0.3154  1.0853
  134OSM    C6F14581   2.736   1.612   5.859  0.4504  0.6291  0.6283
  134OSM    H6F14582   2.635   1.580   5.825  0.6777  0.2094  0.3382
  134OSM    H6G14583   2.787   1.514   5.842 -0.5183  0.2061  0.0592
  134OSM    C7F14584   2.780   1.720   5.761 -0.1464  0.7352 -0.2812
  134OSM    H7F14585   2.873   1.754   5.810 -1.5831  3.3183  0.8593
  134OSM    H7G14586   2.715   1.810   5.758 -2.0585 -0.5702  0.2216
  134OSM    C8F14587   2.807   1.650   5.622 -0.0091  0.3565 -0.5384
  134OSM    H8F14588   2.710   1.619   5.580 -0.6115  1.2233  0.1743
  134OSM    H8G14589   2.882   1.568   5.633  0.1499  0.5541 -0.1106
  134OSM    C9F14590   2.868   1.761   5.540  0.1449 -0.2143  0.3766
  134OSM    H9F14591   2.928   1.835   5.595  0.1217  0.1132 -0.0290
  134OSM   C10F14592   2.842   1.788   5.409  0.1157  0.4193  0.4514
  134OSM   H10F14593   2.888   1.879   5.368 -0.4006  1.3882  1.9123
  134OSM   C11F14594   2.764   1.706   5.304  0.2725  0.0804 -0.4353
  134OSM   H11F14595   2.723   1.773   5.226 -1.1050 -1.1325 -0.8024
  134OSM   H11G14596   2.670   1.658   5.338 -0.1679  0.2034 -1.4364
  134OSM   C12F14597   2.852   1.605   5.228  0.5299  0.3589  0.0785
  134OSM   H12F14598   2.883   1.527   5.301 -2.1972  1.1517  2.2474
  134OSM   H12G14599   2.941   1.654   5.184  0.4523 -0.5529 -1.1754
  134OSM   C13F14600   2.768   1.540   5.113 -0.2517 -1.0004 -0.0540
  134OSM   H13F14601   2.680   1.486   5.156 -0.9138 -0.1342 -0.2824
  134OSM   H13G14602   2.832   1.462   5.066 -0.4308 -0.4086 -1.3198
  134OSM   C14F14603   2.728   1.629   4.995 -1.1212  0.2144 -0.7795
  134OSM   H14F14604   2.815   1.680   4.950 -1.4622  2.4049  0.8727
  134OSM   H14G14605   2.661   1.709   5.032 -1.1691 -0.1784  0.0232
  134OSM   C15F14606   2.660   1.543   4.888 -0.1162  0.0950 -0.0256
  134OSM   H15F14607   2.566   1.494   4.923  0.3530 -0.0896  1.0010
  134OSM   H15G14608   2.736   1.471   4.851  0.0057  0.3596 -0.2955
  134OSM   C16F14609   2.628   1.622   4.761  0.1821 -0.1336  0.1464
  134OSM   H16F14610   2.723   1.657   4.714 -0.3786 -1.1772 -1.8535
  134OSM   H16G14611   2.565   1.711   4.785 -0.1952 -0.4014  0.1581
  134OSM   C17F14612   2.558   1.534   4.658  0.4548  0.3785  0.8640
  134OSM   H17F14613   2.460   1.492   4.689 -0.2647 -1.9931 -3.7893
  134OSM   H17G14614   2.619   1.442   4.649 -0.1638 -0.0588  1.0421
  134OSM   C18F14615   2.545   1.595   4.520 -0.3289  0.1429  0.0236
  134OSM   H18F14616   2.649   1.617   4.488  0.4861 -2.1969  0.8765
  134OSM   H18G14617   2.482   1.687   4.522  1.0118  1.0801  0.4137
  134OSM   H18H14618   2.502   1.527   4.444  3.1413 -0.0601 -1.9551
  135OSM      N14619   4.697   2.041   7.143  0.6372  0.6520 -0.6306
  135OSM    C1514620   4.780   1.981   7.246 -0.3119 -0.0607 -0.6716
  135OSM   H15A14621   4.730   1.981   7.342 -0.3593 -1.4315 -0.6781
  135OSM   H15B14622   4.872   2.039   7.255 -0.0602 -0.2710 -1.7731
  135OSM   H15C14623   4.804   1.879   7.222 -2.1508 -0.3500 -1.3646
  135OSM    C1414624   4.564   1.976   7.151  0.5192  0.4772  0.0685
  135OSM   H14A14625   4.501   2.013   7.072 -1.7679 -3.0766 -0.0202
  135OSM   H14B14626   4.508   1.995   7.242 -0.1131  1.9847 -0.6048
  135OSM   H14C14627   4.556   1.870   7.130 -4.4858  0.0665  2.4273
  135OSM    C1314628   4.680   2.185   7.163  0.5483  0.1189 -0.5390
  135OSM   H13A14629   4.613   2.238   7.097  1.0487  0.7250 -0.5635
  135OSM   H13B14630   4.779   2.227   7.158  2.1930 -3.2247  0.6758
  135OSM   H13C14631   4.646   2.209   7.263  0.2933  2.0316 -1.0518
  135OSM    C1214632   4.760   2.022   7.006  0.4001 -1.0582  0.2757
  135OSM   H12A14633   4.853   2.077   7.002  0.6408 -1.5487 -1.5337
  135OSM   H12B14634   4.693   2.050   6.926  1.9710 -2.6576 -1.7085
  135OSM    C1114635   4.804   1.880   6.964 -0.0164 -0.5836  0.0305
  135OSM   H11A14636   4.825   1.880   6.855 -5.0344  3.1229 -1.3172
  135OSM   H11B14637   4.730   1.801   6.988 -1.0229  0.4852  0.5711
  135OSM      P14638   5.065   1.914   7.002  0.2165 -0.2378 -0.0725
  135OSM    O1314639   5.070   2.060   7.023 -0.0131 -0.2165  0.2717
  135OSM    O1414640   5.159   1.832   7.073 -0.0509 -0.1848 -0.1489
  135OSM    O1114641   5.081   1.880   6.853  0.5886 -0.0493  0.2920
  135OSM    O1214642   4.918   1.848   7.035 -0.0326  0.4611  0.0534
  135OSM    C1S14643   5.061   1.739   6.819  0.4403  0.6410 -0.3923
  135OSM    H1S14644   4.964   1.700   6.855  0.0148  1.1586 -0.9561
  135OSM    H1T14645   5.147   1.681   6.859  0.0089  1.6694  2.2137
  135OSM     NF14646   4.997   1.598   6.629 -0.7000  0.3479  0.2425
  135OSM    HNF14647   5.052   1.517   6.613 -3.1951 -1.3126 -0.6294
  135OSM    C2S14648   5.063   1.719   6.664  0.5011  0.7479 -0.2963
  135OSM    H2S14649   4.995   1.797   6.623 -1.6939 -0.7911  0.2237
  135OSM    C3S14650   5.209   1.726   6.622  0.0246 -0.5128  0.1774
  135OSM    H3S14651   5.268   1.637   6.654  1.8658  0.8416  0.7688
  135OSM     O314652   5.286   1.831   6.689 -0.5428  0.2632  0.6374
  135OSM    HO314653   5.230   1.867   6.758  0.0912  0.0695  1.2601
  135OSM    C4S14654   5.237   1.725   6.470  1.1504  0.5019 -0.3557
  135OSM    H4S14655   5.249   1.622   6.432 -2.5220 -0.4779  0.6910
  135OSM    C5S14656   5.259   1.836   6.384  0.6271 -0.2315  0.0497
  135OSM    H5S14657   5.259   1.939   6.425 -2.7474 -0.9891  2.3907
  135OSM    C6S14658   5.289   1.816   6.236 -0.4321 -0.1370 -0.2182
  135OSM    H6S14659   5.385   1.865   6.210  2.3803 -4.5457  0.8663
  135OSM    H6T14660   5.218   1.876   6.176  1.4465 -0.8954 -3.4246
  135OSM    C7S14661   5.277   1.674   6.184 -0.2229 -0.4671 -0.1859
  135OSM    H7S14662   5.169   1.654   6.201 -0.4363  2.7526  3.8490
  135OSM    H7T14663   5.341   1.605   6.243 -0.6287  0.0553  0.8929
  135OSM    C8S14664   5.310   1.644   6.041 -0.2030 -0.3030  0.2207
  135OSM    H8S14665   5.294   1.535   6.023 -1.6102 -0.2053  0.7312
  135OSM    H8T14666   5.418   1.665   6.031 -0.6550  0.9571 -5.0306
  135OSM    C9S14667   5.223   1.710   5.938 -0.1676  0.2053 -0.5785
  135OSM    H9S14668   5.208   1.818   5.957 -0.6156  0.0436  0.0245
  135OSM    H9T14669   5.130   1.660   5.973  1.2908 -1.2544  1.4785
  135OSM   C10S14670   5.252   1.677   5.794  0.7654  0.1247 -0.8519
  135OSM   H10S14671   5.303   1.579   5.781 -0.1793 -0.5974  0.6953
  135OSM   H10T14672   5.308   1.757   5.741 -1.0665  2.1861  0.1960
  135OSM   C11S14673   5.123   1.642   5.721  1.0605  0.1562  0.1716
  135OSM   H11S14674   5.047   1.723   5.725  0.5729 -0.1050 -2.2011
  135OSM   H11T14675   5.083   1.553   5.774 -1.6259  1.5820  0.6828
  135OSM   C12S14676   5.151   1.594   5.575 -0.0354  0.7178 -0.2551
  135OSM   H12S14677   5.239   1.649   5.534  0.5851  0.3692  0.5799
  135OSM   H12T14678   5.060   1.617   5.516 -0.4106  1.0343  0.4292
  135OSM   C13S14679   5.186   1.440   5.566  0.0131  0.9125  0.1123
  135OSM   H13S14680   5.095   1.393   5.610  0.5038 -0.3410 -0.1916
  135OSM   H13T14681   5.274   1.418   5.630 -0.7610  1.0889  1.2743
  135OSM   C14S14682   5.192   1.390   5.420  0.5489  0.1567  0.0184
  135OSM   H14S14683   5.270   1.435   5.356 -0.7632  2.3931 -0.1345
  135OSM   H14T14684   5.099   1.430   5.374  0.6028  1.4191  0.9361
  135OSM   C15S14685   5.187   1.240   5.401 -0.0739  0.1694  0.7653
  135OSM   H15S14686   5.088   1.202   5.435 -0.1776 -0.4477 -0.1900
  135OSM   H15T14687   5.270   1.191   5.456  1.0846  0.3720 -0.7369
  135OSM   C16S14688   5.209   1.192   5.253  0.5946  0.0373  0.2462
  135OSM   H16S14689   5.311   1.228   5.225  0.2228  2.0418  1.2601
  135OSM   H16T14690   5.144   1.246   5.181 -0.9282  0.4240  1.8435
  135OSM   C17S14691   5.202   1.037   5.222  0.2588 -0.4670  0.2625
  135OSM   H17S14692   5.266   0.974   5.287  1.5539 -1.0245 -1.4703
  135OSM   H17T14693   5.233   1.042   5.116 -0.7498  0.0957 -0.0251
  135OSM   C18S14694   5.067   0.982   5.226  0.4927  0.5710  0.0587
  135OSM   H18S14695   4.986   1.048   5.188 -0.6785 -0.7397  0.1557
  135OSM   H18T14696   5.040   0.949   5.329  3.7778 -1.8537  0.2920
  135OSM   H18U14697   5.060   0.888   5.167 -1.6063 -0.4276  1.7417
  135OSM    C1F14698   4.863   1.588   6.624 -0.1560  0.6184  0.1959
  135OSM     OF14699   4.792   1.670   6.683  0.0413 -0.0342 -0.2067
  135OSM    C2F14700   4.813   1.475   6.534  0.6296  0.3176  0.5609
  135OSM    H2F14701   4.777   1.389   6.593 -0.3379  1.3403  1.4941
  135OSM    H2G14702   4.903   1.438   6.479  2.0574  1.2135  2.1930
  135OSM    C3F14703   4.707   1.517   6.434 -0.0012  0.2900 -0.3326
  135OSM    H3F14704   4.607   1.530   6.482 -0.4537 -0.5521 -1.0199
  135OSM    H3G14705   4.698   1.433   6.362  0.3248 -0.9030  0.9628
  135OSM    C4F14706   4.747   1.647   6.356 -0.2124  0.0688  0.3717
  135OSM    H4F14707   4.654   1.674   6.301 -0.1946 -2.1571 -0.8509
  135OSM    H4G14708   4.768   1.731   6.426 -0.3295 -0.5158  1.1174
  135OSM    C5F14709   4.852   1.645   6.245  0.0573  0.3111 -0.0256
  135OSM    H5F14710   4.839   1.548   6.193 -0.3005  1.5708 -2.4145
  135OSM    H5G14711   4.950   1.650   6.298 -0.5129  0.5902  1.0347
  135OSM    C6F14712   4.844   1.753   6.138 -0.9292 -0.7233 -0.2103
  135OSM    H6F14713   4.744   1.781   6.100 -0.2225  2.2822 -0.1076
  135OSM    H6G14714   4.908   1.716   6.054  0.5911  0.0261  0.5863
  135OSM    C7F14715   4.903   1.886   6.193  0.7012  0.3916 -0.7585
  135OSM    H7F14716   4.997   1.867   6.249  0.9349 -1.2042 -1.6356
  135OSM    H7G14717   4.825   1.933   6.256 -0.9627 -2.9018 -0.1625
  135OSM    C8F14718   4.947   1.984   6.083 -0.6028 -0.7450  0.1475
  135OSM    H8F14719   5.015   1.924   6.020  0.5430  1.4299 -0.7711
  135OSM    H8G14720   5.003   2.064   6.136 -0.7534  0.2007 -1.0678
  135OSM    C9F14721   4.827   2.050   6.019  0.0247  0.1581  0.2792
  135OSM    H9F14722   4.772   2.112   6.091 -0.4267 -0.2279  0.2666
  135OSM   C10F14723   4.788   2.048   5.895 -0.0498  0.1459  0.6203
  135OSM   H10F14724   4.694   2.099   5.870  1.0922  1.3457 -1.6308
  135OSM   C11F14725   4.841   1.958   5.782  0.5561  0.2109 -0.1743
  135OSM   H11F14726   4.759   1.910   5.724  0.3453  2.0401 -1.4781
  135OSM   H11G14727   4.895   1.872   5.826  2.1710  1.4270  0.3487
  135OSM   C12F14728   4.931   2.043   5.685 -0.2043  0.3803  0.0588
  135OSM   H12F14729   5.016   2.077   5.749 -1.5430  2.3198  0.9212
  135OSM   H12G14730   4.877   2.128   5.639 -2.1421 -1.2401 -0.7822
  135OSM   C13F14731   4.995   1.967   5.572  0.2622  0.1462  0.2986
  135OSM   H13F14732   5.039   1.874   5.614  2.3623 -0.0920 -2.1234
  135OSM   H13G14733   5.077   2.034   5.537  0.8166  0.8620  2.8102
  135OSM   C14F14734   4.886   1.924   5.466 -0.9476 -0.0376 -1.3117
  135OSM   H14F14735   4.840   2.016   5.424 -1.7821  0.4351  0.5021
  135OSM   H14G14736   4.810   1.872   5.529 -0.5922  0.4019 -0.4951
  135OSM   C15F14737   4.938   1.831   5.358  0.0828  0.1897 -0.6832
  135OSM   H15F14738   4.862   1.814   5.278  1.1405  1.8385 -2.1068
  135OSM   H15G14739   4.951   1.728   5.397  1.7973  0.9454  0.8682
  135OSM   C16F14740   5.070   1.879   5.301  0.2335  0.3066  0.9468
  135OSM   H16F14741   5.152   1.894   5.375  1.9934  1.6072 -1.1419
  135OSM   H16G14742   5.065   1.979   5.253  3.3864  0.8054  1.4005
  135OSM   C17F14743   5.132   1.797   5.192 -0.1876  0.4361 -0.9681
  135OSM   H17F14744   5.131   1.692   5.227  1.2215  0.2847 -1.3427
  135OSM   H17G14745   5.237   1.827   5.172  0.4428 -0.4333  0.8072
  135OSM   C18F14746   5.063   1.800   5.056  0.7784 -0.2608 -0.0101
  135OSM   H18F14747   5.131   1.774   4.973 -2.1965 -0.4766 -2.5785
  135OSM   H18G14748   5.027   1.905   5.046 -0.1883 -0.4907  0.8007
  135OSM   H18H14749   4.977   1.730   5.047 -1.4038  2.0762  1.0617
  136OSM      N14750   6.192   3.297   6.599  0.0382 -0.0676 -0.3823
  136OSM    C1514751   6.171   3.156   6.655  0.2235  0.3817  0.5516
  136OSM   H15A14752   6.076   3.139   6.704 -0.6669 -0.3008 -1.3136
  136OSM   H15B14753   6.248   3.115   6.719  0.6735 -0.1439 -0.3085
  136OSM   H15C14754   6.171   3.083   6.576  2.1199 -0.0178  0.8619
  136OSM    C1414755   6.213   3.393   6.708 -0.0010  0.0443 -0.2908
  136OSM   H14A14756   6.217   3.496   6.676  3.1377 -0.1175 -0.7556
  136OSM   H14B14757   6.307   3.371   6.757  0.8779  1.2915 -1.3595
  136OSM   H14C14758   6.132   3.380   6.778 -0.0903  0.0428 -0.3936
  136OSM    C1314759   6.318   3.294   6.524 -0.6885 -0.3241  0.4073
  136OSM   H13A14760   6.311   3.220   6.445 -1.5149  0.6651 -0.4723
  136OSM   H13B14761   6.404   3.266   6.584  0.7557  0.8309 -1.0409
  136OSM   H13C14762   6.339   3.392   6.484  1.1792 -0.3458  1.2277
  136OSM    C1214763   6.072   3.332   6.512 -0.4837 -0.8419 -0.1669
  136OSM   H12A14764   5.983   3.311   6.569 -0.4564  0.0379  0.2229
  136OSM   H12B14765   6.069   3.276   6.420  0.2972 -0.0236 -0.7156
  136OSM    C1114766   6.052   3.484   6.463 -0.6633  0.6679  0.5793
  136OSM   H11A14767   5.992   3.496   6.370  0.1156 -1.3980 -0.2622
  136OSM   H11B14768   6.153   3.514   6.427  0.4865 -0.6465  2.4625
  136OSM      P14769   5.875   3.574   6.626  0.0193 -0.0415 -0.5108
  136OSM    O1314770   5.844   3.433   6.672  0.2292 -0.6361  0.0426
  136OSM    O1414771   5.850   3.693   6.711  0.5510 -0.2400 -0.5815
  136OSM    O1114772   5.791   3.591   6.489  0.0314  0.2890 -0.2132
  136OSM    O1214773   6.019   3.582   6.568 -0.2604  0.3112 -0.5585
  136OSM    C1S14774   5.825   3.705   6.403  0.3147  0.3376 -0.2221
  136OSM    H1S14775   5.932   3.735   6.396  0.7852 -0.8553  1.3677
  136OSM    H1T14776   5.771   3.796   6.439 -0.0810 -0.1960  0.5723
  136OSM     NF14777   5.831   3.771   6.169  0.1091  0.9663  0.1164
  136OSM    HNF14778   5.782   3.853   6.141  0.5629  1.2465  0.1370
  136OSM    C2S14779   5.769   3.681   6.266  0.0558 -0.6426 -0.3163
  136OSM    H2S14780   5.800   3.577   6.243  2.0461 -0.1509 -0.0993
  136OSM    C3S14781   5.618   3.677   6.283  0.1065  0.2065  0.3561
  136OSM    H3S14782   5.590   3.784   6.290 -0.6183  0.3960 -3.2770
  136OSM     O314783   5.556   3.617   6.395  0.4694 -0.4007 -0.2042
  136OSM    HO314784   5.634   3.602   6.448  0.8810  2.5552  0.2064
  136OSM    C4S14785   5.544   3.631   6.158 -0.1336 -0.0976  0.5416
  136OSM    H4S14786   5.581   3.538   6.112 -2.0799 -1.0751  0.8504
  136OSM    C5S14787   5.430   3.684   6.113  0.2558 -0.5389 -0.3020
  136OSM    H5S14788   5.383   3.756   6.182 -0.6749 -0.8451 -0.6015
  136OSM    C6S14789   5.348   3.653   5.987  0.6039 -0.2362  0.2714
  136OSM    H6S14790   5.241   3.633   6.008 -0.2287  1.1901 -2.1419
  136OSM    H6T14791   5.383   3.555   5.948  0.4278 -0.2276  0.0893
  136OSM    C7S14792   5.358   3.757   5.873  0.0562 -0.4206  0.5516
  136OSM    H7S14793   5.301   3.849   5.898  1.0620  0.4326 -0.1941
  136OSM    H7T14794   5.303   3.715   5.786  0.7256 -2.4701  1.0553
  136OSM    C8S14795   5.505   3.796   5.840  0.5648 -0.0541  0.1820
  136OSM    H8S14796   5.511   3.802   5.729 -0.3931 -0.7189  0.0809
  136OSM    H8T14797   5.561   3.703   5.864  0.7484  0.3666  1.4796
  136OSM    C9S14798   5.549   3.930   5.898 -0.1418  0.0775  0.4539
  136OSM    H9S14799   5.525   3.929   6.006 -0.2824  0.7493  0.4367
  136OSM    H9T14800   5.479   4.010   5.865 -0.1390 -0.2142 -0.2813
  136OSM   C10S14801   5.698   3.967   5.870 -1.1204  0.2255  0.0166
  136OSM   H10S14802   5.772   3.890   5.901 -1.4734  0.5255  1.7001
  136OSM   H10T14803   5.725   4.058   5.928  0.8659 -0.3859  0.1229
  136OSM   C11S14804   5.727   4.002   5.723 -0.1940 -0.2712  0.6138
  136OSM   H11S14805   5.733   4.112   5.707  1.4342 -0.5813 -1.2925
  136OSM   H11T14806   5.639   3.977   5.661 -0.2101 -1.2422  0.9996
  136OSM   C12S14807   5.841   3.912   5.668 -0.1762  0.2198  0.6793
  136OSM   H12S14808   5.806   3.810   5.694 -0.4788  0.3239  0.6832
  136OSM   H12T14809   5.930   3.935   5.730 -0.7602  0.7764  1.3313
  136OSM   C13S14810   5.890   3.920   5.523  0.4337  0.0707 -0.4817
  136OSM   H13S14811   5.997   3.890   5.517 -0.3640 -3.2432  0.1460
  136OSM   H13T14812   5.891   4.028   5.498  1.3293  0.1448 -0.1864
  136OSM   C14S14813   5.813   3.827   5.430 -0.0009 -0.3082 -0.5563
  136OSM   H14S14814   5.722   3.875   5.388  0.3820  1.0482  0.1179
  136OSM   H14T14815   5.771   3.736   5.478  0.3849 -0.2816 -0.1658
  136OSM   C15S14816   5.900   3.769   5.324 -0.5142  0.2406  0.8139
  136OSM   H15S14817   5.849   3.687   5.268  0.0036 -0.5658  1.4969
  136OSM   H15T14818   5.987   3.718   5.370  0.0134 -0.3971 -0.8056
  136OSM   C16S14819   5.975   3.862   5.221  0.0354 -0.3862 -0.1421
  136OSM   H16S14820   6.052   3.914   5.282  2.5628 -0.7814 -2.7271
  136OSM   H16T14821   5.900   3.932   5.179 -0.1926 -0.6943 -0.2499
  136OSM   C17S14822   6.043   3.775   5.116 -0.2151  0.1636 -0.3250
  136OSM   H17S14823   5.966   3.717   5.060 -0.3500  0.7412 -0.7459
  136OSM   H17T14824   6.104   3.695   5.163 -0.9596 -1.4227 -1.9116
  136OSM   C18S14825   6.132   3.843   5.016  0.5968 -0.5668  0.5474
  136OSM   H18S14826   6.075   3.927   4.971 -1.5938 -2.2651  0.0141
  136OSM   H18T14827   6.154   3.775   4.931  3.0089 -0.3589  0.9476
  136OSM   H18U14828   6.228   3.888   5.050  0.8112  0.9056 -1.8156
  136OSM    C1F14829   5.958   3.775   6.147  0.4011  0.1033 -0.4739
  136OSM     OF14830   6.034   3.681   6.163  0.5442 -0.3187 -0.4171
  136OSM    C2F14831   6.022   3.897   6.100  0.2747  0.0275  1.2174
  136OSM    H2F14832   6.007   3.970   6.183  3.4272  0.9896  1.0431
  136OSM    H2G14833   5.962   3.930   6.012  1.9479 -0.0811  0.0062
  136OSM    C3F14834   6.164   3.895   6.036 -0.5576  0.5547  0.0175
  136OSM    H3F14835   6.170   3.814   5.960 -1.7075  0.2248  0.2602
  136OSM    H3G14836   6.242   3.873   6.112  2.2483 -0.2058 -2.8666
  136OSM    C4F14837   6.193   4.028   5.956  0.1189 -0.5224 -0.0142
  136OSM    H4F14838   6.197   4.107   6.035 -2.3636 -0.9377  0.5856
  136OSM    H4G14839   6.109   4.059   5.890  0.1261  1.6395  0.8831
  136OSM    C5F14840   6.328   4.032   5.879 -0.5282  0.7499  0.7472
  136OSM    H5F14841   6.416   3.993   5.935 -0.3510 -1.1719 -0.7347
  136OSM    H5G14842   6.359   4.133   5.845  1.2868 -0.0815 -0.1942
  136OSM    C6F14843   6.324   3.950   5.741  0.0525  0.2144 -0.7362
  136OSM    H6F14844   6.260   3.861   5.761 -0.2032  0.2739 -1.2678
  136OSM    H6G14845   6.428   3.911   5.733 -0.5648 -1.7987  0.2916
  136OSM    C7F14846   6.267   4.030   5.626  0.5568 -0.7843 -0.1532
  136OSM    H7F14847   6.326   4.120   5.599  0.5495 -1.5777 -3.1296
  136OSM    H7G14848   6.161   4.058   5.646  0.7111  0.8786 -1.3849
  136OSM    C8F14849   6.265   3.942   5.501 -0.8539  0.2054  0.6765
  136OSM    H8F14850   6.203   3.986   5.420  0.6324 -0.0408 -0.6279
  136OSM    H8G14851   6.223   3.845   5.536 -0.8774  0.3373  1.0243
  136OSM    C9F14852   6.401   3.910   5.441  0.2524 -0.0124 -0.7202
  136OSM    H9F14853   6.442   3.810   5.457  0.1296 -0.1671 -1.3544
  136OSM   C10F14854   6.494   3.995   5.390 -0.0536  0.2416  0.1608
  136OSM   H10F14855   6.586   3.950   5.351 -1.3663 -3.0478  0.4911
  136OSM   C11F14856   6.484   4.151   5.372 -0.5107  0.7526 -0.8640
  136OSM   H11F14857   6.557   4.194   5.445 -0.4866 -0.8446  0.1195
  136OSM   H11G14858   6.382   4.187   5.398 -0.5490  1.1488 -1.5463
  136OSM   C12F14859   6.527   4.199   5.239  0.1543  0.9234  0.1575
  136OSM   H12F14860   6.630   4.165   5.216  0.8153  1.9591  1.4704
  136OSM   H12G14861   6.536   4.309   5.248  0.2749  1.0366 -1.2120
  136OSM   C13F14862   6.428   4.163   5.128 -0.1327  0.8768 -0.3234
  136OSM   H13F14863   6.324   4.198   5.151 -0.5361 -0.5916  0.1650
  136OSM   H13G14864   6.410   4.054   5.134 -0.6993  0.9120 -1.1392
  136OSM   C14F14865   6.476   4.203   4.995 -0.0688  0.5048 -0.7295
  136OSM   H14F14866   6.569   4.146   4.974 -1.0189 -1.7771  0.8171
  136OSM   H14G14867   6.488   4.313   5.004 -0.7232  0.4985  0.3695
  136OSM   C15F14868   6.383   4.174   4.869  0.2354 -0.8628 -0.2360
  136OSM   H15F14869   6.275   4.184   4.892  0.3105 -0.3454 -0.1013
  136OSM   H15G14870   6.403   4.069   4.837 -1.1673 -0.6863 -1.8451
  136OSM   C16F14871   6.417   4.257   4.744 -0.5473  0.1258 -0.3024
  136OSM   H16F14872   6.389   4.362   4.765  0.6796  0.5744 -0.8283
  136OSM   H16G14873   6.358   4.225   4.655 -0.3430 -0.7009 -0.1467
  136OSM   C17F14874   6.561   4.236   4.693 -0.0251 -0.3841 -0.0966
  136OSM   H17F14875   6.586   4.127   4.688 -0.7106 -0.6531  1.6976
  136OSM   H17G14876   6.637   4.289   4.754  1.5703  1.5204 -3.4436
  136OSM   C18F14877   6.584   4.305   4.555  0.7803 -0.1085  0.5456
  136OSM   H18F14878   6.524   4.247   4.481  1.6969  0.8709 -1.0264
  136OSM   H18G14879   6.690   4.296   4.522  0.5494  1.6174 -0.8208
  136OSM   H18H14880   6.550   4.411   4.555 -0.5242 -0.5028  0.5489
  137OSM      N14881   1.718   1.620   6.576 -0.5576  0.3273  0.1656
  137OSM    C1514882   1.783   1.660   6.716  0.3339  0.1767 -0.2735
  137OSM   H15A14883   1.874   1.604   6.730  0.8736  1.5240  2.1089
  137OSM   H15B14884   1.708   1.641   6.791 -0.6004  0.7685 -1.0313
  137OSM   H15C14885   1.785   1.767   6.729 -1.4797  0.1689  0.3829
  137OSM    C1414886   1.815   1.628   6.463  0.0065 -0.4671 -0.2800
  137OSM   H14A14887   1.902   1.565   6.471 -0.6250 -1.4504 -0.8971
  137OSM   H14B14888   1.857   1.727   6.454 -1.1306 -0.1339 -2.7493
  137OSM   H14C14889   1.771   1.591   6.372 -0.6768 -1.7622  0.5503
  137OSM    C1314890   1.670   1.478   6.601 -0.3527 -0.0361  0.7176
  137OSM   H13A14891   1.748   1.403   6.593  0.0981  0.5731 -1.1946
  137OSM   H13B14892   1.601   1.450   6.523 -0.8779 -1.1625  1.5607
  137OSM   H13C14893   1.614   1.474   6.693 -0.8589 -1.2195  0.3727
  137OSM    C1214894   1.607   1.719   6.545  0.0967 -0.4387 -0.4105
  137OSM   H12A14895   1.532   1.722   6.623  0.4950  1.4454 -0.0514
  137OSM   H12B14896   1.550   1.690   6.458  0.2524 -1.0525 -0.3084
  137OSM    C1114897   1.642   1.870   6.522 -0.4432  0.0145  0.5014
  137OSM   H11A14898   1.539   1.909   6.505 -1.2292 -2.3105 -0.4224
  137OSM   H11B14899   1.695   1.882   6.425 -0.1549  1.8609  0.8471
  137OSM      P14900   1.726   2.083   6.650 -0.3935 -0.2326 -0.0973
  137OSM    O1314901   1.589   2.135   6.672  0.1610  0.1633  0.3453
  137OSM    O1414902   1.830   2.116   6.750 -0.1890 -0.0849  0.2062
  137OSM    O1114903   1.797   2.131   6.510  0.0325 -0.9293  0.0723
  137OSM    O1214904   1.708   1.925   6.635 -1.0742  0.2107 -0.1013
  137OSM    C1S14905   1.900   2.056   6.454 -0.2121  0.3243 -0.5562
  137OSM    H1S14906   1.882   1.949   6.474  1.7202  0.0972  0.1571
  137OSM    H1T14907   1.988   2.085   6.515 -0.7909 -2.9153  2.1143
  137OSM     NF14908   2.063   2.010   6.277  0.0875  0.5679  0.7265
  137OSM    HNF14909   2.153   2.046   6.299  1.0526  0.0429 -1.9769
  137OSM    C2S14910   1.940   2.082   6.303 -0.3229  0.0970 -0.0503
  137OSM    H2S14911   1.861   2.049   6.231  0.5345  0.5886 -1.2502
  137OSM    C3S14912   1.964   2.230   6.273 -0.2319 -0.2912 -0.2948
  137OSM    H3S14913   2.060   2.257   6.323  1.1768 -2.1871 -1.7812
  137OSM     O314914   1.862   2.317   6.314  0.4094  0.2808 -0.6320
  137OSM    HO314915   1.824   2.262   6.383  1.6772 -0.0696 -0.1775
  137OSM    C4S14916   1.976   2.245   6.126 -0.1194 -0.4148 -0.3667
  137OSM    H4S14917   2.079   2.253   6.090  0.5208 -0.5740  1.3562
  137OSM    C5S14918   1.881   2.235   6.022 -0.0933  0.2667  0.0535
  137OSM    H5S14919   1.774   2.216   6.043  0.3392 -2.0584  0.4098
  137OSM    C6S14920   1.917   2.259   5.877  0.4041  0.2757  0.5647
  137OSM    H6S14921   2.022   2.295   5.875  1.1945 -1.8102  1.4578
  137OSM    H6T14922   1.855   2.332   5.820  1.6052 -1.0075 -2.6304
  137OSM    C7S14923   1.926   2.134   5.795 -0.0558  0.5306  0.4752
  137OSM    H7S14924   1.830   2.079   5.806 -0.5865  1.5103  0.8931
  137OSM    H7T14925   2.009   2.085   5.850 -0.1391  1.6380  1.6332
  137OSM    C8S14926   1.973   2.149   5.642  0.3093  0.7754 -0.6699
  137OSM    H8S14927   1.980   2.043   5.610 -2.1097  0.4278 -0.2075
  137OSM    H8T14928   2.073   2.198   5.645  0.8376 -0.2004 -1.3527
  137OSM    C9S14929   1.863   2.222   5.564 -0.3046 -0.5021  0.3762
  137OSM    H9S14930   1.847   2.324   5.603 -3.9409  0.0253 -1.9745
  137OSM    H9T14931   1.757   2.188   5.571 -0.4885 -0.7653 -2.4519
  137OSM   C10S14932   1.895   2.230   5.415 -0.3330 -0.2328  0.3746
  137OSM   H10S14933   1.919   2.130   5.373  1.0753 -0.2573  1.2040
  137OSM   H10T14934   1.983   2.296   5.401  0.2337 -1.0938 -0.2380
  137OSM   C11S14935   1.780   2.297   5.335 -0.2629  0.2257  0.1045
  137OSM   H11S14936   1.762   2.385   5.401 -0.9865 -0.1149  0.3759
  137OSM   H11T14937   1.690   2.232   5.331 -0.0811 -0.0604  0.5516
  137OSM   C12S14938   1.826   2.347   5.200  0.1935  1.3402  0.4619
  137OSM   H12S14939   1.888   2.272   5.147 -0.3349 -0.7964  2.7140
  137OSM   H12T14940   1.884   2.441   5.213  0.0212  1.3367  1.2904
  137OSM   C13S14941   1.711   2.385   5.111  0.5585 -0.3879 -0.1640
  137OSM   H13S14942   1.670   2.471   5.169 -0.1649 -0.8993  0.1046
  137OSM   H13T14943   1.638   2.302   5.122  0.4623 -0.0880  1.9201
  137OSM   C14S14944   1.746   2.411   4.964  0.7567 -0.0040  0.1144
  137OSM   H14S14945   1.770   2.308   4.929 -1.1056 -1.0341  1.6469
  137OSM   H14T14946   1.844   2.464   4.958  0.4846  0.4521 -0.4099
  137OSM   C15S14947   1.647   2.495   4.885  0.7925 -0.6824 -0.0840
  137OSM   H15S14948   1.697   2.510   4.787  0.1846 -0.9641 -0.4414
  137OSM   H15T14949   1.642   2.590   4.941 -2.4813 -0.6680 -0.2224
  137OSM   C16S14950   1.508   2.444   4.855  0.8618 -0.4013  0.2729
  137OSM   H16S14951   1.459   2.508   4.778 -1.8044  0.6392  2.6607
  137OSM   H16T14952   1.447   2.455   4.947 -0.4201  2.6121 -0.8179
  137OSM   C17S14953   1.506   2.306   4.784 -0.4749 -0.3849 -0.7368
  137OSM   H17S14954   1.399   2.274   4.782 -0.1515 -1.5418 -0.4486
  137OSM   H17T14955   1.559   2.234   4.850 -1.1464 -0.2966 -0.0857
  137OSM   C18S14956   1.569   2.305   4.641  0.0719  0.4462 -0.6558
  137OSM   H18S14957   1.675   2.339   4.645 -0.5246  2.4782 -1.1166
  137OSM   H18T14958   1.508   2.380   4.587 -2.1374  0.4916  1.7065
  137OSM   H18U14959   1.554   2.208   4.590 -2.1884 -0.3033  1.2569
  137OSM    C1F14960   2.064   1.879   6.239 -0.7626 -0.6660 -0.7515
  137OSM     OF14961   1.965   1.813   6.208 -0.1773  0.2311 -0.5462
  137OSM    C2F14962   2.203   1.823   6.256  0.0761 -1.2496  0.5687
  137OSM    H2F14963   2.213   1.738   6.327  2.0862 -2.0781 -0.6234
  137OSM    H2G14964   2.270   1.903   6.293  1.9976 -2.1713 -0.7583
  137OSM    C3F14965   2.270   1.763   6.126 -0.4425 -0.8636  0.5862
  137OSM    H3F14966   2.214   1.675   6.087 -1.7282 -0.7623  2.1073
  137OSM    H3G14967   2.376   1.737   6.148  0.2029  1.2554  0.2400
  137OSM    C4F14968   2.265   1.878   6.016  0.2381 -0.1870  0.0619
  137OSM    H4F14969   2.298   1.972   6.065  2.3995 -1.0555  0.4223
  137OSM    H4G14970   2.164   1.901   5.976  1.0572 -1.2452 -2.8730
  137OSM    C5F14971   2.355   1.850   5.899 -0.2354  0.3562  0.4174
  137OSM    H5F14972   2.346   1.747   5.857  1.9519  0.6589 -0.9976
  137OSM    H5G14973   2.458   1.859   5.940 -0.5221  1.4003  0.9435
  137OSM    C6F14974   2.341   1.939   5.768 -1.0168  0.1992  0.0029
  137OSM    H6F14975   2.320   2.042   5.805  0.2001  0.0402  1.2246
  137OSM    H6G14976   2.242   1.914   5.726  0.7848 -1.4733 -3.7636
  137OSM    C7F14977   2.457   1.926   5.665  0.4804  0.6067  0.2327
  137OSM    H7F14978   2.490   1.820   5.658  0.9437  0.8535 -1.8394
  137OSM    H7G14979   2.547   1.983   5.697  2.3163 -2.5025  1.0003
  137OSM    C8F14980   2.412   1.986   5.529 -0.5483 -0.1343  0.3668
  137OSM    H8F14981   2.417   2.095   5.548 -0.4491 -0.1876  0.6593
  137OSM    H8G14982   2.309   1.950   5.510 -0.8643  0.9351  0.0042
  137OSM    C9F14983   2.503   1.940   5.422  0.6868  0.1156 -0.8778
  137OSM    H9F14984   2.610   1.937   5.450  0.2356  0.7728  1.0232
  137OSM   C10F14985   2.474   1.921   5.293 -0.6402 -0.2124  0.3619
  137OSM   H10F14986   2.555   1.900   5.222 -1.1480 -0.8049 -0.0544
  137OSM   C11F14987   2.336   1.935   5.227 -0.2435 -0.3595  0.1106
  137OSM   H11F14988   2.263   1.956   5.308 -1.2595  0.8319 -1.0656
  137OSM   H11G14989   2.317   1.837   5.178  0.1118  0.6651 -2.1773
  137OSM   C12F14990   2.333   2.042   5.116  0.0359 -0.1545 -0.5658
  137OSM   H12F14991   2.374   2.140   5.147  0.4911  0.1307 -1.9800
  137OSM   H12G14992   2.227   2.067   5.093  0.2989  2.4068  0.6603
  137OSM   C13F14993   2.404   1.988   4.987 -0.2647  0.2984  0.1929
  137OSM   H13F14994   2.358   1.893   4.954  0.7987  0.3714 -1.6841
  137OSM   H13G14995   2.511   1.964   5.007 -0.6305 -3.3169 -1.4218
  137OSM   C14F14996   2.397   2.089   4.874 -0.1892 -0.4622 -0.7919
  137OSM   H14F14997   2.304   2.149   4.875 -0.3364 -0.6793  0.5432
  137OSM   H14G14998   2.408   2.043   4.773  2.0240 -1.7754 -0.0376
  137OSM   C15F14999   2.518   2.189   4.858 -0.6176  0.1406 -0.2713
  137OSM   H15F15000   2.608   2.126   4.839  0.1878  0.0346  3.1409
  137OSM   H15G15001   2.537   2.247   4.950 -1.6467  0.9371 -0.5424
  137OSM   C16F15002   2.490   2.295   4.752 -0.4047 -0.1262  1.0126
  137OSM   H16F15003   2.439   2.263   4.659 -2.1561 -0.4572  2.0386
  137OSM   H16G15004   2.592   2.313   4.712 -0.0738 -0.2361  1.7816
  137OSM   C17F15005   2.410   2.408   4.799  1.4137 -0.0660 -0.0141
  137OSM   H17F15006   2.452   2.440   4.897 -0.1680 -0.4772  0.8420
  137OSM   H17G15007   2.307   2.371   4.819  0.6258  1.6404 -0.7288
  137OSM   C18F15008   2.391   2.527   4.704 -0.2248 -0.3307  0.3345
  137OSM   H18F15009   2.487   2.581   4.690 -0.4643  0.6149  2.0870
  137OSM   H18G15010   2.317   2.593   4.753 -1.8535 -0.9601 -1.1845
  137OSM   H18H15011   2.349   2.500   4.605 -1.9417 -0.8049  1.1605
  138OSM      N15012   6.447   1.909   7.524 -0.0233 -0.1479  0.3004
  138OSM    C1515013   6.516   1.781   7.499 -0.1605  0.3049 -0.6562
  138OSM   H15A15014   6.460   1.695   7.531  0.6886 -0.5524 -1.3978
  138OSM   H15B15015   6.609   1.783   7.555  0.7087  3.5049 -1.9675
  138OSM   H15C15016   6.534   1.764   7.394 -3.6480  0.5571 -1.3854
  138OSM    C1415017   6.376   1.906   7.658  0.2162 -0.5597 -0.1148
  138OSM   H14A15018   6.287   1.845   7.656 -0.1957 -0.0890  1.7216
  138OSM   H14B15019   6.349   2.004   7.693  1.2592  0.0445 -0.9633
  138OSM   H14C15020   6.441   1.873   7.738  0.7775 -1.3702 -0.8836
  138OSM    C1315021   6.551   2.017   7.530 -0.2787 -0.6828 -0.6709
  138OSM   H13A15022   6.591   2.048   7.434  1.0307  3.2236  0.9409
  138OSM   H13B15023   6.636   2.002   7.595  0.9688  0.8491 -1.8651
  138OSM   H13C15024   6.500   2.092   7.588 -0.9543 -1.8358  0.2791
  138OSM    C1215025   6.348   1.932   7.407  0.0295  0.9394 -0.2143
  138OSM   H12A15026   6.278   2.012   7.425 -1.9301 -1.0826  1.9608
  138OSM   H12B15027   6.288   1.842   7.411  0.3471  0.7559  1.7112
  138OSM    C1115028   6.405   1.935   7.262 -0.0143  0.5854 -0.1700
  138OSM   H11A15029   6.487   2.010   7.258  1.3555 -0.8021  0.7053
  138OSM   H11B15030   6.330   1.976   7.191  1.3859  1.4814 -1.1991
  138OSM      P15031   6.360   1.702   7.169  0.1515  0.0212 -0.3313
  138OSM    O1315032   6.428   1.570   7.168  0.0917  0.1754  1.0500
  138OSM    O1415033   6.233   1.709   7.245 -0.6488  0.6011 -0.3670
  138OSM    O1115034   6.333   1.753   7.023  0.1396 -0.4029  0.9562
  138OSM    O1215035   6.463   1.815   7.214  0.1099 -0.2699 -0.5569
  138OSM    C1S15036   6.384   1.678   6.907  0.0657  0.4505  0.1483
  138OSM    H1S15037   6.354   1.573   6.925 -0.4669  0.3138 -1.4335
  138OSM    H1T15038   6.494   1.687   6.897  0.1538  0.4792  1.0312
  138OSM     NF15039   6.368   1.637   6.657 -1.3285 -0.2824 -0.7299
  138OSM    HNF15040   6.431   1.682   6.594 -2.2548  2.6054  0.2256
  138OSM    C2S15041   6.325   1.723   6.771  0.1910 -0.3352 -0.3234
  138OSM    H2S15042   6.215   1.714   6.774  0.0142 -0.0327 -3.1476
  138OSM    C3S15043   6.368   1.872   6.747  0.6730  0.1600  0.3957
  138OSM    H3S15044   6.479   1.877   6.753  0.8710 -0.8022 -1.5537
  138OSM     O315045   6.320   1.958   6.856 -0.4718  0.3732  0.1484
  138OSM    HO315046   6.307   1.890   6.923 -1.5683  0.7663  0.3601
  138OSM    C4S15047   6.325   1.931   6.616  0.5843  0.5494 -0.8558
  138OSM    H4S15048   6.383   1.884   6.535 -0.7753  1.9577 -2.7331
  138OSM    C5S15049   6.227   2.018   6.584 -0.2826 -0.4170  0.3389
  138OSM    H5S15050   6.153   2.051   6.658 -2.7089 -2.2116 -1.1102
  138OSM    C6S15051   6.207   2.073   6.443 -0.1168  0.4857  0.0100
  138OSM    H6S15052   6.220   2.183   6.455 -0.5769  0.2973  2.7468
  138OSM    H6T15053   6.099   2.058   6.423 -0.0875 -0.0105  0.2104
  138OSM    C7S15054   6.288   2.026   6.330 -0.3177  0.1301  0.7819
  138OSM    H7S15055   6.267   1.919   6.308 -0.7751  0.4143 -0.2180
  138OSM    H7T15056   6.398   2.026   6.347 -0.0932 -1.3157 -0.4157
  138OSM    C8S15057   6.254   2.105   6.197  0.0348  0.7395 -1.0378
  138OSM    H8S15058   6.244   2.211   6.227 -0.5114  0.2327  0.7406
  138OSM    H8T15059   6.149   2.077   6.174 -0.9752  0.4340  3.1181
  138OSM    C9S15060   6.342   2.094   6.073  0.0997  0.3068  0.1095
  138OSM    H9S15061   6.424   2.169   6.077 -0.9404  1.4836 -0.2078
  138OSM    H9T15062   6.279   2.126   5.988 -0.5637  0.7819  0.7646
  138OSM   C10S15063   6.384   1.950   6.052 -0.0254  0.2133 -0.6703
  138OSM   H10S15064   6.296   1.882   6.052 -0.5007  0.7884  0.9793
  138OSM   H10T15065   6.454   1.920   6.133  0.3712 -0.7374 -1.3467
  138OSM   C11S15066   6.473   1.916   5.939 -0.4783 -0.4105  0.0470
  138OSM   H11S15067   6.479   1.805   5.946  0.7774 -0.3287  0.4553
  138OSM   H11T15068   6.568   1.972   5.949 -0.9417  0.4468 -0.2632
  138OSM   C12S15069   6.421   1.955   5.798 -0.6761 -0.3716 -0.6143
  138OSM   H12S15070   6.427   2.065   5.783  0.5860 -0.1893  0.9398
  138OSM   H12T15071   6.314   1.927   5.789 -1.2118  1.5212 -0.4372
  138OSM   C13S15072   6.506   1.900   5.683 -0.3088  0.0762  0.0999
  138OSM   H13S15073   6.440   1.908   5.594  1.4690 -0.3946 -1.3215
  138OSM   H13T15074   6.537   1.794   5.696 -2.2259 -0.2224  3.6572
  138OSM   C14S15075   6.626   1.989   5.657  0.1196  0.0357  0.5415
  138OSM   H14S15076   6.671   1.993   5.759 -1.2085 -0.1384  1.1483
  138OSM   H14T15077   6.582   2.085   5.624  1.6818  0.1298 -1.4757
  138OSM   C15S15078   6.719   1.938   5.547  0.1841 -0.2949 -0.7934
  138OSM   H15S15079   6.729   1.828   5.563  0.7189 -0.2107 -0.5417
  138OSM   H15T15080   6.818   1.986   5.552 -0.6424  1.3406  1.8978
  138OSM   C16S15081   6.668   1.957   5.401  0.7722  0.4116  0.2249
  138OSM   H16S15082   6.648   2.065   5.383 -3.1083 -0.5299 -2.3807
  138OSM   H16T15083   6.563   1.922   5.401  0.3898  1.5023  0.0392
  138OSM   C17S15084   6.750   1.894   5.289 -0.0031  0.5410 -0.1689
  138OSM   H17S15085   6.768   1.787   5.313  2.5165  1.0299  0.4159
  138OSM   H17T15086   6.846   1.950   5.279 -0.9918  2.1535 -1.0269
  138OSM   C18S15087   6.685   1.922   5.155  0.4121  0.2956 -0.3524
  138OSM   H18S15088   6.576   1.900   5.160  0.1434  1.8200  1.4851
  138OSM   H18T15089   6.729   1.875   5.065 -0.8901  0.7328 -1.2461
  138OSM   H18U15090   6.688   2.031   5.132 -1.5707  0.6138  0.6344
  138OSM    C1F15091   6.350   1.507   6.654 -0.4449  0.3375  0.2615
  138OSM     OF15092   6.257   1.461   6.723  0.8885 -0.2652 -0.1753
  138OSM    C2F15093   6.447   1.423   6.583 -0.1618  0.5429  0.5147
  138OSM    H2F15094   6.466   1.332   6.644 -1.6872  0.9734  1.6735
  138OSM    H2G15095   6.547   1.466   6.562  1.2145 -2.8538 -0.6687
  138OSM    C3F15096   6.394   1.359   6.450 -0.0988  0.4988 -0.8598
  138OSM    H3F15097   6.368   1.441   6.379 -0.1257 -0.8387 -2.4637
  138OSM    H3G15098   6.305   1.298   6.474  2.4513 -2.7553  1.1286
  138OSM    C4F15099   6.487   1.253   6.381 -0.0600 -0.1217 -0.5035
  138OSM    H4F15100   6.443   1.215   6.286  0.2820  0.0497 -0.7336
  138OSM    H4G15101   6.502   1.166   6.448 -0.8401 -0.2110 -0.4344
  138OSM    C5F15102   6.624   1.298   6.324  0.0248 -0.0389 -0.2534
  138OSM    H5F15103   6.685   1.210   6.294 -2.7291 -1.8461 -0.9104
  138OSM    H5G15104   6.685   1.340   6.407 -2.3900  0.7302  1.2505
  138OSM    C6F15105   6.613   1.405   6.221 -0.7024  0.7115 -0.0819
  138OSM    H6F15106   6.590   1.498   6.277  3.6542  1.6460  0.4622
  138OSM    H6G15107   6.546   1.383   6.135  0.1810 -2.0155 -0.1641
  138OSM    C7F15108   6.752   1.438   6.158  0.1725 -0.2038  0.0728
  138OSM    H7F15109   6.820   1.460   6.243 -1.6425 -2.6153  2.3097
  138OSM    H7G15110   6.741   1.536   6.107 -0.9349  0.8367  2.1639
  138OSM    C8F15111   6.813   1.338   6.054  0.9667  0.2996 -0.0743
  138OSM    H8F15112   6.732   1.321   5.980 -1.5598  1.7994  2.1187
  138OSM    H8G15113   6.841   1.241   6.099  0.1815 -0.1867 -0.6275
  138OSM    C9F15114   6.933   1.401   5.997  0.5138  0.3657 -0.9230
  138OSM    H9F15115   7.007   1.411   6.078  0.2045 -0.8568 -0.4662
  138OSM   C10F15116   6.955   1.454   5.878  0.4650  0.4977 -0.8332
  138OSM   H10F15117   7.051   1.501   5.853  0.6645  0.0875 -0.8499
  138OSM   C11F15118   6.854   1.459   5.769 -0.4188 -0.2772  0.2024
  138OSM   H11F15119   6.830   1.565   5.745  1.2175  0.1374  0.2954
  138OSM   H11G15120   6.760   1.412   5.806 -1.0904  1.8855  1.3867
  138OSM   C12F15121   6.896   1.389   5.639  0.6009 -0.3076  0.5363
  138OSM   H12F15122   6.906   1.280   5.658 -1.6679 -0.6261  0.1161
  138OSM   H12G15123   6.989   1.426   5.591 -0.5935  1.1846 -0.7515
  138OSM   C13F15124   6.786   1.410   5.526 -0.2788  0.1875 -0.1194
  138OSM   H13F15125   6.765   1.519   5.529  2.0016  0.7645 -2.2627
  138OSM   H13G15126   6.688   1.368   5.559  0.3149 -1.3998 -0.3122
  138OSM   C14F15127   6.831   1.364   5.382  0.6625 -0.4814 -0.7286
  138OSM   H14F15128   6.818   1.254   5.373 -2.3532 -0.5037  2.0292
  138OSM   H14G15129   6.939   1.389   5.373  1.0663 -1.7658  0.3324
  138OSM   C15F15130   6.756   1.426   5.261 -0.5463 -0.7880 -0.1363
  138OSM   H15F15131   6.747   1.536   5.269  0.0877 -0.5389 -2.1421
  138OSM   H15G15132   6.652   1.390   5.277 -0.4097 -0.4663  1.5536
  138OSM   C16F15133   6.796   1.383   5.124 -0.1250 -0.4573  0.3465
  138OSM   H16F15134   6.751   1.283   5.107 -1.3496 -0.1721  1.7282
  138OSM   H16G15135   6.907   1.379   5.115 -0.0942  0.7111  0.0900
  138OSM   C17F15136   6.735   1.456   5.007  0.3087  0.1594  0.4657
  138OSM   H17F15137   6.763   1.563   5.001 -1.9611  0.7996  0.2762
  138OSM   H17G15138   6.625   1.454   5.022  0.3170  1.2688  0.7623
  138OSM   C18F15139   6.758   1.397   4.863 -0.3874  0.4403  0.2141
  138OSM   H18F15140   6.866   1.392   4.837  0.2550 -3.2749  2.7882
  138OSM   H18G15141   6.714   1.463   4.785  0.6218 -0.1480 -0.9033
  138OSM   H18H15142   6.704   1.300   4.848  0.6642  0.1700 -2.4547
  139OSM      N15143   1.901   5.994   6.671  0.5558 -0.0616 -0.2384
  139OSM    C1515144   1.891   6.108   6.767 -0.2218 -0.2446  0.3560
  139OSM   H15A15145   1.935   6.200   6.731 -0.2339 -0.2692  0.2783
  139OSM   H15B15146   1.938   6.074   6.858  1.0776 -0.7354 -0.4594
  139OSM   H15C15147   1.787   6.122   6.794 -0.2755 -0.6532  0.3644
  139OSM    C1415148   2.027   6.013   6.597 -0.5627  0.9819  0.1359
  139OSM   H14A15149   2.032   6.115   6.562 -2.0313  0.5859 -1.3791
  139OSM   H14B15150   2.025   5.950   6.510 -0.6057  1.0101  0.1166
  139OSM   H14C15151   2.113   5.995   6.660  0.8536  3.0551 -1.0630
  139OSM    C1315152   1.897   5.869   6.751  0.5357 -0.2371 -0.2560
  139OSM   H13A15153   1.893   5.775   6.696 -0.6956 -1.0990  1.2230
  139OSM   H13B15154   1.807   5.867   6.811  1.0900 -0.9024  0.5650
  139OSM   H13C15155   1.978   5.876   6.822 -0.2525  1.0509  0.5565
  139OSM    C1215156   1.782   6.007   6.574  0.1551 -0.1532  0.6763
  139OSM   H12A15157   1.795   5.970   6.473 -3.4933  1.8560 -0.6817
  139OSM   H12B15158   1.760   6.111   6.558 -0.2979 -0.3173  0.1923
  139OSM    C1115159   1.645   5.951   6.623  0.2115 -0.3313  0.0065
  139OSM   H11A15160   1.654   5.858   6.683 -0.7479 -1.4776 -1.5412
  139OSM   H11B15161   1.583   5.922   6.535  0.6334  0.8605 -0.7128
  139OSM      P15162   1.504   6.170   6.629  0.4510  0.3544 -0.1691
  139OSM    O1315163   1.354   6.167   6.642 -0.0764 -0.0823  0.1203
  139OSM    O1415164   1.579   6.283   6.695  0.1518 -0.3210  0.0796
  139OSM    O1115165   1.557   6.163   6.481 -0.3130  0.0307 -0.1025
  139OSM    O1215166   1.574   6.049   6.698 -0.1566  0.3398  0.4792
  139OSM    C1S15167   1.569   6.293   6.422  0.4175  0.4747  0.8902
  139OSM    H1S15168   1.653   6.351   6.465 -0.0139  0.2305  2.1092
  139OSM    H1T15169   1.477   6.354   6.434  1.2289  1.7243  0.9342
  139OSM     NF15170   1.601   6.412   6.206  0.2871 -0.6333 -0.5088
  139OSM    HNF15171   1.522   6.437   6.152 -1.0181  0.1916  1.6729
  139OSM    C2S15172   1.599   6.282   6.269 -0.5300  0.6558  0.2510
  139OSM    H2S15173   1.705   6.253   6.256  0.0261  2.4078  0.6729
  139OSM    C3S15174   1.503   6.183   6.194  0.3823 -0.2971 -0.2670
  139OSM    H3S15175   1.397   6.213   6.208  0.5691  1.2327 -1.7271
  139OSM     O315176   1.509   6.048   6.244  0.8262  0.5267  0.4138
  139OSM    HO315177   1.537   6.073   6.332  0.3690 -0.0367  0.7294
  139OSM    C4S15178   1.524   6.190   6.049  0.0091 -0.1455  0.5268
  139OSM    H4S15179   1.447   6.244   5.992 -2.6180 -2.2669  1.8424
  139OSM    C5S15180   1.626   6.129   5.983  0.1371  0.0032  0.2700
  139OSM    H5S15181   1.694   6.060   6.037 -2.9583 -0.8200  3.5195
  139OSM    C6S15182   1.651   6.126   5.840 -0.3185 -0.4543 -0.1142
  139OSM    H6S15183   1.664   6.017   5.820 -0.6064 -0.6642  0.8164
  139OSM    H6T15184   1.744   6.186   5.825 -1.8438  1.8888 -0.7331
  139OSM    C7S15185   1.549   6.174   5.739 -0.7614  0.1832  0.0186
  139OSM    H7S15186   1.506   6.269   5.776  0.4988  0.7949 -0.0456
  139OSM    H7T15187   1.463   6.103   5.742 -0.4560 -0.1578  2.1985
  139OSM    C8S15188   1.612   6.174   5.603 -0.6247  0.1234  0.0118
  139OSM    H8S15189   1.652   6.072   5.582 -0.8447  0.0045  0.1599
  139OSM    H8T15190   1.697   6.243   5.587 -0.7265  0.4994  1.0330
  139OSM    C9S15191   1.520   6.202   5.490 -0.4237 -0.7626  0.5738
  139OSM    H9S15192   1.473   6.303   5.487  1.4592  0.1350 -1.0127
  139OSM    H9T15193   1.433   6.135   5.506  0.2658 -1.9845 -0.5884
  139OSM   C10S15194   1.591   6.184   5.355  0.8601  0.1822  0.0267
  139OSM   H10S15195   1.605   6.073   5.350 -1.4650 -0.1170 -0.7531
  139OSM   H10T15196   1.687   6.240   5.361  1.6684 -1.1355  0.0415
  139OSM   C11S15197   1.520   6.229   5.229 -0.2413 -0.7192  0.3310
  139OSM   H11S15198   1.539   6.336   5.205 -1.7456 -0.4840  0.0381
  139OSM   H11T15199   1.411   6.212   5.245 -0.0818 -0.5531  1.6661
  139OSM   C12S15200   1.560   6.155   5.100  0.3951  0.7155  0.5285
  139OSM   H12S15201   1.551   6.050   5.136  0.5690  0.3621 -0.4491
  139OSM   H12T15202   1.665   6.174   5.068  1.5080 -2.3115  1.9399
  139OSM   C13S15203   1.459   6.160   4.991 -0.4511  0.2651  0.3322
  139OSM   H13S15204   1.361   6.132   5.034 -0.0571 -0.1712  0.9648
  139OSM   H13T15205   1.490   6.099   4.903  0.0687  2.7295 -1.3063
  139OSM   C14S15206   1.438   6.294   4.923 -0.0978  0.4766 -0.1326
  139OSM   H14S15207   1.542   6.329   4.908 -0.8252  3.7881  1.6339
  139OSM   H14T15208   1.393   6.367   4.994 -0.7464  1.0110 -1.0754
  139OSM   C15S15209   1.364   6.286   4.792  0.2827 -0.4095  0.2499
  139OSM   H15S15210   1.323   6.386   4.768  0.8832 -0.1625  0.2326
  139OSM   H15T15211   1.273   6.222   4.797 -2.0649  2.2827 -3.1749
  139OSM   C16S15212   1.439   6.243   4.664 -0.3978  0.3930 -0.2048
  139OSM   H16S15213   1.465   6.136   4.674 -3.8479 -0.5710 -0.3415
  139OSM   H16T15214   1.526   6.312   4.663 -1.5861  2.0210  1.2132
  139OSM   C17S15215   1.355   6.266   4.537  0.0950 -0.9433  0.1742
  139OSM   H17S15216   1.307   6.367   4.536  0.5694 -0.7090  0.8007
  139OSM   H17T15217   1.276   6.188   4.539 -1.8291  0.8975  0.0761
  139OSM   C18S15218   1.437   6.246   4.412  0.6888 -0.0020 -0.2802
  139OSM   H18S15219   1.525   6.313   4.412  0.6572  0.1214  2.2299
  139OSM   H18T15220   1.372   6.268   4.324 -0.4939 -1.3540  0.2134
  139OSM   H18U15221   1.475   6.142   4.399 -0.4350 -0.9826  3.2504
  139OSM    C1F15222   1.696   6.507   6.241 -1.2552 -0.5929  0.0980
  139OSM     OF15223   1.779   6.492   6.334 -0.4495  0.1713  0.4935
  139OSM    C2F15224   1.688   6.633   6.171 -0.0441 -0.0557  0.2659
  139OSM    H2F15225   1.785   6.685   6.186 -1.5053  2.3555  2.1466
  139OSM    H2G15226   1.620   6.696   6.232  1.0594  0.2689  1.2002
  139OSM    C3F15227   1.641   6.616   6.030  0.2489  0.1979 -1.0192
  139OSM    H3F15228   1.617   6.719   5.996  2.8381  1.1688 -0.1667
  139OSM    H3G15229   1.552   6.551   6.018 -0.1278  0.5659 -0.2756
  139OSM    C4F15230   1.741   6.566   5.923 -0.0666  0.0446  0.1110
  139OSM    H4F15231   1.773   6.462   5.945 -0.0752  0.3911  1.8644
  139OSM    H4G15232   1.823   6.639   5.935 -1.7731  1.8281  1.6026
  139OSM    C5F15233   1.684   6.568   5.788 -0.2803  0.7414  0.4420
  139OSM    H5F15234   1.616   6.654   5.769  0.4742  1.1320 -0.5492
  139OSM    H5G15235   1.629   6.473   5.771 -0.3244  0.7789  0.3789
  139OSM    C6F15236   1.799   6.591   5.685 -0.2446 -0.1480 -0.0093
  139OSM    H6F15237   1.875   6.514   5.707  0.6255  0.5312 -0.5977
  139OSM    H6G15238   1.851   6.688   5.698  2.7250 -1.7276  0.5929
  139OSM    C7F15239   1.756   6.565   5.548 -0.6757  0.3614 -0.4645
  139OSM    H7F15240   1.737   6.456   5.536  0.8158  0.2318 -1.9090
  139OSM    H7G15241   1.839   6.585   5.477  0.4461  2.2948  1.2921
  139OSM    C8F15242   1.632   6.635   5.504  0.6386 -0.7109  0.0866
  139OSM    H8F15243   1.659   6.742   5.519 -0.7253 -0.3564  0.1961
  139OSM    H8G15244   1.542   6.631   5.569  1.4982  2.6903  1.7239
  139OSM    C9F15245   1.594   6.612   5.357 -0.0968  0.2079 -0.8553
  139OSM    H9F15246   1.579   6.507   5.327 -0.5414 -0.2258  0.8013
  139OSM   C10F15247   1.576   6.704   5.264  0.8404 -0.8055 -0.5232
  139OSM   H10F15248   1.567   6.680   5.157  0.7640  3.3639 -1.6330
  139OSM   C11F15249   1.593   6.854   5.294 -0.3098 -0.4122 -0.3668
  139OSM   H11F15250   1.689   6.874   5.347 -0.0979 -0.4402 -0.7364
  139OSM   H11G15251   1.520   6.888   5.371 -0.5184 -0.7145 -0.4308
  139OSM   C12F15252   1.564   6.941   5.182  0.0281 -0.4151 -0.3849
  139OSM   H12F15253   1.457   6.941   5.151 -0.4571 -0.3321  1.1932
  139OSM   H12G15254   1.623   6.904   5.096 -0.4965 -1.7573 -0.1943
  139OSM   C13F15255   1.608   7.082   5.206  0.6689  0.2352  1.7625
  139OSM   H13F15256   1.719   7.071   5.207  0.8421  0.7438 -1.4138
  139OSM   H13G15257   1.569   7.114   5.305 -2.1256  1.0679  0.4794
  139OSM   C14F15258   1.579   7.181   5.096 -0.7995  0.0008  0.6023
  139OSM   H14F15259   1.610   7.285   5.121  1.2882 -0.1185 -1.1222
  139OSM   H14G15260   1.474   7.205   5.067 -0.0669  1.7223 -0.8794
  139OSM   C15F15261   1.646   7.136   4.961  0.2425 -0.1274  0.1304
  139OSM   H15F15262   1.606   7.033   4.949 -3.0311  1.1335 -0.9441
  139OSM   H15G15263   1.757   7.135   4.971  0.1038 -0.1845  1.9845
  139OSM   C16F15264   1.591   7.226   4.841  0.6120 -0.2895  0.3952
  139OSM   H16F15265   1.481   7.232   4.830  0.6702 -1.0247 -0.7544
  139OSM   H16G15266   1.615   7.182   4.742 -2.2546  1.6261 -1.2720
  139OSM   C17F15267   1.654   7.364   4.840 -0.0979 -0.6963  0.6997
  139OSM   H17F15268   1.763   7.351   4.821  0.5349  2.6696  1.3400
  139OSM   H17G15269   1.651   7.424   4.933  0.6253  3.6477 -1.7788
  139OSM   C18F15270   1.596   7.458   4.731  0.2678 -0.0381 -0.6617
  139OSM   H18F15271   1.673   7.539   4.724 -0.1744  0.3433 -1.2295
  139OSM   H18G15272   1.499   7.503   4.761  0.6537 -0.4254  1.2697
  139OSM   H18H15273   1.592   7.408   4.632  3.7828  0.5203 -1.2404
  140OSM      N15274   2.373   3.007   7.523 -0.2478  0.2713  0.3003
  140OSM    C1515275   2.387   2.984   7.666  0.4097 -0.4185 -0.1730
  140OSM   H15A15276   2.452   2.903   7.698  0.9264 -0.5214 -1.4390
  140OSM   H15B15277   2.292   2.981   7.718  0.6924  0.6913  0.4395
  140OSM   H15C15278   2.433   3.072   7.709  1.5621 -1.8145  1.6252
  140OSM    C1415279   2.277   3.129   7.514  0.1779  0.8819 -0.2534
  140OSM   H14A15280   2.322   3.215   7.562  1.2123 -0.4079  1.1923
  140OSM   H14B15281   2.189   3.090   7.562  0.5381 -0.6976 -0.8221
  140OSM   H14C15282   2.253   3.166   7.415 -1.2203  0.4026 -0.1128
  140OSM    C1315283   2.508   3.046   7.470 -0.2558  0.2653  0.4609
  140OSM   H13A15284   2.523   3.151   7.488 -0.7760  0.0901  2.0120
  140OSM   H13B15285   2.511   3.032   7.363  0.2448 -2.7802  0.7595
  140OSM   H13C15286   2.595   2.994   7.508 -0.1712  0.0241 -0.0543
  140OSM    C1215287   2.319   2.880   7.446  0.5442 -0.0021 -0.2076
  140OSM   H12A15288   2.215   2.870   7.474 -0.3179  1.1209 -2.6840
  140OSM   H12B15289   2.383   2.797   7.472 -1.2542 -1.4434 -0.1526
  140OSM    C1115290   2.328   2.902   7.297  0.6457  0.2147 -0.9180
  140OSM   H11A15291   2.293   3.006   7.278 -0.1324  0.2835  0.7302
  140OSM   H11B15292   2.244   2.852   7.244  0.0713 -3.3130  2.8580
  140OSM      P15293   2.475   2.814   7.099 -0.4316 -0.1500 -0.0049
  140OSM    O1315294   2.599   2.854   7.033  0.1045  0.0587  0.2262
  140OSM    O1415295   2.456   2.670   7.115  0.2352  0.0967  0.5044
  140OSM    O1115296   2.357   2.881   7.018 -0.3811 -0.1422 -0.0925
  140OSM    O1215297   2.460   2.869   7.248 -0.0365  0.2712  0.3370
  140OSM    C1S15298   2.383   2.993   6.933 -0.6308 -0.3411  0.4727
  140OSM    H1S15299   2.485   3.002   6.889 -0.8561  0.5673  0.1215
  140OSM    H1T15300   2.358   3.089   6.984 -2.0821 -0.0593 -0.7010
  140OSM     NF15301   2.335   3.091   6.709 -0.6007 -0.1540  0.4445
  140OSM    HNF15302   2.309   3.187   6.722 -2.2571 -0.8489  3.4177
  140OSM    C2S15303   2.286   3.005   6.813  0.7736 -0.3922 -0.3961
  140OSM    H2S15304   2.300   2.900   6.780  0.0229 -0.5351 -0.2770
  140OSM    C3S15305   2.136   3.032   6.861  0.0548  0.2726 -0.1136
  140OSM    H3S15306   2.119   3.138   6.887 -3.3104 -0.3692  0.8505
  140OSM     O315307   2.097   2.959   6.974 -0.2414 -0.6545  0.2409
  140OSM    HO315308   2.171   2.911   7.011  0.4517 -1.1328 -1.6259
  140OSM    C4S15309   2.042   2.994   6.748 -0.2299 -0.0781 -0.0332
  140OSM    H4S15310   2.033   2.886   6.727  0.7828  0.1181 -1.6383
  140OSM    C5S15311   1.963   3.077   6.676 -0.6001  0.5208 -0.0115
  140OSM    H5S15312   1.972   3.186   6.689  0.6958  0.5854 -1.2554
  140OSM    C6S15313   1.863   3.040   6.572 -0.2174 -0.1698 -0.2023
  140OSM    H6S15314   1.761   3.070   6.606 -0.5347 -0.9945 -0.4022
  140OSM    H6T15315   1.859   2.931   6.551 -1.8582 -0.1064 -0.3882
  140OSM    C7S15316   1.893   3.103   6.429  0.5172  0.2229  0.6074
  140OSM    H7S15317   1.997   3.078   6.399  1.0494  2.2381  0.6092
  140OSM    H7T15318   1.883   3.214   6.428 -1.4847  0.0661 -0.5164
  140OSM    C8S15319   1.809   3.047   6.312 -0.4898  0.4017  0.2484
  140OSM    H8S15320   1.701   3.069   6.326 -0.8287 -1.0988  0.2524
  140OSM    H8T15321   1.824   2.937   6.315  2.4528  0.7207 -0.4358
  140OSM    C9S15322   1.846   3.110   6.179  0.0158 -0.0264  0.4572
  140OSM    H9S15323   1.951   3.083   6.154  0.1590  1.1004 -0.2186
  140OSM    H9T15324   1.844   3.220   6.194 -1.6616  0.0341 -0.0216
  140OSM   C10S15325   1.745   3.061   6.071  0.0733 -0.1542  0.2847
  140OSM   H10S15326   1.650   3.082   6.125  0.5708 -0.0282  1.1321
  140OSM   H10T15327   1.753   2.954   6.042 -2.3584 -0.4470  0.5170
  140OSM   C11S15328   1.730   3.153   5.947  0.8706 -0.0398  0.0251
  140OSM   H11S15329   1.733   3.260   5.976  0.9173  0.2833 -1.1504
  140OSM   H11T15330   1.638   3.135   5.888  1.3140 -1.7137 -0.2093
  140OSM   C12S15331   1.835   3.139   5.839 -0.4719  0.6658 -0.2964
  140OSM   H12S15332   1.849   3.030   5.826 -1.3169  0.5700 -0.4552
  140OSM   H12T15333   1.931   3.175   5.880  0.3529 -2.7005  0.9801
  140OSM   C13S15334   1.802   3.219   5.712 -0.9130 -0.9539 -0.6435
  140OSM   H13S15335   1.812   3.320   5.758  0.0561 -2.2456  2.1970
  140OSM   H13T15336   1.700   3.208   5.670 -1.8563  0.0551  1.2512
  140OSM   C14S15337   1.902   3.205   5.590  0.0139  0.0712 -0.4838
  140OSM   H14S15338   1.906   3.096   5.570  0.1313 -0.0494  0.1880
  140OSM   H14T15339   1.994   3.251   5.633 -0.8811 -1.2646  3.2839
  140OSM   C15S15340   1.854   3.265   5.461  0.0004 -0.2719 -0.3373
  140OSM   H15S15341   1.941   3.285   5.395  1.0096  2.2736  1.6071
  140OSM   H15T15342   1.809   3.365   5.482 -0.5955 -0.2464 -1.6309
  140OSM   C16S15343   1.750   3.179   5.381  0.1997  0.3783 -0.2539
  140OSM   H16S15344   1.659   3.165   5.443  1.2888 -0.0568  1.3196
  140OSM   H16T15345   1.805   3.084   5.366 -0.2517 -0.0541  0.7147
  140OSM   C17S15346   1.714   3.246   5.251 -0.4311 -0.2079  0.3523
  140OSM   H17S15347   1.652   3.334   5.280  0.1058 -0.3107  1.9333
  140OSM   H17T15348   1.640   3.175   5.211  1.0787  0.0696 -3.2616
  140OSM   C18S15349   1.831   3.261   5.148  0.6464 -0.7704  0.2957
  140OSM   H18S15350   1.797   3.313   5.056  2.2794  0.6861  0.4760
  140OSM   H18T15351   1.855   3.157   5.118  0.0650 -0.6610 -0.5962
  140OSM   H18U15352   1.915   3.316   5.195  1.2467  0.2700 -1.8755
  140OSM    C1F15353   2.439   3.070   6.630 -0.1869  0.2450  0.4881
  140OSM     OF15354   2.518   2.973   6.636  0.3643 -0.9260  0.2002
  140OSM    C2F15355   2.448   3.176   6.528  1.1690 -0.2878  0.7036
  140OSM    H2F15356   2.522   3.252   6.560 -1.7114  2.5334  1.2933
  140OSM    H2G15357   2.351   3.230   6.534  1.1799 -0.3975  2.1846
  140OSM    C3F15358   2.455   3.134   6.376  0.1223 -0.0320  0.5726
  140OSM    H3F15359   2.385   3.053   6.346 -1.0070  2.0346 -2.8596
  140OSM    H3G15360   2.554   3.085   6.381 -0.5320 -1.5042 -0.1245
  140OSM    C4F15361   2.449   3.259   6.281 -0.0683  0.0556 -0.5139
  140OSM    H4F15362   2.492   3.229   6.184 -1.6210 -1.0557 -0.9151
  140OSM    H4G15363   2.515   3.340   6.317 -0.2554  0.5180 -1.2067
  140OSM    C5F15364   2.316   3.322   6.264  0.0725 -0.4190  0.5761
  140OSM    H5F15365   2.296   3.382   6.356  3.1106  0.2543  0.9148
  140OSM    H5G15366   2.250   3.233   6.264 -0.7648  0.1730 -0.4379
  140OSM    C6F15367   2.309   3.421   6.150 -0.0783 -0.0251  0.4055
  140OSM    H6F15368   2.413   3.448   6.123  0.3858  2.4474  4.0058
  140OSM    H6G15369   2.265   3.511   6.197  0.8903 -0.0954  1.5146
  140OSM    C7F15370   2.212   3.387   6.036  0.8010 -0.0229 -0.4499
  140OSM    H7F15371   2.112   3.353   6.072  2.0901 -0.3787  3.2216
  140OSM    H7G15372   2.251   3.302   5.976 -0.3650 -0.2767 -0.8701
  140OSM    C8F15373   2.195   3.509   5.943  0.3024  0.3459 -0.5552
  140OSM    H8F15374   2.279   3.580   5.958 -0.4657  1.3152 -0.6800
  140OSM    H8G15375   2.102   3.566   5.967 -1.3499 -1.1563 -2.9577
  140OSM    C9F15376   2.180   3.476   5.796  0.3494  0.5264  0.2137
  140OSM    H9F15377   2.095   3.412   5.768  0.8813 -1.5251  2.8265
  140OSM   C10F15378   2.252   3.522   5.698 -0.5064 -0.0320  0.1898
  140OSM   H10F15379   2.224   3.488   5.597 -0.6693  0.2254  0.1468
  140OSM   C11F15380   2.371   3.619   5.707 -0.1794  0.0018 -0.6164
  140OSM   H11F15381   2.467   3.566   5.723  0.7714  1.7435 -0.2183
  140OSM   H11G15382   2.356   3.675   5.802 -1.4523 -3.0029  1.1087
  140OSM   C12F15383   2.389   3.717   5.592 -0.8041  0.6867 -0.0222
  140OSM   H12F15384   2.479   3.776   5.622  1.5887 -3.3414  1.5888
  140OSM   H12G15385   2.298   3.781   5.586 -0.9957  0.2506 -3.5592
  140OSM   C13F15386   2.401   3.654   5.454  0.0644 -0.0218 -0.2064
  140OSM   H13F15387   2.305   3.616   5.414  0.1335  2.9422 -3.7673
  140OSM   H13G15388   2.476   3.572   5.460  0.2203 -0.0337 -1.8675
  140OSM   C14F15389   2.442   3.762   5.347  0.1290 -0.4790  0.1813
  140OSM   H14F15390   2.541   3.806   5.370 -0.1857 -0.2842  1.2148
  140OSM   H14G15391   2.362   3.838   5.334 -1.4123 -2.0135  0.3761
  140OSM   C15F15392   2.456   3.704   5.209  0.3837  0.6218 -0.0774
  140OSM   H15F15393   2.383   3.621   5.199  1.5522 -0.2747 -1.4804
  140OSM   H15G15394   2.555   3.656   5.204  0.6068  1.1496 -1.0095
  140OSM   C16F15395   2.443   3.807   5.092  0.8767 -0.0332 -0.0385
  140OSM   H16F15396   2.512   3.890   5.115 -0.3165  0.9059  0.2970
  140OSM   H16G15397   2.341   3.851   5.084  1.1502  0.4084 -1.5080
  140OSM   C17F15398   2.468   3.751   4.950  0.3803  0.6485  0.2253
  140OSM   H17F15399   2.572   3.714   4.938  0.1280 -0.2919  0.8724
  140OSM   H17G15400   2.453   3.836   4.880 -0.8279 -0.9126 -1.5136
  140OSM   C18F15401   2.372   3.635   4.903 -0.0193  0.4132  0.0506
  140OSM   H18F15402   2.404   3.604   4.801 -0.0644 -0.6447  0.3506
  140OSM   H18G15403   2.269   3.676   4.897 -0.0209  0.2029 -3.8267
  140OSM   H18H15404   2.375   3.546   4.970 -0.2129 -0.9987 -1.7535
  141OSM      N15405   2.137   2.412   7.114  0.5251  0.5124  0.9315
  141OSM    C1515406   2.222   2.474   7.217  0.3024 -0.9026 -0.4978
  141OSM   H15A15407   2.173   2.522   7.300  2.1320  0.9442 -0.4327
  141OSM   H15B15408   2.281   2.554   7.175  1.8637 -1.2582  0.9349
  141OSM   H15C15409   2.288   2.403   7.265 -1.5251 -0.9253  2.1938
  141OSM    C1415410   2.197   2.279   7.083  0.1503  0.1315  0.2022
  141OSM   H14A15411   2.151   2.247   6.991  1.9490  1.4393 -1.2496
  141OSM   H14B15412   2.192   2.197   7.153  2.3847 -2.4690 -2.3961
  141OSM   H14C15413   2.302   2.282   7.056 -0.0550  1.6920 -0.5296
  141OSM    C1315414   1.996   2.373   7.157 -0.8402  0.0230 -0.4775
  141OSM   H13A15415   1.938   2.460   7.182 -1.3130 -1.1060  2.7447
  141OSM   H13B15416   1.996   2.322   7.252 -0.8359 -0.6380 -0.8255
  141OSM   H13C15417   1.953   2.323   7.072 -2.9235  1.4741 -0.3418
  141OSM    C1215418   2.134   2.493   6.989  0.6482 -0.4584  0.2639
  141OSM   H12A15419   2.076   2.445   6.911 -0.8229  0.6384  0.6276
  141OSM   H12B15420   2.234   2.496   6.950  0.0170  1.8205 -1.3778
  141OSM    C1115421   2.083   2.635   7.001 -0.2003 -0.5254  0.7354
  141OSM   H11A15422   2.117   2.705   6.921  0.2353 -0.2188  1.1804
  141OSM   H11B15423   2.117   2.676   7.099 -1.5278 -0.5897  1.2380
  141OSM      P15424   1.851   2.598   6.886 -0.3174 -0.1631  0.2740
  141OSM    O1315425   1.772   2.476   6.916  0.3778 -0.5159  0.6187
  141OSM    O1415426   1.776   2.718   6.849  0.3568 -0.1578 -0.3112
  141OSM    O1115427   1.950   2.564   6.766 -0.1287 -0.3336 -0.2793
  141OSM    O1215428   1.937   2.636   7.011 -0.1026  0.0126 -0.0559
  141OSM    C1S15429   1.896   2.519   6.642 -0.7252  0.4200  0.3528
  141OSM    H1S15430   1.786   2.511   6.649 -0.6299 -1.7279  0.1235
  141OSM    H1T15431   1.931   2.418   6.613  0.2457  0.8899 -0.1898
  141OSM     NF15432   1.837   2.609   6.411  0.6126  0.2612  0.5894
  141OSM    HNF15433   1.874   2.564   6.330 -0.7646 -1.8963  1.0998
  141OSM    C2S15434   1.933   2.619   6.525 -0.0333 -0.2900 -0.2610
  141OSM    H2S15435   1.924   2.720   6.570 -0.6895 -0.5195  0.1278
  141OSM    C3S15436   2.085   2.610   6.491  0.6071 -0.6379  0.0830
  141OSM    H3S15437   2.106   2.509   6.452 -0.9641 -1.3952  1.0856
  141OSM     O315438   2.185   2.620   6.598  0.6461 -0.5314 -0.0339
  141OSM    HO315439   2.133   2.592   6.674  1.2393 -3.4291 -0.5664
  141OSM    C4S15440   2.119   2.709   6.383 -0.3473 -0.3433  0.0516
  141OSM    H4S15441   2.084   2.808   6.413 -2.2618 -0.4030 -1.7436
  141OSM    C5S15442   2.197   2.693   6.271  0.1359  0.2301 -0.0966
  141OSM    H5S15443   2.250   2.596   6.268  1.9836  1.1410  0.9039
  141OSM    C6S15444   2.246   2.790   6.167  0.4837 -0.6525  0.0769
  141OSM    H6S15445   2.246   2.741   6.067  1.3734  0.6911 -0.6038
  141OSM    H6T15446   2.354   2.804   6.186  0.7128 -1.8984 -0.2021
  141OSM    C7S15447   2.184   2.925   6.155  0.0319  0.3135 -0.0323
  141OSM    H7S15448   2.203   2.981   6.249  1.0780  0.2270 -0.1749
  141OSM    H7T15449   2.076   2.908   6.141 -0.0834 -0.1015  1.2671
  141OSM    C8S15450   2.242   3.010   6.041  0.4450 -0.2487  0.5248
  141OSM    H8S15451   2.351   2.991   6.051  0.6125 -1.2133 -2.2042
  141OSM    H8T15452   2.217   3.115   6.066  0.9072  0.5229 -2.0120
  141OSM    C9S15453   2.196   2.978   5.898 -0.4551  1.0907 -0.1415
  141OSM    H9S15454   2.086   2.962   5.896 -0.2545 -0.5978  0.4787
  141OSM    H9T15455   2.248   2.881   5.881 -0.2221  0.9931  1.0668
  141OSM   C10S15456   2.257   3.075   5.798 -0.2339  0.4986 -0.2105
  141OSM   H10S15457   2.366   3.083   5.819  0.0301 -0.5579 -1.1206
  141OSM   H10T15458   2.213   3.173   5.825 -0.3684  0.1106  1.0683
  141OSM   C11S15459   2.223   3.037   5.659  0.1290  0.7194  0.2577
  141OSM   H11S15460   2.113   3.023   5.651 -0.1041  0.7808  2.6195
  141OSM   H11T15461   2.263   2.935   5.641  2.2255  1.2288  1.6773
  141OSM   C12S15462   2.280   3.124   5.553  0.0487  0.0116 -0.7915
  141OSM   H12S15463   2.391   3.116   5.549  0.4074  0.3987  3.6894
  141OSM   H12T15464   2.246   3.226   5.577  0.4421  0.3279 -1.5336
  141OSM   C13S15465   2.223   3.078   5.419 -0.0658 -0.2945  0.4257
  141OSM   H13S15466   2.114   3.063   5.434 -0.1299 -0.4668 -0.1959
  141OSM   H13T15467   2.252   2.975   5.391  2.2805  0.1973  0.8482
  141OSM   C14S15468   2.256   3.183   5.307  0.1129  0.4389 -0.3547
  141OSM   H14S15469   2.366   3.171   5.296  0.4053  0.4514  2.1108
  141OSM   H14T15470   2.214   3.280   5.341  2.5679  0.5774  2.6838
  141OSM   C15S15471   2.193   3.150   5.173  0.1487  0.0183  0.6393
  141OSM   H15S15472   2.085   3.133   5.189 -0.0527  1.3504  0.8249
  141OSM   H15T15473   2.246   3.069   5.119  2.2111  0.1074  2.3628
  141OSM   C16S15474   2.212   3.268   5.072  0.4733 -0.3218  0.1408
  141OSM   H16S15475   2.320   3.284   5.052  0.0579 -0.3152 -2.4220
  141OSM   H16T15476   2.170   3.357   5.123  0.6277 -0.7980  1.1269
  141OSM   C17S15477   2.139   3.227   4.939 -0.3368 -0.6703 -0.7711
  141OSM   H17S15478   2.030   3.221   4.958 -0.4663  0.4843 -1.0679
  141OSM   H17T15479   2.171   3.131   4.895 -0.1424 -0.2516 -1.5538
  141OSM   C18S15480   2.167   3.341   4.828 -0.5605  0.2471  0.1285
  141OSM   H18S15481   2.267   3.390   4.834 -1.4647  2.0286  3.1741
  141OSM   H18T15482   2.103   3.431   4.842  1.2757  2.0815 -2.3573
  141OSM   H18U15483   2.142   3.305   4.726 -2.1211 -0.0923  0.5979
  141OSM    C1F15484   1.706   2.629   6.424 -0.1006 -0.1795  0.0458
  141OSM     OF15485   1.666   2.675   6.531 -0.0457 -0.7770  0.1679
  141OSM    C2F15486   1.610   2.624   6.302  0.4263  0.2529 -0.3008
  141OSM    H2F15487   1.525   2.692   6.323  0.2892 -0.0383  0.1052
  141OSM    H2G15488   1.575   2.519   6.303  2.9912 -0.7360 -2.4879
  141OSM    C3F15489   1.666   2.636   6.162  0.3886 -0.3742  0.1137
  141OSM    H3F15490   1.755   2.570   6.159 -1.2696 -2.8701  1.6053
  141OSM    H3G15491   1.709   2.734   6.135 -1.6804 -0.0250 -2.3055
  141OSM    C4F15492   1.561   2.594   6.066  0.5072  0.1609  0.4325
  141OSM    H4F15493   1.488   2.675   6.045 -1.6508 -1.8383 -0.2156
  141OSM    H4G15494   1.492   2.515   6.103  0.9679  0.0210  1.0024
  141OSM    C5F15495   1.612   2.546   5.928 -0.1841 -0.1315  0.6810
  141OSM    H5F15496   1.527   2.502   5.872 -0.3726  2.2527 -1.0480
  141OSM    H5G15497   1.694   2.471   5.934  0.3493  0.3075 -0.8446
  141OSM    C6F15498   1.658   2.674   5.844 -0.0908 -0.4612  0.3196
  141OSM    H6F15499   1.768   2.680   5.855  0.1375 -0.4149 -1.5719
  141OSM    H6G15500   1.591   2.758   5.873  0.8371  1.0648 -1.6662
  141OSM    C7F15501   1.659   2.651   5.692  0.0608 -0.1726  0.1222
  141OSM    H7F15502   1.555   2.626   5.662  0.2187  2.4408 -3.2680
  141OSM    H7G15503   1.725   2.563   5.675 -0.9746 -1.8296  3.7986
  141OSM    C8F15504   1.691   2.774   5.605  0.8541 -0.2521 -0.0307
  141OSM    H8F15505   1.650   2.862   5.660  2.3900 -0.3680  1.3582
  141OSM    H8G15506   1.639   2.761   5.508  0.4220  1.4696 -0.0599
  141OSM    C9F15507   1.839   2.793   5.600 -0.2024  0.1517  0.4860
  141OSM    H9F15508   1.881   2.836   5.692  0.5247  0.6138 -0.0462
  141OSM   C10F15509   1.907   2.777   5.484 -1.1921 -0.2111  0.5640
  141OSM   H10F15510   2.017   2.783   5.485 -1.2087  0.3166  0.1465
  141OSM   C11F15511   1.859   2.730   5.348 -0.3687  0.0010  0.1449
  141OSM   H11F15512   1.749   2.729   5.331 -0.4796  1.5535  0.6036
  141OSM   H11G15513   1.899   2.631   5.319 -0.5227 -0.2209  0.6873
  141OSM   C12F15514   1.908   2.829   5.239  0.5701 -0.0020  0.3205
  141OSM   H12F15515   2.018   2.845   5.239  0.4986  0.7895 -2.0412
  141OSM   H12G15516   1.853   2.924   5.254  0.6537  0.6343 -2.8925
  141OSM   C13F15517   1.872   2.776   5.096 -0.7502 -0.0409  0.0659
  141OSM   H13F15518   1.767   2.748   5.076 -0.4282 -0.7959 -0.6263
  141OSM   H13G15519   1.941   2.692   5.075 -1.5821 -0.4498 -1.1205
  141OSM   C14F15520   1.898   2.878   4.983 -0.4062 -0.1266 -0.3552
  141OSM   H14F15521   2.000   2.917   5.003 -0.6492  1.5079 -1.9961
  141OSM   H14G15522   1.833   2.968   4.991  0.5452  0.6201 -0.7785
  141OSM   C15F15523   1.890   2.820   4.836  0.4457  0.1771  0.4040
  141OSM   H15F15524   1.885   2.907   4.767  0.4989  1.9079  2.4634
  141OSM   H15G15525   1.790   2.775   4.822  0.0473  1.6558 -2.1323
  141OSM   C16F15526   2.006   2.727   4.787  0.0374 -0.7118 -0.0205
  141OSM   H16F15527   2.002   2.643   4.861 -1.0481 -0.0814  0.6682
  141OSM   H16G15528   2.105   2.774   4.801 -0.7112  0.8403  0.2799
  141OSM   C17F15529   1.999   2.668   4.645  0.3726 -0.4419 -0.3692
  141OSM   H17F15530   1.920   2.593   4.669  0.1428  0.1758  0.9347
  141OSM   H17G15531   2.095   2.617   4.624  0.9765  0.6244 -0.2540
  141OSM   C18F15532   1.956   2.769   4.541 -0.3228  0.2505  0.5386
  141OSM   H18F15533   1.858   2.821   4.547 -0.5421 -0.1172  0.1572
  141OSM   H18G15534   1.965   2.715   4.445 -0.0159 -3.6224  2.5282
  141OSM   H18H15535   2.018   2.861   4.550 -1.4869  0.9353  2.3234
  142OSM      N15536   2.454   1.156   6.725 -0.0345  0.6214 -1.1680
  142OSM    C1515537   2.531   1.282   6.696  0.2067  0.3934 -0.1629
  142OSM   H15A15538   2.608   1.273   6.621  0.6666  0.7265  0.2652
  142OSM   H15B15539   2.581   1.318   6.785  2.5711  0.4623 -1.4412
  142OSM   H15C15540   2.456   1.359   6.681 -1.3145  0.5566  5.8111
  142OSM    C1415541   2.555   1.055   6.784 -0.0026  0.1044 -0.4934
  142OSM   H14A15542   2.595   1.089   6.878 -1.4044  0.4404 -0.0108
  142OSM   H14B15543   2.641   1.048   6.718 -0.0420  3.0025 -0.9904
  142OSM   H14C15544   2.516   0.955   6.798 -1.1804  0.5193 -0.6959
  142OSM    C1315545   2.360   1.187   6.842 -0.6781  0.3117  0.3686
  142OSM   H13A15546   2.307   1.094   6.858 -0.4617  0.1248  0.0133
  142OSM   H13B15547   2.289   1.267   6.826  1.2538  2.3583  1.4394
  142OSM   H13C15548   2.413   1.202   6.935  0.9457 -1.4863 -0.2227
  142OSM    C1215549   2.379   1.108   6.600 -0.2415  0.2073 -0.8314
  142OSM   H12A15550   2.352   1.005   6.620  4.2492 -0.9365  0.5622
  142OSM   H12B15551   2.447   1.111   6.516  0.9226 -0.9291  0.0270
  142OSM    C1115552   2.252   1.198   6.584 -0.1475  0.2787  0.6016
  142OSM   H11A15553   2.172   1.168   6.655  1.6288  1.5642  3.3067
  142OSM   H11B15554   2.216   1.171   6.482  0.1568  0.1561  0.5269
  142OSM      P15555   2.175   1.451   6.588  0.1007  0.5513 -0.1185
  142OSM    O1315556   2.088   1.429   6.704  0.2787  0.0604  0.2869
  142OSM    O1415557   2.223   1.589   6.580  0.3781 -0.3177  0.6248
  142OSM    O1115558   2.090   1.423   6.457  0.3324  0.0441  0.6506
  142OSM    O1215559   2.289   1.340   6.590 -0.5899 -0.1625  0.5956
  142OSM    C1S15560   2.145   1.419   6.319  0.0768 -0.2506 -0.2800
  142OSM    H1S15561   2.256   1.429   6.320  0.1549 -0.9779 -0.9567
  142OSM    H1T15562   2.092   1.504   6.270  0.6920  0.3770  0.1181
  142OSM     NF15563   2.136   1.317   6.098 -0.5257 -0.6592  0.3169
  142OSM    HNF15564   2.066   1.348   6.033 -0.1132 -1.8766 -0.7616
  142OSM    C2S15565   2.090   1.301   6.236  0.1743 -0.0702 -0.2986
  142OSM    H2S15566   2.140   1.214   6.284 -0.1007  0.1214  0.3447
  142OSM    C3S15567   1.936   1.291   6.246  0.5954 -0.1876 -1.2098
  142OSM    H3S15568   1.885   1.377   6.196 -1.1799 -1.0318 -0.9423
  142OSM     O315569   1.891   1.291   6.377 -0.1342  1.0935 -0.5882
  142OSM    HO315570   1.968   1.329   6.420  0.7928 -1.4769  0.2063
  142OSM    C4S15571   1.880   1.166   6.194  0.1996  0.8966  0.3484
  142OSM    H4S15572   1.915   1.073   6.242 -0.3532  0.9627  0.9058
  142OSM    C5S15573   1.809   1.157   6.081 -0.7631 -0.0332 -0.1347
  142OSM    H5S15574   1.783   1.243   6.017 -0.7817  0.6513  0.7660
  142OSM    C6S15575   1.776   1.021   6.026  0.2212 -0.1604  0.2083
  142OSM    H6S15576   1.686   0.975   6.075  0.4712 -0.1946  0.6432
  142OSM    H6T15577   1.858   0.947   6.018 -1.2878 -1.7293 -2.0319
  142OSM    C7S15578   1.748   1.041   5.874  0.2121  0.9031  0.1092
  142OSM    H7S15579   1.672   1.118   5.849  1.5159  2.1930 -0.0319
  142OSM    H7T15580   1.713   0.941   5.840 -1.6132 -0.2144  4.5812
  142OSM    C8S15581   1.880   1.068   5.792 -0.4834 -0.4965  0.0360
  142OSM    H8S15582   1.954   0.986   5.803  0.8180  0.7495  0.9946
  142OSM    H8T15583   1.916   1.167   5.827  0.4648 -0.4115 -1.1066
  142OSM    C9S15584   1.863   1.106   5.643 -0.1803  0.3924  0.1651
  142OSM    H9S15585   1.791   1.190   5.641 -1.5936 -0.7869 -0.9180
  142OSM    H9T15586   1.809   1.030   5.582 -1.6495  1.2962  0.2862
  142OSM   C10S15587   1.990   1.163   5.582 -0.5994 -0.2555 -0.3805
  142OSM   H10S15588   2.078   1.101   5.609 -1.0966 -1.4836 -1.4262
  142OSM   H10T15589   2.008   1.263   5.626 -3.1617 -0.5326  1.5726
  142OSM   C11S15590   1.994   1.188   5.433  0.1916 -0.4700  0.6955
  142OSM   H11S15591   1.976   1.088   5.388  0.1435 -0.6296  1.0638
  142OSM   H11T15592   2.094   1.224   5.401 -0.6398  2.1019  0.7187
  142OSM   C12S15593   1.883   1.277   5.381  0.4583  0.0973  0.2633
  142OSM   H12S15594   1.896   1.382   5.413  2.3009 -0.4333  1.4197
  142OSM   H12T15595   1.783   1.239   5.411 -0.1612 -0.8376 -2.6519
  142OSM   C13S15596   1.876   1.279   5.223 -0.6023 -0.4286 -0.0783
  142OSM   H13S15597   1.857   1.178   5.180 -2.1372  0.5432 -1.8482
  142OSM   H13T15598   1.973   1.314   5.182  0.0783  0.2009  1.9406
  142OSM   C14S15599   1.748   1.360   5.179  0.0345  0.5301 -0.6104
  142OSM   H14S15600   1.775   1.462   5.215  2.5877 -0.1739 -0.2896
  142OSM   H14T15601   1.661   1.323   5.236  2.1512 -1.3935  1.6223
  142OSM   C15S15602   1.716   1.337   5.031  0.0887 -0.5224  0.0540
  142OSM   H15S15603   1.612   1.371   5.011 -0.1830 -1.6744 -0.5735
  142OSM   H15T15604   1.704   1.230   5.005 -2.3186 -0.4186  0.4747
  142OSM   C16S15605   1.812   1.407   4.937  0.0690  0.0825 -0.2851
  142OSM   H16S15606   1.917   1.371   4.940  0.9225  2.2542 -1.7945
  142OSM   H16T15607   1.808   1.513   4.968 -2.6848 -0.2371  0.7132
  142OSM   C17S15608   1.771   1.384   4.790 -0.1053 -0.3036 -0.2507
  142OSM   H17S15609   1.836   1.444   4.722 -0.3457  1.2995  0.8782
  142OSM   H17T15610   1.670   1.431   4.796 -0.4520 -1.1285  0.5487
  142OSM   C18S15611   1.771   1.238   4.736  0.1815 -0.6491 -0.1168
  142OSM   H18S15612   1.713   1.177   4.809  1.0597  0.5339  1.6234
  142OSM   H18T15613   1.873   1.196   4.746  0.7524  1.1325  2.7427
  142OSM   H18U15614   1.729   1.243   4.633  2.0014  0.1079 -0.8611
  142OSM    C1F15615   2.261   1.289   6.061 -0.5502 -0.0942  0.1089
  142OSM     OF15616   2.344   1.262   6.147  0.2443  0.3420  0.1010
  142OSM    C2F15617   2.294   1.281   5.914  0.0963 -0.5450 -0.5127
  142OSM    H2F15618   2.204   1.229   5.874  0.2087 -0.8180 -0.4105
  142OSM    H2G15619   2.377   1.211   5.892 -0.6291 -1.5238 -0.2484
  142OSM    C3F15620   2.311   1.421   5.849 -0.2362  0.0597  0.2318
  142OSM    H3F15621   2.404   1.464   5.893  1.5381 -4.0393  1.0314
  142OSM    H3G15622   2.223   1.485   5.872 -0.5613 -0.1527 -0.4179
  142OSM    C4F15623   2.325   1.420   5.692  0.2536  0.4151  0.0293
  142OSM    H4F15624   2.248   1.355   5.647  1.8129 -1.2090 -0.4300
  142OSM    H4G15625   2.419   1.371   5.660 -0.9633 -2.1832  0.1893
  142OSM    C5F15626   2.341   1.561   5.632 -0.3320 -0.0843  0.1667
  142OSM    H5F15627   2.424   1.608   5.690  0.4776  1.2459 -1.9240
  142OSM    H5G15628   2.243   1.613   5.639  0.0048  0.7224 -0.8436
  142OSM    C6F15629   2.391   1.567   5.485 -0.3200 -0.2481  0.0707
  142OSM    H6F15630   2.496   1.533   5.481 -0.9826 -2.3212 -2.7619
  142OSM    H6G15631   2.389   1.671   5.448 -0.5255  0.1367  1.1248
  142OSM    C7F15632   2.310   1.483   5.396  0.3705  0.2030  0.1024
  142OSM    H7F15633   2.203   1.515   5.395  0.3813  0.4090  2.0344
  142OSM    H7G15634   2.304   1.374   5.414 -1.1955  0.4405  1.2474
  142OSM    C8F15635   2.348   1.498   5.240  0.1714 -0.5153 -0.4718
  142OSM    H8F15636   2.450   1.455   5.250  0.5579  0.7183  1.3434
  142OSM    H8G15637   2.357   1.607   5.217  1.4862 -0.5466 -0.1764
  142OSM    C9F15638   2.261   1.419   5.152 -0.1469 -0.2144  0.9370
  142OSM    H9F15639   2.275   1.310   5.153  2.6023  0.0383 -0.2099
  142OSM   C10F15640   2.192   1.454   5.047 -0.3433  0.1494 -0.0340
  142OSM   H10F15641   2.156   1.366   4.991 -0.9229 -0.4884  1.2740
  142OSM   C11F15642   2.157   1.594   5.004  0.2920 -0.3444  0.0814
  142OSM   H11F15643   2.178   1.666   5.086 -0.0093  0.2301 -0.3350
  142OSM   H11G15644   2.048   1.593   4.983  0.4710 -0.3717 -0.8981
  142OSM   C12F15645   2.226   1.643   4.871  0.1165  0.0108  0.4530
  142OSM   H12F15646   2.236   1.562   4.796 -0.9458  1.2684 -1.1432
  142OSM   H12G15647   2.333   1.666   4.890  0.2041  0.4615 -0.5165
  142OSM   C13F15648   2.178   1.768   4.802  0.2945 -0.3302 -0.3488
  142OSM   H13F15649   2.177   1.856   4.871  1.8809  0.1090 -0.8406
  142OSM   H13G15650   2.072   1.746   4.778 -0.4745  1.5973  1.0424
  142OSM   C14F15651   2.257   1.786   4.679 -0.2158  0.5846  0.1335
  142OSM   H14F15652   2.269   1.686   4.633  2.6016  0.9648 -0.1698
  142OSM   H14G15653   2.355   1.820   4.720  0.3054 -0.2018 -0.4363
  142OSM   C15F15654   2.201   1.894   4.579  0.0229  0.0850 -0.3114
  142OSM   H15F15655   2.209   1.995   4.625 -0.4966 -0.0622  0.1174
  142OSM   H15G15656   2.093   1.872   4.559 -0.4598  0.7372  1.3741
  142OSM   C16F15657   2.279   1.898   4.445 -0.1006 -0.3452 -0.5225
  142OSM   H16F15658   2.227   1.944   4.358 -0.3019  0.7848  0.1722
  142OSM   H16G15659   2.296   1.792   4.419 -2.5536 -0.4287 -2.0810
  142OSM   C17F15660   2.414   1.969   4.465 -0.4181  0.0135  0.2710
  142OSM   H17F15661   2.470   1.915   4.543 -2.1122 -0.7382  1.0143
  142OSM   H17G15662   2.401   2.076   4.492 -1.4685 -0.4322  1.6026
  142OSM   C18F15663   2.493   1.963   4.339  0.0293  0.1616 -0.1038
  142OSM   H18F15664   2.591   2.016   4.347  0.0098  0.4545 -1.5127
  142OSM   H18G15665   2.432   2.014   4.261 -1.4269 -0.6693  0.4602
  142OSM   H18H15666   2.520   1.859   4.309  0.6840  1.0273 -2.7760
  143OSM      N15667   2.964   4.494   6.867 -0.1974 -0.5298  0.0702
  143OSM    C1515668   3.016   4.429   6.993  0.1007  0.2466  0.2202
  143OSM   H15A15669   3.020   4.323   6.976 -0.4050  0.3759 -0.8046
  143OSM   H15B15670   2.953   4.447   7.080 -1.2803 -0.1860 -0.6555
  143OSM   H15C15671   3.117   4.456   7.020  0.4790 -1.5597  0.6919
  143OSM    C1415672   2.998   4.641   6.888  0.5433 -0.1224  1.2030
  143OSM   H14A15673   3.101   4.672   6.878 -0.0564  1.4376 -0.8231
  143OSM   H14B15674   2.948   4.682   6.975 -0.8427  0.9876 -0.0679
  143OSM   H14C15675   2.944   4.690   6.809  1.9700  1.2872  1.0641
  143OSM    C1315676   3.028   4.451   6.739  1.0774 -0.3015 -0.0714
  143OSM   H13A15677   2.975   4.495   6.655  1.3257  0.2545  0.0573
  143OSM   H13B15678   3.027   4.344   6.729 -2.3259 -0.1485 -3.5210
  143OSM   H13C15679   3.127   4.494   6.736  0.5433  0.9731 -0.2936
  143OSM    C1215680   2.815   4.480   6.871 -0.0155 -0.3350 -0.1816
  143OSM   H12A15681   2.787   4.504   6.973  1.4118 -2.8193  0.8994
  143OSM   H12B15682   2.790   4.375   6.862 -1.9888 -0.1252  1.9550
  143OSM    C1115683   2.737   4.561   6.763  0.0602  0.6179  0.4509
  143OSM   H11A15684   2.631   4.528   6.754 -0.3441  1.7055  1.0688
  143OSM   H11B15685   2.786   4.538   6.666  1.2696 -0.7768  1.3518
  143OSM      P15686   2.640   4.788   6.863 -0.4554 -0.1746 -0.6483
  143OSM    O1315687   2.650   4.742   7.003  0.0559 -0.1998  0.3679
  143OSM    O1415688   2.655   4.937   6.844  0.1730  0.6933 -0.1734
  143OSM    O1115689   2.499   4.749   6.802  0.2509  0.0195  0.1297
  143OSM    O1215690   2.742   4.701   6.774  0.0889 -0.2388 -0.3834
  143OSM    C1S15691   2.470   4.780   6.665 -1.0749  0.1538 -0.3367
  143OSM    H1S15692   2.533   4.703   6.616  0.8538 -0.5355  2.9463
  143OSM    H1T15693   2.500   4.883   6.638  1.9118 -0.4646  0.2624
  143OSM     NF15694   2.312   4.760   6.474 -0.5318  0.0277 -0.8613
  143OSM    HNF15695   2.244   4.825   6.439 -1.0871  1.3976  2.3898
  143OSM    C2S15696   2.327   4.754   6.614  0.4984 -0.1667  0.2290
  143OSM    H2S15697   2.308   4.645   6.628 -1.3302  0.0340 -0.3682
  143OSM    C3S15698   2.224   4.836   6.702  0.2154 -0.7442 -0.2070
  143OSM    H3S15699   2.246   4.942   6.676 -0.2706 -0.6432 -0.2254
  143OSM     O315700   2.241   4.830   6.841 -0.1339  0.0656  0.3556
  143OSM    HO315701   2.325   4.786   6.859 -0.1328  0.2138  0.7265
  143OSM    C4S15702   2.088   4.805   6.665  0.7087  0.1070  0.5849
  143OSM    H4S15703   2.057   4.876   6.588  1.3338 -1.5615 -1.2745
  143OSM    C5S15704   2.005   4.712   6.713  0.5067 -0.3947 -0.3373
  143OSM    H5S15705   2.040   4.658   6.802  1.1334  1.0131  0.3147
  143OSM    C6S15706   1.868   4.678   6.657  0.1228  0.8822 -0.0292
  143OSM    H6S15707   1.791   4.753   6.686  0.1486  1.0993 -0.5064
  143OSM    H6T15708   1.824   4.588   6.705 -0.9763 -0.4266 -3.2020
  143OSM    C7S15709   1.860   4.653   6.507  0.0030 -0.2026 -0.0767
  143OSM    H7S15710   1.929   4.573   6.472  0.4644 -1.1206  2.7106
  143OSM    H7T15711   1.892   4.745   6.453  0.0007 -0.2602 -0.1777
  143OSM    C8S15712   1.714   4.621   6.451 -0.3544 -0.2265 -0.5789
  143OSM    H8S15713   1.652   4.713   6.459 -1.4861 -1.0135 -0.1969
  143OSM    H8T15714   1.663   4.546   6.515  0.1313 -0.1808 -0.1337
  143OSM    C9S15715   1.711   4.563   6.313 -0.0853 -0.0599 -0.1550
  143OSM    H9S15716   1.606   4.567   6.277  0.8929  1.2314 -3.2687
  143OSM    H9T15717   1.731   4.455   6.329 -0.8499 -0.2356 -0.3457
  143OSM   C10S15718   1.803   4.621   6.206  0.3026 -0.1708  0.7739
  143OSM   H10S15719   1.794   4.557   6.115  2.2198  1.7373 -0.8543
  143OSM   H10T15720   1.907   4.600   6.239  0.8379  0.5975 -0.3520
  143OSM   C11S15721   1.791   4.771   6.172 -0.2889  0.6411 -0.1658
  143OSM   H11S15722   1.823   4.818   6.268 -0.0782 -0.9117  0.5538
  143OSM   H11T15723   1.686   4.804   6.159 -0.8266 -0.2705  1.5049
  143OSM   C12S15724   1.907   4.820   6.075 -0.1324 -1.0611  0.3124
  143OSM   H12S15725   2.005   4.776   6.102  0.4668  0.0606  0.0316
  143OSM   H12T15726   1.911   4.931   6.073  1.0130 -1.0997 -1.6145
  143OSM   C13S15727   1.863   4.774   5.930 -0.0579  0.3384  0.1333
  143OSM   H13S15728   1.757   4.804   5.924  0.0761  0.7135 -0.4116
  143OSM   H13T15729   1.867   4.664   5.919  2.0103  0.2988  0.8152
  143OSM   C14S15730   1.934   4.830   5.810  0.2993  0.0997  0.1810
  143OSM   H14S15731   2.030   4.776   5.799  0.7189  0.6764  0.9478
  143OSM   H14T15732   1.959   4.937   5.820  0.1936 -0.0356  2.2526
  143OSM   C15S15733   1.859   4.809   5.684  0.5749 -0.0271 -0.4981
  143OSM   H15S15734   1.761   4.858   5.702  0.7832  0.4198 -0.5678
  143OSM   H15T15735   1.860   4.699   5.674  0.5126 -0.1484  0.6601
  143OSM   C16S15736   1.924   4.867   5.550 -0.1605 -0.5346 -0.3290
  143OSM   H16S15737   2.022   4.816   5.534  0.2329  0.4036 -1.0146
  143OSM   H16T15738   1.949   4.974   5.567  1.4569 -1.0806  1.0412
  143OSM   C17S15739   1.833   4.847   5.432  0.1353 -0.4164 -0.1989
  143OSM   H17S15740   1.742   4.909   5.452  1.1153  1.2974 -0.8299
  143OSM   H17T15741   1.801   4.741   5.422 -1.3109 -0.0211 -0.1086
  143OSM   C18S15742   1.895   4.898   5.300  0.4090  0.3817 -0.4076
  143OSM   H18S15743   1.817   4.909   5.222 -1.2372 -2.7271  0.6432
  143OSM   H18T15744   1.965   4.819   5.264  0.4802  0.8314 -1.2834
  143OSM   H18U15745   1.970   4.980   5.310  0.1445  0.5575  0.1909
  143OSM    C1F15746   2.385   4.693   6.380 -0.3283  0.2593  0.2156
  143OSM     OF15747   2.443   4.591   6.409 -0.2310  0.3439 -0.3098
  143OSM    C2F15748   2.387   4.745   6.236  0.1292 -0.2350 -0.0588
  143OSM    H2F15749   2.393   4.854   6.221  0.4619 -0.0462  1.3177
  143OSM    H2G15750   2.291   4.717   6.188 -2.6121  3.4119  2.6904
  143OSM    C3F15751   2.504   4.683   6.160 -0.2390 -0.0434  0.3259
  143OSM    H3F15752   2.482   4.576   6.138 -1.5652  0.7590 -2.8876
  143OSM    H3G15753   2.600   4.701   6.213 -0.3205 -1.0040  0.8146
  143OSM    C4F15754   2.520   4.758   6.023 -0.5865  0.7232  0.1562
  143OSM    H4F15755   2.603   4.712   5.967 -1.5168  1.1016 -1.6285
  143OSM    H4G15756   2.547   4.865   6.040  0.6241  0.5585 -0.6620
  143OSM    C5F15757   2.393   4.743   5.933 -0.1361 -0.2518 -0.2279
  143OSM    H5F15758   2.312   4.795   5.988  0.4024 -0.1664  0.4994
  143OSM    H5G15759   2.372   4.634   5.924 -2.1429  0.0410  0.3298
  143OSM    C6F15760   2.425   4.801   5.792 -0.6378 -0.6113  0.6322
  143OSM    H6F15761   2.484   4.718   5.747  0.7353  0.5697  0.1990
  143OSM    H6G15762   2.477   4.898   5.800  0.0047 -0.7877 -1.1633
  143OSM    C7F15763   2.302   4.825   5.702  0.6209  0.1583  0.0032
  143OSM    H7F15764   2.241   4.911   5.737  3.1678  1.1975  2.2259
  143OSM    H7G15765   2.239   4.733   5.703 -0.2146  0.7182  0.7061
  143OSM    C8F15766   2.350   4.854   5.559  0.1322 -0.3531 -0.0206
  143OSM    H8F15767   2.410   4.947   5.556 -2.6764  1.7715  3.0935
  143OSM    H8G15768   2.260   4.872   5.497  1.1082 -0.6561 -1.5796
  143OSM    C9F15769   2.437   4.744   5.496 -0.5225  0.0390 -1.0783
  143OSM    H9F15770   2.544   4.754   5.521 -0.4592  1.1694 -1.7040
  143OSM   C10F15771   2.408   4.644   5.417 -0.3014 -0.6541  0.5687
  143OSM   H10F15772   2.487   4.583   5.371 -0.4574 -0.2575 -0.2437
  143OSM   C11F15773   2.266   4.617   5.369  0.2298 -0.1493  0.2928
  143OSM   H11F15774   2.189   4.688   5.407  2.0602  1.0984  1.9110
  143OSM   H11G15775   2.227   4.524   5.416  0.7070 -0.2707  0.4547
  143OSM   C12F15776   2.257   4.581   5.218 -0.3653  0.5654 -0.8591
  143OSM   H12F15777   2.152   4.548   5.205 -0.6039  1.4440 -1.2045
  143OSM   H12G15778   2.331   4.504   5.186  2.6274  1.8346  2.4021
  143OSM   C13F15779   2.260   4.704   5.120  0.3691  0.4218 -0.4552
  143OSM   H13F15780   2.362   4.747   5.133  0.4498 -0.3432  2.0403
  143OSM   H13G15781   2.183   4.778   5.151  0.2821  1.6819 -3.4281
  143OSM   C14F15782   2.242   4.675   4.963  0.3174 -0.1588 -0.1666
  143OSM   H14F15783   2.235   4.772   4.910  1.7269  0.6249  1.0082
  143OSM   H14G15784   2.143   4.623   4.962 -0.8393  1.8608  1.6763
  143OSM   C15F15785   2.349   4.572   4.907  0.1567 -0.1207  0.4576
  143OSM   H15F15786   2.329   4.468   4.941 -2.8426  0.1950 -0.0746
  143OSM   H15G15787   2.450   4.598   4.945 -0.0289  0.6785  0.4005
  143OSM   C16F15788   2.345   4.594   4.754 -0.0929  0.2598 -0.7830
  143OSM   H16F15789   2.352   4.702   4.732  0.2704  0.1299 -1.3158
  143OSM   H16G15790   2.246   4.554   4.723  0.5551 -1.1712 -1.0855
  143OSM   C17F15791   2.452   4.508   4.686  0.3078  0.1487  0.4538
  143OSM   H17F15792   2.440   4.404   4.722 -0.2918  0.6914  1.8876
  143OSM   H17G15793   2.551   4.537   4.728  0.2322 -1.5041  1.8782
  143OSM   C18F15794   2.460   4.529   4.535 -0.3691  0.4787 -0.3294
  143OSM   H18F15795   2.492   4.634   4.518  1.1035  0.4384  1.8401
  143OSM   H18G15796   2.363   4.500   4.488  0.4869 -0.2068 -1.7406
  143OSM   H18H15797   2.537   4.456   4.503  0.1422  1.3526 -1.1604
  144OSM      N15798   2.230   4.542   7.234 -0.7265 -0.1607  0.8089
  144OSM    C1515799   2.248   4.587   7.383  0.7420  0.8114 -0.5915
  144OSM   H15A15800   2.156   4.616   7.431 -0.2716 -1.0872 -1.2527
  144OSM   H15B15801   2.319   4.667   7.394  1.5281  0.1274 -0.5798
  144OSM   H15C15802   2.287   4.502   7.437 -0.1420  0.6950 -0.1338
  144OSM    C1415803   2.136   4.426   7.241 -0.3646  0.3476  0.5565
  144OSM   H14A15804   2.114   4.370   7.152 -2.8404 -1.7126  2.3031
  144OSM   H14B15805   2.047   4.454   7.295 -0.9133  0.4150 -0.3685
  144OSM   H14C15806   2.170   4.354   7.315  0.3624  0.4698  0.3521
  144OSM    C1315807   2.164   4.655   7.166 -0.2045 -0.8318 -0.0845
  144OSM   H13A15808   2.084   4.701   7.222  0.7852  2.1029 -0.9270
  144OSM   H13B15809   2.133   4.616   7.069 -0.8376  1.8410 -1.0544
  144OSM   H13C15810   2.237   4.733   7.154 -0.0725 -0.9720 -0.2076
  144OSM    C1215811   2.363   4.504   7.183  0.4072  0.2698 -0.6392
  144OSM   H12A15812   2.396   4.416   7.235 -0.1496  0.0389 -0.6739
  144OSM   H12B15813   2.426   4.587   7.210  0.5052 -0.1809  0.5767
  144OSM    C1115814   2.391   4.484   7.030 -0.0803 -0.3527 -0.0204
  144OSM   H11A15815   2.499   4.475   7.008 -0.0947 -3.4354  0.7489
  144OSM   H11B15816   2.355   4.580   6.987  4.4310  2.4344  1.6106
  144OSM      P15817   2.363   4.230   7.005 -0.0426  0.0162  0.0019
  144OSM    O1315818   2.481   4.234   7.093 -0.8199  0.2159  0.7060
  144OSM    O1415819   2.239   4.162   7.053 -0.1442 -0.5883  0.6119
  144OSM    O1115820   2.408   4.169   6.863  0.0527  0.4244 -0.2236
  144OSM    O1215821   2.318   4.380   6.974 -0.0229  0.0912  0.2882
  144OSM    C1S15822   2.475   4.250   6.768  0.4468  0.2408  0.8158
  144OSM    H1S15823   2.581   4.218   6.762 -0.4576 -3.3930  1.8465
  144OSM    H1T15824   2.477   4.357   6.799 -0.1971  0.1757  1.0873
  144OSM     NF15825   2.502   4.304   6.518  0.2700 -0.0701 -0.4047
  144OSM    HNF15826   2.477   4.395   6.485 -0.0647  0.5931  1.5913
  144OSM    C2S15827   2.418   4.234   6.617  0.6484  0.9389 -0.0306
  144OSM    H2S15828   2.422   4.126   6.592  2.0814  0.9034  0.2946
  144OSM    C3S15829   2.267   4.268   6.618  1.0802 -0.0268 -0.3167
  144OSM    H3S15830   2.253   4.370   6.660 -2.1062  0.0976 -1.4486
  144OSM     O315831   2.201   4.171   6.693  0.0610  0.2046  0.3486
  144OSM    HO315832   2.254   4.144   6.769 -1.7684 -3.1527  0.6403
  144OSM    C4S15833   2.219   4.276   6.480  0.1889 -0.0174 -0.5513
  144OSM    H4S15834   2.225   4.180   6.427  1.1508 -0.3595  0.1653
  144OSM    C5S15835   2.170   4.382   6.413  0.3127  0.1765  0.0524
  144OSM    H5S15836   2.175   4.483   6.455 -0.2973 -0.3644  1.4920
  144OSM    C6S15837   2.119   4.362   6.267 -0.0109 -0.2318  0.1316
  144OSM    H6S15838   2.009   4.368   6.255  0.1767  2.8749 -0.7322
  144OSM    H6T15839   2.152   4.261   6.235  2.8210  1.1278 -1.6062
  144OSM    C7S15840   2.184   4.463   6.176  0.2014  0.2678 -0.6604
  144OSM    H7S15841   2.288   4.442   6.145  0.1766  0.7890 -1.1209
  144OSM    H7T15842   2.193   4.556   6.236 -1.7034 -1.2645  2.2312
  144OSM    C8S15843   2.094   4.481   6.044  0.1909  0.3629  0.4556
  144OSM    H8S15844   2.093   4.589   6.020 -3.9495  1.0399  2.6486
  144OSM    H8T15845   1.988   4.470   6.077  0.0308  0.8385  0.1050
  144OSM    C9S15846   2.124   4.406   5.917 -0.2125  0.1680 -0.6177
  144OSM    H9S15847   2.121   4.298   5.939  1.3870 -0.1716 -1.8722
  144OSM    H9T15848   2.224   4.427   5.873 -0.0061 -1.7121 -1.1433
  144OSM   C10S15849   2.038   4.453   5.799 -0.1147  0.1027  0.0054
  144OSM   H10S15850   2.048   4.560   5.771  0.9082  0.5133  1.8107
  144OSM   H10T15851   1.931   4.430   5.816 -0.0338 -0.3765 -0.1014
  144OSM   C11S15852   2.068   4.362   5.675  0.0162  0.0046 -0.0942
  144OSM   H11S15853   2.071   4.252   5.691  1.0534  0.1147  0.5287
  144OSM   H11T15854   2.171   4.389   5.643  0.4239 -0.2935  0.9389
  144OSM   C12S15855   1.974   4.375   5.564  0.4812 -0.1662  0.1527
  144OSM   H12S15856   1.957   4.483   5.546  2.2824 -0.2232 -2.3022
  144OSM   H12T15857   1.879   4.327   5.598  0.1393  1.3108  1.4261
  144OSM   C13S15858   2.016   4.309   5.433  0.6821  0.8411 -0.1627
  144OSM   H13S15859   2.062   4.210   5.451 -0.3043  0.5069  0.6009
  144OSM   H13T15860   2.094   4.379   5.395  0.7647  2.1539  2.2182
  144OSM   C14S15861   1.912   4.290   5.326 -0.2169  0.2991 -0.8168
  144OSM   H14S15862   1.884   4.389   5.284  0.5455  0.7111 -0.3692
  144OSM   H14T15863   1.827   4.238   5.376  0.2455  0.9391  0.6983
  144OSM   C15S15864   1.956   4.195   5.212 -0.0206 -0.3311 -0.0903
  144OSM   H15S15865   1.872   4.188   5.139 -0.7705  0.8262  0.6218
  144OSM   H15T15866   1.970   4.101   5.269  0.6226  0.3001  0.8341
  144OSM   C16S15867   2.074   4.242   5.121 -0.0526  0.4130 -0.1156
  144OSM   H16S15868   2.153   4.277   5.191  1.2073  0.0292 -1.3097
  144OSM   H16T15869   2.046   4.329   5.058 -0.4254  0.6896  0.4282
  144OSM   C17S15870   2.126   4.138   5.018  0.2551  0.7179  0.1684
  144OSM   H17S15871   2.049   4.139   4.937  0.4864  0.1513 -0.0625
  144OSM   H17T15872   2.134   4.035   5.058  1.2214  1.0276  0.8008
  144OSM   C18S15873   2.268   4.176   4.954  0.4217  0.0440 -0.3807
  144OSM   H18S15874   2.261   4.279   4.914  1.1221  0.6378  0.9542
  144OSM   H18T15875   2.284   4.110   4.866 -1.7995 -0.6380 -0.3227
  144OSM   H18U15876   2.347   4.171   5.032 -0.5934 -0.7084  0.6455
  144OSM    C1F15877   2.625   4.270   6.477 -0.0903  0.3142 -0.0216
  144OSM     OF15878   2.684   4.178   6.538 -0.7872 -0.0968 -0.0471
  144OSM    C2F15879   2.685   4.341   6.356 -0.1372 -0.3468 -0.2188
  144OSM    H2F15880   2.791   4.309   6.351 -0.0858  0.0158 -2.8029
  144OSM    H2G15881   2.674   4.449   6.377  0.5178 -0.2174 -0.5369
  144OSM    C3F15882   2.610   4.312   6.224  0.5139 -0.3970 -0.4418
  144OSM    H3F15883   2.517   4.373   6.225  0.4923 -0.4236  0.4813
  144OSM    H3G15884   2.571   4.209   6.216  1.7856 -0.9133 -0.2041
  144OSM    C4F15885   2.691   4.341   6.103  0.0804 -0.3058  0.0927
  144OSM    H4F15886   2.789   4.290   6.105  0.4573  0.3554 -0.7602
  144OSM    H4G15887   2.714   4.450   6.098 -2.2316  0.2033 -0.8494
  144OSM    C5F15888   2.611   4.294   5.975 -0.2846  1.0848 -0.4747
  144OSM    H5F15889   2.513   4.346   5.976 -1.5671 -1.0676  2.7629
  144OSM    H5G15890   2.599   4.184   5.961  0.1862  1.1571 -1.5831
  144OSM    C6F15891   2.679   4.330   5.837  0.1034  0.2288 -0.2660
  144OSM    H6F15892   2.696   4.439   5.823  0.7475  0.1162 -0.3728
  144OSM    H6G15893   2.610   4.302   5.754 -1.0810 -1.2709  1.1674
  144OSM    C7F15894   2.805   4.248   5.812 -0.4857  0.0796 -0.4269
  144OSM    H7F15895   2.772   4.144   5.831 -2.7762  0.6225 -1.0891
  144OSM    H7G15896   2.879   4.279   5.890 -1.1671 -0.2204  0.3531
  144OSM    C8F15897   2.859   4.289   5.674 -0.0070  0.3294 -0.4726
  144OSM    H8F15898   2.877   4.398   5.675  0.4452  0.2638  0.9166
  144OSM    H8G15899   2.778   4.258   5.604 -1.8581  1.8724  0.8937
  144OSM    C9F15900   2.983   4.203   5.647  0.0576 -0.1216  0.0274
  144OSM    H9F15901   3.040   4.174   5.737 -0.9560 -0.5865  0.5308
  144OSM   C10F15902   3.016   4.148   5.528 -1.1084 -0.1596 -0.2656
  144OSM   H10F15903   3.102   4.079   5.536 -1.5385 -0.5623  1.2209
  144OSM   C11F15904   2.952   4.159   5.391 -0.1241 -0.2042 -0.3664
  144OSM   H11F15905   2.904   4.259   5.389  0.5838  0.1453 -0.4810
  144OSM   H11G15906   2.879   4.076   5.391  1.5196 -1.7661  1.8204
  144OSM   C12F15907   3.048   4.156   5.269 -0.6105  0.4129  0.7340
  144OSM   H12F15908   3.136   4.221   5.291  1.6603 -2.1685 -0.1666
  144OSM   H12G15909   2.996   4.199   5.180 -2.3987 -0.6208  1.2446
  144OSM   C13F15910   3.096   4.011   5.244 -1.0650  0.2336  0.0138
  144OSM   H13F15911   3.010   3.943   5.225 -0.7105  0.0266 -0.8823
  144OSM   H13G15912   3.147   3.988   5.340 -0.3547 -0.1212 -0.4394
  144OSM   C14F15913   3.188   3.995   5.124  0.5647  0.5101 -0.5815
  144OSM   H14F15914   3.281   4.056   5.126  0.2509  1.0014 -0.7320
  144OSM   H14G15915   3.125   4.022   5.037 -0.7530 -1.7968 -0.4512
  144OSM   C15F15916   3.210   3.842   5.098 -0.3387 -0.4162  0.2714
  144OSM   H15F15917   3.108   3.797   5.098 -0.9299  0.8696  0.8674
  144OSM   H15G15918   3.273   3.788   5.173  1.8933  2.3326  0.5531
  144OSM   C16F15919   3.288   3.817   4.959 -0.2254 -0.2525 -1.2310
  144OSM   H16F15920   3.396   3.797   4.979 -0.4129 -0.2179 -0.1441
  144OSM   H16G15921   3.289   3.906   4.892 -1.3892 -0.4229 -1.4956
  144OSM   C17F15922   3.253   3.687   4.872  0.2964  0.6643  0.0334
  144OSM   H17F15923   3.147   3.687   4.838  0.6148  0.6955 -0.9890
  144OSM   H17G15924   3.260   3.598   4.940 -3.3634  2.5552  3.3348
  144OSM   C18F15925   3.346   3.685   4.754 -0.6369 -0.1597  0.6057
  144OSM   H18F15926   3.345   3.588   4.700  0.4977 -0.6203  1.3819
  144OSM   H18G15927   3.451   3.710   4.782 -1.1951  0.9553  1.8078
  144OSM   H18H15928   3.321   3.766   4.683  3.7923 -0.7327 -1.9763
  145OSM      N15929   3.519   6.520   6.747  0.5226 -0.8010 -0.4172
  145OSM    C1515930   3.448   6.583   6.867 -0.8046 -1.1148 -0.3562
  145OSM   H15A15931   3.465   6.690   6.875 -2.6612 -0.7563 -0.7960
  145OSM   H15B15932   3.471   6.532   6.959  1.3428  1.2684  0.5755
  145OSM   H15C15933   3.342   6.567   6.865 -0.8114 -1.1171 -3.1634
  145OSM    C1415934   3.666   6.524   6.782  0.5818 -0.0361  0.1058
  145OSM   H14A15935   3.696   6.616   6.831  2.3878  0.1855 -1.3271
  145OSM   H14B15936   3.724   6.502   6.694  0.1081  1.3832 -0.5951
  145OSM   H14C15937   3.686   6.437   6.843 -0.4028 -0.7562 -0.5859
  145OSM    C1315938   3.467   6.380   6.732 -0.7546 -0.1162  0.2437
  145OSM   H13A15939   3.485   6.315   6.816  2.2181 -1.9085 -1.5723
  145OSM   H13B15940   3.521   6.338   6.648  0.3801 -0.9440  1.3478
  145OSM   H13C15941   3.365   6.369   6.698 -0.1406 -0.9437 -1.4535
  145OSM    C1215942   3.490   6.604   6.624 -0.3347  0.1293  0.7504
  145OSM   H12A15943   3.541   6.697   6.643 -0.5067  0.2144  0.8009
  145OSM   H12B15944   3.384   6.612   6.606 -0.5953 -0.7617  1.7768
  145OSM    C1115945   3.551   6.544   6.488 -0.5216  0.4593 -0.2073
  145OSM   H11A15946   3.651   6.501   6.509 -0.2857  1.3600  0.6419
  145OSM   H11B15947   3.568   6.626   6.415  0.2734  0.0322 -0.5153
  145OSM      P15948   3.327   6.483   6.372 -0.3824 -0.0172  0.1199
  145OSM    O1315949   3.301   6.403   6.254  0.3085  0.3646 -0.0349
  145OSM    O1415950   3.228   6.470   6.481  0.3156 -0.0350  0.2763
  145OSM    O1115951   3.337   6.642   6.321 -0.0769  0.5683  0.2713
  145OSM    O1215952   3.471   6.443   6.433 -0.6570  0.0077 -0.3751
  145OSM    C1S15953   3.413   6.677   6.206  0.1541  0.7916  0.2171
  145OSM    H1S15954   3.490   6.601   6.182 -2.5128 -2.0037 -0.0925
  145OSM    H1T15955   3.458   6.775   6.233  2.4173 -0.5666  1.6565
  145OSM     NF15956   3.422   6.685   5.967  0.0056  0.3788  0.4043
  145OSM    HNF15957   3.448   6.775   5.935 -2.9297  0.6241 -1.7482
  145OSM    C2S15958   3.330   6.669   6.075  0.0112 -0.3252 -0.1459
  145OSM    H2S15959   3.293   6.564   6.070  2.4065 -1.2582  0.5334
  145OSM    C3S15960   3.217   6.774   6.080  1.0037  0.2663 -0.6460
  145OSM    H3S15961   3.251   6.879   6.094 -0.7443  0.8770 -0.7014
  145OSM     O315962   3.130   6.750   6.197  0.5577 -0.0358  0.3899
  145OSM    HO315963   3.195   6.709   6.254  0.0770  0.5160  1.3616
  145OSM    C4S15964   3.123   6.761   5.964 -0.2953  0.5822 -0.1232
  145OSM    H4S15965   3.087   6.659   5.945  0.2036  0.8370 -2.7718
  145OSM    C5S15966   3.092   6.862   5.883 -0.1463 -0.0503 -0.6155
  145OSM    H5S15967   3.137   6.959   5.906  3.2737 -1.8032  0.8080
  145OSM    C6S15968   3.012   6.856   5.756 -0.4534 -0.2705 -0.6834
  145OSM    H6S15969   3.063   6.921   5.683  1.6776  0.6192  1.4579
  145OSM    H6T15970   2.905   6.881   5.772  0.3410  2.4811  1.0954
  145OSM    C7S15971   3.010   6.726   5.674 -0.3069 -0.3950  0.0117
  145OSM    H7S15972   2.968   6.645   5.739 -2.4874 -0.0207 -0.8267
  145OSM    H7T15973   3.114   6.703   5.644  0.1266  1.7041 -0.2383
  145OSM    C8S15974   2.939   6.742   5.540 -0.5028 -0.2774 -0.0914
  145OSM    H8S15975   2.972   6.836   5.491  0.9686 -0.7189  0.0025
  145OSM    H8T15976   2.828   6.747   5.551 -0.4549 -0.3417  0.4734
  145OSM    C9S15977   2.971   6.623   5.446  0.2838  0.2613  0.2760
  145OSM    H9S15978   2.923   6.528   5.480  0.9860 -0.0773  0.3273
  145OSM    H9T15979   3.078   6.599   5.433 -0.4803 -2.6902 -1.8565
  145OSM   C10S15980   2.921   6.654   5.304  0.5104 -0.0259  0.1344
  145OSM   H10S15981   2.982   6.741   5.272  1.7142 -0.3949  1.3090
  145OSM   H10T15982   2.816   6.690   5.297  0.5275  0.3451  1.5914
  145OSM   C11S15983   2.939   6.527   5.215 -0.3591  0.2389 -0.5348
  145OSM   H11S15984   2.896   6.440   5.270 -0.1466  1.0663  0.9989
  145OSM   H11T15985   3.043   6.489   5.204 -0.9919 -1.4576 -1.0640
  145OSM   C12S15986   2.870   6.531   5.081  0.6948  0.8569 -0.0786
  145OSM   H12S15987   2.904   6.625   5.031 -1.2525  1.7767  0.2304
  145OSM   H12T15988   2.759   6.526   5.087  0.8461 -1.3892  4.0654
  145OSM   C13S15989   2.917   6.414   4.991  0.3061  0.5632 -1.0415
  145OSM   H13S15990   2.887   6.316   5.034  0.2563  1.4530  1.0520
  145OSM   H13T15991   3.028   6.408   4.990  0.2284 -1.8100 -0.5971
  145OSM   C14S15992   2.852   6.412   4.852 -0.0224 -0.3253  0.2392
  145OSM   H14S15993   2.746   6.439   4.867  0.7616  2.2446  1.8807
  145OSM   H14T15994   2.842   6.310   4.808 -1.3616  0.5206 -1.5366
  145OSM   C15S15995   2.896   6.525   4.750  0.2045 -0.0367  0.1097
  145OSM   H15S15996   2.872   6.628   4.785 -0.5912  0.4427 -1.7341
  145OSM   H15T15997   2.844   6.504   4.654 -0.3838  1.2699  0.1246
  145OSM   C16S15998   3.041   6.525   4.713  0.4349 -0.6989  0.5672
  145OSM   H16S15999   3.057   6.421   4.678  0.9344 -0.4158 -0.0707
  145OSM   H16T16000   3.113   6.542   4.797  1.9336 -1.2470 -0.5600
  145OSM   C17S16001   3.069   6.633   4.608  0.1657 -0.4234 -0.0559
  145OSM   H17S16002   3.178   6.652   4.602  0.2255 -0.8384 -0.3183
  145OSM   H17T16003   3.027   6.723   4.657 -0.9936 -1.4538  0.9172
  145OSM   C18S16004   3.016   6.610   4.466  0.2170 -0.9408 -0.1298
  145OSM   H18S16005   2.905   6.617   4.464  0.3391  2.6044 -0.6009
  145OSM   H18T16006   3.031   6.509   4.423  0.4133 -1.3036  0.7574
  145OSM   H18U16007   3.064   6.690   4.407 -1.2969 -0.1101 -0.2950
  145OSM    C1F16008   3.496   6.585   5.919 -1.0063  0.2292 -0.1404
  145OSM     OF16009   3.497   6.471   5.977  0.4064 -0.3574 -0.1120
  145OSM    C2F16010   3.591   6.614   5.806 -0.0812 -0.2020 -0.0117
  145OSM    H2F16011   3.692   6.588   5.845 -0.9818 -1.6921  1.5167
  145OSM    H2G16012   3.572   6.714   5.763  0.5804  0.1540  0.5064
  145OSM    C3F16013   3.559   6.527   5.685 -0.4903  0.1513 -0.2703
  145OSM    H3F16014   3.457   6.548   5.646 -1.0651 -1.3552  0.3384
  145OSM    H3G16015   3.565   6.419   5.708  1.7924  0.3103  0.0714
  145OSM    C4F16016   3.660   6.561   5.571 -0.3357 -0.2048 -0.0450
  145OSM    H4F16017   3.761   6.519   5.592  0.4123  1.7831  0.5461
  145OSM    H4G16018   3.672   6.671   5.563 -1.7723  0.1282  1.6958
  145OSM    C5F16019   3.616   6.499   5.439  0.5744 -0.0665  0.2674
  145OSM    H5F16020   3.538   6.557   5.385  0.9926  1.5294  1.3024
  145OSM    H5G16021   3.577   6.396   5.455  1.5423 -0.5627 -0.4534
  145OSM    C6F16022   3.739   6.495   5.344  0.0964  0.0902  0.2290
  145OSM    H6F16023   3.825   6.428   5.368 -1.3423 -1.6958  0.6588
  145OSM    H6G16024   3.785   6.596   5.345  0.4191  0.0247  3.6294
  145OSM    C7F16025   3.703   6.471   5.199  0.0699 -0.2590 -0.5043
  145OSM    H7F16026   3.609   6.530   5.188  0.3019  1.0811  3.1583
  145OSM    H7G16027   3.672   6.368   5.174 -0.4362 -0.3417  0.4481
  145OSM    C8F16028   3.804   6.512   5.091 -1.1062 -0.3634  0.7443
  145OSM    H8F16029   3.852   6.610   5.115  0.4130 -0.7526 -0.5526
  145OSM    H8G16030   3.751   6.518   4.994 -2.0046 -2.0003  1.1034
  145OSM    C9F16031   3.917   6.406   5.084 -0.4342  0.5328  0.9354
  145OSM    H9F16032   3.993   6.406   5.163  0.6785 -0.8408 -0.0817
  145OSM   C10F16033   3.944   6.323   4.979  0.2145 -0.2172  0.3185
  145OSM   H10F16034   4.027   6.252   4.986 -1.0748 -2.1734 -2.4142
  145OSM   C11F16035   3.862   6.299   4.853 -0.2318 -1.1026 -0.0026
  145OSM   H11F16036   3.881   6.387   4.788 -0.2501 -0.3708  0.9729
  145OSM   H11G16037   3.754   6.295   4.879  0.2682  0.6195  2.7109
  145OSM   C12F16038   3.911   6.189   4.762  0.5168  0.9938 -0.3358
  145OSM   H12F16039   3.832   6.147   4.696 -0.6023 -2.0898  2.6752
  145OSM   H12G16040   3.935   6.103   4.828  2.8627  0.1257 -2.1674
  145OSM   C13F16041   4.033   6.214   4.674 -0.3152 -0.1379 -0.5457
  145OSM   H13F16042   4.121   6.218   4.741 -1.0100 -0.5665  0.4218
  145OSM   H13G16043   4.021   6.310   4.619  1.0743  0.1521 -0.3737
  145OSM   C14F16044   4.044   6.105   4.571 -0.1198 -0.0646  0.0170
  145OSM   H14F16045   3.967   6.110   4.491  0.8222 -3.0921 -1.2412
  145OSM   H14G16046   4.027   6.004   4.614  1.3895 -1.4100 -2.3325
  145OSM   C15F16047   4.179   6.106   4.504  0.5126  0.6441  0.0517
  145OSM   H15F16048   4.189   6.005   4.459  0.0223  0.6951 -0.1840
  145OSM   H15G16049   4.255   6.115   4.585  0.1158  0.9516  0.3958
  145OSM   C16F16050   4.189   6.211   4.383 -0.3702  0.3409 -0.7358
  145OSM   H16F16051   4.182   6.313   4.426  1.3990 -0.1037  0.7609
  145OSM   H16G16052   4.116   6.189   4.303  0.6400  1.2027 -1.9383
  145OSM   C17F16053   4.332   6.200   4.323 -0.2104  0.0463 -0.1930
  145OSM   H17F16054   4.353   6.098   4.283  0.3867 -0.5958  1.6801
  145OSM   H17G16055   4.411   6.233   4.394  1.4614  1.8571 -2.6972
  145OSM   C18F16056   4.349   6.294   4.206  0.3655  0.6289  0.4770
  145OSM   H18F16057   4.322   6.399   4.230 -1.1336 -0.4471  4.2060
  145OSM   H18G16058   4.282   6.268   4.122  0.3386  0.8240  0.4381
  145OSM   H18H16059   4.451   6.301   4.162  0.7014 -0.2093  1.0929
  146OSM      N16060   0.468   0.995   7.179 -0.4440 -0.5666 -0.2715
  146OSM    C1516061   0.378   0.885   7.230 -1.1202  0.3225  0.1292
  146OSM   H15A16062   0.310   0.854   7.152 -1.3801 -0.1612  0.5401
  146OSM   H15B16063   0.324   0.924   7.315  0.5689  2.3563  0.3559
  146OSM   H15C16064   0.442   0.807   7.266  1.0529  2.0397  0.1931
  146OSM    C1416065   0.386   1.105   7.127  0.2120 -0.1834 -0.4711
  146OSM   H14A16066   0.308   1.124   7.200 -0.2378 -1.9489 -0.4392
  146OSM   H14B16067   0.338   1.056   7.043  3.6264 -0.0014 -2.7225
  146OSM   H14C16068   0.438   1.191   7.087 -0.1347  0.9917  1.4950
  146OSM    C1316069   0.535   1.053   7.307  0.8648 -0.3913 -0.0922
  146OSM   H13A16070   0.597   1.136   7.275  0.4774 -0.5296 -1.2314
  146OSM   H13B16071   0.601   0.981   7.354  3.5043  0.0988 -2.7151
  146OSM   H13C16072   0.460   1.092   7.374  1.6881  1.1286  0.0052
  146OSM    C1216073   0.571   0.950   7.077  0.3892 -0.1662 -0.2172
  146OSM   H12A16074   0.631   0.873   7.122 -0.9398 -1.6552 -0.9045
  146OSM   H12B16075   0.640   1.031   7.058 -0.4369  0.8767  1.0512
  146OSM    C1116076   0.520   0.900   6.943  0.5079 -0.2048  0.3504
  146OSM   H11A16077   0.436   0.830   6.962  1.1149 -2.1297 -3.1200
  146OSM   H11B16078   0.604   0.841   6.900 -1.7958 -1.2324 -3.1120
  146OSM      P16079   0.561   1.078   6.745  0.1294  0.2717  0.1255
  146OSM    O1316080   0.491   1.204   6.709 -0.9805  0.1702  0.1310
  146OSM    O1416081   0.696   1.094   6.799 -0.1669  0.4156  0.6442
  146OSM    O1116082   0.550   0.980   6.620 -0.0751 -0.5565 -0.3142
  146OSM    O1216083   0.469   0.997   6.845  0.1225 -0.1594  0.0675
  146OSM    C1S16084   0.426   0.921   6.593  0.3823 -0.0894 -0.0237
  146OSM    H1S16085   0.337   0.987   6.607  0.2427 -0.1228 -0.6849
  146OSM    H1T16086   0.409   0.831   6.656 -0.9903 -0.4114 -0.8136
  146OSM     NF16087   0.283   0.845   6.407 -0.4627  0.5110 -0.8088
  146OSM    HNF16088   0.258   0.760   6.361 -2.3091 -0.1578  1.2708
  146OSM    C2S16089   0.415   0.874   6.447 -0.0348  0.4665  0.3149
  146OSM    H2S16090   0.450   0.949   6.373 -0.4495  1.6530  1.2754
  146OSM    C3S16091   0.518   0.758   6.425  0.2799 -0.9785 -0.2917
  146OSM    H3S16092   0.503   0.683   6.506 -3.2127  0.3882  0.5035
  146OSM     O316093   0.654   0.803   6.440 -0.2232  0.3180 -0.0068
  146OSM    HO316094   0.648   0.891   6.478  0.2676  1.2598 -1.9738
  146OSM    C4S16095   0.514   0.699   6.283  0.6466  0.1362  0.1144
  146OSM    H4S16096   0.446   0.613   6.281  1.4785 -0.6904  2.6574
  146OSM    C5S16097   0.577   0.728   6.165  0.1774  0.4538 -0.4283
  146OSM    H5S16098   0.659   0.800   6.181  0.4861 -0.5760  3.8678
  146OSM    C6S16099   0.565   0.654   6.034 -0.4685  0.3164  0.0427
  146OSM    H6S16100   0.468   0.600   6.029 -0.2519  0.0014 -1.0192
  146OSM    H6T16101   0.645   0.577   6.030 -0.3277  0.4800 -0.3901
  146OSM    C7S16102   0.570   0.739   5.906  0.0433  0.4238  0.2823
  146OSM    H7S16103   0.665   0.796   5.909  0.2312  0.1050  0.3984
  146OSM    H7T16104   0.485   0.812   5.911 -1.5033 -0.9771 -2.8092
  146OSM    C8S16105   0.560   0.664   5.777 -0.1853 -0.3134  0.2623
  146OSM    H8S16106   0.468   0.605   5.793  0.3536 -0.8443  1.5586
  146OSM    H8T16107   0.636   0.583   5.772 -1.3885 -1.4718  0.2643
  146OSM    C9S16108   0.524   0.738   5.643 -0.4684 -0.3659 -0.2614
  146OSM    H9S16109   0.597   0.820   5.626 -0.9065  0.2544  0.8026
  146OSM    H9T16110   0.424   0.781   5.664  0.7748  2.2130  0.7655
  146OSM   C10S16111   0.518   0.643   5.516  0.5119 -0.4223 -0.3042
  146OSM   H10S16112   0.447   0.564   5.549 -0.1744  0.6924  0.9744
  146OSM   H10T16113   0.620   0.605   5.495  0.2677 -2.5349  1.9199
  146OSM   C11S16114   0.455   0.715   5.395 -0.4844 -0.5874  0.6296
  146OSM   H11S16115   0.499   0.815   5.379 -2.6938  0.2548 -0.7366
  146OSM   H11T16116   0.346   0.734   5.406 -0.4542 -0.4456  0.6917
  146OSM   C12S16117   0.473   0.627   5.271  0.0129 -0.1536  0.0444
  146OSM   H12S16118   0.380   0.623   5.210 -1.8966  1.1717  2.7109
  146OSM   H12T16119   0.501   0.522   5.294 -0.7903  0.0651  2.1914
  146OSM   C13S16120   0.569   0.698   5.173 -0.3315  1.0460  0.4980
  146OSM   H13S16121   0.674   0.693   5.209  0.1921 -0.8444 -1.1143
  146OSM   H13T16122   0.531   0.802   5.171 -0.0802  1.1289 -0.0651
  146OSM   C14S16123   0.568   0.638   5.032 -0.6597 -1.1574  0.1191
  146OSM   H14S16124   0.463   0.644   4.996 -0.0476  0.5327 -1.6152
  146OSM   H14T16125   0.598   0.531   5.031  0.3288 -0.8972  0.1530
  146OSM   C15S16126   0.650   0.729   4.935 -0.6981 -0.8867  0.6012
  146OSM   H15S16127   0.757   0.742   4.960 -0.1566 -0.1061 -1.8562
  146OSM   H15T16128   0.603   0.830   4.937 -0.7612 -0.9179  2.3197
  146OSM   C16S16129   0.630   0.663   4.790  0.2188  0.0143 -0.3757
  146OSM   H16S16130   0.522   0.675   4.770  0.1591  0.0809 -0.0341
  146OSM   H16T16131   0.648   0.554   4.805  2.1096  0.3574  0.1342
  146OSM   C17S16132   0.703   0.724   4.671  0.6958  0.0614 -0.6266
  146OSM   H17S16133   0.807   0.710   4.707  0.1332  0.1039  1.1254
  146OSM   H17T16134   0.695   0.835   4.670 -0.1822  0.0061 -0.8034
  146OSM   C18S16135   0.654   0.652   4.545 -0.7148 -0.5604  0.1570
  146OSM   H18S16136   0.566   0.710   4.509 -1.8566 -1.0606  2.0039
  146OSM   H18T16137   0.622   0.552   4.579  1.3308 -0.7038  1.8761
  146OSM   H18U16138   0.736   0.654   4.470 -1.2900  0.3216 -0.4719
  146OSM    C1F16139   0.177   0.935   6.411  0.2138 -1.3853 -0.2184
  146OSM     OF16140   0.196   1.053   6.432 -0.4640 -0.7553  0.0722
  146OSM    C2F16141   0.042   0.883   6.382 -0.7155  1.0167  0.4737
  146OSM    H2F16142  -0.026   0.908   6.466 -0.9709  0.7011  0.3639
  146OSM    H2G16143   0.051   0.773   6.368  1.5266  0.8965  2.2081
  146OSM    C3F16144  -0.017   0.946   6.260  0.1474 -0.4795 -0.2607
  146OSM    H3F16145   0.051   0.924   6.175  1.5361 -0.5096  0.8126
  146OSM    H3G16146  -0.020   1.054   6.288 -0.7815 -1.0529  2.1011
  146OSM    C4F16147  -0.159   0.891   6.234 -0.5831 -0.1709  0.2858
  146OSM    H4F16148  -0.207   0.908   6.333  0.5739  2.5459  0.4798
  146OSM    H4G16149  -0.148   0.784   6.207  1.2721  0.2222 -0.6927
  146OSM    C5F16150  -0.245   0.963   6.133 -0.2585 -1.0153 -0.2238
  146OSM    H5F16151  -0.253   1.065   6.178  2.0900 -0.5149 -0.8012
  146OSM    H5G16152  -0.343   0.914   6.116 -0.3110 -0.1717 -2.8099
  146OSM    C6F16153  -0.183   0.979   5.988 -0.5613  0.3956 -0.5803
  146OSM    H6F16154  -0.165   0.873   5.961  0.6291 -0.0465  1.6874
  146OSM    H6G16155  -0.082   1.024   6.000  0.8357 -2.3706 -1.2261
  146OSM    C7F16156  -0.272   1.055   5.892 -0.3127  0.0465  0.4946
  146OSM    H7F16157  -0.217   1.073   5.797 -2.8656  1.7965 -0.7508
  146OSM    H7G16158  -0.301   1.153   5.935  0.9213  1.1107 -0.9830
  146OSM    C8F16159  -0.403   0.983   5.843 -0.1874  0.2250  0.3384
  146OSM    H8F16160  -0.480   1.055   5.809  0.7924  0.5660 -1.3155
  146OSM    H8G16161  -0.452   0.943   5.934 -1.0206 -0.7204 -0.4939
  146OSM    C9F16162  -0.378   0.874   5.742  0.0062 -0.9657  0.0754
  146OSM    H9F16163  -0.341   0.780   5.787  0.3600 -0.6227  0.5054
  146OSM   C10F16164  -0.360   0.892   5.614  0.7461 -1.2073  0.0517
  146OSM   H10F16165  -0.345   0.809   5.543 -1.7730 -0.4024 -1.5507
  146OSM   C11F16166  -0.384   1.017   5.537 -0.4181 -0.1877 -0.5143
  146OSM   H11F16167  -0.423   1.095   5.607 -1.3178 -1.0754  0.0007
  146OSM   H11G16168  -0.470   1.001   5.468 -0.3072  1.8147 -1.1830
  146OSM   C12F16169  -0.264   1.066   5.461  0.7459  0.1269  0.5341
  146OSM   H12F16170  -0.188   1.093   5.538  0.4246 -2.6962  1.9691
  146OSM   H12G16171  -0.288   1.163   5.413 -0.0494  1.1915  2.9177
  146OSM   C13F16172  -0.190   0.970   5.370  0.1864 -0.4168  0.0281
  146OSM   H13F16173  -0.159   0.875   5.419 -0.1382  0.1463  1.3745
  146OSM   H13G16174  -0.090   1.009   5.342 -0.2977 -0.7564 -2.3520
  146OSM   C14F16175  -0.255   0.945   5.231 -0.1816 -0.6073 -0.2409
  146OSM   H14F16176  -0.327   1.027   5.211 -0.2815 -0.1012  1.9285
  146OSM   H14G16177  -0.192   0.951   5.139 -1.3535  1.4052 -0.9630
  146OSM   C15F16178  -0.321   0.810   5.237 -0.3797 -0.0562 -0.1416
  146OSM   H15F16179  -0.376   0.812   5.333 -1.1740  1.4623 -0.6032
  146OSM   H15G16180  -0.251   0.724   5.249 -1.2987 -0.6712  1.0590
  146OSM   C16F16181  -0.421   0.782   5.129 -0.0679  0.5421 -0.3115
  146OSM   H16F16182  -0.497   0.863   5.124 -1.1186 -0.3899 -0.0211
  146OSM   H16G16183  -0.475   0.685   5.139  1.8311 -0.8453 -2.5810
  146OSM   C17F16184  -0.355   0.779   4.988 -0.6000 -0.4230 -0.0201
  146OSM   H17F16185  -0.268   0.711   4.991 -1.0424 -1.0464 -0.8783
  146OSM   H17G16186  -0.312   0.882   4.987 -1.4948 -0.0363 -0.0315
  146OSM   C18F16187  -0.461   0.746   4.880 -0.2245  0.4732  0.2043
  146OSM   H18F16188  -0.483   0.637   4.881 -0.8252  0.5809 -0.5189
  146OSM   H18G16189  -0.428   0.755   4.774 -2.6412 -1.9097 -0.8833
  146OSM   H18H16190  -0.547   0.815   4.888 -0.0943  0.9574 -1.9121
  147OSM      N16191   1.181   6.023   2.361  0.6606 -0.4209 -0.2040
  147OSM    C1516192   1.244   5.895   2.402  0.3258 -0.6571  0.2410
  147OSM   H15A16193   1.230   5.880   2.508 -0.3130  1.1797  0.4554
  147OSM   H15B16194   1.351   5.912   2.398  0.3267  0.4208  2.8910
  147OSM   H15C16195   1.208   5.807   2.351 -0.2076 -1.0307  1.2285
  147OSM    C1416196   1.164   6.030   2.212 -0.0900 -0.2559  0.1459
  147OSM   H14A16197   1.250   5.995   2.156 -2.2032 -3.9901 -1.0774
  147OSM   H14B16198   1.132   6.129   2.183  0.5691  0.7476  2.5577
  147OSM   H14C16199   1.088   5.963   2.175  0.7371 -0.4830 -1.2186
  147OSM    C1316200   1.036   6.020   2.419  0.6857 -0.0174  0.1294
  147OSM   H13A16201   1.030   6.039   2.525  1.4207 -1.3520  0.4403
  147OSM   H13B16202   0.994   5.924   2.392 -0.0235  0.5237 -0.7465
  147OSM   H13C16203   0.977   6.093   2.366 -0.1471 -2.2031 -2.1711
  147OSM    C1216204   1.239   6.150   2.414  0.3312  0.3558  0.2185
  147OSM   H12A16205   1.346   6.137   2.409 -0.0481 -3.2354 -1.2948
  147OSM   H12B16206   1.209   6.158   2.518  1.7642 -0.5634  0.7248
  147OSM    C1116207   1.200   6.284   2.344 -0.7498  0.0493  0.8686
  147OSM   H11A16208   1.260   6.286   2.251  0.5211 -1.2761  1.6002
  147OSM   H11B16209   1.234   6.371   2.403 -0.0434  0.0913  0.4116
  147OSM      P16210   1.002   6.395   2.221  0.2952  0.2807 -0.1741
  147OSM    O1316211   1.096   6.423   2.109  0.4634  0.0067 -0.5519
  147OSM    O1416212   0.870   6.347   2.183 -0.3369 -0.2239  0.0105
  147OSM    O1116213   0.990   6.527   2.311  0.2372  0.0284  0.3338
  147OSM    O1216214   1.064   6.290   2.317 -0.1950  0.6183 -0.0306
  147OSM    C1S16215   0.917   6.527   2.436 -0.3182  0.5557  0.2377
  147OSM    H1S16216   0.886   6.424   2.463  1.5085 -0.1209 -0.1023
  147OSM    H1T16217   0.821   6.584   2.430  0.1215  1.3228  0.4191
  147OSM     NF16218   0.939   6.601   2.686  0.9259 -0.2367  0.4714
  147OSM    HNF16219   0.890   6.680   2.723 -0.6092 -1.6793  1.6943
  147OSM    C2S16220   0.993   6.607   2.550  0.2730  0.5048  0.2390
  147OSM    H2S16221   1.092   6.556   2.560 -0.2450 -0.9880 -1.6079
  147OSM    C3S16222   1.038   6.750   2.503  0.4913 -0.3010  0.0274
  147OSM    H3S16223   0.947   6.812   2.493  0.8551  0.0071 -1.5966
  147OSM     O316224   1.087   6.769   2.368 -0.1666 -0.2440  0.3185
  147OSM    HO316225   1.078   6.678   2.338  0.8392 -0.4316  0.5275
  147OSM    C4S16226   1.126   6.806   2.606  0.0626  0.1875 -1.0685
  147OSM    H4S16227   1.064   6.857   2.682 -0.2119  0.3828 -1.4222
  147OSM    C5S16228   1.259   6.797   2.622  0.3471 -0.2329 -0.3207
  147OSM    H5S16229   1.323   6.753   2.544  0.0268  0.6187 -1.0874
  147OSM    C6S16230   1.338   6.842   2.741  0.0952 -0.2325  0.9844
  147OSM    H6S16231   1.351   6.951   2.724 -0.4681 -0.5505 -2.0098
  147OSM    H6T16232   1.441   6.803   2.748  0.2704 -0.2394 -1.0597
  147OSM    C7S16233   1.261   6.812   2.865  0.1757  0.4223 -0.1370
  147OSM    H7S16234   1.243   6.702   2.871 -2.4437  0.8164  0.3446
  147OSM    H7T16235   1.161   6.859   2.874  0.4129  0.8866  0.1017
  147OSM    C8S16236   1.334   6.848   3.001 -0.3145  0.6175  0.2520
  147OSM    H8S16237   1.369   6.953   3.005 -0.3750  0.6273  0.5093
  147OSM    H8T16238   1.429   6.790   3.010 -1.0556 -0.4862  1.1438
  147OSM    C9S16239   1.249   6.818   3.123  0.0803  0.6988 -0.3686
  147OSM    H9S16240   1.250   6.709   3.145 -1.2269  0.5652 -0.8608
  147OSM    H9T16241   1.141   6.843   3.112 -0.2339 -0.7822 -0.9029
  147OSM   C10S16242   1.303   6.876   3.258 -0.6367  0.2918 -0.0633
  147OSM   H10S16243   1.307   6.986   3.248  3.0787  0.2062 -0.8898
  147OSM   H10T16244   1.402   6.843   3.297 -0.6249  0.6407  0.2072
  147OSM   C11S16245   1.215   6.846   3.379  0.3779  0.3305 -0.2774
  147OSM   H11S16246   1.211   6.738   3.402 -2.3876  1.0029  3.3496
  147OSM   H11T16247   1.111   6.873   3.353  0.3178 -0.6091 -1.0618
  147OSM   C12S16248   1.272   6.925   3.491  1.0035  0.1144 -0.0505
  147OSM   H12S16249   1.234   7.027   3.469  0.4339 -0.5849 -2.5511
  147OSM   H12T16250   1.382   6.934   3.484  1.1705 -1.8042 -0.3669
  147OSM   C13S16251   1.226   6.876   3.630  0.2358 -0.0660 -0.3995
  147OSM   H13S16252   1.227   6.765   3.624  0.1417 -0.0020 -1.7477
  147OSM   H13T16253   1.120   6.908   3.628  0.1109 -0.4251  0.0664
  147OSM   C14S16254   1.313   6.932   3.748  0.2894  0.0237  1.1060
  147OSM   H14S16255   1.317   7.043   3.741  0.5207 -0.0706 -3.5114
  147OSM   H14T16256   1.417   6.892   3.748  0.2495 -0.2539 -1.8540
  147OSM   C15S16257   1.237   6.907   3.883 -0.5904  0.5799 -0.3777
  147OSM   H15S16258   1.247   6.803   3.922 -2.8198 -0.2939 -1.9857
  147OSM   H15T16259   1.129   6.926   3.866 -0.7206  0.8864  0.6697
  147OSM   C16S16260   1.283   7.008   3.992  1.2333 -0.5225  0.2350
  147OSM   H16S16261   1.236   6.986   4.090  1.6894  1.3034  0.9132
  147OSM   H16T16262   1.242   7.108   3.964  0.0862 -1.1789 -0.5227
  147OSM   C17S16263   1.439   7.020   4.013  0.5019 -0.1425 -0.5798
  147OSM   H17S16264   1.454   7.112   4.074  0.0894 -1.1502  1.1267
  147OSM   H17T16265   1.492   7.046   3.919  1.8421  2.3143  0.7493
  147OSM   C18S16266   1.505   6.890   4.074  0.2038 -0.4341  1.0027
  147OSM   H18S16267   1.470   6.802   4.016 -1.2619  0.2550  0.7900
  147OSM   H18T16268   1.472   6.894   4.180  0.8004  1.2855  1.1612
  147OSM   H18U16269   1.614   6.909   4.071  0.1803 -0.4324 -0.1810
  147OSM    C1F16270   0.937   6.485   2.748  1.2119  0.0505  0.0718
  147OSM     OF16271   0.970   6.380   2.690  0.3217  0.7820 -0.1748
  147OSM    C2F16272   0.892   6.476   2.891 -0.4753 -0.1881 -0.6646
  147OSM    H2F16273   0.813   6.552   2.908 -0.4654  0.4854 -3.1999
  147OSM    H2G16274   0.983   6.501   2.949  0.7574 -2.3291 -1.5429
  147OSM    C3F16275   0.832   6.341   2.936  0.7416  0.1233  0.6648
  147OSM    H3F16276   0.897   6.255   2.909  0.8610  0.7333 -1.1123
  147OSM    H3G16277   0.741   6.341   2.872  0.1342  1.4062  1.4888
  147OSM    C4F16278   0.766   6.339   3.069  0.1381  0.5222 -0.2101
  147OSM    H4F16279   0.675   6.275   3.068 -1.3847  2.5615  0.6398
  147OSM    H4G16280   0.716   6.435   3.093 -0.2457  0.1111  0.6706
  147OSM    C5F16281   0.870   6.309   3.178  0.4064  0.5537 -0.9413
  147OSM    H5F16282   0.963   6.365   3.153  0.9679  1.7285  3.1292
  147OSM    H5G16283   0.892   6.201   3.161 -0.1732  0.4425 -0.9863
  147OSM    C6F16284   0.825   6.336   3.323  0.6736  0.0589 -0.2881
  147OSM    H6F16285   0.894   6.290   3.397 -2.2454 -0.0658  2.6163
  147OSM    H6G16286   0.721   6.301   3.340  0.9084 -0.0630  1.0317
  147OSM    C7F16287   0.814   6.489   3.335  0.5298  0.2980 -0.5141
  147OSM    H7F16288   0.705   6.509   3.331 -0.1783 -1.8711  3.1365
  147OSM    H7G16289   0.868   6.538   3.251 -0.7139  1.7151 -0.5148
  147OSM    C8F16290   0.868   6.537   3.469 -0.1732 -0.0852  0.6654
  147OSM    H8F16291   0.979   6.530   3.468 -0.0446  1.5319  0.4071
  147OSM    H8G16292   0.842   6.477   3.559 -2.0678  1.5871  1.2997
  147OSM    C9F16293   0.835   6.684   3.485  0.1121 -0.1326 -0.2260
  147OSM    H9F16294   0.828   6.744   3.394 -1.0526 -1.9418 -1.3930
  147OSM   C10F16295   0.790   6.743   3.601  0.5749  1.2724  0.6481
  147OSM   H10F16296   0.781   6.853   3.600  1.9598  1.4208  1.5143
  147OSM   C11F16297   0.776   6.684   3.737 -0.1469  0.2184  0.2340
  147OSM   H11F16298   0.790   6.575   3.753  0.3234  0.2655  0.1536
  147OSM   H11G16299   0.676   6.710   3.778 -0.6708 -1.9171  0.4385
  147OSM   C12F16300   0.862   6.760   3.845  0.3793  0.4407 -0.7815
  147OSM   H12F16301   0.816   6.861   3.853 -1.0329 -0.2301  0.1991
  147OSM   H12G16302   0.969   6.777   3.824  0.5736 -1.4075 -1.4380
  147OSM   C13F16303   0.838   6.708   3.994 -0.2883 -0.1253  0.3781
  147OSM   H13F16304   0.864   6.600   4.003 -1.2919 -0.3550  0.6058
  147OSM   H13G16305   0.737   6.719   4.039  0.6505  1.6384  2.1765
  147OSM   C14F16306   0.929   6.789   4.086 -0.3176 -0.2746 -0.3899
  147OSM   H14F16307   0.905   6.897   4.070 -0.3594 -0.6963 -3.9918
  147OSM   H14G16308   1.032   6.779   4.047 -0.2611  0.8403 -0.5580
  147OSM   C15F16309   0.921   6.745   4.229 -0.3822 -0.1601 -0.3577
  147OSM   H15F16310   0.931   6.636   4.246  3.2412 -0.1725 -1.8256
  147OSM   H15G16311   0.821   6.772   4.270 -0.8510 -0.7493 -1.0659
  147OSM   C16F16312   1.033   6.807   4.317  0.8174 -0.3110 -0.7268
  147OSM   H16F16313   1.029   6.918   4.324 -0.0190 -0.1096 -3.3256
  147OSM   H16G16314   1.129   6.784   4.265  2.2998  2.5316  0.5462
  147OSM   C17F16315   1.035   6.744   4.461 -0.0179  0.4826  0.5326
  147OSM   H17F16316   0.937   6.754   4.513 -0.0234  1.4156  0.3691
  147OSM   H17G16317   1.106   6.804   4.521 -0.0034 -0.8972  1.9732
  147OSM   C18F16318   1.079   6.602   4.470  0.0597  0.6390  0.1477
  147OSM   H18F16319   1.002   6.538   4.423  1.4508  0.0296 -1.3851
  147OSM   H18G16320   1.086   6.574   4.578 -0.5116 -1.7532 -0.3880
  147OSM   H18H16321   1.176   6.581   4.421  0.9264  0.9810  1.6572
  148OSM      N16322   6.502   0.374   2.175  0.2447  0.0192  0.4374
  148OSM    C1516323   6.365   0.411   2.219  0.0038 -0.0804 -0.0006
  148OSM   H15A16324   6.306   0.336   2.269  0.6343  1.0145  2.5716
  148OSM   H15B16325   6.319   0.453   2.131  0.6112  0.7736  0.0777
  148OSM   H15C16326   6.368   0.488   2.295 -1.4876  0.3116 -0.3040
  148OSM    C1416327   6.577   0.290   2.280  0.4330  0.0330 -0.4570
  148OSM   H14A16328   6.590   0.342   2.374  0.8264 -2.0234  0.6924
  148OSM   H14B16329   6.674   0.253   2.252 -0.0213 -0.3378 -1.5913
  148OSM   H14C16330   6.526   0.201   2.314 -1.4047  0.8947 -0.7973
  148OSM    C1316331   6.484   0.288   2.046  0.2354 -0.3150 -0.4219
  148OSM   H13A16332   6.440   0.344   1.965  1.4115 -1.2429 -1.7371
  148OSM   H13B16333   6.414   0.209   2.067 -0.9054  0.3576 -1.5883
  148OSM   H13C16334   6.577   0.244   2.014  0.7751  2.6949 -3.5570
  148OSM    C1216335   6.583   0.494   2.140 -0.0813  0.2055 -0.6004
  148OSM   H12A16336   6.522   0.559   2.080 -0.9591  1.1702  1.2455
  148OSM   H12B16337   6.667   0.463   2.080  1.4178  2.3120  0.2931
  148OSM    C1116338   6.638   0.571   2.254  0.2632 -0.0238  0.2339
  148OSM   H11A16339   6.729   0.516   2.287  0.4509 -0.2563 -0.6580
  148OSM   H11B16340   6.558   0.571   2.331 -1.2418  1.4417 -1.2809
  148OSM      P16341   6.588   0.818   2.199  0.1157 -0.2230 -0.1934
  148OSM    O1316342   6.640   0.933   2.120 -0.2758 -0.0924  0.6347
  148OSM    O1416343   6.458   0.772   2.161 -0.2878 -0.0395  0.2975
  148OSM    O1116344   6.583   0.872   2.352 -0.5033 -0.2674 -0.0937
  148OSM    O1216345   6.680   0.697   2.201  0.2034  0.2633  0.1124
  148OSM    C1S16346   6.702   0.896   2.424  0.6061  0.2442  0.3711
  148OSM    H1S16347   6.784   0.948   2.370  0.6490  1.1017  1.2395
  148OSM    H1T16348   6.749   0.798   2.447  1.6053  0.3375 -1.1321
  148OSM     NF16349   6.804   1.050   2.592  0.7011  0.0942  0.1921
  148OSM    HNF16350   6.844   1.017   2.677  0.4281  0.9700  0.6727
  148OSM    C2S16351   6.679   0.988   2.548 -0.2281  0.1382 -0.1366
  148OSM    H2S16352   6.608   1.062   2.503  0.1554  1.1504  0.8804
  148OSM    C3S16353   6.610   0.909   2.662 -1.0510  0.0580  0.2056
  148OSM    H3S16354   6.676   0.830   2.706 -2.1461 -0.6826  0.5686
  148OSM     O316355   6.498   0.825   2.629 -0.0034  0.3088  0.5881
  148OSM    HO316356   6.496   0.817   2.533 -2.1781 -0.7673  0.6610
  148OSM    C4S16357   6.587   1.001   2.779  1.0021  0.7551 -0.3038
  148OSM    H4S16358   6.678   0.999   2.841 -0.4415  0.4228  1.8797
  148OSM    C5S16359   6.484   1.086   2.804  0.8054 -0.4246  0.2612
  148OSM    H5S16360   6.404   1.083   2.730  0.2123  0.5494  0.8434
  148OSM    C6S16361   6.477   1.186   2.918  0.0360  0.2102  0.1195
  148OSM    H6S16362   6.391   1.162   2.983  2.6256  0.3133  3.9375
  148OSM    H6T16363   6.465   1.282   2.864 -0.8254 -0.6788 -1.3228
  148OSM    C7S16364   6.593   1.188   3.015  0.3998  0.6710 -0.4235
  148OSM    H7S16365   6.677   1.227   2.954  0.4932  1.0166 -0.0735
  148OSM    H7T16366   6.625   1.091   3.059 -2.4385  0.7809  2.2222
  148OSM    C8S16367   6.559   1.276   3.137 -0.1611  0.2522 -0.7588
  148OSM    H8S16368   6.493   1.358   3.101 -1.8154  0.1971  1.9006
  148OSM    H8T16369   6.656   1.311   3.176 -0.5939  2.3012 -1.3937
  148OSM    C9S16370   6.491   1.202   3.248  0.5383 -0.0212 -0.5539
  148OSM    H9S16371   6.560   1.123   3.284  0.0674 -0.5541 -0.8093
  148OSM    H9T16372   6.398   1.151   3.215 -0.5063  1.0206  0.6747
  148OSM   C10S16373   6.453   1.295   3.365  0.2815 -0.4239  0.1093
  148OSM   H10S16374   6.351   1.337   3.353  0.0741 -0.7462  0.6850
  148OSM   H10T16375   6.529   1.373   3.386 -1.5314  1.0055  1.7017
  148OSM   C11S16376   6.444   1.217   3.495 -0.2069 -0.1702 -0.1446
  148OSM   H11S16377   6.542   1.186   3.538  0.0674  0.1191 -0.5449
  148OSM   H11T16378   6.383   1.126   3.477  0.6139 -0.7452 -0.0837
  148OSM   C12S16379   6.388   1.306   3.601  0.2819 -0.4175 -0.6696
  148OSM   H12S16380   6.292   1.353   3.571  0.0165 -1.5549 -1.6432
  148OSM   H12T16381   6.452   1.395   3.619 -0.7742  0.2169  0.1029
  148OSM   C13S16382   6.380   1.220   3.737 -0.3358 -1.0073  0.4778
  148OSM   H13S16383   6.477   1.182   3.773  0.6868 -0.6191 -1.6723
  148OSM   H13T16384   6.331   1.125   3.708  0.8437 -1.1927 -1.0190
  148OSM   C14S16385   6.300   1.274   3.851 -0.4340  0.3034  0.4660
  148OSM   H14S16386   6.201   1.312   3.816 -0.6512 -0.2419  0.4725
  148OSM   H14T16387   6.345   1.362   3.902 -1.6481  0.6082  1.0636
  148OSM   C15S16388   6.298   1.161   3.960  0.9320 -0.1844 -0.2083
  148OSM   H15S16389   6.401   1.140   3.996  1.0928  0.1424 -0.4661
  148OSM   H15T16390   6.272   1.068   3.906 -0.5470  0.7925 -1.2260
  148OSM   C16S16391   6.210   1.189   4.090 -0.0210  0.3232 -0.0817
  148OSM   H16S16392   6.123   1.240   4.042  2.7138  2.5101 -3.1105
  148OSM   H16T16393   6.265   1.268   4.145 -0.6964 -0.8570  2.4370
  148OSM   C17S16394   6.167   1.070   4.174 -0.5270 -0.5454  0.0256
  148OSM   H17S16395   6.113   1.002   4.105 -0.1092 -0.2466 -0.6103
  148OSM   H17T16396   6.089   1.110   4.243 -0.3596 -0.1109 -0.0302
  148OSM   C18S16397   6.275   1.006   4.252 -0.1626 -0.2970  0.2488
  148OSM   H18S16398   6.232   0.909   4.285 -0.4744 -0.0641  0.5208
  148OSM   H18T16399   6.307   1.062   4.342  3.0727 -0.2966 -0.7498
  148OSM   H18U16400   6.367   0.982   4.193 -1.0975 -2.6707 -0.3817
  148OSM    C1F16401   6.868   1.138   2.517 -0.4436  0.3661  0.3270
  148OSM     OF16402   6.811   1.207   2.426  0.1184 -0.4348  0.7479
  148OSM    C2F16403   7.009   1.161   2.568 -0.0013 -0.2566 -0.0598
  148OSM    H2F16404   7.087   1.109   2.509 -0.6681  1.0112 -2.1626
  148OSM    H2G16405   7.006   1.118   2.671 -0.3072  2.1088  1.0137
  148OSM    C3F16406   7.050   1.306   2.575 -0.3218 -0.2245 -0.0852
  148OSM    H3F16407   6.977   1.383   2.541 -0.4700 -1.0400 -1.7539
  148OSM    H3G16408   7.117   1.316   2.487  0.9697 -0.7254  0.8220
  148OSM    C4F16409   7.136   1.345   2.695 -0.2948 -0.6086 -0.3272
  148OSM    H4F16410   7.204   1.428   2.666  0.6794 -1.0846  0.4973
  148OSM    H4G16411   7.200   1.256   2.717  0.0408 -0.2663  0.1088
  148OSM    C5F16412   7.052   1.400   2.811 -0.1944 -0.1036  0.3005
  148OSM    H5F16413   6.981   1.317   2.832 -0.0573 -0.1377  0.6279
  148OSM    H5G16414   6.986   1.482   2.774 -1.3895 -1.1426  0.0855
  148OSM    C6F16415   7.141   1.440   2.926 -0.7901  0.0060  0.1542
  148OSM    H6F16416   7.215   1.509   2.880 -0.2664 -0.2761  0.5613
  148OSM    H6G16417   7.195   1.348   2.956  1.7967  1.6645  1.0261
  148OSM    C7F16418   7.078   1.511   3.045  0.2676  0.3860 -0.2471
  148OSM    H7F16419   7.060   1.618   3.024 -1.7630  0.6334  2.2384
  148OSM    H7G16420   7.155   1.496   3.124  0.0254 -0.5742 -0.1824
  148OSM    C8F16421   6.942   1.440   3.098 -0.2350 -0.4607 -0.1514
  148OSM    H8F16422   6.861   1.451   3.024 -1.2884 -1.2702  0.8339
  148OSM    H8G16423   6.911   1.505   3.183  1.2439  0.6062 -0.3835
  148OSM    C9F16424   6.954   1.291   3.129  0.1210  0.7042 -0.2339
  148OSM    H9F16425   6.945   1.219   3.046  0.3216 -0.5094  0.7638
  148OSM   C10F16426   6.985   1.238   3.247 -0.0149 -0.5024  0.0748
  148OSM   H10F16427   6.979   1.129   3.260 -1.0024 -0.2655  1.8526
  148OSM   C11F16428   7.011   1.308   3.375  0.1239 -0.3989 -0.5241
  148OSM   H11F16429   7.063   1.404   3.351  1.3250 -0.9068 -0.0293
  148OSM   H11G16430   7.083   1.243   3.428 -0.3633 -1.9454 -1.6920
  148OSM   C12F16431   6.875   1.333   3.444 -0.5456  0.5676 -0.7650
  148OSM   H12F16432   6.806   1.246   3.436  1.1759 -1.3837  2.8933
  148OSM   H12G16433   6.834   1.427   3.401  0.5372  1.4091  0.0079
  148OSM   C13F16434   6.895   1.351   3.603  0.0370  0.1325 -0.5388
  148OSM   H13F16435   6.978   1.424   3.608 -1.3005  1.6664  0.5412
  148OSM   H13G16436   6.942   1.259   3.644  0.0040  0.1592 -0.4378
  148OSM   C14F16437   6.776   1.401   3.675 -0.3833  0.1591  0.5641
  148OSM   H14F16438   6.690   1.334   3.655 -2.5077  2.1532  2.3612
  148OSM   H14G16439   6.744   1.502   3.640  0.7444  1.1828  2.2736
  148OSM   C15F16440   6.789   1.403   3.824  0.6363 -0.2207  0.1722
  148OSM   H15F16441   6.871   1.469   3.860  0.0028 -0.3192  1.8570
  148OSM   H15G16442   6.804   1.300   3.862  0.6089 -0.9605 -1.6871
  148OSM   C16F16443   6.662   1.450   3.897 -0.2724  0.5259 -0.5171
  148OSM   H16F16444   6.566   1.418   3.851 -1.3484 -1.3112  2.6501
  148OSM   H16G16445   6.662   1.560   3.881 -0.2910  0.8063  1.2139
  148OSM   C17F16446   6.653   1.392   4.037 -0.2146  0.0437 -0.9573
  148OSM   H17F16447   6.743   1.429   4.090  0.9785 -1.3929 -1.8814
  148OSM   H17G16448   6.680   1.284   4.039  1.0763  0.3280  1.7836
  148OSM   C18F16449   6.535   1.440   4.114 -0.4967 -0.8724 -0.0293
  148OSM   H18F16450   6.443   1.397   4.070 -1.2365 -0.1561  0.7914
  148OSM   H18G16451   6.528   1.550   4.110  2.0421 -0.6216  0.4927
  148OSM   H18H16452   6.544   1.407   4.219 -0.4925 -2.3255 -0.4532
  149OSM      N16453   0.887   0.849   2.022  0.1767  0.8651 -0.6200
  149OSM    C1516454   0.841   0.739   1.934  0.5246 -0.4248 -0.4612
  149OSM   H15A16455   0.922   0.702   1.873  0.3118  2.1658 -2.5123
  149OSM   H15B16456   0.762   0.775   1.869  0.7930  0.2351 -0.4331
  149OSM   H15C16457   0.817   0.652   1.992  0.1001  0.0286  0.0526
  149OSM    C1416458   0.906   0.974   1.941 -0.3785 -0.7204 -0.4245
  149OSM   H14A16459   0.817   1.007   1.890 -0.5565  0.0586  0.3648
  149OSM   H14B16460   0.996   0.961   1.883  0.0095  0.4667 -0.1054
  149OSM   H14C16461   0.929   1.050   2.013 -1.1140 -1.4588  0.6314
  149OSM    C1316462   0.774   0.884   2.123 -0.3566  0.4404 -0.2452
  149OSM   H13A16463   0.690   0.920   2.067  0.5450  1.2567 -1.1156
  149OSM   H13B16464   0.810   0.950   2.201 -2.0002 -1.0124  1.8659
  149OSM   H13C16465   0.745   0.789   2.167  3.1364  0.0744  1.6604
  149OSM    C1216466   1.013   0.802   2.095 -0.0604 -0.3143  0.2945
  149OSM   H12A16467   1.084   0.765   2.023 -0.0651  2.7131 -1.4733
  149OSM   H12B16468   0.988   0.723   2.164  0.6079 -0.2349  0.6347
  149OSM    C1116469   1.083   0.923   2.157 -0.2252 -0.3167 -0.2039
  149OSM   H11A16470   1.143   0.886   2.243  0.0914 -0.2093 -0.3744
  149OSM   H11B16471   1.021   1.004   2.200  1.0428  1.7214 -1.9794
  149OSM      P16472   1.309   0.940   2.025 -0.4420  0.4175  0.6824
  149OSM    O1316473   1.327   0.883   1.892  0.6240  0.2073  0.0540
  149OSM    O1416474   1.399   1.053   2.061 -0.4403 -0.8129 -0.5122
  149OSM    O1116475   1.335   0.826   2.130  0.5432  0.2011  0.2664
  149OSM    O1216476   1.164   0.985   2.059 -0.4221  0.9972  0.5126
  149OSM    C1S16477   1.427   0.830   2.235 -0.7950 -0.1685 -0.0619
  149OSM    H1S16478   1.462   0.930   2.268 -1.8226 -0.4855  2.1275
  149OSM    H1T16479   1.521   0.775   2.212 -0.4326  0.4904 -0.1716
  149OSM     NF16480   1.445   0.771   2.488 -0.3740  0.2600  0.4655
  149OSM    HNF16481   1.514   0.709   2.524  1.1545  2.4814  1.6088
  149OSM    C2S16482   1.375   0.745   2.361  1.1180 -0.3763 -0.1223
  149OSM    H2S16483   1.269   0.777   2.370  0.2436 -2.0687 -3.1968
  149OSM    C3S16484   1.373   0.594   2.333 -0.2376  0.8006  0.0644
  149OSM    H3S16485   1.478   0.560   2.317  0.1010  2.1942 -0.9019
  149OSM     O316486   1.317   0.562   2.203  0.0883 -0.0183  0.0283
  149OSM    HO316487   1.323   0.646   2.157  2.4247  0.5852  1.2872
  149OSM    C4S16488   1.319   0.502   2.443 -0.3819 -0.3346 -0.2683
  149OSM    H4S16489   1.402   0.486   2.513  1.2223  0.2388 -1.9388
  149OSM    C5S16490   1.193   0.460   2.472  0.1981  0.0147 -0.6270
  149OSM    H5S16491   1.113   0.478   2.399 -0.2864  0.8446  0.0957
  149OSM    C6S16492   1.156   0.369   2.584  0.3431  0.1366  0.2123
  149OSM    H6S16493   1.247   0.308   2.605  0.3120  0.0233  0.0159
  149OSM    H6T16494   1.078   0.295   2.555 -0.0023 -0.7366  2.9948
  149OSM    C7S16495   1.097   0.419   2.712 -0.0185 -1.0184 -0.1536
  149OSM    H7S16496   0.992   0.452   2.702  0.3022  0.0914 -0.0993
  149OSM    H7T16497   1.154   0.509   2.745  0.6617 -1.1290 -0.9820
  149OSM    C8S16498   1.086   0.307   2.820  0.3273 -0.2691  0.3074
  149OSM    H8S16499   1.185   0.260   2.843 -0.5701 -1.5034  1.9096
  149OSM    H8T16500   1.029   0.225   2.771 -0.9811  1.5768 -1.3499
  149OSM    C9S16501   1.009   0.349   2.947 -0.2336  0.2288 -0.7183
  149OSM    H9S16502   0.905   0.370   2.915 -1.0599 -3.1415 -0.6243
  149OSM    H9T16503   1.062   0.437   2.992 -1.3161 -0.2067  1.5478
  149OSM   C10S16504   0.992   0.237   3.057 -0.2241 -0.0025  0.4891
  149OSM   H10S16505   1.093   0.220   3.099 -0.6124  0.0902  1.4945
  149OSM   H10T16506   0.960   0.142   3.012  0.0810 -0.6438  1.5766
  149OSM   C11S16507   0.894   0.269   3.169 -0.0828 -0.4844 -0.7487
  149OSM   H11S16508   0.804   0.324   3.134 -0.5688  0.0904  1.2561
  149OSM   H11T16509   0.947   0.341   3.235 -1.2295  1.7893 -2.1662
  149OSM   C12S16510   0.846   0.149   3.263 -0.0349 -0.2305 -0.1081
  149OSM   H12S16511   0.925   0.077   3.294  0.1652  0.9682  2.3795
  149OSM   H12T16512   0.776   0.086   3.205  1.5985  0.8615 -3.5845
  149OSM   C13S16513   0.796   0.208   3.394 -0.1189 -1.3563 -0.3026
  149OSM   H13S16514   0.723   0.140   3.443 -1.6088  0.0178 -0.5570
  149OSM   H13T16515   0.757   0.308   3.366  0.2297 -1.4134 -1.0116
  149OSM   C14S16516   0.908   0.238   3.502 -0.4370  0.4627  0.3449
  149OSM   H14S16517   0.956   0.331   3.465  0.3054  0.1991  0.6325
  149OSM   H14T16518   0.979   0.153   3.500 -0.5477  0.3793 -0.2000
  149OSM   C15S16519   0.853   0.277   3.636  0.5051 -0.5332  0.4353
  149OSM   H15S16520   0.796   0.189   3.672  0.1626 -0.3976  0.2299
  149OSM   H15T16521   0.778   0.355   3.608  0.9149 -0.1043  0.5112
  149OSM   C16S16522   0.966   0.322   3.727 -1.0744 -0.5135  0.1880
  149OSM   H16S16523   1.020   0.401   3.671 -1.1082  0.7671  1.8756
  149OSM   H16T16524   1.050   0.252   3.748 -0.2747 -0.0831 -1.4328
  149OSM   C17S16525   0.913   0.390   3.852 -0.2576 -0.1348 -0.0912
  149OSM   H17S16526   0.887   0.321   3.936  0.8583  0.7866  1.0560
  149OSM   H17T16527   0.820   0.440   3.817  0.2900 -0.1229 -1.5960
  149OSM   C18S16528   1.003   0.500   3.912  0.2336  0.2255  0.2348
  149OSM   H18S16529   0.978   0.537   4.013 -0.3873  1.2034 -0.2589
  149OSM   H18T16530   1.003   0.588   3.843  2.7456  1.5810  1.7919
  149OSM   H18U16531   1.109   0.467   3.914  0.7449  1.7087 -0.3699
  149OSM    C1F16532   1.429   0.891   2.542 -0.0252 -0.8958  0.5454
  149OSM     OF16533   1.351   0.971   2.488 -0.2169  0.3097  1.2131
  149OSM    C2F16534   1.519   0.926   2.658  0.0241  0.4974  0.3705
  149OSM    H2F16535   1.535   1.035   2.649 -2.7142  1.1182  2.0188
  149OSM    H2G16536   1.618   0.875   2.665  0.8145  1.8806 -0.2233
  149OSM    C3F16537   1.448   0.918   2.794  0.5695  0.1125 -0.5094
  149OSM    H3F16538   1.402   0.818   2.807 -2.5160  1.3726 -0.7454
  149OSM    H3G16539   1.353   0.975   2.798  0.3255 -0.3459  2.7299
  149OSM    C4F16540   1.532   0.952   2.912 -0.7535 -0.6010 -0.2388
  149OSM    H4F16541   1.558   1.059   2.901 -0.6650 -0.8768 -3.6323
  149OSM    H4G16542   1.633   0.909   2.926 -0.6159  0.5306  3.2648
  149OSM    C5F16543   1.463   0.937   3.049 -0.3039 -0.0530  0.2486
  149OSM    H5F16544   1.439   0.829   3.056  0.3720 -0.2195  0.1142
  149OSM    H5G16545   1.371   0.999   3.041 -0.4293  0.0466  2.0077
  149OSM    C6F16546   1.552   0.966   3.170 -0.1321 -0.5482  0.3533
  149OSM    H6F16547   1.568   1.076   3.177 -1.5583 -0.3904  1.5008
  149OSM    H6G16548   1.652   0.916   3.173  1.5115  2.5318  0.9569
  149OSM    C7F16549   1.479   0.937   3.305  0.5076  0.2341  0.6172
  149OSM    H7F16550   1.437   0.834   3.305 -1.0286  0.8338  0.4372
  149OSM    H7G16551   1.395   1.009   3.310  1.8080  1.7175  2.9662
  149OSM    C8F16552   1.556   0.950   3.440 -0.5016  0.1025 -0.1363
  149OSM    H8F16553   1.644   0.882   3.435  0.3354  0.9896  1.7850
  149OSM    H8G16554   1.490   0.913   3.521 -0.3998  1.5998  0.6818
  149OSM    C9F16555   1.604   1.093   3.475 -0.1184  0.0241  0.0562
  149OSM    H9F16556   1.540   1.170   3.430 -2.4330 -1.1729  1.0975
  149OSM   C10F16557   1.709   1.129   3.542 -0.4902  0.0306  0.4776
  149OSM   H10F16558   1.741   1.234   3.550  0.1408 -0.0867 -0.3364
  149OSM   C11F16559   1.796   1.031   3.617  0.1946  0.2697  1.3550
  149OSM   H11F16560   1.896   1.078   3.613  0.0980  0.4518  1.0410
  149OSM   H11G16561   1.794   0.931   3.568 -0.0139  0.5408  0.7988
  149OSM   C12F16562   1.758   1.015   3.763  0.4028  0.4932  0.1422
  149OSM   H12F16563   1.652   0.983   3.771  1.0081 -1.7881 -0.1955
  149OSM   H12G16564   1.768   1.112   3.817  2.7559  1.0214 -1.0902
  149OSM   C13F16565   1.844   0.905   3.822 -0.1529 -0.2994  0.3096
  149OSM   H13F16566   1.953   0.926   3.825  0.0586 -1.4948  1.6157
  149OSM   H13G16567   1.840   0.812   3.760  1.9335  0.0233 -0.3956
  149OSM   C14F16568   1.803   0.858   3.965  0.0007 -0.1131  0.2093
  149OSM   H14F16569   1.708   0.801   3.960  0.0328 -0.3051  1.4315
  149OSM   H14G16570   1.784   0.954   4.019 -0.3329 -0.0278 -0.0554
  149OSM   C15F16571   1.906   0.778   4.042 -0.3976 -0.3352  0.1745
  149OSM   H15F16572   1.987   0.847   4.073  0.9631 -1.5605 -0.5516
  149OSM   H15G16573   1.972   0.712   3.982  0.7635  0.8909  0.0466
  149OSM   C16F16574   1.845   0.703   4.168 -0.2427 -0.4606 -0.2091
  149OSM   H16F16575   1.924   0.649   4.225 -1.5313 -1.8794  0.2775
  149OSM   H16G16576   1.787   0.621   4.121 -2.4537  0.1738  1.2730
  149OSM   C17F16577   1.766   0.791   4.263 -0.3394 -0.4158  0.2425
  149OSM   H17F16578   1.661   0.802   4.229  0.1798 -0.0685 -1.3397
  149OSM   H17G16579   1.808   0.893   4.254  0.6189 -0.9202 -1.3382
  149OSM   C18F16580   1.770   0.751   4.414 -0.4111 -0.5532 -0.6581
  149OSM   H18F16581   1.876   0.740   4.446  0.2200  3.4611 -0.8635
  149OSM   H18G16582   1.710   0.663   4.446  1.1303 -1.7447 -0.8959
  149OSM   H18H16583   1.723   0.834   4.470  0.4886 -0.0152 -0.6752
  150OSM      N16584   0.616   3.424   1.932 -0.4403  0.1213  0.8020
  150OSM    C1516585   0.583   3.288   1.911 -0.9773 -0.5123 -0.3919
  150OSM   H15A16586   0.548   3.279   1.809  0.3086 -2.7713 -0.6819
  150OSM   H15B16587   0.509   3.255   1.982 -0.3056  0.8679  1.0265
  150OSM   H15C16588   0.670   3.224   1.914  0.2296  1.0789  0.9979
  150OSM    C1416589   0.721   3.460   1.834 -0.3037  0.1081 -0.7095
  150OSM   H14A16590   0.750   3.563   1.844 -2.4328  0.9495 -2.3638
  150OSM   H14B16591   0.694   3.449   1.730 -0.2298  1.7226 -0.9124
  150OSM   H14C16592   0.812   3.404   1.851 -1.6724 -1.7483  1.2230
  150OSM    C1316593   0.505   3.522   1.913  0.6297 -0.0925 -0.3457
  150OSM   H13A16594   0.539   3.618   1.949 -1.7941  0.0067  1.9646
  150OSM   H13B16595   0.418   3.497   1.971  0.7549 -0.7607 -0.4283
  150OSM   H13C16596   0.479   3.532   1.808  0.6116 -1.4517 -0.4976
  150OSM    C1216597   0.675   3.446   2.068  0.2628 -0.1148  0.3167
  150OSM   H12A16598   0.705   3.550   2.070 -0.4923  0.1046  0.6096
  150OSM   H12B16599   0.765   3.391   2.091  0.3612  0.5917  1.7613
  150OSM    C1116600   0.573   3.424   2.184 -0.4542 -0.1637 -0.4684
  150OSM   H11A16601   0.487   3.493   2.167 -0.5395  0.1592  1.1134
  150OSM   H11B16602   0.619   3.448   2.283 -1.8963 -0.4998  0.3194
  150OSM      P16603   0.626   3.179   2.264 -0.0710 -0.5144  0.2240
  150OSM    O1316604   0.568   3.046   2.246  0.5265 -0.1573  0.0980
  150OSM    O1416605   0.766   3.199   2.217 -0.0056  0.8168 -0.3056
  150OSM    O1116606   0.622   3.201   2.417 -0.1188 -0.0282  0.3919
  150OSM    O1216607   0.530   3.290   2.197  0.1867 -0.4256 -0.2632
  150OSM    C1S16608   0.505   3.215   2.495  0.4274 -0.2135  0.0574
  150OSM    H1S16609   0.447   3.120   2.491  2.1536 -1.2679 -1.3161
  150OSM    H1T16610   0.448   3.304   2.463  0.6203  0.4074  1.3532
  150OSM     NF16611   0.414   3.235   2.732  0.0180  0.5675 -0.4290
  150OSM    HNF16612   0.393   3.320   2.780  0.4152  2.4111 -3.2576
  150OSM    C2S16613   0.533   3.232   2.649 -0.4394  0.6870  0.2539
  150OSM    H2S16614   0.593   3.147   2.687 -0.3781  0.9829  0.8333
  150OSM    C3S16615   0.626   3.351   2.677  0.4439 -0.1494 -0.3693
  150OSM    H3S16616   0.572   3.445   2.655  3.0993  1.3253 -1.0515
  150OSM     O316617   0.740   3.362   2.596 -0.0962  0.6699 -0.2390
  150OSM    HO316618   0.723   3.300   2.525  0.8599  0.1234 -0.0175
  150OSM    C4S16619   0.662   3.369   2.823 -0.2804 -0.6602 -0.5042
  150OSM    H4S16620   0.718   3.281   2.857 -0.4966 -1.4016 -1.9533
  150OSM    C5S16621   0.636   3.486   2.891 -0.5705  0.1412 -0.6860
  150OSM    H5S16622   0.598   3.575   2.839  1.0903  0.4668 -1.4264
  150OSM    C6S16623   0.672   3.508   3.036 -0.2282  0.1685  0.5335
  150OSM    H6S16624   0.752   3.583   3.051  1.2729 -1.5752  1.6423
  150OSM    H6T16625   0.724   3.418   3.075  2.8843  0.8538 -1.6579
  150OSM    C7S16626   0.548   3.536   3.123 -0.2505 -0.0447 -0.4590
  150OSM    H7S16627   0.485   3.448   3.148  0.2024 -0.5555 -1.0798
  150OSM    H7T16628   0.486   3.615   3.075 -1.1445 -0.6141 -0.2615
  150OSM    C8S16629   0.588   3.592   3.270 -0.9804  0.0603 -0.1262
  150OSM    H8S16630   0.658   3.670   3.233  0.3566 -1.1551 -0.2534
  150OSM    H8T16631   0.643   3.513   3.324 -0.0325 -0.6718 -2.0842
  150OSM    C9S16632   0.468   3.644   3.348  0.3479  0.0517  0.4141
  150OSM    H9S16633   0.381   3.591   3.304  0.1403  0.7208  0.0031
  150OSM    H9T16634   0.464   3.755   3.348 -0.3987  0.1142  3.5977
  150OSM   C10S16635   0.443   3.603   3.494  0.3178 -0.3932 -0.6155
  150OSM   H10S16636   0.471   3.496   3.508 -1.9071 -0.8143  1.1986
  150OSM   H10T16637   0.335   3.602   3.519  0.5669 -0.4841  0.5175
  150OSM   C11S16638   0.523   3.673   3.603  0.4025  0.3819  0.4448
  150OSM   H11S16639   0.524   3.782   3.580  1.1706  0.2237 -0.3096
  150OSM   H11T16640   0.627   3.635   3.602  0.6104  0.8700  1.5522
  150OSM   C12S16641   0.487   3.654   3.752 -0.4281  0.7845 -0.9288
  150OSM   H12S16642   0.521   3.552   3.778  0.6716  1.6123  1.0352
  150OSM   H12T16643   0.379   3.647   3.776 -0.1691  1.6522  0.5997
  150OSM   C13S16644   0.544   3.750   3.859  0.6924  0.0163  0.0242
  150OSM   H13S16645   0.466   3.829   3.872  0.6892 -0.0658  0.5204
  150OSM   H13T16646   0.630   3.798   3.808  0.6180 -1.4422 -1.5589
  150OSM   C14S16647   0.587   3.700   4.000 -0.1007 -0.6053  0.2211
  150OSM   H14S16648   0.687   3.655   3.980 -0.5052 -1.1997 -0.5103
  150OSM   H14T16649   0.506   3.632   4.035 -1.6366  0.5120 -1.0214
  150OSM   C15S16650   0.593   3.803   4.108  0.3526 -0.0291 -0.5037
  150OSM   H15S16651   0.493   3.846   4.131  0.2639 -0.2542 -0.4667
  150OSM   H15T16652   0.639   3.893   4.061 -2.6661  0.6873 -2.3834
  150OSM   C16S16653   0.640   3.759   4.250  0.0379  0.4569 -0.0121
  150OSM   H16S16654   0.625   3.852   4.308 -0.5537  0.5650 -0.3326
  150OSM   H16T16655   0.749   3.735   4.247 -0.0728  0.0100 -0.8832
  150OSM   C17S16656   0.556   3.643   4.301 -0.4431  0.5328  0.2120
  150OSM   H17S16657   0.567   3.553   4.237 -1.6650  0.2860  0.3346
  150OSM   H17T16658   0.449   3.669   4.288 -0.0622  1.4238 -1.4654
  150OSM   C18S16659   0.593   3.577   4.437  0.5810 -0.1385  0.3517
  150OSM   H18S16660   0.694   3.530   4.436  1.1032  0.9716 -0.0990
  150OSM   H18T16661   0.521   3.500   4.473  0.5099  0.5657  1.7799
  150OSM   H18U16662   0.597   3.659   4.512  0.6287 -0.9403  1.2477
  150OSM    C1F16663   0.327   3.127   2.731 -0.9865 -0.3187 -0.2463
  150OSM     OF16664   0.364   3.026   2.677  0.2393  0.4516  0.0011
  150OSM    C2F16665   0.196   3.146   2.793  0.1283  0.0761  0.3426
  150OSM    H2F16666   0.124   3.197   2.725  0.1468 -1.0070 -0.5164
  150OSM    H2G16667   0.219   3.227   2.866  1.5575  2.0297 -2.1308
  150OSM    C3F16668   0.134   3.013   2.843 -0.0556 -0.1868  0.2119
  150OSM    H3F16669   0.199   2.971   2.922  1.1112 -0.7784 -1.0151
  150OSM    H3G16670   0.139   2.932   2.767 -0.5506  0.4843 -0.5604
  150OSM    C4F16671  -0.019   3.027   2.862 -0.2956  0.0611 -0.0601
  150OSM    H4F16672  -0.071   2.940   2.816 -1.0194  0.6525 -0.3912
  150OSM    H4G16673  -0.051   3.120   2.810  0.2699  1.4009  1.8463
  150OSM    C5F16674  -0.058   3.038   3.012 -0.0613  0.2643 -0.3295
  150OSM    H5F16675  -0.019   2.954   3.073 -0.5609 -1.7026 -2.5911
  150OSM    H5G16676  -0.169   3.036   3.004 -0.0069  2.2373 -3.6335
  150OSM    C6F16677  -0.016   3.179   3.070 -0.0762 -0.1216 -0.1144
  150OSM    H6F16678  -0.037   3.261   2.998  1.3634  0.9426  0.6086
  150OSM    H6G16679   0.092   3.166   3.095 -0.3861  0.0344  1.4365
  150OSM    C7F16680  -0.092   3.212   3.199 -0.4883  0.2369  0.2167
  150OSM    H7F16681  -0.201   3.197   3.186 -0.5721  0.5282  0.5862
  150OSM    H7G16682  -0.079   3.318   3.229  0.1970 -0.0086  0.8372
  150OSM    C8F16683  -0.035   3.120   3.310 -0.0300 -0.2214 -0.0166
  150OSM    H8F16684   0.070   3.156   3.312  0.1418 -0.7273  0.2049
  150OSM    H8G16685  -0.024   3.014   3.280  0.7723  0.4537 -2.3443
  150OSM    C9F16686  -0.099   3.140   3.443 -0.2337 -0.5528  0.2652
  150OSM    H9F16687  -0.195   3.089   3.461 -0.8764 -0.1224 -1.6970
  150OSM   C10F16688  -0.054   3.219   3.537 -0.9435  0.2510  0.4142
  150OSM   H10F16689  -0.119   3.232   3.625 -2.0049  0.9319 -0.4413
  150OSM   C11F16690   0.066   3.306   3.530  0.0400  0.1306  0.9130
  150OSM   H11F16691   0.077   3.339   3.425 -1.3240 -0.4125  0.5827
  150OSM   H11G16692   0.152   3.242   3.562  0.5102 -0.3873 -1.2680
  150OSM   C12F16693   0.086   3.424   3.630  0.5306  0.0972  0.4504
  150OSM   H12F16694   0.005   3.493   3.598  0.1463 -1.0319 -1.1253
  150OSM   H12G16695   0.189   3.463   3.615  0.6352  0.3279  1.6954
  150OSM   C13F16696   0.062   3.379   3.779  0.5258  0.9672  0.5157
  150OSM   H13F16697   0.150   3.314   3.800  0.3166 -0.4110 -2.3591
  150OSM   H13G16698  -0.034   3.328   3.798  0.2789  1.4979  0.6841
  150OSM   C14F16699   0.080   3.488   3.884  0.7881 -1.0161 -0.0462
  150OSM   H14F16700   0.009   3.568   3.854  1.6904 -0.9191 -2.1393
  150OSM   H14G16701   0.185   3.522   3.892 -0.3206  2.9447 -0.4557
  150OSM   C15F16702   0.038   3.447   4.024 -0.3624 -0.0699 -0.5360
  150OSM   H15F16703   0.092   3.355   4.053 -0.5763  0.3163  1.2276
  150OSM   H15G16704  -0.072   3.438   4.017 -0.4296  1.5450 -2.6694
  150OSM   C16F16705   0.078   3.546   4.134  0.5335 -0.4426 -0.0313
  150OSM   H16F16706   0.027   3.535   4.232 -1.5587 -0.6452 -1.0958
  150OSM   H16G16707   0.044   3.647   4.103 -0.8462 -0.7822  0.3170
  150OSM   C17F16708   0.223   3.538   4.170 -0.1064  0.0673  0.7945
  150OSM   H17F16709   0.267   3.630   4.212 -2.1668  1.5758 -0.1392
  150OSM   H17G16710   0.287   3.534   4.079 -1.9805  1.3925 -0.6694
  150OSM   C18F16711   0.255   3.418   4.259  0.0260 -0.2966 -0.1098
  150OSM   H18F16712   0.365   3.411   4.268 -0.0627 -1.8742  0.0461
  150OSM   H18G16713   0.218   3.320   4.221 -0.7349 -0.9958  2.2833
  150OSM   H18H16714   0.201   3.438   4.354  0.0465  2.4496 -0.5985
  151OSM      N16715   5.694   0.228   1.860 -0.2680 -0.6479 -0.1268
  151OSM    C1516716   5.768   0.095   1.874 -0.0750 -0.1938 -1.0491
  151OSM   H15A16717   5.714   0.014   1.826  0.9164 -1.1398 -0.6065
  151OSM   H15B16718   5.792   0.084   1.978 -1.1356 -1.0917 -0.8766
  151OSM   H15C16719   5.867   0.088   1.831 -0.5636 -2.5376 -1.9667
  151OSM    C1416720   5.690   0.272   1.714 -0.2687  0.3415 -0.8902
  151OSM   H14A16721   5.627   0.358   1.701 -1.3725  0.1054  2.0400
  151OSM   H14B16722   5.646   0.194   1.654 -0.9072  0.3615 -0.4610
  151OSM   H14C16723   5.789   0.293   1.679 -0.3902  2.3492 -0.1614
  151OSM    C1316724   5.553   0.215   1.914 -0.2097  0.1855 -0.3589
  151OSM   H13A16725   5.485   0.152   1.860 -1.7601  1.1146  0.4422
  151OSM   H13B16726   5.506   0.310   1.934 -1.7214  0.4186 -4.1789
  151OSM   H13C16727   5.557   0.172   2.013 -1.7793  1.8283  0.4771
  151OSM    C1216728   5.764   0.334   1.948 -1.3190  0.4836  0.7891
  151OSM   H12A16729   5.717   0.429   1.927 -0.2158  1.1064  1.0847
  151OSM   H12B16730   5.863   0.340   1.907 -0.8400  0.5924  1.9517
  151OSM    C1116731   5.770   0.315   2.100  0.0336  0.7925  0.4285
  151OSM   H11A16732   5.664   0.296   2.130  0.7239 -1.4152  1.7226
  151OSM   H11B16733   5.801   0.413   2.143 -1.0545  1.4518 -0.2345
  151OSM      P16734   6.006   0.215   2.158 -0.0303 -0.0704  0.1631
  151OSM    O1316735   6.062   0.083   2.135 -0.2934  0.4692  0.4757
  151OSM    O1416736   6.055   0.325   2.073  0.2837  0.0966 -0.1489
  151OSM    O1116737   6.026   0.245   2.310 -0.5148 -0.2337  0.1447
  151OSM    O1216738   5.851   0.199   2.139  0.7561  0.1713 -0.0807
  151OSM    C1S16739   5.958   0.174   2.415  0.4275  0.5421  0.1957
  151OSM    H1S16740   6.000   0.072   2.427 -0.1116  0.3339  0.3405
  151OSM    H1T16741   5.850   0.164   2.389  0.3117 -2.0314  1.3369
  151OSM     NF16742   5.924   0.181   2.664  0.0961  0.0240  0.5342
  151OSM    HNF16743   5.842   0.201   2.718 -1.7068 -1.4209 -1.4841
  151OSM    C2S16744   5.956   0.259   2.540  1.0103 -0.6328 -0.3987
  151OSM    H2S16745   6.054   0.312   2.543 -0.3409  2.2991 -2.7256
  151OSM    C3S16746   5.856   0.384   2.523 -0.3425 -0.5718 -0.5032
  151OSM    H3S16747   5.755   0.339   2.539 -0.0354 -0.8180  0.8818
  151OSM     O316748   5.859   0.451   2.393  0.4367 -0.7293 -0.4000
  151OSM    HO316749   5.924   0.412   2.334  2.1582 -0.8367  1.4378
  151OSM    C4S16750   5.862   0.473   2.642  0.1002 -0.4288  0.3468
  151OSM    H4S16751   5.808   0.433   2.729  0.5718 -2.0370 -0.0611
  151OSM    C5S16752   5.934   0.587   2.657 -0.3772 -0.6440 -0.1106
  151OSM    H5S16753   5.982   0.627   2.566  0.7184 -0.4458  0.5362
  151OSM    C6S16754   5.944   0.663   2.789 -0.7081  0.8682 -0.3746
  151OSM    H6S16755   5.869   0.744   2.800 -0.9559  0.5305  0.4553
  151OSM    H6T16756   6.044   0.712   2.792 -0.0019 -0.2607  4.9364
  151OSM    C7S16757   5.931   0.578   2.918  0.1965 -0.5072  0.4552
  151OSM    H7S16758   6.008   0.498   2.915 -0.2079 -0.8829 -0.2113
  151OSM    H7T16759   5.836   0.521   2.921 -1.7219  2.3286 -1.3284
  151OSM    C8S16760   5.954   0.665   3.042 -0.4418 -0.2725 -0.3593
  151OSM    H8S16761   5.880   0.747   3.052 -0.1095 -0.0107 -0.0495
  151OSM    H8T16762   6.056   0.707   3.049  0.2392 -1.6529 -1.5842
  151OSM    C9S16763   5.930   0.575   3.160  0.6459  0.5667  0.2388
  151OSM    H9S16764   6.023   0.516   3.165 -0.0190 -0.4753  0.6701
  151OSM    H9T16765   5.835   0.517   3.163  0.3373  1.1002  1.5690
  151OSM   C10S16766   5.929   0.661   3.290 -0.2877 -0.0364 -0.4706
  151OSM   H10S16767   5.844   0.732   3.295  0.4174  0.9704 -2.0152
  151OSM   H10T16768   6.024   0.719   3.297 -2.1675  3.1310  1.6681
  151OSM   C11S16769   5.915   0.562   3.410  0.7775 -0.1740  0.4396
  151OSM   H11S16770   6.018   0.524   3.423  0.1068 -1.9671  0.8242
  151OSM   H11T16771   5.849   0.478   3.380 -0.9101  1.7552 -1.6569
  151OSM   C12S16772   5.865   0.612   3.547 -0.0808 -0.0030 -0.7023
  151OSM   H12S16773   5.764   0.660   3.544  1.3591  3.4651  0.5325
  151OSM   H12T16774   5.938   0.686   3.586  1.0260 -1.7756  0.7515
  151OSM   C13S16775   5.864   0.493   3.647  0.0092  0.3932  0.1052
  151OSM   H13S16776   5.961   0.440   3.657 -0.3241  0.0481  1.9562
  151OSM   H13T16777   5.802   0.407   3.613  0.1547  0.7798 -1.1752
  151OSM   C14S16778   5.820   0.543   3.787  0.3552  0.5430 -0.5205
  151OSM   H14S16779   5.737   0.614   3.766  0.3397  0.4248 -0.8629
  151OSM   H14T16780   5.908   0.594   3.831  1.3790 -2.2960  0.9120
  151OSM   C15S16781   5.784   0.441   3.889 -0.3048 -0.4418 -0.5649
  151OSM   H15S16782   5.859   0.361   3.869  1.1771 -0.5412  4.1835
  151OSM   H15T16783   5.684   0.392   3.885  0.0784 -1.1726 -2.1168
  151OSM   C16S16784   5.821   0.482   4.030 -0.4913 -0.0693  0.6504
  151OSM   H16S16785   5.746   0.558   4.060 -1.6780 -0.5721 -0.8838
  151OSM   H16T16786   5.922   0.527   4.041 -0.3650 -0.0165 -0.5928
  151OSM   C17S16787   5.804   0.378   4.134  0.4867  0.1609 -0.3207
  151OSM   H17S16788   5.825   0.283   4.081  2.7938 -0.0656  0.8357
  151OSM   H17T16789   5.697   0.360   4.154  0.7332 -1.2774 -0.2177
  151OSM   C18S16790   5.882   0.399   4.262 -0.3403  0.8877  0.1440
  151OSM   H18S16791   5.990   0.392   4.235 -0.1073  2.6831  0.4793
  151OSM   H18T16792   5.866   0.312   4.329  0.6904  0.9754  0.5263
  151OSM   H18U16793   5.866   0.496   4.312 -2.6042  1.3630 -1.3574
  151OSM    C1F16794   6.015   0.098   2.716  0.3427  0.0662 -0.3097
  151OSM     OF16795   6.123   0.075   2.667  0.7080 -0.3659  0.0910
  151OSM    C2F16796   5.979   0.041   2.851 -0.3288 -0.2950 -0.6163
  151OSM    H2F16797   6.051  -0.041   2.875 -2.4922 -2.1290  0.0210
  151OSM    H2G16798   5.872   0.010   2.841 -1.4200  3.1222 -0.7146
  151OSM    C3F16799   5.985   0.149   2.962  0.3302  0.2408 -1.0792
  151OSM    H3F16800   5.918   0.232   2.932  0.2417 -1.4818 -6.9202
  151OSM    H3G16801   6.086   0.194   2.974  0.9737 -1.2352 -0.7291
  151OSM    C4F16802   5.933   0.095   3.092 -0.4031 -0.1719 -0.1883
  151OSM    H4F16803   6.004   0.013   3.116  0.1782  1.1967  3.3915
  151OSM    H4G16804   5.830   0.054   3.094 -1.2270  1.8045  0.8400
  151OSM    C5F16805   5.933   0.210   3.198 -0.0825  0.2190  0.5146
  151OSM    H5F16806   5.865   0.288   3.157  1.1032 -0.4278 -3.0410
  151OSM    H5G16807   6.034   0.256   3.203  1.6188 -2.7299 -2.3985
  151OSM    C6F16808   5.874   0.169   3.333 -0.1281 -0.9172 -0.3577
  151OSM    H6F16809   5.778   0.113   3.325  0.5418 -2.3391  1.2207
  151OSM    H6G16810   5.846   0.261   3.389 -0.2756 -0.6025 -0.9303
  151OSM    C7F16811   5.975   0.096   3.422  0.2683 -0.3531 -0.0582
  151OSM    H7F16812   6.082   0.126   3.426  0.7192 -1.1482 -3.4402
  151OSM    H7G16813   5.985  -0.008   3.384  2.0130 -0.7169  1.2812
  151OSM    C8F16814   5.913   0.088   3.566 -0.0407 -0.0277  0.1352
  151OSM    H8F16815   5.808   0.052   3.567 -0.1405  0.1842 -1.1379
  151OSM    H8G16816   5.902   0.196   3.590 -0.9920  0.0933 -0.7781
  151OSM    C9F16817   6.002   0.027   3.676 -0.9232 -0.0214  0.1403
  151OSM    H9F16818   6.108   0.025   3.650 -1.7376  1.8428 -4.0655
  151OSM   C10F16819   5.957  -0.039   3.785 -0.0215  0.1552 -0.0218
  151OSM   H10F16820   6.031  -0.081   3.855  1.2413 -0.9725 -1.9234
  151OSM   C11F16821   5.810  -0.045   3.825 -1.0342 -0.3678  0.0007
  151OSM   H11F16822   5.762  -0.140   3.794 -1.4097  0.6906 -3.0432
  151OSM   H11G16823   5.750   0.027   3.765 -2.6845 -1.1204  0.6717
  151OSM   C12F16824   5.783  -0.014   3.977  0.2322 -0.4352  0.4962
  151OSM   H12F16825   5.821   0.085   4.008  0.0612 -0.4522  0.7649
  151OSM   H12G16826   5.840  -0.090   4.035  2.5060  0.6628 -0.1739
  151OSM   C13F16827   5.630  -0.013   4.010 -0.4023 -0.3603 -0.1935
  151OSM   H13F16828   5.591  -0.117   4.002  1.6265 -1.4963  2.7637
  151OSM   H13G16829   5.578   0.053   3.938  1.0739  0.0475 -0.9279
  151OSM   C14F16830   5.602   0.037   4.155 -0.6242  0.3310  0.0583
  151OSM   H14F16831   5.669   0.121   4.182 -0.2570 -0.6709  2.6015
  151OSM   H14G16832   5.638  -0.042   4.225  0.6999  0.5441 -0.3584
  151OSM   C15F16833   5.458   0.080   4.189  0.0724  0.9010 -0.0799
  151OSM   H15F16834   5.421   0.140   4.103  0.6631  0.3881 -0.7039
  151OSM   H15G16835   5.456   0.150   4.275  1.4159  0.8156  0.0427
  151OSM   C16F16836   5.366  -0.047   4.214 -1.1233 -0.3550  0.2625
  151OSM   H16F16837   5.371  -0.104   4.120  1.6039 -0.6425  0.5025
  151OSM   H16G16838   5.264  -0.009   4.234 -0.3507  0.7087  2.6404
  151OSM   C17F16839   5.406  -0.135   4.331  0.0230 -0.2989 -0.0041
  151OSM   H17F16840   5.462  -0.076   4.407 -2.5534  1.6093  0.5354
  151OSM   H17G16841   5.476  -0.214   4.295  2.0141  1.9615 -1.3965
  151OSM   C18F16842   5.282  -0.186   4.393  0.6026 -0.1257  0.2852
  151OSM   H18F16843   5.242  -0.258   4.319 -1.2955 -0.7316  1.8246
  151OSM   H18G16844   5.206  -0.108   4.414 -0.1889 -0.7614 -0.1914
  151OSM   H18H16845   5.295  -0.241   4.489 -0.6639 -1.7396 -0.4085
  152OSM      N16846   0.382   2.121   2.497  0.2682 -0.2030 -1.3905
  152OSM    C1516847   0.519   2.162   2.454 -0.2175 -0.1631  1.5226
  152OSM   H15A16848   0.584   2.151   2.539  0.1072 -0.8743  1.1963
  152OSM   H15B16849   0.526   2.254   2.399 -1.2885 -0.3230  1.0809
  152OSM   H15C16850   0.550   2.080   2.391 -1.5246  0.8961 -0.6495
  152OSM    C1416851   0.401   1.990   2.576  0.3340  0.1051 -0.0845
  152OSM   H14A16852   0.442   1.913   2.512  1.5921 -0.2429  1.0886
  152OSM   H14B16853   0.303   1.970   2.617 -0.5705  0.7005 -1.8393
  152OSM   H14C16854   0.465   2.016   2.659 -0.8670 -0.0748  0.9214
  152OSM    C1316855   0.320   2.213   2.586 -0.1846  0.5398  0.2061
  152OSM   H13A16856   0.320   2.313   2.546 -1.7970 -0.1743 -1.7183
  152OSM   H13B16857   0.384   2.229   2.672  0.3133  1.7516 -0.3689
  152OSM   H13C16858   0.218   2.186   2.607  0.5225 -2.1885  0.4876
  152OSM    C1216859   0.297   2.092   2.379  0.3974 -0.5543 -0.1962
  152OSM   H12A16860   0.295   2.180   2.316 -2.8055  0.3737  1.0012
  152OSM   H12B16861   0.192   2.085   2.404 -0.0596  0.7727 -1.5701
  152OSM    C1116862   0.329   1.979   2.284 -0.1848  0.6745 -0.4949
  152OSM   H11A16863   0.250   1.973   2.206  0.2347  1.8347 -1.0441
  152OSM   H11B16864   0.327   1.887   2.347 -1.2607  2.4636  2.3156
  152OSM      P16865   0.540   1.859   2.181  0.1993  0.2600 -0.1179
  152OSM    O1316866   0.450   1.753   2.126  0.7813  0.2232 -0.3067
  152OSM    O1416867   0.648   1.905   2.090  0.4373  0.1984  0.1469
  152OSM    O1116868   0.585   1.817   2.327  0.0462 -0.7936 -0.0345
  152OSM    O1216869   0.451   1.984   2.217 -0.2255 -0.1267  0.0145
  152OSM    C1S16870   0.713   1.749   2.336  0.1521  0.3823  0.2765
  152OSM    H1S16871   0.796   1.804   2.285 -0.3952 -1.4003 -2.7987
  152OSM    H1T16872   0.709   1.648   2.292 -4.6015  0.8517 -0.9183
  152OSM     NF16873   0.899   1.687   2.480  0.0255  0.3077  0.5041
  152OSM    HNF16874   0.917   1.591   2.500  1.2717  0.3495 -0.3651
  152OSM    C2S16875   0.761   1.739   2.486 -0.0550 -0.1698 -0.0406
  152OSM    H2S16876   0.777   1.844   2.518  1.2657  0.1465 -1.6187
  152OSM    C3S16877   0.653   1.665   2.574  0.1084 -0.4077  0.2690
  152OSM    H3S16878   0.683   1.558   2.571 -1.5065 -0.8846 -3.1497
  152OSM     O316879   0.521   1.662   2.519 -0.7474  0.6622 -0.0269
  152OSM    HO316880   0.540   1.705   2.436  0.9837 -3.0390 -1.7893
  152OSM    C4S16881   0.649   1.719   2.712 -0.0337  0.0577 -0.4025
  152OSM    H4S16882   0.663   1.827   2.729  2.0089 -0.4429  1.4890
  152OSM    C5S16883   0.644   1.651   2.822 -0.2192  0.9264 -0.1798
  152OSM    H5S16884   0.645   1.541   2.812  2.6658  1.0353 -2.1838
  152OSM    C6S16885   0.620   1.706   2.957 -0.5870  0.0722 -0.0766
  152OSM    H6S16886   0.720   1.715   3.004  0.3994  0.1146 -2.0750
  152OSM    H6T16887   0.571   1.625   3.015  3.1504 -1.7480  0.8724
  152OSM    C7S16888   0.545   1.841   2.980  0.0171 -0.0878  0.2273
  152OSM    H7S16889   0.454   1.853   2.918 -0.0268 -1.9161 -0.1200
  152OSM    H7T16890   0.617   1.913   2.934  0.8244 -1.3713 -0.5871
  152OSM    C8S16891   0.538   1.874   3.134  0.9779  0.0382  0.4551
  152OSM    H8S16892   0.486   1.971   3.147  0.3032 -0.3635  0.8076
  152OSM    H8T16893   0.635   1.886   3.187  0.5555 -0.8328  1.4526
  152OSM    C9S16894   0.448   1.775   3.210  0.5249 -0.0057  0.6123
  152OSM    H9S16895   0.480   1.676   3.171 -0.5323  0.5310 -1.8176
  152OSM    H9T16896   0.345   1.793   3.174  0.5476 -1.5418 -0.2764
  152OSM   C10S16897   0.464   1.798   3.363 -1.0450 -0.3766 -0.3473
  152OSM   H10S16898   0.426   1.899   3.387 -0.8318 -0.0292 -1.4309
  152OSM   H10T16899   0.573   1.806   3.383 -0.9239  2.1526 -1.6731
  152OSM   C11S16900   0.410   1.681   3.445  0.2306 -0.4933 -0.0291
  152OSM   H11S16901   0.450   1.589   3.397 -1.0432 -0.3864 -1.3815
  152OSM   H11T16902   0.300   1.672   3.433  0.3614 -0.8155 -1.0737
  152OSM   C12S16903   0.452   1.697   3.595 -0.1487 -0.2281 -0.3429
  152OSM   H12S16904   0.417   1.795   3.634 -1.8987 -1.1741  0.6118
  152OSM   H12T16905   0.563   1.699   3.595 -0.1617  0.9780 -0.0571
  152OSM   C13S16906   0.399   1.583   3.685 -0.3253 -0.2223  0.0912
  152OSM   H13S16907   0.407   1.480   3.643 -1.3628 -0.3605  0.1952
  152OSM   H13T16908   0.291   1.608   3.697  0.1739  0.6633  3.9791
  152OSM   C14S16909   0.461   1.573   3.818 -0.3217  0.6590 -0.7945
  152OSM   H14S16910   0.445   1.671   3.869  1.9391  0.1248  1.1218
  152OSM   H14T16911   0.571   1.561   3.820 -0.3945 -0.6073  2.6280
  152OSM   C15S16912   0.409   1.455   3.905  0.3123  0.7285  0.2047
  152OSM   H15S16913   0.299   1.458   3.895  0.4944  1.8846 -2.1616
  152OSM   H15T16914   0.420   1.469   4.015 -0.4116  1.5037  0.1875
  152OSM   C16S16915   0.463   1.314   3.875 -0.6821  0.1612  0.3341
  152OSM   H16S16916   0.574   1.315   3.882 -0.7874  0.8965  3.9177
  152OSM   H16T16917   0.445   1.270   3.775 -0.1727  1.5058 -0.3798
  152OSM   C17S16918   0.405   1.203   3.966  1.0046  0.2161 -0.2198
  152OSM   H17S16919   0.410   1.106   3.913  0.3904  0.9680 -1.7107
  152OSM   H17T16920   0.296   1.224   3.978  0.8229 -0.9625  0.3752
  152OSM   C18S16921   0.470   1.187   4.109 -0.3447  0.8582  0.7770
  152OSM   H18S16922   0.409   1.107   4.156 -0.2801  1.0100  1.1217
  152OSM   H18T16923   0.458   1.279   4.170  2.0631  1.9957 -0.3482
  152OSM   H18U16924   0.575   1.153   4.104 -0.6563  0.0189 -1.9490
  152OSM    C1F16925   1.007   1.753   2.437  0.7858 -0.6557 -0.8893
  152OSM     OF16926   0.993   1.865   2.383 -0.6503 -0.2260 -0.8746
  152OSM    C2F16927   1.141   1.691   2.463  0.1228 -0.0243  0.3470
  152OSM    H2F16928   1.189   1.672   2.365 -3.7430  0.0517 -1.7485
  152OSM    H2G16929   1.123   1.592   2.509 -1.9654  0.7672  1.3888
  152OSM    C3F16930   1.236   1.767   2.558 -0.0814 -0.1197  0.5502
  152OSM    H3F16931   1.269   1.858   2.504  1.5850 -0.4534  0.9516
  152OSM    H3G16932   1.338   1.725   2.575  0.4222  1.4013  1.4147
  152OSM    C4F16933   1.168   1.808   2.696 -0.1407 -0.4739 -0.2206
  152OSM    H4F16934   1.079   1.865   2.662  0.2072  0.2829  0.1069
  152OSM    H4G16935   1.235   1.879   2.748  0.2306  0.6279 -2.1276
  152OSM    C5F16936   1.104   1.700   2.784  0.0502 -0.6315  1.0340
  152OSM    H5F16937   1.172   1.612   2.780 -0.8468 -1.2981 -0.7398
  152OSM    H5G16938   1.009   1.661   2.740 -0.0043 -0.5633  1.0894
  152OSM    C6F16939   1.094   1.744   2.930  0.3241 -0.6365 -0.6082
  152OSM    H6F16940   1.006   1.811   2.927  0.1619 -0.7757  0.6024
  152OSM    H6G16941   1.187   1.798   2.957 -1.2037  1.5618  0.5168
  152OSM    C7F16942   1.077   1.639   3.038  0.0334  0.4377  0.2751
  152OSM    H7F16943   1.155   1.563   3.017 -2.5359 -2.2545 -0.1710
  152OSM    H7G16944   0.984   1.580   3.024  2.1455 -3.8286  2.1599
  152OSM    C8F16945   1.077   1.697   3.181  0.0167  0.0885 -0.0617
  152OSM    H8F16946   1.159   1.771   3.186 -0.3778  0.9341 -3.5701
  152OSM    H8G16947   1.105   1.615   3.251  1.6552 -0.5127 -1.3274
  152OSM    C9F16948   0.944   1.759   3.215  0.1044 -0.0556  0.0447
  152OSM    H9F16949   0.886   1.798   3.130  0.1866 -0.8548 -0.3851
  152OSM   C10F16950   0.898   1.769   3.347 -0.9698  0.6901 -0.1687
  152OSM   H10F16951   0.793   1.799   3.361 -1.0901  0.0340  0.3765
  152OSM   C11F16952   0.964   1.721   3.470 -0.3379  0.7310 -0.3436
  152OSM   H11F16953   0.975   1.815   3.528  0.5867  1.3305 -1.4377
  152OSM   H11G16954   1.064   1.683   3.438  0.0494  2.2334 -0.9925
  152OSM   C12F16955   0.876   1.617   3.544  0.1639  0.5031  0.0388
  152OSM   H12F16956   0.861   1.531   3.475  1.8657 -2.0813  2.6874
  152OSM   H12G16957   0.773   1.655   3.565 -1.1342 -1.8591 -1.5536
  152OSM   C13F16958   0.934   1.582   3.678 -0.4694  0.6364 -0.6375
  152OSM   H13F16959   0.931   1.672   3.742  0.0064  0.4186 -0.3043
  152OSM   H13G16960   1.039   1.550   3.662 -1.4911 -3.6038 -0.0448
  152OSM   C14F16961   0.873   1.464   3.748  0.4734  0.0948  0.0667
  152OSM   H14F16962   0.834   1.389   3.675  1.1782 -1.5934  1.3770
  152OSM   H14G16963   0.775   1.499   3.787  0.7064  2.4429 -1.2911
  152OSM   C15F16964   0.964   1.409   3.860  0.8764  0.6912 -0.0147
  152OSM   H15F16965   0.989   1.496   3.925 -0.5913 -0.2108  1.8394
  152OSM   H15G16966   1.046   1.350   3.815 -0.3092 -1.9284  1.0895
  152OSM   C16F16967   0.894   1.312   3.951  0.1152 -0.4279 -0.4942
  152OSM   H16F16968   0.825   1.242   3.899 -0.0675  0.3115 -1.2704
  152OSM   H16G16969   0.815   1.359   4.012  0.0089 -2.0521  0.6956
  152OSM   C17F16970   0.989   1.234   4.030 -0.0910  0.3864 -0.1090
  152OSM   H17F16971   1.043   1.301   4.101 -0.0872  0.2458  0.0228
  152OSM   H17G16972   1.052   1.175   3.960  1.0032 -0.4604  1.5008
  152OSM   C18F16973   0.915   1.141   4.124  0.0296 -0.0825 -0.5675
  152OSM   H18F16974   0.837   1.185   4.189  0.5001  1.0170 -0.7269
  152OSM   H18G16975   0.985   1.088   4.192 -1.0086  0.5351  1.0226
  152OSM   H18H16976   0.859   1.061   4.071 -3.4309  0.5884  1.7882
  153OSM      N16977   2.182   3.972   2.151 -0.5880  0.6576  0.1343
  153OSM    C1516978   2.143   3.987   2.290  0.5598 -0.4856  1.1132
  153OSM   H15A16979   2.043   4.026   2.293  0.8902  0.4806  0.0907
  153OSM   H15B16980   2.198   4.064   2.342 -0.3326  1.2364 -0.4140
  153OSM   H15C16981   2.145   3.896   2.349  1.7653 -0.5401  1.0221
  153OSM    C1416982   2.326   3.926   2.132 -0.1567 -0.0317 -0.0099
  153OSM   H14A16983   2.354   3.918   2.028  1.7282  0.6315  0.4129
  153OSM   H14B16984   2.357   3.850   2.203 -0.5558 -0.7564 -0.5970
  153OSM   H14C16985   2.383   4.012   2.164  0.4811 -0.6604  0.6145
  153OSM    C1316986   2.107   3.859   2.080  0.4032 -0.4529  0.4914
  153OSM   H13A16987   2.147   3.764   2.112  1.7454 -0.1720 -0.2572
  153OSM   H13B16988   2.115   3.857   1.972 -1.5884  1.6743  0.2199
  153OSM   H13C16989   2.003   3.858   2.109 -0.0009  2.7069 -0.4106
  153OSM    C1216990   2.149   4.100   2.086 -0.0093  0.3768  0.2382
  153OSM   H12A16991   2.162   4.073   1.982  0.2083  0.7963  0.1525
  153OSM   H12B16992   2.222   4.177   2.104  0.6614 -0.0032 -0.7654
  153OSM    C1116993   2.009   4.158   2.086  0.5607 -0.4524 -0.2102
  153OSM   H11A16994   1.942   4.075   2.053 -2.3811  1.8569 -0.3981
  153OSM   H11B16995   2.002   4.242   2.015 -0.5058 -1.0458 -0.8366
  153OSM      P16996   1.829   4.283   2.224 -0.0695  0.0068 -0.0238
  153OSM    O1316997   1.865   4.408   2.148  0.1979 -0.0328  0.5343
  153OSM    O1416998   1.705   4.216   2.186  0.0710  0.1056 -0.2706
  153OSM    O1116999   1.823   4.332   2.379  0.1791  0.5084 -0.0328
  153OSM    O1217000   1.952   4.184   2.213 -0.4678  0.3518 -0.5683
  153OSM    C1S17001   1.766   4.241   2.474  0.0417  0.2657  0.4885
  153OSM    H1S17002   1.815   4.142   2.459  3.9701  2.1754 -0.5971
  153OSM    H1T17003   1.658   4.226   2.453  0.0528 -0.6526  1.0466
  153OSM     NF17004   1.718   4.184   2.703  0.0647 -0.6020 -0.5328
  153OSM    HNF17005   1.635   4.214   2.749 -0.0063  0.5049 -1.3420
  153OSM    C2S17006   1.799   4.276   2.622 -0.0334  0.2804 -0.5532
  153OSM    H2S17007   1.904   4.249   2.645 -0.1569  1.1468  1.1477
  153OSM    C3S17008   1.771   4.424   2.663 -0.8460 -0.0851  0.1477
  153OSM    H3S17009   1.661   4.438   2.663 -1.3686 -3.1668 -2.1315
  153OSM     O317010   1.808   4.530   2.573  0.5130 -0.3062  0.5222
  153OSM    HO317011   1.819   4.493   2.485 -0.2305 -1.5643  0.9449
  153OSM    C4S17012   1.815   4.440   2.803  0.2440  0.4676 -0.6962
  153OSM    H4S17013   1.747   4.410   2.884  1.1601  1.1334  0.3513
  153OSM    C5S17014   1.936   4.481   2.844 -0.1860  0.3789 -0.0066
  153OSM    H5S17015   2.012   4.512   2.771 -0.6301 -0.2578 -0.7457
  153OSM    C6S17016   1.968   4.497   2.991  0.1669  0.2074 -0.0619
  153OSM    H6S17017   1.905   4.576   3.038  2.1408  1.2733  0.9293
  153OSM    H6T17018   2.072   4.533   3.009  0.4074  0.2838 -1.4687
  153OSM    C7S17019   1.960   4.375   3.098  0.1075  0.4142 -0.3549
  153OSM    H7S17020   2.038   4.304   3.064  0.4425  1.1395 -1.1309
  153OSM    H7T17021   1.863   4.321   3.101  0.0709  0.4512  2.6360
  153OSM    C8S17022   1.997   4.425   3.240 -0.5315  0.2166 -0.1697
  153OSM    H8S17023   1.967   4.530   3.258  0.1167  0.3106  0.4070
  153OSM    H8T17024   2.108   4.431   3.233 -0.5321 -0.6760 -1.2938
  153OSM    C9S17025   1.948   4.347   3.359  0.6663 -1.1156 -0.5395
  153OSM    H9S17026   2.013   4.257   3.365 -0.8581 -2.2007  0.4358
  153OSM    H9T17027   1.842   4.316   3.358  0.5614 -1.3127  2.8283
  153OSM   C10S17028   1.962   4.418   3.495  0.2437  0.3539 -0.5548
  153OSM   H10S17029   1.893   4.504   3.510  0.6164  0.6842 -0.6896
  153OSM   H10T17030   2.064   4.461   3.504  0.9421 -1.0334 -1.4594
  153OSM   C11S17031   1.948   4.312   3.606  0.2685  0.2783  0.4958
  153OSM   H11S17032   2.022   4.234   3.580  2.1595  2.5624 -1.4870
  153OSM   H11T17033   1.849   4.262   3.593 -0.5209  1.0666  2.9672
  153OSM   C12S17034   1.972   4.364   3.745 -0.1916 -0.4454  0.0013
  153OSM   H12S17035   1.916   4.457   3.766  2.9217  1.0054  2.7551
  153OSM   H12T17036   2.075   4.404   3.753  0.1543 -1.1704 -0.6519
  153OSM   C13S17037   1.937   4.263   3.848 -0.4376 -0.2141 -0.3416
  153OSM   H13S17038   2.009   4.179   3.847  0.1841  0.3026  0.3218
  153OSM   H13T17039   1.832   4.226   3.839  0.0739 -1.7704 -0.1134
  153OSM   C14S17040   1.952   4.336   3.981 -0.0032  0.7327 -0.1419
  153OSM   H14S17041   1.885   4.424   3.971 -1.0293 -0.2496 -3.1708
  153OSM   H14T17042   2.055   4.377   3.986  0.6354 -0.8511  0.3378
  153OSM   C15S17043   1.912   4.248   4.107 -0.5598 -0.8493 -0.3182
  153OSM   H15S17044   1.983   4.163   4.113 -0.6426 -0.8414  1.3448
  153OSM   H15T17045   1.804   4.221   4.102 -1.6444  2.5502  1.8236
  153OSM   C16S17046   1.930   4.328   4.236  0.6194  0.4664 -0.2021
  153OSM   H16S17047   1.870   4.420   4.222 -0.2553 -0.2590 -1.5158
  153OSM   H16T17048   2.034   4.362   4.249  1.0948 -0.9623 -0.0983
  153OSM   C17S17049   1.881   4.236   4.357  0.1815  0.2840 -0.9109
  153OSM   H17S17050   1.935   4.140   4.346  0.0462 -0.0448  1.0230
  153OSM   H17T17051   1.775   4.203   4.359  0.8372 -1.9295 -0.4011
  153OSM   C18S17052   1.906   4.304   4.494  0.0442  0.4382 -0.3125
  153OSM   H18S17053   2.013   4.333   4.497  0.4027 -0.7888 -0.5241
  153OSM   H18T17054   1.873   4.238   4.577 -0.6464  0.2333 -0.7388
  153OSM   H18U17055   1.847   4.398   4.503 -1.2982 -0.4549  0.6856
  153OSM    C1F17056   1.735   4.049   2.704  0.1140  0.0361  0.1585
  153OSM     OF17057   1.832   3.996   2.650 -0.0928 -0.3678  0.7899
  153OSM    C2F17058   1.626   3.967   2.770  0.1492  0.4063 -0.4027
  153OSM    H2F17059   1.548   3.943   2.695 -0.8625  1.8481  0.1415
  153OSM    H2G17060   1.572   4.023   2.849 -1.4329 -1.1615 -0.3115
  153OSM    C3F17061   1.683   3.829   2.811  0.4074 -0.5720  0.0245
  153OSM    H3F17062   1.774   3.831   2.875  0.9207  0.4941 -0.7113
  153OSM    H3G17063   1.704   3.775   2.716 -1.2821 -2.1007  0.4618
  153OSM    C4F17064   1.580   3.741   2.880  0.2528  0.4116 -0.6052
  153OSM    H4F17065   1.594   3.636   2.848  0.7671  0.3999 -0.3400
  153OSM    H4G17066   1.478   3.771   2.848  0.5748  0.0749 -1.9985
  153OSM    C5F17067   1.593   3.750   3.030  0.0200  0.4017 -0.5368
  153OSM    H5F17068   1.537   3.840   3.060 -0.3710 -0.1825  0.5326
  153OSM    H5G17069   1.701   3.744   3.056 -0.1901 -0.8456  0.1118
  153OSM    C6F17070   1.530   3.636   3.106  0.6246 -0.4036 -0.1173
  153OSM    H6F17071   1.579   3.541   3.075  1.3705 -0.4392  1.1036
  153OSM    H6G17072   1.423   3.631   3.075  0.5410  0.3891  0.0392
  153OSM    C7F17073   1.509   3.646   3.258 -0.4371 -0.7968 -0.0207
  153OSM    H7F17074   1.485   3.753   3.277  0.2450 -0.9520  1.9675
  153OSM    H7G17075   1.612   3.634   3.298 -0.4865 -0.3088  0.2632
  153OSM    C8F17076   1.411   3.555   3.327 -0.4861 -0.0173 -0.1626
  153OSM    H8F17077   1.433   3.563   3.435 -0.4586  1.5623 -0.2675
  153OSM    H8G17078   1.426   3.447   3.304 -1.4051 -0.6384  1.8857
  153OSM    C9F17079   1.267   3.598   3.303 -0.0838  0.6461  0.4171
  153OSM    H9F17080   1.246   3.607   3.196  2.0559 -0.0696 -0.1173
  153OSM   C10F17081   1.167   3.622   3.390 -0.4518 -0.1327 -0.1653
  153OSM   H10F17082   1.069   3.645   3.347 -0.5783 -1.1636 -0.4641
  153OSM   C11F17083   1.175   3.582   3.537  0.0708 -0.0816  0.0158
  153OSM   H11F17084   1.229   3.661   3.593  0.6945 -0.8993  0.5936
  153OSM   H11G17085   1.239   3.492   3.543  0.2034 -0.0884 -1.2618
  153OSM   C12F17086   1.041   3.541   3.609 -0.3980  0.1784 -0.1897
  153OSM   H12F17087   0.988   3.463   3.551  2.2316 -1.6044 -0.3560
  153OSM   H12G17088   0.983   3.635   3.620  1.0904  0.8373  3.9231
  153OSM   C13F17089   1.066   3.492   3.750  0.4239  0.0211 -0.5207
  153OSM   H13F17090   1.129   3.562   3.808  0.2888 -2.2319  2.6046
  153OSM   H13G17091   1.115   3.393   3.738 -2.6319 -1.7122  0.2543
  153OSM   C14F17092   0.931   3.483   3.822  0.7996 -0.0591  0.1952
  153OSM   H14F17093   0.859   3.427   3.757 -1.0405  0.9878  1.2278
  153OSM   H14G17094   0.890   3.586   3.819 -2.9748 -1.3400 -3.6497
  153OSM   C15F17095   0.940   3.435   3.967 -0.0034 -0.3711 -0.2817
  153OSM   H15F17096   0.998   3.341   3.960  0.4128 -0.1695  0.4116
  153OSM   H15G17097   0.841   3.403   4.006  0.3786 -0.0321  1.0042
  153OSM   C16F17098   0.988   3.540   4.075  0.5836  0.6390 -0.2294
  153OSM   H16F17099   0.915   3.622   4.063 -1.7364 -1.5774 -2.4498
  153OSM   H16G17100   1.089   3.574   4.042  0.6460  1.1557  0.4800
  153OSM   C17F17101   0.987   3.497   4.226  0.3296  0.4693 -1.2633
  153OSM   H17F17102   1.046   3.403   4.233 -0.4634 -0.0777 -1.6868
  153OSM   H17G17103   0.888   3.460   4.261  0.9776  0.1864  0.3299
  153OSM   C18F17104   1.044   3.603   4.323 -0.1402 -0.2005 -0.5593
  153OSM   H18F17105   0.965   3.681   4.320 -0.7069 -0.7173  0.3356
  153OSM   H18G17106   1.144   3.638   4.289 -0.0500  1.0302  0.8512
  153OSM   H18H17107   1.060   3.563   4.425  0.6887 -1.9350 -1.3332
  154OSM      N17108   4.980   0.710   2.162 -0.0856 -0.1564 -0.6564
  154OSM    C1517109   4.885   0.596   2.172  0.1054 -0.2837  0.0280
  154OSM   H15A17110   4.890   0.545   2.267  1.0494  0.9595  0.6806
  154OSM   H15B17111   4.884   0.536   2.082  1.4438 -1.2494  0.6288
  154OSM   H15C17112   4.785   0.635   2.165 -0.4418 -1.5821  0.3863
  154OSM    C1417113   4.930   0.798   2.043 -0.6377 -0.5628 -0.4092
  154OSM   H14A17114   4.990   0.887   2.057  1.1702 -1.5042 -1.8312
  154OSM   H14B17115   4.829   0.831   2.060 -0.5012 -0.8642  1.1680
  154OSM   H14C17116   4.950   0.753   1.947 -0.5118  1.9416 -1.6620
  154OSM    C1317117   4.960   0.791   2.283 -0.2121 -0.1072  0.0830
  154OSM   H13A17118   5.038   0.865   2.292 -0.3299  0.2783 -1.7636
  154OSM   H13B17119   4.962   0.733   2.374  3.2265 -1.6895 -0.8282
  154OSM   H13C17120   4.869   0.849   2.285  0.0212  0.2523  1.1079
  154OSM    C1217121   5.127   0.666   2.140  0.4700 -0.1600 -0.6651
  154OSM   H12A17122   5.126   0.584   2.070  1.2503 -0.4868 -0.3101
  154OSM   H12B17123   5.164   0.628   2.234  2.5138  1.0948 -0.8919
  154OSM    C1117124   5.229   0.771   2.100  0.1335 -0.0134  0.9118
  154OSM   H11A17125   5.186   0.826   2.013 -0.9339 -0.2205  1.2868
  154OSM   H11B17126   5.323   0.724   2.065 -0.4608  0.4305 -1.4386
  154OSM      P17127   5.363   0.840   2.308 -0.3963  0.2316 -0.1455
  154OSM    O1317128   5.334   0.730   2.403 -0.7290  0.4456  0.4845
  154OSM    O1417129   5.492   0.829   2.239 -0.1112  0.5379 -0.9867
  154OSM    O1117130   5.368   0.980   2.385  0.5590 -0.0815 -0.8481
  154OSM    O1217131   5.248   0.858   2.206  0.2388  0.4110  0.5141
  154OSM    C1S17132   5.253   1.029   2.459  0.4756  0.3031 -0.2333
  154OSM    H1S17133   5.179   0.949   2.484  1.3686  0.1722  2.3867
  154OSM    H1T17134   5.204   1.119   2.418 -0.5053  1.0147  2.2672
  154OSM     NF17135   5.183   1.103   2.687 -0.0360 -0.9051  0.2552
  154OSM    HNF17136   5.170   1.196   2.721  3.3567 -0.7905  1.5759
  154OSM    C2S17137   5.298   1.081   2.601  0.4396  0.2212  0.5322
  154OSM    H2S17138   5.347   0.997   2.655  1.4618  1.2975  1.3274
  154OSM    C3S17139   5.396   1.198   2.588 -0.0292  0.3214  0.0769
  154OSM    H3S17140   5.339   1.282   2.544 -0.6122 -0.8611 -1.5366
  154OSM     O317141   5.512   1.178   2.498 -0.7736 -0.6551 -0.5381
  154OSM    HO317142   5.492   1.105   2.440 -0.0291 -2.0465  0.8816
  154OSM    C4S17143   5.441   1.255   2.715 -0.1272  0.5627  0.3814
  154OSM    H4S17144   5.394   1.353   2.730  1.7358  2.2171 -3.2042
  154OSM    C5S17145   5.519   1.198   2.810  0.5213 -0.2467 -0.2955
  154OSM    H5S17146   5.556   1.097   2.791  1.3014 -0.0205 -0.0276
  154OSM    C6S17147   5.543   1.257   2.948 -0.3362  0.3325 -0.1066
  154OSM    H6S17148   5.596   1.180   3.008 -3.3200 -1.2877  0.6471
  154OSM    H6T17149   5.450   1.268   3.007  0.4276 -0.0409  1.1958
  154OSM    C7S17150   5.625   1.386   2.964  0.4239 -0.2800  0.9702
  154OSM    H7S17151   5.554   1.468   2.939 -0.9365 -1.2649  1.4101
  154OSM    H7T17152   5.708   1.367   2.893 -1.0765  0.8966 -1.2338
  154OSM    C8S17153   5.703   1.400   3.087  0.2013  0.1962 -0.3721
  154OSM    H8S17154   5.747   1.502   3.094  1.3688 -0.2658 -0.8117
  154OSM    H8T17155   5.788   1.329   3.095  0.1495  0.3680  3.3900
  154OSM    C9S17156   5.614   1.402   3.215 -0.0179 -0.4822 -0.6789
  154OSM    H9S17157   5.571   1.305   3.247  0.0679  0.4446  2.6141
  154OSM    H9T17158   5.544   1.487   3.201  0.0823 -0.4493 -0.9720
  154OSM   C10S17159   5.701   1.435   3.338 -0.7071 -0.0726 -0.9069
  154OSM   H10S17160   5.749   1.534   3.345 -0.7096 -0.2131  2.5449
  154OSM   H10T17161   5.781   1.360   3.352 -3.1789 -2.6444  0.6029
  154OSM   C11S17162   5.621   1.431   3.469  0.1259 -0.5958  0.3947
  154OSM   H11S17163   5.522   1.480   3.466 -0.2803 -1.1171  2.9626
  154OSM   H11T17164   5.683   1.474   3.551 -0.6118  0.9862  0.1445
  154OSM   C12S17165   5.586   1.286   3.513 -0.7791  0.4135 -0.0913
  154OSM   H12S17166   5.671   1.215   3.503 -0.5058  0.7024  0.1645
  154OSM   H12T17167   5.504   1.250   3.448 -1.6080  2.0491 -0.0045
  154OSM   C13S17168   5.536   1.271   3.669  0.4373  0.0022  0.1228
  154OSM   H13S17169   5.516   1.162   3.677  2.1954 -0.6056 -2.3747
  154OSM   H13T17170   5.437   1.320   3.678  0.5089  0.0466  0.6511
  154OSM   C14S17171   5.632   1.327   3.771 -0.4151 -0.6800 -0.7510
  154OSM   H14S17172   5.615   1.437   3.775 -2.5422 -0.8690 -2.5237
  154OSM   H14T17173   5.732   1.306   3.730  0.2656 -2.6263  1.6807
  154OSM   C15S17174   5.624   1.253   3.909  0.0909 -0.3562 -0.0620
  154OSM   H15S17175   5.646   1.147   3.884 -1.2559 -1.0684  1.5329
  154OSM   H15T17176   5.519   1.252   3.946 -0.4037  1.2825 -1.2723
  154OSM   C16S17177   5.723   1.312   4.014  0.2786 -0.6782  0.0302
  154OSM   H16S17178   5.819   1.290   3.963  0.4842 -2.0704  0.9882
  154OSM   H16T17179   5.703   1.255   4.107 -1.9364  2.4475  1.6672
  154OSM   C17S17180   5.719   1.461   4.041  0.0536 -0.2298  0.3528
  154OSM   H17S17181   5.758   1.523   3.957 -1.4320 -0.7083 -0.7238
  154OSM   H17T17182   5.789   1.485   4.124  0.7851 -0.4772 -0.1835
  154OSM   C18S17183   5.578   1.513   4.063  0.1186  0.7567 -0.6860
  154OSM   H18S17184   5.521   1.515   3.968 -2.7132  0.1104  0.8989
  154OSM   H18T17185   5.577   1.618   4.099  0.7181  1.3007 -2.1901
  154OSM   H18U17186   5.518   1.464   4.142 -0.3376  1.7217 -0.4136
  154OSM    C1F17187   5.091   1.010   2.721  0.1723  0.2384  0.6889
  154OSM     OF17188   5.104   0.888   2.697 -0.4676  0.0958 -0.0619
  154OSM    C2F17189   4.967   1.052   2.796  0.0618  0.2017  0.7848
  154OSM    H2F17190   4.883   0.992   2.754  1.3273  0.4641 -2.4651
  154OSM    H2G17191   4.943   1.156   2.766  0.1669 -0.3375 -1.3551
  154OSM    C3F17192   4.982   1.024   2.953  0.1499  0.2213  0.5652
  154OSM    H3F17193   5.022   0.921   2.959  1.1024  0.3314 -2.3275
  154OSM    H3G17194   4.882   1.043   2.997  0.0053  1.2450 -0.1593
  154OSM    C4F17195   5.062   1.140   3.026 -0.0544 -0.4626 -0.5274
  154OSM    H4F17196   5.018   1.241   3.010  0.1983 -0.0825  1.0188
  154OSM    H4G17197   5.158   1.139   2.972  1.0017  0.7911  1.2215
  154OSM    C5F17198   5.091   1.104   3.171  0.3848  0.4947 -0.0636
  154OSM    H5F17199   5.167   1.175   3.210 -0.2659  1.3706 -0.3501
  154OSM    H5G17200   5.135   1.003   3.158  0.1472  0.5780 -1.8235
  154OSM    C6F17201   4.965   1.111   3.265 -0.6251  0.0550  0.3327
  154OSM    H6F17202   4.881   1.045   3.235 -0.5764  0.3198 -0.4050
  154OSM    H6G17203   4.929   1.215   3.279  1.8514  0.7989  1.8502
  154OSM    C7F17204   5.014   1.060   3.401  0.0554 -0.6939 -0.1720
  154OSM    H7F17205   5.089   1.135   3.435 -1.9379  0.3325  2.3615
  154OSM    H7G17206   5.069   0.965   3.387 -1.7312 -1.6124 -1.3402
  154OSM    C8F17207   4.905   1.043   3.507  0.3629  0.0864  0.7635
  154OSM    H8F17208   4.841   0.962   3.469  0.0411  0.7689 -0.1941
  154OSM    H8G17209   4.857   1.143   3.517  1.1855  0.5386  0.3321
  154OSM    C9F17210   4.947   1.004   3.645 -0.7399 -1.0056  0.4114
  154OSM    H9F17211   5.054   1.016   3.665 -0.2942 -0.3920 -2.0265
  154OSM   C10F17212   4.883   0.937   3.736 -0.2990  0.1077 -0.4183
  154OSM   H10F17213   4.934   0.919   3.832 -0.5740  0.8937 -0.1217
  154OSM   C11F17214   4.746   0.870   3.711  0.5027  0.1328 -0.1474
  154OSM   H11F17215   4.754   0.760   3.709  1.0379  0.1644 -0.0738
  154OSM   H11G17216   4.704   0.890   3.611 -0.0123  0.8492  0.1999
  154OSM   C12F17217   4.625   0.924   3.796  0.9058 -0.2327  0.2274
  154OSM   H12F17218   4.534   0.897   3.739  2.5423 -2.4217 -1.5901
  154OSM   H12G17219   4.628   1.035   3.790 -0.0783 -0.1435  1.2657
  154OSM   C13F17220   4.615   0.864   3.930 -0.7126 -0.2518 -0.1833
  154OSM   H13F17221   4.628   0.754   3.917  1.3293  0.1334 -2.0945
  154OSM   H13G17222   4.510   0.884   3.958 -0.8687  0.1729 -1.0257
  154OSM   C14F17223   4.718   0.912   4.026  0.2561  0.3983 -0.4415
  154OSM   H14F17224   4.713   1.023   4.032  0.8327  0.3656  0.9275
  154OSM   H14G17225   4.821   0.883   3.994  0.4557  1.7975 -1.1186
  154OSM   C15F17226   4.694   0.873   4.169 -0.2162 -0.4655 -0.9716
  154OSM   H15F17227   4.687   0.764   4.190  0.5336 -0.3267  0.0873
  154OSM   H15G17228   4.592   0.909   4.197  0.7993  0.4949  1.9451
  154OSM   C16F17229   4.800   0.935   4.265 -0.1332  0.4053 -0.6465
  154OSM   H16F17230   4.816   1.041   4.234 -1.7832  0.7842 -0.3173
  154OSM   H16G17231   4.892   0.873   4.261 -0.7233 -0.5990  0.6242
  154OSM   C17F17232   4.770   0.930   4.418 -0.0644  0.5403 -0.2654
  154OSM   H17F17233   4.688   1.002   4.440  1.1820  2.2496 -1.0399
  154OSM   H17G17234   4.856   0.966   4.477  0.2911 -0.4562 -0.1564
  154OSM   C18F17235   4.739   0.792   4.481 -0.2014  0.5588 -0.8223
  154OSM   H18F17236   4.808   0.710   4.452 -1.4225 -1.3757  1.3495
  154OSM   H18G17237   4.636   0.753   4.465  0.4948 -0.3736 -3.3875
  154OSM   H18H17238   4.753   0.801   4.591 -1.7940  0.0695 -0.5502
  155OSM      N17239   2.505   5.386   2.275  0.2133  0.1428 -0.2268
  155OSM    C1517240   2.626   5.457   2.228  0.3920  0.5872 -0.6164
  155OSM   H15A17241   2.661   5.516   2.312 -0.4687 -1.1563  1.0452
  155OSM   H15B17242   2.599   5.513   2.140 -1.0250  0.9330  0.0142
  155OSM   H15C17243   2.712   5.394   2.208 -0.3746 -0.6210 -0.1881
  155OSM    C1417244   2.450   5.295   2.175 -0.6119 -0.2621  0.5165
  155OSM   H14A17245   2.413   5.353   2.092  0.5210 -0.5159 -0.1842
  155OSM   H14B17246   2.372   5.233   2.218 -0.1501 -0.1999  1.4665
  155OSM   H14C17247   2.515   5.219   2.135 -2.1195  0.7062 -4.4689
  155OSM    C1317248   2.526   5.297   2.397  0.1548  0.0248  0.2382
  155OSM   H13A17249   2.432   5.255   2.429  0.3908 -1.3439 -0.7690
  155OSM   H13B17250   2.574   5.350   2.478  2.3077 -0.4613 -0.6413
  155OSM   H13C17251   2.594   5.214   2.381 -0.0674 -0.8942  3.3095
  155OSM    C1217252   2.401   5.484   2.323  0.2957  0.4869 -0.7504
  155OSM   H12A17253   2.429   5.525   2.419  1.0437 -0.2661 -0.6342
  155OSM   H12B17254   2.315   5.426   2.351  0.8159 -0.4588 -1.0613
  155OSM    C1117255   2.364   5.608   2.243 -0.5953 -1.0051  0.2541
  155OSM   H11A17256   2.450   5.668   2.208 -2.6988  1.5161 -0.9244
  155OSM   H11B17257   2.309   5.676   2.313 -1.1936 -1.2166 -0.0073
  155OSM      P17258   2.124   5.556   2.138  0.0042  0.0401  0.2626
  155OSM    O1317259   2.086   5.645   2.026  0.6671  0.7297 -0.3974
  155OSM    O1417260   2.086   5.411   2.135  0.0948  0.7890 -0.3918
  155OSM    O1117261   2.078   5.615   2.274 -0.3965 -0.4314  0.3888
  155OSM    O1217262   2.285   5.560   2.135  0.8074 -0.1637 -0.4177
  155OSM    C1S17263   2.007   5.552   2.374 -0.7832 -0.0947 -0.1711
  155OSM    H1S17264   2.070   5.468   2.411  0.9586  1.8707  1.6389
  155OSM    H1T17265   1.918   5.503   2.331 -0.0645 -1.5841 -0.0045
  155OSM     NF17266   1.917   5.573   2.604 -0.2762 -0.2322  0.3183
  155OSM    HNF17267   1.819   5.574   2.624 -0.2889 -3.1154  0.8270
  155OSM    C2S17268   1.968   5.645   2.489  1.3014  0.0508  0.7951
  155OSM    H2S17269   2.060   5.705   2.512  0.5807  1.5286  0.0077
  155OSM    C3S17270   1.874   5.752   2.439  0.7407 -0.4478 -0.3934
  155OSM    H3S17271   1.772   5.708   2.435  0.5533 -0.1096  0.4517
  155OSM     O317272   1.891   5.806   2.306 -0.6505 -0.5333  0.4220
  155OSM    HO317273   1.964   5.759   2.267  0.3622 -0.6581  2.3493
  155OSM    C4S17274   1.872   5.857   2.544  0.5137 -0.2360  0.1614
  155OSM    H4S17275   1.815   5.825   2.633  0.4850  0.3322  0.3486
  155OSM    C5S17276   1.922   5.981   2.554 -0.1597  0.2165  1.1921
  155OSM    H5S17277   1.982   6.019   2.470  1.2002  1.9449  2.8194
  155OSM    C6S17278   1.909   6.070   2.676 -0.5671 -0.3666 -0.6117
  155OSM    H6S17279   1.873   6.172   2.649 -2.9825 -1.4373 -1.6795
  155OSM    H6T17280   2.015   6.090   2.704 -0.2923 -0.2918 -1.6535
  155OSM    C7S17281   1.830   6.027   2.805  0.3105 -0.1320 -0.4897
  155OSM    H7S17282   1.864   5.924   2.831  0.2255  0.1273  0.6829
  155OSM    H7T17283   1.724   6.010   2.775  0.6177 -1.0290 -1.1222
  155OSM    C8S17284   1.858   6.116   2.929  0.6544 -0.3491 -0.0070
  155OSM    H8S17285   1.793   6.205   2.910 -1.0167 -1.3546  0.7330
  155OSM    H8T17286   1.964   6.144   2.949  0.7353 -0.0341 -0.8500
  155OSM    C9S17287   1.806   6.051   3.058 -0.0947  0.1032 -0.6542
  155OSM    H9S17288   1.862   5.958   3.082 -0.5878 -0.4517 -1.6080
  155OSM    H9T17289   1.699   6.026   3.045 -0.1080 -0.4617  0.3659
  155OSM   C10S17290   1.825   6.133   3.186 -0.5660  0.3208  0.0851
  155OSM   H10S17291   1.757   6.221   3.179 -0.7732  0.2589  1.2026
  155OSM   H10T17292   1.927   6.176   3.187 -0.4029 -0.0664  1.2048
  155OSM   C11S17293   1.813   6.051   3.311 -0.2792  0.5682 -0.1627
  155OSM   H11S17294   1.893   5.974   3.316 -1.3634 -0.5851  0.0318
  155OSM   H11T17295   1.716   5.997   3.316 -0.5067  1.0573  2.8381
  155OSM   C12S17296   1.845   6.138   3.438  0.1899  0.0438  0.4061
  155OSM   H12S17297   1.755   6.198   3.464 -2.1863 -2.9224 -0.3193
  155OSM   H12T17298   1.923   6.211   3.411  1.2598 -1.1804  0.0770
  155OSM   C13S17299   1.877   6.047   3.567 -0.3174 -0.1049 -0.0112
  155OSM   H13S17300   1.876   6.106   3.661 -2.5730 -1.2591  0.7814
  155OSM   H13T17301   1.969   5.985   3.566 -1.2726 -1.5923  0.2928
  155OSM   C14S17302   1.764   5.943   3.587 -0.0174 -0.3497 -0.4021
  155OSM   H14S17303   1.792   5.855   3.525 -0.4118 -0.3155 -0.6277
  155OSM   H14T17304   1.666   5.974   3.547 -0.4014 -1.6130 -0.4863
  155OSM   C15S17305   1.739   5.890   3.724  0.0949  0.4433 -0.4776
  155OSM   H15S17306   1.678   5.799   3.704  0.7576 -0.3680  0.9831
  155OSM   H15T17307   1.684   5.957   3.793 -0.0736  2.7045 -2.6742
  155OSM   C16S17308   1.863   5.849   3.810 -0.6235  0.0870  0.0717
  155OSM   H16S17309   1.948   5.921   3.813  0.3303 -1.0225  0.4679
  155OSM   H16T17310   1.900   5.755   3.765 -0.1669 -0.6958  1.9904
  155OSM   C17S17311   1.817   5.836   3.953 -0.3130  0.4364  0.4560
  155OSM   H17S17312   1.737   5.759   3.964  1.3479 -1.5177 -0.5879
  155OSM   H17T17313   1.766   5.922   4.002 -3.3915 -0.9558 -0.0202
  155OSM   C18S17314   1.924   5.796   4.053 -0.2951 -0.2635  0.1373
  155OSM   H18S17315   1.997   5.879   4.061 -0.9727  0.3234  0.3709
  155OSM   H18T17316   1.976   5.703   4.021 -0.0115 -0.0415 -0.0437
  155OSM   H18U17317   1.876   5.775   4.151  1.5784 -0.4977  1.0396
  155OSM    C1F17318   1.997   5.500   2.682  0.0223 -0.1428 -0.0990
  155OSM     OF17319   2.119   5.486   2.663 -0.3717 -0.2253 -0.0506
  155OSM    C2F17320   1.918   5.423   2.791 -0.0994  0.3517  0.4669
  155OSM    H2F17321   1.924   5.314   2.772  2.6035  0.1744  1.9352
  155OSM    H2G17322   1.809   5.435   2.772 -0.1498 -1.5871 -0.7470
  155OSM    C3F17323   1.957   5.455   2.940  0.0988 -0.0498  0.4524
  155OSM    H3F17324   2.051   5.402   2.964  1.2074  2.0862  1.1048
  155OSM    H3G17325   1.878   5.409   3.003  0.0419  0.5116  0.8012
  155OSM    C4F17326   1.964   5.609   2.980  0.0041 -0.1613 -0.0312
  155OSM    H4F17327   1.864   5.655   2.967  0.0066 -0.0958  0.1720
  155OSM    H4G17328   2.030   5.664   2.910  0.4536  0.0092  0.5185
  155OSM    C5F17329   2.013   5.631   3.123  0.5042  0.1786 -0.4963
  155OSM    H5F17330   1.959   5.569   3.198  1.4091  0.9267  0.8290
  155OSM    H5G17331   1.989   5.735   3.156 -0.4502 -0.1637 -0.0604
  155OSM    C6F17332   2.157   5.603   3.147 -0.6505  0.5911 -0.0247
  155OSM    H6F17333   2.214   5.641   3.060 -0.8112 -0.6238 -0.6896
  155OSM    H6G17334   2.175   5.493   3.138  0.7246  0.8695 -0.9251
  155OSM    C7F17335   2.209   5.664   3.276  0.2017  0.2331 -0.1055
  155OSM    H7F17336   2.172   5.769   3.277 -0.9384 -0.1497 -0.4446
  155OSM    H7G17337   2.319   5.678   3.273  0.6623 -2.8229 -1.9837
  155OSM    C8F17338   2.167   5.587   3.404  0.7471  1.1070  0.1969
  155OSM    H8F17339   2.225   5.492   3.404 -0.6628  0.2207 -0.1534
  155OSM    H8G17340   2.058   5.566   3.410  0.9387 -1.2624 -2.3193
  155OSM    C9F17341   2.213   5.656   3.524  0.1167  0.3739  0.6670
  155OSM    H9F17342   2.251   5.757   3.502  2.0019 -0.5522 -0.5603
  155OSM   C10F17343   2.218   5.619   3.653  0.3540 -0.1767 -0.3760
  155OSM   H10F17344   2.238   5.702   3.721 -0.2363 -0.2480 -0.1073
  155OSM   C11F17345   2.174   5.487   3.721 -0.3304 -0.0862  0.1897
  155OSM   H11F17346   2.189   5.399   3.656 -1.6106 -0.5190  0.4570
  155OSM   H11G17347   2.064   5.495   3.732 -0.2918  2.5487 -0.6129
  155OSM   C12F17348   2.243   5.454   3.851  0.4046 -0.8472 -0.2992
  155OSM   H12F17349   2.201   5.526   3.924 -2.9274 -1.2329 -1.6713
  155OSM   H12G17350   2.353   5.467   3.843  0.4717 -0.0449  1.5384
  155OSM   C13F17351   2.217   5.315   3.905 -0.0274 -0.5036 -0.2980
  155OSM   H13F17352   2.276   5.247   3.840 -1.1546 -0.0032 -1.9139
  155OSM   H13G17353   2.111   5.283   3.896 -0.4541  0.5854  0.6392
  155OSM   C14F17354   2.269   5.301   4.047 -1.1448 -0.1681  0.3266
  155OSM   H14F17355   2.210   5.347   4.129  0.1617 -1.3544  1.9926
  155OSM   H14G17356   2.373   5.340   4.047 -1.1593 -0.0115 -1.8179
  155OSM   C15F17357   2.275   5.153   4.080 -0.3826  0.5847 -0.0311
  155OSM   H15F17358   2.361   5.108   4.026 -1.6143  0.0641 -1.6395
  155OSM   H15G17359   2.183   5.103   4.043 -1.7376  0.8392  2.6902
  155OSM   C16F17360   2.289   5.122   4.229 -0.2704  0.3618  0.0560
  155OSM   H16F17361   2.279   5.013   4.248 -0.4864  0.6054  1.5265
  155OSM   H16G17362   2.216   5.171   4.298  0.6796  0.0750  1.2987
  155OSM   C17F17363   2.421   5.169   4.281 -0.5424  0.1192 -0.2008
  155OSM   H17F17364   2.429   5.276   4.253  1.6183 -0.0806 -0.5269
  155OSM   H17G17365   2.501   5.123   4.219 -0.9973  2.1155 -2.3878
  155OSM   C18F17366   2.433   5.165   4.433  0.3144  0.6954 -0.4818
  155OSM   H18F17367   2.537   5.177   4.470  0.2066 -2.0831  1.0042
  155OSM   H18G17368   2.401   5.062   4.461  1.2139  0.4676 -0.2602
  155OSM   H18H17369   2.361   5.229   4.488  0.5893  0.3174  0.3276
  156OSM      N17370   5.448   3.713   2.003 -0.2122 -0.3185  0.0832
  156OSM    C1517371   5.300   3.727   1.984  0.3555  0.0920  0.0903
  156OSM   H15A17372   5.243   3.660   2.047 -0.5262 -0.4003 -1.1741
  156OSM   H15B17373   5.272   3.699   1.884  1.5162 -0.6720 -0.0418
  156OSM   H15C17374   5.268   3.830   1.991 -0.4575  0.0042 -1.6192
  156OSM    C1417375   5.477   3.567   1.962 -0.8315  0.1726 -0.3355
  156OSM   H14A17376   5.444   3.495   2.035 -1.0208 -1.4696 -1.9879
  156OSM   H14B17377   5.582   3.547   1.943 -1.2811 -1.9893 -0.7947
  156OSM   H14C17378   5.432   3.554   1.865  0.0461  3.2490 -1.2783
  156OSM    C1317379   5.517   3.798   1.898 -0.3076 -0.0015 -0.1287
  156OSM   H13A17380   5.468   3.780   1.804  1.4686 -2.6989 -0.6432
  156OSM   H13B17381   5.623   3.775   1.898 -0.0247  1.2217  0.4349
  156OSM   H13C17382   5.501   3.905   1.911 -0.1314 -0.1944  2.1586
  156OSM    C1217383   5.494   3.743   2.146  0.0994  0.5840  0.3178
  156OSM   H12A17384   5.599   3.717   2.149 -0.2155 -0.7975  0.0430
  156OSM   H12B17385   5.444   3.676   2.215  3.0214 -0.5635  1.4781
  156OSM    C1117386   5.477   3.890   2.191 -0.3634 -0.2649 -0.0990
  156OSM   H11A17387   5.526   3.941   2.105  0.6633 -1.9135 -0.5376
  156OSM   H11B17388   5.536   3.922   2.280 -1.0923 -0.8650  0.6166
  156OSM      P17389   5.268   3.894   2.326  0.1024 -0.5412 -0.0266
  156OSM    O1317390   5.155   3.988   2.349  0.4643 -0.1056 -0.3065
  156OSM    O1417391   5.235   3.754   2.318  0.1712 -0.1234  0.3888
  156OSM    O1117392   5.370   3.897   2.448 -0.3364  0.0606  0.1630
  156OSM    O1217393   5.343   3.939   2.197  0.0588  0.2694  0.5099
  156OSM    C1S17394   5.321   3.856   2.575 -0.1076 -0.2352 -0.4221
  156OSM    H1S17395   5.279   3.753   2.574 -1.1718 -0.0177  3.5258
  156OSM    H1T17396   5.241   3.930   2.599  0.4564 -0.4661  2.6314
  156OSM     NF17397   5.335   3.862   2.814  0.1679  0.3769  0.3068
  156OSM    HNF17398   5.316   3.943   2.869  2.1331  0.3074  1.1898
  156OSM    C2S17399   5.416   3.870   2.697  0.3863  0.0516  0.4062
  156OSM    H2S17400   5.491   3.788   2.698  1.6851  1.1364 -1.1563
  156OSM    C3S17401   5.506   4.004   2.691 -0.2065  0.6810  0.3433
  156OSM    H3S17402   5.434   4.088   2.694 -0.6941  0.2744  0.1734
  156OSM     O317403   5.591   4.008   2.574 -0.5427  0.2010 -0.2298
  156OSM    HO317404   5.553   3.944   2.513  0.0155  0.7916 -1.2209
  156OSM    C4S17405   5.591   4.022   2.809  0.2704 -0.3516 -0.2583
  156OSM    H4S17406   5.684   3.966   2.793  1.3254  1.0078  0.9226
  156OSM    C5S17407   5.590   4.116   2.903 -0.0218  0.5751  0.0291
  156OSM    H5S17408   5.519   4.200   2.906  1.3538  1.8238 -0.8945
  156OSM    C6S17409   5.702   4.118   3.003 -1.0861 -0.3077 -0.4952
  156OSM    H6S17410   5.755   4.215   2.992 -1.8382  0.2299  0.5277
  156OSM    H6T17411   5.780   4.042   2.982  0.4692  0.6848  1.4144
  156OSM    C7S17412   5.650   4.103   3.143 -0.2323  0.0585  0.2034
  156OSM    H7S17413   5.593   4.008   3.150 -1.0025  0.0936 -3.5404
  156OSM    H7T17414   5.568   4.175   3.163 -0.1294  0.7861 -1.8061
  156OSM    C8S17415   5.766   4.107   3.241 -0.6158  0.1107 -0.5838
  156OSM    H8S17416   5.848   4.172   3.206 -0.1532  0.5223  1.1616
  156OSM    H8T17417   5.811   4.007   3.260  0.1860  0.4126 -0.8876
  156OSM    C9S17418   5.725   4.157   3.380 -0.3551  0.1271  0.3371
  156OSM    H9S17419   5.665   4.084   3.439 -0.0465  0.2847  0.8496
  156OSM    H9T17420   5.650   4.236   3.357 -2.5470 -2.0509 -0.4855
  156OSM   C10S17421   5.846   4.190   3.476  0.0301 -0.4959 -0.1708
  156OSM   H10S17422   5.908   4.270   3.431 -0.9248  0.0089 -0.6240
  156OSM   H10T17423   5.900   4.093   3.476  0.4104 -0.2923  0.6662
  156OSM   C11S17424   5.796   4.237   3.617 -0.0136  0.4997  0.9722
  156OSM   H11S17425   5.759   4.149   3.674  2.0300 -1.4065 -0.4733
  156OSM   H11T17426   5.721   4.317   3.602  0.0409  0.2221 -1.0180
  156OSM   C12S17427   5.905   4.298   3.698 -0.1280 -0.2032 -0.0939
  156OSM   H12S17428   5.924   4.400   3.657  1.4003 -0.5055 -0.2069
  156OSM   H12T17429   6.002   4.244   3.697 -0.2477 -0.4164 -1.2060
  156OSM   C13S17430   5.871   4.315   3.847 -0.1819  0.8228  0.2707
  156OSM   H13S17431   5.866   4.215   3.896 -3.6718  1.1391  0.8642
  156OSM   H13T17432   5.769   4.358   3.852 -0.7192 -0.3781  0.2152
  156OSM   C14S17433   5.976   4.390   3.927 -0.4188  0.6865  0.3236
  156OSM   H14S17434   6.001   4.485   3.876  0.8680  0.3574  0.3033
  156OSM   H14T17435   6.068   4.328   3.913  0.4265  2.5041 -3.4586
  156OSM   C15S17436   5.949   4.405   4.077 -0.6973 -0.5018 -0.4018
  156OSM   H15S17437   5.933   4.308   4.131 -0.4750  0.2806  1.1184
  156OSM   H15T17438   5.858   4.465   4.094  1.7271  3.1403  0.7477
  156OSM   C16S17439   6.077   4.473   4.140  0.7139  1.0104  0.0676
  156OSM   H16S17440   6.079   4.578   4.105 -0.0149  0.8961 -0.3529
  156OSM   H16T17441   6.164   4.426   4.090 -0.2045  1.3238 -1.9361
  156OSM   C17S17442   6.085   4.470   4.292  0.2249  0.2147 -0.5373
  156OSM   H17S17443   6.098   4.368   4.334  1.3080  0.6756  0.3066
  156OSM   H17T17444   5.991   4.501   4.342  0.8412 -0.0969  0.8658
  156OSM   C18S17445   6.209   4.550   4.344 -0.0540 -0.7644  0.0022
  156OSM   H18S17446   6.194   4.656   4.314 -0.2700 -0.6733  0.4138
  156OSM   H18T17447   6.300   4.502   4.304 -0.8903 -0.4284 -2.4902
  156OSM   H18U17448   6.215   4.550   4.455  0.4718  0.7170 -0.0022
  156OSM    C1F17449   5.285   3.749   2.870 -0.3281 -0.4766  0.1261
  156OSM     OF17450   5.322   3.645   2.815  0.3571 -0.1731 -0.0953
  156OSM    C2F17451   5.194   3.772   2.980  0.0182 -0.1996  0.1867
  156OSM    H2F17452   5.134   3.864   2.964  1.8656  0.9480 -0.5238
  156OSM    H2G17453   5.251   3.778   3.075 -0.4040 -3.6108  0.7880
  156OSM    C3F17454   5.095   3.647   2.999  0.3941 -0.3050  0.3546
  156OSM    H3F17455   5.149   3.558   3.038 -1.2765 -2.3186 -1.6732
  156OSM    H3G17456   5.047   3.616   2.904 -1.4200 -0.1534  1.1771
  156OSM    C4F17457   4.976   3.675   3.091  0.3138  0.0025 -0.2981
  156OSM    H4F17458   4.911   3.758   3.056 -0.0203  0.9407  2.2874
  156OSM    H4G17459   5.018   3.721   3.183  0.3295  0.4038 -0.5062
  156OSM    C5F17460   4.901   3.543   3.119  0.1234  0.1433 -0.0796
  156OSM    H5F17461   4.969   3.455   3.118  0.0756 -0.0064  2.5573
  156OSM    H5G17462   4.832   3.522   3.035 -0.7419 -0.7476  0.8255
  156OSM    C6F17463   4.815   3.532   3.245  0.4689 -0.1270 -0.0112
  156OSM    H6F17464   4.759   3.436   3.239  0.8988 -0.4260  0.6199
  156OSM    H6G17465   4.738   3.612   3.243  1.2248  0.6410  0.6952
  156OSM    C7F17466   4.890   3.536   3.385  0.3390  0.0984 -0.4731
  156OSM    H7F17467   4.952   3.627   3.391 -0.0150  0.2637  1.3445
  156OSM    H7G17468   4.957   3.449   3.405  0.0917  0.1633  0.7455
  156OSM    C8F17469   4.793   3.545   3.504  0.9671  0.4433 -0.7513
  156OSM    H8F17470   4.727   3.631   3.482 -0.2481  0.6048  2.9101
  156OSM    H8G17471   4.867   3.569   3.584  0.5420 -0.2378 -0.1400
  156OSM    C9F17472   4.716   3.419   3.524  0.0871 -0.3649 -0.0261
  156OSM    H9F17473   4.646   3.413   3.439 -0.5732  4.2314 -0.0843
  156OSM   C10F17474   4.729   3.324   3.616 -0.5587  0.4365 -0.9319
  156OSM   H10F17475   4.651   3.246   3.625  0.6105 -0.7614 -0.8363
  156OSM   C11F17476   4.830   3.329   3.728  0.5766  0.5496  0.2584
  156OSM   H11F17477   4.924   3.377   3.694  0.9232 -1.4964 -1.9611
  156OSM   H11G17478   4.852   3.223   3.751 -1.3299 -0.5267 -2.3400
  156OSM   C12F17479   4.780   3.405   3.849  0.1743  0.3870  0.3013
  156OSM   H12F17480   4.684   3.354   3.872  0.2206 -0.1327 -0.5930
  156OSM   H12G17481   4.765   3.513   3.829  2.5345  1.0023  1.4141
  156OSM   C13F17482   4.872   3.404   3.973 -0.3898  0.3905 -1.0322
  156OSM   H13F17483   4.961   3.468   3.955  0.0393 -0.0820 -0.5800
  156OSM   H13G17484   4.908   3.300   3.974  0.9722  0.7131 -4.1493
  156OSM   C14F17485   4.805   3.441   4.112  0.2228 -0.2758  0.1348
  156OSM   H14F17486   4.882   3.430   4.191  0.1442 -0.6861  0.1573
  156OSM   H14G17487   4.731   3.361   4.135  0.8423 -0.7351  0.5813
  156OSM   C15F17488   4.728   3.573   4.118 -0.5559 -0.3127 -0.1570
  156OSM   H15F17489   4.671   3.582   4.023  2.8272 -2.6029 -2.6793
  156OSM   H15G17490   4.800   3.657   4.119  0.3738 -1.0777 -0.8201
  156OSM   C16F17491   4.625   3.563   4.231 -0.2372 -0.2614  0.3027
  156OSM   H16F17492   4.686   3.554   4.323  1.7015 -0.8550 -0.9909
  156OSM   H16G17493   4.555   3.477   4.222 -2.0485  1.1576  0.0087
  156OSM   C17F17494   4.541   3.695   4.244 -0.2946  0.4926  0.2389
  156OSM   H17F17495   4.484   3.713   4.150  0.6173  0.8572 -0.2605
  156OSM   H17G17496   4.610   3.782   4.248  1.3488 -0.7349 -0.5410
  156OSM   C18F17497   4.454   3.701   4.373  0.2520 -0.3298 -0.0348
  156OSM   H18F17498   4.346   3.690   4.348  0.5661 -0.1176 -1.6127
  156OSM   H18G17499   4.469   3.795   4.429 -0.5925  0.7475 -1.5495
  156OSM   H18H17500   4.480   3.614   4.437  0.4550 -2.3355 -2.6499
  157OSM      N17501   4.237   4.059   2.043  0.0094 -0.3551 -0.1628
  157OSM    C1517502   4.357   4.104   1.984  0.2008  0.0412 -0.2687
  157OSM   H15A17503   4.438   4.040   2.018 -0.5062 -0.9022 -0.3154
  157OSM   H15B17504   4.371   4.209   2.002 -2.7362  0.2206  1.4293
  157OSM   H15C17505   4.349   4.096   1.876 -0.3415  0.5076 -0.2656
  157OSM    C1417506   4.133   4.118   1.954  0.0463 -0.3249 -0.1480
  157OSM   H14A17507   4.131   4.224   1.974  0.1061 -0.1798 -0.8803
  157OSM   H14B17508   4.033   4.086   1.983 -0.2286  0.1911 -0.5074
  157OSM   H14C17509   4.148   4.083   1.853 -0.4537 -1.3064  0.0957
  157OSM    C1317510   4.229   3.908   2.025  0.2750 -0.5657  0.2362
  157OSM   H13A17511   4.232   3.876   1.922 -0.6368  0.0152  0.0136
  157OSM   H13B17512   4.140   3.871   2.073 -0.9426  1.2687 -0.5057
  157OSM   H13C17513   4.317   3.862   2.068  0.3703 -0.9793 -0.3975
  157OSM    C1217514   4.232   4.100   2.188 -0.7385 -0.2237  0.2092
  157OSM   H12A17515   4.142   4.055   2.226 -1.8392  0.2685 -1.6807
  157OSM   H12B17516   4.220   4.207   2.186 -0.4731 -0.1498  1.7940
  157OSM    C1117517   4.339   4.052   2.286  0.9856 -0.4515 -0.9403
  157OSM   H11A17518   4.333   4.103   2.385 -1.0373 -1.6282 -0.3888
  157OSM   H11B17519   4.440   4.076   2.247  0.2384  0.7044 -2.2892
  157OSM      P17520   4.211   3.867   2.419  0.2663 -0.2229  0.0940
  157OSM    O1317521   4.079   3.892   2.357  0.0186  0.8397  0.0047
  157OSM    O1417522   4.232   3.730   2.474 -0.2049  0.1447  0.2638
  157OSM    O1117523   4.226   3.971   2.536 -0.5016 -0.3852  0.1241
  157OSM    O1217524   4.319   3.913   2.320 -0.2693  0.5889 -0.1505
  157OSM    C1S17525   4.344   3.974   2.611 -0.2308  0.0361  0.0913
  157OSM    H1S17526   4.440   3.977   2.555  1.3308 -0.5185  2.5718
  157OSM    H1T17527   4.343   3.882   2.673  0.4916  0.2938  0.5022
  157OSM     NF17528   4.488   4.128   2.745  0.3175 -0.9303  0.2458
  157OSM    HNF17529   4.499   4.092   2.837 -0.0237 -1.8156 -0.0546
  157OSM    C2S17530   4.352   4.106   2.685 -0.1239  0.6596 -0.5572
  157OSM    H2S17531   4.340   4.189   2.613 -1.3796  0.8039 -0.2092
  157OSM    C3S17532   4.228   4.127   2.779  0.1328  0.4871 -0.0771
  157OSM    H3S17533   4.237   4.045   2.853 -3.4647 -0.3788 -0.3737
  157OSM     O317534   4.095   4.100   2.731  0.0469  0.2738 -0.4621
  157OSM    HO317535   4.110   4.052   2.649  0.0743  0.1239 -0.3708
  157OSM    C4S17536   4.233   4.265   2.850 -0.1342 -0.0463 -0.5250
  157OSM    H4S17537   4.264   4.345   2.781  2.0934 -0.6925 -0.3461
  157OSM    C5S17538   4.235   4.286   2.979 -0.9063 -0.0931  0.7451
  157OSM    H5S17539   4.247   4.207   3.054 -0.0790 -1.1847 -0.4819
  157OSM    C6S17540   4.239   4.430   3.025  0.2589  0.7675  0.0738
  157OSM    H6S17541   4.215   4.504   2.946 -1.0346 -0.0413 -0.3301
  157OSM    H6T17542   4.341   4.459   3.055  0.3451  0.8179 -0.2594
  157OSM    C7S17543   4.153   4.453   3.154  0.0013  0.2376 -0.4537
  157OSM    H7S17544   4.052   4.408   3.148  0.2816 -0.3960 -0.5235
  157OSM    H7T17545   4.154   4.562   3.178  0.7523  0.4855 -1.5529
  157OSM    C8S17546   4.222   4.377   3.266 -0.0898  1.3135  0.1933
  157OSM    H8S17547   4.332   4.392   3.259  0.1909  0.0557  1.4242
  157OSM    H8T17548   4.203   4.268   3.253 -0.0024  1.0295  2.1055
  157OSM    C9S17549   4.182   4.432   3.405 -0.2265  0.4750  0.0466
  157OSM    H9S17550   4.072   4.429   3.424 -0.1424  1.6519  0.8708
  157OSM    H9T17551   4.204   4.541   3.407  3.1615 -0.1006  1.5902
  157OSM   C10S17552   4.244   4.351   3.521 -0.3319 -0.3321 -0.2878
  157OSM   H10S17553   4.352   4.369   3.505  0.0001 -1.8667 -0.0110
  157OSM   H10T17554   4.229   4.241   3.512 -0.1405 -0.2468 -1.7451
  157OSM   C11S17555   4.201   4.405   3.659 -0.3044  0.2699  0.0764
  157OSM   H11S17556   4.091   4.425   3.656 -0.3746  0.0843  1.2597
  157OSM   H11T17557   4.241   4.507   3.675 -0.7612  0.5707 -0.6214
  157OSM   C12S17558   4.244   4.319   3.771 -0.1269  0.2174 -0.6467
  157OSM   H12S17559   4.353   4.299   3.762  0.2266  2.0696 -0.8342
  157OSM   H12T17560   4.208   4.215   3.753  2.9853 -0.7050 -2.3205
  157OSM   C13S17561   4.210   4.376   3.908  0.1718 -0.0050 -0.0898
  157OSM   H13S17562   4.102   4.401   3.916  0.0303 -0.9379  1.2418
  157OSM   H13T17563   4.264   4.472   3.922  2.1383 -1.3801  2.7030
  157OSM   C14S17564   4.235   4.277   4.024  0.2791 -0.9187 -0.2056
  157OSM   H14S17565   4.328   4.316   4.072  1.1615  0.1091 -2.6182
  157OSM   H14T17566   4.234   4.173   3.986 -0.3967 -0.3136 -1.9457
  157OSM   C15S17567   4.129   4.289   4.133  0.1529 -0.2560 -0.7566
  157OSM   H15S17568   4.034   4.247   4.094 -0.2549  0.1341 -0.1890
  157OSM   H15T17569   4.132   4.398   4.154  0.9641  0.1405 -2.7501
  157OSM   C16S17570   4.164   4.219   4.263  0.2371  0.4476  0.2681
  157OSM   H16S17571   4.269   4.237   4.296  0.8490  0.5193 -1.6018
  157OSM   H16T17572   4.159   4.111   4.237  2.1781  0.8593 -2.2844
  157OSM   C17S17573   4.066   4.239   4.377  0.4412  0.2648 -0.8866
  157OSM   H17S17574   4.078   4.342   4.417  2.1987  0.7662 -2.5556
  157OSM   H17T17575   4.101   4.168   4.455 -0.2654 -0.5484 -1.2957
  157OSM   C18S17576   3.921   4.210   4.337  0.2241 -0.0701  0.0394
  157OSM   H18S17577   3.861   4.211   4.430 -0.7363 -0.3270 -0.5623
  157OSM   H18T17578   3.926   4.104   4.304  1.7284 -0.9176  2.7370
  157OSM   H18U17579   3.874   4.285   4.270  1.0847  1.6823  1.3451
  157OSM    C1F17580   4.593   4.176   2.672  0.2136 -0.0113  0.1785
  157OSM     OF17581   4.584   4.190   2.550 -0.7951  0.2785 -0.2272
  157OSM    C2F17582   4.717   4.215   2.745 -0.3196 -0.2346 -0.3663
  157OSM    H2F17583   4.807   4.208   2.680 -2.6055  0.5587 -3.9475
  157OSM    H2G17584   4.731   4.144   2.829  0.5400 -0.3585 -0.6015
  157OSM    C3F17585   4.728   4.362   2.812 -0.4783  0.3377  0.1044
  157OSM    H3F17586   4.692   4.444   2.747  0.7727  2.4979  2.0181
  157OSM    H3G17587   4.833   4.370   2.846  0.2413  1.1599 -2.1575
  157OSM    C4F17588   4.649   4.377   2.947 -0.1206 -0.2324  0.2102
  157OSM    H4F17589   4.639   4.275   2.989  0.6485 -0.9644 -1.3092
  157OSM    H4G17590   4.546   4.414   2.927 -1.0202 -3.8757 -3.2209
  157OSM    C5F17591   4.725   4.453   3.062 -0.4852 -0.7590 -0.1789
  157OSM    H5F17592   4.763   4.554   3.035  2.4560 -0.9941  2.4065
  157OSM    H5G17593   4.818   4.399   3.093  1.2972  1.8451 -0.6724
  157OSM    C6F17594   4.633   4.447   3.179  0.1097  0.0425 -1.2637
  157OSM    H6F17595   4.635   4.345   3.222 -0.5655  0.7606  0.5684
  157OSM    H6G17596   4.527   4.475   3.163 -0.3313 -0.1188  1.1297
  157OSM    C7F17597   4.693   4.534   3.293  0.8501  0.1236 -0.6524
  157OSM    H7F17598   4.685   4.640   3.258 -2.5043  0.2468  0.1103
  157OSM    H7G17599   4.800   4.511   3.312  1.5608  1.9590 -2.0698
  157OSM    C8F17600   4.618   4.529   3.427 -0.2714 -0.5572 -0.3014
  157OSM    H8F17601   4.609   4.426   3.469  0.4159  0.2764  2.0104
  157OSM    H8G17602   4.518   4.565   3.395  0.2097  0.3399 -0.8454
  157OSM    C9F17603   4.689   4.626   3.523  1.0916  0.4329  0.1189
  157OSM    H9F17604   4.712   4.720   3.472 -0.7973  0.2742 -1.1389
  157OSM   C10F17605   4.714   4.596   3.653  0.6016 -0.4955  0.1678
  157OSM   H10F17606   4.776   4.661   3.717  1.6978 -1.5446  0.2014
  157OSM   C11F17607   4.672   4.462   3.720 -0.9172 -0.5749  0.7069
  157OSM   H11F17608   4.756   4.420   3.779 -0.0006  1.4384  0.9271
  157OSM   H11G17609   4.636   4.385   3.648  0.7444 -1.4458  0.7777
  157OSM   C12F17610   4.557   4.487   3.818  0.5707 -0.1700  0.1240
  157OSM   H12F17611   4.543   4.389   3.868  1.6409  0.2132  1.2210
  157OSM   H12G17612   4.470   4.517   3.756 -0.6233  0.9019  2.2340
  157OSM   C13F17613   4.588   4.592   3.918  0.3476  0.4425  0.4707
  157OSM   H13F17614   4.492   4.613   3.970  0.5226 -0.1821  1.0664
  157OSM   H13G17615   4.608   4.692   3.873 -0.6145  0.3226 -0.2496
  157OSM   C14F17616   4.688   4.559   4.026  0.1513 -0.6556  0.2946
  157OSM   H14F17617   4.772   4.504   3.978  0.1261 -0.2610 -0.2008
  157OSM   H14G17618   4.642   4.489   4.100  1.4614 -0.2148  1.5912
  157OSM   C15F17619   4.728   4.677   4.118  0.0312 -0.2857  0.5480
  157OSM   H15F17620   4.644   4.749   4.127 -1.0758 -1.2007 -1.6918
  157OSM   H15G17621   4.816   4.723   4.068 -0.3267 -0.7303 -0.5340
  157OSM   C16F17622   4.785   4.632   4.253 -0.2516  0.1654  0.0135
  157OSM   H16F17623   4.702   4.573   4.298  0.4163  0.6793  2.0183
  157OSM   H16G17624   4.804   4.722   4.315 -1.5220  0.4697 -0.0089
  157OSM   C17F17625   4.916   4.550   4.243  0.2136 -0.3395 -0.2855
  157OSM   H17F17626   4.978   4.617   4.179 -0.4831  0.7658  0.1534
  157OSM   H17G17627   4.897   4.460   4.181 -1.5616  1.3067 -2.3307
  157OSM   C18F17628   4.983   4.533   4.375  0.1170 -0.2051 -0.5238
  157OSM   H18F17629   5.010   4.633   4.415  0.1438 -0.1425 -0.7004
  157OSM   H18G17630   5.061   4.454   4.372 -0.3475 -0.6983  0.0177
  157OSM   H18H17631   4.909   4.490   4.446  1.4173 -1.1401  0.3296
  158OSM      N17632   2.099   4.617   2.374  0.2220  0.6002 -0.1684
  158OSM    C1517633   2.050   4.688   2.493  0.0773 -0.0392 -0.4841
  158OSM   H15A17634   2.115   4.676   2.578 -1.6376  0.6421  0.9820
  158OSM   H15B17635   1.951   4.660   2.523  0.0753 -0.8634 -1.2065
  158OSM   H15C17636   2.042   4.793   2.467  1.4395 -0.1799 -1.6221
  158OSM    C1417637   2.002   4.638   2.258 -0.0951 -0.1906  0.1725
  158OSM   H14A17638   1.912   4.580   2.277 -0.2882  1.0498  3.9492
  158OSM   H14B17639   2.043   4.605   2.164  0.1014 -0.4297  0.3410
  158OSM   H14C17640   1.979   4.744   2.251 -0.1204 -0.2850 -1.5676
  158OSM    C1317641   2.232   4.680   2.353 -0.4578  0.0531  0.3891
  158OSM   H13A17642   2.295   4.618   2.291 -2.2736 -1.4429 -0.0538
  158OSM   H13B17643   2.280   4.712   2.444 -0.2383  1.2515 -0.1349
  158OSM   H13C17644   2.220   4.771   2.296 -1.0988 -0.3990 -0.2177
  158OSM    C1217645   2.119   4.475   2.412 -0.2567 -0.0590  0.1125
  158OSM   H12A17646   2.025   4.424   2.425  0.2818 -1.4293 -1.0446
  158OSM   H12B17647   2.179   4.467   2.502 -0.7851  1.3826  0.6202
  158OSM    C1117648   2.179   4.381   2.307 -0.3156  0.4365  0.8172
  158OSM   H11A17649   2.106   4.389   2.223  1.2080 -0.4422 -0.6600
  158OSM   H11B17650   2.176   4.278   2.347  0.1468 -0.4054 -1.1699
  158OSM      P17651   2.437   4.320   2.298  0.0260 -0.1271  0.0514
  158OSM    O1317652   2.445   4.207   2.201 -0.6337  0.0400  0.5567
  158OSM    O1417653   2.554   4.407   2.315 -0.3275 -0.3291  0.0653
  158OSM    O1117654   2.402   4.260   2.445 -0.1462 -0.0763  0.5874
  158OSM    O1217655   2.312   4.414   2.267  0.7902 -0.6321  0.1035
  158OSM    C1S17656   2.421   4.336   2.558 -0.7446 -0.0900  0.1469
  158OSM    H1S17657   2.388   4.441   2.545 -3.0931 -0.8829 -0.8930
  158OSM    H1T17658   2.530   4.352   2.574 -0.3370 -1.2348 -1.2233
  158OSM     NF17659   2.378   4.388   2.795 -0.3931  0.2883  0.1695
  158OSM    HNF17660   2.440   4.364   2.870 -1.1593 -1.3488  0.3253
  158OSM    C2S17661   2.359   4.286   2.693 -0.0456  0.2636 -0.1485
  158OSM    H2S17662   2.250   4.279   2.675 -0.2095  1.3019  0.3476
  158OSM    C3S17663   2.410   4.146   2.737  0.5507 -0.1710  0.1681
  158OSM    H3S17664   2.518   4.151   2.762  0.5925  2.3071 -0.1700
  158OSM     O317665   2.410   4.047   2.633 -0.3559  0.0190 -0.0539
  158OSM    HO317666   2.388   4.094   2.552 -2.9783 -1.9382 -0.6328
  158OSM    C4S17667   2.341   4.098   2.857 -0.0542 -0.3534  1.2621
  158OSM    H4S17668   2.409   4.124   2.939  1.9337  0.6987 -0.6338
  158OSM    C5S17669   2.222   4.044   2.884  0.6191 -0.5684 -0.1045
  158OSM    H5S17670   2.145   4.053   2.806 -1.0281 -0.7667  1.4248
  158OSM    C6S17671   2.177   4.030   3.023  0.3935 -0.3765 -0.6133
  158OSM    H6S17672   2.216   4.108   3.091  1.0942  0.0962 -1.5235
  158OSM    H6T17673   2.233   3.940   3.056  1.6841  1.7518  3.6286
  158OSM    C7S17674   2.028   4.015   3.040  0.3751 -0.3231 -0.2439
  158OSM    H7S17675   1.985   3.942   2.969  0.3435  1.4335 -2.1097
  158OSM    H7T17676   1.988   4.115   3.016  0.7453 -0.2725 -0.6454
  158OSM    C8S17677   2.010   3.973   3.184  0.4125  0.0980  0.4134
  158OSM    H8S17678   2.060   4.046   3.251 -0.4711  1.4674 -0.3705
  158OSM    H8T17679   2.061   3.875   3.189  1.6369  0.7510  1.1406
  158OSM    C9S17680   1.857   3.962   3.201  0.4122  0.9156  0.2356
  158OSM    H9S17681   1.817   3.892   3.126  2.3818 -2.4621  2.0973
  158OSM    H9T17682   1.808   4.062   3.199 -1.5458  0.0995  2.1908
  158OSM   C10S17683   1.808   3.894   3.326 -0.2865  0.1976  0.4071
  158OSM   H10S17684   1.836   3.787   3.332  0.4142  0.3439 -0.1152
  158OSM   H10T17685   1.697   3.900   3.331 -0.2693 -0.2114  1.8414
  158OSM   C11S17686   1.861   3.955   3.456 -0.6776  0.0175 -0.2933
  158OSM   H11S17687   1.822   4.056   3.482  0.4503 -0.1257  2.3037
  158OSM   H11T17688   1.972   3.960   3.449 -0.7575  0.3196 -1.5026
  158OSM   C12S17689   1.815   3.888   3.592 -0.4977 -0.0980 -0.1790
  158OSM   H12S17690   1.869   3.925   3.682  1.3679  1.0710 -1.6923
  158OSM   H12T17691   1.866   3.790   3.581  1.4667  1.1091 -3.1788
  158OSM   C13S17692   1.657   3.892   3.606 -1.1092  0.2396  0.0068
  158OSM   H13S17693   1.607   3.843   3.519 -0.5114  2.0219 -1.4181
  158OSM   H13T17694   1.637   4.001   3.600  0.9526  0.9571  3.4192
  158OSM   C14S17695   1.604   3.833   3.740 -0.2019  0.1500  0.3490
  158OSM   H14S17696   1.664   3.867   3.827 -0.8939 -2.1250  1.7784
  158OSM   H14T17697   1.598   3.722   3.735 -0.8585  0.2302 -0.9623
  158OSM   C15S17698   1.455   3.882   3.747  0.1490  0.4577  0.2594
  158OSM   H15S17699   1.413   3.854   3.648  2.4177 -1.0595 -0.3405
  158OSM   H15T17700   1.439   3.991   3.764 -3.9492  0.4400 -2.1529
  158OSM   C16S17701   1.361   3.811   3.848 -0.2205 -0.3313  0.5692
  158OSM   H16S17702   1.367   3.704   3.820 -2.3534 -1.0742  2.5734
  158OSM   H16T17703   1.255   3.834   3.820  0.5361  1.3763 -1.1163
  158OSM   C17S17704   1.400   3.833   3.987  0.2778  0.7596 -0.2854
  158OSM   H17S17705   1.388   3.941   4.009 -2.6847  0.5856 -0.6250
  158OSM   H17T17706   1.509   3.812   3.987  0.1269 -0.0905 -1.2329
  158OSM   C18S17707   1.329   3.740   4.092  0.1319  0.2490  0.0977
  158OSM   H18S17708   1.363   3.635   4.084  0.5058  0.3430  0.4167
  158OSM   H18T17709   1.219   3.744   4.077 -0.2245 -1.5665  1.7633
  158OSM   H18U17710   1.350   3.780   4.194  1.8550 -0.4339  0.0433
  158OSM    C1F17711   2.312   4.506   2.786  0.2485 -0.6071 -0.8111
  158OSM     OF17712   2.223   4.526   2.705 -0.9677 -0.7345 -0.3906
  158OSM    C2F17713   2.343   4.610   2.893 -0.2797  0.7098 -0.3547
  158OSM    H2F17714   2.454   4.609   2.894 -0.2095 -2.1124 -0.9168
  158OSM    H2G17715   2.316   4.557   2.987 -1.6834  0.2881 -0.9686
  158OSM    C3F17716   2.285   4.747   2.861  0.2436 -0.5496 -0.0501
  158OSM    H3F17717   2.174   4.735   2.857  0.3345 -2.2288  1.3355
  158OSM    H3G17718   2.334   4.793   2.773  1.1858 -0.7837  0.3430
  158OSM    C4F17719   2.309   4.844   2.973 -0.2090  0.3175 -0.1542
  158OSM    H4F17720   2.268   4.942   2.941 -0.2988 -0.1013 -1.3766
  158OSM    H4G17721   2.417   4.860   2.992  0.2384 -1.5760 -0.8159
  158OSM    C5F17722   2.241   4.797   3.105 -0.1751 -0.3730 -0.8323
  158OSM    H5F17723   2.182   4.707   3.079  0.9888 -1.5733  0.5118
  158OSM    H5G17724   2.175   4.877   3.144 -0.1996 -2.3184  3.6944
  158OSM    C6F17725   2.341   4.762   3.224 -0.0364  0.9859 -0.1270
  158OSM    H6F17726   2.409   4.849   3.232 -0.0571  0.8371  2.0390
  158OSM    H6G17727   2.399   4.674   3.189  0.2076  0.7339  0.9033
  158OSM    C7F17728   2.257   4.740   3.354  0.2611 -0.0973 -0.0145
  158OSM    H7F17729   2.179   4.663   3.336  1.4009 -1.0728 -0.9260
  158OSM    H7G17730   2.210   4.839   3.368  0.8164  0.6795 -3.0329
  158OSM    C8F17731   2.342   4.701   3.478 -0.9638 -0.9170 -0.0082
  158OSM    H8F17732   2.387   4.599   3.472 -1.3606 -1.0166 -1.6979
  158OSM    H8G17733   2.272   4.704   3.565 -0.7863  0.7274  0.1007
  158OSM    C9F17734   2.447   4.813   3.509  0.0973 -0.0214 -0.8117
  158OSM    H9F17735   2.424   4.917   3.479  0.2715  0.6763  1.3288
  158OSM   C10F17736   2.569   4.784   3.567  0.0461 -0.1354 -0.7443
  158OSM   H10F17737   2.632   4.874   3.577 -1.5536  1.1711 -1.9321
  158OSM   C11F17738   2.614   4.650   3.611 -0.0763  0.4475  0.1986
  158OSM   H11F17739   2.691   4.612   3.540  0.1253  0.5621  0.3554
  158OSM   H11G17740   2.535   4.572   3.620 -0.4255  0.7518 -0.1556
  158OSM   C12F17741   2.662   4.655   3.759 -0.1656 -0.9098  0.1012
  158OSM   H12F17742   2.743   4.729   3.774 -1.5159  0.2710  2.1227
  158OSM   H12G17743   2.696   4.553   3.789  0.6328 -0.6060  0.2515
  158OSM   C13F17744   2.555   4.702   3.860  0.0535  0.7652 -0.1212
  158OSM   H13F17745   2.465   4.636   3.859 -0.0731  0.8382  1.8744
  158OSM   H13G17746   2.523   4.804   3.830  0.8682  1.1958  0.4320
  158OSM   C14F17747   2.604   4.690   4.007 -0.3908  0.0869 -0.2083
  158OSM   H14F17748   2.703   4.740   4.010  0.5114 -1.4512 -2.1398
  158OSM   H14G17749   2.627   4.588   4.046 -0.4399 -0.2761 -1.1095
  158OSM   C15F17750   2.514   4.757   4.116 -0.2124 -0.3354 -0.0666
  158OSM   H15F17751   2.407   4.724   4.116 -0.6853  0.8421 -3.0204
  158OSM   H15G17752   2.514   4.866   4.096  0.1493 -0.3845 -0.3511
  158OSM   C16F17753   2.566   4.734   4.257 -0.5137 -0.5017  0.0702
  158OSM   H16F17754   2.563   4.626   4.282  0.8542 -0.4454  0.5523
  158OSM   H16G17755   2.490   4.763   4.333 -0.9844  0.5320 -0.7702
  158OSM   C17F17756   2.700   4.794   4.291 -0.2297  0.6596  0.3636
  158OSM   H17F17757   2.713   4.904   4.280 -0.2860  0.7249  0.8912
  158OSM   H17G17758   2.787   4.745   4.244 -0.0310  1.9696 -0.7050
  158OSM   C18F17759   2.734   4.761   4.437 -0.0624  0.3583 -0.3583
  158OSM   H18F17760   2.647   4.786   4.501 -0.0781 -0.7266  0.0785
  158OSM   H18G17761   2.825   4.821   4.457 -0.4205  1.2081 -1.2115
  158OSM   H18H17762   2.758   4.653   4.452 -0.2478 -0.1149 -2.9530
  159OSM      N17763   4.147   5.340   1.972  0.0569 -0.2871 -0.3786
  159OSM    C1517764   4.097   5.241   1.876 -0.4359 -0.2936  0.0902
  159OSM   H15A17765   4.071   5.288   1.782  0.4509 -1.1323 -0.6033
  159OSM   H15B17766   4.009   5.187   1.907 -1.3559  1.1319  0.0444
  159OSM   H15C17767   4.169   5.163   1.856 -0.0075 -0.2948  1.5567
  159OSM    C1417768   4.274   5.403   1.922  0.1239 -0.0719  0.1554
  159OSM   H14A17769   4.310   5.469   2.000 -3.4971 -1.1267  3.0460
  159OSM   H14B17770   4.257   5.462   1.834  1.1576 -1.2814 -0.8980
  159OSM   H14C17771   4.356   5.337   1.898  1.5727  1.4716  0.6292
  159OSM    C1317772   4.049   5.459   1.975 -0.8564  0.0370  0.0214
  159OSM   H13A17773   4.039   5.504   1.877 -0.9695 -0.0271  0.0027
  159OSM   H13B17774   4.072   5.536   2.047  0.3195  0.9351 -1.2781
  159OSM   H13C17775   3.950   5.418   1.992 -0.9463 -0.3522 -1.3024
  159OSM    C1217776   4.168   5.260   2.102  0.8017 -0.6741  0.6119
  159OSM   H12A17777   4.219   5.330   2.166  1.8469  2.1309 -2.9686
  159OSM   H12B17778   4.222   5.169   2.084  0.8767 -0.4302 -0.5187
  159OSM    C1117779   4.033   5.214   2.173  0.0984 -0.2390 -0.1931
  159OSM   H11A17780   3.961   5.298   2.178 -0.9278 -1.0156 -1.3990
  159OSM   H11B17781   4.069   5.193   2.276 -0.1836  1.4611  0.2787
  159OSM      P17782   3.832   5.057   2.161 -0.0809 -0.2349  0.3549
  159OSM    O1317783   3.749   5.103   2.056 -0.6075 -0.0052 -0.0165
  159OSM    O1417784   3.832   4.912   2.201 -0.2488  0.5017 -0.4213
  159OSM    O1117785   3.808   5.151   2.283  0.3526  0.0273 -0.3153
  159OSM    O1217786   3.977   5.101   2.114 -0.2119  0.2648  0.4507
  159OSM    C1S17787   3.678   5.179   2.337  0.3869 -0.2369  0.2944
  159OSM    H1S17788   3.605   5.103   2.301  0.3850 -0.1426  0.0969
  159OSM    H1T17789   3.647   5.279   2.300  0.1351 -0.1272  0.7955
  159OSM     NF17790   3.545   5.219   2.549 -1.3255  0.4094  0.3027
  159OSM    HNF17791   3.514   5.308   2.580 -1.6261 -0.2491  2.0024
  159OSM    C2S17792   3.679   5.202   2.489 -0.4082 -0.0975 -0.3188
  159OSM    H2S17793   3.734   5.112   2.525  1.2062 -0.1192 -2.6486
  159OSM    C3S17794   3.779   5.315   2.536  0.0006 -0.6491 -0.2953
  159OSM    H3S17795   3.749   5.412   2.492  0.7783  0.0201  0.5968
  159OSM     O317796   3.913   5.293   2.481  0.3859 -0.0609  0.5359
  159OSM    HO317797   3.888   5.239   2.405 -0.7642  0.4445  0.5420
  159OSM    C4S17798   3.783   5.332   2.685  0.0114 -0.0513  0.0840
  159OSM    H4S17799   3.831   5.265   2.758 -2.1629  0.5815  2.2384
  159OSM    C5S17800   3.724   5.438   2.741  0.4537 -0.8622 -0.7869
  159OSM    H5S17801   3.689   5.521   2.678  1.4843  0.3611  0.2020
  159OSM    C6S17802   3.718   5.472   2.887 -0.0108 -0.0342 -0.1691
  159OSM    H6S17803   3.613   5.449   2.913 -0.0031 -2.7938 -2.1964
  159OSM    H6T17804   3.733   5.580   2.912  0.2672 -0.0972 -0.0596
  159OSM    C7S17805   3.795   5.379   2.985 -0.2475  0.2954 -0.0642
  159OSM    H7S17806   3.904   5.385   2.964 -0.4682  1.1591 -1.0236
  159OSM    H7T17807   3.756   5.278   2.960  0.5454  0.2178 -1.0191
  159OSM    C8S17808   3.787   5.417   3.135 -0.6581  0.5816 -0.7994
  159OSM    H8S17809   3.686   5.391   3.174 -0.7055 -1.4957 -2.1259
  159OSM    H8T17810   3.813   5.524   3.151 -0.8797  0.5890 -0.4772
  159OSM    C9S17811   3.885   5.333   3.208 -0.3888  0.6760 -0.2786
  159OSM    H9S17812   3.987   5.352   3.168  1.4575 -1.0733  3.1948
  159OSM    H9T17813   3.877   5.226   3.179  3.2377  0.4717 -1.0015
  159OSM   C10S17814   3.872   5.351   3.358  0.1615  0.1372 -0.3156
  159OSM   H10S17815   3.761   5.352   3.369  0.2312  0.9425  0.4267
  159OSM   H10T17816   3.905   5.453   3.389 -0.0083  0.8370 -2.2903
  159OSM   C11S17817   3.931   5.238   3.452  0.1680  0.3695 -0.1834
  159OSM   H11S17818   4.034   5.218   3.413  1.8515 -1.3484  4.4600
  159OSM   H11T17819   3.867   5.150   3.430 -0.4671  0.7981 -0.0636
  159OSM   C12S17820   3.935   5.278   3.599 -0.2393  0.2088 -1.2661
  159OSM   H12S17821   3.834   5.318   3.621  0.3080  2.0891 -2.0337
  159OSM   H12T17822   4.009   5.360   3.614  1.6519 -1.3856 -1.4387
  159OSM   C13S17823   3.952   5.150   3.687 -0.6101  0.0961  0.6138
  159OSM   H13S17824   4.050   5.103   3.662  0.0643  0.7941  1.8414
  159OSM   H13T17825   3.868   5.081   3.666  0.4187 -1.5301  1.5802
  159OSM   C14S17826   3.944   5.176   3.835  0.1919 -0.1842 -0.1167
  159OSM   H14S17827   3.944   5.078   3.887  3.6176 -1.2094 -1.7301
  159OSM   H14T17828   3.853   5.235   3.860  0.1562  0.3054 -1.3334
  159OSM   C15S17829   4.065   5.251   3.891 -0.9950  0.0115 -0.0717
  159OSM   H15S17830   4.080   5.356   3.857 -0.0899 -0.0868  0.0177
  159OSM   H15T17831   4.162   5.200   3.879 -0.9729 -0.1650  0.7914
  159OSM   C16S17832   4.032   5.264   4.043 -0.0405 -0.1475  0.1203
  159OSM   H16S17833   4.020   5.163   4.087  0.5554 -0.1580  0.2657
  159OSM   H16T17834   3.940   5.325   4.055 -1.7483 -2.5968  0.2017
  159OSM   C17S17835   4.150   5.311   4.121 -0.8397 -0.3384  0.2373
  159OSM   H17S17836   4.179   5.409   4.077  0.9743 -1.1645 -0.4993
  159OSM   H17T17837   4.237   5.244   4.103 -0.0408  1.0781 -1.4949
  159OSM   C18S17838   4.120   5.330   4.269  0.5506 -0.1070  0.2003
  159OSM   H18S17839   4.204   5.390   4.310  0.8153 -0.2896 -0.0740
  159OSM   H18T17840   4.127   5.229   4.313  0.9671 -0.8428 -1.4533
  159OSM   H18U17841   4.023   5.380   4.292  0.8210  0.4921  0.0533
  159OSM    C1F17842   3.451   5.124   2.537  0.2708  0.4679 -0.6363
  159OSM     OF17843   3.483   5.007   2.505  0.2916  0.5511  0.1779
  159OSM    C2F17844   3.309   5.168   2.564  0.1135  0.0428 -0.6553
  159OSM    H2F17845   3.271   5.210   2.468  0.8112 -1.4971 -1.6502
  159OSM    H2G17846   3.323   5.245   2.643  1.7114 -0.6273 -0.2368
  159OSM    C3F17847   3.207   5.058   2.612 -0.0560  0.1870  0.7409
  159OSM    H3F17848   3.190   4.989   2.527  0.8448  0.2772  0.4747
  159OSM    H3G17849   3.113   5.115   2.628 -0.0106 -0.3264  3.3500
  159OSM    C4F17850   3.243   4.990   2.747 -0.4661  0.4842  0.2884
  159OSM    H4F17851   3.351   4.967   2.738 -0.7116 -0.1969 -1.1544
  159OSM    H4G17852   3.186   4.895   2.749  1.6767 -0.8956 -0.5010
  159OSM    C5F17853   3.227   5.082   2.875  0.4061  0.1605  1.0771
  159OSM    H5F17854   3.122   5.118   2.869 -0.1470 -1.1679  2.3403
  159OSM    H5G17855   3.296   5.169   2.862 -2.2926  2.3596  0.4065
  159OSM    C6F17856   3.248   5.018   3.011  0.4747  0.0665  0.2415
  159OSM    H6F17857   3.349   4.978   3.034  0.6073  1.2330  1.8561
  159OSM    H6G17858   3.176   4.933   3.013 -0.2178  0.6246 -0.5683
  159OSM    C7F17859   3.180   5.099   3.119 -0.1027  0.0737  0.1224
  159OSM    H7F17860   3.163   5.031   3.206  0.9196  2.2200  2.1257
  159OSM    H7G17861   3.078   5.125   3.082 -0.5285 -0.2270  1.0288
  159OSM    C8F17862   3.264   5.224   3.157 -0.8669  0.0785  0.7457
  159OSM    H8F17863   3.221   5.276   3.246 -1.8182 -2.5184  1.9390
  159OSM    H8G17864   3.251   5.288   3.068 -0.0812  2.2073  2.0834
  159OSM    C9F17865   3.415   5.202   3.178  0.0289 -0.0322  0.0091
  159OSM    H9F17866   3.481   5.240   3.099  0.1774  0.0715  0.1835
  159OSM   C10F17867   3.477   5.180   3.296  0.1830 -0.2376  0.3639
  159OSM   H10F17868   3.587   5.191   3.297  0.1686  1.1515 -2.6557
  159OSM   C11F17869   3.395   5.177   3.426 -0.7409 -0.2700 -0.4540
  159OSM   H11F17870   3.309   5.107   3.417  0.9269 -2.2358 -2.2957
  159OSM   H11G17871   3.358   5.279   3.447 -2.6041 -0.3813 -2.7753
  159OSM   C12F17872   3.484   5.147   3.545  0.0962  0.0833 -0.4981
  159OSM   H12F17873   3.569   5.218   3.547 -0.5607  0.8846  0.2850
  159OSM   H12G17874   3.531   5.048   3.531  2.1064  1.3144 -3.1360
  159OSM   C13F17875   3.406   5.149   3.681  0.2840 -0.0081  0.2393
  159OSM   H13F17876   3.318   5.080   3.679 -1.6771  2.3416 -1.4453
  159OSM   H13G17877   3.357   5.249   3.691 -2.3962 -1.3381  1.4029
  159OSM   C14F17878   3.506   5.123   3.792  0.1082  0.7558 -0.7658
  159OSM   H14F17879   3.603   5.171   3.767  0.7184  0.4466  0.8888
  159OSM   H14G17880   3.537   5.017   3.793 -0.0013  0.7137 -1.3548
  159OSM   C15F17881   3.452   5.168   3.930 -0.6134 -0.3680 -0.2925
  159OSM   H15F17882   3.369   5.099   3.957  0.1178 -0.2627  2.5766
  159OSM   H15G17883   3.414   5.271   3.912 -0.1307  0.1262  1.3472
  159OSM   C16F17884   3.554   5.165   4.044 -1.1695 -0.1110 -0.1378
  159OSM   H16F17885   3.521   5.214   4.138 -2.4266 -1.6286  0.2687
  159OSM   H16G17886   3.644   5.226   4.021 -0.0024 -1.4087  0.7790
  159OSM   C17F17887   3.600   5.021   4.084  0.0613 -0.5506  0.4947
  159OSM   H17F17888   3.653   4.971   3.999  2.0808  0.8520  0.8626
  159OSM   H17G17889   3.503   4.974   4.110 -0.2475  0.5832  1.4432
  159OSM   C18F17890   3.701   5.004   4.200 -0.2041 -0.5264 -0.3638
  159OSM   H18F17891   3.788   5.066   4.171 -1.0293  0.7692 -0.1403
  159OSM   H18G17892   3.750   4.905   4.216  0.3274 -0.3220 -0.7119
  159OSM   H18H17893   3.662   5.026   4.302  1.1312 -0.8531  0.2460
  160OSM      N17894   1.262   5.139   2.451  0.4124  0.2047  0.2445
  160OSM    C1517895   1.211   5.084   2.579  0.3348  0.8878  0.3461
  160OSM   H15A17896   1.260   4.993   2.611 -0.1661  1.3543  2.6159
  160OSM   H15B17897   1.106   5.065   2.559  0.8085  1.1183 -2.7815
  160OSM   H15C17898   1.209   5.162   2.654 -2.9625  1.3052 -0.0261
  160OSM    C1417899   1.215   5.053   2.330  0.4231  1.0420 -0.2900
  160OSM   H14A17900   1.253   5.107   2.245  1.6204  2.0774  0.8566
  160OSM   H14B17901   1.110   5.028   2.331  0.3749  1.2306 -0.4741
  160OSM   H14C17902   1.281   4.969   2.327 -0.7481  0.1284 -2.2155
  160OSM    C1317903   1.191   5.269   2.429  0.8014  0.2533  0.2000
  160OSM   H13A17904   1.234   5.317   2.343 -0.4185 -1.1821 -1.2779
  160OSM   H13B17905   1.190   5.330   2.518 -0.9059 -1.1209  1.1907
  160OSM   H13C17906   1.086   5.259   2.406  0.7699  0.1638  0.3813
  160OSM    C1217907   1.415   5.153   2.450  0.0843 -0.3141  0.4726
  160OSM   H12A17908   1.457   5.057   2.474 -0.9441 -1.2579 -1.2972
  160OSM   H12B17909   1.437   5.226   2.526 -0.5575  2.1907 -1.5897
  160OSM    C1117910   1.492   5.195   2.319  0.5138  0.1647 -0.1834
  160OSM   H11A17911   1.479   5.111   2.247  3.3994 -0.8713  0.3532
  160OSM   H11B17912   1.600   5.191   2.343  0.4805 -2.0151 -0.2087
  160OSM      P17913   1.526   5.450   2.304  0.1066  0.0349  0.0564
  160OSM    O1317914   1.673   5.435   2.292 -0.4584 -0.2415 -0.3824
  160OSM    O1417915   1.463   5.556   2.229 -0.4834  0.4409  0.4355
  160OSM    O1117916   1.487   5.464   2.458 -0.1781 -0.1976  0.5016
  160OSM    O1217917   1.456   5.315   2.254  0.1769  0.7438  0.5555
  160OSM    C1S17918   1.397   5.567   2.504 -0.0141 -0.2200  0.3210
  160OSM    H1S17919   1.297   5.545   2.460  1.0825 -0.4690 -2.2451
  160OSM    H1T17920   1.415   5.667   2.457 -0.8959 -0.8428 -1.4604
  160OSM     NF17921   1.273   5.634   2.707 -1.3562 -0.2883 -0.5223
  160OSM    HNF17922   1.279   5.725   2.749  2.5168 -0.1452 -0.9863
  160OSM    C2S17923   1.405   5.579   2.658  0.6735 -0.5365  0.4284
  160OSM    H2S17924   1.399   5.472   2.688 -2.9198 -1.2050 -1.9856
  160OSM    C3S17925   1.540   5.636   2.700 -0.1621  0.4797  0.1720
  160OSM    H3S17926   1.559   5.742   2.670  0.8960 -0.3655 -2.4164
  160OSM     O317927   1.642   5.564   2.635 -0.1215  0.1911 -0.0314
  160OSM    HO317928   1.593   5.529   2.561  0.5184 -0.1134 -0.3130
  160OSM    C4S17929   1.553   5.625   2.847  1.2076 -0.2061 -0.1625
  160OSM    H4S17930   1.568   5.520   2.878 -2.2779 -0.8156 -0.1310
  160OSM    C5S17931   1.545   5.723   2.946  0.2474 -1.1504 -0.1505
  160OSM    H5S17932   1.523   5.825   2.911 -0.9996 -1.9413 -1.8787
  160OSM    C6S17933   1.564   5.696   3.094  0.4034  0.5501  0.1457
  160OSM    H6S17934   1.469   5.721   3.146  0.7661 -1.0458  1.6738
  160OSM    H6T17935   1.640   5.768   3.129 -0.3608  0.8474  1.2412
  160OSM    C7S17936   1.598   5.558   3.152  0.8866 -0.2780  0.8600
  160OSM    H7S17937   1.698   5.521   3.121  0.7147 -0.5378  0.6100
  160OSM    H7T17938   1.523   5.487   3.111 -0.0157  1.2545 -0.2901
  160OSM    C8S17939   1.593   5.567   3.307 -0.3268 -0.6857  0.4021
  160OSM    H8S17940   1.487   5.583   3.336 -0.1531 -0.5478  0.9678
  160OSM    H8T17941   1.638   5.660   3.346 -0.1425 -0.7839  0.4271
  160OSM    C9S17942   1.661   5.459   3.386 -0.2046 -0.1107  0.3118
  160OSM    H9S17943   1.761   5.437   3.341 -0.1009  2.1524 -0.7067
  160OSM    H9T17944   1.598   5.368   3.383  0.3956 -0.5814  1.3479
  160OSM   C10S17945   1.659   5.477   3.540  0.1478 -0.2098 -0.2029
  160OSM   H10S17946   1.554   5.498   3.569  0.6820  1.1970  0.8028
  160OSM   H10T17947   1.715   5.565   3.578  0.2061 -0.9940  1.6499
  160OSM   C11S17948   1.715   5.356   3.616 -0.1342  0.3272  0.3030
  160OSM   H11S17949   1.819   5.327   3.589 -0.6774  0.6742 -2.4504
  160OSM   H11T17950   1.662   5.269   3.570  0.2156 -0.3912  1.2287
  160OSM   C12S17951   1.698   5.346   3.769  0.5666 -0.3141  0.3484
  160OSM   H12S17952   1.760   5.266   3.815  0.4152  0.9224  2.8951
  160OSM   H12T17953   1.590   5.340   3.796 -0.1860  0.0231 -2.2620
  160OSM   C13S17954   1.742   5.474   3.840 -0.0649 -0.0840  0.2669
  160OSM   H13S17955   1.673   5.554   3.807  0.0912  0.5296  1.3563
  160OSM   H13T17956   1.846   5.496   3.810  0.3851 -1.5509  0.6603
  160OSM   C14S17957   1.744   5.460   3.992  0.7863 -0.1839  0.5159
  160OSM   H14S17958   1.801   5.550   4.023  2.9802 -0.8390 -1.4072
  160OSM   H14T17959   1.804   5.380   4.038  1.5769  0.5400  0.7588
  160OSM   C15S17960   1.604   5.477   4.056  0.2793 -0.1088  0.0320
  160OSM   H15S17961   1.541   5.390   4.028 -2.7070  2.9005 -3.8847
  160OSM   H15T17962   1.549   5.561   4.009 -1.8904 -2.2722 -1.5366
  160OSM   C16S17963   1.611   5.485   4.211  0.2532 -0.4640  0.5485
  160OSM   H16S17964   1.675   5.569   4.246  0.3242  1.3783 -3.4688
  160OSM   H16T17965   1.680   5.406   4.248  1.0798 -0.4808 -0.9522
  160OSM   C17S17966   1.480   5.474   4.286 -0.5991 -0.3324 -0.3749
  160OSM   H17S17967   1.444   5.369   4.291 -1.8194  0.1069  0.5086
  160OSM   H17T17968   1.402   5.522   4.223 -0.5156  1.2061  0.6275
  160OSM   C18S17969   1.482   5.541   4.425  0.3632 -0.3516 -0.0124
  160OSM   H18S17970   1.568   5.518   4.492  0.8621  1.5917  0.0627
  160OSM   H18T17971   1.386   5.524   4.478 -0.0490  1.4147 -0.1361
  160OSM   H18U17972   1.486   5.651   4.408  3.1892 -0.7534 -2.6892
  160OSM    C1F17973   1.155   5.581   2.699  0.4484 -0.0421 -0.1756
  160OSM     OF17974   1.132   5.459   2.694 -0.2930 -0.1823 -0.7528
  160OSM    C2F17975   1.044   5.678   2.690 -1.1876  0.3946  0.0982
  160OSM    H2F17976   1.018   5.682   2.583  0.5888 -1.0175 -0.4338
  160OSM    H2G17977   1.082   5.779   2.718 -1.0894  0.5197 -0.4798
  160OSM    C3F17978   0.925   5.627   2.772  0.2873  0.2425  0.0496
  160OSM    H3F17979   0.891   5.530   2.729  0.9888 -0.7146  1.5748
  160OSM    H3G17980   0.847   5.704   2.752 -0.3406  0.3184  2.4432
  160OSM    C4F17981   0.947   5.607   2.929 -0.3976 -0.8750  0.0386
  160OSM    H4F17982   1.028   5.534   2.953  0.4903  0.2800  0.6437
  160OSM    H4G17983   0.845   5.578   2.962 -0.8534 -2.0846 -2.2086
  160OSM    C5F17984   0.985   5.739   2.999  0.4885  0.3446  0.1009
  160OSM    H5F17985   0.935   5.752   3.097 -1.2143  2.6925 -0.9870
  160OSM    H5G17986   0.954   5.824   2.935 -0.6779  0.0414  0.2463
  160OSM    C6F17987   1.132   5.758   3.014  0.1907 -0.6976  0.1446
  160OSM    H6F17988   1.188   5.765   2.918 -0.4447  0.9664 -0.1414
  160OSM    H6G17989   1.171   5.667   3.064 -0.0806 -0.9971 -0.1845
  160OSM    C7F17990   1.170   5.898   3.080  0.1045 -0.2145 -0.2806
  160OSM    H7F17991   1.121   5.970   3.011 -0.7083 -0.8750 -0.4040
  160OSM    H7G17992   1.279   5.916   3.071  0.3401 -1.5926 -0.2796
  160OSM    C8F17993   1.103   5.916   3.218  0.4116 -0.1100  0.4031
  160OSM    H8F17994   0.993   5.913   3.211  0.4652  1.0134 -1.9283
  160OSM    H8G17995   1.132   6.014   3.262  1.2259 -0.0165 -0.2930
  160OSM    C9F17996   1.144   5.809   3.311  0.3506 -0.0438 -0.4929
  160OSM    H9F17997   1.119   5.706   3.279  0.1382 -0.3715  0.6722
  160OSM   C10F17998   1.186   5.814   3.443 -0.3390  0.3069  0.3063
  160OSM   H10F17999   1.212   5.718   3.488  0.9700  1.3621  1.8972
  160OSM   C11F18000   1.222   5.935   3.523  0.3152  0.2053  0.3188
  160OSM   H11F18001   1.130   5.980   3.566 -0.2932 -2.0792  1.5278
  160OSM   H11G18002   1.278   6.009   3.461 -1.8470  2.5091  0.9353
  160OSM   C12F18003   1.318   5.893   3.637 -0.2428  0.3729  0.2449
  160OSM   H12F18004   1.386   5.977   3.664  0.1768 -0.1171  0.7319
  160OSM   H12G18005   1.383   5.806   3.617  0.7420  1.1409 -0.0138
  160OSM   C13F18006   1.251   5.844   3.761  1.1828  0.2135 -0.2454
  160OSM   H13F18007   1.170   5.772   3.733  0.3198  0.7499  0.7756
  160OSM   H13G18008   1.192   5.926   3.807 -0.7271 -1.3303  0.1994
  160OSM   C14F18009   1.338   5.776   3.867 -0.2061 -0.5772  0.2542
  160OSM   H14F18010   1.427   5.837   3.895  0.0334 -0.8326  0.0485
  160OSM   H14G18011   1.372   5.678   3.826 -1.3956 -1.5239  1.4477
  160OSM   C15F18012   1.269   5.737   3.996  0.3341 -0.1195  0.2796
  160OSM   H15F18013   1.322   5.658   4.054  0.7710  0.9322  1.3628
  160OSM   H15G18014   1.176   5.692   3.956  1.6033 -0.8262 -2.0713
  160OSM   C16F18015   1.234   5.856   4.090  0.3045 -0.4073  0.0950
  160OSM   H16F18016   1.133   5.834   4.132  0.5464  0.2243  1.0551
  160OSM   H16G18017   1.210   5.949   4.033 -0.2133  1.4571  3.0945
  160OSM   C17F18018   1.339   5.899   4.191 -0.0959 -0.4147 -0.4837
  160OSM   H17F18019   1.348   5.823   4.272 -0.9155 -1.2368 -1.1445
  160OSM   H17G18020   1.306   5.993   4.240  0.2040  0.1750 -1.3955
  160OSM   C18F18021   1.479   5.937   4.126 -0.4621  0.1383 -0.3183
  160OSM   H18F18022   1.520   5.844   4.081  0.5590  0.8896 -0.9847
  160OSM   H18G18023   1.542   5.979   4.207 -1.4424  0.1551  0.4538
  160OSM   H18H18024   1.466   6.005   4.039 -3.2736 -0.6416 -0.5962
  161OSM      N18025   5.945   2.494   1.847  0.0335  0.1138 -0.3677
  161OSM    C1518026   5.900   2.636   1.801 -0.7861  0.2548 -0.0385
  161OSM   H15A18027   5.797   2.643   1.771 -0.7004 -0.1848 -0.4367
  161OSM   H15B18028   5.971   2.656   1.722 -0.0771  0.5280  0.6550
  161OSM   H15C18029   5.930   2.714   1.870  0.9514  0.1801 -0.6509
  161OSM    C1418030   5.872   2.459   1.972  0.1618 -0.7384 -0.1353
  161OSM   H14A18031   5.897   2.540   2.039 -2.6176  1.6102 -1.7087
  161OSM   H14B18032   5.914   2.368   2.012 -0.6033 -1.2046 -0.3835
  161OSM   H14C18033   5.766   2.455   1.951  0.1203 -0.8906  0.1006
  161OSM    C1318034   5.895   2.402   1.739  0.1870  0.4299 -0.1932
  161OSM   H13A18035   5.787   2.408   1.729  0.0267 -1.8254 -0.3377
  161OSM   H13B18036   5.910   2.305   1.783 -1.8843  0.1005 -0.0797
  161OSM   H13C18037   5.947   2.413   1.645  0.1961 -0.4917 -0.3029
  161OSM    C1218038   6.098   2.473   1.853  0.4801 -0.0225 -0.0596
  161OSM   H12A18039   6.141   2.480   1.754  1.2969 -2.2135  0.0797
  161OSM   H12B18040   6.108   2.370   1.884 -2.7136 -0.5471 -0.4196
  161OSM    C1118041   6.181   2.577   1.932 -0.4028 -0.2943  0.3195
  161OSM   H11A18042   6.180   2.671   1.872 -2.1056 -0.8304 -0.5603
  161OSM   H11B18043   6.286   2.542   1.937 -0.0228  0.5831 -1.0048
  161OSM      P18044   6.080   2.756   2.097 -0.0342 -0.0452 -0.0562
  161OSM    O1318045   6.195   2.835   2.049  0.4887 -0.3290  0.5797
  161OSM    O1418046   5.947   2.796   2.051 -0.3623  0.2723 -0.0354
  161OSM    O1118047   6.086   2.751   2.260  0.1902 -0.2739  0.3542
  161OSM    O1218048   6.115   2.607   2.058 -0.8809 -0.0233 -0.0375
  161OSM    C1S18049   6.196   2.766   2.340 -0.2513 -0.3394 -0.4045
  161OSM    H1S18050   6.239   2.868   2.330 -2.8511  0.9862  1.0812
  161OSM    H1T18051   6.275   2.695   2.307  1.4483  2.3542 -2.5902
  161OSM     NF18052   6.260   2.789   2.575 -0.1012 -0.5413 -0.2139
  161OSM    HNF18053   6.323   2.724   2.618  0.1509  0.3635  0.8328
  161OSM    C2S18054   6.155   2.743   2.485  0.0909  0.5467 -0.0095
  161OSM    H2S18055   6.065   2.803   2.510 -0.8440 -0.7805 -0.0352
  161OSM    C3S18056   6.122   2.588   2.508  0.5134 -0.0891  0.2257
  161OSM    H3S18057   6.221   2.538   2.508  1.4171  1.6383  1.2013
  161OSM     O318058   6.046   2.515   2.409  0.0295  0.5798  0.4422
  161OSM    HO318059   6.039   2.589   2.348 -0.9662  1.6113  1.7425
  161OSM    C4S18060   6.065   2.575   2.648 -0.9213 -0.2836  0.6817
  161OSM    H4S18061   6.143   2.572   2.725 -0.2227 -0.0331 -0.0035
  161OSM    C5S18062   5.934   2.587   2.688 -0.1072 -0.1114  0.3255
  161OSM    H5S18063   5.860   2.599   2.607  2.0233 -0.0575 -1.7274
  161OSM    C6S18064   5.893   2.591   2.834  0.0461 -0.5455  0.6369
  161OSM    H6S18065   5.956   2.519   2.890  1.7159 -0.9228 -1.5960
  161OSM    H6T18066   5.785   2.570   2.847  0.0886 -2.6396 -1.7248
  161OSM    C7S18067   5.925   2.724   2.898  0.0363 -0.2484  0.2125
  161OSM    H7S18068   5.867   2.806   2.850 -0.9215 -1.4596 -0.7768
  161OSM    H7T18069   6.033   2.747   2.902 -0.3273  1.4452  1.5843
  161OSM    C8S18070   5.890   2.730   3.047  0.6096  0.9433  1.0107
  161OSM    H8S18071   5.787   2.689   3.055  1.2967 -1.3372 -0.8029
  161OSM    H8T18072   5.876   2.834   3.084 -1.4478  1.1242 -0.1113
  161OSM    C9S18073   5.987   2.651   3.144 -0.1129 -1.0214 -0.0161
  161OSM    H9S18074   6.090   2.633   3.104 -0.3650 -1.5002 -0.4763
  161OSM    H9T18075   5.942   2.550   3.151 -0.2514 -0.9278  0.4684
  161OSM   C10S18076   5.983   2.709   3.286 -0.6400  0.2923 -0.2981
  161OSM   H10S18077   5.874   2.725   3.296 -1.5221 -3.1318 -2.6362
  161OSM   H10T18078   6.033   2.808   3.289 -0.3964  0.2286 -1.5418
  161OSM   C11S18079   6.052   2.620   3.393 -0.0093 -0.2665  0.1816
  161OSM   H11S18080   6.155   2.599   3.359  0.4272  0.8029  0.7961
  161OSM   H11T18081   5.991   2.528   3.411  0.7725 -0.6468  0.9397
  161OSM   C12S18082   6.050   2.684   3.535  0.7178 -0.1478  0.7473
  161OSM   H12S18083   5.952   2.682   3.589  1.7479 -2.1142  2.6867
  161OSM   H12T18084   6.082   2.789   3.522  1.4764 -0.5782 -1.2205
  161OSM   C13S18085   6.156   2.630   3.630 -0.5228 -0.2472 -0.0587
  161OSM   H13S18086   6.260   2.647   3.594  0.5883 -2.6711  1.7577
  161OSM   H13T18087   6.143   2.520   3.636 -0.1655 -0.4035 -1.6248
  161OSM   C14S18088   6.153   2.698   3.769  0.6984  0.0335  0.4323
  161OSM   H14S18089   6.056   2.669   3.815  0.2054  0.3936 -0.3545
  161OSM   H14T18090   6.165   2.807   3.754  1.4444 -0.4179 -2.8831
  161OSM   C15S18091   6.262   2.672   3.867 -1.4524 -0.5232 -0.3670
  161OSM   H15S18092   6.359   2.705   3.823 -2.3190  1.8270 -0.6287
  161OSM   H15T18093   6.279   2.563   3.885  0.1215 -0.3931 -0.9226
  161OSM   C16S18094   6.240   2.724   4.010  0.1037 -0.0539 -0.2041
  161OSM   H16S18095   6.131   2.719   4.030 -0.1258  2.4598 -0.5879
  161OSM   H16T18096   6.251   2.834   4.006  0.2237  0.0684  2.1793
  161OSM   C17S18097   6.325   2.669   4.127 -0.7769  0.2180 -0.2632
  161OSM   H17S18098   6.348   2.560   4.120  4.8791  0.9815  1.4089
  161OSM   H17T18099   6.265   2.683   4.219 -1.2463  1.2697 -0.7187
  161OSM   C18S18100   6.463   2.742   4.132 -0.4472  0.3360 -0.0261
  161OSM   H18S18101   6.448   2.851   4.120  0.4962  0.4456 -0.3048
  161OSM   H18T18102   6.532   2.708   4.052  0.3485 -0.1004  0.8187
  161OSM   H18U18103   6.511   2.717   4.229  1.1074 -0.4077 -0.9545
  161OSM    C1F18104   6.284   2.915   2.609 -0.3498 -0.7514 -1.0319
  161OSM     OF18105   6.223   3.012   2.564 -0.3036  0.4502 -0.2618
  161OSM    C2F18106   6.380   2.925   2.719  0.3671 -0.4533 -0.0751
  161OSM    H2F18107   6.480   2.966   2.695 -0.2504 -0.2581 -2.5359
  161OSM    H2G18108   6.394   2.830   2.775 -0.3966 -0.1297  0.6983
  161OSM    C3F18109   6.317   3.014   2.830 -0.2075 -0.0499 -0.4574
  161OSM    H3F18110   6.212   2.988   2.856 -0.5996  0.3214 -1.5557
  161OSM    H3G18111   6.311   3.120   2.794 -0.2921  0.4286  0.9023
  161OSM    C4F18112   6.412   3.019   2.954  0.8009 -0.2261  0.0994
  161OSM    H4F18113   6.401   3.123   2.994 -0.7748 -0.0887 -0.6186
  161OSM    H4G18114   6.514   3.000   2.914 -0.4525 -2.8169 -2.1728
  161OSM    C5F18115   6.369   2.913   3.056 -0.1994 -0.3199 -0.2602
  161OSM    H5F18116   6.386   2.818   3.001  0.9887 -0.0365 -0.4058
  161OSM    H5G18117   6.259   2.918   3.072 -0.2864  2.6227 -1.2179
  161OSM    C6F18118   6.449   2.915   3.184 -0.3638 -0.0492  0.2178
  161OSM    H6F18119   6.554   2.923   3.149 -1.0081 -0.0361 -1.8405
  161OSM    H6G18120   6.438   2.818   3.236 -1.0093  0.1189  0.4043
  161OSM    C7F18121   6.423   3.043   3.274  0.2242  0.0921 -0.3292
  161OSM    H7F18122   6.405   3.132   3.209 -2.4768 -0.1974 -0.1054
  161OSM    H7G18123   6.504   3.053   3.350  1.1209  0.4742 -1.3176
  161OSM    C8F18124   6.290   3.021   3.345 -0.8615  0.2211  0.4096
  161OSM    H8F18125   6.286   2.920   3.393  0.8252 -0.2266 -0.3197
  161OSM    H8G18126   6.202   3.023   3.277 -1.9537 -0.3031  1.7331
  161OSM    C9F18127   6.268   3.136   3.442  0.4599  0.6848 -0.1444
  161OSM    H9F18128   6.215   3.225   3.408  1.6764  1.2738 -0.5736
  161OSM   C10F18129   6.295   3.131   3.570 -0.3395 -0.1723  0.0237
  161OSM   H10F18130   6.267   3.219   3.630 -0.0793  1.1497 -1.6857
  161OSM   C11F18131   6.371   3.029   3.652  0.0790  0.2633  0.0368
  161OSM   H11F18132   6.428   2.960   3.586 -2.2192 -2.6888  0.9135
  161OSM   H11G18133   6.293   2.967   3.701 -1.3635 -0.3574 -2.8584
  161OSM   C12F18134   6.463   3.095   3.752 -0.3351 -0.5140 -0.0017
  161OSM   H12F18135   6.402   3.104   3.844  0.6641 -0.2034  0.6517
  161OSM   H12G18136   6.494   3.196   3.717 -1.3523 -0.8586 -2.0493
  161OSM   C13F18137   6.588   3.011   3.785 -0.2723 -0.0430 -0.0647
  161OSM   H13F18138   6.663   3.020   3.704 -0.8138  0.5983 -0.5030
  161OSM   H13G18139   6.565   2.906   3.813  1.1901 -0.4595 -0.3535
  161OSM   C14F18140   6.651   3.077   3.903  0.2619  0.6175 -0.4454
  161OSM   H14F18141   6.590   3.052   3.992  1.4230 -1.3369 -0.1359
  161OSM   H14G18142   6.678   3.184   3.886 -0.1049  0.7144 -0.4407
  161OSM   C15F18143   6.774   3.003   3.956  0.6491 -0.6307  0.0610
  161OSM   H15F18144   6.742   2.905   3.997  2.4147 -0.3223  2.4015
  161OSM   H15G18145   6.812   3.062   4.042  0.5333  0.5424 -0.6793
  161OSM   C16F18146   6.882   2.986   3.847 -1.0996  0.0772  0.1679
  161OSM   H16F18147   6.888   3.073   3.778  1.2300 -1.8002 -2.2141
  161OSM   H16G18148   6.867   2.900   3.778 -0.8973  0.7131 -0.6856
  161OSM   C17F18149   7.032   2.972   3.906  0.0893 -0.2899 -0.3460
  161OSM   H17F18150   7.045   3.059   3.974  0.7035  0.3002 -1.1949
  161OSM   H17G18151   7.104   3.002   3.826 -1.2088  2.0495 -0.7272
  161OSM   C18F18152   7.053   2.842   3.978 -0.7167 -0.1674  0.0404
  161OSM   H18F18153   7.012   2.760   3.916 -3.1417 -0.6569  2.1376
  161OSM   H18G18154   6.991   2.831   4.069  0.6464 -1.7098  0.8378
  161OSM   H18H18155   7.156   2.836   4.020 -0.5103 -0.1127 -0.4488
  162OSM      N18156   1.335   3.926   2.246  0.5625 -0.3647 -0.3599
  162OSM    C1518157   1.349   4.080   2.247 -0.4126 -0.5304  0.3102
  162OSM   H15A18158   1.353   4.122   2.347 -1.4388 -0.2928  0.2632
  162OSM   H15B18159   1.263   4.126   2.201 -1.0051  0.2686  2.1133
  162OSM   H15C18160   1.438   4.114   2.197 -1.4747  2.3323  0.2117
  162OSM    C1418161   1.454   3.864   2.305 -0.2158  0.6598 -1.2373
  162OSM   H14A18162   1.549   3.879   2.256 -0.5523  0.4260 -1.9827
  162OSM   H14B18163   1.459   3.757   2.318 -0.3575  0.7530 -0.4061
  162OSM   H14C18164   1.470   3.907   2.403  1.2231 -1.6557 -0.3622
  162OSM    C1318165   1.228   3.897   2.354  0.5791 -0.0272  1.2615
  162OSM   H13A18166   1.131   3.942   2.336  0.8651  0.3243  0.5655
  162OSM   H13B18167   1.275   3.930   2.445  3.0456 -0.7558  0.3173
  162OSM   H13C18168   1.207   3.791   2.350 -1.7394  0.3522  2.0262
  162OSM    C1218169   1.293   3.878   2.107  0.1814 -0.1797 -0.6743
  162OSM   H12A18170   1.365   3.910   2.032 -0.7568  0.7193 -1.2160
  162OSM   H12B18171   1.200   3.924   2.078 -0.8562 -1.1325  1.0021
  162OSM    C1118172   1.272   3.725   2.086  0.6071 -0.0449 -0.1814
  162OSM   H11A18173   1.365   3.676   2.120  1.4810  1.7098  0.0308
  162OSM   H11B18174   1.251   3.705   1.978  0.5668 -2.5725  0.2380
  162OSM      P18175   1.010   3.677   2.122  0.2499  0.0812  0.3412
  162OSM    O1318176   0.986   3.774   2.010 -0.4730 -0.5661  0.4663
  162OSM    O1418177   0.969   3.532   2.100 -0.4785 -0.2019  0.0179
  162OSM    O1118178   0.940   3.718   2.260 -0.2391 -0.1392 -0.5608
  162OSM    O1218179   1.157   3.675   2.161 -0.0288 -0.0680 -0.1224
  162OSM    C1S18180   0.960   3.629   2.373 -0.1467  0.6199  0.3837
  162OSM    H1S18181   1.066   3.620   2.406 -0.4231  0.6003  1.3043
  162OSM    H1T18182   0.929   3.525   2.348 -2.3288  0.8786  1.7740
  162OSM     NF18183   0.934   3.576   2.613 -0.2381  0.2773 -0.2499
  162OSM    HNF18184   0.871   3.501   2.630  1.4175 -1.0612  0.3530
  162OSM    C2S18185   0.891   3.667   2.504  0.0338 -0.6545 -0.4101
  162OSM    H2S18186   0.934   3.766   2.531 -0.0750 -0.2174 -1.7540
  162OSM    C3S18187   0.733   3.684   2.485 -0.0965  0.5373 -0.7336
  162OSM    H3S18188   0.678   3.591   2.462 -0.6711  1.2322 -2.3324
  162OSM     O318189   0.696   3.742   2.364 -0.2696  0.5039  0.0956
  162OSM    HO318190   0.779   3.764   2.321 -0.0943  0.0623  0.2064
  162OSM    C4S18191   0.671   3.752   2.605  0.6182 -0.5155  0.1785
  162OSM    H4S18192   0.617   3.678   2.667 -1.4184  0.5728 -0.2230
  162OSM    C5S18193   0.676   3.886   2.628 -0.6204 -0.0591  0.9284
  162OSM    H5S18194   0.714   3.949   2.546 -0.3460  0.7509  1.6595
  162OSM    C6S18195   0.613   3.966   2.746 -0.5873 -0.2705  0.9939
  162OSM    H6S18196   0.527   4.018   2.697  1.4217 -0.0489 -2.6652
  162OSM    H6T18197   0.684   4.047   2.775 -1.2086 -0.0046  1.7969
  162OSM    C7S18198   0.566   3.900   2.873  0.1169 -0.0913 -0.5929
  162OSM    H7S18199   0.654   3.869   2.933 -0.8333  0.5620  1.2229
  162OSM    H7T18200   0.509   3.807   2.852 -1.1692  0.5362 -0.0482
  162OSM    C8S18201   0.478   3.996   2.956 -0.1141 -0.5828 -0.2132
  162OSM    H8S18202   0.396   4.032   2.889  1.1414  1.4265 -0.7367
  162OSM    H8T18203   0.548   4.079   2.980  0.3151 -0.2742 -2.3242
  162OSM    C9S18204   0.432   3.944   3.090 -0.1225 -0.0949 -0.1039
  162OSM    H9S18205   0.525   3.924   3.148 -0.5660  2.3711  1.6217
  162OSM    H9T18206   0.381   3.848   3.068 -1.3695  0.7389 -1.0212
  162OSM   C10S18207   0.338   4.036   3.163  0.0635 -0.3091  0.3187
  162OSM   H10S18208   0.239   4.010   3.120  0.2274 -0.2573 -0.0877
  162OSM   H10T18209   0.344   4.142   3.132 -0.0544 -1.5809 -4.9107
  162OSM   C11S18210   0.331   4.033   3.318 -0.2357 -0.7198  0.0229
  162OSM   H11S18211   0.307   3.933   3.361  0.2985 -0.7002  0.3605
  162OSM   H11T18212   0.242   4.096   3.342  0.2354 -0.4164  1.0182
  162OSM   C12S18213   0.452   4.093   3.392  0.5251  0.0230  0.9682
  162OSM   H12S18214   0.460   4.194   3.347  1.3027  0.2904  1.6680
  162OSM   H12T18215   0.539   4.030   3.366  1.1728  0.9349  0.8656
  162OSM   C13S18216   0.434   4.102   3.540 -0.5285  0.6638  0.5137
  162OSM   H13S18217   0.398   4.001   3.571 -1.3493  0.2326 -1.6630
  162OSM   H13T18218   0.346   4.165   3.568 -0.7265  0.3185  0.6820
  162OSM   C14S18219   0.546   4.165   3.620 -0.0058  0.0102  0.2544
  162OSM   H14S18220   0.591   4.251   3.565 -1.3463  0.8228  0.3940
  162OSM   H14T18221   0.624   4.087   3.634  1.1225  1.0324 -0.1176
  162OSM   C15S18222   0.502   4.211   3.756 -0.3022  0.3747 -0.7343
  162OSM   H15S18223   0.439   4.135   3.807 -0.2396  0.3619 -0.6760
  162OSM   H15T18224   0.438   4.302   3.748 -2.1440 -0.8159 -0.3822
  162OSM   C16S18225   0.620   4.225   3.867  0.4824 -0.1852  0.4675
  162OSM   H16S18226   0.718   4.240   3.815 -0.4751  0.1757 -1.3043
  162OSM   H16T18227   0.615   4.130   3.924  0.1673  0.7298  2.0356
  162OSM   C17S18228   0.580   4.334   3.971 -0.4054 -0.0817  0.4330
  162OSM   H17S18229   0.476   4.317   4.005 -0.7233 -0.4849 -0.6833
  162OSM   H17T18230   0.583   4.436   3.926  1.3495  0.5262  1.7943
  162OSM   C18S18231   0.665   4.349   4.096  0.2667  0.3285  0.4027
  162OSM   H18S18232   0.769   4.367   4.062  0.4512 -2.3309 -0.6811
  162OSM   H18T18233   0.666   4.259   4.161 -2.4682  1.1653  1.7452
  162OSM   H18U18234   0.628   4.423   4.170  1.9191  0.7285  0.8807
  162OSM    C1F18235   1.058   3.557   2.659 -0.0125  0.2099  0.0581
  162OSM     OF18236   1.147   3.642   2.636  0.3783 -0.1105  0.2228
  162OSM    C2F18237   1.086   3.435   2.743 -0.4989  0.2148  0.0589
  162OSM    H2F18238   1.090   3.354   2.667  0.5243  0.9652 -0.7303
  162OSM    H2G18239   1.006   3.410   2.816 -2.9493 -0.5010 -2.6759
  162OSM    C3F18240   1.216   3.447   2.828 -0.0800 -0.4534  0.4918
  162OSM    H3F18241   1.227   3.543   2.884  1.8392 -1.0332  1.1661
  162OSM    H3G18242   1.297   3.433   2.755 -0.3455  0.6739 -0.0280
  162OSM    C4F18243   1.234   3.332   2.924  0.1481  0.1703 -0.0147
  162OSM    H4F18244   1.340   3.353   2.951  0.4125 -1.6733  0.4904
  162OSM    H4G18245   1.241   3.237   2.867  0.3060 -0.7816  1.5353
  162OSM    C5F18246   1.138   3.333   3.044 -0.3397 -0.7466 -0.7201
  162OSM    H5F18247   1.042   3.288   3.009 -0.7598 -0.8762  0.5366
  162OSM    H5G18248   1.114   3.440   3.064 -0.8723 -0.8949 -0.5507
  162OSM    C6F18249   1.194   3.248   3.166 -0.4129  0.0860  0.2501
  162OSM    H6F18250   1.290   3.285   3.208  0.6707 -2.7208  0.4228
  162OSM    H6G18251   1.229   3.152   3.122  4.4247  1.1342  1.3062
  162OSM    C7F18252   1.101   3.225   3.288 -0.2130 -0.5068  0.0163
  162OSM    H7F18253   0.997   3.201   3.258 -0.7239 -1.3286  2.2334
  162OSM    H7G18254   1.082   3.322   3.339  0.4456  0.0247 -0.7398
  162OSM    C8F18255   1.145   3.116   3.386 -0.2196 -0.3403  0.3153
  162OSM    H8F18256   1.253   3.133   3.409  0.6537 -2.3927 -1.8597
  162OSM    H8G18257   1.129   3.023   3.328 -0.3798  0.1576 -0.4517
  162OSM    C9F18258   1.059   3.103   3.512 -0.0071  0.8421 -0.0726
  162OSM    H9F18259   0.950   3.111   3.505 -0.3533 -0.0411  2.8356
  162OSM   C10F18260   1.112   3.100   3.634 -0.2993  0.3964 -0.3981
  162OSM   H10F18261   1.032   3.107   3.709  2.0008 -0.8072  2.3109
  162OSM   C11F18262   1.251   3.090   3.683 -0.0559  0.6669 -0.2605
  162OSM   H11F18263   1.256   3.151   3.776 -0.2711 -0.7541  0.7161
  162OSM   H11G18264   1.328   3.119   3.609  1.4624 -0.2955  0.8816
  162OSM   C12F18265   1.277   2.945   3.717  0.1519  0.5980 -0.0460
  162OSM   H12F18266   1.260   2.885   3.625  0.5639 -0.3013  0.4454
  162OSM   H12G18267   1.210   2.906   3.797 -1.1112 -2.1272 -2.2567
  162OSM   C13F18268   1.425   2.919   3.778 -0.5356  0.6050  0.1431
  162OSM   H13F18269   1.454   2.994   3.854 -0.3997  1.6059 -0.8685
  162OSM   H13G18270   1.498   2.926   3.695  0.9069 -1.4538  1.1554
  162OSM   C14F18271   1.433   2.776   3.833 -0.0272  0.0659 -0.2675
  162OSM   H14F18272   1.410   2.706   3.750 -0.9378 -0.9340  0.7907
  162OSM   H14G18273   1.364   2.770   3.920 -0.0829  0.4009 -0.2853
  162OSM   C15F18274   1.577   2.760   3.897 -0.2439  0.2240  0.1435
  162OSM   H15F18275   1.619   2.857   3.931  0.8340  0.0868 -0.7473
  162OSM   H15G18276   1.645   2.718   3.819 -0.5719 -1.3646  0.6694
  162OSM   C16F18277   1.587   2.661   4.005 -0.1164  0.1898  0.0808
  162OSM   H16F18278   1.691   2.626   4.020  0.2917  0.4772 -1.8517
  162OSM   H16G18279   1.529   2.577   3.960  0.9033  0.8042 -2.5575
  162OSM   C17F18280   1.532   2.712   4.143 -0.4126  0.6913  0.1435
  162OSM   H17F18281   1.422   2.722   4.133 -0.9884 -2.8328  1.5879
  162OSM   H17G18282   1.579   2.809   4.172 -1.8937  1.4916 -0.0288
  162OSM   C18F18283   1.556   2.606   4.257  0.0697  0.4779  0.0420
  162OSM   H18F18284   1.533   2.505   4.217  0.8781  0.7643 -1.2136
  162OSM   H18G18285   1.492   2.640   4.341 -2.8760  2.9568 -2.9190
  162OSM   H18H18286   1.663   2.610   4.287  0.4594  2.3156 -1.3868
  163OSM      N18287   6.057   4.834   2.106  0.2992 -0.2251  0.2194
  163OSM    C1518288   6.077   4.961   2.031  0.0113  0.0249  0.2845
  163OSM   H15A18289   6.167   4.962   1.971 -0.4201  2.0373 -0.4094
  163OSM   H15B18290   6.079   5.042   2.102  0.0870  0.5592 -0.3126
  163OSM   H15C18291   5.993   4.975   1.965 -0.7887  2.1318  1.6468
  163OSM    C1418292   6.058   4.721   2.006 -0.3374 -1.0962  0.0261
  163OSM   H14A18293   6.147   4.716   1.944  0.6041  0.4290  1.1920
  163OSM   H14B18294   5.979   4.729   1.932  0.7661  1.8554 -1.0047
  163OSM   H14C18295   6.041   4.626   2.054 -0.2811  0.0704  2.5029
  163OSM    C1318296   6.164   4.791   2.202 -0.0104 -0.5756  0.6038
  163OSM   H13A18297   6.183   4.876   2.266  3.1935 -2.5810  2.5916
  163OSM   H13B18298   6.255   4.772   2.147 -1.2952  0.0712 -1.9165
  163OSM   H13C18299   6.134   4.706   2.260 -2.1557  1.7641  3.2165
  163OSM    C1218300   5.928   4.826   2.178  0.3550  0.7493 -0.0321
  163OSM   H12A18301   5.929   4.729   2.227 -0.2009  1.5653  1.6836
  163OSM   H12B18302   5.840   4.835   2.117 -0.6540  0.2588  1.2924
  163OSM    C1118303   5.922   4.929   2.288 -0.0110 -0.6101 -1.0227
  163OSM   H11A18304   5.984   4.895   2.374 -1.6559 -0.6431  0.2104
  163OSM   H11B18305   5.819   4.928   2.331  0.1056  0.1623 -0.7015
  163OSM      P18306   5.826   5.168   2.216 -0.2475 -0.0765 -0.2178
  163OSM    O1318307   5.880   5.300   2.171 -0.2154  0.2404 -0.3919
  163OSM    O1418308   5.751   5.090   2.114  0.1505  0.6074  0.0719
  163OSM    O1118309   5.754   5.195   2.353  0.0487  0.5745 -0.1401
  163OSM    O1218310   5.947   5.071   2.255  0.1302 -0.3384  0.3445
  163OSM    C1S18311   5.827   5.195   2.472 -0.7248  0.5641 -0.3822
  163OSM    H1S18312   5.902   5.277   2.479  0.3432 -0.4128  0.1149
  163OSM    H1T18313   5.883   5.099   2.481 -0.8298  0.5058 -0.3529
  163OSM     NF18314   5.804   5.207   2.717 -0.7697  0.3695  0.0434
  163OSM    HNF18315   5.812   5.118   2.761  1.0973 -0.1890 -1.3345
  163OSM    C2S18316   5.729   5.196   2.591  0.3145  0.0738  0.0097
  163OSM    H2S18317   5.665   5.287   2.582  0.0139  0.0773  1.8799
  163OSM    C3S18318   5.625   5.076   2.595 -0.0592  0.3033  0.2257
  163OSM    H3S18319   5.684   4.982   2.606  0.0085  0.0827 -1.6637
  163OSM     O318320   5.542   5.058   2.482  0.7109 -0.0630 -0.5300
  163OSM    HO318321   5.570   5.125   2.419 -1.0958 -0.5408 -1.9384
  163OSM    C4S18322   5.543   5.085   2.709 -0.7739 -0.2095  0.1918
  163OSM    H4S18323   5.579   5.036   2.801  0.2112  3.1471  1.7267
  163OSM    C5S18324   5.417   5.144   2.720  0.0901 -0.1961 -0.3222
  163OSM    H5S18325   5.373   5.184   2.628  0.7196  1.5294  0.0951
  163OSM    C6S18326   5.327   5.162   2.841  0.0630 -0.5150  0.2171
  163OSM    H6S18327   5.235   5.107   2.810  0.2191  0.5900 -2.5392
  163OSM    H6T18328   5.320   5.272   2.851  1.9398 -0.4929  1.8921
  163OSM    C7S18329   5.373   5.106   2.979 -0.2837 -0.3096 -0.4106
  163OSM    H7S18330   5.482   5.122   2.994 -0.0986 -1.1603 -0.7925
  163OSM    H7T18331   5.362   4.996   2.975  0.3552 -0.4638  1.4038
  163OSM    C8S18332   5.305   5.177   3.098 -0.2379 -0.2363 -0.3624
  163OSM    H8S18333   5.194   5.175   3.104 -0.2121 -1.3632  0.0610
  163OSM    H8T18334   5.322   5.286   3.093  3.8152 -0.6901  0.1131
  163OSM    C9S18335   5.371   5.141   3.241  0.0875 -0.3987  0.7458
  163OSM    H9S18336   5.479   5.169   3.241  0.2781 -1.1237  1.0747
  163OSM    H9T18337   5.373   5.031   3.254  1.7240 -0.8371 -2.2247
  163OSM   C10S18338   5.310   5.225   3.358 -0.2749  1.1880 -0.1613
  163OSM   H10S18339   5.205   5.195   3.376  0.1449 -1.8906 -2.0374
  163OSM   H10T18340   5.325   5.330   3.326  3.3742  0.2279 -2.2101
  163OSM   C11S18341   5.400   5.199   3.481 -0.0855  0.2666 -0.4421
  163OSM   H11S18342   5.506   5.225   3.463  0.1562  1.9446  2.6921
  163OSM   H11T18343   5.394   5.096   3.522  2.4223 -0.7411 -2.3593
  163OSM   C12S18344   5.379   5.295   3.594  0.4854 -0.0690  0.1149
  163OSM   H12S18345   5.273   5.282   3.625  0.2337 -1.6002 -1.2372
  163OSM   H12T18346   5.384   5.399   3.556  0.0984 -0.5010 -1.1658
  163OSM   C13S18347   5.481   5.279   3.710 -0.4467  0.9015 -0.0163
  163OSM   H13S18348   5.576   5.271   3.653  0.7841  2.3212  1.7343
  163OSM   H13T18349   5.447   5.181   3.750 -0.2159  0.1008 -1.6860
  163OSM   C14S18350   5.474   5.390   3.816 -0.2508 -0.1012 -0.0392
  163OSM   H14S18351   5.372   5.394   3.860 -0.1700 -1.6545  0.3456
  163OSM   H14T18352   5.485   5.490   3.769  0.2755 -0.8470 -1.5729
  163OSM   C15S18353   5.582   5.362   3.927  0.2712  0.6480 -0.0584
  163OSM   H15S18354   5.684   5.369   3.883  0.4187 -0.4390  0.0819
  163OSM   H15T18355   5.568   5.260   3.969 -0.8971  0.7376 -0.1889
  163OSM   C16S18356   5.574   5.484   4.023 -0.1224  0.1670  0.9908
  163OSM   H16S18357   5.484   5.465   4.084 -0.6412 -1.2191 -0.1401
  163OSM   H16T18358   5.559   5.572   3.957 -1.5887  1.5653  3.0776
  163OSM   C17S18359   5.688   5.511   4.115 -1.1153 -0.0393  0.2022
  163OSM   H17S18360   5.772   5.554   4.056 -0.8709 -0.1245  0.4843
  163OSM   H17T18361   5.726   5.419   4.164 -1.3703 -0.7103 -0.8153
  163OSM   C18S18362   5.658   5.615   4.218  0.8445  0.0946 -0.2588
  163OSM   H18S18363   5.575   5.577   4.282  2.0182 -0.5359  0.9575
  163OSM   H18T18364   5.627   5.711   4.174 -1.2122  0.6745  2.2354
  163OSM   H18U18365   5.741   5.625   4.292  0.6959  4.0532 -0.4416
  163OSM    C1F18366   5.859   5.319   2.760 -0.3330  0.1834 -0.3211
  163OSM     OF18367   5.885   5.417   2.688 -0.7551  0.2423  0.2193
  163OSM    C2F18368   5.908   5.320   2.900 -0.0081  0.3111  0.5170
  163OSM    H2F18369   5.871   5.417   2.940 -1.1451  0.4628 -0.8541
  163OSM    H2G18370   6.017   5.341   2.892 -0.2363  1.4730  0.1867
  163OSM    C3F18371   5.881   5.195   2.983  1.3859  0.0017 -0.0309
  163OSM    H3F18372   5.942   5.108   2.949 -0.2894 -0.9575 -0.7107
  163OSM    H3G18373   5.772   5.171   2.980  1.0301  0.0810  4.7745
  163OSM    C4F18374   5.901   5.234   3.137 -0.1150  0.7800  0.4332
  163OSM    H4F18375   5.877   5.141   3.193 -0.2304  1.2183  1.1215
  163OSM    H4G18376   5.822   5.309   3.160 -0.5873  0.9037 -1.4351
  163OSM    C5F18377   6.040   5.270   3.159 -0.2424 -0.5325 -0.2011
  163OSM    H5F18378   6.062   5.374   3.129  0.9949 -0.5798  0.4762
  163OSM    H5G18379   6.114   5.217   3.096  1.2896  0.2104  0.9003
  163OSM    C6F18380   6.075   5.254   3.307  0.7170  0.4430 -0.4198
  163OSM    H6F18381   6.076   5.144   3.323 -2.4418  0.3303 -0.4665
  163OSM    H6G18382   5.995   5.291   3.374  0.3277 -2.1974  0.6914
  163OSM    C7F18383   6.209   5.324   3.343 -0.7628  0.0333 -0.9068
  163OSM    H7F18384   6.205   5.433   3.323  2.2940  0.1563 -1.3295
  163OSM    H7G18385   6.283   5.292   3.267  1.5173  0.1685  1.1217
  163OSM    C8F18386   6.257   5.313   3.488 -0.5178  0.5511  0.0301
  163OSM    H8F18387   6.348   5.375   3.502 -0.7375  1.1108 -0.9405
  163OSM    H8G18388   6.278   5.206   3.508 -0.5732  0.0759 -2.2188
  163OSM    C9F18389   6.151   5.359   3.579 -0.6188 -0.1731  0.5593
  163OSM    H9F18390   6.081   5.425   3.525  1.3473  0.1971 -1.7159
  163OSM   C10F18391   6.157   5.347   3.713  0.2322  0.0655 -0.5134
  163OSM   H10F18392   6.075   5.374   3.781  0.6906  0.3913 -0.0782
  163OSM   C11F18393   6.271   5.276   3.785 -0.0808  0.2686 -0.4034
  163OSM   H11F18394   6.330   5.206   3.721  0.4039 -1.0832  1.4247
  163OSM   H11G18395   6.227   5.218   3.869  0.8243 -0.6744 -0.5464
  163OSM   C12F18396   6.377   5.378   3.838  0.1010  0.8331 -0.4491
  163OSM   H12F18397   6.325   5.459   3.894  1.8953  0.8288  1.3489
  163OSM   H12G18398   6.428   5.414   3.747 -1.4778 -0.8118 -2.0663
  163OSM   C13F18399   6.489   5.316   3.921  0.4029  0.1744  0.1605
  163OSM   H13F18400   6.579   5.382   3.924 -0.7239  1.8179 -0.8266
  163OSM   H13G18401   6.526   5.221   3.875 -3.0880 -0.9656 -0.5971
  163OSM   C14F18402   6.435   5.281   4.067 -0.4785  0.3619 -0.2230
  163OSM   H14F18403   6.502   5.214   4.125 -0.5315  0.6716  0.2020
  163OSM   H14G18404   6.342   5.222   4.054 -0.8085  0.8006  0.1011
  163OSM   C15F18405   6.406   5.402   4.153 -0.5645 -0.9070 -0.2314
  163OSM   H15F18406   6.394   5.496   4.095 -1.2101  1.2836  3.1870
  163OSM   H15G18407   6.495   5.421   4.216 -0.9372  2.2427 -0.5110
  163OSM   C16F18408   6.299   5.384   4.258 -0.2873 -0.4476 -0.4740
  163OSM   H16F18409   6.310   5.284   4.305  0.7139 -0.1061  0.0504
  163OSM   H16G18410   6.193   5.380   4.226 -0.5474 -2.1019  0.4606
  163OSM   C17F18411   6.312   5.494   4.361 -0.4044 -0.7030  0.3480
  163OSM   H17F18412   6.260   5.590   4.341 -1.1026 -1.2462 -0.5134
  163OSM   H17G18413   6.416   5.533   4.362 -0.2780 -1.0525  0.8139
  163OSM   C18F18414   6.275   5.438   4.501 -0.1038 -0.3588  0.1559
  163OSM   H18F18415   6.341   5.351   4.521  0.3318 -0.4570 -1.5065
  163OSM   H18G18416   6.169   5.404   4.503  0.1905 -1.2951  0.9397
  163OSM   H18H18417   6.284   5.519   4.577  0.3393 -1.0263  0.8287
  164OSM      N18418   0.941   4.452   2.386  0.2667  0.3036  0.3883
  164OSM    C1518419   0.812   4.391   2.355 -0.3675 -0.0303  0.0792
  164OSM   H15A18420   0.808   4.363   2.250  1.1698  2.4608 -0.7155
  164OSM   H15B18421   0.732   4.463   2.358 -0.6907 -0.3077 -1.1140
  164OSM   H15C18422   0.787   4.312   2.424  1.0472  1.3003  2.2175
  164OSM    C1418423   1.028   4.332   2.411 -0.9374 -0.0046  0.5039
  164OSM   H14A18424   1.013   4.255   2.337 -0.8401 -1.1739  1.6653
  164OSM   H14B18425   1.008   4.284   2.506  1.2421 -1.2375  0.3990
  164OSM   H14C18426   1.132   4.360   2.410 -0.6968 -0.8781  0.2410
  164OSM    C1318427   0.999   4.541   2.275 -0.0319  0.3751  0.3526
  164OSM   H13A18428   0.951   4.510   2.183  1.1947  0.3572 -0.3002
  164OSM   H13B18429   1.107   4.540   2.271 -0.0012  0.9234  0.9773
  164OSM   H13C18430   0.980   4.646   2.287  1.4545  0.4820  2.0233
  164OSM    C1218431   0.927   4.535   2.517 -1.0810 -0.6417  0.1930
  164OSM   H12A18432   1.018   4.591   2.531 -1.3852  0.5488 -2.1212
  164OSM   H12B18433   0.938   4.469   2.602  0.2507 -0.7066 -0.0107
  164OSM    C1118434   0.809   4.632   2.541  0.5782  0.1617  0.2037
  164OSM   H11A18435   0.811   4.656   2.649 -3.2075 -3.0648  1.2580
  164OSM   H11B18436   0.707   4.589   2.530  1.3675 -2.2710  1.6629
  164OSM      P18437   0.925   4.849   2.485 -0.5929 -0.0769  0.2908
  164OSM    O1318438   1.061   4.782   2.502 -0.3636  0.0655 -0.4522
  164OSM    O1418439   0.926   4.953   2.378  0.7719 -0.4483  0.3843
  164OSM    O1118440   0.880   4.908   2.621 -0.1009  0.2344 -0.4396
  164OSM    O1218441   0.815   4.745   2.452 -0.7583 -0.1663 -0.0980
  164OSM    C1S18442   0.743   4.941   2.633 -0.3672  0.3799  0.1434
  164OSM    H1S18443   0.673   4.857   2.615 -0.6104 -0.0018  2.5073
  164OSM    H1T18444   0.715   5.017   2.556 -3.2540 -1.7124 -1.0518
  164OSM     NF18445   0.581   5.025   2.789 -0.4418  0.0190  0.5012
  164OSM    HNF18446   0.541   5.116   2.784 -0.2092  0.1276  0.6512
  164OSM    C2S18447   0.721   4.999   2.771  0.0709 -0.6348  0.3276
  164OSM    H2S18448   0.761   4.928   2.848 -1.5538 -1.5793  0.3312
  164OSM    C3S18449   0.801   5.128   2.796 -0.7408 -0.0735  0.2381
  164OSM    H3S18450   0.759   5.193   2.716 -0.2488 -1.6521 -1.3727
  164OSM     O318451   0.943   5.117   2.774 -0.0658  0.3498 -0.3179
  164OSM    HO318452   0.951   5.035   2.725  2.5425  0.8875 -0.9072
  164OSM    C4S18453   0.782   5.200   2.927 -0.1759 -0.5349  0.1579
  164OSM    H4S18454   0.703   5.276   2.927 -1.2956 -1.6414 -0.5507
  164OSM    C5S18455   0.865   5.203   3.032  0.0205 -0.0523  0.0709
  164OSM    H5S18456   0.957   5.145   3.016 -0.0285  0.2590 -1.6086
  164OSM    C6S18457   0.869   5.285   3.155 -0.4991  0.1038  0.3917
  164OSM    H6S18458   0.822   5.225   3.235 -0.2818 -2.5690 -1.3518
  164OSM    H6T18459   0.827   5.388   3.150  0.4790  0.4909 -0.1980
  164OSM    C7S18460   1.022   5.302   3.197  0.0924  0.2413 -0.5307
  164OSM    H7S18461   1.063   5.365   3.114  0.2183 -0.9863 -1.4331
  164OSM    H7T18462   1.080   5.209   3.211 -0.5033  0.1379  1.4211
  164OSM    C8S18463   1.053   5.388   3.317  0.6696 -0.6176 -0.3751
  164OSM    H8S18464   0.978   5.466   3.343 -0.9999 -2.5729  0.9561
  164OSM    H8T18465   1.151   5.439   3.301 -0.4042  1.0167 -2.2358
  164OSM    C9S18466   1.063   5.302   3.439 -0.1107  0.2919 -0.7617
  164OSM    H9S18467   1.127   5.218   3.404  2.3360  1.6526  0.2055
  164OSM    H9T18468   0.959   5.267   3.454 -0.2965  1.1374  0.0314
  164OSM   C10S18469   1.123   5.373   3.559  0.2909  0.4320  0.0995
  164OSM   H10S18470   1.068   5.469   3.549 -1.1137 -0.4513 -0.9616
  164OSM   H10T18471   1.231   5.393   3.541  0.8752 -2.0216  0.5208
  164OSM   C11S18472   1.108   5.296   3.687 -0.1383  0.6058 -0.9827
  164OSM   H11S18473   1.161   5.199   3.688  1.3369  1.3703  0.5906
  164OSM   H11T18474   1.002   5.264   3.684  0.3042 -0.9671 -0.9522
  164OSM   C12S18475   1.126   5.379   3.813 -0.5551  0.0879  0.2978
  164OSM   H12S18476   1.047   5.456   3.823  0.8867  1.4118  2.4762
  164OSM   H12T18477   1.222   5.433   3.798  0.1824 -1.4736 -0.9964
  164OSM   C13S18478   1.119   5.299   3.943 -0.1413 -0.4241 -0.0060
  164OSM   H13S18479   1.189   5.214   3.925 -0.3126 -0.3078 -1.2965
  164OSM   H13T18480   1.015   5.260   3.951 -0.1950 -0.1146  0.9246
  164OSM   C14S18481   1.176   5.367   4.069  0.2599  0.1951 -0.4129
  164OSM   H14S18482   1.269   5.422   4.045  0.1182  0.5073 -0.2554
  164OSM   H14T18483   1.197   5.278   4.132  1.0911  0.5918 -0.1152
  164OSM   C15S18484   1.074   5.474   4.120 -0.3007  0.3582 -0.3460
  164OSM   H15S18485   0.985   5.408   4.132  0.5362 -1.4620 -3.1193
  164OSM   H15T18486   1.060   5.546   4.036  0.6463  0.0754 -0.7611
  164OSM   C16S18487   1.090   5.547   4.250 -0.4453 -0.1170  0.3911
  164OSM   H16S18488   1.141   5.645   4.241  0.7764 -0.7676 -0.1012
  164OSM   H16T18489   1.160   5.496   4.320  0.5258  1.4248  0.5966
  164OSM   C17S18490   0.954   5.584   4.317  0.4759  0.4366  0.5290
  164OSM   H17S18491   0.963   5.605   4.425  0.3194  0.6749  0.4972
  164OSM   H17T18492   0.873   5.512   4.297 -2.5631  3.7989 -0.3034
  164OSM   C18S18493   0.892   5.701   4.240 -0.8039 -0.0633 -0.1429
  164OSM   H18S18494   0.961   5.788   4.249 -0.1628 -0.6849  1.3136
  164OSM   H18T18495   0.797   5.724   4.292 -0.7628 -2.6336  1.2193
  164OSM   H18U18496   0.877   5.695   4.130 -0.9320 -0.1675 -0.1190
  164OSM    C1F18497   0.500   4.926   2.811 -0.4812  0.0054  0.2049
  164OSM     OF18498   0.540   4.810   2.795 -0.4141 -0.0323  0.4161
  164OSM    C2F18499   0.360   4.970   2.858 -0.2193 -0.8923 -0.7649
  164OSM    H2F18500   0.288   4.963   2.774 -2.7650  1.3119  1.0669
  164OSM    H2G18501   0.363   5.077   2.887 -1.8417 -1.4436  1.8049
  164OSM    C3F18502   0.296   4.888   2.976  0.6631  0.0160 -0.8849
  164OSM    H3F18503   0.288   4.778   2.957  0.9557 -0.3638  0.9641
  164OSM    H3G18504   0.192   4.928   2.979  1.1923  1.8347 -3.3232
  164OSM    C4F18505   0.367   4.905   3.113  0.8117  1.1827 -0.1378
  164OSM    H4F18506   0.462   4.848   3.116  1.1927  1.8493  1.2072
  164OSM    H4G18507   0.298   4.864   3.190  1.0819 -1.2520 -1.1304
  164OSM    C5F18508   0.405   5.048   3.140 -0.2807 -0.0973 -0.5717
  164OSM    H5F18509   0.321   5.118   3.121 -1.6470 -0.7284  2.5977
  164OSM    H5G18510   0.493   5.088   3.085  0.4640  1.9491  1.9673
  164OSM    C6F18511   0.444   5.058   3.289 -0.6404 -0.0293  0.4922
  164OSM    H6F18512   0.510   4.972   3.309 -1.2937 -0.2116  2.0420
  164OSM    H6G18513   0.353   5.046   3.353 -0.3201  0.0669  0.9768
  164OSM    C7F18514   0.514   5.200   3.321  0.1627 -0.6454 -0.0246
  164OSM    H7F18515   0.447   5.284   3.294 -1.7250 -1.8324  0.7364
  164OSM    H7G18516   0.608   5.208   3.263  0.4851  0.9193  0.6702
  164OSM    C8F18517   0.567   5.209   3.463 -0.6135  0.5871  0.3002
  164OSM    H8F18518   0.642   5.291   3.473 -0.9009  0.6210  2.9852
  164OSM    H8G18519   0.618   5.111   3.475 -0.4000  0.3075 -2.2658
  164OSM    C9F18520   0.458   5.224   3.566  0.5230  0.3991 -0.1997
  164OSM    H9F18521   0.382   5.144   3.576  0.2577  0.8728  2.2473
  164OSM   C10F18522   0.448   5.321   3.656 -0.1351 -0.6101 -0.6746
  164OSM   H10F18523   0.375   5.329   3.738  1.6969 -1.4386  1.1292
  164OSM   C11F18524   0.554   5.438   3.677  0.0918 -0.1241 -0.6427
  164OSM   H11F18525   0.539   5.516   3.600 -3.0871  1.9024  1.8126
  164OSM   H11G18526   0.657   5.396   3.666 -0.0593 -0.5607 -0.3910
  164OSM   C12F18527   0.538   5.503   3.815  0.3139 -0.0534 -0.2308
  164OSM   H12F18528   0.434   5.542   3.824  0.6391  0.4518  1.8805
  164OSM   H12G18529   0.601   5.595   3.814 -0.5769  0.5676 -0.5290
  164OSM   C13F18530   0.578   5.408   3.925  0.1222  0.0020  0.5685
  164OSM   H13F18531   0.687   5.390   3.913 -0.4048 -2.1047 -1.8634
  164OSM   H13G18532   0.523   5.313   3.910 -3.1168  2.1661 -2.8626
  164OSM   C14F18533   0.548   5.460   4.061 -0.6894 -0.5124  0.1179
  164OSM   H14F18534   0.439   5.454   4.081 -1.0527  1.9930 -0.7809
  164OSM   H14G18535   0.580   5.567   4.063  0.8780 -0.9583  0.2485
  164OSM   C15F18536   0.619   5.381   4.174 -1.0210 -0.1946  0.2939
  164OSM   H15F18537   0.726   5.409   4.172 -1.3900  1.3480  0.5292
  164OSM   H15G18538   0.599   5.275   4.149 -0.6875  0.2780 -2.2009
  164OSM   C16F18539   0.567   5.417   4.307  0.8187  0.2762 -0.1438
  164OSM   H16F18540   0.458   5.393   4.306  0.3989  2.0715 -1.0457
  164OSM   H16G18541   0.569   5.527   4.320 -0.2811  0.2603  0.2764
  164OSM   C17F18542   0.651   5.351   4.416 -0.0595  0.2070  0.6260
  164OSM   H17F18543   0.737   5.417   4.439  1.4390 -1.1207 -0.9192
  164OSM   H17G18544   0.693   5.256   4.377  0.9306  0.6343  0.6309
  164OSM   C18F18545   0.583   5.349   4.554  0.0052 -0.2505 -0.1433
  164OSM   H18F18546   0.559   5.453   4.586  2.8729  0.6019 -0.4834
  164OSM   H18G18547   0.658   5.323   4.632 -0.8751  2.3005  1.6954
  164OSM   H18H18548   0.498   5.277   4.561  1.6955 -2.5669 -1.8458
  165SAPS     N18549   4.811   3.154   6.789  0.0322 -0.4969 -0.4117
  165SAPS   HN118550   4.807   3.177   6.688  1.5244  1.7157 -0.0349
  165SAPS   HN218551   4.892   3.092   6.812  0.9564  1.0187  0.6553
  165SAPS   HN318552   4.725   3.116   6.834 -1.4675  0.1260 -2.5920
  165SAPS   C1218553   4.848   3.284   6.852  0.2371 -0.3484 -0.4349
  165SAPS  H12A18554   4.777   3.356   6.813 -2.3710 -1.9798  0.9635
  165SAPS   C1318555   4.846   3.287   7.005  0.0972  0.5653 -0.2959
  165SAPS  O13A18556   4.863   3.171   7.059 -0.1480  0.7563 -1.0435
  165SAPS  O13B18557   4.860   3.391   7.076  0.0953  0.0667  0.0453
  165SAPS   C1118558   4.986   3.331   6.806 -0.4354  0.1062  0.1880
  165SAPS  H11A18559   5.049   3.252   6.851  0.2609 -0.0183 -0.9786
  165SAPS  H11B18560   5.026   3.421   6.858  0.1826 -0.6940  1.1260
  165SAPS     P18561   5.002   3.453   6.576  0.1945  0.2080  0.3642
  165SAPS   O1318562   4.872   3.517   6.604  0.5566 -0.0701  0.2270
  165SAPS   O1418563   5.124   3.528   6.594  0.2643 -0.7315 -0.0184
  165SAPS   O1218564   5.014   3.324   6.665 -0.0228 -0.5592  0.7189
  165SAPS   O1118565   4.998   3.397   6.425  0.1728 -0.7175 -0.3144
  165SAPS    C118566   5.005   3.263   6.387  0.5633  0.4590 -0.8662
  165SAPS    HA18567   5.082   3.207   6.445 -0.4434 -1.2023 -1.0782
  165SAPS    HB18568   4.910   3.208   6.406 -0.4445  2.2245 -0.5496
  165SAPS    C218569   5.021   3.245   6.232 -0.0923  0.1870 -0.1361
  165SAPS    HS18570   5.027   3.138   6.204  1.4043  0.8058 -2.3672
  165SAPS   O2118571   5.142   3.311   6.179  0.2039  0.7049 -0.4390
  165SAPS   C2118572   5.257   3.263   6.215  0.5098 -0.6113 -0.0884
  165SAPS   O2218573   5.282   3.177   6.298  0.4180  0.1605  0.5889
  165SAPS   C2218574   5.366   3.328   6.131 -1.4601  0.2523  0.3974
  165SAPS   H2R18575   5.324   3.426   6.100 -2.7088 -0.0674  1.0200
  165SAPS   H2S18576   5.453   3.348   6.197  0.2910 -0.8102 -1.4720
  165SAPS    C318577   4.894   3.309   6.169 -0.0028  0.0573 -0.3310
  165SAPS    HX18578   4.873   3.417   6.186 -0.0625  0.1544 -0.9840
  165SAPS    HY18579   4.812   3.254   6.219  1.9573 -3.0629 -0.2766
  165SAPS   O3118580   4.890   3.293   6.026  0.1459 -0.1978  0.4854
  165SAPS   C3118581   4.955   3.391   5.956  0.0657 -0.1788 -0.2024
  165SAPS   O3218582   5.013   3.479   6.014 -0.1206 -0.1312  0.3636
  165SAPS   C3218583   4.938   3.361   5.814 -0.3315 -0.2947  0.5789
  165SAPS   H2X18584   4.998   3.269   5.797  1.3043  0.4608  1.9223
  165SAPS   H2Y18585   4.987   3.441   5.755 -0.2475 -0.5175  0.3436
  165SAPS   C2318586   5.417   3.255   6.003  0.0468  0.1089  0.6588
  165SAPS   H3R18587   5.442   3.155   6.044 -0.5613  0.2903  1.5026
  165SAPS   H3S18588   5.516   3.298   5.977  0.1991 -0.4960  0.2111
  165SAPS   C2418589   5.307   3.251   5.896  0.0532 -0.2429  0.4106
  165SAPS   H4R18590   5.287   3.356   5.866  1.9693 -0.3085 -1.3733
  165SAPS   H4S18591   5.222   3.216   5.958  0.1890  1.2640  1.4918
  165SAPS   C2518592   5.328   3.169   5.773 -0.0144  0.2311 -0.8554
  165SAPS   H5R18593   5.334   3.061   5.795 -0.4575  0.4393  0.3876
  165SAPS   C2618594   5.332   3.214   5.646 -1.1345 -0.0224 -0.7011
  165SAPS   H6R18595   5.341   3.148   5.559  0.8042  0.0009 -0.5723
  165SAPS   C2718596   5.313   3.360   5.612 -0.1713 -0.1166 -0.1592
  165SAPS   H7R18597   5.245   3.401   5.689  1.0657  0.0067  0.8951
  165SAPS   H7S18598   5.267   3.354   5.511  0.8205 -1.7173 -0.5563
  165SAPS   C2818599   5.432   3.452   5.607 -0.1859  0.9584 -0.0099
  165SAPS   H8R18600   5.511   3.443   5.683  0.0313  1.7255 -0.1380
  165SAPS   C2918601   5.441   3.558   5.529  1.1960 -0.2189  0.5383
  165SAPS   H9R18602   5.537   3.611   5.521  0.9869  0.0817  0.0033
  165SAPS  C21018603   5.340   3.605   5.422  0.4531  0.6740  0.4987
  165SAPS  H10R18604   5.242   3.556   5.441  1.8676 -1.4008  2.9273
  165SAPS  H10S18605   5.373   3.589   5.317 -0.6969  0.6929  0.1256
  165SAPS  C21118606   5.340   3.754   5.439 -0.4135 -0.0122 -0.2786
  165SAPS  H11R18607   5.337   3.790   5.543  1.0235  0.6187 -0.4330
  165SAPS  C21218608   5.353   3.847   5.341  0.6478 -0.7389 -0.4336
  165SAPS  H12R18609   5.310   3.944   5.370 -3.3476 -2.5653  0.5332
  165SAPS  C21318610   5.358   3.835   5.182  0.1328 -0.4794 -0.3713
  165SAPS  H13R18611   5.426   3.746   5.178  0.7243  0.0077 -2.4073
  165SAPS  H13S18612   5.423   3.916   5.143 -0.8417  1.1194  1.2303
  165SAPS  C21418613   5.231   3.812   5.105  0.5020  0.1950 -0.3080
  165SAPS  H14R18614   5.154   3.753   5.158 -0.6925  1.6971 -0.3149
  165SAPS  C21518615   5.204   3.871   4.984 -0.3585  0.1573  0.3716
  165SAPS  H15R18616   5.113   3.840   4.931 -0.0356 -0.3247  0.0975
  165SAPS  C21618617   5.291   3.959   4.900 -0.5792 -0.6556 -0.1236
  165SAPS  H16R18618   5.379   4.009   4.945 -0.6322 -1.4674  0.9263
  165SAPS  H16S18619   5.223   4.034   4.853 -0.8011 -0.3343  0.6967
  165SAPS  C21718620   5.361   3.880   4.785  0.6214 -0.2423  0.5555
  165SAPS  H17R18621   5.397   3.966   4.724 -2.3406  0.3592 -0.5572
  165SAPS  H17S18622   5.301   3.822   4.712  1.5394  0.7003 -1.0004
  165SAPS  C21818623   5.471   3.783   4.816 -0.2671 -0.2833 -0.1316
  165SAPS  H18R18624   5.503   3.737   4.720  0.5830 -0.4171  0.2030
  165SAPS  H18S18625   5.429   3.701   4.879 -0.4571 -0.2908 -0.2681
  165SAPS  C21918626   5.594   3.847   4.888  0.1742  0.2316  0.3399
  165SAPS  H19R18627   5.561   3.897   4.981  2.0684  1.2062  0.5229
  165SAPS  H19S18628   5.626   3.934   4.827 -0.1206 -0.7393 -1.2610
  165SAPS  C22018629   5.708   3.750   4.918 -0.0857 -0.7257 -0.8219
  165SAPS  H20R18630   5.760   3.739   4.820 -1.2378  2.7451 -1.9841
  165SAPS  H20S18631   5.674   3.651   4.956 -0.7458 -0.0555  0.4159
  165SAPS  H20T18632   5.777   3.802   4.988 -0.5321  5.5332 -4.3272
  165SAPS   C3318633   4.786   3.351   5.774 -0.4559 -0.2158  0.1872
  165SAPS   H3X18634   4.744   3.450   5.802 -1.6709 -0.9639  1.0626
  165SAPS   H3Y18635   4.728   3.269   5.819  0.1378 -0.4309  0.5776
  165SAPS   C3418636   4.768   3.337   5.621 -0.6975  1.0922 -0.0111
  165SAPS   H4X18637   4.798   3.232   5.598 -2.3790  0.5666 -0.0296
  165SAPS   H4Y18638   4.830   3.406   5.561 -0.4797  0.8922 -0.0189
  165SAPS   C3518639   4.622   3.362   5.583  0.3621 -0.3832  0.5719
  165SAPS   H5X18640   4.587   3.464   5.609 -1.2254 -0.9106  0.6539
  165SAPS   H5Y18641   4.559   3.282   5.628  0.4777 -1.1996 -0.6584
  165SAPS   C3618642   4.610   3.355   5.423  0.3872 -1.5225  0.1923
  165SAPS   H6X18643   4.650   3.255   5.395  0.2289 -0.9866 -2.1468
  165SAPS   H6Y18644   4.680   3.429   5.377  1.2291 -2.1947  0.3663
  165SAPS   C3718645   4.466   3.385   5.363  0.0844 -0.3905  0.0577
  165SAPS   H7X18646   4.435   3.488   5.390  1.4014  0.0544 -0.0625
  165SAPS   H7Y18647   4.394   3.317   5.414 -1.5179  0.7890 -0.5414
  165SAPS   C3818648   4.454   3.375   5.208  0.4756  0.3210 -0.4693
  165SAPS   H8X18649   4.500   3.283   5.166  0.6473  1.4335 -2.8680
  165SAPS   H8Y18650   4.514   3.457   5.163  0.0415  0.6594 -0.4333
  165SAPS   C3918651   4.305   3.379   5.152 -0.7521  0.1655 -0.1743
  165SAPS   H9X18652   4.303   3.401   5.044 -1.8864 -0.7483 -0.3639
  165SAPS   H9Y18653   4.246   3.449   5.215 -2.9488 -0.7984 -1.0683
  165SAPS  C31018654   4.227   3.240   5.173 -0.4815 -0.5588  0.0020
  165SAPS  H10X18655   4.222   3.237   5.284 -1.1296  0.9855  0.0377
  165SAPS  H10Y18656   4.288   3.163   5.121 -0.0747  0.6573 -1.3865
  165SAPS  C31118657   4.083   3.231   5.127  0.0675 -0.0868  0.1368
  165SAPS  H11X18658   4.084   3.287   5.031  0.0347 -0.9454 -0.3786
  165SAPS  H11Y18659   4.015   3.276   5.203 -0.4885 -1.2344  0.3580
  165SAPS  C31218660   4.035   3.084   5.101  0.7520 -0.4156 -0.8810
  165SAPS  H12X18661   4.081   3.039   5.191 -0.0133  0.6482  0.0710
  165SAPS  H12Y18662   4.082   3.041   5.010  1.2681  0.0992 -0.8645
  165SAPS  C31318663   3.889   3.051   5.098 -0.2239 -0.0359 -1.1444
  165SAPS  H13X18664   3.893   2.941   5.087 -0.1732  0.0571 -2.1652
  165SAPS  H13Y18665   3.835   3.093   5.011  2.4048  1.3940 -2.2026
  165SAPS  C31418666   3.811   3.080   5.228 -0.6840 -0.7754 -0.1201
  165SAPS  H14X18667   3.803   3.190   5.237 -0.0731 -0.8221  1.3351
  165SAPS  H14Y18668   3.875   3.034   5.307 -1.6969 -1.4409  0.3328
  165SAPS  C31518669   3.670   3.022   5.237  0.2539 -0.6045  0.2454
  165SAPS  H15X18670   3.666   2.913   5.216 -0.4051 -0.5876  0.2444
  165SAPS  H15Y18671   3.603   3.077   5.168  0.2681  1.4914  1.8125
  165SAPS  C31618672   3.606   3.058   5.372  0.1467 -0.8414  0.1468
  165SAPS  H16X18673   3.624   3.167   5.381  0.4106 -0.7172 -1.5280
  165SAPS  H16Y18674   3.662   2.989   5.440 -1.2172 -4.0425 -1.7493
  165SAPS  C31718675   3.452   3.046   5.387 -0.6689 -0.0143  0.0150
  165SAPS  H17X18676   3.406   3.106   5.305  1.0438  0.0851 -0.9142
  165SAPS  H17Y18677   3.436   3.084   5.490  1.6652 -1.1893  0.9004
  165SAPS  C31818678   3.415   2.899   5.381  0.3616 -0.0693 -0.6613
  165SAPS  H18X18679   3.455   2.851   5.473  1.4301  1.2479 -0.4029
  165SAPS  H18Y18680   3.429   2.846   5.284 -1.6887 -1.7530 -0.1008
  165SAPS  H18Z18681   3.306   2.887   5.397  0.3600 -1.4257 -1.5177
  166SAPS     N18682   3.381   4.060   7.398 -0.0976 -0.0790 -0.1648
  166SAPS   HN118683   3.462   4.112   7.359 -1.9693  2.7757 -0.6210
  166SAPS   HN218684   3.299   4.071   7.335 -0.0153  0.0401 -0.2523
  166SAPS   HN318685   3.364   4.114   7.485  1.2906  1.3872 -0.7491
  166SAPS   C1218686   3.420   3.915   7.424 -0.1026  0.0466 -0.0065
  166SAPS  H12A18687   3.520   3.927   7.462 -0.5317  1.7232  0.6470
  166SAPS   C1318688   3.342   3.853   7.541 -0.6144  0.0825  0.7701
  166SAPS  O13A18689   3.270   3.921   7.624  0.5747 -0.1530 -0.3811
  166SAPS  O13B18690   3.373   3.734   7.564 -0.3085  0.2389 -0.4417
  166SAPS   C1118691   3.426   3.829   7.295 -0.6064 -0.0348 -0.4424
  166SAPS  H11A18692   3.320   3.808   7.268 -1.0544 -1.9282  2.3416
  166SAPS  H11B18693   3.465   3.729   7.325  2.1737  0.8247 -0.9748
  166SAPS     P18694   3.663   3.846   7.186  0.3099  0.0064  0.0472
  166SAPS   O1318695   3.742   3.916   7.081  0.0352 -0.3263 -0.0719
  166SAPS   O1418696   3.718   3.844   7.324  0.5257  0.2629 -0.3670
  166SAPS   O1218697   3.507   3.888   7.189  0.1221 -0.3412 -0.1400
  166SAPS   O1118698   3.662   3.697   7.136 -0.3716 -0.0137  0.1735
  166SAPS    C118699   3.565   3.645   7.041 -0.1995 -0.1510 -0.4496
  166SAPS    HA18700   3.556   3.535   7.055  1.6290 -0.1882  0.6752
  166SAPS    HB18701   3.465   3.682   7.073  0.7642  0.6639  1.8928
  166SAPS    C218702   3.594   3.685   6.889  0.3635  0.2828 -0.4454
  166SAPS    HS18703   3.704   3.672   6.878  0.1607 -2.2727  0.0641
  166SAPS   O2118704   3.552   3.823   6.854  0.5884  0.1616  0.1682
  166SAPS   C2118705   3.642   3.884   6.771 -0.4967  0.3697 -0.8149
  166SAPS   O2218706   3.750   3.837   6.737  0.2712 -0.0486 -0.0260
  166SAPS   C2218707   3.594   4.021   6.723  1.1264 -0.2554  0.1393
  166SAPS   H2R18708   3.485   4.021   6.702  1.1549 -0.4803 -0.0134
  166SAPS   H2S18709   3.615   4.087   6.810  1.4228  1.4407 -1.1699
  166SAPS    C318710   3.545   3.575   6.793  0.8044 -1.0179  0.0321
  166SAPS    HX18711   3.438   3.549   6.806  0.1465  0.6567 -1.4913
  166SAPS    HY18712   3.612   3.487   6.802  3.3705  0.9945  2.2891
  166SAPS   O3118713   3.565   3.624   6.654  0.3991 -0.5542 -0.1226
  166SAPS   C3118714   3.462   3.610   6.573  0.5421 -0.3124 -0.3539
  166SAPS   O3218715   3.346   3.574   6.605  0.0282 -0.1759 -0.0824
  166SAPS   C3218716   3.508   3.650   6.437 -0.6482  0.1731  0.4820
  166SAPS   H2X18717   3.585   3.583   6.393 -0.5289  1.9238 -2.2601
  166SAPS   H2Y18718   3.542   3.756   6.443  2.5777 -0.7408  0.1710
  166SAPS   C2318719   3.671   4.081   6.595  0.7199  0.2356 -0.2511
  166SAPS   H3R18720   3.643   4.189   6.593 -1.5523 -0.1856  2.4263
  166SAPS   H3S18721   3.634   4.018   6.511 -0.1069 -1.0148  1.0109
  166SAPS   C2418722   3.824   4.084   6.609 -0.0186  0.0404  0.2007
  166SAPS   H4R18723   3.850   3.982   6.574  0.8699 -0.1862  1.4503
  166SAPS   H4S18724   3.860   4.093   6.713  2.0740  3.6489 -0.6605
  166SAPS   C2518725   3.902   4.173   6.511  0.4621 -0.1279 -0.4481
  166SAPS   H5R18726   3.927   4.275   6.542 -0.7257  0.6099 -1.8064
  166SAPS   C2618727   3.935   4.147   6.378  0.4403 -0.7453 -0.1345
  166SAPS   H6R18728   3.992   4.222   6.322  1.9077 -1.2663  0.5938
  166SAPS   C2718729   3.888   4.028   6.304 -0.5647 -0.4423 -0.1529
  166SAPS   H7R18730   3.869   3.935   6.361 -1.0144 -0.6132 -0.5745
  166SAPS   H7S18731   3.969   4.006   6.231  1.0928  1.2796  1.0597
  166SAPS   C2818732   3.756   4.054   6.236  0.0365 -0.2923 -0.3510
  166SAPS   H8R18733   3.699   4.144   6.262  0.2995  0.1296 -1.2172
  166SAPS   C2918734   3.682   3.970   6.160 -0.1999  0.0953  0.9853
  166SAPS   H9R18735   3.589   4.012   6.120  0.4680  0.4078 -0.3134
  166SAPS  C21018736   3.733   3.831   6.115 -0.1629  0.4430 -0.5941
  166SAPS  H10R18737   3.653   3.766   6.074  0.2566  0.3985 -1.3654
  166SAPS  H10S18738   3.769   3.779   6.206  0.2123 -0.0851 -1.0354
  166SAPS  C21118739   3.844   3.825   6.013  0.3485 -0.6092 -0.2544
  166SAPS  H11R18740   3.940   3.825   6.066 -1.6395  1.0555  3.7522
  166SAPS  C21218741   3.830   3.825   5.878 -0.4007  0.3592  0.0368
  166SAPS  H12R18742   3.924   3.830   5.822 -0.5533  0.5662 -0.2008
  166SAPS  C21318743   3.708   3.827   5.788  0.4136  0.6953  0.2117
  166SAPS  H13R18744   3.616   3.828   5.850  1.2107 -0.2083  1.4445
  166SAPS  H13S18745   3.710   3.734   5.726 -0.6007  1.7843 -1.5371
  166SAPS  C21418746   3.715   3.955   5.710  0.1557 -0.4090  0.7210
  166SAPS  H14R18747   3.723   4.045   5.772  0.8454  0.8439 -1.1261
  166SAPS  C21518748   3.739   3.971   5.580  0.8167 -0.2846 -0.5981
  166SAPS  H15R18749   3.749   4.069   5.531 -0.9973 -0.6219 -1.7439
  166SAPS  C21618750   3.769   3.863   5.481  0.3863  0.7813 -1.3563
  166SAPS  H16R18751   3.707   3.877   5.391 -0.1804 -0.3050 -1.1538
  166SAPS  H16S18752   3.747   3.767   5.534  2.9196  1.4978  1.2919
  166SAPS  C21718753   3.918   3.846   5.439  0.3698  0.3051  1.0722
  166SAPS  H17R18754   3.978   3.824   5.530  1.7721 -0.2598  0.0579
  166SAPS  H17S18755   3.955   3.946   5.409 -2.2171  1.0437  0.0727
  166SAPS  C21818756   3.945   3.753   5.316 -0.1167  0.1650 -0.6801
  166SAPS  H18R18757   4.054   3.740   5.301 -0.1801 -2.5732  0.4910
  166SAPS  H18S18758   3.918   3.814   5.227  1.5358  1.3520 -0.4167
  166SAPS  C21918759   3.876   3.624   5.311 -0.4070  0.7007  0.3073
  166SAPS  H19R18760   3.768   3.636   5.288  0.0013  2.2438 -0.9614
  166SAPS  H19S18761   3.879   3.566   5.406  0.2682  1.7276  0.9331
  166SAPS  C22018762   3.927   3.544   5.195  0.0902  0.9893  0.0870
  166SAPS  H20R18763   3.945   3.595   5.098  1.6939 -2.8806 -1.8694
  166SAPS  H20S18764   3.860   3.457   5.176 -1.8900  2.7663 -1.6063
  166SAPS  H20T18765   4.032   3.515   5.218  0.5095 -0.1163 -2.7249
  166SAPS   C3318766   3.393   3.635   6.328  0.1323  0.2137  0.4292
  166SAPS   H3X18767   3.343   3.540   6.358  1.6232 -0.0631  2.2448
  166SAPS   H3Y18768   3.443   3.618   6.230 -1.6180 -0.7285 -0.3554
  166SAPS   C3418769   3.290   3.755   6.325 -0.1062 -0.0991  0.3059
  166SAPS   H4X18770   3.349   3.842   6.288 -3.1565  1.5366 -1.0318
  166SAPS   H4Y18771   3.250   3.773   6.427  1.8507  0.8080  0.9675
  166SAPS   C3518772   3.165   3.728   6.235  0.3727  0.1747 -0.2954
  166SAPS   H5X18773   3.099   3.817   6.239 -0.2563 -0.2938 -0.1227
  166SAPS   H5Y18774   3.114   3.639   6.277 -1.1292  0.8996 -0.4995
  166SAPS   C3618775   3.200   3.691   6.090 -0.1379 -0.1808  0.3939
  166SAPS   H6X18776   3.299   3.730   6.060 -1.1943 -0.0156 -3.3436
  166SAPS   H6Y18777   3.131   3.753   6.029  0.5605  2.3297  1.9940
  166SAPS   C3718778   3.197   3.536   6.066  1.2509  0.2970  0.1747
  166SAPS   H7X18779   3.088   3.518   6.052  1.3091  1.2456 -1.9576
  166SAPS   H7Y18780   3.234   3.481   6.155 -0.7461 -0.4368  0.6003
  166SAPS   C3818781   3.260   3.499   5.932 -0.1520  0.1275  0.9209
  166SAPS   H8X18782   3.210   3.543   5.843 -0.5392 -3.3244 -0.7335
  166SAPS   H8Y18783   3.243   3.392   5.908 -0.1902  0.5237 -0.9591
  166SAPS   C3918784   3.410   3.519   5.931  0.4418  0.0518  0.5697
  166SAPS   H9X18785   3.452   3.461   6.016  0.6361 -1.1945 -0.3665
  166SAPS   H9Y18786   3.447   3.624   5.937 -0.2020  0.2146  2.4735
  166SAPS  C31018787   3.461   3.461   5.797 -0.5001  0.3832  0.1125
  166SAPS  H10X18788   3.426   3.522   5.712  1.7931  0.6853 -0.6832
  166SAPS  H10Y18789   3.426   3.355   5.798 -1.4627  0.6836  1.3041
  166SAPS  C31118790   3.609   3.450   5.813 -0.0149 -0.1910 -0.1363
  166SAPS  H11X18791   3.644   3.377   5.889  0.2572 -0.1298 -0.2015
  166SAPS  H11Y18792   3.650   3.549   5.839  0.4163 -1.2043  3.5062
  166SAPS  C31218793   3.674   3.411   5.679  0.2450 -0.1040  0.5810
  166SAPS  H12X18794   3.655   3.498   5.612 -0.7597  0.3125  1.3851
  166SAPS  H12Y18795   3.643   3.313   5.637  2.0808 -0.3357 -0.3418
  166SAPS  C31318796   3.830   3.403   5.670 -0.5112 -0.7451 -0.0907
  166SAPS  H13X18797   3.878   3.502   5.689 -0.2352 -1.1488  1.4656
  166SAPS  H13Y18798   3.851   3.361   5.570 -1.2917 -0.8712 -0.2054
  166SAPS  C31418799   3.890   3.324   5.781  0.1608  0.6473  0.2293
  166SAPS  H14X18800   3.839   3.229   5.808  0.7417  0.1918 -0.2541
  166SAPS  H14Y18801   3.871   3.398   5.863  4.3032  0.8812  1.1705
  166SAPS  C31518802   4.042   3.311   5.755  0.0534 -1.2124  0.0002
  166SAPS  H15X18803   4.104   3.296   5.845 -0.1541 -4.4195 -0.2891
  166SAPS  H15Y18804   4.080   3.405   5.708  0.6115 -1.3560  0.1615
  166SAPS  C31618805   4.083   3.198   5.663 -0.0479  0.6868  0.1900
  166SAPS  H16X18806   4.027   3.192   5.567  0.8735 -1.6240 -0.2693
  166SAPS  H16Y18807   4.044   3.103   5.706 -0.9041  0.0831 -1.8046
  166SAPS  C31718808   4.233   3.185   5.635 -0.6428  0.4957 -0.0985
  166SAPS  H17X18809   4.292   3.177   5.728  2.3435 -1.6832 -1.9842
  166SAPS  H17Y18810   4.272   3.267   5.570 -0.3655 -0.6673 -1.4449
  166SAPS  C31818811   4.253   3.054   5.565 -0.0612  0.4664 -0.5414
  166SAPS  H18X18812   4.206   3.048   5.465 -0.1993  0.0049 -0.4514
  166SAPS  H18Y18813   4.215   2.969   5.626  0.4186  0.0015 -0.8822
  166SAPS  H18Z18814   4.360   3.034   5.542  0.4585  1.2933  0.9968
  167SAPS     N18815   6.186   5.999   6.936 -0.0626 -0.6216 -0.1067
  167SAPS   HN118816   6.118   6.074   6.911 -2.2205 -1.5517  2.4390
  167SAPS   HN218817   6.198   5.934   6.855  0.0730  0.4588 -0.9744
  167SAPS   HN318818   6.153   5.954   7.024  0.7057  0.9830  1.0515
  167SAPS   C1218819   6.316   6.077   6.953 -0.5841  0.1954  0.0409
  167SAPS  H12A18820   6.334   6.102   7.057  1.7915  0.2449 -0.3396
  167SAPS   C1318821   6.448   6.023   6.899  0.0286 -0.5076  0.4775
  167SAPS  O13A18822   6.470   5.902   6.877 -0.2795  0.4875 -0.2378
  167SAPS  O13B18823   6.553   6.095   6.911  0.0451  0.0726 -0.2804
  167SAPS   C1118824   6.295   6.218   6.880 -0.2185 -0.4561  0.1415
  167SAPS  H11A18825   6.316   6.204   6.772  0.1024 -1.5774  0.3338
  167SAPS  H11B18826   6.356   6.301   6.923  0.5739 -0.0861 -1.5797
  167SAPS     P18827   6.108   6.395   6.817  0.0278  0.0008 -0.2681
  167SAPS   O1318828   5.963   6.418   6.845 -0.1667  0.2422 -0.0499
  167SAPS   O1418829   6.196   6.507   6.866 -0.2079 -0.2339  0.2416
  167SAPS   O1218830   6.155   6.255   6.890 -0.4040 -0.6127  0.1489
  167SAPS   O1118831   6.126   6.371   6.663 -0.2169  0.7791  0.1500
  167SAPS    C118832   6.073   6.256   6.593 -0.2081 -0.0464  0.4144
  167SAPS    HA18833   6.064   6.159   6.645 -1.0095 -0.1228  0.1419
  167SAPS    HB18834   5.969   6.277   6.560  0.5281  1.5063 -1.0995
  167SAPS    C218835   6.147   6.243   6.458 -0.4915  0.0214  0.4436
  167SAPS    HS18836   6.099   6.166   6.393 -1.7251  0.5159  0.7556
  167SAPS   O2118837   6.286   6.204   6.473  0.0294  0.5739 -0.0710
  167SAPS   C2118838   6.308   6.073   6.479 -0.1686 -0.1201  0.1536
  167SAPS   O2218839   6.222   5.986   6.483 -0.2036  0.2442  0.7693
  167SAPS   C2218840   6.459   6.045   6.488 -0.9914 -0.1097 -0.2508
  167SAPS   H2R18841   6.493   6.054   6.594 -4.2616 -0.6006  0.9495
  167SAPS   H2S18842   6.481   5.940   6.460  0.4766  0.0103  0.3453
  167SAPS    C318843   6.131   6.369   6.365  0.3127 -0.0650  0.0742
  167SAPS    HX18844   6.181   6.359   6.266  1.5348  1.8632  0.4365
  167SAPS    HY18845   6.177   6.461   6.407  0.9972 -0.2271 -0.2936
  167SAPS   O3118846   5.985   6.394   6.352 -0.2212 -0.2108  0.3353
  167SAPS   C3118847   5.931   6.344   6.240  0.2068  0.6497 -0.5247
  167SAPS   O3218848   5.991   6.277   6.158  0.3253 -0.4380 -0.4184
  167SAPS   C3218849   5.791   6.400   6.224  0.0341 -0.5483 -0.3668
  167SAPS   H2X18850   5.790   6.510   6.213  0.7290 -0.4508  0.4358
  167SAPS   H2Y18851   5.745   6.363   6.319  0.7198 -0.1177  0.1420
  167SAPS   C2318852   6.542   6.140   6.396  0.5934 -0.2864 -0.1992
  167SAPS   H3R18853   6.646   6.144   6.436  0.9448 -0.5297 -1.0684
  167SAPS   H3S18854   6.508   6.246   6.397 -0.7439 -0.6825 -1.2545
  167SAPS   C2418855   6.558   6.103   6.246  0.1976  0.2089 -0.2886
  167SAPS   H4R18856   6.582   5.997   6.223 -1.2829  0.0345 -1.1909
  167SAPS   H4S18857   6.655   6.144   6.211 -0.1041  0.1335 -1.2353
  167SAPS   C2518858   6.440   6.156   6.167 -0.7989 -0.7313  0.4475
  167SAPS   H5R18859   6.414   6.259   6.193  0.1293 -0.5946  0.8785
  167SAPS   C2618860   6.376   6.095   6.066  0.2475  0.0176 -0.2119
  167SAPS   H6R18861   6.309   6.166   6.014  1.4413  0.7100 -0.8438
  167SAPS   C2718862   6.400   5.961   5.999 -0.4255 -0.0175 -0.6103
  167SAPS   H7R18863   6.328   5.883   6.030 -0.4719 -0.1797 -1.1150
  167SAPS   H7S18864   6.500   5.919   6.025 -1.0401 -0.9687  0.2696
  167SAPS   C2818865   6.411   5.983   5.856 -0.5074  0.2227  0.9033
  167SAPS   H8R18866   6.514   6.001   5.821 -0.6409 -0.9026 -0.0996
  167SAPS   C2918867   6.309   5.970   5.768  0.5895 -0.6282  0.1713
  167SAPS   H9R18868   6.326   5.988   5.661  0.8356 -0.6346  0.2069
  167SAPS  C21018869   6.169   5.934   5.811  0.0432  0.5192  0.1541
  167SAPS  H10R18870   6.160   5.870   5.901  0.9858 -1.0139 -0.7766
  167SAPS  H10S18871   6.118   5.875   5.731  2.2791  1.5654 -2.1679
  167SAPS  C21118872   6.082   6.051   5.822  1.0279  0.3832 -0.5199
  167SAPS  H11R18873   6.077   6.101   5.919  0.2885 -0.3308 -0.1738
  167SAPS  C21218874   6.012   6.120   5.726 -0.4882  0.2800 -0.0755
  167SAPS  H12R18875   5.951   6.205   5.759  0.5434  0.5428  1.2431
  167SAPS  C21318876   6.003   6.069   5.587  0.2226  0.2454  0.0178
  167SAPS  H13R18877   5.929   5.987   5.589  1.7477 -1.1960 -0.0890
  167SAPS  H13S18878   6.092   6.015   5.546 -1.6116 -2.2326 -0.9445
  167SAPS  C21418879   5.959   6.170   5.478 -0.4080 -0.5552 -0.4982
  167SAPS  H14R18880   5.930   6.268   5.520  0.0875 -0.0790 -1.2289
  167SAPS  C21518881   5.954   6.148   5.344  0.4743 -0.1251 -0.5843
  167SAPS  H15R18882   5.922   6.230   5.276  1.9418  0.1148 -1.0168
  167SAPS  C21618883   5.987   6.025   5.263  0.5961  0.1504  0.1666
  167SAPS  H16R18884   5.897   5.987   5.209 -0.2703  1.0206  0.9556
  167SAPS  H16S18885   6.029   5.940   5.322 -0.0719 -1.2396 -1.2826
  167SAPS  C21718886   6.099   6.052   5.158  0.2802 -0.2060 -0.3487
  167SAPS  H17R18887   6.145   5.956   5.128  0.4605 -0.2562  0.0753
  167SAPS  H17S18888   6.187   6.099   5.208  0.5686  0.7885 -1.7298
  167SAPS  C21818889   6.064   6.121   5.029 -0.5393 -0.0775  0.1271
  167SAPS  H18R18890   6.011   6.217   5.047  1.1971  1.2548 -1.5527
  167SAPS  H18S18891   6.005   6.058   4.959 -0.4678 -1.2069  1.0567
  167SAPS  C21918892   6.190   6.154   4.948  0.3011 -0.0081  0.5477
  167SAPS  H19R18893   6.227   6.056   4.912 -0.9636 -1.0910  2.0654
  167SAPS  H19S18894   6.266   6.190   5.021 -1.1663  3.6198  0.5235
  167SAPS  C22018895   6.165   6.261   4.837 -0.4819  0.2883  0.8078
  167SAPS  H20R18896   6.109   6.342   4.888 -0.2177 -0.5656  2.5012
  167SAPS  H20S18897   6.096   6.218   4.761  2.3622 -3.3503 -0.0094
  167SAPS  H20T18898   6.265   6.295   4.801  0.9092  2.7148  6.0636
  167SAPS   C3318899   5.709   6.330   6.123  0.1011  0.4305 -0.1703
  167SAPS   H3X18900   5.604   6.361   6.140  0.4541  0.8978  1.3096
  167SAPS   H3Y18901   5.717   6.220   6.134 -0.7199  0.5158  1.5592
  167SAPS   C3418902   5.746   6.360   5.982 -0.0874 -0.7351 -0.3591
  167SAPS   H4X18903   5.834   6.295   5.964 -0.0564 -1.1161  1.0757
  167SAPS   H4Y18904   5.782   6.465   5.969  0.8448 -0.8755  0.9405
  167SAPS   C3518905   5.624   6.324   5.890  0.2607  0.7142 -1.0032
  167SAPS   H5X18906   5.537   6.383   5.923 -0.0423  0.0393 -0.5741
  167SAPS   H5Y18907   5.602   6.217   5.913  0.1995  1.0487  0.6180
  167SAPS   C3618908   5.649   6.331   5.741 -0.4585 -0.5732  0.5772
  167SAPS   H6X18909   5.723   6.257   5.704  0.7675  0.5940  0.5934
  167SAPS   H6Y18910   5.694   6.428   5.710 -1.0188 -0.6242 -0.4482
  167SAPS   C3718911   5.514   6.308   5.673  0.0429  0.2186 -0.1269
  167SAPS   H7X18912   5.465   6.407   5.661  1.6317  0.8744 -1.7140
  167SAPS   H7Y18913   5.454   6.241   5.738  1.8408 -1.8034 -0.4450
  167SAPS   C3818914   5.529   6.247   5.529  0.4958  0.4952 -0.3158
  167SAPS   H8X18915   5.541   6.138   5.543  1.8376  0.9292  2.7513
  167SAPS   H8Y18916   5.615   6.287   5.472  0.9777 -1.4570 -1.0479
  167SAPS   C3918917   5.400   6.258   5.439 -0.0630  0.5887 -0.2832
  167SAPS   H9X18918   5.362   6.357   5.405 -1.5996 -0.3005 -1.2815
  167SAPS   H9Y18919   5.314   6.231   5.504 -0.0550 -2.0822 -1.2532
  167SAPS  C31018920   5.389   6.159   5.331  0.8123 -0.1390  0.9259
  167SAPS  H10X18921   5.293   6.167   5.276  1.7628  0.7719 -0.7197
  167SAPS  H10Y18922   5.400   6.058   5.375  2.2866 -0.3259  0.1939
  167SAPS  C31118923   5.498   6.176   5.227  0.3530  0.5972 -0.1158
  167SAPS  H11X18924   5.585   6.139   5.286  0.9691  1.1364 -0.6690
  167SAPS  H11Y18925   5.506   6.280   5.191 -3.0935  0.6901 -0.8805
  167SAPS  C31218926   5.491   6.088   5.097 -0.2451  1.2295 -0.0210
  167SAPS  H12X18927   5.402   6.109   5.034 -0.5382 -1.4867 -0.6179
  167SAPS  H12Y18928   5.474   5.985   5.135  1.0134  1.0515  0.0978
  167SAPS  C31318929   5.620   6.088   5.012  0.2541  0.6072 -0.0591
  167SAPS  H13X18930   5.711   6.046   5.060  0.4154 -0.8671 -1.5582
  167SAPS  H13Y18931   5.639   6.185   4.962 -1.6428  0.9000 -0.3012
  167SAPS  C31418932   5.603   5.981   4.896  0.7799 -0.2105  0.2650
  167SAPS  H14X18933   5.494   5.964   4.879  1.0488 -2.7781  0.7586
  167SAPS  H14Y18934   5.643   5.885   4.934 -0.6794 -0.7043  0.6350
  167SAPS  C31518935   5.678   6.031   4.770 -0.5717  0.3016 -0.4274
  167SAPS  H15X18936   5.780   6.047   4.810 -1.2495  2.2023  0.6648
  167SAPS  H15Y18937   5.632   6.128   4.741 -1.3678 -0.1552 -0.7356
  167SAPS  C31618938   5.676   5.940   4.636 -0.0410 -0.0574  0.2793
  167SAPS  H16X18939   5.700   5.834   4.659  1.3083 -0.6143 -3.0583
  167SAPS  H16Y18940   5.752   5.966   4.559  2.3705 -4.1262  0.9578
  167SAPS  C31718941   5.536   5.947   4.571 -0.0200  0.2125 -0.6227
  167SAPS  H17X18942   5.554   5.984   4.467 -0.6866 -0.1347 -0.8694
  167SAPS  H17Y18943   5.484   6.029   4.624 -0.9462 -0.7058 -0.0702
  167SAPS  C31818944   5.451   5.820   4.563  0.0519 -0.0194 -0.5985
  167SAPS  H18X18945   5.370   5.852   4.495 -0.6504  0.9534  0.6491
  167SAPS  H18Y18946   5.403   5.801   4.662 -3.1311 -0.4305 -2.1122
  167SAPS  H18Z18947   5.508   5.727   4.539 -0.6839 -0.9571  1.0878
  168SAPS     N18948   5.648   3.724   6.897  0.3421 -0.6523 -0.2864
  168SAPS   HN118949   5.716   3.694   6.825  2.5248 -1.3733  1.9358
  168SAPS   HN218950   5.684   3.704   6.993 -0.5042  0.7957  0.3641
  168SAPS   HN318951   5.562   3.669   6.873  1.1289 -1.8128 -0.5468
  168SAPS   C1218952   5.634   3.871   6.896 -0.0698  0.5446 -0.5407
  168SAPS  H12A18953   5.549   3.906   6.953  0.4568  0.0003  0.6126
  168SAPS   C1318954   5.754   3.937   6.964  0.6215  0.2454  0.3220
  168SAPS  O13A18955   5.853   3.866   7.014 -0.2006 -0.1966 -0.1397
  168SAPS  O13B18956   5.756   4.061   6.959  0.2903  0.2610 -0.5582
  168SAPS   C1118957   5.615   3.913   6.746  0.3136 -0.5429 -0.0830
  168SAPS  H11A18958   5.686   3.860   6.680 -0.8658 -1.5796 -0.5719
  168SAPS  H11B18959   5.641   4.019   6.726  0.0674 -0.6196 -0.8424
  168SAPS     P18960   5.355   3.985   6.743  0.4073 -0.0941  0.1329
  168SAPS   O1318961   5.239   3.900   6.767  0.4442 -0.4459 -0.1114
  168SAPS   O1418962   5.380   4.067   6.863 -0.4333 -0.1600  0.4864
  168SAPS   O1218963   5.481   3.901   6.700 -0.5153 -0.0118  0.1781
  168SAPS   O1118964   5.324   4.080   6.624 -0.4478 -0.2915  0.0253
  168SAPS    C118965   5.397   4.071   6.502 -0.2008  1.2543  0.4251
  168SAPS    HA18966   5.502   4.107   6.514  0.4651 -0.8428  1.3646
  168SAPS    HB18967   5.417   3.963   6.482  0.8841  1.1417  1.9616
  168SAPS    C218968   5.330   4.141   6.382  0.1003  0.1926  0.5505
  168SAPS    HS18969   5.370   4.097   6.288 -0.9502 -1.7835  0.9679
  168SAPS   O2118970   5.347   4.284   6.385 -0.0261 -0.6044 -0.1306
  168SAPS   C2118971   5.467   4.327   6.362  0.1362 -0.1490  0.4233
  168SAPS   O2218972   5.564   4.261   6.336 -0.2169  0.2390 -0.8640
  168SAPS   C2218973   5.467   4.482   6.366  0.7834  0.1081  0.4908
  168SAPS   H2R18974   5.362   4.518   6.367  0.1699 -1.4411  3.7155
  168SAPS   H2S18975   5.499   4.508   6.470 -0.1249 -0.0449  0.8136
  168SAPS    C318976   5.179   4.113   6.373  0.2505  0.0896 -0.2919
  168SAPS    HX18977   5.141   4.131   6.476  2.8972  1.1602  0.5861
  168SAPS    HY18978   5.175   4.008   6.337 -0.2095  0.1647 -0.4768
  168SAPS   O3118979   5.110   4.193   6.271  0.4637  0.1030  1.0238
  168SAPS   C3118980   5.050   4.307   6.316 -0.1381  0.1283  0.5189
  168SAPS   O3218981   5.052   4.336   6.435  0.1242 -0.0083 -0.3508
  168SAPS   C3218982   5.016   4.403   6.199 -0.0538  0.7803  0.7796
  168SAPS   H2X18983   5.023   4.344   6.106 -1.9123  0.5096  0.7686
  168SAPS   H2Y18984   5.091   4.484   6.186 -0.3088  0.8476 -0.3337
  168SAPS   C2318985   5.556   4.551   6.259 -0.5907 -0.0446 -0.4605
  168SAPS   H3R18986   5.658   4.507   6.266 -0.6973 -0.1744  0.3871
  168SAPS   H3S18987   5.561   4.655   6.296 -1.5261  0.6648 -2.2287
  168SAPS   C2418988   5.507   4.555   6.117 -0.2471  0.0004  0.0701
  168SAPS   H4R18989   5.551   4.643   6.065 -0.3933 -0.1102 -0.2389
  168SAPS   H4S18990   5.399   4.579   6.107  0.0198  1.5529  0.5594
  168SAPS   C2518991   5.560   4.434   6.042  0.4431  0.0331  0.3046
  168SAPS   H5R18992   5.661   4.446   5.999  0.2249 -1.0922 -0.5866
  168SAPS   C2618993   5.488   4.325   6.010  0.3085 -0.6157  0.1162
  168SAPS   H6R18994   5.536   4.239   5.963  0.1839 -0.3462 -0.5175
  168SAPS   C2718995   5.339   4.306   6.057  0.2049 -0.3005  0.3785
  168SAPS   H7R18996   5.283   4.393   6.016  0.6324 -0.4579 -0.5656
  168SAPS   H7S18997   5.327   4.314   6.167 -1.4658 -0.3358  0.2192
  168SAPS   C2818998   5.282   4.172   6.011 -0.2900  0.2208  0.3407
  168SAPS   H8R18999   5.280   4.085   6.078 -2.4841 -0.1266 -0.0801
  168SAPS   C2919000   5.208   4.150   5.905 -0.3243 -0.3586 -0.9663
  168SAPS   H9R19001   5.160   4.054   5.880  0.7538 -1.1973  0.0552
  168SAPS  C21019002   5.180   4.262   5.801  0.4686  0.5712  0.4374
  168SAPS  H10R19003   5.244   4.350   5.822  0.6420  0.2696  1.1889
  168SAPS  H10S19004   5.074   4.294   5.805 -0.1053 -1.2406  0.8940
  168SAPS  C21119005   5.201   4.213   5.662 -0.0491 -0.3498  0.1957
  168SAPS  H11R19006   5.134   4.131   5.629 -1.0629  0.0417  1.1990
  168SAPS  C21219007   5.285   4.265   5.571 -0.3249 -0.1860  0.3517
  168SAPS  H12R19008   5.289   4.221   5.471  0.1828  0.3228  0.1391
  168SAPS  C21319009   5.386   4.366   5.597  0.2750  0.1884  0.5317
  168SAPS  H13R19010   5.366   4.439   5.679  1.3649  2.5419 -1.1583
  168SAPS  H13S19011   5.394   4.426   5.504  1.5839 -0.5260  0.1559
  168SAPS  C21419012   5.523   4.310   5.632  0.3090 -0.2244  0.3521
  168SAPS  H14R19013   5.520   4.228   5.705  0.8776  0.8804  1.6669
  168SAPS  C21519014   5.637   4.347   5.571 -0.1943  0.0999 -0.3409
  168SAPS  H15R19015   5.723   4.282   5.594 -0.3107  0.7611  2.1565
  168SAPS  C21619016   5.651   4.463   5.481  0.1494  0.1264  0.3204
  168SAPS  H16R19017   5.736   4.526   5.513  1.0537  0.1058 -1.8796
  168SAPS  H16S19018   5.563   4.531   5.477 -1.8810 -2.4005 -1.0909
  168SAPS  C21719019   5.668   4.413   5.341 -0.0969  0.1137  0.5636
  168SAPS  H17R19020   5.777   4.397   5.332  0.0083  0.6894  0.8076
  168SAPS  H17S19021   5.629   4.495   5.277  0.4683  0.3332  0.5021
  168SAPS  C21819022   5.591   4.286   5.294  0.4300  0.4091 -0.1579
  168SAPS  H18R19023   5.486   4.309   5.323 -0.9059 -2.2842 -2.4410
  168SAPS  H18S19024   5.633   4.201   5.352  1.5814  1.2301  0.2342
  168SAPS  C21919025   5.594   4.256   5.153  0.5161 -0.3866  0.6270
  168SAPS  H19R19026   5.548   4.338   5.093  1.8555 -0.7226 -0.9568
  168SAPS  H19S19027   5.541   4.160   5.135  1.1066 -0.3279 -1.8454
  168SAPS  C22019028   5.737   4.248   5.089  0.1929 -0.2385  0.2656
  168SAPS  H20R19029   5.741   4.228   4.980 -0.2254 -0.5362  0.3001
  168SAPS  H20S19030   5.793   4.164   5.135 -0.0101 -0.1874  0.6047
  168SAPS  H20T19031   5.779   4.348   5.109 -2.1411  0.4229  2.4000
  168SAPS   C3319032   4.881   4.484   6.217 -0.0951  0.0538 -0.8891
  168SAPS   H3X19033   4.890   4.542   6.312 -2.3834 -0.7426 -0.1192
  168SAPS   H3Y19034   4.798   4.412   6.228 -1.4507  1.6503 -0.0924
  168SAPS   C3419035   4.845   4.588   6.108 -0.2824  0.0722 -0.0942
  168SAPS   H4X19036   4.915   4.673   6.095 -2.0925  1.5091 -0.7521
  168SAPS   H4Y19037   4.748   4.638   6.130 -0.6202 -1.2144  1.6205
  168SAPS   C3519038   4.828   4.516   5.975  0.1590 -0.5154 -0.6109
  168SAPS   H5X19039   4.737   4.452   5.972  0.9529 -2.2354  3.8645
  168SAPS   H5Y19040   4.915   4.450   5.955 -0.8725 -1.8844 -0.6969
  168SAPS   C3619041   4.801   4.613   5.862  0.0350 -0.6229  0.0076
  168SAPS   H6X19042   4.890   4.675   5.836 -1.5084  1.2202 -1.0945
  168SAPS   H6Y19043   4.737   4.693   5.903  1.8277 -0.2017  2.1745
  168SAPS   C3719044   4.768   4.545   5.730 -0.2127 -0.4775 -0.0191
  168SAPS   H7X19045   4.702   4.616   5.675 -0.4715  0.5767  1.5754
  168SAPS   H7Y19046   4.729   4.443   5.752  0.9768 -1.2267 -1.2629
  168SAPS   C3819047   4.884   4.549   5.627  0.2051  0.3557 -0.2855
  168SAPS   H8X19048   4.980   4.511   5.668  1.6933  1.8572 -2.1844
  168SAPS   H8Y19049   4.897   4.656   5.602  0.5492  0.6011  0.8800
  168SAPS   C3919050   4.878   4.469   5.501 -0.1814  0.4384 -0.3267
  168SAPS   H9X19051   4.789   4.498   5.442 -0.1174  1.8769  0.2511
  168SAPS   H9Y19052   4.887   4.361   5.525  0.1472  0.4256 -0.5111
  168SAPS  C31019053   4.988   4.501   5.406 -0.1428  0.5836 -0.6644
  168SAPS  H10X19054   5.089   4.474   5.443 -0.0405  0.9795 -0.6500
  168SAPS  H10Y19055   5.003   4.607   5.378 -0.6347  1.2196  1.3178
  168SAPS  C31119056   4.980   4.416   5.284 -0.3522  0.4721  0.1098
  168SAPS  H11X19057   4.878   4.430   5.241 -0.5599 -2.3476 -0.5488
  168SAPS  H11Y19058   4.979   4.307   5.305  0.5398  0.8008  2.0384
  168SAPS  C31219059   5.095   4.457   5.183  0.1113 -0.0609 -0.4972
  168SAPS  H12X19060   5.181   4.413   5.237 -0.8992 -0.8957  0.5022
  168SAPS  H12Y19061   5.112   4.565   5.167 -0.6433 -0.2089 -2.6020
  168SAPS  C31319062   5.095   4.391   5.050 -0.1477  0.5798 -0.0324
  168SAPS  H13X19063   5.012   4.426   4.984 -0.8868 -1.8480 -0.4860
  168SAPS  H13Y19064   5.074   4.284   5.069 -0.8425  0.6405 -0.4326
  168SAPS  C31419065   5.229   4.389   4.979  0.0186 -0.3555  0.6350
  168SAPS  H14X19066   5.222   4.332   4.884  2.9021 -0.1430  0.2127
  168SAPS  H14Y19067   5.306   4.348   5.049  1.0302  0.4698  0.0432
  168SAPS  C31519068   5.267   4.534   4.935 -0.6076  0.6991  0.3322
  168SAPS  H15X19069   5.271   4.602   5.022  1.7500  2.6046 -1.1351
  168SAPS  H15Y19070   5.187   4.569   4.866 -0.2865 -1.0080 -0.9862
  168SAPS  C31619071   5.405   4.539   4.870  0.8566 -0.6443 -0.3204
  168SAPS  H16X19072   5.477   4.497   4.943  0.5092  2.2377  1.8920
  168SAPS  H16Y19073   5.445   4.640   4.845 -0.1556 -0.2816 -0.5384
  168SAPS  C31719074   5.405   4.456   4.730 -0.1797 -0.2592 -0.4998
  168SAPS  H17X19075   5.410   4.347   4.746 -0.3326 -0.0671  1.0092
  168SAPS  H17Y19076   5.499   4.490   4.682  0.6814 -1.7140  0.1059
  168SAPS  C31819077   5.294   4.490   4.629  0.2594  0.0016  0.2629
  168SAPS  H18X19078   5.196   4.450   4.663 -0.3305  0.4900 -0.8357
  168SAPS  H18Y19079   5.319   4.463   4.525 -0.0468 -1.8277  0.6300
  168SAPS  H18Z19080   5.279   4.600   4.626  0.4120  0.1461  2.8079
  169SAPS     N19081   3.097   5.601   6.802  0.0864  0.1669 -0.1659
  169SAPS   HN119082   3.046   5.547   6.729 -0.8759  0.4975  0.2473
  169SAPS   HN219083   3.155   5.681   6.767 -0.7852  1.0921  0.4464
  169SAPS   HN319084   3.155   5.531   6.852 -2.5695 -0.7003  1.9121
  169SAPS   C1219085   3.000   5.662   6.897  0.1222 -0.3677 -0.1015
  169SAPS  H12A19086   2.996   5.600   6.986 -2.7055  0.9330  0.7937
  169SAPS   C1319087   3.023   5.801   6.959  0.0350  1.3020  0.1586
  169SAPS  O13A19088   3.124   5.869   6.928  0.5247  0.6810  0.7005
  169SAPS  O13B19089   2.943   5.841   7.051  0.1467 -0.2872  0.5248
  169SAPS   C1119090   2.847   5.655   6.833  0.7984 -0.0289 -0.1154
  169SAPS  H11A19091   2.846   5.745   6.766 -0.8812  1.8461  2.2737
  169SAPS  H11B19092   2.788   5.678   6.923  0.5926 -1.4441  0.1243
  169SAPS     P19093   2.670   5.478   6.764 -0.0116  0.0303 -0.1877
  169SAPS   O1319094   2.660   5.349   6.832 -1.1034  0.5568 -0.5150
  169SAPS   O1419095   2.570   5.586   6.799 -0.1129  0.1619  0.6580
  169SAPS   O1219096   2.818   5.525   6.779 -0.1884 -0.3527  0.0841
  169SAPS   O1119097   2.653   5.446   6.612  0.3537 -0.2206  0.3505
  169SAPS    C119098   2.767   5.411   6.534  0.2195  0.3501 -0.7165
  169SAPS    HA19099   2.845   5.491   6.534  0.8467 -0.2422 -1.4840
  169SAPS    HB19100   2.820   5.321   6.573  1.0311  0.5509 -1.3178
  169SAPS    C219101   2.720   5.378   6.390  0.5581  0.3653 -0.0437
  169SAPS    HS19102   2.811   5.333   6.345  1.3028  0.5302  1.2284
  169SAPS   O2119103   2.672   5.491   6.316 -0.4441  0.5195 -0.0941
  169SAPS   C2119104   2.759   5.584   6.284  0.3181  0.1076 -0.8294
  169SAPS   O2219105   2.881   5.570   6.286  0.2778  0.2872  0.3169
  169SAPS   C2219106   2.684   5.713   6.240 -0.2843  0.1902 -0.1741
  169SAPS   H2R19107   2.652   5.764   6.334 -1.6669 -0.2900 -0.3589
  169SAPS   H2S19108   2.758   5.779   6.191 -0.9656  0.1561 -1.2797
  169SAPS    C319109   2.612   5.262   6.393  0.1924 -0.7450  0.4262
  169SAPS    HX19110   2.534   5.267   6.472 -0.3986  0.5070 -0.2144
  169SAPS    HY19111   2.668   5.172   6.425  2.1840  0.1612 -0.3361
  169SAPS   O3119112   2.562   5.241   6.261 -0.2537  0.2867  0.2558
  169SAPS   C3119113   2.453   5.313   6.236  0.1219  0.2178  0.2066
  169SAPS   O3219114   2.412   5.402   6.309 -0.0690  0.1128  0.0184
  169SAPS   C3219115   2.372   5.248   6.119  0.1674  0.7305  0.3718
  169SAPS   H2X19116   2.273   5.297   6.111 -0.8040 -1.3424 -1.1360
  169SAPS   H2Y19117   2.349   5.146   6.156 -1.7708  1.6395  1.8706
  169SAPS   C2319118   2.552   5.691   6.152  0.4474  0.1537  0.0916
  169SAPS   H3R19119   2.468   5.660   6.217  0.8505  0.3941  0.7360
  169SAPS   H3S19120   2.582   5.605   6.087  0.5008  0.2679 -0.0348
  169SAPS   C2419121   2.524   5.817   6.059 -0.4829  0.0949 -0.1879
  169SAPS   H4R19122   2.530   5.900   6.132  2.4140 -0.6528  0.5460
  169SAPS   H4S19123   2.426   5.812   6.008  0.0024 -1.4508 -1.0451
  169SAPS   C2519124   2.636   5.851   5.961  0.5469 -0.1043  0.5832
  169SAPS   H5R19125   2.710   5.771   5.945  0.7605  0.2638 -0.3472
  169SAPS   C2619126   2.639   5.962   5.881  0.1369  0.2873  0.6357
  169SAPS   H6R19127   2.731   5.979   5.823 -0.3810  1.1314  0.0412
  169SAPS   C2719128   2.542   6.072   5.877 -0.0011  0.0227 -0.4079
  169SAPS   H7R19129   2.445   6.054   5.927 -0.0247 -0.6870 -0.6991
  169SAPS   H7S19130   2.505   6.098   5.776 -0.1710 -1.2082 -0.6827
  169SAPS   C2819131   2.599   6.202   5.940  0.0279  0.6124  0.5552
  169SAPS   H8R19132   2.627   6.193   6.046  0.8317  0.9878  0.3830
  169SAPS   C2919133   2.614   6.316   5.874 -0.3412 -0.3500 -0.6555
  169SAPS   H9R19134   2.662   6.397   5.930 -0.8814 -1.7201  1.9586
  169SAPS  C21019135   2.587   6.340   5.727 -0.0603  0.0445  0.2463
  169SAPS  H10R19136   2.477   6.343   5.712  0.0944 -1.5975 -1.6419
  169SAPS  H10S19137   2.621   6.253   5.667 -1.9851 -0.9453  0.5034
  169SAPS  C21119138   2.643   6.471   5.669  0.2610 -0.2819 -0.3451
  169SAPS  H11R19139   2.695   6.537   5.740  0.1499  2.3056 -2.5197
  169SAPS  C21219140   2.634   6.508   5.535 -0.7679  0.4181 -1.0593
  169SAPS  H12R19141   2.679   6.603   5.502  1.4943 -0.6551 -1.2183
  169SAPS  C21319142   2.575   6.432   5.417 -0.9286  1.1821 -0.3791
  169SAPS  H13R19143   2.522   6.345   5.461 -0.7811  1.7821  1.0482
  169SAPS  H13S19144   2.656   6.398   5.350 -2.6017 -0.2634 -1.7617
  169SAPS  C21419145   2.482   6.527   5.342  0.6592  0.1469  0.7290
  169SAPS  H14R19146   2.448   6.621   5.388 -0.9260 -0.5793  1.1092
  169SAPS  C21519147   2.430   6.491   5.227  0.5943  0.3482  0.1789
  169SAPS  H15R19148   2.361   6.566   5.184  0.7808  1.8397  2.3404
  169SAPS  C21619149   2.430   6.369   5.142  1.0663  0.0634 -0.8024
  169SAPS  H16R19150   2.329   6.322   5.146  0.7073  0.9027  1.3286
  169SAPS  H16S19151   2.500   6.288   5.171  1.9570  0.7753 -0.9380
  169SAPS  C21719152   2.455   6.397   4.984 -0.1967 -0.1128 -0.0411
  169SAPS  H17R19153   2.531   6.478   4.974 -1.2005  0.7923 -0.5335
  169SAPS  H17S19154   2.358   6.437   4.950  0.6874  1.7642 -0.4880
  169SAPS  C21819155   2.503   6.276   4.909 -0.0647 -0.2189  0.8282
  169SAPS  H18R19156   2.597   6.234   4.950 -0.6789 -1.7724  0.7303
  169SAPS  H18S19157   2.525   6.311   4.806 -0.2314  0.8875  1.1611
  169SAPS  C21919158   2.396   6.165   4.896  0.2975  0.4482  0.2877
  169SAPS  H19R19159   2.306   6.216   4.856  0.0936  1.1130  1.5324
  169SAPS  H19S19160   2.379   6.130   5.000  0.6411  1.3711  0.6595
  169SAPS  C22019161   2.442   6.046   4.811 -0.1278  0.0698 -0.0029
  169SAPS  H20R19162   2.361   5.970   4.813 -0.0694  0.0092  2.3484
  169SAPS  H20S19163   2.532   6.000   4.857  0.4560  0.3325 -0.8535
  169SAPS  H20T19164   2.467   6.073   4.706  1.5361  0.1397  0.3889
  169SAPS   C3319165   2.438   5.252   5.984 -0.9023  0.6636  0.3252
  169SAPS   H3X19166   2.544   5.222   5.977 -0.1703  2.6623  2.0818
  169SAPS   H3Y19167   2.443   5.363   5.974  2.3082  0.4580 -1.8081
  169SAPS   C3419168   2.363   5.177   5.880  0.0248  0.3672  0.4158
  169SAPS   H4X19169   2.252   5.182   5.882  0.0094  0.5751 -0.4063
  169SAPS   H4Y19170   2.396   5.071   5.891 -1.4644 -0.4669 -2.1863
  169SAPS   C3519171   2.405   5.221   5.730 -0.3018 -0.0854  0.1962
  169SAPS   H5X19172   2.433   5.131   5.672 -1.5893 -0.0760 -0.4655
  169SAPS   H5Y19173   2.497   5.283   5.737 -0.3269 -0.0293  0.0380
  169SAPS   C3619174   2.283   5.279   5.660  0.3429 -0.0755  0.5095
  169SAPS   H6X19175   2.245   5.367   5.717 -2.3556  0.0533 -1.2820
  169SAPS   H6Y19176   2.211   5.197   5.637 -0.3393  0.8416 -0.7129
  169SAPS   C3719177   2.323   5.337   5.525 -0.4827  0.5054  0.2566
  169SAPS   H7X19178   2.421   5.389   5.517  0.6657 -1.8303 -2.8282
  169SAPS   H7Y19179   2.254   5.417   5.492 -1.2379 -0.9220 -1.7742
  169SAPS   C3819180   2.336   5.231   5.406 -0.2345  0.2337  0.5048
  169SAPS   H8X19181   2.237   5.189   5.380 -0.7715  1.7718 -0.0792
  169SAPS   H8Y19182   2.412   5.158   5.440 -0.8655 -0.4071  0.5576
  169SAPS   C3919183   2.394   5.295   5.282 -0.3159  0.4383 -0.1097
  169SAPS   H9X19184   2.491   5.342   5.309  0.2460 -0.3135 -0.7725
  169SAPS   H9Y19185   2.329   5.368   5.230 -0.6957 -0.0954 -0.3955
  169SAPS  C31019186   2.421   5.196   5.169 -0.0113  0.1149  0.0585
  169SAPS  H10X19187   2.436   5.091   5.203  1.4891 -1.0243 -3.5380
  169SAPS  H10Y19188   2.515   5.231   5.120  0.5358  2.8035  2.7445
  169SAPS  C31119189   2.300   5.180   5.073  0.3462 -0.3321  0.8919
  169SAPS  H11X19190   2.252   5.279   5.055 -0.8334 -0.9996  0.2039
  169SAPS  H11Y19191   2.215   5.135   5.128  0.1787  0.3947  1.2347
  169SAPS  C31219192   2.324   5.106   4.947  0.3169  0.0328  0.1242
  169SAPS  H12X19193   2.351   5.000   4.967 -0.4891 -0.0032  1.1378
  169SAPS  H12Y19194   2.407   5.155   4.892 -0.4896  0.4833 -0.7080
  169SAPS  C31319195   2.212   5.112   4.852 -0.8818  0.1349  0.6379
  169SAPS  H13X19196   2.115   5.079   4.895 -2.5046  2.1786 -1.2132
  169SAPS  H13Y19197   2.225   5.052   4.759 -0.6509  1.3849 -0.1656
  169SAPS  C31419198   2.188   5.253   4.795 -0.2253 -0.1883 -0.0324
  169SAPS  H14X19199   2.282   5.298   4.756 -1.8736  1.6346 -2.2072
  169SAPS  H14Y19200   2.153   5.323   4.875  3.1246  1.3993  0.2065
  169SAPS  C31519201   2.086   5.259   4.679 -0.0487 -0.1416  0.2366
  169SAPS  H15X19202   2.006   5.196   4.724  2.4512 -2.1805  2.1242
  169SAPS  H15Y19203   2.134   5.212   4.591  0.2853  0.4400  0.1045
  169SAPS  C31619204   2.036   5.400   4.637 -0.5027 -0.1440  0.2563
  169SAPS  H16X19205   2.115   5.459   4.585  0.6167 -0.9584  0.9938
  169SAPS  H16Y19206   2.009   5.456   4.728  0.0164 -0.7897  0.8168
  169SAPS  C31719207   1.918   5.408   4.530 -0.5411  0.1846  0.4237
  169SAPS  H17X19208   1.871   5.507   4.548 -0.8427  0.9098 -3.5586
  169SAPS  H17Y19209   1.836   5.339   4.560 -1.2689  1.1138  0.5916
  169SAPS  C31819210   1.966   5.375   4.383 -0.4009 -0.4187  0.0228
  169SAPS  H18X19211   1.960   5.270   4.347 -2.5283 -1.0690  2.0326
  169SAPS  H18Y19212   2.067   5.413   4.358  0.7068 -2.9258  0.3696
  169SAPS  H18Z19213   1.887   5.418   4.318  0.2330 -0.6312 -0.9111
  170SAPS     N19214   5.958   5.223   6.744  0.4579  1.2399  0.1092
  170SAPS   HN119215   6.028   5.173   6.803 -0.0994  0.3789  0.0573
  170SAPS   HN219216   5.862   5.192   6.769  0.6491 -0.5014 -1.1501
  170SAPS   HN319217   5.980   5.191   6.648 -0.6465  1.9597 -0.3951
  170SAPS   C1219218   5.972   5.369   6.749 -0.0279  0.8220  0.1995
  170SAPS  H12A19219   5.950   5.414   6.654 -2.2746 -0.1227  0.2103
  170SAPS   C1319220   5.878   5.440   6.856  0.5436  0.6389 -0.2110
  170SAPS  O13A19221   5.777   5.376   6.893  0.5469 -0.0421  0.1497
  170SAPS  O13B19222   5.882   5.562   6.869  0.2972  0.1009  0.1101
  170SAPS   C1119223   6.122   5.393   6.779  0.4142  0.3535 -0.4326
  170SAPS  H11A19224   6.156   5.340   6.870  1.1799 -2.3844 -2.2027
  170SAPS  H11B19225   6.132   5.502   6.800 -0.8278  0.4236 -0.1293
  170SAPS     P19226   6.366   5.380   6.702  0.5349 -0.2844  0.7414
  170SAPS   O1319227   6.387   5.522   6.737 -0.0549 -0.0070 -0.6980
  170SAPS   O1419228   6.419   5.272   6.789 -0.3905  0.2550 -0.0857
  170SAPS   O1219229   6.213   5.366   6.674 -0.2214  1.3050  0.2494
  170SAPS   O1119230   6.420   5.356   6.555 -0.0579 -0.5381  0.3554
  170SAPS    C119231   6.451   5.473   6.480  0.4195  0.4017  0.4970
  170SAPS    HA19232   6.529   5.537   6.527  0.5349 -0.2711  1.2615
  170SAPS    HB19233   6.492   5.447   6.380  0.5129 -0.9788  0.8642
  170SAPS    C219234   6.328   5.558   6.435  0.1155 -0.3781  0.1513
  170SAPS    HS19235   6.284   5.607   6.524 -0.0052 -0.0405 -0.0930
  170SAPS   O2119236   6.238   5.466   6.371  0.4539  0.0126 -0.4054
  170SAPS   C2119237   6.110   5.500   6.377  0.7746 -0.2473  0.4364
  170SAPS   O2219238   6.063   5.586   6.447 -0.1248  0.3839  0.1896
  170SAPS   C2219239   6.027   5.424   6.278 -0.1335  0.7371  0.4391
  170SAPS   H2R19240   6.096   5.392   6.197 -1.3409 -1.5368  0.2153
  170SAPS   H2S19241   5.971   5.340   6.323  0.2939 -0.2694 -0.8560
  170SAPS    C319242   6.365   5.671   6.335 -0.1469 -0.7417 -0.2114
  170SAPS    HX19243   6.433   5.738   6.392 -0.8493  1.0858 -1.4143
  170SAPS    HY19244   6.281   5.741   6.314  1.8043  1.4337 -1.1738
  170SAPS   O3119245   6.436   5.630   6.218 -0.2546  0.2179 -0.1069
  170SAPS   C3119246   6.351   5.591   6.119  0.3617  0.8076  0.6271
  170SAPS   O3219247   6.232   5.612   6.114 -0.3163 -0.0750 -0.5042
  170SAPS   C3219248   6.435   5.529   6.013  0.2637 -0.2003 -0.9630
  170SAPS   H2X19249   6.378   5.491   5.926 -0.7682 -0.2822 -0.2732
  170SAPS   H2Y19250   6.495   5.444   6.053 -1.7147 -0.3389  2.0605
  170SAPS   C2319251   5.930   5.507   6.199  0.0382 -0.1469 -0.2470
  170SAPS   H3R19252   5.983   5.591   6.149 -0.3621  0.4049  0.2464
  170SAPS   H3S19253   5.866   5.564   6.269 -0.8767 -0.3793 -0.8731
  170SAPS   C2419254   5.858   5.421   6.093  0.3673  0.4358 -0.0367
  170SAPS   H4R19255   5.790   5.349   6.144 -1.0100  1.4003 -0.4847
  170SAPS   H4S19256   5.940   5.366   6.041 -0.1469  0.7463 -1.1965
  170SAPS   C2519257   5.776   5.500   5.994  0.4374  0.1027 -0.1618
  170SAPS   H5R19258   5.690   5.555   6.034 -1.0155 -0.6122 -2.1420
  170SAPS   C2619259   5.816   5.519   5.868  0.7506  0.4865 -0.9619
  170SAPS   H6R19260   5.738   5.566   5.807  0.7853 -0.1464 -1.5001
  170SAPS   C2719261   5.942   5.470   5.789 -0.1509  0.5208 -0.0221
  170SAPS   H7R19262   5.911   5.448   5.685 -1.5492 -2.5517  0.9261
  170SAPS   H7S19263   5.975   5.374   5.835  0.1324 -0.4488 -2.1559
  170SAPS   C2819264   6.065   5.557   5.795 -0.6338 -0.2350 -0.5458
  170SAPS   H8R19265   6.103   5.590   5.893  0.9195 -2.7172 -0.2106
  170SAPS   C2919266   6.124   5.606   5.684 -0.3729 -0.1134 -0.6949
  170SAPS   H9R19267   6.212   5.670   5.699  0.6958 -1.3333 -1.5311
  170SAPS  C21019268   6.075   5.590   5.548  0.4878  0.5801  0.0289
  170SAPS  H10R19269   5.964   5.589   5.552  0.5025  0.2490  0.4207
  170SAPS  H10S19270   6.101   5.494   5.498  1.1393  1.0519 -0.5611
  170SAPS  C21119271   6.124   5.701   5.464 -0.6894  0.0451  0.7325
  170SAPS  H11R19272   6.094   5.805   5.485 -1.5742  0.8616 -3.6342
  170SAPS  C21219273   6.196   5.688   5.352 -0.0246 -0.6373 -0.2836
  170SAPS  H12R19274   6.231   5.783   5.308  0.9077 -0.8602 -0.0434
  170SAPS  C21319275   6.260   5.568   5.288 -0.3126  0.8106 -0.1362
  170SAPS  H13R19276   6.284   5.488   5.360 -1.7024  0.9304  0.4923
  170SAPS  H13S19277   6.360   5.592   5.247  0.0661  0.2798  0.4722
  170SAPS  C21419278   6.163   5.510   5.191 -0.0653 -0.0911 -0.3683
  170SAPS  H14R19279   6.079   5.463   5.244  1.4673 -1.3881  1.0303
  170SAPS  C21519280   6.165   5.510   5.055  0.3965  0.9133  0.1444
  170SAPS  H15R19281   6.070   5.480   5.009  0.2031 -2.2111  2.3242
  170SAPS  C21619282   6.266   5.577   4.968 -0.4448  0.5134  0.0030
  170SAPS  H16R19283   6.271   5.526   4.869 -1.5539 -1.5416  0.9405
  170SAPS  H16S19284   6.361   5.546   5.018 -1.5088  1.4704  2.7999
  170SAPS  C21719285   6.235   5.730   4.953  0.0499 -0.6246  0.8294
  170SAPS  H17R19286   6.319   5.779   4.899 -1.0768 -0.0587 -0.4812
  170SAPS  H17S19287   6.219   5.776   5.053  0.0754 -0.0838  0.5899
  170SAPS  C21819288   6.111   5.750   4.868 -0.5108 -0.3626 -0.3466
  170SAPS  H18R19289   6.096   5.858   4.849  0.2522 -0.2408 -0.3066
  170SAPS  H18S19290   6.022   5.708   4.920 -0.4020 -0.8001 -0.5075
  170SAPS  C21919291   6.125   5.688   4.726  0.4270  0.3307 -0.3904
  170SAPS  H19R19292   6.135   5.578   4.735 -0.1171  0.2696 -0.4426
  170SAPS  H19S19293   6.223   5.717   4.683  1.3650 -2.5428 -0.3877
  170SAPS  C22019294   6.005   5.720   4.635  0.0410 -0.2700 -0.2015
  170SAPS  H20R19295   6.004   5.827   4.608  1.0332  0.2588  1.6327
  170SAPS  H20S19296   5.914   5.698   4.694  0.4008 -1.1413  0.0504
  170SAPS  H20T19297   5.997   5.667   4.538 -0.8114  0.3134 -0.4567
  170SAPS   C3319298   6.531   5.628   5.944  0.6996 -0.4287 -0.2804
  170SAPS   H3X19299   6.584   5.699   6.011 -2.0391  0.6518  0.9161
  170SAPS   H3Y19300   6.477   5.690   5.869 -0.9985  1.3394  2.2502
  170SAPS   C3419301   6.644   5.556   5.870 -0.2854 -0.0349 -0.3082
  170SAPS   H4X19302   6.609   5.483   5.793  0.6709 -1.2747  0.4012
  170SAPS   H4Y19303   6.697   5.483   5.935  0.1608 -0.7809 -1.4757
  170SAPS   C3519304   6.744   5.655   5.795  0.2963  0.2999  0.5521
  170SAPS   H5X19305   6.825   5.594   5.750 -1.3704 -0.9373 -0.9033
  170SAPS   H5Y19306   6.780   5.717   5.880 -2.4998  1.4916  0.9797
  170SAPS   C3619307   6.683   5.754   5.690  0.2392  0.7570 -0.1850
  170SAPS   H6X19308   6.771   5.797   5.638  0.6810  0.8848  0.6477
  170SAPS   H6Y19309   6.643   5.849   5.732 -1.8742 -0.3690  0.5333
  170SAPS   C3719310   6.601   5.684   5.579  0.1495  0.5975 -0.1487
  170SAPS   H7X19311   6.530   5.626   5.643  0.0948  1.2518  0.3933
  170SAPS   H7Y19312   6.668   5.620   5.519 -1.9707  1.1411 -3.3493
  170SAPS   C3819313   6.516   5.776   5.491 -0.1732 -0.4199  0.1731
  170SAPS   H8X19314   6.455   5.842   5.556 -0.1271 -0.4322  0.2286
  170SAPS   H8Y19315   6.460   5.709   5.422 -0.7329  1.2458 -1.0595
  170SAPS   C3919316   6.601   5.864   5.403  0.4545 -0.3749 -0.3066
  170SAPS   H9X19317   6.685   5.802   5.366  0.1290 -0.2942 -1.2082
  170SAPS   H9Y19318   6.648   5.953   5.449 -2.2930  0.9179  0.2057
  170SAPS  C31019319   6.521   5.917   5.279 -0.4191  0.2608  0.3809
  170SAPS  H10X19320   6.431   5.966   5.323 -0.9774 -2.0703  2.0109
  170SAPS  H10Y19321   6.486   5.826   5.226 -1.2587  1.3332 -0.9869
  170SAPS  C31119322   6.614   6.011   5.190  0.5724 -0.1641 -0.1796
  170SAPS  H11X19323   6.706   5.955   5.163 -0.1075 -0.8801 -1.1057
  170SAPS  H11Y19324   6.655   6.083   5.264  2.3018 -1.6881  0.4175
  170SAPS  C31219325   6.536   6.074   5.074 -0.8200 -0.1515 -0.1317
  170SAPS  H12X19326   6.498   6.172   5.109  1.0174  0.5270  0.1028
  170SAPS  H12Y19327   6.446   6.013   5.051 -1.1700  0.8521 -1.5963
  170SAPS  C31319328   6.604   6.104   4.943  0.4595  0.3529  0.1416
  170SAPS  H13X19329   6.633   6.004   4.902  0.2884  0.7309 -0.9473
  170SAPS  H13Y19330   6.700   6.157   4.961  0.9621 -0.5392  0.2033
  170SAPS  C31419331   6.512   6.163   4.838 -0.0098 -0.5156 -0.0037
  170SAPS  H14X19332   6.477   6.264   4.869  0.3380  0.1252 -1.6067
  170SAPS  H14Y19333   6.421   6.101   4.825 -1.3133  1.4884 -0.8100
  170SAPS  C31519334   6.585   6.170   4.700 -0.7099  0.1544 -0.7513
  170SAPS  H15X19335   6.614   6.072   4.659  1.3731  0.7452 -0.7912
  170SAPS  H15Y19336   6.681   6.226   4.710  0.1638 -1.5207  0.8010
  170SAPS  C31619337   6.507   6.241   4.594 -0.7678  0.5826 -0.2854
  170SAPS  H16X19338   6.400   6.237   4.624 -0.2070  0.5777  1.8622
  170SAPS  H16Y19339   6.511   6.193   4.494 -1.4436 -0.1883  0.0481
  170SAPS  C31719340   6.542   6.388   4.599 -0.2449  0.5297 -0.1295
  170SAPS  H17X19341   6.552   6.419   4.705 -1.0682  2.5578 -0.5881
  170SAPS  H17Y19342   6.455   6.444   4.558 -1.3003 -1.7781 -1.2456
  170SAPS  C31819343   6.668   6.426   4.523 -0.3695  0.0078 -0.6435
  170SAPS  H18X19344   6.760   6.375   4.557  1.4820  3.6994  0.4253
  170SAPS  H18Y19345   6.689   6.531   4.553 -0.1354 -0.5663  1.3424
  170SAPS  H18Z19346   6.642   6.418   4.415 -1.7830 -4.4312 -0.1682
  171SAPS     N19347   2.751   5.140   6.979 -0.2277  0.4511 -1.1186
  171SAPS   HN119348   2.695   5.120   7.065  0.4283  1.0662 -0.5334
  171SAPS   HN219349   2.700   5.213   6.926 -1.2819  1.9615  1.7165
  171SAPS   HN319350   2.744   5.057   6.918 -0.9888  0.6627 -1.3255
  171SAPS   C1219351   2.893   5.180   6.994  0.9414 -0.2481 -0.1328
  171SAPS  H12A19352   2.917   5.238   6.905  0.1123 -0.2535 -0.3661
  171SAPS   C1319353   2.925   5.273   7.112  0.4483 -0.1877  0.2507
  171SAPS  O13A19354   2.831   5.331   7.180 -0.1446 -0.1896 -0.1661
  171SAPS  O13B19355   3.040   5.301   7.141  0.3019  0.4074 -0.1948
  171SAPS   C1119356   2.991   5.054   7.006 -0.1242 -0.8097 -0.2374
  171SAPS  H11A19357   2.961   4.995   7.095 -0.4586  0.4716  0.5384
  171SAPS  H11B19358   3.083   5.100   7.049 -0.7247 -1.5986  2.0303
  171SAPS     P19359   3.132   4.993   6.805 -0.5232 -0.1316  0.2137
  171SAPS   O1319360   3.164   5.134   6.760 -0.3192  0.1649 -0.1496
  171SAPS   O1419361   3.237   4.917   6.872 -0.3620  0.8321 -1.0213
  171SAPS   O1219362   2.997   4.987   6.882 -0.5112  0.2844 -0.7824
  171SAPS   O1119363   3.101   4.912   6.682 -0.2858  0.4142  0.2707
  171SAPS    C119364   2.980   4.917   6.608 -0.8041 -0.5828  0.7782
  171SAPS    HA19365   2.892   4.955   6.664  0.3343  1.5124  1.2785
  171SAPS    HB19366   3.006   4.994   6.532 -0.5430  0.3557  1.7837
  171SAPS    C219367   2.952   4.780   6.539  0.8584 -0.4107 -0.0924
  171SAPS    HS19368   2.945   4.707   6.622  0.2119  1.5668  1.6972
  171SAPS   O2119369   3.067   4.763   6.449  0.1292 -0.5297  0.1876
  171SAPS   C2119370   3.072   4.638   6.415  0.4132  0.5954 -0.7491
  171SAPS   O2219371   2.991   4.551   6.443 -0.0294  0.1054  0.4335
  171SAPS   C2219372   3.199   4.610   6.328 -0.1762 -0.6662 -0.7321
  171SAPS   H2R19373   3.288   4.648   6.382  0.4090 -0.5576 -1.7418
  171SAPS   H2S19374   3.215   4.500   6.321  1.2575 -0.6799  1.7027
  171SAPS    C319375   2.809   4.792   6.463  0.3905 -0.2032 -0.7127
  171SAPS    HX19376   2.731   4.792   6.542 -0.6635 -1.0934 -1.7007
  171SAPS    HY19377   2.792   4.694   6.413 -1.0626 -0.3426 -0.0059
  171SAPS   O3119378   2.784   4.905   6.376 -0.3104  0.4459  0.1559
  171SAPS   C3119379   2.848   4.888   6.255 -0.2245  0.3432 -0.1200
  171SAPS   O3219380   2.887   4.775   6.216  1.1179 -0.3094 -0.4941
  171SAPS   C3219381   2.836   5.019   6.183  0.0428  0.5002 -0.6692
  171SAPS   H2X19382   2.911   5.086   6.230 -0.4188  2.4732 -2.5825
  171SAPS   H2Y19383   2.733   5.059   6.193  0.1475  0.6189  0.0423
  171SAPS   C2319384   3.211   4.674   6.193 -0.3634  0.1710  0.2260
  171SAPS   H3R19385   3.316   4.702   6.173 -0.3723  0.4342  0.5384
  171SAPS   H3S19386   3.143   4.761   6.185 -0.7176 -0.1949 -0.9222
  171SAPS   C2419387   3.174   4.589   6.071 -0.4290 -0.6500  0.3730
  171SAPS   H4R19388   3.222   4.489   6.070  0.2028 -0.3453 -0.8711
  171SAPS   H4S19389   3.215   4.656   5.993 -0.6054 -0.7038  0.2360
  171SAPS   C2519390   3.024   4.576   6.049  0.3853  0.2485  1.2626
  171SAPS   H5R19391   2.965   4.531   6.130  0.1854 -0.8872  0.5207
  171SAPS   C2619392   2.952   4.591   5.931  0.7268  0.3521  0.3889
  171SAPS   H6R19393   2.844   4.569   5.936  0.8703 -1.2771 -2.0541
  171SAPS   C2719394   3.001   4.634   5.792 -0.1628 -0.0432 -0.2845
  171SAPS   H7R19395   3.014   4.544   5.728 -0.2634  0.9410 -1.7282
  171SAPS   H7S19396   3.102   4.679   5.794  1.0259 -2.5661  0.9116
  171SAPS   C2819397   2.891   4.715   5.725  0.4675  0.3362 -0.4160
  171SAPS   H8R19398   2.827   4.775   5.790  1.7913 -0.1793  1.4632
  171SAPS   C2919399   2.864   4.709   5.594  0.0018  1.0407 -0.0221
  171SAPS   H9R19400   2.785   4.774   5.554 -0.5831  0.2640 -0.1505
  171SAPS  C21019401   2.927   4.618   5.488  0.6992  0.0344 -0.1535
  171SAPS  H10R19402   2.982   4.529   5.527  0.5581  0.3813  0.8479
  171SAPS  H10S19403   3.007   4.676   5.436  0.9769 -1.0354 -0.9752
  171SAPS  C21119404   2.841   4.564   5.375  0.1881 -0.8760  0.5207
  171SAPS  H11R19405   2.814   4.459   5.392 -0.4195 -0.7834  0.1551
  171SAPS  C21219406   2.785   4.630   5.269 -0.8051  0.2602 -0.3359
  171SAPS  H12R19407   2.720   4.580   5.196  0.9419  0.8865 -2.4089
  171SAPS  C21319408   2.817   4.768   5.217 -0.3632  0.3257  0.8548
  171SAPS  H13R19409   2.889   4.750   5.134 -0.2920 -2.1057  1.3714
  171SAPS  H13S19410   2.875   4.827   5.291  1.0890  0.1878 -0.1448
  171SAPS  C21419411   2.688   4.837   5.180 -0.2020 -0.6085  0.1438
  171SAPS  H14R19412   2.628   4.863   5.268  0.8902  1.3743  0.3670
  171SAPS  C21519413   2.643   4.856   5.056 -0.6698  0.4551  0.3926
  171SAPS  H15R19414   2.557   4.919   5.029 -1.6130 -1.9029 -2.7411
  171SAPS  C21619415   2.722   4.803   4.931  0.0257 -0.0461  0.2555
  171SAPS  H16R19416   2.699   4.698   4.905 -0.8396  0.4004 -0.9059
  171SAPS  H16S19417   2.832   4.811   4.946 -0.2565  3.3039  1.5524
  171SAPS  C21719418   2.677   4.881   4.803 -0.3665  0.5544 -0.3892
  171SAPS  H17R19419   2.582   4.832   4.775 -1.0978  1.3646  0.5922
  171SAPS  H17S19420   2.739   4.850   4.716 -0.6820  0.7250 -0.6778
  171SAPS  C21819421   2.691   5.029   4.802 -0.3716  0.2697 -0.4045
  171SAPS  H18R19422   2.623   5.073   4.878  0.3907  1.2462 -0.2718
  171SAPS  H18S19423   2.646   5.054   4.704 -0.9924  0.9225  0.0343
  171SAPS  C21919424   2.828   5.090   4.809  0.5265 -0.6003  1.2390
  171SAPS  H19R19425   2.890   5.019   4.750  1.0006  1.0283 -0.3249
  171SAPS  H19S19426   2.864   5.094   4.914  2.3333  2.6064  0.6174
  171SAPS  C22019427   2.833   5.234   4.754 -0.2669 -0.5749 -0.3651
  171SAPS  H20R19428   2.941   5.263   4.753  0.1550 -2.0354 -0.0220
  171SAPS  H20S19429   2.767   5.309   4.803  0.7523  1.0750 -1.4179
  171SAPS  H20T19430   2.814   5.234   4.645 -1.3856 -0.7849 -0.1759
  171SAPS   C3319431   2.876   5.000   6.040 -0.4348  0.6700  0.0724
  171SAPS   H3X19432   2.795   4.944   5.990 -1.6939 -0.0693  2.7612
  171SAPS   H3Y19433   2.977   4.958   6.021 -0.1972  1.6471 -0.9510
  171SAPS   C3419434   2.880   5.135   5.970  1.0178  0.4122  0.5875
  171SAPS   H4X19435   2.914   5.210   6.045 -1.1674 -0.2949  2.4052
  171SAPS   H4Y19436   2.773   5.163   5.964  1.2010  1.2400  1.0704
  171SAPS   C3519437   2.954   5.133   5.840  0.1815 -0.0064  0.5235
  171SAPS   H5X19438   2.926   5.048   5.774 -0.8077  1.5247 -1.1273
  171SAPS   H5Y19439   3.062   5.132   5.867  0.9623 -1.1229 -2.2978
  171SAPS   C3619440   2.919   5.262   5.768 -0.1262 -0.3530  0.4323
  171SAPS   H6X19441   3.013   5.294   5.719 -0.0809 -2.5886 -1.0694
  171SAPS   H6Y19442   2.895   5.333   5.850  1.4902  0.8803 -0.1154
  171SAPS   C3719443   2.792   5.258   5.681 -0.3654  0.2421 -0.1621
  171SAPS   H7X19444   2.720   5.222   5.758  0.8957  0.0403  0.9655
  171SAPS   H7Y19445   2.793   5.182   5.599 -2.0232 -0.1403  0.1353
  171SAPS   C3819446   2.745   5.390   5.619  0.3497  0.2344  0.4786
  171SAPS   H8X19447   2.645   5.372   5.573  0.4188 -0.0951  0.4546
  171SAPS   H8Y19448   2.821   5.424   5.545  0.9189 -0.2936  0.8192
  171SAPS   C3919449   2.722   5.515   5.715  0.0730 -0.0742  1.1541
  171SAPS   H9X19450   2.816   5.535   5.772 -0.8106  1.5976  2.1122
  171SAPS   H9Y19451   2.636   5.489   5.780 -0.4673 -0.6210  0.2459
  171SAPS  C31019452   2.712   5.644   5.632  0.0808  0.0687  0.0276
  171SAPS  H10X19453   2.797   5.648   5.561  0.3160 -2.8326  0.0266
  171SAPS  H10Y19454   2.723   5.737   5.693  0.7920  1.2586 -1.8111
  171SAPS  C31119455   2.586   5.639   5.542 -0.9471  0.1071 -0.1182
  171SAPS  H11X19456   2.503   5.614   5.611 -1.4091  0.4393 -0.5419
  171SAPS  H11Y19457   2.588   5.572   5.453  1.4193  1.1992 -0.9862
  171SAPS  C31219458   2.549   5.773   5.476 -0.9114  0.1164  0.2249
  171SAPS  H12X19459   2.626   5.808   5.405  1.0567  0.9568  2.6420
  171SAPS  H12Y19460   2.540   5.861   5.543 -2.8403  1.4421 -1.6528
  171SAPS  C31319461   2.419   5.760   5.395  0.2419  0.4111  0.0543
  171SAPS  H13X19462   2.372   5.860   5.379  2.6980  1.4422 -1.2929
  171SAPS  H13Y19463   2.350   5.706   5.464 -0.9878 -0.7495 -1.9882
  171SAPS  C31419464   2.426   5.671   5.264 -0.0740  0.2645 -0.0323
  171SAPS  H14X19465   2.321   5.666   5.228 -1.6074  4.6129  2.9554
  171SAPS  H14Y19466   2.461   5.567   5.280 -0.0100  0.2307 -0.3823
  171SAPS  C31519467   2.519   5.728   5.164 -0.1601 -0.1774 -0.5423
  171SAPS  H15X19468   2.623   5.734   5.203  1.2122 -0.2309 -3.8527
  171SAPS  H15Y19469   2.492   5.834   5.145 -2.1622 -0.9926 -2.7433
  171SAPS  C31619470   2.531   5.648   5.034 -0.0379 -0.1483 -0.0527
  171SAPS  H16X19471   2.561   5.545   5.062 -1.3559 -0.9359 -1.3655
  171SAPS  H16Y19472   2.609   5.687   4.965 -0.1619 -1.6932 -1.1151
  171SAPS  C31719473   2.401   5.640   4.950 -0.3465  0.2189 -0.5914
  171SAPS  H17X19474   2.378   5.744   4.919  1.5171  1.2485  1.1850
  171SAPS  H17Y19475   2.316   5.600   5.009  0.0051  0.1178 -0.1517
  171SAPS  C31819476   2.411   5.555   4.822  0.4191  0.5960  0.2600
  171SAPS  H18X19477   2.315   5.529   4.773  0.8591  2.3483 -1.6756
  171SAPS  H18Y19478   2.468   5.464   4.848  0.8819  0.9853  0.6187
  171SAPS  H18Z19479   2.472   5.609   4.746 -0.4741 -0.3681 -1.1833
  172SAPS     N19480   3.389   0.780   6.671 -0.7103  0.5282 -0.0773
  172SAPS   HN119481   3.379   0.713   6.750 -0.8423  0.7429  0.0859
  172SAPS   HN219482   3.386   0.880   6.697 -0.4922  0.5527 -0.1416
  172SAPS   HN319483   3.310   0.747   6.612  0.0373  0.2808 -0.9832
  172SAPS   C1219484   3.515   0.758   6.592  0.5511  0.2902 -0.1490
  172SAPS  H12A19485   3.512   0.826   6.508  1.5565  0.8785  0.2756
  172SAPS   C1319486   3.649   0.788   6.672  0.6537 -0.0726  0.1302
  172SAPS  O13A19487   3.655   0.855   6.774  0.0867  0.0833 -0.2868
  172SAPS  O13B19488   3.750   0.739   6.610 -0.0359  0.2904  0.0780
  172SAPS   C1119489   3.505   0.611   6.535  0.2214  0.8985 -0.2636
  172SAPS  H11A19490   3.518   0.532   6.612 -2.5823 -0.4694 -1.0721
  172SAPS  H11B19491   3.598   0.582   6.481  1.1431 -2.5895  2.8309
  172SAPS     P19492   3.375   0.471   6.350  0.3840  0.1254  0.1229
  172SAPS   O1319493   3.421   0.337   6.405  0.4595 -0.4415 -0.1569
  172SAPS   O1419494   3.239   0.473   6.288  0.3262 -0.8021  0.0220
  172SAPS   O1219495   3.386   0.590   6.459  0.6450 -0.4788 -0.1883
  172SAPS   O1119496   3.484   0.506   6.243 -0.2100  0.5944 -0.3519
  172SAPS    C119497   3.495   0.636   6.186  0.0757  0.2272 -0.2643
  172SAPS    HA19498   3.430   0.711   6.236 -2.3292 -0.4915 -2.1242
  172SAPS    HB19499   3.602   0.667   6.183 -0.0392  0.6394 -0.1190
  172SAPS    C219500   3.446   0.638   6.035  0.3924 -0.0270  0.3173
  172SAPS    HS19501   3.474   0.737   5.993 -0.4626  0.0720 -0.0286
  172SAPS   O2119502   3.303   0.620   6.014  0.1245 -0.0625  0.1078
  172SAPS   C2119503   3.222   0.701   6.070  0.9357 -0.8881  0.4582
  172SAPS   O2219504   3.247   0.806   6.130  0.4570  0.2321 -0.5498
  172SAPS   C2219505   3.080   0.646   6.060 -0.8391 -0.2498 -0.4486
  172SAPS   H2R19506   3.080   0.561   6.132 -0.1988  0.7750  0.7990
  172SAPS   H2S19507   3.014   0.727   6.097  1.3803  1.2087  0.5600
  172SAPS    C319508   3.519   0.526   5.953  0.5368  0.4888 -0.2816
  172SAPS    HX19509   3.486   0.536   5.848  0.4113 -0.2831 -0.3228
  172SAPS    HY19510   3.480   0.427   5.986  1.5309 -0.1261 -0.9098
  172SAPS   O3119511   3.658   0.529   5.967 -0.1106  0.3891  0.1371
  172SAPS   C3119512   3.724   0.439   5.885 -0.0658  0.0181  0.3605
  172SAPS   O3219513   3.675   0.345   5.825 -0.0382 -0.8013 -0.1400
  172SAPS   C3219514   3.870   0.483   5.892 -0.4512  0.2974  0.2484
  172SAPS   H2X19515   3.923   0.451   5.984  1.8989 -2.0661 -1.7345
  172SAPS   H2Y19516   3.865   0.594   5.889 -0.9484  0.3931  2.8269
  172SAPS   C2319517   3.042   0.586   5.922  0.4856 -0.0472 -0.3517
  172SAPS   H3R19518   3.114   0.505   5.896  1.2660  0.1378  1.1300
  172SAPS   H3S19519   3.064   0.659   5.842  1.5450 -1.2680 -1.2176
  172SAPS   C2419520   2.904   0.522   5.925  0.1970  0.2947  0.1456
  172SAPS   H4R19521   2.917   0.425   5.977 -0.2801  0.4858  0.6333
  172SAPS   H4S19522   2.882   0.487   5.822 -0.2660 -0.2642  0.4266
  172SAPS   C2519523   2.785   0.607   5.974  0.1644 -0.7130 -0.2726
  172SAPS   H5R19524   2.786   0.623   6.083  1.0878 -1.3141 -0.1821
  172SAPS   C2619525   2.686   0.656   5.895 -0.2721 -0.3004 -0.0491
  172SAPS   H6R19526   2.610   0.723   5.939  1.5500  1.8963 -0.0536
  172SAPS   C2719527   2.663   0.648   5.744  0.0764  0.5235 -1.1717
  172SAPS   H7R19528   2.552   0.644   5.736  0.1175 -0.9377 -1.2389
  172SAPS   H7S19529   2.700   0.550   5.706  3.1590  1.1705 -0.1533
  172SAPS   C2819530   2.733   0.750   5.661 -0.5243  0.0578  0.0315
  172SAPS   H8R19531   2.802   0.817   5.715  0.4995  0.6398 -1.9111
  172SAPS   C2919532   2.723   0.782   5.529 -0.3571  1.0959 -0.8979
  172SAPS   H9R19533   2.765   0.873   5.484  1.3029  0.1790 -1.2984
  172SAPS  C21019534   2.621   0.715   5.439  0.4551 -0.1687  0.0991
  172SAPS  H10R19535   2.567   0.796   5.385  1.4268 -0.1586 -0.8976
  172SAPS  H10S19536   2.547   0.654   5.495  0.3079 -1.9957 -1.9366
  172SAPS  C21119537   2.688   0.616   5.342 -0.1785  0.8087 -0.0039
  172SAPS  H11R19538   2.734   0.525   5.383 -1.2820  0.6013  0.8258
  172SAPS  C21219539   2.684   0.623   5.206  0.0957  0.0227 -0.3236
  172SAPS  H12R19540   2.733   0.545   5.147  0.4871  0.0363 -0.0232
  172SAPS  C21319541   2.617   0.725   5.116  0.0292  0.3171  0.3049
  172SAPS  H13R19542   2.569   0.809   5.170 -0.7817  0.0919 -0.0352
  172SAPS  H13S19543   2.534   0.684   5.055  1.4799  1.2322 -2.4539
  172SAPS  C21419544   2.714   0.773   5.017  0.4221 -0.2661  0.5714
  172SAPS  H14R19545   2.785   0.843   5.065 -0.9512  2.1529 -0.7480
  172SAPS  C21519546   2.706   0.762   4.884 -0.1206  0.3281 -0.1967
  172SAPS  H15R19547   2.780   0.811   4.819  0.5791 -1.5786 -0.9057
  172SAPS  C21619548   2.596   0.703   4.806  1.3571 -0.5574  0.6666
  172SAPS  H16R19549   2.539   0.775   4.744  2.6745  1.8666  2.1190
  172SAPS  H16S19550   2.518   0.651   4.867  1.6663 -0.1723  1.3968
  172SAPS  C21719551   2.666   0.600   4.711  0.1220 -0.0635 -0.4994
  172SAPS  H17R19552   2.721   0.531   4.778 -0.0988  1.3723  1.2459
  172SAPS  H17S19553   2.734   0.650   4.639 -0.5728  3.4079  1.0334
  172SAPS  C21819554   2.562   0.514   4.639 -0.5222  1.0493 -0.1464
  172SAPS  H18R19555   2.518   0.564   4.550 -2.1750  1.8265  1.0697
  172SAPS  H18S19556   2.475   0.496   4.705 -0.4505  2.9816  0.5386
  172SAPS  C21919557   2.638   0.394   4.576  0.7540 -0.8110 -0.0555
  172SAPS  H19R19558   2.659   0.343   4.672  0.2369  0.0819  0.5374
  172SAPS  H19S19559   2.732   0.425   4.525 -0.2260 -0.0978 -1.5227
  172SAPS  C22019560   2.545   0.310   4.491 -0.1024  0.4757 -0.6200
  172SAPS  H20R19561   2.583   0.207   4.471 -0.2310 -0.4004  2.9557
  172SAPS  H20S19562   2.536   0.358   4.392  2.2681  1.1072 -0.5833
  172SAPS  H20T19563   2.440   0.297   4.526 -0.1740  1.4938 -0.4403
  172SAPS   C3319564   3.947   0.416   5.779 -0.6668 -0.5162  1.1500
  172SAPS   H3X19565   3.922   0.310   5.758 -1.5125 -0.2243  0.6262
  172SAPS   H3Y19566   4.058   0.423   5.780 -0.6142 -0.9754  0.2237
  172SAPS   C3419567   3.906   0.479   5.647 -0.2912 -0.2754  1.3174
  172SAPS   H4X19568   3.936   0.586   5.647 -0.1888 -0.2815 -0.3101
  172SAPS   H4Y19569   3.796   0.472   5.633  0.0743 -2.6086 -1.4037
  172SAPS   C3519570   3.979   0.418   5.525  0.1672 -0.2335 -0.4172
  172SAPS   H5X19571   3.972   0.308   5.533 -0.1200 -0.1686  0.3956
  172SAPS   H5Y19572   4.088   0.437   5.525  0.3581 -1.2825 -0.4125
  172SAPS   C3619573   3.923   0.480   5.395  0.3821 -0.1230  0.5996
  172SAPS   H6X19574   3.967   0.582   5.391  2.0153 -0.7736  1.1541
  172SAPS   H6Y19575   3.812   0.488   5.393  0.2736 -1.3987  0.5454
  172SAPS   C3719576   3.971   0.398   5.276  0.0181  0.2667  0.1572
  172SAPS   H7X19577   3.903   0.311   5.271  0.9254 -0.4927  0.5999
  172SAPS   H7Y19578   4.075   0.365   5.298 -0.5559 -2.1584 -0.4560
  172SAPS   C3819579   3.976   0.477   5.143  0.1465  0.7846 -0.3346
  172SAPS   H8X19580   4.067   0.538   5.131 -0.0498  1.1091 -0.1745
  172SAPS   H8Y19581   3.884   0.539   5.149  1.0820  2.0873  2.9197
  172SAPS   C3919582   3.994   0.384   5.018  0.2073  0.5214 -0.2449
  172SAPS   H9X19583   3.909   0.314   5.031  2.6165 -2.1222  3.1838
  172SAPS   H9Y19584   4.079   0.316   5.041 -1.3494 -0.7171  2.2826
  172SAPS  C31019585   4.026   0.473   4.899 -0.4199  0.2814  1.1656
  172SAPS  H10X19586   4.129   0.511   4.909 -0.0723  0.2740 -1.5339
  172SAPS  H10Y19587   3.953   0.557   4.904  1.1341  1.6956  1.0270
  172SAPS  C31119588   4.027   0.395   4.767 -0.7655  0.3074  0.0501
  172SAPS  H11X19589   3.929   0.343   4.757 -0.2177 -0.3962 -2.0092
  172SAPS  H11Y19590   4.104   0.315   4.774  0.4863  1.4688 -0.0338
  172SAPS  C31219591   4.053   0.482   4.639  0.4155 -0.1558  0.2588
  172SAPS  H12X19592   4.161   0.508   4.640  0.2732  0.4592  0.0073
  172SAPS  H12Y19593   4.014   0.583   4.664 -1.2940 -0.5813 -0.5482
  172SAPS  C31319594   4.017   0.427   4.502  0.7483  0.4955  0.0120
  172SAPS  H13X19595   3.913   0.390   4.496  1.4217 -1.2491 -2.0693
  172SAPS  H13Y19596   4.076   0.333   4.497 -0.2581 -0.1513 -0.0034
  172SAPS  C31419597   4.048   0.511   4.382 -0.2162  0.4694 -0.1886
  172SAPS  H14X19598   4.004   0.612   4.395 -1.8003 -0.3314  0.9772
  172SAPS  H14Y19599   3.992   0.465   4.298 -0.4202 -1.5485  0.9963
  172SAPS  C31519600   4.192   0.508   4.338 -0.2519 -0.0511  0.2716
  172SAPS  H15X19601   4.235   0.406   4.322 -0.5225  0.0441 -1.2951
  172SAPS  H15Y19602   4.260   0.546   4.417 -0.4542  1.5621 -0.3019
  172SAPS  C31619603   4.219   0.582   4.209 -0.0062  0.1821 -0.2571
  172SAPS  H16X19604   4.145   0.549   4.133 -1.7054  0.9349  1.0122
  172SAPS  H16Y19605   4.210   0.691   4.229  1.0957  0.2710 -0.1819
  172SAPS  C31719606   4.361   0.557   4.151 -0.9585 -0.0282  0.0484
  172SAPS  H17X19607   4.382   0.624   4.065 -1.0387 -0.1375 -0.0571
  172SAPS  H17Y19608   4.366   0.450   4.120 -0.8653  0.1840 -0.6869
  172SAPS  C31819609   4.473   0.576   4.261 -0.2665  0.1822 -0.4782
  172SAPS  H18X19610   4.443   0.662   4.325  0.8690 -0.8864  1.5897
  172SAPS  H18Y19611   4.575   0.598   4.221 -0.0917 -1.3233 -0.8909
  172SAPS  H18Z19612   4.476   0.492   4.333 -1.4296 -0.2841 -0.9480
  173SAPS     N19613   2.783   2.521   2.075  0.4825  0.0656 -0.2490
  173SAPS   HN119614   2.699   2.573   2.107  0.4454 -0.4904  0.5805
  173SAPS   HN219615   2.841   2.515   2.162 -0.0513 -0.2582  0.0878
  173SAPS   HN319616   2.832   2.571   1.998  2.4932 -0.8234  0.3770
  173SAPS   C1219617   2.737   2.395   2.015  0.7417 -0.4843 -0.1569
  173SAPS  H12A19618   2.643   2.411   1.966  0.0393 -2.0315  0.5922
  173SAPS   C1319619   2.841   2.338   1.906  0.8706  0.4292 -1.2399
  173SAPS  O13A19620   2.958   2.375   1.905 -0.1420  0.4555 -0.6917
  173SAPS  O13B19621   2.800   2.239   1.844 -0.2620  0.1403  0.2686
  173SAPS   C1119622   2.711   2.285   2.124  0.3543 -0.4131  0.0971
  173SAPS  H11A19623   2.809   2.237   2.143  0.4430 -0.5698 -0.7056
  173SAPS  H11B19624   2.658   2.203   2.071 -0.6717  0.8229 -0.8600
  173SAPS     P19625   2.507   2.301   2.289  0.3469  0.3264  0.0677
  173SAPS   O1319626   2.421   2.387   2.206  0.4274  0.4258  0.0796
  173SAPS   O1419627   2.475   2.158   2.283 -0.0888  0.0553  0.3150
  173SAPS   O1219628   2.651   2.342   2.245 -0.4554  0.2820  0.0837
  173SAPS   O1119629   2.502   2.353   2.440  0.1293 -0.6384  0.2605
  173SAPS    C119630   2.496   2.492   2.460 -0.2993  0.1700 -0.2398
  173SAPS    HA19631   2.578   2.548   2.411  0.6686  1.3702  2.5678
  173SAPS    HB19632   2.396   2.533   2.434 -0.2119  0.0422 -0.7958
  173SAPS    C219633   2.507   2.520   2.614 -0.5320  0.0172 -0.2225
  173SAPS    HS19634   2.538   2.623   2.643 -1.3241  0.1572  0.1922
  173SAPS   O2119635   2.598   2.429   2.673  0.0661  0.2725 -0.2928
  173SAPS   C2119636   2.720   2.459   2.641 -0.0612  0.0742 -0.6729
  173SAPS   O2219637   2.755   2.558   2.579  0.1415 -0.2975  0.1321
  173SAPS   C2219638   2.803   2.343   2.684  0.3449 -0.1709 -0.8417
  173SAPS   H2R19639   2.748   2.279   2.757 -0.5288 -0.1140 -1.4426
  173SAPS   H2S19640   2.829   2.281   2.595  1.4843  0.6784 -1.1252
  173SAPS    C319641   2.364   2.505   2.686  0.3845 -0.5615  0.0375
  173SAPS    HX19642   2.312   2.434   2.618 -0.0498 -1.2486  1.0617
  173SAPS    HY19643   2.313   2.603   2.677 -0.1291 -0.8839 -0.6973
  173SAPS   O3119644   2.360   2.445   2.810  0.2029 -0.3075  0.3084
  173SAPS   C3119645   2.408   2.523   2.914  0.1498  0.1555 -0.4225
  173SAPS   O3219646   2.450   2.641   2.905  0.3131  0.4431  0.5159
  173SAPS   C3219647   2.426   2.434   3.043  0.6905  0.0178 -0.6711
  173SAPS   H2X19648   2.507   2.362   3.015 -1.8202 -2.5245 -1.8894
  173SAPS   H2Y19649   2.339   2.367   3.058  0.9780 -0.3598 -0.6678
  173SAPS   C2319650   2.930   2.389   2.760 -0.0648 -0.0449 -0.3783
  173SAPS   H3R19651   2.994   2.441   2.686  1.5918 -2.9307 -1.1374
  173SAPS   H3S19652   3.010   2.316   2.789 -1.1703 -0.0822  3.0021
  173SAPS   C2419653   2.915   2.472   2.888  0.0164 -0.6602 -0.2347
  173SAPS   H4R19654   2.862   2.564   2.857  4.0199  2.1728  0.5720
  173SAPS   H4S19655   3.018   2.496   2.921 -0.3873 -0.8425  1.2350
  173SAPS   C2519656   2.837   2.396   2.993  0.5513 -0.0894 -0.0311
  173SAPS   H5R19657   2.740   2.358   2.958  0.6799  1.1262 -1.8230
  173SAPS   C2619658   2.874   2.352   3.117 -0.6182  0.0697  0.2103
  173SAPS   H6R19659   2.795   2.301   3.175  0.0789  0.1010  1.2096
  173SAPS   C2719660   3.000   2.398   3.182 -0.1631  0.1333  0.0065
  173SAPS   H7R19661   3.040   2.482   3.122 -0.6157  0.5674  0.3003
  173SAPS   H7S19662   3.081   2.322   3.188  1.0763  1.4779  0.8002
  173SAPS   C2819663   2.958   2.447   3.320 -0.0856 -0.9737  0.7307
  173SAPS   H8R19664   2.907   2.544   3.313  1.6140 -0.1180 -0.4237
  173SAPS   C2919665   2.996   2.404   3.441  0.3192 -0.8520 -0.4879
  173SAPS   H9R19666   2.958   2.449   3.534  2.7619 -3.6270  2.0559
  173SAPS  C21019667   3.072   2.273   3.468  0.3196  0.4707 -0.6177
  173SAPS  H10R19668   3.163   2.295   3.528 -0.3263  1.5641  0.0141
  173SAPS  H10S19669   3.114   2.228   3.376 -2.8043 -0.7698 -1.5632
  173SAPS  C21119670   2.982   2.172   3.537 -0.3180 -0.3336 -0.0117
  173SAPS  H11R19671   2.897   2.137   3.477  0.8362 -1.3850 -1.0973
  173SAPS  C21219672   3.012   2.095   3.642  0.3618  0.2522  0.0777
  173SAPS  H12R19673   2.933   2.039   3.695  0.3131 -0.5890 -0.8558
  173SAPS  C21319674   3.134   2.123   3.733  0.6517 -0.0587  0.7016
  173SAPS  H13R19675   3.219   2.143   3.664 -0.1672 -0.1872 -0.3784
  173SAPS  H13S19676   3.171   2.043   3.801 -0.7866 -1.5024 -0.1434
  173SAPS  C21419677   3.107   2.250   3.814 -0.0784  0.3905 -0.6292
  173SAPS  H14R19678   3.121   2.338   3.749 -0.0814  0.8520 -0.0096
  173SAPS  C21519679   3.100   2.269   3.945 -0.2242 -0.3250  0.1838
  173SAPS  H15R19680   3.086   2.374   3.974 -2.1530 -0.3290 -0.5731
  173SAPS  C21619681   3.091   2.160   4.049 -0.6650 -0.0217 -1.1404
  173SAPS  H16R19682   3.104   2.061   4.000  0.3218 -0.3236 -0.3034
  173SAPS  H16S19683   2.986   2.155   4.083 -0.3197 -2.1955 -0.2210
  173SAPS  C21719684   3.184   2.151   4.169  0.2274  0.3342 -0.3497
  173SAPS  H17R19685   3.288   2.130   4.136 -0.6392  1.2595 -4.1350
  173SAPS  H17S19686   3.155   2.068   4.236 -0.6616  1.0604  0.1929
  173SAPS  C21819687   3.183   2.282   4.259 -0.4011  0.2253  0.5923
  173SAPS  H18R19688   3.077   2.312   4.272  0.0647  2.6853 -0.6982
  173SAPS  H18S19689   3.230   2.355   4.189 -0.9750 -1.6471 -1.9069
  173SAPS  C21919690   3.260   2.285   4.397  1.4718  0.3091  0.6467
  173SAPS  H19R19691   3.214   2.223   4.477 -0.1046 -0.0224 -0.4713
  173SAPS  H19S19692   3.243   2.388   4.436  1.9522  0.4122  0.5921
  173SAPS  C22019693   3.409   2.252   4.382  0.9783  0.5535 -0.5747
  173SAPS  H20R19694   3.443   2.280   4.280 -1.5944 -1.5831 -2.1577
  173SAPS  H20S19695   3.410   2.143   4.364 -1.5644  0.6289 -1.6105
  173SAPS  H20T19696   3.472   2.300   4.459  0.8684  0.0560 -0.1724
  173SAPS   C3319697   2.449   2.516   3.169  0.5528  1.0125  0.0129
  173SAPS   H3X19698   2.351   2.559   3.197  0.7907  1.4279  0.2096
  173SAPS   H3Y19699   2.522   2.599   3.161  1.4565  0.3700  1.2515
  173SAPS   C3419700   2.498   2.426   3.284  0.1652 -0.3069 -0.3842
  173SAPS   H4X19701   2.587   2.375   3.243  0.3685 -0.2014 -0.0801
  173SAPS   H4Y19702   2.415   2.362   3.322 -0.3927  0.8755  0.4933
  173SAPS   C3519703   2.560   2.506   3.404 -0.5244 -0.3559 -0.0981
  173SAPS   H5X19704   2.483   2.579   3.437 -0.8002  0.2586 -1.9546
  173SAPS   H5Y19705   2.654   2.563   3.386  0.6691 -1.5699  1.9852
  173SAPS   C3619706   2.599   2.414   3.524 -0.6362 -0.5807  0.2924
  173SAPS   H6X19707   2.686   2.355   3.487 -0.3732  1.1327 -2.0034
  173SAPS   H6Y19708   2.518   2.342   3.549  0.6920 -1.7824  1.2885
  173SAPS   C3719709   2.636   2.475   3.655 -0.1375 -0.5723 -0.3631
  173SAPS   H7X19710   2.553   2.536   3.696 -0.5958 -1.4561  0.0408
  173SAPS   H7Y19711   2.727   2.537   3.664 -1.0399  0.5816  1.1778
  173SAPS   C3819712   2.642   2.354   3.758  0.6311 -0.1665  0.6786
  173SAPS   H8X19713   2.718   2.278   3.733 -0.7810 -1.4415  0.0600
  173SAPS   H8Y19714   2.539   2.312   3.765 -1.0406  3.1736 -1.1608
  173SAPS   C3919715   2.666   2.411   3.893  0.2194 -0.2642 -0.4987
  173SAPS   H9X19716   2.572   2.467   3.915 -1.1624 -1.5128 -2.7866
  173SAPS   H9Y19717   2.751   2.482   3.896  0.3351 -0.4304  0.9050
  173SAPS  C31019718   2.688   2.316   4.007  0.2067  0.1315 -0.4766
  173SAPS  H10X19719   2.771   2.246   3.983 -1.3432 -1.6750 -0.8068
  173SAPS  H10Y19720   2.604   2.248   4.030  0.2693  0.4892  0.8544
  173SAPS  C31119721   2.723   2.389   4.134  0.2383 -0.9300  0.4818
  173SAPS  H11X19722   2.751   2.493   4.106  0.9277 -1.6824 -1.8700
  173SAPS  H11Y19723   2.809   2.346   4.189 -0.1839 -0.2637  1.6969
  173SAPS  C31219724   2.600   2.408   4.236  0.0115  0.2467 -0.1667
  173SAPS  H12X19725   2.559   2.310   4.268  2.2192 -0.1401  1.7580
  173SAPS  H12Y19726   2.513   2.467   4.201  0.3989  1.8121  1.3549
  173SAPS  C31319727   2.637   2.485   4.368 -0.3726 -0.4503 -0.2101
  173SAPS  H13X19728   2.543   2.499   4.425 -0.3465  1.1694 -0.5208
  173SAPS  H13Y19729   2.664   2.591   4.347  0.4316 -0.8950 -1.5437
  173SAPS  C31419730   2.742   2.413   4.454  0.0755 -0.3720  0.1650
  173SAPS  H14X19731   2.745   2.456   4.557  1.6736  2.1493 -0.8393
  173SAPS  H14Y19732   2.841   2.451   4.418  0.1475 -1.3697 -0.7227
  173SAPS  C31519733   2.744   2.263   4.458  0.4356  0.3946  0.2058
  173SAPS  H15X19734   2.753   2.221   4.356 -1.4045  0.5174 -0.0316
  173SAPS  H15Y19735   2.647   2.225   4.497  1.5963 -0.4470  2.4543
  173SAPS  C31619736   2.852   2.205   4.557 -0.2189 -0.1102  0.0441
  173SAPS  H16X19737   2.829   2.223   4.665 -0.0929 -2.1877  0.4683
  173SAPS  H16Y19738   2.954   2.239   4.531 -1.4701  2.2601 -2.1697
  173SAPS  C31719739   2.851   2.055   4.565 -0.1927 -0.2703  0.5063
  173SAPS  H17X19740   2.868   2.019   4.461 -1.8540  0.3771 -0.0195
  173SAPS  H17Y19741   2.744   2.029   4.579 -0.4812  0.1963 -0.6709
  173SAPS  C31819742   2.936   1.984   4.662 -0.0936 -0.4807 -1.1059
  173SAPS  H18X19743   2.922   1.874   4.650  2.4664 -0.9646 -0.1657
  173SAPS  H18Y19744   2.912   2.018   4.765  2.2280  0.1098 -0.6974
  173SAPS  H18Z19745   3.041   1.997   4.630  0.2426  0.7060  0.3769
  174SAPS     N19746   6.022   6.084   1.733  0.1997 -0.5059  0.4660
  174SAPS   HN119747   6.065   6.124   1.819  0.1745 -0.8112  0.6242
  174SAPS   HN219748   5.983   5.992   1.763 -1.6400  0.5171  1.3534
  174SAPS   HN319749   6.092   6.072   1.657 -1.4411 -2.1762 -0.8555
  174SAPS   C1219750   5.910   6.172   1.678 -0.0594  0.4242  0.1236
  174SAPS  H12A19751   5.947   6.272   1.659 -1.7676  0.7969 -1.4953
  174SAPS   C1319752   5.849   6.129   1.540 -0.2243  0.3488  0.3414
  174SAPS  O13A19753   5.894   6.024   1.482  0.5691  0.0722  0.0251
  174SAPS  O13B19754   5.773   6.212   1.493  0.2163  0.2412  0.3019
  174SAPS   C1119755   5.786   6.165   1.776  0.0814 -0.6601  0.0109
  174SAPS  H11A19756   5.752   6.060   1.784  0.2772 -0.8544 -1.4257
  174SAPS  H11B19757   5.708   6.228   1.728 -0.9525  0.3380  2.8145
  174SAPS     P19758   5.815   6.367   1.948 -0.2131  0.2206 -0.1896
  174SAPS   O1319759   5.907   6.451   1.860  0.3148  0.1546 -0.5949
  174SAPS   O1419760   5.669   6.411   1.958 -0.3763  0.4505 -0.0470
  174SAPS   O1219761   5.814   6.219   1.904  0.1503 -0.3704 -0.0018
  174SAPS   O1119762   5.872   6.377   2.098  0.3965 -0.0030  0.5193
  174SAPS    C119763   5.921   6.262   2.170  0.6494 -1.2690  0.0907
  174SAPS    HA19764   5.854   6.180   2.137 -0.8975 -0.2096  0.5097
  174SAPS    HB19765   6.030   6.259   2.146  0.6248 -0.0261 -0.2615
  174SAPS    C219766   5.915   6.273   2.328 -1.4375 -0.0537 -0.1193
  174SAPS    HS19767   5.960   6.180   2.367  0.6412  0.8897 -0.1121
  174SAPS   O2119768   5.779   6.281   2.373  0.0215 -0.5695  0.1029
  174SAPS   C2119769   5.726   6.161   2.394  0.7354 -0.0910 -0.6204
  174SAPS   O2219770   5.773   6.053   2.371 -0.2877  0.4137 -0.0291
  174SAPS   C2219771   5.591   6.185   2.466 -0.2342 -0.1014  0.1454
  174SAPS   H2R19772   5.531   6.245   2.395  2.3026  0.2991 -1.8218
  174SAPS   H2S19773   5.550   6.083   2.480  0.8031 -0.2975  2.1103
  174SAPS    C319774   5.996   6.396   2.379 -0.2744 -0.2981  0.1441
  174SAPS    HX19775   5.973   6.484   2.316  0.5824 -1.0088 -1.2101
  174SAPS    HY19776   6.104   6.376   2.360  0.0916  2.1870 -0.7512
  174SAPS   O3119777   5.990   6.406   2.520  0.2262 -0.1695 -0.1128
  174SAPS   C3119778   5.945   6.517   2.570 -0.0997 -0.0477  0.7092
  174SAPS   O3219779   5.890   6.605   2.507 -0.5646 -0.0896  0.1449
  174SAPS   C3219780   5.983   6.522   2.715  0.2694  0.7021 -0.8995
  174SAPS   H2X19781   6.042   6.614   2.734 -1.1456  1.1870  1.7591
  174SAPS   H2Y19782   6.049   6.438   2.743 -1.8543 -1.1214 -1.0493
  174SAPS   C2319783   5.611   6.262   2.593  1.0532  0.4542 -0.0088
  174SAPS   H3R19784   5.518   6.258   2.653  1.4754 -1.4341  0.5835
  174SAPS   H3S19785   5.651   6.364   2.574  2.8412  0.0545  1.3955
  174SAPS   C2419786   5.719   6.198   2.692 -0.4247 -0.1440 -0.4238
  174SAPS   H4R19787   5.719   6.265   2.781  0.0702 -2.5363  1.4918
  174SAPS   H4S19788   5.819   6.183   2.646  1.0832 -0.9428  2.8202
  174SAPS   C2519789   5.689   6.061   2.748 -0.3716  0.1851  0.3269
  174SAPS   H5R19790   5.725   5.976   2.688 -0.0639 -0.1129  0.9294
  174SAPS   C2619791   5.599   6.029   2.845 -0.3235  0.1268 -0.0324
  174SAPS   H6R19792   5.610   5.928   2.887 -0.9718 -0.4065 -1.1129
  174SAPS   C2719793   5.535   6.124   2.943  0.4948 -0.5081  0.4901
  174SAPS   H7R19794   5.450   6.069   2.990 -0.1110 -0.4200 -0.4856
  174SAPS   H7S19795   5.481   6.201   2.884  0.1784 -1.7180 -0.8499
  174SAPS   C2819796   5.628   6.172   3.053  0.3767 -0.3689  0.3398
  174SAPS   H8R19797   5.717   6.215   3.005  0.5881 -1.0915  0.0701
  174SAPS   C2919798   5.606   6.167   3.190  0.2456 -0.0425  0.1992
  174SAPS   H9R19799   5.692   6.192   3.253  0.0199  0.7384  0.2185
  174SAPS  C21019800   5.494   6.099   3.268  0.3064  0.5893  0.1193
  174SAPS  H10R19801   5.538   6.002   3.301 -1.6116 -0.1242  0.7380
  174SAPS  H10S19802   5.403   6.076   3.208  0.1651  1.1421  0.1201
  174SAPS  C21119803   5.455   6.183   3.388  0.2804  0.1153 -0.2228
  174SAPS  H11R19804   5.416   6.283   3.364  0.4369  0.1759 -0.2230
  174SAPS  C21219805   5.437   6.144   3.516  0.0704  0.1422 -0.1049
  174SAPS  H12R19806   5.394   6.210   3.592 -0.8656 -1.4296  0.8012
  174SAPS  C21319807   5.453   6.008   3.573  0.6125 -0.1671  0.0615
  174SAPS  H13R19808   5.453   6.015   3.684 -3.6519 -0.5432  0.2384
  174SAPS  H13S19809   5.542   5.954   3.534  0.4817  0.4174 -1.0802
  174SAPS  C21419810   5.338   5.922   3.534 -0.1470  0.3193  0.0328
  174SAPS  H14R19811   5.285   5.945   3.440  1.2638  0.3934 -0.7739
  174SAPS  C21519812   5.298   5.811   3.598 -0.0343 -0.6302  0.2680
  174SAPS  H15R19813   5.231   5.743   3.544 -0.5956  1.2639 -1.5545
  174SAPS  C21619814   5.364   5.751   3.718 -0.5486  0.0528  0.1327
  174SAPS  H16R19815   5.442   5.816   3.761 -0.7653 -1.1441  2.4630
  174SAPS  H16S19816   5.408   5.651   3.694 -0.3948 -0.2021  1.4076
  174SAPS  C21719817   5.271   5.743   3.847  0.2209 -0.0385  1.0957
  174SAPS  H17R19818   5.238   5.639   3.867 -1.1685 -0.1124 -1.2590
  174SAPS  H17S19819   5.176   5.800   3.834 -0.0258 -0.6978 -0.1183
  174SAPS  C21819820   5.336   5.789   3.966 -0.5264 -0.5008 -0.3764
  174SAPS  H18R19821   5.324   5.899   3.955 -0.6527 -0.2323  2.0675
  174SAPS  H18S19822   5.444   5.766   3.975 -0.4740  0.3032  1.1990
  174SAPS  C21919823   5.257   5.761   4.090 -0.5864  0.0600  0.1487
  174SAPS  H19R19824   5.256   5.655   4.123 -0.9103 -0.3095 -0.9918
  174SAPS  H19S19825   5.149   5.772   4.066 -0.6107 -1.4484 -0.4851
  174SAPS  C22019826   5.285   5.855   4.207  0.4374 -0.2083  0.4004
  174SAPS  H20R19827   5.209   5.854   4.287 -2.2555  2.8041 -1.8743
  174SAPS  H20S19828   5.296   5.963   4.184  0.2528 -0.2007  0.3446
  174SAPS  H20T19829   5.382   5.821   4.250  2.2051 -0.0106 -3.0729
  174SAPS   C3319830   5.867   6.531   2.823 -0.5700 -0.3756 -0.2578
  174SAPS   H3X19831   5.785   6.456   2.814 -2.5014  1.5645  0.1349
  174SAPS   H3Y19832   5.827   6.633   2.802 -2.0202 -0.6156  1.1665
  174SAPS   C3419833   5.928   6.539   2.964  0.2172  0.7235  0.3935
  174SAPS   H4X19834   6.009   6.615   2.970 -0.0862  0.9992  1.2684
  174SAPS   H4Y19835   5.973   6.442   2.991 -0.7352  0.2200  0.2233
  174SAPS   C3519836   5.825   6.578   3.066  0.3760 -0.0805  0.5922
  174SAPS   H5X19837   5.738   6.511   3.051  1.2918 -1.1967  0.1454
  174SAPS   H5Y19838   5.798   6.685   3.052 -1.2503 -0.8278 -3.3163
  174SAPS   C3619839   5.871   6.554   3.210 -0.0548  0.4441 -0.2177
  174SAPS   H6X19840   5.967   6.611   3.215  0.5050 -0.5732  1.2236
  174SAPS   H6Y19841   5.899   6.446   3.216 -1.8302  0.0482  2.1993
  174SAPS   C3719842   5.767   6.580   3.324 -0.3099  0.2512 -0.5447
  174SAPS   H7X19843   5.664   6.546   3.300 -0.0093 -0.5629 -0.7170
  174SAPS   H7Y19844   5.764   6.690   3.341 -1.2485  0.1947 -0.3312
  174SAPS   C3819845   5.830   6.518   3.456 -0.0116 -0.7582  0.0881
  174SAPS   H8X19846   5.931   6.559   3.475 -0.7264  1.5045 -0.6348
  174SAPS   H8Y19847   5.845   6.409   3.448  0.4383 -0.6223 -1.0134
  174SAPS   C3919848   5.752   6.555   3.582  0.7204 -0.1128  0.1523
  174SAPS   H9X19849   5.748   6.666   3.579  0.1184 -0.0296  2.1855
  174SAPS   H9Y19850   5.810   6.525   3.672  1.4560  1.2360  0.1512
  174SAPS  C31019851   5.613   6.511   3.593  0.2578 -0.1072  0.0278
  174SAPS  H10X19852   5.595   6.406   3.561  0.3409 -0.3883  0.8755
  174SAPS  H10Y19853   5.537   6.574   3.541 -0.6136 -0.2136  1.1296
  174SAPS  C31119854   5.558   6.517   3.742 -0.9705 -0.0291  0.8284
  174SAPS  H11X19855   5.565   6.620   3.782 -0.3538  1.4882 -2.8212
  174SAPS  H11Y19856   5.633   6.454   3.796  0.7542  1.7288  0.6176
  174SAPS  C31219857   5.423   6.458   3.753  0.4043 -0.5029 -0.1472
  174SAPS  H12X19858   5.422   6.348   3.739 -0.5717 -0.5394  0.1513
  174SAPS  H12Y19859   5.364   6.506   3.673 -0.2780  0.6223  0.9917
  174SAPS  C31319860   5.354   6.496   3.879 -0.1773  0.0833 -0.3899
  174SAPS  H13X19861   5.335   6.605   3.870  0.1126  0.1343 -0.4062
  174SAPS  H13Y19862   5.418   6.480   3.968 -0.5482  2.0485  0.2777
  174SAPS  C31419863   5.215   6.430   3.899 -0.5834  0.3458 -0.1996
  174SAPS  H14X19864   5.242   6.322   3.895  2.2117  0.9729 -0.9011
  174SAPS  H14Y19865   5.143   6.453   3.817 -0.3084 -0.6732 -0.7485
  174SAPS  C31519866   5.171   6.462   4.039  0.1124  0.3623 -0.0052
  174SAPS  H15X19867   5.138   6.568   4.039 -1.6713 -0.1379  0.6449
  174SAPS  H15Y19868   5.259   6.454   4.106  1.9308 -1.6597 -2.4898
  174SAPS  C31619869   5.048   6.375   4.086 -0.1656  0.0385 -0.1266
  174SAPS  H16X19870   5.084   6.272   4.107 -0.9104  0.1940  2.2581
  174SAPS  H16Y19871   4.969   6.376   4.007  0.0623  1.1278 -0.3564
  174SAPS  C31719872   4.987   6.425   4.209 -0.2139  0.5644 -0.3789
  174SAPS  H17X19873   5.062   6.427   4.290  1.9695  0.2624 -2.2689
  174SAPS  H17Y19874   4.901   6.363   4.242  0.8756 -0.4508  0.6430
  174SAPS  C31819875   4.936   6.565   4.191  0.2730  0.4674  0.3992
  174SAPS  H18X19876   4.857   6.561   4.113  0.9170 -1.1580 -0.2027
  174SAPS  H18Y19877   5.010   6.639   4.152  1.8971 -1.1624  0.2367
  174SAPS  H18Z19878   4.905   6.590   4.294 -1.3131  0.3059 -0.0076
  175SAPS     N19879   3.284   0.677   2.132  0.0880 -0.1354 -0.0015
  175SAPS   HN119880   3.288   0.683   2.028 -4.0712  1.4059 -0.2708
  175SAPS   HN219881   3.183   0.678   2.156  0.3709  2.8588  1.6015
  175SAPS   HN319882   3.322   0.763   2.177  1.4314  0.3036 -1.8162
  175SAPS   C1219883   3.371   0.568   2.178 -0.0294  0.4533  0.0658
  175SAPS  H12A19884   3.320   0.477   2.151  3.1967 -0.6279 -3.2487
  175SAPS   C1319885   3.488   0.556   2.079  0.1205  0.3356  0.2663
  175SAPS  O13A19886   3.514   0.648   1.999 -0.2213 -0.1435 -0.3071
  175SAPS  O13B19887   3.576   0.474   2.113  0.4032  0.5035 -0.2926
  175SAPS   C1119888   3.407   0.574   2.330 -1.2072 -0.2052 -0.7007
  175SAPS  H11A19889   3.448   0.473   2.352 -0.6780  0.5770  2.3007
  175SAPS  H11B19890   3.311   0.594   2.382 -1.1353 -1.0215 -0.2429
  175SAPS     P19891   3.481   0.828   2.398 -0.1668  0.2436  0.1095
  175SAPS   O1319892   3.613   0.893   2.402  0.3949 -0.1983  0.4101
  175SAPS   O1419893   3.383   0.873   2.295 -0.4782  0.5070 -0.5663
  175SAPS   O1219894   3.508   0.672   2.370  0.1438 -0.1660  0.7514
  175SAPS   O1119895   3.428   0.827   2.542 -0.0961 -0.5947 -0.2579
  175SAPS    C119896   3.524   0.788   2.652 -0.1859  0.7608 -0.0961
  175SAPS    HA19897   3.631   0.819   2.649  1.2210 -3.0470  2.6115
  175SAPS    HB19898   3.496   0.841   2.746  2.6117 -0.1562  1.3755
  175SAPS    C219899   3.513   0.639   2.692  1.2111 -0.0948 -0.6906
  175SAPS    HS19900   3.528   0.586   2.595 -2.6392 -1.6521 -0.6146
  175SAPS   O2119901   3.370   0.620   2.739  0.2017 -0.8303  0.0438
  175SAPS   C2119902   3.308   0.511   2.693  0.0133  0.6420 -0.0900
  175SAPS   O2219903   3.366   0.420   2.635 -0.4868  0.0779  0.3691
  175SAPS   C2219904   3.160   0.543   2.680 -0.6017  0.2541  0.2585
  175SAPS   H2R19905   3.130   0.580   2.780  0.9362 -0.9010  1.1842
  175SAPS   H2S19906   3.146   0.626   2.607 -0.8865 -1.5883 -1.9000
  175SAPS    C319907   3.611   0.587   2.803  0.5901  0.2001  0.8740
  175SAPS    HX19908   3.595   0.659   2.887  1.2905  1.3781  0.0311
  175SAPS    HY19909   3.717   0.603   2.774  0.6145  0.5328  1.1404
  175SAPS   O3119910   3.575   0.456   2.843  0.2436 -0.4998 -0.4478
  175SAPS   C3119911   3.629   0.359   2.769  0.1034  0.5930  0.1871
  175SAPS   O3219912   3.692   0.377   2.667  0.2108 -0.5343 -0.2404
  175SAPS   C3219913   3.587   0.218   2.813  0.3475 -0.4262 -0.3292
  175SAPS   H2X19914   3.578   0.155   2.721  1.0217 -1.9823  0.6368
  175SAPS   H2Y19915   3.491   0.229   2.868  1.4378  0.4773  1.4599
  175SAPS   C2319916   3.078   0.424   2.625 -0.7075  0.0166 -0.0431
  175SAPS   H3R19917   3.105   0.330   2.677  0.8667  0.7349  0.5144
  175SAPS   H3S19918   3.116   0.406   2.522  0.1654  2.0636 -0.1406
  175SAPS   C2419919   2.935   0.455   2.609 -0.1717  0.2735  0.2737
  175SAPS   H4R19920   2.879   0.386   2.542 -0.1494  0.7873 -0.2841
  175SAPS   H4S19921   2.928   0.551   2.554  0.8530 -0.4657 -1.2052
  175SAPS   C2519922   2.851   0.444   2.741  0.5147  0.5257  0.2864
  175SAPS   H5R19923   2.837   0.343   2.784 -0.6314  0.8671  0.7406
  175SAPS   C2619924   2.796   0.553   2.804  0.4889 -0.1431  0.0948
  175SAPS   H6R19925   2.735   0.538   2.894 -1.2231 -1.3218 -1.1974
  175SAPS   C2719926   2.809   0.700   2.761  0.3716 -0.2371 -0.6468
  175SAPS   H7R19927   2.706   0.739   2.744  0.1668 -1.1129 -1.4558
  175SAPS   H7S19928   2.853   0.709   2.660  2.0137  1.7369  0.1683
  175SAPS   C2819929   2.882   0.792   2.856  0.1219  0.0355 -0.3073
  175SAPS   H8R19930   2.985   0.810   2.821  0.7220 -2.5861 -0.0520
  175SAPS   C2919931   2.838   0.839   2.975 -0.1046 -1.1134  0.2245
  175SAPS   H9R19932   2.908   0.894   3.039 -1.1663  0.6316 -0.0569
  175SAPS  C21019933   2.702   0.825   3.028 -0.2602  0.1481 -0.3762
  175SAPS  H10R19934   2.694   0.729   3.082 -2.1214 -0.6894 -2.0168
  175SAPS  H10S19935   2.631   0.821   2.943 -0.2545  2.0028 -0.5191
  175SAPS  C21119936   2.652   0.940   3.116 -0.4525 -0.6698  0.3725
  175SAPS  H11R19937   2.614   1.029   3.065  1.9311 -0.7533 -1.7340
  175SAPS  C21219938   2.659   0.939   3.252  0.1242 -0.0474 -0.1776
  175SAPS  H12R19939   2.619   1.028   3.304 -2.9638 -0.5553 -1.4750
  175SAPS  C21319940   2.708   0.830   3.350  0.0444 -0.3674 -0.1043
  175SAPS  H13R19941   2.620   0.772   3.385 -0.3133 -0.0171 -0.4071
  175SAPS  H13S19942   2.740   0.877   3.446  1.4602  0.7712 -1.0883
  175SAPS  C21419943   2.837   0.762   3.311  0.6209  0.7822 -0.3293
  175SAPS  H14R19944   2.931   0.818   3.317  0.8717  0.4139 -0.7502
  175SAPS  C21519945   2.845   0.633   3.280 -0.4657 -0.5589 -0.3820
  175SAPS  H15R19946   2.945   0.595   3.256 -0.0591 -0.3549  0.9414
  175SAPS  C21619947   2.734   0.531   3.256  0.0983  0.0378 -0.3613
  175SAPS  H16R19948   2.735   0.496   3.151 -0.9732  1.2243 -0.7932
  175SAPS  H16S19949   2.639   0.588   3.269 -0.9788 -1.4999 -1.1394
  175SAPS  C21719950   2.751   0.421   3.364 -0.3382  0.6782  0.4165
  175SAPS  H17R19951   2.762   0.465   3.465  0.3845  3.9762 -0.9440
  175SAPS  H17S19952   2.840   0.358   3.346  0.5547  2.2712 -1.1266
  175SAPS  C21819953   2.630   0.324   3.376  0.5546 -0.6105  0.0507
  175SAPS  H18R19954   2.660   0.249   3.452  1.6155 -1.6938 -1.3805
  175SAPS  H18S19955   2.602   0.266   3.286  0.7061 -2.0015  0.8619
  175SAPS  C21919956   2.504   0.404   3.436  0.2449 -0.4973  0.1642
  175SAPS  H19R19957   2.490   0.492   3.370  1.3095  1.0011  1.8602
  175SAPS  H19S19958   2.531   0.440   3.537  1.6944  0.6270 -0.5887
  175SAPS  C22019959   2.384   0.312   3.430 -0.5199  0.2214  0.0149
  175SAPS  H20R19960   2.298   0.365   3.475  0.5365  2.2055 -0.1801
  175SAPS  H20S19961   2.400   0.218   3.486  2.2636 -0.3226 -1.4998
  175SAPS  H20T19962   2.367   0.288   3.323  0.4551 -0.7908  0.0628
  175SAPS   C3319963   3.699   0.159   2.905  0.2020 -0.3543  0.2313
  175SAPS   H3X19964   3.795   0.155   2.850  0.7207 -0.4798  1.1207
  175SAPS   H3Y19965   3.685   0.050   2.925  1.2936 -1.2549 -3.1762
  175SAPS   C3419966   3.730   0.223   3.034  0.7772 -0.9286 -0.9342
  175SAPS   H4X19967   3.751   0.330   3.011 -1.5314 -0.2247 -0.0282
  175SAPS   H4Y19968   3.825   0.187   3.079  1.5250  0.5596 -1.2650
  175SAPS   C3519969   3.610   0.208   3.128  0.2331  0.2810 -0.4897
  175SAPS   H5X19970   3.599   0.103   3.163  1.2295  0.3051 -0.0621
  175SAPS   H5Y19971   3.522   0.249   3.073  0.7563  1.7871 -0.2561
  175SAPS   C3619972   3.636   0.296   3.249 -0.6539  0.3659  0.4405
  175SAPS   H6X19973   3.635   0.400   3.210  2.4817 -0.2389 -1.6415
  175SAPS   H6Y19974   3.734   0.263   3.288 -1.0270 -0.2427  0.8745
  175SAPS   C3719975   3.542   0.264   3.368  0.7184  0.2715  0.7818
  175SAPS   H7X19976   3.546   0.153   3.365  0.1955  0.2682 -0.6811
  175SAPS   H7Y19977   3.439   0.299   3.344  1.3768  1.8379  0.1067
  175SAPS   C3819978   3.591   0.304   3.507 -0.8086 -0.0468  0.0074
  175SAPS   H8X19979   3.576   0.414   3.512 -1.0953 -0.0792 -0.1370
  175SAPS   H8Y19980   3.698   0.275   3.511 -1.2735 -1.9548 -0.3106
  175SAPS   C3919981   3.519   0.228   3.617 -0.0432  0.1321  0.3092
  175SAPS   H9X19982   3.534   0.119   3.598  1.2612  0.4180 -0.3655
  175SAPS   H9Y19983   3.410   0.251   3.611 -0.0773 -0.1448 -0.1885
  175SAPS  C31019984   3.580   0.260   3.756  0.3808  0.8157 -0.1785
  175SAPS  H10X19985   3.584   0.369   3.775 -2.8663  1.1030 -0.5403
  175SAPS  H10Y19986   3.682   0.214   3.756 -0.4810 -1.2457  0.8425
  175SAPS  C31119987   3.495   0.199   3.878 -0.5120 -0.0234 -0.1376
  175SAPS  H11X19988   3.444   0.105   3.848 -0.7780 -0.4168  1.4736
  175SAPS  H11Y19989   3.411   0.270   3.886  0.4315  1.1776 -0.6256
  175SAPS  C31219990   3.571   0.172   4.009  0.0142  0.0363  0.1878
  175SAPS  H12X19991   3.648   0.096   3.986  0.1564  0.5080 -0.9953
  175SAPS  H12Y19992   3.504   0.117   4.078  0.1117 -0.2739  0.0384
  175SAPS  C31319993   3.642   0.291   4.081  0.2856  0.1214 -0.0578
  175SAPS  H13X19994   3.565   0.365   4.112  2.2681  1.9079  0.7654
  175SAPS  H13Y19995   3.710   0.348   4.015 -1.1338  0.5926 -1.1647
  175SAPS  C31419996   3.715   0.236   4.204 -0.2115  0.2897  1.0186
  175SAPS  H14X19997   3.646   0.158   4.242 -0.7725  0.0687 -0.4068
  175SAPS  H14Y19998   3.722   0.327   4.268  1.0474 -0.5196  2.0833
  175SAPS  C31519999   3.866   0.185   4.185 -0.1933 -0.1360  0.2394
  175SAPS  H15X20000   3.935   0.272   4.186  0.5729 -0.7313 -0.0672
  175SAPS  H15Y20001   3.869   0.135   4.086  0.1402  0.5271 -0.0948
  175SAPS  C31620002   3.913   0.097   4.298 -0.4038  0.7702 -0.5141
  175SAPS  H16X20003   3.859   0.001   4.307  1.2536 -0.1708 -0.1428
  175SAPS  H16Y20004   3.913   0.150   4.396  0.5856 -1.6503  0.8680
  175SAPS  C31720005   4.067   0.070   4.288  0.5606 -0.0436 -0.0035
  175SAPS  H17X20006   4.115   0.169   4.275 -1.8448  1.1462 -0.5735
  175SAPS  H17Y20007   4.078  -0.000   4.202  0.6279 -1.8571  1.4247
  175SAPS  C31820008   4.125   0.006   4.414 -0.4496  0.3018  0.4780
  175SAPS  H18X20009   4.225  -0.041   4.406 -1.5054 -2.3225  1.6784
  175SAPS  H18Y20010   4.057  -0.080   4.433  0.7429 -0.9060 -0.5769
  175SAPS  H18Z20011   4.124   0.079   4.498  0.0664  0.6264  0.2028
  176SAPS     N20012   3.536   5.926   2.127  0.3470  0.0934  0.2339
  176SAPS   HN120013   3.567   5.864   2.050  0.1896  0.7333 -0.3512
  176SAPS   HN220014   3.549   5.872   2.215 -1.3063 -1.0261 -0.1852
  176SAPS   HN320015   3.434   5.939   2.113  0.0978 -0.3598  1.5014
  176SAPS   C1220016   3.605   6.064   2.125 -0.2881  0.3230  0.1698
  176SAPS  H12A20017   3.700   6.039   2.169 -1.2380  0.8217  2.7122
  176SAPS   C1320018   3.616   6.143   1.986 -0.3398  0.2692  0.3134
  176SAPS  O13A20019   3.556   6.100   1.884 -0.9773  0.0563 -0.0204
  176SAPS  O13B20020   3.660   6.260   1.993  0.2593  0.1631 -0.2914
  176SAPS   C1120021   3.527   6.148   2.229  0.2102 -0.8015  0.2835
  176SAPS  H11A20022   3.579   6.243   2.254 -3.4905  1.1235  1.4442
  176SAPS  H11B20023   3.534   6.082   2.318 -1.2868 -2.2168 -0.5916
  176SAPS     P20024   3.292   6.269   2.267 -0.7100 -0.3384 -0.4217
  176SAPS   O1320025   3.331   6.410   2.246  0.4414 -0.1284  0.1016
  176SAPS   O1420026   3.159   6.222   2.224 -0.5975  0.1214 -0.1832
  176SAPS   O1220027   3.392   6.174   2.184  0.4154 -0.3231 -0.0409
  176SAPS   O1120028   3.312   6.217   2.422 -0.2465  0.2141 -0.1902
  176SAPS    C120029   3.261   6.089   2.450 -0.5833 -0.4410  0.2815
  176SAPS    HA20030   3.202   6.037   2.372 -1.7001  0.3073  0.5983
  176SAPS    HB20031   3.348   6.023   2.469  0.4205 -0.0716 -2.6164
  176SAPS    C220032   3.180   6.102   2.582 -0.1450 -0.1029  0.1168
  176SAPS    HS20033   3.100   6.177   2.562 -0.0259 -0.1254 -0.4773
  176SAPS   O2120034   3.267   6.136   2.692  0.2316 -0.0982 -0.4080
  176SAPS   C2120035   3.220   6.213   2.790 -0.4137  0.1829 -0.0874
  176SAPS   O2220036   3.112   6.271   2.783  0.0588 -0.8100 -0.3088
  176SAPS   C2220037   3.317   6.206   2.905  1.2727  0.1053  0.2033
  176SAPS   H2R20038   3.348   6.104   2.937 -1.8958 -0.9084  0.3009
  176SAPS   H2S20039   3.410   6.259   2.873  2.9817 -3.4512 -1.2507
  176SAPS    C320040   3.102   5.968   2.608  0.1353 -0.4128  0.3093
  176SAPS    HX20041   3.058   5.954   2.507  1.5323  2.1155 -0.7383
  176SAPS    HY20042   3.015   5.969   2.677 -1.1858 -1.1882 -1.2781
  176SAPS   O3120043   3.194   5.864   2.636  0.4865 -0.2917 -0.2998
  176SAPS   C3120044   3.191   5.819   2.758 -0.4941  0.0693 -0.5566
  176SAPS   O3220045   3.124   5.859   2.850 -0.6880 -0.9824 -0.6362
  176SAPS   C3220046   3.281   5.692   2.765  0.1874  0.8852  0.0635
  176SAPS   H2X20047   3.382   5.718   2.725 -0.2770 -0.1744 -1.9092
  176SAPS   H2Y20048   3.229   5.623   2.696  2.0943 -0.1618 -0.4109
  176SAPS   C2320049   3.249   6.275   3.029 -0.4102 -0.0573  0.0778
  176SAPS   H3R20050   3.231   6.380   2.997  1.4354  0.3741  0.3279
  176SAPS   H3S20051   3.341   6.284   3.091  0.6443 -0.6410 -1.3365
  176SAPS   C2420052   3.142   6.199   3.112 -0.5327 -0.0521 -0.2465
  176SAPS   H4R20053   3.048   6.202   3.053 -0.4730 -0.4222 -0.3608
  176SAPS   H4S20054   3.123   6.254   3.207  0.0545 -0.9321  0.3957
  176SAPS   C2520055   3.171   6.052   3.136  0.1804  0.2075 -0.3667
  176SAPS   H5R20056   3.156   5.993   3.044 -0.3967  1.8611 -1.3700
  176SAPS   C2620057   3.228   6.000   3.247 -0.2198  0.2083 -0.5546
  176SAPS   H6R20058   3.240   5.891   3.242 -1.6835 -0.0571  0.9265
  176SAPS   C2720059   3.275   6.075   3.367 -0.6777  0.1313 -0.1081
  176SAPS   H7R20060   3.200   6.150   3.398  1.2842  1.9397  0.5405
  176SAPS   H7S20061   3.373   6.127   3.361 -0.7170  0.1360 -0.7729
  176SAPS   C2820062   3.301   5.978   3.481 -0.3059 -0.2699  0.2993
  176SAPS   H8R20063   3.388   5.913   3.467  0.0966 -0.2069  2.1791
  176SAPS   C2920064   3.238   5.955   3.593 -0.4392  0.1776 -0.4954
  176SAPS   H9R20065   3.272   5.872   3.656 -1.1569  1.7512  2.1194
  176SAPS  C21020066   3.118   6.024   3.652 -0.0985 -0.5567  0.7238
  176SAPS  H10R20067   3.038   5.983   3.586 -1.1362  2.1416  0.1742
  176SAPS  H10S20068   3.117   6.133   3.633 -3.3216 -0.5879  0.0909
  176SAPS  C21120069   3.093   5.990   3.795  0.2180 -0.1222  0.5490
  176SAPS  H11R20070   3.042   5.892   3.797  1.0255 -0.5915 -0.5016
  176SAPS  C21220071   3.106   6.073   3.902 -0.6925  0.0721 -0.5347
  176SAPS  H12R20072   3.093   6.032   4.003  0.0458  2.1872  0.4702
  176SAPS  C21320073   3.162   6.211   3.908 -0.3492  0.6412 -0.2303
  176SAPS  H13R20074   3.153   6.261   3.809  0.4703  2.3848  0.5290
  176SAPS  H13S20075   3.270   6.184   3.911 -0.8049 -1.3348  0.2573
  176SAPS  C21420076   3.125   6.301   4.019  0.3472  0.4131 -0.0806
  176SAPS  H14R20077   3.045   6.370   3.988  0.3053 -0.0274 -0.9965
  176SAPS  C21520078   3.168   6.314   4.147  0.0515  0.0162 -0.6808
  176SAPS  H15R20079   3.117   6.379   4.220 -0.8811 -0.4031 -0.9555
  176SAPS  C21620080   3.283   6.229   4.200  0.1707 -0.4494  0.4090
  176SAPS  H16R20081   3.360   6.202   4.124 -0.2792 -0.4126 -0.0686
  176SAPS  H16S20082   3.250   6.125   4.222  1.1685 -0.9933 -0.5613
  176SAPS  C21720083   3.352   6.287   4.325  0.2220 -0.0528  0.4834
  176SAPS  H17R20084   3.390   6.388   4.300 -1.1538 -0.2446 -2.9022
  176SAPS  H17S20085   3.442   6.223   4.342  2.6486  2.9133 -0.2857
  176SAPS  C21820086   3.265   6.294   4.452 -0.3874 -0.0980  0.2941
  176SAPS  H18R20087   3.207   6.200   4.441 -0.6206  0.1505 -0.7469
  176SAPS  H18S20088   3.186   6.372   4.452  0.0398  0.3455  0.4851
  176SAPS  C21920089   3.338   6.293   4.589  0.3375 -0.0070 -0.2742
  176SAPS  H19R20090   3.397   6.199   4.581  0.0258 -0.1163 -1.4358
  176SAPS  H19S20091   3.269   6.273   4.673  0.5663 -2.5176 -0.6249
  176SAPS  C22020092   3.439   6.408   4.617  0.0334  0.2319 -0.6299
  176SAPS  H20R20093   3.498   6.431   4.525 -0.4213 -0.0193 -0.9913
  176SAPS  H20S20094   3.507   6.369   4.696 -1.6902 -0.7818  0.4124
  176SAPS  H20T20095   3.395   6.504   4.651  1.8548  0.2664  1.8671
  176SAPS   C3320096   3.273   5.626   2.902 -0.2046  0.3297  0.7965
  176SAPS   H3X20097   3.311   5.522   2.890  0.4164  0.5907  0.4585
  176SAPS   H3Y20098   3.170   5.625   2.944 -0.9492  0.9447 -0.9144
  176SAPS   C3420099   3.376   5.689   2.997 -0.5619  0.1170 -0.1673
  176SAPS   H4X20100   3.339   5.788   3.032 -2.5752 -0.1861 -1.2612
  176SAPS   H4Y20101   3.477   5.698   2.953 -0.2153  0.0147  0.5932
  176SAPS   C3520102   3.412   5.604   3.121 -0.0279 -0.0787  0.5241
  176SAPS   H5X20103   3.435   5.498   3.098 -2.0828 -0.2483 -1.0123
  176SAPS   H5Y20104   3.325   5.588   3.188 -1.3661 -0.5288 -1.2477
  176SAPS   C3620105   3.506   5.671   3.220 -0.2146 -0.4604 -0.1010
  176SAPS   H6X20106   3.476   5.774   3.248  2.6836  0.0344  1.6176
  176SAPS   H6Y20107   3.600   5.687   3.163  0.3313  0.1070  0.9373
  176SAPS   C3720108   3.534   5.591   3.349 -0.1219  0.5213  0.3820
  176SAPS   H7X20109   3.586   5.496   3.326 -1.2048 -0.2465  1.0029
  176SAPS   H7Y20110   3.431   5.566   3.384 -0.8353  2.1177 -0.4289
  176SAPS   C3820111   3.615   5.664   3.451  0.1198  0.8729 -0.3312
  176SAPS   H8X20112   3.563   5.760   3.470  1.5649  1.8489 -1.1365
  176SAPS   H8Y20113   3.721   5.677   3.421 -0.1962  2.9248 -0.6605
  176SAPS   C3920114   3.621   5.585   3.577 -0.0348  0.8069 -0.1055
  176SAPS   H9X20115   3.641   5.481   3.544 -0.0904  0.3964  1.1036
  176SAPS   H9Y20116   3.518   5.576   3.619  0.4655  0.9554  1.1982
  176SAPS  C31020117   3.707   5.639   3.683  0.3828 -0.8998  0.6625
  176SAPS  H10X20118   3.673   5.740   3.714 -0.3782 -1.0063  0.2066
  176SAPS  H10Y20119   3.808   5.644   3.636  0.7560 -1.3736  1.3949
  176SAPS  C31120120   3.707   5.552   3.813 -0.3048  0.3191  0.2686
  176SAPS  H11X20121   3.730   5.447   3.783 -1.8524  0.7172 -2.6731
  176SAPS  H11Y20122   3.607   5.567   3.858 -0.0778 -1.3065  1.4279
  176SAPS  C31220123   3.823   5.588   3.915  0.0216  0.1306  0.7943
  176SAPS  H12X20124   3.843   5.697   3.913  2.3217 -0.1848 -2.4902
  176SAPS  H12Y20125   3.922   5.555   3.877 -1.4147 -1.7458 -1.5783
  176SAPS  C31320126   3.806   5.545   4.056  0.6674  0.1283  0.4688
  176SAPS  H13X20127   3.899   5.539   4.116 -1.0414 -1.4644  3.2182
  176SAPS  H13Y20128   3.762   5.443   4.065  2.0782 -0.5124  0.3063
  176SAPS  C31420129   3.715   5.646   4.133  0.2224  0.0571  0.4058
  176SAPS  H14X20130   3.614   5.651   4.086 -0.1557  0.1516  1.2063
  176SAPS  H14Y20131   3.755   5.747   4.107 -3.3150  1.2158 -1.2401
  176SAPS  C31520132   3.702   5.613   4.280  0.1119  0.3970  0.6933
  176SAPS  H15X20133   3.653   5.693   4.339  0.9020  0.3804  1.3969
  176SAPS  H15Y20134   3.803   5.596   4.323 -0.1118 -0.4432  0.9198
  176SAPS  C31620135   3.622   5.484   4.304  0.2010 -0.1297 -0.5039
  176SAPS  H16X20136   3.679   5.397   4.265  2.3181  0.1732  1.6540
  176SAPS  H16Y20137   3.527   5.495   4.248 -0.4952 -0.9025  0.4805
  176SAPS  C31720138   3.589   5.466   4.451 -0.1491 -0.6572  0.5524
  176SAPS  H17X20139   3.562   5.560   4.504 -3.4257 -0.8120 -0.6237
  176SAPS  H17Y20140   3.680   5.423   4.498  0.5539 -0.2265 -0.3692
  176SAPS  C31820141   3.473   5.374   4.465 -0.4612 -0.0464 -0.3247
  176SAPS  H18X20142   3.435   5.380   4.569  1.1333 -1.8249  0.3998
  176SAPS  H18Y20143   3.508   5.272   4.440  2.1389 -0.0547  2.7170
  176SAPS  H18Z20144   3.401   5.398   4.383 -0.4379  2.2748  0.2773
  177SAPS     N20145   5.063   2.017   2.269  0.4744  0.3000 -0.1169
  177SAPS   HN120146   5.057   2.119   2.251  1.9728  0.0119 -2.6304
  177SAPS   HN220147   5.001   1.990   2.349  0.3912 -0.2111 -0.3498
  177SAPS   HN320148   5.158   1.979   2.288 -0.0256 -1.0311 -0.1143
  177SAPS   C1220149   5.007   1.930   2.161 -0.0948  0.5586  0.2649
  177SAPS  H12A20150   4.903   1.958   2.148  0.0679  1.3757  0.6775
  177SAPS   C1320151   5.060   1.951   2.013  0.2328  0.6019  0.5713
  177SAPS  O13A20152   5.139   2.044   1.989 -1.0466 -0.1131 -0.3019
  177SAPS  O13B20153   4.996   1.899   1.924  0.3638  0.6363 -0.5795
  177SAPS   C1120154   5.008   1.783   2.216 -0.3175  0.5416 -0.1028
  177SAPS  H11A20155   5.087   1.754   2.288 -1.7951 -1.7554  0.7098
  177SAPS  H11B20156   5.019   1.713   2.130 -1.4952 -0.3141  0.4076
  177SAPS     P20157   4.849   1.784   2.427  0.1861  0.3078 -0.1495
  177SAPS   O1320158   4.957   1.867   2.476  0.3128  0.1495 -0.2143
  177SAPS   O1420159   4.708   1.831   2.442  0.4582  0.0887 -0.0758
  177SAPS   O1220160   4.878   1.756   2.271  0.4616  0.0474  0.3003
  177SAPS   O1120161   4.864   1.633   2.478 -0.2140 -0.3953 -0.0720
  177SAPS    C120162   4.777   1.530   2.426  0.4211  0.2170 -0.2212
  177SAPS    HA20163   4.693   1.559   2.360 -1.3736 -1.4966  1.2015
  177SAPS    HB20164   4.834   1.451   2.374  0.0153  0.0248 -0.3756
  177SAPS    C220165   4.707   1.453   2.549  0.9180 -0.4160  0.0061
  177SAPS    HS20166   4.634   1.379   2.511 -1.3311  1.4531  0.4501
  177SAPS   O2120167   4.629   1.549   2.630 -0.0341  0.1946 -0.1009
  177SAPS   C2120168   4.527   1.600   2.563  0.7177 -0.5197 -0.0933
  177SAPS   O2220169   4.474   1.567   2.457  0.1707  0.1547 -0.2208
  177SAPS   C2220170   4.441   1.669   2.671  0.1176 -0.5381  0.4297
  177SAPS   H2R20171   4.473   1.775   2.661  0.2997 -0.7504 -1.5200
  177SAPS   H2S20172   4.336   1.667   2.634 -0.0771 -0.8901  0.9804
  177SAPS    C320173   4.806   1.360   2.640  0.4951 -0.2601  0.4509
  177SAPS    HX20174   4.893   1.424   2.666 -0.1417  1.1633 -0.7581
  177SAPS    HY20175   4.838   1.279   2.571 -0.9364 -1.4411  1.0890
  177SAPS   O3120176   4.735   1.309   2.761 -0.2970  0.0405 -0.0167
  177SAPS   C3120177   4.777   1.359   2.883 -0.4159  0.2084 -0.1835
  177SAPS   O3220178   4.862   1.444   2.898 -0.4396 -0.2113 -0.7038
  177SAPS   C3220179   4.698   1.298   2.992 -0.3679 -0.0639 -0.0565
  177SAPS   H2X20180   4.730   1.193   3.008  1.1846  0.2220 -1.0763
  177SAPS   H2Y20181   4.590   1.304   2.966  0.0130 -0.9265 -2.0054
  177SAPS   C2320182   4.444   1.606   2.810  0.6897 -0.1422  0.2231
  177SAPS   H3R20183   4.534   1.638   2.867  0.9913  0.8675 -0.7794
  177SAPS   H3S20184   4.469   1.498   2.803 -1.3292 -0.5821 -0.9915
  177SAPS   C2420185   4.318   1.629   2.893  0.5271  0.7157 -0.5894
  177SAPS   H4R20186   4.321   1.551   2.973 -2.0116 -0.0171 -1.1124
  177SAPS   H4S20187   4.237   1.613   2.818 -0.4030  1.4304  0.2301
  177SAPS   C2520188   4.306   1.761   2.951  0.1025 -0.4302  0.5806
  177SAPS   H5R20189   4.333   1.842   2.882 -2.1871 -0.7573 -0.7997
  177SAPS   C2620190   4.280   1.795   3.080 -0.3464 -0.0756 -0.6253
  177SAPS   H6R20191   4.283   1.902   3.106 -0.9924 -0.6137  1.8904
  177SAPS   C2720192   4.232   1.697   3.177 -0.5214  0.0775 -0.5002
  177SAPS   H7R20193   4.183   1.608   3.132  2.1717 -1.7705 -0.0852
  177SAPS   H7S20194   4.162   1.751   3.244 -0.7020  1.2981 -1.6390
  177SAPS   C2820195   4.349   1.644   3.252  0.7256 -0.2956 -0.4437
  177SAPS   H8R20196   4.426   1.604   3.184  1.8372 -0.4018  0.8415
  177SAPS   C2920197   4.376   1.653   3.381 -0.2625 -0.6120 -0.0569
  177SAPS   H9R20198   4.466   1.600   3.415 -0.7456 -2.5231 -1.5260
  177SAPS  C21020199   4.301   1.698   3.501 -0.0857 -0.8422  0.4015
  177SAPS  H10R20200   4.366   1.677   3.588  0.4395 -2.1639 -0.2886
  177SAPS  H10S20201   4.213   1.631   3.511  0.3872 -1.5662 -0.2135
  177SAPS  C21120202   4.273   1.848   3.502  0.3513 -0.5633  0.2469
  177SAPS  H11R20203   4.317   1.906   3.419 -1.4939  0.8233  0.1736
  177SAPS  C21220204   4.204   1.917   3.597 -0.3081  0.4809  0.1357
  177SAPS  H12R20205   4.193   2.026   3.585  0.6143  0.5472 -0.1331
  177SAPS  C21320206   4.131   1.858   3.714  0.4104  0.8176 -0.2891
  177SAPS  H13R20207   4.068   1.772   3.682  1.0765 -0.3611  1.3705
  177SAPS  H13S20208   4.052   1.929   3.744  0.6934  0.5187  1.2715
  177SAPS  C21420209   4.205   1.810   3.834 -0.2485 -0.7432 -0.0274
  177SAPS  H14R20210   4.283   1.737   3.807 -1.0789 -1.5104 -0.4062
  177SAPS  C21520211   4.176   1.844   3.960  0.5419 -1.1621 -0.1436
  177SAPS  H15R20212   4.226   1.815   4.054 -1.3094 -0.1931  1.2325
  177SAPS  C21620213   4.053   1.939   3.991 -0.1381 -0.6919 -0.4469
  177SAPS  H16R20214   3.953   1.904   3.956 -0.1345 -1.8055  0.6070
  177SAPS  H16S20215   4.076   2.035   3.938  0.5144 -1.4868 -1.6558
  177SAPS  C21720216   4.049   1.962   4.146  0.7344  0.4651  0.3994
  177SAPS  H17R20217   3.972   2.036   4.177  1.3691  0.3133  2.5190
  177SAPS  H17S20218   4.146   2.006   4.179  0.6509  1.1031 -0.1908
  177SAPS  C21820219   4.010   1.832   4.225 -0.3162  1.2053 -0.8258
  177SAPS  H18R20220   4.093   1.758   4.225 -0.0236  1.4953  0.8065
  177SAPS  H18S20221   3.926   1.781   4.174 -1.0319 -0.1679  1.5631
  177SAPS  C21920222   3.944   1.866   4.359 -0.3083  0.5463  0.7233
  177SAPS  H19R20223   3.836   1.882   4.340 -0.5773 -1.8922 -0.0582
  177SAPS  H19S20224   4.005   1.953   4.390  0.5092 -0.2241  1.2997
  177SAPS  C22020225   3.961   1.763   4.464  0.6274  0.3328 -0.0087
  177SAPS  H20R20226   4.060   1.713   4.460 -0.7362 -2.6581  0.8747
  177SAPS  H20S20227   3.881   1.687   4.460 -0.2956  1.2609  0.2439
  177SAPS  H20T20228   3.957   1.812   4.564  0.0420 -0.4887  0.3757
  177SAPS   C3320229   4.716   1.370   3.128 -0.1859 -0.3933  0.8019
  177SAPS   H3X20230   4.688   1.477   3.117 -0.7853 -0.7639 -1.7852
  177SAPS   H3Y20231   4.823   1.353   3.154 -0.1233 -0.5235  0.4587
  177SAPS   C3420232   4.632   1.313   3.240  0.0258 -0.8858 -1.3740
  177SAPS   H4X20233   4.652   1.204   3.247  1.6135 -0.7120 -2.6769
  177SAPS   H4Y20234   4.526   1.330   3.212 -0.0370  0.0556 -0.6037
  177SAPS   C3520235   4.659   1.371   3.382 -0.4229 -0.4058 -0.2150
  177SAPS   H5X20236   4.645   1.482   3.378 -1.6712 -0.5618 -0.5260
  177SAPS   H5Y20237   4.763   1.367   3.421 -0.9274  1.4147  1.4915
  177SAPS   C3620238   4.556   1.313   3.493 -0.1491  0.5405 -0.8936
  177SAPS   H6X20239   4.578   1.205   3.505  0.9219  0.7872 -0.4018
  177SAPS   H6Y20240   4.453   1.319   3.453  0.2627  1.8361 -1.8360
  177SAPS   C3720241   4.577   1.381   3.623  0.8522 -0.6937 -0.0069
  177SAPS   H7X20242   4.544   1.486   3.610 -0.6462 -0.9912  1.0501
  177SAPS   H7Y20243   4.684   1.374   3.650  0.6464 -0.3738  0.9640
  177SAPS   C3820244   4.498   1.304   3.731 -0.2262 -0.5402 -0.5470
  177SAPS   H8X20245   4.546   1.204   3.723 -1.2213 -0.8755 -3.2599
  177SAPS   H8Y20246   4.394   1.287   3.699 -0.2839  0.2837 -0.8157
  177SAPS   C3920247   4.496   1.371   3.868 -0.0416 -0.1896 -0.3400
  177SAPS   H9X20248   4.417   1.449   3.864  0.2851  0.1037 -1.4237
  177SAPS   H9Y20249   4.596   1.415   3.886  0.6043 -1.9670  0.6442
  177SAPS  C31020250   4.450   1.281   3.983 -0.2856  0.2417  0.6461
  177SAPS  H10X20251   4.489   1.318   4.080 -2.2017 -0.3556  1.6976
  177SAPS  H10Y20252   4.506   1.188   3.960 -3.2048 -1.4127 -0.3762
  177SAPS  C31120253   4.303   1.235   3.981  0.7426 -0.3298 -0.3034
  177SAPS  H11X20254   4.280   1.193   3.881  0.7957 -1.9366  0.3400
  177SAPS  H11Y20255   4.245   1.327   4.003  1.2230 -0.4306  1.4874
  177SAPS  C31220256   4.271   1.119   4.074 -0.3095  0.0366  0.6882
  177SAPS  H12X20257   4.332   1.029   4.051  2.0778  1.6986  0.1309
  177SAPS  H12Y20258   4.169   1.078   4.055 -0.1789  0.4001 -0.9575
  177SAPS  C31320259   4.291   1.142   4.219 -0.9522  0.4094 -0.3262
  177SAPS  H13X20260   4.400   1.162   4.224 -0.0627 -2.0592 -4.7747
  177SAPS  H13Y20261   4.265   1.060   4.289 -1.1717  0.8994  0.1795
  177SAPS  C31420262   4.221   1.270   4.276 -0.4900  0.3680  0.0263
  177SAPS  H14X20263   4.114   1.278   4.246 -1.4806 -1.8760  2.5106
  177SAPS  H14Y20264   4.272   1.359   4.233  0.4341 -1.3295 -2.6045
  177SAPS  C31520265   4.214   1.268   4.430 -0.1984  0.3385  0.2707
  177SAPS  H15X20266   4.199   1.163   4.463 -1.5675  0.5974  0.5174
  177SAPS  H15Y20267   4.133   1.335   4.467  0.0666  1.7925 -1.6605
  177SAPS  C31620268   4.340   1.327   4.480 -0.5896 -0.2891  0.5853
  177SAPS  H16X20269   4.370   1.417   4.423  2.0843  0.0352  2.3042
  177SAPS  H16Y20270   4.426   1.262   4.454 -0.4805  0.1986 -0.2728
  177SAPS  C31720271   4.331   1.357   4.627  0.2788  0.2526  0.2434
  177SAPS  H17X20272   4.306   1.263   4.681  1.1995 -1.7954 -2.5829
  177SAPS  H17Y20273   4.252   1.432   4.648  1.3697  1.4750  0.0911
  177SAPS  C31820274   4.462   1.389   4.695 -0.7423  0.0083 -0.1768
  177SAPS  H18X20275   4.540   1.317   4.663 -0.5026  0.0524  0.2978
  177SAPS  H18Y20276   4.447   1.380   4.804 -0.9624 -1.4626 -0.3091
  177SAPS  H18Z20277   4.498   1.490   4.665  0.9237 -0.3371  0.5902
  178SAPS     N20278   4.695   2.851   2.124  0.2463 -0.3456 -0.3074
  178SAPS   HN120279   4.758   2.871   2.204 -0.9565 -1.9729  1.1171
  178SAPS   HN220280   4.743   2.854   2.032 -1.7805  1.2970 -1.4130
  178SAPS   HN320281   4.628   2.931   2.123  0.4181 -0.1998 -0.9402
  178SAPS   C1220282   4.623   2.720   2.128  0.0378 -0.5473  0.5222
  178SAPS  H12A20283   4.544   2.728   2.202  1.1027  3.4761  1.4579
  178SAPS   C1320284   4.552   2.684   1.997  0.3157  0.3008  0.4505
  178SAPS  O13A20285   4.568   2.760   1.898  0.1032  0.1361  0.3165
  178SAPS  O13B20286   4.461   2.597   1.993  0.4532 -0.0585  0.6695
  178SAPS   C1120287   4.711   2.608   2.178 -0.2361 -0.5702 -0.4252
  178SAPS  H11A20288   4.792   2.607   2.103 -0.2140  0.9649 -0.4532
  178SAPS  H11B20289   4.653   2.512   2.178  0.5342 -1.0724  0.9421
  178SAPS     P20290   4.865   2.535   2.376 -0.4327 -0.3476 -0.2885
  178SAPS   O1320291   4.967   2.518   2.268  0.2385  0.3830  0.9548
  178SAPS   O1420292   4.917   2.596   2.501  0.4011  0.4329 -0.1216
  178SAPS   O1220293   4.757   2.633   2.309 -0.0545  0.5261 -0.3715
  178SAPS   O1120294   4.786   2.403   2.387 -0.5544 -0.1464 -0.8574
  178SAPS    C120295   4.677   2.397   2.487 -0.2225 -0.3332  0.8242
  178SAPS    HA20296   4.630   2.497   2.499 -1.2670 -0.4646 -1.5600
  178SAPS    HB20297   4.589   2.344   2.444 -0.4976 -0.8299  1.9595
  178SAPS    C220298   4.710   2.331   2.629  0.0038 -0.6199  0.1129
  178SAPS    HS20299   4.622   2.278   2.670 -2.1075  3.0302  0.7469
  178SAPS   O2120300   4.756   2.423   2.723  0.4146 -0.0663 -0.1107
  178SAPS   C2120301   4.722   2.403   2.849  0.1048  0.1948 -0.1165
  178SAPS   O2220302   4.650   2.308   2.891 -0.6411 -0.5016 -0.0010
  178SAPS   C2220303   4.773   2.523   2.935 -0.1754  0.8677 -0.1201
  178SAPS   H2R20304   4.863   2.569   2.888  1.0351 -1.3376 -0.1008
  178SAPS   H2S20305   4.689   2.594   2.947 -1.6942 -0.2630 -3.1315
  178SAPS    C320306   4.814   2.227   2.606 -0.1629 -0.0771 -0.4174
  178SAPS    HX20307   4.897   2.289   2.567 -0.7286  1.6696  1.0556
  178SAPS    HY20308   4.785   2.152   2.529  1.1671 -0.6460 -0.3946
  178SAPS   O3120309   4.870   2.163   2.719 -0.6605 -0.2145 -0.0064
  178SAPS   C3120310   4.782   2.063   2.748  0.1744  0.0330  0.1484
  178SAPS   O3220311   4.681   2.032   2.689  0.0599  0.3507  0.4909
  178SAPS   C3220312   4.825   1.997   2.878 -0.3163  0.4188 -0.3704
  178SAPS   H2X20313   4.817   2.074   2.957 -2.7302  0.5770 -0.6924
  178SAPS   H2Y20314   4.930   1.962   2.870  0.1986  2.0337 -0.9836
  178SAPS   C2320315   4.825   2.478   3.074  0.9535 -0.0413  0.8657
  178SAPS   H3R20316   4.862   2.374   3.066 -0.0929 -0.2842 -1.6832
  178SAPS   H3S20317   4.738   2.458   3.141  0.0784 -1.2469 -0.5691
  178SAPS   C2420318   4.926   2.571   3.140 -0.8167  0.4341  0.2606
  178SAPS   H4R20319   5.005   2.594   3.066 -0.9086  2.7734  0.8215
  178SAPS   H4S20320   4.974   2.503   3.213 -0.6042  0.6743  0.3455
  178SAPS   C2520321   4.875   2.684   3.220 -0.1367  0.2138  0.0149
  178SAPS   H5R20322   4.839   2.764   3.155  1.2899  0.0484 -1.0342
  178SAPS   C2620323   4.882   2.696   3.356  0.0403  0.3739 -0.3965
  178SAPS   H6R20324   4.835   2.788   3.394 -1.6996 -0.9727  0.9298
  178SAPS   C2720325   4.906   2.590   3.469  0.6297  0.0158 -0.0708
  178SAPS   H7R20326   4.865   2.491   3.442  0.5494 -0.1799  0.7394
  178SAPS   H7S20327   4.843   2.615   3.558  0.2198  0.6007 -0.5163
  178SAPS   C2820328   5.054   2.574   3.498 -0.9124  0.6117  0.0680
  178SAPS   H8R20329   5.120   2.571   3.411 -0.5854  1.8112  0.2539
  178SAPS   C2920330   5.106   2.585   3.619 -0.3499 -0.2928  0.3468
  178SAPS   H9R20331   5.213   2.562   3.629 -0.4122 -0.1651  1.4046
  178SAPS  C21020332   5.034   2.598   3.754 -0.6806 -0.5120 -0.4193
  178SAPS  H10R20333   4.951   2.671   3.747  0.0183  0.4105  0.6594
  178SAPS  H10S20334   5.114   2.636   3.821  0.2285 -0.8945 -1.2503
  178SAPS  C21120335   4.974   2.465   3.797  0.3035 -0.3481 -0.0377
  178SAPS  H11R20336   4.945   2.398   3.714  1.5216  0.4930 -1.1827
  178SAPS  C21220337   4.957   2.430   3.927  0.5621 -0.3065  0.7068
  178SAPS  H12R20338   4.903   2.335   3.939 -2.7682  1.2099 -0.8496
  178SAPS  C21320339   4.985   2.521   4.045 -0.3784 -0.1150  0.5004
  178SAPS  H13R20340   4.950   2.623   4.016 -1.7226 -0.4259  1.0010
  178SAPS  H13S20341   5.095   2.532   4.056 -0.3249  2.3487 -1.3798
  178SAPS  C21420342   4.914   2.479   4.171 -0.8858  0.0925 -0.0990
  178SAPS  H14R20343   4.919   2.372   4.192 -0.2434  0.0305 -0.5169
  178SAPS  C21520344   4.841   2.557   4.258  0.3801  0.0103 -0.0328
  178SAPS  H15R20345   4.794   2.520   4.351  0.2028  1.7663  0.6157
  178SAPS  C21620346   4.808   2.704   4.249 -0.1736 -0.1109 -0.4180
  178SAPS  H16R20347   4.712   2.716   4.196 -1.0743 -1.7280  0.7622
  178SAPS  H16S20348   4.890   2.754   4.193  0.0354  2.0551  1.6592
  178SAPS  C21720349   4.821   2.765   4.392 -0.5147  0.3977  1.0550
  178SAPS  H17R20350   4.903   2.724   4.456  0.6600  1.5307  0.3341
  178SAPS  H17S20351   4.727   2.733   4.442 -0.4786 -0.4821  0.5819
  178SAPS  C21820352   4.808   2.918   4.407  0.5718 -0.0944  0.5041
  178SAPS  H18R20353   4.732   2.944   4.331  0.5181 -1.9060 -0.1112
  178SAPS  H18S20354   4.896   2.973   4.366 -0.4078 -0.5632 -2.4439
  178SAPS  C21920355   4.764   2.961   4.546 -0.3153 -0.6861 -0.3836
  178SAPS  H19R20356   4.788   3.069   4.559  0.1536 -0.5793 -1.9277
  178SAPS  H19S20357   4.815   2.904   4.626 -0.9203  0.4369  0.8466
  178SAPS  C22020358   4.607   2.943   4.558 -0.3395 -0.3097  0.4577
  178SAPS  H20R20359   4.554   3.001   4.481  2.8354  1.2375 -0.7346
  178SAPS  H20S20360   4.566   2.989   4.650 -0.9101  2.4592 -1.0780
  178SAPS  H20T20361   4.584   2.834   4.565  2.7262 -0.9513  3.3757
  178SAPS   C3320362   4.729   1.877   2.908 -0.5693  0.5498 -0.4661
  178SAPS   H3X20363   4.702   1.806   2.826 -0.6480 -1.5748  1.3113
  178SAPS   H3Y20364   4.631   1.917   2.941 -1.2510 -2.1634  1.1102
  178SAPS   C3420365   4.773   1.784   3.025  0.3781  0.1949 -0.5122
  178SAPS   H4X20366   4.879   1.751   3.019  0.5555  0.4511  0.9248
  178SAPS   H4Y20367   4.711   1.692   3.021  2.2755 -1.3703  2.3848
  178SAPS   C3520368   4.742   1.852   3.158  0.3628  0.6645  0.7290
  178SAPS   H5X20369   4.632   1.865   3.152  0.4118  1.5196  1.5376
  178SAPS   H5Y20370   4.783   1.955   3.162  0.5812  0.6896 -1.2415
  178SAPS   C3620371   4.789   1.780   3.285  0.4244 -0.4622 -0.2690
  178SAPS   H6X20372   4.899   1.790   3.299  0.4197  1.2677 -1.2372
  178SAPS   H6Y20373   4.769   1.672   3.298 -1.3931 -0.0485  0.7701
  178SAPS   C3720374   4.710   1.841   3.403 -0.8809  0.6516  0.2189
  178SAPS   H7X20375   4.604   1.844   3.371 -1.3623  1.3784  1.7658
  178SAPS   H7Y20376   4.749   1.942   3.426 -0.2251  1.0359 -2.2927
  178SAPS   C3820377   4.715   1.764   3.539  0.7451 -0.1171  0.4546
  178SAPS   H8X20378   4.823   1.749   3.562  0.1639 -0.8840  2.9758
  178SAPS   H8Y20379   4.671   1.663   3.524 -0.2941  0.3163  0.5134
  178SAPS   C3920380   4.632   1.837   3.655 -0.6069  0.5272 -0.1181
  178SAPS   H9X20381   4.523   1.849   3.635 -0.1983  1.9228 -1.7581
  178SAPS   H9Y20382   4.682   1.933   3.680  2.7809 -1.4195  1.2650
  178SAPS  C31020383   4.644   1.755   3.784  0.6079 -0.2637 -0.2168
  178SAPS  H10X20384   4.747   1.716   3.798 -0.1046 -3.0849 -2.0185
  178SAPS  H10Y20385   4.575   1.668   3.775  0.2266  0.0714 -0.6281
  178SAPS  C31120386   4.596   1.828   3.912 -0.3281  0.1721  0.0312
  178SAPS  H11X20387   4.486   1.829   3.931 -0.2820 -0.4706  0.3586
  178SAPS  H11Y20388   4.641   1.929   3.908  0.9085 -0.2250  2.2606
  178SAPS  C31220389   4.647   1.757   4.049  0.0483 -0.4347  0.6171
  178SAPS  H12X20390   4.651   1.836   4.126  0.1346  0.1707 -0.0042
  178SAPS  H12Y20391   4.752   1.724   4.034 -0.2787 -0.8987 -0.8082
  178SAPS  C31320392   4.555   1.643   4.102 -0.9084 -0.3054 -0.1190
  178SAPS  H13X20393   4.522   1.581   4.016 -0.6283  0.5825 -0.8803
  178SAPS  H13Y20394   4.455   1.681   4.135 -0.9726 -1.3276  0.9319
  178SAPS  C31420395   4.624   1.568   4.222 -0.1030  0.5137  0.0820
  178SAPS  H14X20396   4.537   1.514   4.267  0.8827  0.6680  2.2891
  178SAPS  H14Y20397   4.662   1.640   4.297  1.5295 -1.2861  1.0757
  178SAPS  C31520398   4.735   1.476   4.182  0.0375 -0.1262 -0.7419
  178SAPS  H15X20399   4.831   1.531   4.189  1.4155 -2.4053 -0.7975
  178SAPS  H15Y20400   4.717   1.441   4.078 -2.0930  1.3343 -0.9327
  178SAPS  C31620401   4.752   1.360   4.282 -0.4039 -0.6939 -0.0026
  178SAPS  H16X20402   4.850   1.312   4.263  0.6434  0.2024  2.6380
  178SAPS  H16Y20403   4.670   1.285   4.273 -0.3717 -0.8061  0.5691
  178SAPS  C31720404   4.752   1.409   4.429 -0.0985 -0.5027 -0.8703
  178SAPS  H17X20405   4.648   1.439   4.457  0.3949 -1.9641  3.2846
  178SAPS  H17Y20406   4.820   1.496   4.445 -0.1361 -0.8359  1.4415
  178SAPS  C31820407   4.800   1.305   4.522 -0.6109  0.4669  0.1537
  178SAPS  H18X20408   4.811   1.335   4.628  0.2057  0.3205  0.1125
  178SAPS  H18Y20409   4.892   1.251   4.491 -2.0248 -0.8187 -2.0771
  178SAPS  H18Z20410   4.714   1.234   4.523 -0.4924  0.3222  0.0893
  179SAPS     N20411   0.405   4.286   2.074 -1.0271 -0.6524 -0.0033
  179SAPS   HN120412   0.438   4.212   2.010 -0.5705  0.6413 -1.3030
  179SAPS   HN220413   0.448   4.377   2.048 -0.0043 -0.9597  0.5558
  179SAPS   HN320414   0.423   4.268   2.175  0.9927 -0.8765 -0.3734
  179SAPS   C1220415   0.257   4.311   2.060  0.1318  0.5907 -0.5211
  179SAPS  H12A20416   0.244   4.392   1.989 -1.0283 -0.3031 -1.3813
  179SAPS   C1320417   0.165   4.188   2.025 -0.2671 -0.0812 -0.7617
  179SAPS  O13A20418   0.214   4.089   1.961  0.4930 -0.2231 -0.6240
  179SAPS  O13B20419   0.041   4.208   2.023  0.3070 -0.5017 -0.0847
  179SAPS   C1120420   0.202   4.357   2.210  0.4032  0.3130  0.1575
  179SAPS  H11A20421   0.176   4.265   2.266  0.3890  0.6629  0.7343
  179SAPS  H11B20422   0.104   4.406   2.189 -1.1636 -2.4675  0.5773
  179SAPS     P20423   0.250   4.579   2.356 -0.1351  0.1763  0.1260
  179SAPS   O1320424   0.362   4.611   2.450  0.1986  0.2921  0.4071
  179SAPS   O1420425   0.229   4.678   2.252  0.3220 -1.0680  0.2905
  179SAPS   O1220426   0.287   4.446   2.284  0.3737  0.4371 -0.5402
  179SAPS   O1120427   0.125   4.548   2.436  0.7004 -0.0837 -0.1223
  179SAPS    C120428   0.125   4.440   2.532  0.1081 -0.0952  0.0536
  179SAPS    HA20429   0.139   4.342   2.481 -0.8618  0.7478 -1.9579
  179SAPS    HB20430   0.214   4.447   2.598  0.4391 -0.8129 -0.3040
  179SAPS    C220431  -0.007   4.432   2.610 -0.0525  0.1049  0.4558
  179SAPS    HS20432  -0.083   4.401   2.535 -1.7024  1.5473  1.4704
  179SAPS   O2120433  -0.040   4.566   2.653 -0.8972  0.0561 -0.3271
  179SAPS   C2120434  -0.166   4.586   2.692  0.1692  0.2194 -1.0084
  179SAPS   O2220435  -0.258   4.510   2.685  0.1363  0.4275 -0.0335
  179SAPS   C2220436  -0.177   4.725   2.751  0.2774  0.0277  0.1084
  179SAPS   H2R20437  -0.161   4.790   2.662  1.0978 -1.5421 -0.9380
  179SAPS   H2S20438  -0.283   4.753   2.772 -0.2555 -0.8061 -1.2827
  179SAPS    C320439  -0.006   4.342   2.741 -0.1294 -0.1656  0.2355
  179SAPS    HX20440   0.005   4.236   2.712  4.0470 -0.3491  1.8359
  179SAPS    HY20441  -0.104   4.360   2.792 -0.1009  0.3742  0.1128
  179SAPS   O3120442   0.102   4.375   2.834  0.0943 -0.5335  0.3224
  179SAPS   C3120443   0.208   4.290   2.838  0.1398 -0.1085  0.0244
  179SAPS   O3220444   0.213   4.183   2.782  0.7086  0.3715  0.5435
  179SAPS   C3220445   0.320   4.356   2.916  0.4142  0.7148  0.1951
  179SAPS   H2X20446   0.370   4.436   2.858  1.1239 -1.8364 -3.0216
  179SAPS   H2Y20447   0.402   4.283   2.936  0.6725  1.1579  0.7605
  179SAPS   C2320448  -0.075   4.764   2.860  0.2428  0.2799 -0.1944
  179SAPS   H3R20449  -0.076   4.874   2.878 -0.2028  0.3253 -0.4654
  179SAPS   H3S20450   0.027   4.743   2.823  0.5371  2.0507 -0.5077
  179SAPS   C2420451  -0.082   4.691   2.997 -0.3717 -0.1758  0.3401
  179SAPS   H4R20452   0.009   4.735   3.043 -0.7272 -0.4353  1.3050
  179SAPS   H4S20453  -0.063   4.582   2.984  0.1671 -0.2270  1.4480
  179SAPS   C2520454  -0.200   4.727   3.084 -0.1792  0.8600  0.4026
  179SAPS   H5R20455  -0.299   4.702   3.044 -0.3391 -2.3272  2.3706
  179SAPS   C2620456  -0.188   4.772   3.208 -0.5744 -0.2941 -0.6719
  179SAPS   H6R20457  -0.278   4.809   3.259 -0.6385 -2.1595  0.6782
  179SAPS   C2720458  -0.061   4.806   3.286 -0.4626  0.0782 -0.1899
  179SAPS   H7R20459   0.016   4.725   3.279 -0.3242  0.3231 -1.9966
  179SAPS   H7S20460  -0.071   4.799   3.396  1.2839 -1.3810 -0.0631
  179SAPS   C2820461  -0.003   4.945   3.252  0.7622  0.0291  0.6193
  179SAPS   H8R20462  -0.015   4.992   3.153 -0.6358 -1.6743 -0.0658
  179SAPS   C2920463   0.069   5.018   3.346 -0.2357 -0.1625  0.0133
  179SAPS   H9R20464   0.111   5.110   3.303  2.7644 -2.4330 -2.3255
  179SAPS  C21020465   0.091   4.990   3.492  0.2344 -0.5789  0.4855
  179SAPS  H10R20466   0.174   5.049   3.537 -0.5252  1.8199 -1.0784
  179SAPS  H10S20467   0.123   4.883   3.496 -0.6806 -1.0417 -2.4765
  179SAPS  C21120468  -0.037   5.010   3.576  0.1772 -0.6855 -0.3078
  179SAPS  H11R20469  -0.133   5.022   3.525 -0.3003  0.0190  0.6988
  179SAPS  C21220470  -0.040   5.023   3.709  0.3564  0.9990  0.3385
  179SAPS  H12R20471  -0.136   5.040   3.759 -0.2070  2.2325 -1.0838
  179SAPS  C21320472   0.072   5.013   3.808  0.3191  0.9096 -0.3171
  179SAPS  H13R20473   0.163   4.963   3.771  0.8429  1.3304  0.3857
  179SAPS  H13S20474   0.036   4.970   3.903  0.2913 -0.9228 -1.1192
  179SAPS  C21420475   0.131   5.151   3.830 -0.3820  0.7120 -0.4172
  179SAPS  H14R20476   0.108   5.228   3.755  1.6715  0.6978 -1.1342
  179SAPS  C21520477   0.190   5.183   3.950 -0.1034 -0.0756  0.2637
  179SAPS  H15R20478   0.242   5.280   3.960  1.3670 -0.8164  0.1372
  179SAPS  C21620479   0.203   5.095   4.075  0.0933  0.1202 -0.7811
  179SAPS  H16R20480   0.209   4.987   4.050 -0.6233 -0.2466  0.5597
  179SAPS  H16S20481   0.118   5.097   4.145  0.7956  0.7518  0.0833
  179SAPS  C21720482   0.332   5.113   4.159  0.0683  0.4782 -0.2689
  179SAPS  H17R20483   0.356   5.219   4.182  2.0803 -0.2267  1.2015
  179SAPS  H17S20484   0.410   5.073   4.091 -0.4820  0.3556 -0.8359
  179SAPS  C21820485   0.337   5.025   4.288  0.6630  0.0025  0.0642
  179SAPS  H18R20486   0.445   5.024   4.315  1.4916  1.2502 -2.8123
  179SAPS  H18S20487   0.292   4.927   4.259  1.1143 -0.7700  1.8207
  179SAPS  C21920488   0.259   5.082   4.408 -0.2793  0.9557  0.3927
  179SAPS  H19R20489   0.151   5.099   4.389 -0.1702  2.6012  1.1129
  179SAPS  H19S20490   0.306   5.179   4.432  0.0656  0.9208 -0.1216
  179SAPS  C22020491   0.267   4.984   4.525 -0.2893  0.0647 -0.8049
  179SAPS  H20R20492   0.247   5.035   4.622  1.3423  0.9916 -0.9251
  179SAPS  H20S20493   0.371   4.944   4.526  1.0468  3.0078  2.3603
  179SAPS  H20T20494   0.196   4.899   4.521  1.6296 -1.6413 -0.1336
  179SAPS   C3320495   0.265   4.399   3.053 -0.5435  0.0254 -0.0433
  179SAPS   H3X20496   0.199   4.327   3.105 -3.8990  2.9908  0.2255
  179SAPS   H3Y20497   0.202   4.488   3.032  0.4375  0.2810 -2.2522
  179SAPS   C3420498   0.375   4.453   3.143  0.5081  0.0208  0.6126
  179SAPS   H4X20499   0.419   4.540   3.088  0.1852  0.7025  1.4046
  179SAPS   H4Y20500   0.448   4.373   3.167  0.9990  0.9344  2.4094
  179SAPS   C3520501   0.321   4.507   3.282  0.0702 -0.2484  0.2482
  179SAPS   H5X20502   0.294   4.415   3.338  2.6180 -0.8658  0.5975
  179SAPS   H5Y20503   0.238   4.574   3.253 -0.3004 -1.8891 -2.8167
  179SAPS   C3620504   0.428   4.576   3.362  0.5947  0.0616 -0.4175
  179SAPS   H6X20505   0.443   4.673   3.309 -2.7816  0.1811 -1.3857
  179SAPS   H6Y20506   0.513   4.505   3.366  0.3219 -0.2155  0.8763
  179SAPS   C3720507   0.383   4.611   3.507  0.3967 -0.5317  0.7275
  179SAPS   H7X20508   0.350   4.519   3.560  0.2533 -1.9530 -1.6876
  179SAPS   H7Y20509   0.299   4.681   3.494  0.8204 -0.0080  0.7730
  179SAPS   C3820510   0.494   4.672   3.589  0.1362  0.4159  0.1121
  179SAPS   H8X20511   0.559   4.744   3.533  0.4804 -0.3456 -0.4897
  179SAPS   H8Y20512   0.562   4.588   3.615  0.4396  0.7578  0.4286
  179SAPS   C3920513   0.429   4.725   3.718  0.7079 -0.6111  0.6947
  179SAPS   H9X20514   0.357   4.653   3.762 -1.4790  1.5251  0.7588
  179SAPS   H9Y20515   0.376   4.821   3.701  0.9198 -0.4555  0.8952
  179SAPS  C31020516   0.532   4.749   3.828 -0.0674  0.7461 -0.8067
  179SAPS  H10X20517   0.602   4.829   3.795  4.7663 -1.8299  2.0359
  179SAPS  H10Y20518   0.590   4.656   3.847 -2.4545 -0.5475  0.6299
  179SAPS  C31120519   0.474   4.802   3.960 -0.3290  0.0016  0.5741
  179SAPS  H11X20520   0.404   4.724   3.999 -0.6151  0.1030  0.2714
  179SAPS  H11Y20521   0.420   4.897   3.940 -1.4542 -0.8175 -0.4652
  179SAPS  C31220522   0.589   4.839   4.062  0.5932  0.8960  0.2027
  179SAPS  H12X20523   0.570   4.935   4.114  0.5915  1.6179 -1.0856
  179SAPS  H12Y20524   0.687   4.866   4.016  1.2825  0.7079  1.5010
  179SAPS  C31320525   0.626   4.723   4.165  0.5207  0.3626 -0.2060
  179SAPS  H13X20526   0.661   4.635   4.106 -0.0463  0.0457 -0.0840
  179SAPS  H13Y20527   0.539   4.690   4.227  0.4785 -0.8654 -0.8702
  179SAPS  C31420528   0.751   4.761   4.252 -0.5906  0.7720 -0.7242
  179SAPS  H14X20529   0.751   4.845   4.325  1.1466  0.5605 -0.4408
  179SAPS  H14Y20530   0.833   4.781   4.180  0.3391  1.3064  0.4542
  179SAPS  C31520531   0.791   4.640   4.336 -0.1275  0.5293  0.5692
  179SAPS  H15X20532   0.814   4.564   4.259  1.8477  0.4490  1.1985
  179SAPS  H15Y20533   0.702   4.600   4.390 -0.9328  1.4601 -0.0458
  179SAPS  C31620534   0.907   4.662   4.430 -0.1545 -0.1221  0.1462
  179SAPS  H16X20535   0.882   4.754   4.487  0.8858 -0.3209  0.9703
  179SAPS  H16Y20536   0.998   4.685   4.370 -0.8940 -1.4128 -1.5517
  179SAPS  C31720537   0.944   4.545   4.528 -0.2387  0.0131 -0.0240
  179SAPS  H17X20538   0.961   4.454   4.466  1.0130  0.0148  0.2798
  179SAPS  H17Y20539   0.855   4.523   4.590 -0.9417 -0.2552 -1.0950
  179SAPS  C31820540   1.069   4.566   4.618 -0.2278  0.4053  0.3625
  179SAPS  H18X20541   1.051   4.657   4.679 -2.0460 -0.4080  1.0903
  179SAPS  H18Y20542   1.162   4.579   4.558 -0.0646 -2.2821 -0.0693
  179SAPS  H18Z20543   1.085   4.478   4.683 -3.4954 -1.5039 -1.1882
  180SAPS     N20544   6.249   3.445   2.365  0.1091  0.8064 -0.3534
  180SAPS   HN120545   6.145   3.448   2.371  0.1154  1.4630 -0.5517
  180SAPS   HN220546   6.288   3.349   2.356  0.7036  1.1659 -1.9008
  180SAPS   HN320547   6.286   3.497   2.447 -0.6552 -0.0838  0.5804
  180SAPS   C1220548   6.288   3.520   2.239 -0.2853  0.7857 -0.8771
  180SAPS  H12A20549   6.384   3.562   2.262  0.1375 -0.5426 -0.0993
  180SAPS   C1320550   6.285   3.430   2.112 -1.2421 -0.1585  0.6291
  180SAPS  O13A20551   6.294   3.304   2.133 -0.6280  0.1258  0.4443
  180SAPS  O13B20552   6.337   3.485   2.010  0.7215  0.3585 -0.8364
  180SAPS   C1120553   6.182   3.632   2.224  0.2414 -1.1493  0.7146
  180SAPS  H11A20554   6.078   3.597   2.243 -0.1423  0.2964  1.4514
  180SAPS  H11B20555   6.191   3.668   2.119 -0.9516 -1.9212  0.3239
  180SAPS     P20556   6.148   3.875   2.320 -0.1003  0.5194 -0.1996
  180SAPS   O1320557   6.231   3.964   2.405  0.0956 -1.4448  0.3177
  180SAPS   O1420558   6.107   3.921   2.184 -0.4828  0.4401  0.3136
  180SAPS   O1220559   6.216   3.734   2.317 -0.1560 -0.0612  0.2255
  180SAPS   O1120560   6.011   3.854   2.388 -0.4852 -0.0512 -0.8153
  180SAPS    C120561   5.963   3.743   2.466  0.6574  0.5063 -0.6062
  180SAPS    HA20562   5.881   3.689   2.413  0.2969 -0.0883  0.5116
  180SAPS    HB20563   6.039   3.664   2.482 -0.4925 -0.8736 -1.6184
  180SAPS    C220564   5.899   3.786   2.603 -0.3057  0.5419 -0.2100
  180SAPS    HS20565   5.799   3.833   2.587 -0.9011 -0.5507  0.1952
  180SAPS   O2120566   5.980   3.883   2.668 -0.4257 -0.1738 -0.1214
  180SAPS   C2120567   6.110   3.862   2.695  0.3484  0.1654 -0.3731
  180SAPS   O2220568   6.167   3.756   2.677 -0.5232 -0.3492 -0.5574
  180SAPS   C2220569   6.164   3.989   2.756 -0.0026 -1.1693 -0.0520
  180SAPS   H2R20570   6.274   3.978   2.757 -0.0907 -2.2499  0.0330
  180SAPS   H2S20571   6.139   4.070   2.684  0.1038  0.4649  1.6973
  180SAPS    C320572   5.871   3.662   2.697  0.1117 -0.0677 -0.7787
  180SAPS    HX20573   5.968   3.619   2.729 -0.7952 -1.5265  0.1620
  180SAPS    HY20574   5.819   3.590   2.629  0.6637 -0.1121 -1.1588
  180SAPS   O3120575   5.777   3.680   2.804 -0.0193  0.1889 -0.2288
  180SAPS   C3120576   5.835   3.661   2.928  0.3530  0.1861  0.0193
  180SAPS   O3220577   5.952   3.652   2.949 -0.2862 -0.1854 -0.2662
  180SAPS   C3220578   5.732   3.659   3.032  0.6872  0.3271 -0.0833
  180SAPS   H2X20579   5.656   3.580   3.016  0.8436  0.0507  0.5286
  180SAPS   H2Y20580   5.686   3.760   3.035  1.7596  0.8366 -0.3476
  180SAPS   C2320581   6.098   4.021   2.894  0.1375  0.5777 -0.6485
  180SAPS   H3R20582   5.989   4.000   2.883  0.1099  1.1605 -1.6245
  180SAPS   H3S20583   6.094   4.131   2.903 -1.8013  0.6310 -1.5862
  180SAPS   C2420584   6.150   3.935   3.005 -0.2233 -0.2684 -0.3913
  180SAPS   H4R20585   6.164   3.831   2.968  0.8772 -0.2154 -0.1495
  180SAPS   H4S20586   6.068   3.929   3.080 -0.9368  0.1944 -1.1169
  180SAPS   C2520587   6.276   3.983   3.059  0.3428 -0.2403  0.0564
  180SAPS   H5R20588   6.363   3.950   2.999 -0.5314 -1.0531 -0.8146
  180SAPS   C2620589   6.295   4.047   3.175 -0.2965  0.2710 -0.4071
  180SAPS   H6R20590   6.403   4.054   3.199  0.0350  0.6017 -1.8848
  180SAPS   C2720591   6.202   4.097   3.285 -0.5430  0.0588  0.2558
  180SAPS   H7R20592   6.102   4.100   3.236 -1.4479 -0.2910  2.0096
  180SAPS   H7S20593   6.223   4.202   3.311  0.9954 -0.5257  1.5316
  180SAPS   C2820594   6.187   4.005   3.399 -0.2627  0.2261 -0.5610
  180SAPS   H8R20595   6.136   3.914   3.362 -1.4370  1.1504 -1.3210
  180SAPS   C2920596   6.227   4.018   3.526  0.1310  0.3704 -0.1075
  180SAPS   H9R20597   6.206   3.942   3.602 -0.5423  2.3929  1.8053
  180SAPS  C21020598   6.295   4.137   3.588 -0.0112 -0.7122  0.0519
  180SAPS  H10R20599   6.219   4.184   3.654  1.0347  0.1609  0.6607
  180SAPS  H10S20600   6.308   4.221   3.516 -2.9960  0.1416  0.3554
  180SAPS  C21120601   6.420   4.109   3.679 -0.2362  0.0397  0.9320
  180SAPS  H11R20602   6.502   4.080   3.612 -1.4697  0.6881 -0.9342
  180SAPS  C21220603   6.421   4.109   3.815  0.0709 -0.5288 -0.2794
  180SAPS  H12R20604   6.516   4.076   3.859 -0.7673 -0.4289  1.7113
  180SAPS  C21320605   6.312   4.146   3.909 -0.1206  0.0873  0.0412
  180SAPS  H13R20606   6.282   4.253   3.903  1.2923  0.5633  0.9740
  180SAPS  H13S20607   6.359   4.130   4.008  2.0908 -0.0675 -0.9603
  180SAPS  C21420608   6.187   4.064   3.896  0.1293 -0.3133 -0.0963
  180SAPS  H14R20609   6.132   4.085   3.803  2.5903 -0.4862 -1.6748
  180SAPS  C21520610   6.142   3.980   3.991 -0.3033  0.6795  0.5490
  180SAPS  H15R20611   6.056   3.917   3.962 -0.9294  1.4655  0.6904
  180SAPS  C21620612   6.218   3.932   4.111  0.2509  0.2274 -1.0712
  180SAPS  H16R20613   6.325   3.958   4.119  0.3350 -0.7598  1.7552
  180SAPS  H16S20614   6.219   3.821   4.109  1.8816  0.1210  1.5805
  180SAPS  C21720615   6.140   3.978   4.237 -0.5781 -0.3985  0.1514
  180SAPS  H17R20616   6.041   3.929   4.236 -0.6078 -0.3528  0.6582
  180SAPS  H17S20617   6.134   4.088   4.230 -0.9612 -0.4581 -0.4740
  180SAPS  C21820618   6.213   3.940   4.371 -0.0340 -0.2334 -0.0105
  180SAPS  H18R20619   6.311   3.992   4.359  0.3694 -0.1125  3.0216
  180SAPS  H18S20620   6.222   3.829   4.371 -0.5365 -0.2992 -1.7595
  180SAPS  C21920621   6.124   3.988   4.487 -0.0401  0.4249  0.5368
  180SAPS  H19R20622   6.025   3.939   4.490 -0.7968  1.9583  2.0251
  180SAPS  H19S20623   6.117   4.099   4.488  0.9037  0.5026 -0.0018
  180SAPS  C22020624   6.197   3.938   4.612 -0.2060 -0.1677  0.7627
  180SAPS  H20R20625   6.163   3.989   4.705  1.8115  0.3302  1.2800
  180SAPS  H20S20626   6.188   3.827   4.618  1.1077 -0.2479  1.6586
  180SAPS  H20T20627   6.304   3.966   4.608 -0.4146  0.6113  0.4357
  180SAPS   C3320628   5.798   3.627   3.172 -0.3368 -1.0421  0.1107
  180SAPS   H3X20629   5.898   3.668   3.198 -0.6060  0.3159 -0.9071
  180SAPS   H3Y20630   5.804   3.516   3.175 -3.1288 -1.3519 -2.1727
  180SAPS   C3420631   5.714   3.688   3.278 -0.0444 -0.0253 -0.8380
  180SAPS   H4X20632   5.610   3.650   3.280  0.8957 -2.8799  0.3945
  180SAPS   H4Y20633   5.713   3.796   3.253 -1.9833 -0.3669 -2.4247
  180SAPS   C3520634   5.769   3.654   3.418 -0.8693 -0.5915  0.0570
  180SAPS   H5X20635   5.878   3.653   3.394 -1.1288  1.6978 -1.5734
  180SAPS   H5Y20636   5.732   3.551   3.439 -2.7786 -0.2838 -1.4637
  180SAPS   C3620637   5.733   3.757   3.527  0.8858  0.0589 -0.2155
  180SAPS   H6X20638   5.623   3.745   3.544  0.7743 -0.4077 -1.1586
  180SAPS   H6Y20639   5.742   3.863   3.496  0.5409  1.7177  4.6375
  180SAPS   C3720640   5.800   3.737   3.668 -0.0332  1.1246 -0.6250
  180SAPS   H7X20641   5.900   3.786   3.668  0.0542  0.9919  0.5630
  180SAPS   H7Y20642   5.803   3.627   3.686 -0.5219  1.1861 -0.1452
  180SAPS   C3820643   5.703   3.793   3.772 -0.1812 -0.5355  0.2448
  180SAPS   H8X20644   5.615   3.735   3.805 -1.7757  1.2647 -0.6043
  180SAPS   H8Y20645   5.658   3.884   3.726  1.5365  1.1060  1.6470
  180SAPS   C3920646   5.777   3.848   3.892  0.1963  0.0516  0.4409
  180SAPS   H9X20647   5.859   3.911   3.850  1.1704 -1.8206 -0.5897
  180SAPS   H9Y20648   5.829   3.763   3.941 -0.8292 -0.9882 -0.2360
  180SAPS  C31020649   5.699   3.939   3.981  1.0531 -0.6099 -0.3236
  180SAPS  H10X20650   5.612   3.888   4.028  1.0070 -0.2314  0.0077
  180SAPS  H10Y20651   5.672   4.029   3.922  0.9230  0.8541  1.8263
  180SAPS  C31120652   5.783   3.998   4.097  0.1318  0.2537 -0.0771
  180SAPS  H11X20653   5.868   4.053   4.050  1.6946 -2.2998 -0.3968
  180SAPS  H11Y20654   5.823   3.913   4.156  0.1960  1.2114  1.3286
  180SAPS  C31220655   5.698   4.086   4.192  0.6089 -0.1542  0.7163
  180SAPS  H12X20656   5.598   4.044   4.215  0.6648  0.3640  2.0200
  180SAPS  H12Y20657   5.678   4.184   4.144  2.2927 -0.0543  0.1390
  180SAPS  C31320658   5.772   4.114   4.324  0.5931 -0.2415  0.4941
  180SAPS  H13X20659   5.870   4.165   4.310 -0.3369  1.6428  0.5440
  180SAPS  H13Y20660   5.794   4.022   4.383  1.8034  0.6097  1.4414
  180SAPS  C31420661   5.687   4.212   4.407  0.1055  0.0207 -0.1584
  180SAPS  H14X20662   5.583   4.173   4.415  0.8086 -1.9656 -0.1582
  180SAPS  H14Y20663   5.684   4.316   4.368 -2.4857  0.1342  0.2025
  180SAPS  C31520664   5.747   4.212   4.555  0.1189  0.0513  0.6675
  180SAPS  H15X20665   5.762   4.106   4.584  0.7579 -0.6110 -1.8442
  180SAPS  H15Y20666   5.672   4.256   4.624  0.2096  2.1955 -0.5187
  180SAPS  C31620667   5.875   4.299   4.558 -0.9742  0.2418 -0.3925
  180SAPS  H16X20668   5.851   4.404   4.531 -0.6740  0.0407 -1.5041
  180SAPS  H16Y20669   5.948   4.267   4.481  0.4588  0.3110  0.8973
  180SAPS  C31720670   5.941   4.302   4.694 -0.7914 -0.5844 -0.7965
  180SAPS  H17X20671   5.984   4.200   4.706  1.4595  0.3477 -0.4193
  180SAPS  H17Y20672   5.879   4.324   4.784  1.3519  0.8029  0.4345
  180SAPS  C31820673   6.041   4.410   4.703 -0.7132 -0.3847  0.2838
  180SAPS  H18X20674   6.122   4.393   4.629 -1.6191  1.5666 -1.2604
  180SAPS  H18Y20675   6.084   4.407   4.805  0.1283  4.6864  0.3515
  180SAPS  H18Z20676   6.003   4.513   4.687 -2.0073 -0.6260  1.5797
  181POPC     N20677   0.098   4.897   7.044  0.3511  0.3946 -0.1913
  181POPC   C1220678   0.092   4.789   6.945  0.3048 -0.7529  0.0419
  181POPC  H12A20679   0.090   4.843   6.851 -0.3864  1.2728  1.1601
  181POPC  H12B20680  -0.005   4.743   6.950 -0.9600  1.8454  1.3484
  181POPC   C1320681   0.082   4.845   7.181 -0.3494 -0.0623 -0.0135
  181POPC  H13A20682   0.075   4.927   7.251  0.7118  0.1349 -0.1322
  181POPC  H13B20683  -0.006   4.782   7.183  1.2324 -2.4040  0.5281
  181POPC  H13C20684   0.170   4.789   7.210 -0.5272  0.0081  0.6873
  181POPC   C1420685   0.225   4.976   7.029  0.4729  0.1613  0.3260
  181POPC  H14A20686   0.241   5.037   7.116  0.5711 -0.2293  0.5812
  181POPC  H14B20687   0.306   4.905   7.022  1.4545  1.3855 -2.2025
  181POPC  H14C20688   0.217   5.037   6.939  0.4371  1.7654  1.3695
  181POPC   C1520689  -0.026   4.979   7.026  0.0082 -1.0460 -0.5658
  181POPC  H15A20690  -0.111   4.914   7.011 -1.0529  0.4283 -1.2659
  181POPC  H15B20691  -0.018   5.035   6.934  0.1552  0.2394  0.2012
  181POPC  H15C20692  -0.042   5.048   7.108 -1.4459 -0.9689 -0.8929
  181POPC   C1120693   0.199   4.676   6.933 -0.6001 -0.2938 -0.0468
  181POPC  H11A20694   0.294   4.733   6.930 -1.7296  1.7412  0.9044
  181POPC  H11B20695   0.174   4.623   6.838  0.2406 -0.8946  0.0622
  181POPC     P20696   0.106   4.471   7.068 -0.3116 -0.3249  0.7510
  181POPC   O1320697  -0.029   4.527   7.073  0.0239  0.1050 -0.6846
  181POPC   O1420698   0.143   4.379   7.176  0.2024  0.6242 -0.2699
  181POPC   O1220699   0.205   4.597   7.050 -0.1499  0.5944 -0.6339
  181POPC   O1120700   0.118   4.402   6.924  0.7092  0.0732 -0.2103
  181POPC    C120701   0.236   4.325   6.908 -0.0329  0.1082  0.2161
  181POPC    HA20702   0.237   4.235   6.973 -0.4361 -0.8591 -1.0747
  181POPC    HB20703   0.328   4.378   6.941 -0.5718  1.0459  0.2570
  181POPC    C220704   0.251   4.282   6.761  0.0058  0.9182 -0.3916
  181POPC    HS20705   0.340   4.216   6.763  0.7718  1.9213  2.0305
  181POPC   O2120706   0.263   4.395   6.674 -0.3442 -0.6192  0.2363
  181POPC   C2120707   0.386   4.438   6.658 -0.6096 -0.1792  0.0920
  181POPC   O2220708   0.484   4.380   6.703 -0.4285 -0.6360 -0.4707
  181POPC   C2220709   0.388   4.559   6.571  0.0641 -0.0339  0.1822
  181POPC   H2R20710   0.425   4.641   6.636 -0.0694 -0.6761  1.0782
  181POPC   H2S20711   0.284   4.581   6.538 -0.1037 -0.2582  0.5619
  181POPC    C320712   0.126   4.200   6.713 -0.3299  0.8426 -0.0877
  181POPC    HX20713   0.034   4.260   6.731 -0.3987  0.6467  0.2290
  181POPC    HY20714   0.125   4.106   6.773  1.5910  1.1898  0.5478
  181POPC   O3120715   0.128   4.169   6.576  0.5805 -0.3903 -0.2922
  181POPC   C3120716   0.196   4.068   6.532  0.3476 -0.5338  0.5197
  181POPC   O3220717   0.274   4.003   6.594  0.0565 -0.1702 -0.3050
  181POPC   C3220718   0.165   4.071   6.377 -0.1797  0.0755 -0.9625
  181POPC   H2X20719   0.141   4.174   6.344 -2.9381  0.6409  2.2812
  181POPC   H2Y20720   0.073   4.014   6.351  1.1893 -1.3080 -3.1343
  181POPC   C2320721   0.478   4.543   6.441 -0.6001  0.1893  0.1254
  181POPC   H3R20722   0.565   4.482   6.473 -0.8102  0.3427  1.0259
  181POPC   H3S20723   0.505   4.648   6.417  0.7692 -0.0251  0.6193
  181POPC   C2420724   0.424   4.459   6.325 -0.2691 -0.2190 -0.2910
  181POPC   H4R20725   0.395   4.526   6.241  0.3435 -0.4329 -0.6801
  181POPC   H4S20726   0.333   4.412   6.367 -1.1632  3.0126  1.7213
  181POPC   C2520727   0.512   4.347   6.267  0.0387  0.6788 -0.2786
  181POPC   H5R20728   0.519   4.261   6.337 -1.5923  0.4309 -0.3708
  181POPC   H5S20729   0.614   4.391   6.257 -0.2354  1.4297  0.1400
  181POPC   C2620730   0.455   4.291   6.134 -0.2036 -0.5320 -1.0664
  181POPC   H6R20731   0.354   4.253   6.160 -0.7692  2.1783  1.1911
  181POPC   H6S20732   0.532   4.216   6.103 -0.0379  0.0816 -2.2071
  181POPC   C2720733   0.456   4.397   6.022 -0.2977 -0.3144 -0.0498
  181POPC   H7R20734   0.542   4.465   6.039  1.2516 -1.2218 -3.3780
  181POPC   H7S20735   0.367   4.462   6.027  0.7210  1.0654  0.8409
  181POPC   C2820736   0.479   4.338   5.885  0.2202  0.5530  0.2163
  181POPC   H8R20737   0.577   4.286   5.885 -0.9714 -1.8297 -0.5984
  181POPC   H8S20738   0.491   4.426   5.818 -2.9730  0.9551  0.0125
  181POPC   C2920739   0.380   4.243   5.825 -0.3240 -0.0171 -0.1507
  181POPC   H9120740   0.289   4.231   5.885 -0.9056 -0.4036 -1.0741
  181POPC  C21020741   0.420   4.164   5.722 -0.4325  0.4765  0.3896
  181POPC  H10120742   0.351   4.100   5.666  2.6120 -0.6198 -2.4526
  181POPC  C21120743   0.547   4.182   5.640 -0.4192 -0.4169 -0.3633
  181POPC  H11R20744   0.629   4.110   5.661  0.8134  0.7999 -0.8551
  181POPC  H11S20745   0.595   4.282   5.651 -0.5514 -0.0771 -2.4714
  181POPC  C21220746   0.506   4.188   5.487 -0.9196  0.3830 -0.1958
  181POPC  H12R20747   0.430   4.268   5.471  0.6544  1.6007 -2.0520
  181POPC  H12S20748   0.469   4.088   5.456  1.5385 -0.3996 -0.7836
  181POPC  C21320749   0.622   4.230   5.385 -0.5092 -0.2980  0.0768
  181POPC  H13R20750   0.709   4.162   5.392 -0.2921 -0.2065 -1.4636
  181POPC  H13S20751   0.648   4.337   5.404  2.8932 -1.1186  0.6763
  181POPC  C21420752   0.567   4.214   5.247 -0.4975  0.0493  0.3046
  181POPC  H14R20753   0.490   4.291   5.223  0.9425  1.4329 -0.0478
  181POPC  H14S20754   0.510   4.118   5.251 -0.9497  0.3545  3.3748
  181POPC  C21520755   0.669   4.212   5.130 -0.4043 -1.0076 -0.0503
  181POPC  H15R20756   0.751   4.148   5.168 -1.3088 -1.7685  0.6663
  181POPC  H15S20757   0.698   4.318   5.112 -1.0595 -0.9254 -0.6525
  181POPC  C21620758   0.587   4.159   5.007 -0.6401 -0.2969  0.3206
  181POPC  H16R20759   0.507   4.090   5.040  0.0593 -1.2286  0.0980
  181POPC  H16S20760   0.661   4.103   4.945 -0.2458  1.0612 -0.4815
  181POPC  C21720761   0.546   4.258   4.896 -0.4969 -0.3350  0.1173
  181POPC  H17R20762   0.634   4.310   4.855 -0.7557 -0.3431 -0.4518
  181POPC  H17S20763   0.476   4.332   4.941 -1.0773 -0.3259 -0.7805
  181POPC  C21820764   0.477   4.192   4.780 -0.6158  0.5506  0.3002
  181POPC  H18R20765   0.377   4.155   4.810  0.3349 -1.7784  0.8554
  181POPC  H18S20766   0.540   4.110   4.739 -0.3838  1.0279 -0.2978
  181POPC  H18T20767   0.460   4.253   4.689 -2.0137 -0.0085  0.1566
  181POPC   C3320768   0.283   4.005   6.304 -0.0698  0.1504  0.7246
  181POPC   H3X20769   0.300   3.904   6.347  1.1616  0.5585  1.2570
  181POPC   H3Y20770   0.379   4.058   6.322 -0.4868  1.7613 -1.3530
  181POPC   C3420771   0.258   3.988   6.155 -0.4468  0.6191  0.3254
  181POPC   H4X20772   0.351   3.990   6.095 -1.2165 -0.5400 -0.9507
  181POPC   H4Y20773   0.197   4.073   6.118 -0.3117 -0.3829 -2.4079
  181POPC   C3520774   0.181   3.863   6.110 -0.1373  0.1917  0.3353
  181POPC   H5X20775   0.086   3.863   6.167  1.3097 -0.7622  2.9459
  181POPC   H5Y20776   0.227   3.772   6.153  0.4653  1.2145  1.9708
  181POPC   C3620777   0.157   3.854   5.955  0.1948 -0.2957 -0.3283
  181POPC   H6X20778   0.097   3.944   5.932 -1.2478 -0.4510  2.4082
  181POPC   H6Y20779   0.100   3.764   5.921  1.1479 -0.7647 -0.7247
  181POPC   C3720780   0.287   3.864   5.873  0.0604 -0.0976  0.1212
  181POPC   H7X20781   0.345   3.775   5.906 -1.6718 -0.9991  0.8437
  181POPC   H7Y20782   0.351   3.954   5.891 -0.6282 -0.0048  2.3988
  181POPC   C3820783   0.261   3.835   5.727 -0.0386  0.5150  0.2465
  181POPC   H8X20784   0.217   3.926   5.680 -0.7797  0.9810  1.7999
  181POPC   H8Y20785   0.181   3.758   5.720 -0.2955  0.9074 -1.9681
  181POPC   C3920786   0.395   3.806   5.648  0.2978  0.3571  0.2941
  181POPC   H9X20787   0.428   3.706   5.684  0.8832  0.4945  0.1637
  181POPC   H9Y20788   0.473   3.879   5.681  0.4548  1.9707 -3.1506
  181POPC  C31020789   0.379   3.805   5.491  0.0444  0.0212 -0.5031
  181POPC  H10X20790   0.326   3.898   5.459 -1.4089 -1.3060 -2.1393
  181POPC  H10Y20791   0.307   3.725   5.464 -0.8202  0.6055 -0.0048
  181POPC  C31120792   0.514   3.791   5.417  0.1261 -0.2517 -0.4882
  181POPC  H11X20793   0.557   3.694   5.449  1.2861  0.5630  0.4964
  181POPC  H11Y20794   0.574   3.885   5.424 -0.2598  0.2625 -3.0302
  181POPC  C31220795   0.484   3.774   5.265  0.0525  0.2729 -0.5378
  181POPC  H12X20796   0.416   3.853   5.228  0.8895  0.4693 -1.7205
  181POPC  H12Y20797   0.428   3.679   5.256  4.4901 -2.6934 -0.2056
  181POPC  C31320798   0.610   3.778   5.181  0.2400 -0.0813  0.2458
  181POPC  H13X20799   0.684   3.697   5.200  0.4344 -0.3450 -1.4062
  181POPC  H13Y20800   0.656   3.878   5.199  0.0712  0.0181  0.1301
  181POPC  C31420801   0.557   3.760   5.038 -0.0778 -0.0708 -0.3455
  181POPC  H14X20802   0.471   3.827   5.020  0.3674  1.0723  1.5160
  181POPC  H14Y20803   0.534   3.653   5.020  2.6463 -0.6732 -0.7242
  181POPC  C31520804   0.671   3.808   4.948  0.4919  0.4507 -0.0353
  181POPC  H15X20805   0.765   3.750   4.956 -0.4528 -1.0083  0.9420
  181POPC  H15Y20806   0.690   3.917   4.965 -1.0100  0.4031  2.5184
  181POPC  C31620807   0.624   3.790   4.806 -0.1834  0.1531  0.9663
  181POPC  H16X20808   0.700   3.826   4.735 -0.5587 -0.6822  0.1135
  181POPC  H16Y20809   0.526   3.836   4.780  0.2544  0.6303  0.1318
  181POPC  H16Z20810   0.623   3.681   4.785 -0.4574 -0.0331  1.8738
  182POPC     N20811   2.300   0.124   6.737  0.3295  0.0290  0.3592
  182POPC   C1220812   2.238   0.180   6.862 -0.1506  0.0731  0.8811
  182POPC  H12A20813   2.312   0.171   6.940  0.9119  1.4647  0.0649
  182POPC  H12B20814   2.156   0.113   6.884  0.5422 -0.8428  0.7191
  182POPC   C1320815   2.189   0.060   6.652 -0.1969  0.3388 -0.4184
  182POPC  H13A20816   2.139  -0.011   6.716  0.4053 -0.2236 -0.5608
  182POPC  H13B20817   2.111   0.130   6.625 -0.3938 -0.9665 -3.6703
  182POPC  H13C20818   2.218   0.015   6.558  1.2488  2.2890 -0.9927
  182POPC   C1420819   2.367   0.225   6.664 -0.3144  0.8479 -0.1634
  182POPC  H14A20820   2.312   0.307   6.621  2.8573  3.3721  0.2088
  182POPC  H14B20821   2.442   0.267   6.730  0.6249  0.9078 -1.2371
  182POPC  H14C20822   2.423   0.182   6.582 -0.7909  4.3064 -2.4868
  182POPC   C1520823   2.399   0.018   6.775  0.4004 -0.2429 -0.1619
  182POPC  H15A20824   2.340  -0.066   6.810  3.5145 -3.0578 -1.1585
  182POPC  H15B20825   2.468   0.049   6.852 -0.3967 -1.1937  0.9770
  182POPC  H15C20826   2.457  -0.019   6.691  2.3955  1.8792  0.1936
  182POPC   C1120827   2.173   0.323   6.866  0.0116 -0.0354  0.0971
  182POPC  H11A20828   2.254   0.394   6.890 -0.5030  0.6964 -0.2918
  182POPC  H11B20829   2.103   0.322   6.953  1.0570 -2.6698  1.0176
  182POPC     P20830   2.106   0.493   6.676 -0.7837 -0.2727  0.2100
  182POPC   O1320831   2.177   0.589   6.765  0.1599 -0.5099  0.0316
  182POPC   O1420832   1.980   0.531   6.604 -0.0804  0.2169 -0.3242
  182POPC   O1220833   2.091   0.355   6.747  0.2180 -0.1642  0.1379
  182POPC   O1120834   2.208   0.458   6.559  0.0457 -0.0566 -0.2685
  182POPC    C120835   2.167   0.398   6.438  0.2848 -0.4880  0.3816
  182POPC    HA20836   2.097   0.313   6.448  0.4825 -0.6794  0.1588
  182POPC    HB20837   2.254   0.342   6.397  0.1359  1.6549 -3.3835
  182POPC    C220838   2.138   0.500   6.324 -0.0931  0.3075  0.4865
  182POPC    HS20839   2.060   0.565   6.368  0.8134  1.2580  0.7362
  182POPC   O2120840   2.091   0.436   6.202  0.0286  0.2362 -0.3303
  182POPC   C2120841   1.982   0.364   6.206  0.8077 -0.2216 -0.7826
  182POPC   O2220842   1.900   0.353   6.302  0.1799 -0.7583 -0.3598
  182POPC   C2220843   1.967   0.293   6.077 -0.1802 -0.5524  0.5654
  182POPC   H2R20844   2.067   0.258   6.044  0.0806  3.1007 -3.2976
  182POPC   H2S20845   1.924   0.366   6.005  3.0120  0.6435 -0.2923
  182POPC    C320846   2.259   0.600   6.286 -0.0326 -0.3500 -0.7653
  182POPC    HX20847   2.340   0.524   6.277  0.7514  0.3373  0.2398
  182POPC    HY20848   2.280   0.672   6.368 -0.2020 -0.7010 -0.4092
  182POPC   O3120849   2.252   0.652   6.159 -0.0263 -0.4248 -0.6715
  182POPC   C3120850   2.174   0.767   6.149 -1.3790 -0.6542 -0.1600
  182POPC   O3220851   2.110   0.814   6.241 -0.1780 -0.4038 -0.1407
  182POPC   C3220852   2.183   0.834   6.015  0.0278  0.3346 -0.4007
  182POPC   H2X20853   2.155   0.941   6.020  0.6273  0.5182 -0.8004
  182POPC   H2Y20854   2.119   0.784   5.939  1.4669  1.1917 -2.2875
  182POPC   C2320855   1.868   0.174   6.089  0.0984 -0.5008 -0.1425
  182POPC   H3R20856   1.769   0.211   6.122  0.3887 -0.5098  0.7798
  182POPC   H3S20857   1.900   0.100   6.166 -2.4395 -1.0622  0.4550
  182POPC   C2420858   1.846   0.106   5.949  0.0486  0.3961  0.0538
  182POPC   H4R20859   1.776   0.021   5.965 -0.2195  0.6840  0.4473
  182POPC   H4S20860   1.939   0.060   5.910  1.8842  1.8561  2.3881
  182POPC   C2520861   1.791   0.194   5.835  0.2674  0.6347 -0.5099
  182POPC   H5R20862   1.871   0.267   5.813  0.2910  0.9899  0.6753
  182POPC   H5S20863   1.710   0.259   5.873 -0.7930 -1.3080  0.7318
  182POPC   C2620864   1.730   0.113   5.718 -0.4970 -0.7268  0.9917
  182POPC   H6R20865   1.666   0.024   5.739 -0.9582 -1.0970 -1.6413
  182POPC   H6S20866   1.811   0.064   5.660  0.1718  1.9161 -0.4527
  182POPC   C2720867   1.657   0.210   5.621  0.1752 -0.5535  0.5853
  182POPC   H7R20868   1.638   0.155   5.527 -0.5670 -0.7461  0.8442
  182POPC   H7S20869   1.725   0.294   5.597  0.5126 -1.1914 -0.7604
  182POPC   C2820870   1.524   0.275   5.671 -0.2656 -0.4913 -0.2583
  182POPC   H8R20871   1.471   0.318   5.584  0.2961  1.6732  0.4084
  182POPC   H8S20872   1.555   0.368   5.724  0.3564 -1.7883  1.7925
  182POPC   C2920873   1.426   0.202   5.758  0.0674 -0.8561  0.4160
  182POPC   H9120874   1.437   0.227   5.865  1.2636 -0.5577  0.2373
  182POPC  C21020875   1.336   0.117   5.708 -0.2158 -0.9704  0.2631
  182POPC  H10120876   1.248   0.087   5.767 -1.6235 -1.4282 -1.9664
  182POPC  C21120877   1.328   0.060   5.567  0.1912  0.1530  0.4489
  182POPC  H11R20878   1.358  -0.046   5.552 -0.7054  0.0518 -0.7998
  182POPC  H11S20879   1.393   0.122   5.501 -1.1897 -0.8138 -1.9471
  182POPC  C21220880   1.186   0.066   5.510 -0.2449  0.0925 -0.1401
  182POPC  H12R20881   1.147   0.161   5.552 -1.3825  1.0399 -3.0674
  182POPC  H12S20882   1.126  -0.023   5.540 -0.9924  0.4059 -0.6702
  182POPC  C21320883   1.175   0.081   5.358  0.5990 -0.3590  0.0098
  182POPC  H13R20884   1.249   0.160   5.333 -1.0365  2.8700  4.1541
  182POPC  H13S20885   1.073   0.118   5.334  1.5327  1.5987 -1.1213
  182POPC  C21420886   1.193  -0.057   5.290 -0.1019 -0.4301 -0.4761
  182POPC  H14R20887   1.137  -0.141   5.337 -2.0993  0.6575 -0.8200
  182POPC  H14S20888   1.301  -0.080   5.283 -0.2003 -0.9415 -0.3286
  182POPC  C21520889   1.141  -0.056   5.144  0.1194 -0.0264 -0.3397
  182POPC  H15R20890   1.208   0.019   5.095  1.4982 -0.1056  1.3283
  182POPC  H15S20891   1.039  -0.013   5.136  0.5951  0.9853 -1.2214
  182POPC  C21620892   1.135  -0.193   5.079 -0.2803  0.3814  0.8759
  182POPC  H16R20893   1.065  -0.259   5.134  0.1469 -1.6047 -0.8016
  182POPC  H16S20894   1.239  -0.232   5.080 -0.0126  0.8002 -2.0575
  182POPC  C21720895   1.091  -0.183   4.935  0.3593  0.1242 -0.2428
  182POPC  H17R20896   1.163  -0.125   4.874 -0.3397  2.4713  1.0354
  182POPC  H17S20897   0.996  -0.126   4.933  1.1287  1.5132  1.1133
  182POPC  C21820898   1.056  -0.323   4.879  0.1492  0.5170 -0.2113
  182POPC  H18R20899   0.966  -0.365   4.929 -0.2240  0.7443 -0.6854
  182POPC  H18S20900   1.139  -0.396   4.890 -0.5928 -0.1693  1.0576
  182POPC  H18T20901   1.033  -0.307   4.771 -0.2145  1.7901  0.0391
  182POPC   C3320902   2.334   0.829   5.956  0.3090  0.1030 -0.4655
  182POPC   H3X20903   2.370   0.726   5.937  0.6260  0.6174 -3.0055
  182POPC   H3Y20904   2.388   0.874   6.042 -0.1925 -0.8794  0.3706
  182POPC   C3420905   2.358   0.917   5.830 -0.2045  0.5645  0.4573
  182POPC   H4X20906   2.467   0.933   5.815 -0.3882  0.7595 -0.6946
  182POPC   H4Y20907   2.310   1.017   5.834  0.9196  1.1735 -0.5994
  182POPC   C3520908   2.308   0.852   5.698  0.3129  0.5232 -0.6614
  182POPC   H5X20909   2.198   0.842   5.694  0.4143 -0.2892 -2.6189
  182POPC   H5Y20910   2.360   0.754   5.705  0.7935  0.6425 -2.2425
  182POPC   C3620911   2.349   0.926   5.569 -0.2185  0.3047 -0.0381
  182POPC   H6X20912   2.459   0.926   5.557 -0.3274 -1.8263 -1.4779
  182POPC   H6Y20913   2.309   1.029   5.581 -0.4406  0.4914 -2.0158
  182POPC   C3720914   2.283   0.858   5.448 -0.8946 -1.3693 -0.6305
  182POPC   H7X20915   2.173   0.844   5.464 -1.0496 -0.1083 -0.4485
  182POPC   H7Y20916   2.328   0.757   5.438  0.6357 -0.5514 -2.5597
  182POPC   C3820917   2.297   0.935   5.319  0.4220  0.1362 -0.3731
  182POPC   H8X20918   2.406   0.948   5.306  0.1814  1.5976 -1.2104
  182POPC   H8Y20919   2.242   1.032   5.315  0.3724  0.1787  0.7669
  182POPC   C3920920   2.247   0.865   5.200  0.7746  0.2750  0.3949
  182POPC   H9X20921   2.149   0.814   5.216 -0.0813  1.8075  0.2905
  182POPC   H9Y20922   2.326   0.794   5.170  1.1570 -0.0201  2.0209
  182POPC  C31020923   2.215   0.957   5.082 -0.6986  1.0966  0.1346
  182POPC  H10X20924   2.307   0.988   5.028 -0.4960  0.7303  0.2614
  182POPC  H10Y20925   2.164   1.044   5.127  0.1019  1.3568  0.5588
  182POPC  C31120926   2.127   0.890   4.973 -0.2310  0.6614  0.2401
  182POPC  H11X20927   2.036   0.847   5.019 -0.8976  0.8393 -0.8875
  182POPC  H11Y20928   2.181   0.801   4.934 -1.8913 -0.1519 -0.2935
  182POPC  C31220929   2.083   0.984   4.863  0.4576 -0.3745  0.0601
  182POPC  H12X20930   2.023   1.066   4.909  1.5452  1.2620 -1.3098
  182POPC  H12Y20931   2.008   0.942   4.793 -1.2120  2.2595  0.1069
  182POPC  C31320932   2.187   1.068   4.788  0.5837 -0.1022  0.2060
  182POPC  H13X20933   2.229   0.991   4.719 -0.7962 -0.5128 -0.1950
  182POPC  H13Y20934   2.266   1.100   4.859 -1.0240  1.6688  1.2873
  182POPC  C31420935   2.143   1.185   4.695 -0.0880  0.5847 -0.9420
  182POPC  H14X20936   2.089   1.266   4.749  0.5654  1.4572 -1.5602
  182POPC  H14Y20937   2.080   1.137   4.617  0.0734 -1.3984  0.0972
  182POPC  C31520938   2.259   1.251   4.631  0.1289 -0.0617  0.5764
  182POPC  H15X20939   2.328   1.174   4.591 -1.7549 -1.6813  0.2771
  182POPC  H15Y20940   2.310   1.306   4.713 -1.9568  0.7199  1.4164
  182POPC  C31620941   2.209   1.351   4.529  0.2677  0.3687  0.4347
  182POPC  H16X20942   2.151   1.289   4.457  3.2184 -1.1311 -0.8173
  182POPC  H16Y20943   2.294   1.396   4.474  0.3504 -1.2665 -0.8713
  182POPC  H16Z20944   2.142   1.427   4.573  0.3498  0.3025  0.6744
  183POPC     N20945   5.459   6.708   7.064 -0.4477  0.4441 -0.7601
  183POPC   C1220946   5.385   6.653   6.945  0.2024 -0.3798  0.5727
  183POPC  H12A20947   5.399   6.546   6.944 -0.0041 -0.4055  0.3185
  183POPC  H12B20948   5.433   6.686   6.854  0.1074  0.7391  0.9189
  183POPC   C1320949   5.469   6.857   7.059 -0.1593  0.1388  0.0239
  183POPC  H13A20950   5.368   6.892   7.043 -0.5436 -0.9408  0.0182
  183POPC  H13B20951   5.510   6.893   7.152  0.8168  0.8747 -0.6689
  183POPC  H13C20952   5.531   6.891   6.978  1.2026 -3.1070 -0.4407
  183POPC   C1420953   5.390   6.660   7.185  0.7197 -0.0402 -0.0556
  183POPC  H14A20954   5.368   6.557   7.165  1.9046 -0.9817  2.8399
  183POPC  H14B20955   5.440   6.669   7.281  0.7013 -0.4394 -0.0096
  183POPC  H14C20956   5.298   6.715   7.197  2.2241  2.2924  2.0102
  183POPC   C1520957   5.588   6.637   7.057 -0.7543 -0.0829 -0.3206
  183POPC  H15A20958   5.659   6.675   7.130 -0.7345 -1.8020  0.6147
  183POPC  H15B20959   5.636   6.648   6.961 -0.0054 -0.6585 -0.0203
  183POPC  H15C20960   5.570   6.531   7.067 -1.3687  0.1301  1.0395
  183POPC   C1120961   5.235   6.687   6.930  0.8510 -0.7921 -0.2121
  183POPC  H11A20962   5.172   6.631   7.002 -1.3358 -0.0140 -1.4280
  183POPC  H11B20963   5.202   6.656   6.828 -2.3080  1.6783 -0.1010
  183POPC     P20964   5.080   6.897   6.930  0.3672  0.3300  0.1490
  183POPC   O1320965   5.091   7.043   6.950  0.6690  0.1069 -0.3712
  183POPC   O1420966   4.979   6.827   7.011  0.3303  0.3431 -0.2161
  183POPC   O1220967   5.213   6.821   6.955 -0.1220 -0.0045  0.3202
  183POPC   O1120968   5.050   6.874   6.774 -0.1640  0.0174  0.0661
  183POPC    C120969   5.121   6.966   6.688  0.2884 -0.3660  0.0752
  183POPC    HA20970   5.230   6.974   6.706  0.5318  1.3608 -1.7673
  183POPC    HB20971   5.080   7.069   6.685  2.6894  0.7390  1.6739
  183POPC    C220972   5.118   6.927   6.542  0.5866  0.0311 -0.0514
  183POPC    HS20973   5.159   7.005   6.475  2.4513 -2.2516 -1.7461
  183POPC   O2120974   4.985   6.891   6.508  0.4027  0.3830 -0.3273
  183POPC   C2120975   4.947   6.929   6.386  0.2069 -0.3515 -0.3564
  183POPC   O2220976   5.019   6.955   6.295  0.8798  0.1119 -0.2083
  183POPC   C2220977   4.799   6.938   6.384  0.9803  0.3115 -0.2044
  183POPC   H2R20978   4.780   7.033   6.330 -0.6398  1.3154  2.0057
  183POPC   H2S20979   4.765   6.952   6.489  0.0491 -3.1635  0.0929
  183POPC    C320980   5.196   6.794   6.522  0.2931 -0.9240 -0.2678
  183POPC    HX20981   5.149   6.725   6.595  0.8020  0.4591  1.4373
  183POPC    HY20982   5.298   6.800   6.565  0.6463 -0.5925 -1.1175
  183POPC   O3120983   5.186   6.747   6.391 -0.3163  0.3568  0.1137
  183POPC   C3120984   5.292   6.783   6.311  0.0546 -0.5959  0.4565
  183POPC   O3220985   5.386   6.850   6.348 -1.0945 -0.4559  0.8952
  183POPC   C3220986   5.264   6.722   6.168  0.1550 -0.1891 -0.4525
  183POPC   H2X20987   5.354   6.757   6.113  2.8035 -2.3745  2.1785
  183POPC   H2Y20988   5.170   6.770   6.133 -0.6626 -0.9643  0.6137
  183POPC   C2320989   4.727   6.821   6.327  0.5386 -0.0189 -0.0955
  183POPC   H3R20990   4.618   6.835   6.345  0.8198 -0.6282  2.4532
  183POPC   H3S20991   4.759   6.728   6.378 -0.6770 -0.3285  0.1268
  183POPC   C2420992   4.750   6.811   6.175 -0.0220  0.1572 -0.6622
  183POPC   H4R20993   4.856   6.820   6.142  0.1147  0.8873 -0.0685
  183POPC   H4S20994   4.690   6.897   6.139 -2.0082 -0.5825  0.7110
  183POPC   C2520995   4.705   6.676   6.121 -0.7433 -0.1817 -0.1342
  183POPC   H5R20996   4.602   6.653   6.155 -0.6146  1.4248  1.4589
  183POPC   H5S20997   4.773   6.600   6.166 -2.8110 -1.6290  0.6939
  183POPC   C2620998   4.721   6.666   5.969 -0.0158  0.0089  0.0746
  183POPC   H6R20999   4.705   6.562   5.933  0.8980 -0.9584  2.2609
  183POPC   H6S21000   4.829   6.680   5.950 -0.1371  1.5326  0.3298
  183POPC   C2721001   4.634   6.769   5.899 -0.2300 -0.4401 -0.2840
  183POPC   H7R21002   4.657   6.876   5.914  3.0720 -1.0841 -0.0907
  183POPC   H7S21003   4.531   6.758   5.939  1.0723 -1.3201  3.1751
  183POPC   C2821004   4.625   6.742   5.748  0.0685 -0.5465  0.2034
  183POPC   H8R21005   4.538   6.805   5.719 -0.1544 -0.8670  0.1718
  183POPC   H8S21006   4.586   6.639   5.738 -1.5981 -0.0741  1.4107
  183POPC   C2921007   4.750   6.765   5.662  0.2301  0.7912 -0.4369
  183POPC   H9121008   4.845   6.780   5.714 -0.8519 -0.4283  2.0442
  183POPC  C21021009   4.735   6.815   5.535 -0.1645 -0.2710 -0.0660
  183POPC  H10121010   4.827   6.828   5.475  0.9109  0.6790  1.6901
  183POPC  C21121011   4.609   6.815   5.450 -0.9635  0.2663 -0.6537
  183POPC  H11R21012   4.602   6.915   5.401  1.8644  0.3776 -1.0090
  183POPC  H11S21013   4.525   6.800   5.521  0.5800  1.2812  1.4920
  183POPC  C21221014   4.607   6.709   5.341  0.1113  0.1552  0.1215
  183POPC  H12R21015   4.502   6.709   5.306  0.2060 -0.5720 -0.1740
  183POPC  H12S21016   4.631   6.606   5.375 -1.9288 -0.0625  1.0227
  183POPC  C21321017   4.697   6.742   5.221 -0.0926  0.4020  0.2704
  183POPC  H13R21018   4.804   6.726   5.246 -0.2840  0.8922  1.5061
  183POPC  H13S21019   4.709   6.849   5.194 -0.3263 -0.1531 -2.2883
  183POPC  C21421020   4.647   6.667   5.100  0.2703  0.2104  0.0659
  183POPC  H14R21021   4.539   6.683   5.078  0.6896 -0.7460 -3.3678
  183POPC  H14S21022   4.649   6.557   5.114 -0.6918  0.0121 -1.1453
  183POPC  C21521023   4.711   6.707   4.967  0.0367  0.1181 -0.6092
  183POPC  H15R21024   4.748   6.811   4.980 -3.8463  1.4652  1.1723
  183POPC  H15S21025   4.632   6.708   4.890 -0.6837 -2.0853  0.0161
  183POPC  C21621026   4.827   6.621   4.913  0.2310 -0.4011 -0.2077
  183POPC  H16R21027   4.778   6.522   4.897 -3.7411  1.1860  0.8824
  183POPC  H16S21028   4.903   6.609   4.993 -1.5104 -2.4704  1.2595
  183POPC  C21721029   4.899   6.664   4.783  0.2013 -0.5884  0.1648
  183POPC  H17R21030   4.993   6.605   4.780 -0.3623 -1.5192  0.3520
  183POPC  H17S21031   4.929   6.771   4.796  1.3825 -0.8131 -0.5853
  183POPC  C21821032   4.811   6.655   4.660  0.0175 -1.0935 -0.5737
  183POPC  H18R21033   4.712   6.699   4.685  0.1650  0.2594 -2.1590
  183POPC  H18S21034   4.797   6.551   4.625  1.6789 -0.4625 -3.4739
  183POPC  H18T21035   4.858   6.723   4.585  1.1616  0.5525  1.5333
  183POPC   C3321036   5.259   6.568   6.164 -0.0750 -0.1933 -0.1611
  183POPC   H3X21037   5.156   6.541   6.197 -0.3057 -3.0834 -2.8027
  183POPC   H3Y21038   5.331   6.530   6.239  0.7346  1.5517 -0.0077
  183POPC   C3421039   5.279   6.491   6.031 -0.4991  0.3272  0.0375
  183POPC   H4X21040   5.317   6.389   6.055  0.5065  0.7123  0.1322
  183POPC   H4Y21041   5.352   6.546   5.968 -1.8521  1.0664 -0.9302
  183POPC   C3521042   5.156   6.485   5.948  0.0213 -0.1092 -0.4376
  183POPC   H5X21043   5.124   6.588   5.920  1.6545 -0.0755 -2.3723
  183POPC   H5Y21044   5.080   6.428   6.006 -0.4024  2.0316  1.2564
  183POPC   C3621045   5.186   6.407   5.827 -0.3024  0.5148  0.2876
  183POPC   H6X21046   5.244   6.315   5.848  0.9900  1.8515  3.1267
  183POPC   H6Y21047   5.244   6.475   5.761 -0.1981  0.7198  0.5908
  183POPC   C3721048   5.065   6.378   5.732 -0.9061 -0.0518  0.6792
  183POPC   H7X21049   4.988   6.317   5.784 -1.9469 -0.2329 -1.0124
  183POPC   H7Y21050   5.104   6.330   5.639 -1.0031  0.1618  0.5280
  183POPC   C3821051   4.997   6.505   5.678 -0.7470  0.5051 -0.1469
  183POPC   H8X21052   4.983   6.580   5.758 -0.2295  1.7694 -1.2198
  183POPC   H8Y21053   4.887   6.493   5.664 -0.7976 -0.7674  1.0835
  183POPC   C3921054   5.057   6.574   5.555  0.1604  0.1274 -0.0326
  183POPC   H9X21055   5.163   6.600   5.573 -0.4809  0.6686  3.7904
  183POPC   H9Y21056   5.000   6.669   5.543  0.5120  0.5386  1.3748
  183POPC  C31021057   5.045   6.497   5.422 -0.6858 -0.9623  0.0619
  183POPC  H10X21058   4.935   6.492   5.401 -1.2604  1.3722  2.1052
  183POPC  H10Y21059   5.097   6.399   5.430 -0.6645 -0.8513  1.4002
  183POPC  C31121060   5.125   6.560   5.295  0.0491  0.3211  0.7039
  183POPC  H11X21061   5.235   6.556   5.307  0.5350 -2.6412 -2.8857
  183POPC  H11Y21062   5.106   6.670   5.296 -0.1937  0.3298 -1.2493
  183POPC  C31221063   5.087   6.494   5.161  0.1470  0.9578 -0.1668
  183POPC  H12X21064   5.135   6.546   5.076  2.8418  1.9557  1.8138
  183POPC  H12Y21065   4.977   6.483   5.155  0.0809  1.4731  0.0458
  183POPC  C31321066   5.160   6.353   5.157 -0.4030  0.0991  0.5070
  183POPC  H13X21067   5.116   6.288   5.236  0.7906 -0.1680  0.9741
  183POPC  H13Y21068   5.270   6.363   5.172 -0.3723  0.6862 -0.0558
  183POPC  C31421069   5.141   6.273   5.035  0.3111 -0.2389  0.7602
  183POPC  H14X21070   5.038   6.282   4.995  0.4968  0.8642  0.4891
  183POPC  H14Y21071   5.178   6.169   5.045  1.9780  0.3077  0.5481
  183POPC  C31521072   5.232   6.328   4.919 -0.0100  0.0011  0.3285
  183POPC  H15X21073   5.339   6.324   4.949  0.3329  2.7306 -0.2882
  183POPC  H15Y21074   5.208   6.436   4.912  0.0877  0.0981  1.3176
  183POPC  C31621075   5.217   6.251   4.791 -0.0311 -0.2406  0.2346
  183POPC  H16X21076   5.121   6.261   4.736  0.7783  0.4812 -1.0916
  183POPC  H16Y21077   5.222   6.144   4.822  1.7466 -0.8222 -1.7900
  183POPC  H16Z21078   5.303   6.273   4.724 -1.1190  1.5090 -0.6444
  184POPC     N21079   5.565   1.887   7.027 -0.2870 -0.4134 -0.0905
  184POPC   C1221080   5.659   1.773   6.981 -0.4257 -0.7336 -0.3229
  184POPC  H12A21081   5.633   1.685   7.039 -1.4588  0.5076  1.1827
  184POPC  H12B21082   5.762   1.795   7.007  0.0387 -2.2051 -0.8335
  184POPC   C1321083   5.622   2.015   6.973 -0.0718 -0.2816  0.1365
  184POPC  H13A21084   5.716   2.041   7.019  0.2492  0.3815 -0.8563
  184POPC  H13B21085   5.642   2.001   6.868  0.1779 -0.2639  0.1814
  184POPC  H13C21086   5.551   2.093   6.997  2.2564  1.8680  0.5426
  184POPC   C1421087   5.425   1.853   6.969 -0.1210  0.0110  0.0053
  184POPC  H14A21088   5.354   1.929   6.997  0.6337  0.7815 -0.1317
  184POPC  H14B21089   5.426   1.849   6.861 -2.0968 -0.5739 -0.0237
  184POPC  H14C21090   5.398   1.754   7.003  1.4189 -0.1743  0.7753
  184POPC   C1521091   5.551   1.896   7.173 -0.2995 -0.1722  0.1897
  184POPC  H15A21092   5.650   1.912   7.214 -0.1397 -1.4974  0.3739
  184POPC  H15B21093   5.517   1.798   7.204  2.0385 -1.9167 -2.2746
  184POPC  H15C21094   5.474   1.965   7.203 -1.7907 -1.4953 -0.4691
  184POPC   C1121095   5.663   1.742   6.829 -0.8065 -0.2784  0.3934
  184POPC  H11A21096   5.564   1.726   6.780  0.1330  0.4064 -1.8527
  184POPC  H11B21097   5.705   1.639   6.822 -1.6968 -0.9377  3.1946
  184POPC     P21098   5.900   1.829   6.764 -0.1741 -0.1250  0.0912
  184POPC   O1321099   5.949   1.773   6.888  0.0839  0.2504  0.2085
  184POPC   O1421100   5.943   1.970   6.742 -0.0960  0.1103 -1.0985
  184POPC   O1221101   5.741   1.830   6.746  0.5561  0.3516  0.0215
  184POPC   O1121102   5.957   1.739   6.647  0.3142  0.0879 -0.0872
  184POPC    C121103   5.941   1.781   6.510 -0.1939 -0.1327 -0.1414
  184POPC    HA21104   6.014   1.853   6.469  1.2059 -0.6763  1.2621
  184POPC    HB21105   5.846   1.836   6.493 -0.8794 -2.0556 -3.3002
  184POPC    C221106   5.947   1.652   6.421  0.6406 -0.3965 -0.1038
  184POPC    HS21107   5.937   1.688   6.316 -3.4288 -1.7295 -0.3580
  184POPC   O2121108   5.847   1.555   6.454 -0.1014  0.1387  0.3363
  184POPC   C2121109   5.729   1.575   6.394  0.2004  0.4683  0.3538
  184POPC   O2221110   5.705   1.665   6.322  0.3951  0.3130 -0.6086
  184POPC   C2221111   5.651   1.439   6.411  0.5224  0.2308  0.1138
  184POPC   H2R21112   5.584   1.450   6.499  0.9984 -0.0040  0.5112
  184POPC   H2S21113   5.714   1.352   6.439  1.5756  1.4048  1.5146
  184POPC    C321114   6.079   1.589   6.427 -0.1013  0.2122  0.3536
  184POPC    HX21115   6.081   1.540   6.527 -0.9215  0.3208  0.4233
  184POPC    HY21116   6.164   1.662   6.429 -0.5755  0.7623  0.5838
  184POPC   O3121117   6.094   1.476   6.335 -0.2688  0.1063  0.3505
  184POPC   C3121118   6.147   1.521   6.216  0.6823 -0.0222 -0.7551
  184POPC   O3221119   6.159   1.640   6.194 -0.7495 -0.7102 -0.6502
  184POPC   C3221120   6.196   1.410   6.133  0.5865  0.1666  0.0988
  184POPC   H2X21121   6.112   1.340   6.112  1.8540 -1.5080  0.4282
  184POPC   H2Y21122   6.278   1.361   6.190 -0.2244 -0.6844  0.5591
  184POPC   C2321123   5.573   1.391   6.293  0.4292 -0.6484 -0.0214
  184POPC   H3R21124   5.475   1.443   6.283 -0.5295 -1.8220  2.4027
  184POPC   H3S21125   5.536   1.287   6.303 -1.5672  0.1408  1.6248
  184POPC   C2421126   5.630   1.403   6.153  0.1022  0.3616  1.0073
  184POPC   H4R21127   5.728   1.355   6.130 -0.9983 -1.0228 -1.1151
  184POPC   H4S21128   5.642   1.509   6.123 -0.6869 -0.2654 -1.8660
  184POPC   C2521129   5.537   1.330   6.047 -1.0319  0.7216  0.4024
  184POPC   H5R21130   5.436   1.375   6.062 -0.7724  1.1556  0.9141
  184POPC   H5S21131   5.538   1.226   6.085  0.7611  1.0786  1.4377
  184POPC   C2621132   5.575   1.338   5.902 -0.2865  0.1750  0.2935
  184POPC   H6R21133   5.677   1.293   5.900 -0.5741 -0.4778 -0.7147
  184POPC   H6S21134   5.581   1.442   5.862  1.0776 -0.4696 -1.3263
  184POPC   C2721135   5.480   1.263   5.811 -0.6181  0.0791  0.8645
  184POPC   H7R21136   5.393   1.328   5.788  0.3088  0.9761 -0.3411
  184POPC   H7S21137   5.435   1.185   5.875 -1.4256  0.4678  0.7746
  184POPC   C2821138   5.541   1.199   5.683  0.2331 -0.7022  0.5622
  184POPC   H8R21139   5.643   1.159   5.699  1.2679  1.6436  0.2698
  184POPC   H8S21140   5.564   1.289   5.621  1.3667  0.7365  2.9146
  184POPC   C2921141   5.454   1.104   5.606 -0.0916 -0.6660  0.1981
  184POPC   H9121142   5.356   1.075   5.645 -0.4093  0.1628  0.0329
  184POPC  C21021143   5.490   1.047   5.496 -0.0962 -0.3299 -0.5566
  184POPC  H10121144   5.428   0.972   5.445  2.2985 -0.9847 -2.7265
  184POPC  C21121145   5.623   1.063   5.430  0.4758  0.0862 -0.1737
  184POPC  H11R21146   5.671   0.963   5.417 -0.1826 -0.8233  3.2908
  184POPC  H11S21147   5.695   1.118   5.495  0.0532  1.5585 -0.9167
  184POPC  C21221148   5.633   1.127   5.294  0.0478 -0.4531 -0.3895
  184POPC  H12R21149   5.737   1.153   5.264  0.1279 -2.4268 -2.0372
  184POPC  H12S21150   5.580   1.225   5.288 -1.2470 -1.2204 -2.0342
  184POPC  C21321151   5.576   1.031   5.193 -0.1705  0.0808 -0.0282
  184POPC  H13R21152   5.469   1.016   5.221  0.3710  0.9274  2.7689
  184POPC  H13S21153   5.625   0.932   5.186 -0.9869 -0.2086 -3.0502
  184POPC  C21421154   5.597   1.089   5.052 -0.3702  0.4688  0.1909
  184POPC  H14R21155   5.708   1.094   5.042 -0.4269 -0.3974 -1.0828
  184POPC  H14S21156   5.568   1.196   5.049  1.7907  1.1025 -0.9265
  184POPC  C21521157   5.512   1.011   4.946 -0.7368 -0.4538 -0.4335
  184POPC  H15R21158   5.515   1.084   4.862  0.0508  1.5905  1.2574
  184POPC  H15S21159   5.406   1.021   4.976 -0.5268 -2.8555  1.3694
  184POPC  C21621160   5.564   0.871   4.913 -0.3412  0.4373  0.1066
  184POPC  H16R21161   5.542   0.813   5.005 -2.8981  1.6541  0.3421
  184POPC  H16S21162   5.675   0.875   4.902 -0.0389 -0.6684  2.2124
  184POPC  C21721163   5.509   0.807   4.785 -0.4662 -0.0675 -0.8024
  184POPC  H17R21164   5.400   0.825   4.790 -0.1614  1.5222  1.1925
  184POPC  H17S21165   5.534   0.699   4.793  0.0608  0.1310  0.4002
  184POPC  C21821166   5.565   0.863   4.656  0.0162  0.3326  0.0665
  184POPC  H18R21167   5.676   0.861   4.665 -0.1427  0.2292  2.9300
  184POPC  H18S21168   5.537   0.970   4.642 -1.9410 -0.2526 -0.8152
  184POPC  H18T21169   5.526   0.804   4.571 -0.2285  0.4093  0.1238
  184POPC   C3321170   6.256   1.453   5.999 -0.0794  0.1994 -0.3589
  184POPC   H3X21171   6.326   1.539   6.005 -0.9607  0.8709  0.9816
  184POPC   H3Y21172   6.179   1.498   5.932  0.2786 -2.2492 -2.5726
  184POPC   C3421173   6.324   1.333   5.930 -0.6376  0.2599 -0.3672
  184POPC   H4X21174   6.255   1.249   5.906  3.6102 -3.2660 -1.6628
  184POPC   H4Y21175   6.385   1.276   6.003 -0.5278  0.7425 -0.0725
  184POPC   C3521176   6.387   1.368   5.798  0.1641  0.4843 -0.1041
  184POPC   H5X21177   6.411   1.269   5.753  1.7334  0.1387  1.3931
  184POPC   H5Y21178   6.487   1.415   5.810  0.8508 -0.6752 -1.1111
  184POPC   C3621179   6.297   1.453   5.706  0.6048  0.1064  0.4279
  184POPC   H6X21180   6.298   1.559   5.742  1.3657 -0.7948  3.3691
  184POPC   H6Y21181   6.190   1.424   5.717  0.4547  0.2236 -0.6629
  184POPC   C3721182   6.356   1.443   5.560 -0.2757  0.3095 -0.6782
  184POPC   H7X21183   6.338   1.338   5.527 -0.7740 -0.4686  1.8972
  184POPC   H7Y21184   6.466   1.461   5.561 -0.0687 -0.8252  0.8592
  184POPC   C3821185   6.287   1.528   5.452  0.4662  0.0796 -0.1531
  184POPC   H8X21186   6.286   1.636   5.481 -1.6770  0.6349 -2.0142
  184POPC   H8Y21187   6.178   1.514   5.436  0.5143 -2.1275  1.1165
  184POPC   C3921188   6.347   1.508   5.315  0.6501 -0.5121  0.3570
  184POPC   H9X21189   6.349   1.400   5.289 -0.1519 -0.8578  1.6745
  184POPC   H9Y21190   6.444   1.561   5.303  0.2493 -0.1204 -1.5229
  184POPC  C31021191   6.279   1.588   5.199  0.7038 -0.0169 -0.5805
  184POPC  H10X21192   6.285   1.695   5.227 -1.3887  0.3534 -1.3772
  184POPC  H10Y21193   6.171   1.561   5.206  1.0357 -1.2172  0.2571
  184POPC  C31121194   6.344   1.559   5.070 -0.0281 -0.1971  0.4848
  184POPC  H11X21195   6.364   1.451   5.050  0.0109 -0.1172  0.1016
  184POPC  H11Y21196   6.442   1.611   5.062  0.2482 -0.6139  1.0497
  184POPC  C31221197   6.257   1.630   4.960  0.0579  0.4375  0.2187
  184POPC  H12X21198   6.223   1.723   5.010  1.1183  1.5091 -0.9795
  184POPC  H12Y21199   6.168   1.565   4.941  0.2140  0.1513  0.4515
  184POPC  C31321200   6.341   1.661   4.837 -0.1168 -0.1931 -0.5113
  184POPC  H13X21201   6.435   1.714   4.862 -0.0091  0.2295 -1.7646
  184POPC  H13Y21202   6.291   1.731   4.767 -0.5948 -1.7726 -1.8335
  184POPC  C31421203   6.368   1.534   4.754  0.2694 -0.0898 -0.4583
  184POPC  H14X21204   6.270   1.483   4.741  0.1874 -0.5592  1.5768
  184POPC  H14Y21205   6.418   1.460   4.821  0.5739  0.8236  0.3523
  184POPC  C31521206   6.435   1.550   4.622 -0.2438 -0.3210 -0.2488
  184POPC  H15X21207   6.545   1.567   4.631 -0.5644  1.5653  0.5030
  184POPC  H15Y21208   6.381   1.629   4.567 -2.8870 -0.1555  2.3229
  184POPC  C31621209   6.405   1.416   4.551 -0.5296  0.6146 -0.4901
  184POPC  H16X21210   6.298   1.389   4.563 -0.0876 -1.4394 -0.7877
  184POPC  H16Y21211   6.454   1.325   4.591 -1.9773 -1.3292 -2.8444
  184POPC  H16Z21212   6.430   1.434   4.444 -0.5167 -0.4623 -0.6861
  185POPC     N21213   2.286   1.008   1.734 -0.4298 -0.3170  0.4898
  185POPC   C1221214   2.336   1.099   1.846 -0.1452 -0.5520  0.6460
  185POPC  H12A21215   2.370   1.193   1.808 -1.7235 -1.0503 -2.2930
  185POPC  H12B21216   2.418   1.051   1.897 -1.9025 -2.4882  1.8264
  185POPC   C1321217   2.181   1.082   1.663  0.4037  0.5705  0.0898
  185POPC  H13A21218   2.136   1.023   1.585  3.8486 -0.6900 -1.1612
  185POPC  H13B21219   2.100   1.124   1.720 -0.0079  1.5650 -1.1778
  185POPC  H13C21220   2.222   1.162   1.603  0.4211  0.0578 -0.6008
  185POPC   C1421221   2.402   0.958   1.645 -0.0451 -0.6295  0.0830
  185POPC  H14A21222   2.480   0.913   1.706  0.4796  0.9163  0.6075
  185POPC  H14B21223   2.371   0.891   1.566 -1.1553 -1.6701  1.3512
  185POPC  H14C21224   2.454   1.042   1.600  2.7063 -2.2994 -0.0708
  185POPC   C1521225   2.223   0.887   1.791 -0.1756 -0.2362  0.4756
  185POPC  H15A21226   2.194   0.815   1.716  1.8330 -1.3485  0.6934
  185POPC  H15B21227   2.143   0.924   1.854 -0.0678 -1.2455  1.2303
  185POPC  H15C21228   2.291   0.825   1.848 -1.0786  1.4890  3.7018
  185POPC   C1121229   2.234   1.123   1.961 -0.1152  0.2278  0.1185
  185POPC  H11A21230   2.278   1.201   2.027  1.7637  0.1705 -0.9942
  185POPC  H11B21231   2.219   1.029   2.018 -1.1110 -0.7412 -1.6478
  185POPC     P21232   1.975   1.113   1.954  0.1586 -0.0707  0.0745
  185POPC   O1321233   1.992   1.003   2.056 -0.6177  0.6731 -0.2897
  185POPC   O1421234   1.913   1.087   1.821 -0.3430 -0.3778 -0.6047
  185POPC   O1221235   2.117   1.181   1.917 -0.1591  0.0192  0.7186
  185POPC   O1121236   1.891   1.226   2.029 -0.1408 -0.6361  0.1794
  185POPC    C121237   1.956   1.306   2.125 -1.2466  0.4822 -0.2788
  185POPC    HA21238   1.991   1.399   2.075 -1.8681  1.4031  0.9413
  185POPC    HB21239   2.044   1.250   2.164 -1.3523  0.7511  0.3540
  185POPC    C221240   1.869   1.333   2.247  0.4912 -0.0483  0.0262
  185POPC    HS21241   1.805   1.420   2.218  0.2942  0.2183  1.1915
  185POPC   O2121242   1.950   1.364   2.361  0.1297  0.2796  0.1052
  185POPC   C2121243   2.031   1.469   2.350  0.1311 -0.6767 -0.3228
  185POPC   O2221244   2.040   1.550   2.263  0.0156  0.0336  0.0103
  185POPC   C2221245   2.104   1.484   2.487  0.3727 -0.9040  0.0966
  185POPC   H2R21246   2.164   1.390   2.489  1.5352 -0.1849  0.4138
  185POPC   H2S21247   2.038   1.480   2.576  0.6932  1.5587  0.5342
  185POPC    C321248   1.780   1.218   2.286  0.3487 -0.6616 -0.3612
  185POPC    HX21249   1.853   1.137   2.311 -0.0435 -1.2849 -1.1844
  185POPC    HY21250   1.722   1.178   2.201  0.6007 -2.3847  0.2210
  185POPC   O3121251   1.684   1.243   2.387 -0.4038  0.1111  0.1786
  185POPC   C3121252   1.590   1.325   2.350 -0.1713 -0.2400 -0.4948
  185POPC   O3221253   1.571   1.362   2.237 -0.8985  0.3686  0.1153
  185POPC   C3221254   1.512   1.371   2.474  0.3011 -0.3281  0.3554
  185POPC   H2X21255   1.430   1.307   2.511  0.2767  0.2084  1.2592
  185POPC   H2Y21256   1.469   1.465   2.432  1.0677 -0.9095 -1.8641
  185POPC   C2321257   2.205   1.601   2.500  0.4074 -0.1113 -0.6547
  185POPC   H3R21258   2.160   1.701   2.519 -0.7002 -0.7382  0.1112
  185POPC   H3S21259   2.250   1.612   2.399  2.0051  0.9051  0.1304
  185POPC   C2421260   2.315   1.571   2.599 -0.1488 -0.2356 -0.5384
  185POPC   H4R21261   2.395   1.648   2.596 -0.3990  0.1504  1.2302
  185POPC   H4S21262   2.363   1.482   2.553  0.5840  0.0422 -0.3199
  185POPC   C2521263   2.268   1.541   2.744 -0.1240  0.0967 -0.0442
  185POPC   H5R21264   2.178   1.478   2.730 -1.8186  2.4116 -0.1681
  185POPC   H5S21265   2.219   1.633   2.783 -2.3478 -1.8497  2.1022
  185POPC   C2621266   2.384   1.479   2.824 -0.6380 -0.6197 -0.4946
  185POPC   H6R21267   2.452   1.559   2.861 -1.1002 -0.7051  0.5674
  185POPC   H6S21268   2.443   1.408   2.762  0.9005 -0.4074  0.6484
  185POPC   C2721269   2.327   1.410   2.944 -0.2030 -0.0494 -0.3364
  185POPC   H7R21270   2.265   1.326   2.907  0.6188 -0.9849  0.3385
  185POPC   H7S21271   2.269   1.470   3.018  1.2176 -1.1868  1.8082
  185POPC   C2821272   2.443   1.363   3.032  0.0142  0.4490  0.2654
  185POPC   H8R21273   2.472   1.454   3.090  0.1803 -0.7720  2.1765
  185POPC   H8S21274   2.532   1.332   2.972  0.8395 -1.2955  2.2549
  185POPC   C2921275   2.401   1.244   3.113 -0.0625 -0.4887 -0.5064
  185POPC   H9121276   2.370   1.153   3.060  0.9414 -2.0286  1.4362
  185POPC  C21021277   2.380   1.233   3.250  0.1568  0.1757  0.2049
  185POPC  H10121278   2.375   1.132   3.293 -1.3155 -0.3331 -1.0900
  185POPC  C21121279   2.415   1.353   3.340  0.3859 -0.2099 -0.1060
  185POPC  H11R21280   2.327   1.420   3.353 -1.5317 -2.5006 -0.5751
  185POPC  H11S21281   2.485   1.423   3.289 -1.2982  0.5252 -1.4985
  185POPC  C21221282   2.480   1.301   3.468 -0.3038  0.3107 -0.8329
  185POPC  H12R21283   2.575   1.252   3.437  0.8524  3.2416 -2.2540
  185POPC  H12S21284   2.423   1.224   3.524  0.2308  0.5747  0.0976
  185POPC  C21321285   2.495   1.411   3.575 -0.3306  0.7357 -0.2553
  185POPC  H13R21286   2.395   1.456   3.594  0.9601  3.1784  1.2989
  185POPC  H13S21287   2.567   1.483   3.529  0.7042 -0.0793  0.0471
  185POPC  C21421288   2.567   1.386   3.703  0.2273  0.1075 -0.8254
  185POPC  H14R21289   2.503   1.323   3.769 -0.2875  1.5823  0.1377
  185POPC  H14S21290   2.574   1.472   3.773  0.8864  0.1870 -0.9854
  185POPC  C21521291   2.699   1.305   3.703  0.3450  0.4924  0.2210
  185POPC  H15R21292   2.780   1.369   3.661 -1.0861  1.2733 -1.4910
  185POPC  H15S21293   2.691   1.221   3.631 -0.4123  2.2901 -1.9240
  185POPC  C21621294   2.735   1.252   3.843 -0.2242 -0.1961 -0.1439
  185POPC  H16R21295   2.731   1.333   3.918 -0.2442 -1.5190  1.3192
  185POPC  H16S21296   2.836   1.205   3.842 -1.7095 -3.6984 -0.6951
  185POPC  C21721297   2.653   1.142   3.899 -0.6480  0.0551  0.1063
  185POPC  H17R21298   2.628   1.062   3.826 -0.2925 -0.6164  0.7081
  185POPC  H17S21299   2.558   1.191   3.932 -1.5605 -1.0415 -0.8045
  185POPC  C21821300   2.717   1.088   4.030  0.1505 -0.4685 -0.2797
  185POPC  H18R21301   2.653   1.010   4.078  0.2967 -0.8329 -0.6719
  185POPC  H18S21302   2.726   1.179   4.092  1.1583 -0.0172 -1.0557
  185POPC  H18T21303   2.821   1.057   4.007  0.4071  0.2754 -0.1437
  185POPC   C3321304   1.597   1.410   2.597  0.0934  1.3023  0.5766
  185POPC   H3X21305   1.688   1.465   2.564  0.8825  1.2197  2.5229
  185POPC   H3Y21306   1.625   1.312   2.641  0.7750  1.2282  0.0111
  185POPC   C3421307   1.518   1.484   2.703 -1.3423 -0.7036  0.8305
  185POPC   H4X21308   1.442   1.414   2.743 -0.1542 -2.8767 -0.4754
  185POPC   H4Y21309   1.478   1.575   2.653 -0.9221 -0.3695  1.0958
  185POPC   C3521310   1.613   1.547   2.807  0.2939  0.0805 -0.5221
  185POPC   H5X21311   1.686   1.615   2.757  1.2754 -1.2157 -0.8902
  185POPC   H5Y21312   1.669   1.459   2.845 -1.8545 -1.6845 -1.2374
  185POPC   C3621313   1.533   1.600   2.926  0.7747 -0.2246 -0.0819
  185POPC   H6X21314   1.451   1.663   2.888  0.1306 -0.6345  0.6115
  185POPC   H6Y21315   1.604   1.669   2.977 -0.7502  0.9292  0.5422
  185POPC   C3721316   1.491   1.496   3.033 -0.4576  0.2554  0.3052
  185POPC   H7X21317   1.583   1.440   3.058  1.4963  3.1561  0.0534
  185POPC   H7Y21318   1.418   1.425   2.988  1.2572 -0.9033 -0.7459
  185POPC   C3821319   1.452   1.552   3.172  0.0806 -0.1651 -0.7291
  185POPC   H8X21320   1.411   1.473   3.238  0.6662 -0.3912 -0.6275
  185POPC   H8Y21321   1.364   1.618   3.157  0.4219  0.1767 -1.2822
  185POPC   C3921322   1.563   1.638   3.238  0.9717  0.3346  0.0410
  185POPC   H9X21323   1.576   1.734   3.184 -0.5196 -0.0390 -1.0537
  185POPC   H9Y21324   1.651   1.572   3.245  0.2311 -0.4693  2.6062
  185POPC  C31021325   1.538   1.681   3.383  0.6396 -0.0673 -0.2683
  185POPC  H10X21326   1.520   1.591   3.447  2.4522  0.8341  1.6231
  185POPC  H10Y21327   1.440   1.734   3.391  0.3726 -0.5348 -0.3767
  185POPC  C31121328   1.665   1.745   3.442  0.4229  0.1512 -0.1634
  185POPC  H11X21329   1.692   1.848   3.409  0.9958  0.1747  0.3628
  185POPC  H11Y21330   1.752   1.681   3.417 -1.1475 -1.0065 -3.1491
  185POPC  C31221331   1.658   1.753   3.594 -0.0604 -0.2199  0.2834
  185POPC  H12X21332   1.618   1.666   3.649 -0.4515  1.1236  2.2402
  185POPC  H12Y21333   1.583   1.831   3.622  1.4925  1.0370  1.1305
  185POPC  C31321334   1.791   1.794   3.649  0.4026  0.2626  0.3364
  185POPC  H13X21335   1.809   1.900   3.620 -0.8529  0.4501  0.2156
  185POPC  H13Y21336   1.877   1.732   3.615  1.4252  0.8662  1.7054
  185POPC  C31421337   1.787   1.783   3.802  0.2969  0.0137 -0.9024
  185POPC  H14X21338   1.767   1.684   3.847 -0.6401  1.9434  3.5063
  185POPC  H14Y21339   1.698   1.844   3.830 -0.5842 -1.5311 -0.2465
  185POPC  C31521340   1.915   1.837   3.863 -0.2664 -0.2836  0.6719
  185POPC  H15X21341   1.932   1.936   3.816 -1.5282 -0.3150  0.0980
  185POPC  H15Y21342   1.987   1.766   3.816  0.5737  2.0635 -1.8562
  185POPC  C31621343   1.921   1.846   4.014  0.0353 -0.0575 -0.0371
  185POPC  H16X21344   2.023   1.864   4.055 -0.4465  2.3369  0.2887
  185POPC  H16Y21345   1.898   1.751   4.067 -1.8052  1.6377  2.4327
  185POPC  H16Z21346   1.855   1.930   4.045  3.3561  1.7315  2.9192
  186POPC     N21347   5.780   2.971   2.396  0.3312 -0.2975  0.1488
  186POPC   C1221348   5.907   3.051   2.414  0.1035 -0.2542 -0.7336
  186POPC  H12A21349   5.991   2.985   2.429  0.4587  0.3842  0.1030
  186POPC  H12B21350   5.903   3.118   2.498  0.1514 -0.7598 -0.3287
  186POPC   C1321351   5.728   2.907   2.519  0.2616 -0.2310 -0.0189
  186POPC  H13A21352   5.637   2.851   2.501  0.9243 -1.2470 -0.3322
  186POPC  H13B21353   5.799   2.837   2.559  1.1553  1.1438  0.8775
  186POPC  H13C21354   5.710   2.987   2.589  2.1816  0.5462 -0.3585
  186POPC   C1421355   5.658   3.041   2.344 -0.0846 -0.1502  0.2509
  186POPC  H14A21356   5.685   3.104   2.261 -1.1918  1.9026  1.3792
  186POPC  H14B21357   5.586   2.972   2.303 -2.7816  1.4039  2.0560
  186POPC  H14C21358   5.611   3.099   2.422  0.5304  2.3555 -1.1577
  186POPC   C1521359   5.812   2.867   2.297  0.0103  0.0678  0.1303
  186POPC  H15A21360   5.844   2.905   2.201  1.6469  0.9835  0.9891
  186POPC  H15B21361   5.732   2.798   2.275  0.6677 -0.4992 -0.5048
  186POPC  H15C21362   5.891   2.797   2.322  1.3786  1.1088 -1.1092
  186POPC   C1121363   5.936   3.153   2.298  1.0550 -0.5151  0.2427
  186POPC  H11A21364   5.923   3.101   2.200 -1.5901  2.5426 -1.2258
  186POPC  H11B21365   6.041   3.189   2.298  1.2979 -1.2131  0.1220
  186POPC     P21366   5.859   3.379   2.407  0.0269  0.0822  0.1074
  186POPC   O1321367   5.732   3.453   2.402  0.2825 -0.5825 -0.0104
  186POPC   O1421368   5.988   3.445   2.376 -0.1539  0.0650  0.3576
  186POPC   O1221369   5.846   3.263   2.299  0.4256 -0.6574  0.1154
  186POPC   O1121370   5.864   3.301   2.541  0.5796 -0.4532  0.3576
  186POPC    C121371   5.971   3.313   2.635 -0.6476 -0.5800  0.5307
  186POPC    HA21372   6.011   3.417   2.640  0.8762 -1.0903 -0.2951
  186POPC    HB21373   6.051   3.242   2.605  0.6743  1.2771 -0.6026
  186POPC    C221374   5.933   3.276   2.782 -0.5495  0.4814 -0.8174
  186POPC    HS21375   5.934   3.166   2.798 -0.6535  0.9203  3.0005
  186POPC   O2121376   5.806   3.338   2.810 -0.2069  0.5754 -0.3487
  186POPC   C2121377   5.700   3.265   2.803  0.0485  0.2871  0.0450
  186POPC   O2221378   5.698   3.148   2.770 -0.4374  0.3425 -0.3819
  186POPC   C2221379   5.572   3.337   2.841  1.2437  0.1852 -0.6916
  186POPC   H2R21380   5.491   3.318   2.767  0.1685  0.6486  0.3348
  186POPC   H2S21381   5.586   3.447   2.842 -0.2539  0.4116 -1.5617
  186POPC    C321382   6.050   3.327   2.872  0.0446 -0.3112 -0.1788
  186POPC    HX21383   6.076   3.430   2.840 -0.2350 -0.3990 -0.7086
  186POPC    HY21384   6.139   3.265   2.851 -0.9312 -2.1904  0.9603
  186POPC   O3121385   6.006   3.327   3.016  0.5845  0.1379  0.2043
  186POPC   C3121386   6.020   3.208   3.076  0.9419 -0.3157  0.8831
  186POPC   O3221387   6.053   3.105   3.026  0.1571 -0.0598 -0.5464
  186POPC   C3221388   5.981   3.226   3.220 -0.1251  0.3294 -0.3977
  186POPC   H2X21389   6.001   3.326   3.265 -1.8281 -0.0129  1.2927
  186POPC   H2Y21390   6.048   3.154   3.272 -0.1382 -1.0405 -2.2001
  186POPC   C2321391   5.535   3.289   2.989 -0.2264  0.2139 -0.8609
  186POPC   H3R21392   5.622   3.309   3.056 -0.9464 -0.5370  0.3564
  186POPC   H3S21393   5.521   3.179   2.988  2.5318 -0.2660  0.6540
  186POPC   C2421394   5.402   3.357   3.035  0.1308 -0.4879  0.0090
  186POPC   H4R21395   5.319   3.349   2.961 -0.1517  1.8258 -0.0043
  186POPC   H4S21396   5.426   3.466   3.037 -0.2294 -0.3960  2.0050
  186POPC   C2521397   5.346   3.320   3.175  0.1827 -0.2350 -0.3963
  186POPC   H5R21398   5.324   3.212   3.178  1.7420 -0.5506  2.0581
  186POPC   H5S21399   5.256   3.382   3.196  0.9872  0.1465  2.2039
  186POPC   C2621400   5.457   3.339   3.279  0.5034  0.1617  0.9599
  186POPC   H6R21401   5.509   3.437   3.280  1.3517 -0.1887 -1.8392
  186POPC   H6S21402   5.525   3.252   3.267  0.7228  0.0561  2.6821
  186POPC   C2721403   5.398   3.331   3.420  0.6417  0.1263 -0.3123
  186POPC   H7R21404   5.374   3.226   3.449  3.1759 -0.1051  1.2077
  186POPC   H7S21405   5.299   3.381   3.423 -0.1850 -1.4672  1.2439
  186POPC   C2821406   5.488   3.397   3.525  0.7406 -0.2082 -0.2227
  186POPC   H8R21407   5.495   3.504   3.498  1.6683  0.2486  1.6759
  186POPC   H8S21408   5.593   3.360   3.522  0.4119 -1.2035 -0.0141
  186POPC   C2921409   5.438   3.378   3.663 -0.5820 -0.0204  0.1480
  186POPC   H9121410   5.483   3.293   3.717 -0.8791  0.7393  1.6712
  186POPC  C21021411   5.357   3.463   3.726 -0.5364 -0.8234 -0.2464
  186POPC  H10121412   5.334   3.453   3.833  0.1316  1.2119  0.1344
  186POPC  C21121413   5.284   3.581   3.673  0.0253 -0.2803  0.0919
  186POPC  H11R21414   5.174   3.566   3.679 -0.0269  0.4516  3.9853
  186POPC  H11S21415   5.307   3.588   3.565 -0.0411  0.4420  0.1170
  186POPC  C21221416   5.291   3.717   3.747  0.1104 -1.1139 -0.0387
  186POPC  H12R21417   5.228   3.793   3.696 -0.0167 -1.4216 -0.3464
  186POPC  H12S21418   5.396   3.756   3.746 -0.2772  0.1416  1.9630
  186POPC  C21321419   5.248   3.728   3.896  0.0070  0.3082 -0.5389
  186POPC  H13R21420   5.293   3.646   3.956  0.5001 -1.2081 -2.8274
  186POPC  H13S21421   5.139   3.713   3.911  0.3002 -0.8723  0.5363
  186POPC  C21421422   5.304   3.853   3.973 -0.2511  0.2606  0.9730
  186POPC  H14R21423   5.271   3.944   3.917  1.0550 -0.1930 -0.6280
  186POPC  H14S21424   5.413   3.849   3.953  0.2852 -0.3045  3.6392
  186POPC  C21521425   5.283   3.853   4.116  0.5094  0.3665 -0.0476
  186POPC  H15R21426   5.367   3.797   4.161  0.2117  0.5039  0.6845
  186POPC  H15S21427   5.188   3.805   4.148 -0.3820  1.1374 -1.4243
  186POPC  C21621428   5.274   3.999   4.180 -0.4701 -0.4902  0.4268
  186POPC  H16R21429   5.183   4.044   4.136  1.1835 -0.7061 -3.6832
  186POPC  H16S21430   5.361   4.058   4.144 -1.8714  0.3789 -1.7519
  186POPC  C21721431   5.256   4.005   4.327  0.1004  0.1865 -0.8103
  186POPC  H17R21432   5.323   3.946   4.393 -1.1326 -0.1856  0.1492
  186POPC  H17S21433   5.156   3.963   4.352 -0.1846  0.7544 -0.9767
  186POPC  C21821434   5.242   4.146   4.377 -1.0169 -0.1472  0.0403
  186POPC  H18R21435   5.334   4.209   4.372  0.3269 -2.0985 -3.1380
  186POPC  H18S21436   5.150   4.188   4.330 -1.8819 -0.1108  1.6954
  186POPC  H18T21437   5.222   4.135   4.486 -1.7886 -2.4042 -0.2778
  186POPC   C3321438   5.831   3.205   3.249 -0.0258 -0.1480 -0.0016
  186POPC   H3X21439   5.793   3.116   3.195 -1.1374  0.6692 -0.6097
  186POPC   H3Y21440   5.759   3.288   3.232 -1.8189 -1.2287  1.8787
  186POPC   C3421441   5.817   3.173   3.400 -0.1571  0.1175  0.7918
  186POPC   H4X21442   5.865   3.075   3.419  0.1214 -0.0179 -0.4823
  186POPC   H4Y21443   5.711   3.165   3.430 -0.7103  2.5805 -0.1861
  186POPC   C3521444   5.868   3.275   3.498  0.0396  0.0069  0.5548
  186POPC   H5X21445   5.824   3.373   3.472  0.4470  0.2440  0.7468
  186POPC   H5Y21446   5.978   3.292   3.498 -0.1773  1.5220  1.3728
  186POPC   C3621447   5.837   3.223   3.640  0.2178  0.0589  0.4512
  186POPC   H6X21448   5.849   3.112   3.641  0.0404 -0.0073 -1.3739
  186POPC   H6Y21449   5.730   3.234   3.667  0.1444  0.4347  0.0067
  186POPC   C3721450   5.918   3.294   3.749 -0.4694  0.5766  0.2144
  186POPC   H7X21451   5.885   3.393   3.787  1.1472  1.1024  0.3485
  186POPC   H7Y21452   6.020   3.312   3.709  0.5080 -3.8249  0.2193
  186POPC   C3821453   5.937   3.196   3.868  0.1326  0.4886 -0.1785
  186POPC   H8X21454   5.949   3.089   3.841 -2.0378  0.1904 -0.1831
  186POPC   H8Y21455   5.843   3.198   3.927 -0.9958 -1.2570 -1.7936
  186POPC   C3921456   6.070   3.221   3.949 -0.2269  0.6329 -0.0617
  186POPC   H9X21457   6.068   3.323   3.993  1.3439  1.9144 -2.6536
  186POPC   H9Y21458   6.145   3.211   3.868 -1.7705  1.4564 -1.6699
  186POPC  C31021459   6.102   3.107   4.053  0.1642 -0.0204  0.3056
  186POPC  H10X21460   6.115   3.010   4.002  1.0498  0.5231 -0.5399
  186POPC  H10Y21461   6.017   3.097   4.124 -2.9071 -0.8419 -3.1793
  186POPC  C31121462   6.221   3.151   4.133  0.1107  0.7149 -0.4375
  186POPC  H11X21463   6.206   3.252   4.177 -0.5682  0.3244  0.2563
  186POPC  H11Y21464   6.307   3.157   4.063 -0.9353 -0.9843 -1.9536
  186POPC  C31221465   6.254   3.063   4.259  0.5785 -0.3247  0.5908
  186POPC  H12X21466   6.243   2.961   4.217 -1.8787 -0.1367  0.6788
  186POPC  H12Y21467   6.176   3.067   4.338 -1.7926 -3.4844 -1.3463
  186POPC  C31321468   6.395   3.083   4.321 -0.2875 -0.1541  0.9139
  186POPC  H13X21469   6.402   3.190   4.347  0.4105 -0.1487  0.7152
  186POPC  H13Y21470   6.467   3.058   4.239 -0.0140 -2.4012  1.7532
  186POPC  C31421471   6.424   2.995   4.446 -0.0944  0.2447 -0.0522
  186POPC  H14X21472   6.533   2.980   4.455  0.0511  0.5207 -1.1915
  186POPC  H14Y21473   6.369   2.899   4.440 -0.2333  0.3043  0.2384
  186POPC  C31521474   6.371   3.069   4.573 -0.0941 -0.0843 -0.2797
  186POPC  H15X21475   6.260   3.064   4.563 -0.0158 -2.0080 -0.5765
  186POPC  H15Y21476   6.392   3.178   4.578 -1.5481  0.2306 -0.3127
  186POPC  C31621477   6.404   2.999   4.715 -0.0230  0.4287  0.2814
  186POPC  H16X21478   6.357   3.056   4.798  1.7933 -1.6494  2.9046
  186POPC  H16Y21479   6.512   2.990   4.740 -0.6303 -1.8302  2.4804
  186POPC  H16Z21480   6.364   2.895   4.715  0.0841  0.3817  1.1789
  187POPC     N21481   2.941   6.607   2.209  0.1181  0.2577  0.1978
  187POPC   C1221482   3.076   6.672   2.251  0.5662  0.1993  0.2641
  187POPC  H12A21483   3.149   6.593   2.240  0.1395 -0.0381 -1.0501
  187POPC  H12B21484   3.068   6.689   2.357  0.0514 -1.4282  0.5000
  187POPC   C1321485   2.933   6.604   2.061  0.7620  0.7512 -0.6270
  187POPC  H13A21486   2.837   6.567   2.030 -0.0301 -0.1555  2.5653
  187POPC  H13B21487   2.947   6.704   2.020  0.1354  2.0960  2.2021
  187POPC  H13C21488   3.003   6.549   2.000  1.2070  0.5774  0.0304
  187POPC   C1421489   2.936   6.470   2.256  0.9010  0.8458 -0.0004
  187POPC  H14A21490   2.940   6.464   2.363 -2.1178 -3.0250  0.1527
  187POPC  H14B21491   2.841   6.428   2.227  0.3685  1.4468  0.8467
  187POPC  H14C21492   3.014   6.408   2.214  0.7652 -1.6457  3.0443
  187POPC   C1521493   2.830   6.692   2.261  0.3606  0.0371  0.3988
  187POPC  H15A21494   2.843   6.792   2.221  0.9358  0.0054  0.4931
  187POPC  H15B21495   2.829   6.688   2.369 -0.9657  0.0100  0.3952
  187POPC  H15C21496   2.743   6.655   2.209  1.1300 -0.5818 -0.4889
  187POPC   C1121497   3.115   6.811   2.197 -0.5478 -0.3499  1.0403
  187POPC  H11A21498   3.139   6.809   2.089 -1.3278  2.9316  0.6831
  187POPC  H11B21499   3.210   6.832   2.251 -0.0681 -0.9396  0.4448
  187POPC     P21500   3.017   6.993   2.338 -0.2010 -0.2436 -0.5284
  187POPC   O1321501   2.897   7.078   2.328  0.0634 -0.9426  1.1205
  187POPC   O1421502   3.148   7.056   2.349 -0.7176 -0.2168  0.1907
  187POPC   O1221503   3.021   6.912   2.211  0.4214 -0.1481 -0.8163
  187POPC   O1121504   2.996   6.891   2.454 -0.0713 -0.3058 -0.0379
  187POPC    C121505   2.945   6.930   2.587 -0.5203  0.5545  0.5447
  187POPC    HA21506   2.844   6.975   2.577  0.3906  2.5274 -0.4403
  187POPC    HB21507   3.011   7.008   2.632  1.1312 -1.3284  1.5574
  187POPC    C221508   2.947   6.802   2.670  0.1644 -0.0402 -0.2864
  187POPC    HS21509   2.885   6.815   2.761 -4.3535 -2.4723 -2.6355
  187POPC   O2121510   3.084   6.758   2.701 -0.4719  0.3107  0.1728
  187POPC   C2121511   3.135   6.812   2.818 -0.0837 -0.1913  0.0369
  187POPC   O2221512   3.074   6.894   2.881  1.0928  0.3733 -0.8681
  187POPC   C2221513   3.271   6.760   2.851  0.4857  0.1666 -0.1861
  187POPC   H2R21514   3.333   6.780   2.761 -1.3098  2.5128 -1.0256
  187POPC   H2S21515   3.271   6.649   2.861  1.4902  0.2319  0.6565
  187POPC    C321516   2.872   6.690   2.593 -0.4136  0.4293  0.0158
  187POPC    HX21517   2.941   6.655   2.514  1.4738 -2.1208  2.5725
  187POPC    HY21518   2.788   6.732   2.534  1.0827 -0.5905 -3.0454
  187POPC   O3121519   2.829   6.583   2.679  0.5132 -0.0919 -0.5870
  187POPC   C3121520   2.884   6.462   2.661  0.3769 -0.8917 -0.2140
  187POPC   O3221521   2.935   6.424   2.561  0.3044 -0.3400  0.8107
  187POPC   C3221522   2.823   6.372   2.777  0.0803  0.2280 -0.7289
  187POPC   H2X21523   2.862   6.270   2.754 -1.2387 -0.5405  0.2849
  187POPC   H2Y21524   2.714   6.356   2.763 -0.1762  0.3642  0.9070
  187POPC   C2321525   3.333   6.821   2.983 -0.1050  0.4249 -0.5847
  187POPC   H3R21526   3.327   6.932   2.974  1.0584  0.3553 -2.9781
  187POPC   H3S21527   3.440   6.794   2.994  0.7552  3.1811 -1.3414
  187POPC   C2421528   3.268   6.778   3.114 -0.2751 -0.0560  0.2097
  187POPC   H4R21529   3.182   6.845   3.132 -1.0684 -0.3645 -2.1130
  187POPC   H4S21530   3.327   6.795   3.207 -1.1898 -0.2049  0.8315
  187POPC   C2521531   3.221   6.630   3.111 -0.2427 -0.1752 -0.1412
  187POPC   H5R21532   3.316   6.583   3.077 -0.6428 -1.3492  0.2976
  187POPC   H5S21533   3.148   6.604   3.032  0.6598 -0.1935 -0.9895
  187POPC   C2621534   3.182   6.583   3.253 -0.1772  0.1938  0.0839
  187POPC   H6R21535   3.118   6.494   3.234 -1.6006  1.1517  0.1849
  187POPC   H6S21536   3.119   6.653   3.312  1.1476  1.8278 -0.3539
  187POPC   C2721537   3.300   6.528   3.337 -0.0784 -0.4154  0.4554
  187POPC   H7R21538   3.389   6.593   3.350  0.5591 -1.3990  1.1277
  187POPC   H7S21539   3.334   6.448   3.268 -3.1901 -1.0849 -0.4694
  187POPC   C2821540   3.272   6.459   3.474 -0.3961  0.6155  0.0880
  187POPC   H8R21541   3.374   6.441   3.516  0.3908 -0.2486 -2.0862
  187POPC   H8S21542   3.213   6.370   3.443  0.4642  0.1417 -0.2488
  187POPC   C2921543   3.194   6.557   3.558  0.4986  0.2189 -0.5913
  187POPC   H9121544   3.095   6.571   3.512 -0.0503 -0.5486  0.2996
  187POPC  C21021545   3.225   6.640   3.659  0.0208  0.5747 -0.1275
  187POPC  H10121546   3.143   6.705   3.694 -0.3038  0.7947 -1.2441
  187POPC  C21121547   3.359   6.657   3.722  0.3534 -0.2279  0.1416
  187POPC  H11R21548   3.382   6.765   3.730 -1.2017  0.1697 -0.3816
  187POPC  H11S21549   3.434   6.614   3.651 -0.3328 -1.1456 -0.0523
  187POPC  C21221550   3.360   6.593   3.858 -0.7701 -0.0271  0.3558
  187POPC  H12R21551   3.353   6.482   3.857  1.5885 -0.2818  2.3648
  187POPC  H12S21552   3.281   6.634   3.923  0.0850  3.0868 -0.4020
  187POPC  C21321553   3.499   6.620   3.924 -0.2316  0.4452  0.7267
  187POPC  H13R21554   3.510   6.731   3.923  0.3407  0.4242  2.2905
  187POPC  H13S21555   3.582   6.580   3.863 -1.0325 -1.2238  0.6923
  187POPC  C21421556   3.514   6.551   4.064 -0.0511  0.0343  0.0797
  187POPC  H14R21557   3.501   6.441   4.049 -2.0024 -0.2893  3.2537
  187POPC  H14S21558   3.433   6.587   4.131 -1.5008 -2.6448 -0.0922
  187POPC  C21521559   3.651   6.583   4.129  0.0368 -0.1841  0.4773
  187POPC  H15R21560   3.686   6.688   4.138  4.1697 -1.4384  0.7350
  187POPC  H15S21561   3.738   6.534   4.081 -0.3212  0.0002 -0.3885
  187POPC  C21621562   3.639   6.524   4.267  0.5118 -0.2022 -0.0741
  187POPC  H16R21563   3.591   6.424   4.263  1.1631 -0.6895  2.5237
  187POPC  H16S21564   3.578   6.585   4.337  0.6818  0.2821 -0.3413
  187POPC  C21721565   3.777   6.488   4.335  0.5357  0.9828 -0.8056
  187POPC  H17R21566   3.823   6.580   4.377  2.5123 -0.5991  0.6673
  187POPC  H17S21567   3.846   6.440   4.262  2.4663  0.0284  1.5012
  187POPC  C21821568   3.764   6.401   4.464  0.7185 -0.0143 -0.8837
  187POPC  H18R21569   3.705   6.307   4.456 -1.6804  1.2002  0.9706
  187POPC  H18S21570   3.727   6.463   4.549  1.3636  1.1290 -1.4264
  187POPC  H18T21571   3.871   6.383   4.489  0.9500  0.2405 -1.6919
  187POPC   C3321572   2.851   6.409   2.927 -0.3248 -0.0756  0.6619
  187POPC   H3X21573   2.813   6.513   2.939 -0.1787  0.2520 -1.4123
  187POPC   H3Y21574   2.961   6.409   2.939 -0.0582  2.8765 -0.7577
  187POPC   C3421575   2.779   6.333   3.032  0.5635  0.1998 -0.2746
  187POPC   H4X21576   2.804   6.225   3.036  1.5628  0.2455 -3.0759
  187POPC   H4Y21577   2.669   6.340   3.018  0.5684 -0.3838 -0.6618
  187POPC   C3521578   2.798   6.392   3.171 -0.2267 -0.2477 -0.0012
  187POPC   H5X21579   2.766   6.497   3.185 -0.3184 -0.4458  1.4235
  187POPC   H5Y21580   2.907   6.379   3.188 -0.0228  0.4366 -0.7396
  187POPC   C3621581   2.719   6.315   3.286 -0.2367 -0.6007 -0.3636
  187POPC   H6X21582   2.739   6.207   3.269 -1.7279 -0.9604  0.0713
  187POPC   H6Y21583   2.611   6.336   3.267 -0.6791 -2.2854  0.1208
  187POPC   C3721584   2.763   6.367   3.428  0.0895 -0.2303  0.3089
  187POPC   H7X21585   2.766   6.478   3.432  3.3125 -0.1205 -1.3070
  187POPC   H7Y21586   2.870   6.337   3.440  0.7340  1.3739 -1.0639
  187POPC   C3821587   2.669   6.324   3.542  0.8673 -0.4095  0.1045
  187POPC   H8X21588   2.636   6.218   3.542  1.4225 -0.6433  2.5244
  187POPC   H8Y21589   2.575   6.382   3.551 -0.7470 -2.8273 -0.3218
  187POPC   C3921590   2.737   6.331   3.677 -0.5239 -0.0507 -0.4166
  187POPC   H9X21591   2.757   6.436   3.707 -0.0129 -0.0080 -0.8950
  187POPC   H9Y21592   2.832   6.273   3.672 -0.9742 -0.9179  0.6776
  187POPC  C31021593   2.654   6.267   3.788 -0.4458 -0.5464  0.2279
  187POPC  H10X21594   2.622   6.165   3.760 -1.3089 -0.4093  0.6763
  187POPC  H10Y21595   2.554   6.313   3.799  0.6795  1.7251  1.8095
  187POPC  C31121596   2.716   6.256   3.928  0.0447  0.4200 -1.1329
  187POPC  H11X21597   2.812   6.201   3.918  0.2350  0.6665 -0.6668
  187POPC  H11Y21598   2.635   6.192   3.969  1.0704 -1.0486 -1.3400
  187POPC  C31221599   2.746   6.399   3.995 -0.7800  0.1939  0.9928
  187POPC  H12X21600   2.663   6.471   3.979  0.7897  1.5337 -1.8674
  187POPC  H12Y21601   2.832   6.438   3.937  0.4093 -0.1534  2.4481
  187POPC  C31321602   2.797   6.388   4.138 -0.2730 -0.2936 -0.8887
  187POPC  H13X21603   2.850   6.481   4.168 -0.7105  0.6376 -2.8492
  187POPC  H13Y21604   2.869   6.304   4.136  0.9811  0.7647 -1.1315
  187POPC  C31421605   2.672   6.354   4.218 -0.3659  0.1225 -0.5179
  187POPC  H14X21606   2.620   6.267   4.172 -2.1791  0.3698  0.9227
  187POPC  H14Y21607   2.602   6.441   4.220  1.7717  1.9643  1.9941
  187POPC  C31521608   2.702   6.309   4.365 -0.0312  0.2363 -0.2998
  187POPC  H15X21609   2.787   6.371   4.401  0.8197  0.4210 -2.4790
  187POPC  H15Y21610   2.731   6.202   4.373 -0.4334  0.2638  2.1524
  187POPC  C31621611   2.572   6.326   4.457 -0.4992  0.0705 -0.2467
  187POPC  H16X21612   2.597   6.285   4.557  0.5076 -0.2704 -0.6293
  187POPC  H16Y21613   2.481   6.272   4.426 -1.5931  0.0841  2.5911
  187POPC  H16Z21614   2.537   6.431   4.469 -1.4852 -0.3766  1.0698
  188POPC     N21615   5.361   1.215   2.051 -0.8828  0.0753  0.0791
  188POPC   C1221616   5.284   1.347   2.036  0.8142  0.8033  0.3959
  188POPC  H12A21617   5.222   1.362   2.124 -0.2466  0.9536 -0.3570
  188POPC  H12B21618   5.220   1.332   1.951  1.2659  0.8908  0.0382
  188POPC   C1321619   5.464   1.203   1.950  0.5038  0.1393  1.0581
  188POPC  H13A21620   5.422   1.224   1.853 -0.0575 -1.7269  0.8494
  188POPC  H13B21621   5.544   1.272   1.970  0.7129  0.4896 -0.7981
  188POPC  H13C21622   5.491   1.098   1.959 -2.5561 -0.6509  2.5906
  188POPC   C1421623   5.429   1.206   2.180  1.2714 -0.2104 -0.2605
  188POPC  H14A21624   5.498   1.123   2.188  0.8612 -0.4570  0.9968
  188POPC  H14B21625   5.483   1.298   2.198  1.0797 -0.2062  0.3050
  188POPC  H14C21626   5.356   1.208   2.260  0.6379 -1.7699 -0.7475
  188POPC   C1521627   5.272   1.099   2.043 -0.1134 -0.4646 -0.1983
  188POPC  H15A21628   5.332   1.011   2.055  2.2636  1.3710  2.8120
  188POPC  H15B21629   5.226   1.081   1.947 -2.0927 -4.6135  1.2886
  188POPC  H15C21630   5.186   1.097   2.107 -0.4394  0.0765 -0.5991
  188POPC   C1121631   5.368   1.477   2.012  0.3224  0.0014 -0.7143
  188POPC  H11A21632   5.304   1.568   2.007  0.5322  0.1118 -1.4732
  188POPC  H11B21633   5.432   1.467   1.922  0.7385 -0.1825 -0.4013
  188POPC     P21634   5.595   1.585   2.101 -0.1462  0.2568 -0.4290
  188POPC   O1321635   5.563   1.715   2.167 -0.1725 -0.4870  0.2968
  188POPC   O1421636   5.642   1.583   1.963 -0.0648 -0.8564 -0.1013
  188POPC   O1221637   5.462   1.495   2.120  0.3911 -0.0372 -0.1929
  188POPC   O1121638   5.699   1.509   2.193 -0.0211 -0.5448  0.1391
  188POPC    C121639   5.673   1.454   2.328 -0.2835  0.3210  0.1318
  188POPC    HA21640   5.723   1.355   2.341  0.5391  0.6624 -0.3872
  188POPC    HB21641   5.562   1.448   2.334 -0.4831 -0.6772 -2.9192
  188POPC    C221642   5.744   1.542   2.438  0.0600 -0.6231  0.8657
  188POPC    HS21643   5.747   1.650   2.409  1.6096 -0.4857  1.4286
  188POPC   O2121644   5.874   1.486   2.447  0.2504 -0.1812  0.4670
  188POPC   C2121645   5.965   1.571   2.480  0.2316 -0.8955 -0.6369
  188POPC   O2221646   5.949   1.693   2.490 -0.2084 -0.1861  0.0004
  188POPC   C2221647   6.090   1.509   2.523  0.0171 -0.1351  0.0361
  188POPC   H2R21648   6.161   1.545   2.444 -1.4487  2.0284 -0.3908
  188POPC   H2S21649   6.075   1.399   2.524 -1.9054  0.0546 -1.5195
  188POPC    C321650   5.672   1.529   2.581 -0.3520 -0.1732 -0.2688
  188POPC    HX21651   5.690   1.424   2.612 -0.0634 -0.9758 -2.9450
  188POPC    HY21652   5.564   1.549   2.572 -0.3199  0.7208  1.0631
  188POPC   O3121653   5.719   1.622   2.681  0.4893  0.7368 -0.0443
  188POPC   C3121654   5.680   1.753   2.659 -0.7083 -0.8416 -0.2694
  188POPC   O3221655   5.609   1.788   2.570 -0.0565  0.2972 -0.0943
  188POPC   C3221656   5.717   1.836   2.786 -0.1637 -0.0716 -0.2883
  188POPC   H2X21657   5.627   1.848   2.851 -0.3634 -1.5473 -0.2678
  188POPC   H2Y21658   5.755   1.936   2.757  0.5786  0.3366  1.9684
  188POPC   C2321659   6.133   1.563   2.663 -0.2245  0.7068  0.3485
  188POPC   H3R21660   6.126   1.674   2.666 -1.1384  0.6749 -0.3793
  188POPC   H3S21661   6.243   1.549   2.670 -0.3093  0.7269  2.2361
  188POPC   C2421662   6.065   1.487   2.780 -0.4768 -0.6874  0.7076
  188POPC   H4R21663   6.075   1.378   2.760  0.8248 -0.4789  0.1025
  188POPC   H4S21664   5.957   1.511   2.789 -0.2942 -0.3754  2.4164
  188POPC   C2521665   6.130   1.518   2.909 -0.5806 -0.3503  0.3597
  188POPC   H5R21666   6.179   1.617   2.913 -1.7725  0.2414  1.1911
  188POPC   H5S21667   6.213   1.448   2.932 -1.1500 -0.4066  2.4503
  188POPC   C2621668   6.024   1.508   3.027 -0.4124 -0.1706  0.2414
  188POPC   H6R21669   5.973   1.412   3.005 -1.3203  0.6308 -1.3103
  188POPC   H6S21670   5.947   1.587   3.022 -1.1963 -0.9846 -0.8254
  188POPC   C2721671   6.080   1.507   3.166 -0.4889 -0.0123  0.4161
  188POPC   H7R21672   6.160   1.431   3.183  0.8613  0.8887 -1.5632
  188POPC   H7S21673   6.000   1.484   3.240 -0.9792 -0.7166 -0.3138
  188POPC   C2821674   6.134   1.648   3.214 -0.0312  0.2798 -0.0427
  188POPC   H8R21675   6.049   1.719   3.229  1.8986  2.5609  0.6423
  188POPC   H8S21676   6.198   1.690   3.133  1.9675  1.1150  1.8783
  188POPC   C2921677   6.215   1.629   3.338 -0.0427 -0.0769  0.9779
  188POPC   H9121678   6.323   1.610   3.326 -0.3124 -0.0320 -2.7345
  188POPC  C21021679   6.178   1.663   3.460 -0.0491  0.1209 -0.2917
  188POPC  H10121680   6.258   1.656   3.535  2.2758  1.5159 -2.4726
  188POPC  C21121681   6.046   1.711   3.513 -0.2917  0.0542  0.4482
  188POPC  H11R21682   5.978   1.737   3.430 -0.2594  2.7719  1.1500
  188POPC  H11S21683   6.048   1.804   3.574 -2.9206 -0.2377  1.0892
  188POPC  C21221684   5.976   1.603   3.593  0.9717  0.2283  0.9038
  188POPC  H12R21685   5.941   1.524   3.524  0.3278  1.9158 -0.7661
  188POPC  H12S21686   5.894   1.658   3.644  2.3827  2.3523  0.9894
  188POPC  C21321687   6.054   1.542   3.719  0.3434 -0.1205 -0.2626
  188POPC  H13R21688   6.151   1.497   3.689  0.1335 -1.3495  0.8336
  188POPC  H13S21689   5.990   1.460   3.758 -0.0594 -0.2843 -1.2270
  188POPC  C21421690   6.077   1.647   3.831  0.1835  0.2158 -0.0292
  188POPC  H14R21691   5.983   1.705   3.847 -0.4987 -0.9908  0.4686
  188POPC  H14S21692   6.151   1.717   3.786 -1.2144  1.7571 -0.0743
  188POPC  C21521693   6.128   1.578   3.966  0.0418 -0.1335 -0.5429
  188POPC  H15R21694   6.231   1.541   3.949 -0.1111  0.3618 -2.9474
  188POPC  H15S21695   6.066   1.488   3.984  1.1011 -0.4041  2.3054
  188POPC  C21621696   6.123   1.678   4.082  0.1800  0.2828 -0.4164
  188POPC  H16R21697   6.023   1.722   4.101 -0.0849 -0.9860  1.3199
  188POPC  H16S21698   6.186   1.767   4.057  1.2441  0.2601  1.9277
  188POPC  C21721699   6.159   1.601   4.209 -0.1906  0.5284 -0.6181
  188POPC  H17R21700   6.166   1.680   4.287  0.3730 -0.7610  0.6781
  188POPC  H17S21701   6.261   1.560   4.192 -0.9329 -1.4325 -0.5366
  188POPC  C21821702   6.055   1.496   4.251 -0.0067  0.1699 -0.4037
  188POPC  H18R21703   6.017   1.425   4.175  0.0401  1.1165 -1.3299
  188POPC  H18S21704   5.973   1.555   4.297  0.3086 -0.8547  1.5592
  188POPC  H18T21705   6.095   1.430   4.331 -0.5573  0.3664  0.0383
  188POPC   C3321706   5.824   1.769   2.880 -0.0222  0.0396  0.2846
  188POPC   H3X21707   5.928   1.756   2.841  0.6208 -0.5748  2.0924
  188POPC   H3Y21708   5.792   1.666   2.904  0.7179 -0.3361 -0.3061
  188POPC   C3421709   5.845   1.840   3.012  0.6550  0.1024 -0.3316
  188POPC   H4X21710   5.873   1.945   2.987 -1.4992  0.6803 -0.5605
  188POPC   H4Y21711   5.935   1.800   3.064  1.8689  2.4842 -0.4266
  188POPC   C3521712   5.725   1.809   3.114 -0.5909 -0.3038 -0.0049
  188POPC   H5X21713   5.713   1.701   3.134  2.2050 -0.5637  0.6197
  188POPC   H5Y21714   5.628   1.843   3.071 -1.2271 -1.2719  0.6424
  188POPC   C3621715   5.758   1.866   3.254  0.0363 -0.3719  0.1672
  188POPC   H6X21716   5.794   1.971   3.256  3.4123 -1.4120  1.3717
  188POPC   H6Y21717   5.844   1.812   3.300  1.4441  1.2781 -0.3988
  188POPC   C3721718   5.645   1.848   3.353  0.0876  0.1696 -0.1231
  188POPC   H7X21719   5.606   1.745   3.343  1.1823 -0.1411 -1.5578
  188POPC   H7Y21720   5.557   1.912   3.328 -0.9276 -1.0082  0.3152
  188POPC   C3821721   5.680   1.883   3.498 -0.0472 -0.2362  0.9611
  188POPC   H8X21722   5.711   1.990   3.506 -0.9609  0.2101 -0.8367
  188POPC   H8Y21723   5.765   1.819   3.530 -0.2970 -0.1540  1.7975
  188POPC   C3921724   5.560   1.852   3.586 -0.3319  0.6070  0.0595
  188POPC   H9X21725   5.508   1.758   3.558  1.3372 -0.9798  2.0234
  188POPC   H9Y21726   5.480   1.928   3.573 -1.0332  0.0518  0.9940
  188POPC  C31021727   5.592   1.842   3.730 -0.6970  1.2354  0.2734
  188POPC  H10X21728   5.679   1.778   3.755 -1.9154 -0.3111  0.7206
  188POPC  H10Y21729   5.509   1.798   3.789 -1.5548  2.4962  0.0605
  188POPC  C31121730   5.626   1.976   3.803  0.0288 -0.0246 -0.0735
  188POPC  H11X21731   5.530   2.032   3.806 -1.6764 -2.7150 -0.6301
  188POPC  H11Y21732   5.707   2.013   3.737 -0.1741 -2.0968 -1.5777
  188POPC  C31221733   5.682   1.950   3.949 -0.4585  0.0767  0.1295
  188POPC  H12X21734   5.731   2.048   3.970  1.0226 -0.6984  0.3825
  188POPC  H12Y21735   5.769   1.882   3.946  0.1500  0.6113  2.6991
  188POPC  C31321736   5.581   1.904   4.057 -0.8203 -0.1950  0.4092
  188POPC  H13X21737   5.532   1.815   4.012 -1.3686 -0.2563  1.1127
  188POPC  H13Y21738   5.501   1.979   4.069  1.4462  2.0878  2.7354
  188POPC  C31421739   5.633   1.867   4.201  0.6647  0.6541  0.1530
  188POPC  H14X21740   5.557   1.801   4.248 -0.3308  0.3264 -1.8384
  188POPC  H14Y21741   5.631   1.958   4.264 -0.8691  1.5246 -1.0985
  188POPC  C31521742   5.774   1.813   4.208  0.8982  0.3246 -0.0655
  188POPC  H15X21743   5.849   1.880   4.163 -0.5007  1.5838 -0.6043
  188POPC  H15Y21744   5.769   1.708   4.173 -2.8076  0.5092 -0.4919
  188POPC  C31621745   5.808   1.793   4.353  0.1659  0.3377 -0.3311
  188POPC  H16X21746   5.733   1.731   4.407  0.2486  0.2372 -0.3305
  188POPC  H16Y21747   5.816   1.879   4.422 -0.7060 -1.5286  2.2688
  188POPC  H16Z21748   5.894   1.723   4.364  0.9303  1.2994 -0.0406
  189SAPI   C1221749   6.168   2.681   6.572 -0.0387  0.3713 -0.1128
  189SAPI    H221750   6.182   2.601   6.496 -0.9574 -0.4778  0.6011
  189SAPI    O221751   6.150   2.798   6.488 -0.2369 -0.5687  0.3480
  189SAPI   HO221752   6.241   2.815   6.462 -0.3898  0.0284  0.1901
  189SAPI   C1321753   6.048   2.647   6.656  0.3770 -0.1040  0.4764
  189SAPI    H321754   6.063   2.566   6.730 -0.7911 -1.3873 -0.6397
  189SAPI    O321755   5.937   2.622   6.568  0.3366  0.2482 -0.3721
  189SAPI   HO321756   5.913   2.690   6.505 -0.5758  0.1074 -0.2017
  189SAPI   C1421757   6.015   2.764   6.749 -0.9758  0.6031 -0.5470
  189SAPI    H421758   6.010   2.856   6.686 -1.8922  2.2067  1.7342
  189SAPI    O421759   5.890   2.768   6.819  0.3128 -0.0314 -0.1260
  189SAPI   HO421760   5.832   2.835   6.782 -0.7664 -1.3645 -0.9601
  189SAPI   C1521761   6.135   2.800   6.842  1.2517 -0.2532  0.4188
  189SAPI    H521762   6.126   2.724   6.923 -0.4289  0.0855  0.5969
  189SAPI    O521763   6.105   2.915   6.914 -0.2073  0.4298  0.0370
  189SAPI   HO521764   6.084   2.890   7.005 -0.0633 -2.2012 -0.5782
  189SAPI   C1621765   6.274   2.784   6.786  0.2898 -0.4216 -0.5189
  189SAPI    H621766   6.305   2.884   6.749 -0.3197 -0.3967 -0.9657
  189SAPI    O621767   6.375   2.755   6.885  0.0471 -0.0443 -0.2822
  189SAPI   HO621768   6.436   2.686   6.858 -0.2038 -0.6332  0.6182
  189SAPI   C1121769   6.285   2.689   6.671  0.9043 -0.9179  0.5813
  189SAPI    H121770   6.285   2.590   6.721 -1.5924  0.6326  4.0819
  189SAPI     P21771   6.530   2.612   6.617  0.1165  0.1113 -0.1925
  189SAPI   O1321772   6.554   2.596   6.761 -0.1964 -0.5927 -0.5564
  189SAPI   O1421773   6.645   2.654   6.533  0.2000 -0.1216  0.4163
  189SAPI   O1221774   6.399   2.713   6.592  0.1117  0.8659  1.0727
  189SAPI   O1121775   6.478   2.469   6.564 -0.0265 -0.3605  0.3112
  189SAPI    C121776   6.421   2.464   6.432 -0.5213  0.0732 -0.2655
  189SAPI    HA21777   6.349   2.379   6.428  0.2433 -0.5451 -2.6236
  189SAPI    HB21778   6.374   2.555   6.391 -1.2626  0.0634  0.5241
  189SAPI    C221779   6.526   2.411   6.325 -0.4911  0.2837  0.1120
  189SAPI    HS21780   6.608   2.485   6.335  0.6951 -1.1086  1.2427
  189SAPI   O2121781   6.464   2.402   6.197  0.0189 -0.3914 -0.7120
  189SAPI   C2121782   6.554   2.435   6.104  0.3489  0.1260  0.4179
  189SAPI   O2221783   6.673   2.464   6.120 -0.1872 -0.0341  0.0960
  189SAPI   C2221784   6.496   2.433   5.962 -0.2433  0.5233  0.3571
  189SAPI   H2R21785   6.509   2.330   5.922  4.0917  0.8431  0.5132
  189SAPI   H2S21786   6.390   2.464   5.976 -0.0575  0.8430  1.1021
  189SAPI    C321787   6.570   2.265   6.376  0.9551 -0.0566 -0.5460
  189SAPI    HX21788   6.475   2.214   6.400  0.8683  0.4967  0.3343
  189SAPI    HY21789   6.614   2.273   6.478  1.9778  0.6028 -1.0211
  189SAPI   O3121790   6.657   2.197   6.280  0.1827 -0.2193 -0.0049
  189SAPI   C3121791   6.675   2.065   6.314  0.5137  0.1940 -0.2234
  189SAPI   O3221792   6.634   2.011   6.411 -0.0617  1.0082 -0.1874
  189SAPI   C3221793   6.754   2.007   6.194 -0.0982 -0.1624 -0.5422
  189SAPI   H2X21794   6.836   2.082   6.193 -1.0125  0.9676  1.5255
  189SAPI   H2Y21795   6.699   2.024   6.099 -0.7739  1.5567  0.1047
  189SAPI   C2321796   6.571   2.538   5.873 -0.4412  0.0150 -0.4239
  189SAPI   H3R21797   6.667   2.488   5.848 -0.6962 -1.7058  1.7802
  189SAPI   H3S21798   6.596   2.627   5.933  1.0693 -1.0678  0.6186
  189SAPI   C2421799   6.488   2.581   5.755  0.4417  0.1902  0.4000
  189SAPI   H4R21800   6.553   2.643   5.690  3.9277 -1.5436  2.0153
  189SAPI   H4S21801   6.403   2.646   5.786  0.3940  2.3994 -3.6679
  189SAPI   C2521802   6.424   2.468   5.671  0.6197  0.0266 -0.8981
  189SAPI   H5R21803   6.349   2.414   5.731  2.1054 -1.1022  0.0079
  189SAPI   C2621804   6.455   2.431   5.543 -0.2279 -0.2966  0.6542
  189SAPI   H6R21805   6.400   2.345   5.504 -1.0029 -0.0592  1.2138
  189SAPI   C2721806   6.558   2.482   5.450  0.3650 -0.2769  0.4730
  189SAPI   H7R21807   6.605   2.394   5.402  0.1800  0.4631 -1.1302
  189SAPI   H7S21808   6.627   2.544   5.511  0.4632  1.7307 -1.5206
  189SAPI   C2821809   6.493   2.567   5.338  0.2204  0.0680  0.3941
  189SAPI   H8R21810   6.451   2.667   5.360  1.2257  0.6321 -0.1713
  189SAPI   C2921811   6.487   2.529   5.212  0.1621 -0.0536 -0.1562
  189SAPI   H9R21812   6.443   2.591   5.132  1.8288  2.6109  0.8565
  189SAPI  C21021813   6.547   2.408   5.156 -0.2862 -0.2530  0.8486
  189SAPI  H10R21814   6.651   2.389   5.189  1.3568  1.8596 -2.5437
  189SAPI  H10S21815   6.551   2.431   5.047  1.6234 -0.8917  0.7434
  189SAPI  C21121816   6.456   2.290   5.172 -0.2340 -0.0390 -0.3119
  189SAPI  H11R21817   6.379   2.306   5.249  0.2492  4.6574 -0.5264
  189SAPI  C21221818   6.440   2.190   5.087 -0.3710  0.5366  0.5365
  189SAPI  H12R21819   6.373   2.109   5.117 -0.9308  0.7874 -0.0096
  189SAPI  C21321820   6.528   2.174   4.957 -0.9994  0.1821  0.2508
  189SAPI  H13R21821   6.586   2.080   4.967 -0.0162  0.8211  0.6938
  189SAPI  H13S21822   6.609   2.249   4.944 -0.3616 -0.7976 -1.9135
  189SAPI  C21421823   6.443   2.178   4.832  0.3159  0.2673  0.0672
  189SAPI  H14R21824   6.334   2.182   4.843  0.3012 -0.1189  0.0792
  189SAPI  C21521825   6.495   2.152   4.706 -0.4824  0.2674 -0.2045
  189SAPI  H15R21826   6.425   2.154   4.621  1.7648 -0.8003 -2.2158
  189SAPI  C21621827   6.643   2.131   4.685  0.0069 -0.0487 -0.0180
  189SAPI  H16R21828   6.693   2.089   4.774  1.2441  1.2939 -0.0363
  189SAPI  H16S21829   6.698   2.226   4.667  1.6548 -0.4519  2.4472
  189SAPI  C21721830   6.668   2.034   4.571 -0.9046 -0.1023  0.2748
  189SAPI  H17R21831   6.774   2.052   4.542 -0.8853 -0.7070 -0.0297
  189SAPI  H17S21832   6.612   2.071   4.483  0.9011 -2.7119 -2.1185
  189SAPI  C21821833   6.643   1.891   4.595 -0.2188  0.0207 -0.4629
  189SAPI  H18R21834   6.659   1.837   4.499 -1.9403  0.0855 -0.8125
  189SAPI  H18S21835   6.536   1.876   4.620 -0.4023 -1.2244 -1.8213
  189SAPI  C21921836   6.727   1.820   4.702 -0.0147  0.2930 -0.7192
  189SAPI  H19R21837   6.681   1.719   4.706 -0.6137  0.5875  0.2485
  189SAPI  H19S21838   6.703   1.877   4.794  0.4356 -0.8355  0.1236
  189SAPI  C22021839   6.877   1.829   4.680 -0.0038 -0.0965 -0.5038
  189SAPI  H20R21840   6.934   1.805   4.772 -0.7021  1.2235  0.3057
  189SAPI  H20S21841   6.897   1.929   4.637 -0.7987 -0.5617 -2.0306
  189SAPI  H20T21842   6.890   1.755   4.597  0.7132 -0.9323  0.3283
  189SAPI   C3321843   6.802   1.865   6.218 -0.1244  0.6600  0.1310
  189SAPI   H3X21844   6.731   1.784   6.191  0.2387  0.5756 -0.5956
  189SAPI   H3Y21845   6.837   1.854   6.323  1.4731 -0.3663 -0.4760
  189SAPI   C3421846   6.932   1.848   6.140 -0.3721 -0.0052  0.1577
  189SAPI   H4X21847   6.981   1.754   6.172  0.1429 -0.1341 -0.9366
  189SAPI   H4Y21848   7.002   1.929   6.171 -0.5547 -0.1180  0.8796
  189SAPI   C3521849   6.913   1.856   5.985  0.3073  0.5000 -0.0664
  189SAPI   H5X21850   6.846   1.939   5.953  0.5143 -0.0334 -2.0143
  189SAPI   H5Y21851   6.850   1.768   5.957  0.4727  0.3042  0.1749
  189SAPI   C3621852   7.048   1.858   5.909 -0.0426  0.2056  0.1330
  189SAPI   H6X21853   7.105   1.767   5.940 -3.2564 -1.6021  1.2649
  189SAPI   H6Y21854   7.109   1.942   5.947 -1.2975  1.1007  0.2074
  189SAPI   C3721855   7.044   1.856   5.753 -0.2689 -0.2869 -0.8900
  189SAPI   H7X21856   6.945   1.889   5.715  0.7570  2.3209 -1.5457
  189SAPI   H7Y21857   7.068   1.754   5.714  0.9586  0.6736 -2.8540
  189SAPI   C3821858   7.152   1.952   5.695 -0.0923  0.3267  0.7505
  189SAPI   H8X21859   7.250   1.930   5.743 -0.6070 -1.7012  0.9741
  189SAPI   H8Y21860   7.126   2.057   5.720 -1.3389 -0.1245  1.4778
  189SAPI   C3921861   7.167   1.940   5.545 -0.7902  0.1595  0.9650
  189SAPI   H9X21862   7.239   2.012   5.501  0.0123 -1.2893 -0.1713
  189SAPI   H9Y21863   7.067   1.958   5.498 -0.1666  0.4477 -0.2830
  189SAPI  C31021864   7.225   1.807   5.498  0.2876 -0.0946  0.2818
  189SAPI  H10X21865   7.147   1.732   5.521 -0.1633  0.5492  0.8990
  189SAPI  H10Y21866   7.321   1.784   5.549 -0.3367 -2.8360  0.3697
  189SAPI  C31121867   7.238   1.776   5.351 -0.3272  0.4553  0.6431
  189SAPI  H11X21868   7.271   1.670   5.350  0.6464  0.7067  2.3946
  189SAPI  H11Y21869   7.316   1.834   5.297 -0.8097  1.4483  0.9866
  189SAPI  C31221870   7.116   1.798   5.264  0.7852 -0.0535  0.4865
  189SAPI  H12X21871   7.079   1.902   5.280 -1.4121 -0.7704  0.3780
  189SAPI  H12Y21872   7.033   1.737   5.307 -0.7477  2.4084  1.2647
  189SAPI  C31321873   7.141   1.779   5.112  0.6213  0.0515 -0.3443
  189SAPI  H13X21874   7.227   1.838   5.073 -0.2150  0.5302 -1.5136
  189SAPI  H13Y21875   7.053   1.812   5.053 -2.2045 -0.2364  3.3571
  189SAPI  C31421876   7.161   1.634   5.069 -0.2496  0.0837 -0.1651
  189SAPI  H14X21877   7.058   1.598   5.088 -0.2799  0.0096 -0.4651
  189SAPI  H14Y21878   7.228   1.581   5.140  0.3779  3.0290  1.6538
  189SAPI  C31521879   7.213   1.616   4.926  0.2456 -0.5229  0.2421
  189SAPI  H15X21880   7.311   1.567   4.937 -0.6025 -1.8073  2.6669
  189SAPI  H15Y21881   7.226   1.718   4.882  1.7440  0.1940  2.2143
  189SAPI  C31621882   7.117   1.527   4.844  0.2043  0.4369  0.3501
  189SAPI  H16X21883   7.020   1.577   4.820 -1.1545 -2.1058  0.2298
  189SAPI  H16Y21884   7.086   1.440   4.905  2.4557 -0.5335  0.2032
  189SAPI  C31721885   7.178   1.461   4.719  0.0277  0.5775 -0.8354
  189SAPI  H17X21886   7.264   1.399   4.753 -1.0213 -0.7331 -0.4697
  189SAPI  H17Y21887   7.194   1.543   4.646  0.0471  0.7822 -0.6018
  189SAPI  C31821888   7.081   1.363   4.660  0.4990  0.2767 -0.2541
  189SAPI  H18X21889   6.990   1.413   4.621 -0.2628  1.7300  3.1054
  189SAPI  H18Y21890   7.038   1.299   4.741 -0.0772  0.0351 -0.7362
  189SAPI  H18Z21891   7.129   1.290   4.591  2.5839  2.1099 -0.8481
  190SAPI   C1221892   4.125   5.157   6.421 -0.6015 -0.0029  0.0959
  190SAPI    H221893   4.066   5.064   6.435 -0.2097 -0.5180 -1.4252
  190SAPI    O221894   4.204   5.158   6.542  0.3185 -0.0307 -0.0547
  190SAPI   HO221895   4.143   5.174   6.615 -0.3904 -0.1115 -0.6141
  190SAPI   C1321896   4.206   5.138   6.299 -0.0285 -0.5941 -0.0801
  190SAPI    H321897   4.135   5.133   6.214 -0.2172 -0.5013  0.0688
  190SAPI    O321898   4.290   5.020   6.298  0.7526  0.4192  0.0435
  190SAPI   HO321899   4.365   5.036   6.355  0.6175  0.8827  0.0958
  190SAPI   C1421900   4.299   5.259   6.274  0.5585  0.5073 -0.6124
  190SAPI    H421901   4.381   5.237   6.345  0.4729  1.1605 -0.3061
  190SAPI    O421902   4.350   5.264   6.139 -0.4496  0.2426  1.0494
  190SAPI   HO421903   4.441   5.294   6.140 -0.4809  0.3996  0.0620
  190SAPI   C1521904   4.249   5.399   6.319  0.3481  1.1909  0.4629
  190SAPI    H521905   4.218   5.444   6.223  0.9145  0.2237 -0.1999
  190SAPI    O521906   4.360   5.474   6.370  0.6651 -0.2552  0.0578
  190SAPI   HO521907   4.356   5.565   6.339  1.7875 -0.2662 -0.1689
  190SAPI   C1621908   4.134   5.413   6.414  0.5743 -0.4456  0.9672
  190SAPI    H621909   4.167   5.417   6.520  1.7448  1.6177  0.5737
  190SAPI    O621910   4.055   5.523   6.378 -0.1885  0.1886 -0.2746
  190SAPI   HO621911   3.965   5.508   6.406  0.0294  0.3251  0.5216
  190SAPI   C1121912   4.048   5.286   6.411 -0.3063  0.0476  0.1815
  190SAPI    H121913   4.001   5.277   6.311 -2.8737  0.4533  1.2548
  190SAPI     P21914   3.790   5.338   6.480  0.4997 -0.2106  0.0068
  190SAPI   O1321915   3.794   5.479   6.439  0.2373 -0.4786  0.3535
  190SAPI   O1421916   3.696   5.307   6.600 -0.1178  0.2091  0.9754
  190SAPI   O1221917   3.950   5.288   6.511  0.6897  0.4482  0.0021
  190SAPI   O1121918   3.751   5.249   6.362  0.2452 -0.0955  0.5231
  190SAPI    C121919   3.731   5.112   6.373 -0.4255 -0.0435 -0.3093
  190SAPI    HA21920   3.829   5.062   6.388  0.1788  0.2842 -2.6916
  190SAPI    HB21921   3.660   5.086   6.454 -1.5947  0.9410 -0.9758
  190SAPI    C221922   3.673   5.057   6.241  0.3812 -0.1737  0.6052
  190SAPI    HS21923   3.650   4.949   6.248 -1.1896  0.2097  1.8170
  190SAPI   O2121924   3.772   5.089   6.141 -0.2474 -0.2741 -0.1429
  190SAPI   C2121925   3.784   5.012   6.044 -0.3320 -0.1887  0.0513
  190SAPI   O2221926   3.725   4.907   6.031 -0.4788  0.0461  0.4748
  190SAPI   C2221927   3.891   5.056   5.953  0.3301  0.1622  0.6816
  190SAPI   H2R21928   3.863   5.015   5.854  2.3428  0.6811 -0.1644
  190SAPI   H2S21929   3.885   5.167   5.949  0.5830  0.1669  0.4082
  190SAPI    C321930   3.536   5.139   6.218  0.2768  0.4756  0.2156
  190SAPI    HX21931   3.568   5.245   6.217  1.5845  0.0996 -0.0963
  190SAPI    HY21932   3.469   5.130   6.306  1.5395  0.2866  1.1898
  190SAPI   O3121933   3.481   5.104   6.094  0.0994  0.4179 -0.2024
  190SAPI   C3121934   3.416   4.988   6.089 -0.9153  0.0629  0.5603
  190SAPI   O3221935   3.403   4.910   6.179 -0.4362 -0.3860 -0.1721
  190SAPI   C3221936   3.357   4.952   5.955  0.1587 -0.1839 -0.5884
  190SAPI   H2X21937   3.260   5.004   5.940  0.7074  1.1333  0.3022
  190SAPI   H2Y21938   3.351   4.841   5.954  1.1082 -0.3004  1.8552
  190SAPI   C2321939   4.036   5.002   5.986 -0.8181  0.1221  0.6896
  190SAPI   H3R21940   4.019   4.897   5.955  2.4882  0.1725 -1.8796
  190SAPI   H3S21941   4.067   4.997   6.092  1.4269  0.0653  0.0780
  190SAPI   C2421942   4.156   5.063   5.907  0.0934 -0.5427  0.4673
  190SAPI   H4R21943   4.254   5.015   5.928 -0.9178 -2.1892  1.7050
  190SAPI   H4S21944   4.169   5.167   5.944  2.7267 -1.4333  2.3421
  190SAPI   C2521945   4.129   5.063   5.756  0.3741 -0.0854 -0.4276
  190SAPI   H5R21946   4.059   5.144   5.734  0.0089  0.3334  2.0316
  190SAPI   C2621947   4.166   4.973   5.663  0.3252 -0.3607 -0.1677
  190SAPI   H6R21948   4.146   5.002   5.559 -0.1707  1.7693  0.4766
  190SAPI   C2721949   4.259   4.859   5.681 -0.7291 -0.3524  0.0935
  190SAPI   H7R21950   4.208   4.760   5.684  0.9508 -1.2838 -0.4592
  190SAPI   H7S21951   4.302   4.854   5.783  0.4298  0.7086 -0.3171
  190SAPI   C2821952   4.374   4.846   5.576 -0.2896  0.5509  0.4717
  190SAPI   H8R21953   4.475   4.868   5.613  0.1490  1.0671 -0.9580
  190SAPI   C2921954   4.373   4.780   5.452  0.3714 -0.1090  0.1335
  190SAPI   H9R21955   4.467   4.770   5.396  0.8783  0.3382  0.8928
  190SAPI  C21021956   4.242   4.732   5.388 -0.7065  0.0876 -0.4875
  190SAPI  H10R21957   4.208   4.826   5.340  1.0195  1.6567  1.1887
  190SAPI  H10S21958   4.160   4.712   5.460 -0.6044 -1.1521 -0.6837
  190SAPI  C21121959   4.261   4.620   5.297  0.9712  0.0749 -0.0178
  190SAPI  H11R21960   4.275   4.524   5.349  1.4092  0.6061  0.8765
  190SAPI  C21221961   4.296   4.625   5.162  0.4678 -0.3080  0.1280
  190SAPI  H12R21962   4.293   4.530   5.108 -1.3527 -0.2812  0.1310
  190SAPI  C21321963   4.307   4.742   5.070 -0.3094 -0.3309 -0.1315
  190SAPI  H13R21964   4.403   4.736   5.015  0.7575  0.0075  1.6072
  190SAPI  H13S21965   4.338   4.834   5.124 -1.3717  1.0480 -1.7599
  190SAPI  C21421966   4.194   4.775   4.979 -0.8577  0.0794 -0.4729
  190SAPI  H14R21967   4.112   4.821   5.036  0.5758 -0.8549  2.5343
  190SAPI  C21521968   4.186   4.740   4.849 -0.0947  0.2235  0.7375
  190SAPI  H15R21969   4.097   4.775   4.795  0.2509 -1.7403 -1.2610
  190SAPI  C21621970   4.279   4.668   4.753 -0.4337  0.6187  0.3560
  190SAPI  H16R21971   4.381   4.691   4.792 -0.1085 -0.6481  0.2931
  190SAPI  H16S21972   4.275   4.721   4.656 -0.1728  1.0878  0.5997
  190SAPI  C21721973   4.255   4.520   4.756 -0.5866 -0.4908 -0.3580
  190SAPI  H17R21974   4.150   4.502   4.724 -0.8189  1.6069 -0.8700
  190SAPI  H17S21975   4.264   4.483   4.861 -0.3439  1.7880  0.4846
  190SAPI  C21821976   4.350   4.436   4.677  0.0370  1.0356 -0.4105
  190SAPI  H18R21977   4.317   4.330   4.676  3.6986 -0.2359 -2.1495
  190SAPI  H18S21978   4.441   4.429   4.741 -0.9883  1.3889  1.1698
  190SAPI  C21921979   4.368   4.481   4.538 -0.5520 -0.2455  0.6797
  190SAPI  H19R21980   4.403   4.587   4.533  0.3537 -0.5796 -1.0554
  190SAPI  H19S21981   4.271   4.479   4.484 -0.8667 -0.1633  1.2407
  190SAPI  C22021982   4.469   4.400   4.456 -0.1016 -0.4244  0.5313
  190SAPI  H20R21983   4.439   4.293   4.457 -2.5496  0.1849 -0.3719
  190SAPI  H20S21984   4.572   4.400   4.498 -0.1869 -2.1287  0.8020
  190SAPI  H20T21985   4.467   4.438   4.351 -0.7647  0.8398  0.9775
  190SAPI   C3321986   3.441   4.988   5.836 -0.4207  0.2297 -0.3303
  190SAPI   H3X21987   3.537   4.936   5.857  0.3959  0.4037 -3.2772
  190SAPI   H3Y21988   3.462   5.097   5.836 -3.5604  0.9302 -0.5422
  190SAPI   C3421989   3.388   4.936   5.698  0.0759  0.0939  0.0346
  190SAPI   H4X21990   3.356   4.830   5.703  1.5297 -0.5278 -2.3853
  190SAPI   H4Y21991   3.472   4.943   5.625 -0.0097  2.2529  0.0874
  190SAPI   C3521992   3.282   5.036   5.637  0.5801  0.4791 -0.3180
  190SAPI   H5X21993   3.329   5.136   5.622 -3.6788  2.3565 -2.8184
  190SAPI   H5Y21994   3.201   5.045   5.713 -2.1697 -1.8185 -2.7647
  190SAPI   C3621995   3.239   4.973   5.503  0.6478 -0.0057  0.2762
  190SAPI   H6X21996   3.175   4.884   5.519 -0.4754  0.4748 -1.2803
  190SAPI   H6Y21997   3.334   4.941   5.456  0.5512 -1.3033  0.9353
  190SAPI   C3721998   3.168   5.079   5.416 -0.1968  1.1415  0.5566
  190SAPI   H7X21999   3.235   5.167   5.404 -1.4119  2.1647  1.0200
  190SAPI   H7Y22000   3.088   5.129   5.474 -0.1855  2.5443 -0.5832
  190SAPI   C3822001   3.113   5.025   5.283 -0.6741 -0.3695 -0.4815
  190SAPI   H8X22002   3.057   5.107   5.232  1.6531  0.7198 -1.4585
  190SAPI   H8Y22003   3.043   4.942   5.307 -3.4428  1.9904  0.2074
  190SAPI   C3922004   3.228   4.991   5.190  0.2660 -0.1459  0.0079
  190SAPI   H9X22005   3.272   4.895   5.225  1.3531  1.0587  2.1877
  190SAPI   H9Y22006   3.309   5.065   5.211  0.3530 -0.6141  1.4539
  190SAPI  C31022007   3.186   4.988   5.046  0.2633 -0.4494  0.1417
  190SAPI  H10X22008   3.135   5.086   5.028  1.0893  0.7644  3.6528
  190SAPI  H10Y22009   3.113   4.907   5.025  0.8099 -1.5036  2.0651
  190SAPI  C31122010   3.303   4.967   4.953 -0.4906 -0.6637 -0.3910
  190SAPI  H11X22011   3.338   4.862   4.963 -0.5188 -0.6922 -0.5930
  190SAPI  H11Y22012   3.379   5.033   4.999  0.9193 -2.0974 -0.6005
  190SAPI  C31222013   3.264   4.994   4.808 -0.1983  0.4017 -0.8182
  190SAPI  H12X22014   3.223   5.097   4.811 -1.7317 -0.1221 -2.3290
  190SAPI  H12Y22015   3.180   4.929   4.775 -0.3472  0.2808 -0.2166
  190SAPI  C31322016   3.384   4.979   4.708 -0.2472  0.5084 -0.2426
  190SAPI  H13X22017   3.420   4.874   4.711 -3.0968 -0.5936 -1.0215
  190SAPI  H13Y22018   3.456   5.057   4.741  0.8768  0.0173 -1.4496
  190SAPI  C31422019   3.344   5.021   4.563  0.3403  0.0618 -0.2606
  190SAPI  H14X22020   3.439   5.020   4.504  0.9546 -2.1367  0.6335
  190SAPI  H14Y22021   3.304   5.124   4.560 -0.0369 -0.0798 -0.0640
  190SAPI  C31522022   3.242   4.930   4.488  0.2934 -1.0786  0.1053
  190SAPI  H15X22023   3.154   4.941   4.554  0.3649  0.0723  0.0322
  190SAPI  H15Y22024   3.282   4.827   4.498 -1.1720 -1.6368  0.5075
  190SAPI  C31622025   3.222   4.960   4.341 -0.0245  0.3622  0.2947
  190SAPI  H16X22026   3.314   4.927   4.287  0.3978  0.2660  1.0488
  190SAPI  H16Y22027   3.194   5.062   4.309  0.3383 -0.2708 -2.2363
  190SAPI  C31722028   3.096   4.879   4.286  0.5890  0.0033 -0.0298
  190SAPI  H17X22029   3.009   4.921   4.341 -2.3433 -2.9221 -1.9963
  190SAPI  H17Y22030   3.107   4.769   4.302  2.2387 -0.0580 -1.2852
  190SAPI  C31822031   3.089   4.913   4.134  0.0869  0.7157 -0.9121
  190SAPI  H18X22032   3.004   4.860   4.086 -0.2234  0.1081  0.2714
  190SAPI  H18Y22033   3.179   4.873   4.084 -0.3797 -0.6804 -0.6743
  190SAPI  H18Z22034   3.071   5.020   4.107 -0.8663  0.9062  0.3878
  191SAPI   C1222035   1.363   4.695   2.462 -0.0439 -0.3849  0.1352
  191SAPI    H222036   1.348   4.767   2.545 -1.6367 -2.0064  1.3199
  191SAPI    O222037   1.263   4.715   2.356 -0.2000  0.0069 -0.3536
  191SAPI   HO222038   1.186   4.741   2.406 -0.1178  1.9799 -1.1679
  191SAPI   C1322039   1.503   4.742   2.421 -0.1566  0.7934  1.0962
  191SAPI    H322040   1.575   4.735   2.505 -0.4516  0.6168  1.3341
  191SAPI    O322041   1.508   4.880   2.384 -0.4415  0.2003 -0.1249
  191SAPI   HO322042   1.472   4.892   2.296  2.7442  2.4945 -1.2918
  191SAPI   C1422043   1.541   4.644   2.301  0.0910 -0.0518 -0.0354
  191SAPI    H422044   1.478   4.672   2.214 -0.7777 -1.6035  0.0658
  191SAPI    O422045   1.682   4.656   2.262  0.0139  0.3221  0.0217
  191SAPI   HO422046   1.689   4.640   2.167  2.1293 -3.5316  0.6052
  191SAPI   C1522047   1.510   4.495   2.326  1.4625 -0.3327 -0.4457
  191SAPI    H522048   1.600   4.463   2.383 -0.6253 -1.6750  2.3339
  191SAPI    O522049   1.513   4.422   2.204  0.3008 -0.1804  0.4399
  191SAPI   HO522050   1.566   4.342   2.208  0.0657 -0.3299  0.6030
  191SAPI   C1622051   1.387   4.455   2.409  0.3933  0.2061  0.3780
  191SAPI    H622052   1.308   4.466   2.332  1.2124  1.7306 -0.3012
  191SAPI    O622053   1.393   4.321   2.451 -0.2503  0.2716  0.5142
  191SAPI   HO622054   1.378   4.309   2.546 -1.0693  2.1139  0.6706
  191SAPI   C1122055   1.358   4.561   2.525 -0.7031  0.6094  0.2362
  191SAPI    H122056   1.439   4.554   2.600  0.7190 -0.3060 -1.3319
  191SAPI     P22057   1.206   4.438   2.729  0.0293 -0.2147  0.1194
  191SAPI   O1322058   1.285   4.315   2.708  0.0998  0.1651 -0.1946
  191SAPI   O1422059   1.060   4.421   2.756  0.2928  0.2402  0.2217
  191SAPI   O1222060   1.239   4.542   2.596  0.1288  0.1828 -0.0179
  191SAPI   O1122061   1.273   4.533   2.844  0.0323  0.3020  0.7637
  191SAPI    C122062   1.193   4.647   2.873 -0.0465 -0.4132 -0.1216
  191SAPI    HA22063   1.087   4.645   2.839 -0.4910  1.0949  1.0674
  191SAPI    HB22064   1.184   4.641   2.984 -0.0871 -0.9573 -0.1512
  191SAPI    C222065   1.259   4.777   2.831 -0.0705  0.1365 -0.2402
  191SAPI    HS22066   1.249   4.796   2.722  0.4343  0.8642 -0.1656
  191SAPI   O2122067   1.401   4.768   2.863 -0.0174  0.2975 -0.4454
  191SAPI   C2122068   1.465   4.861   2.802  0.8371 -0.6688  0.4659
  191SAPI   O2222069   1.418   4.953   2.731 -0.5137 -0.8876  0.2865
  191SAPI   C2222070   1.611   4.856   2.833 -0.5446  0.0271 -0.4265
  191SAPI   H2R22071   1.625   4.951   2.888 -1.7479 -0.1831  0.2640
  191SAPI   H2S22072   1.626   4.766   2.896  0.4630 -0.0040 -0.6911
  191SAPI    C322073   1.176   4.888   2.909  0.1397 -0.2061  0.2065
  191SAPI    HX22074   1.068   4.883   2.885  0.3979 -1.8572 -0.7481
  191SAPI    HY22075   1.205   4.990   2.876  0.8604 -0.3694  0.3130
  191SAPI   O3122076   1.169   4.868   3.050 -0.4916  0.0751 -0.1886
  191SAPI   C3122077   1.254   4.939   3.121  0.2838 -0.8599 -0.7366
  191SAPI   O3222078   1.322   5.031   3.080 -0.4499  0.1715 -0.8131
  191SAPI   C3222079   1.246   4.898   3.271  0.4244 -0.5449  0.5901
  191SAPI   H2X22080   1.247   4.787   3.278 -0.3588 -0.6503 -0.5957
  191SAPI   H2Y22081   1.155   4.944   3.315  1.0410  1.3883 -0.0492
  191SAPI   C2322082   1.708   4.841   2.712  0.5159 -0.0942 -0.8308
  191SAPI   H3R22083   1.693   4.913   2.629  1.9909  1.2764  0.0375
  191SAPI   H3S22084   1.688   4.737   2.679 -2.6682  0.2175 -0.2236
  191SAPI   C2422085   1.850   4.848   2.752  0.0655 -0.3756 -0.0900
  191SAPI   H4R22086   1.916   4.836   2.664 -1.5110 -0.0342 -1.3634
  191SAPI   H4S22087   1.875   4.774   2.831 -1.5382 -0.9134 -0.0308
  191SAPI   C2522088   1.881   4.984   2.817  0.4312  0.1026 -0.8168
  191SAPI   H5R22089   1.900   5.063   2.742 -1.3303  1.4481  0.0802
  191SAPI   C2622090   1.885   5.025   2.943  0.0406 -0.3287  0.4448
  191SAPI   H6R22091   1.931   5.123   2.958  0.3116 -0.3363 -0.3121
  191SAPI   C2722092   1.853   4.950   3.073 -0.9609  0.1265  0.4271
  191SAPI   H7R22093   1.948   4.950   3.131 -0.5236 -0.2635 -0.2833
  191SAPI   H7S22094   1.837   4.845   3.042 -0.9586  0.9775 -2.8092
  191SAPI   C2822095   1.744   5.008   3.161  0.0570 -0.4699 -0.1385
  191SAPI   H8R22096   1.649   5.016   3.105 -0.6112 -0.3474  0.9970
  191SAPI   C2922097   1.750   5.070   3.279  0.2568  0.1953 -0.4740
  191SAPI   H9R22098   1.654   5.110   3.314 -0.3763  1.2548 -3.1405
  191SAPI  C21022099   1.863   5.073   3.382  0.1298 -0.4257 -0.2094
  191SAPI  H10R22100   1.824   5.124   3.473 -1.2893 -1.9740  0.0925
  191SAPI  H10S22101   1.955   5.123   3.344  0.7641 -0.8011  0.7909
  191SAPI  C21122102   1.905   4.935   3.425 -0.6433 -0.9068 -0.5292
  191SAPI  H11R22103   1.900   4.858   3.346 -1.2632 -0.9285 -0.4726
  191SAPI  C21222104   1.971   4.897   3.543 -0.1097 -0.0195 -0.1439
  191SAPI  H12R22105   1.987   4.788   3.551 -1.7659 -0.4144 -1.5749
  191SAPI  C21322106   2.009   4.989   3.666 -0.4087 -0.1748  0.0446
  191SAPI  H13R22107   1.931   5.000   3.744  1.2727  1.9536  1.5463
  191SAPI  H13S22108   2.026   5.091   3.625  1.3935 -0.4221  0.0646
  191SAPI  C21422109   2.133   4.939   3.741  0.3082 -0.1225  0.3865
  191SAPI  H14R22110   2.228   4.985   3.711  0.3008 -0.1953  0.2506
  191SAPI  C21522111   2.132   4.846   3.834  0.2528 -1.5373 -0.7185
  191SAPI  H15R22112   2.220   4.827   3.897 -0.8702 -2.1132  0.7385
  191SAPI  C21622113   2.008   4.777   3.900  0.0203 -0.3242  0.1585
  191SAPI  H16R22114   2.029   4.668   3.902  0.0133 -0.3541  3.4691
  191SAPI  H16S22115   1.913   4.803   3.850 -0.0730 -1.1687 -0.1260
  191SAPI  C21722116   1.991   4.823   4.044  0.6221 -0.5882 -0.8035
  191SAPI  H17R22117   1.905   4.766   4.087  0.6497  0.4028  0.6193
  191SAPI  H17S22118   1.960   4.930   4.041  0.9962 -0.4714 -0.4867
  191SAPI  C21822119   2.103   4.785   4.141 -0.4481 -0.2504  0.4842
  191SAPI  H18R22120   2.083   4.835   4.238  1.9067  1.0735  0.3700
  191SAPI  H18S22121   2.200   4.819   4.099 -0.0631  2.5386  3.2776
  191SAPI  C21922122   2.105   4.635   4.183  0.1784  0.2790 -0.1341
  191SAPI  H19R22123   2.130   4.570   4.096 -1.7457 -3.9439  2.1893
  191SAPI  H19S22124   2.000   4.616   4.213  0.8759 -0.1209  2.1972
  191SAPI  C22022125   2.195   4.614   4.302 -0.7685 -0.2450  0.1682
  191SAPI  H20R22126   2.209   4.506   4.324  2.5350  0.3185  1.4671
  191SAPI  H20S22127   2.171   4.672   4.394 -0.6648 -0.7636  0.5317
  191SAPI  H20T22128   2.303   4.631   4.283 -0.4325 -1.7258  0.6121
  191SAPI   C3322129   1.364   4.953   3.359 -0.4011 -0.7188  0.4408
  191SAPI   H3X22130   1.365   5.063   3.342  0.8335 -0.8325 -0.3826
  191SAPI   H3Y22131   1.463   4.908   3.336  0.1656 -0.3521  2.0439
  191SAPI   C3422132   1.339   4.932   3.505 -0.5769 -0.6469 -0.8361
  191SAPI   H4X22133   1.346   4.824   3.530 -1.2347 -0.3077  0.9699
  191SAPI   H4Y22134   1.234   4.957   3.532 -0.3859  0.7825 -1.3486
  191SAPI   C3522135   1.440   5.009   3.598  0.1167 -0.1164  0.6651
  191SAPI   H5X22136   1.432   5.119   3.581  1.4848 -0.4817 -3.4574
  191SAPI   H5Y22137   1.541   4.988   3.557 -0.8239 -0.1819 -1.8198
  191SAPI   C3622138   1.427   4.973   3.746  0.0391  0.2358  0.3231
  191SAPI   H6X22139   1.423   4.863   3.756  2.4882  0.0684  0.2128
  191SAPI   H6Y22140   1.332   5.018   3.783  0.3210  2.5061 -1.4389
  191SAPI   C3722141   1.539   5.019   3.835  0.5370  0.0745  0.5280
  191SAPI   H7X22142   1.563   5.126   3.821  0.6806 -0.0451 -0.1428
  191SAPI   H7Y22143   1.632   4.963   3.810  0.7191  0.6230 -0.0444
  191SAPI   C3822144   1.514   5.002   3.983  0.3623 -0.0151 -0.2068
  191SAPI   H8X22145   1.484   4.896   4.001 -1.4944  0.9852  3.6062
  191SAPI   H8Y22146   1.436   5.069   4.024  0.2951  0.8096 -1.6128
  191SAPI   C3922147   1.642   5.019   4.070 -0.1166 -0.1442  0.2606
  191SAPI   H9X22148   1.675   5.124   4.056  0.7294 -0.1447  1.9972
  191SAPI   H9Y22149   1.717   4.947   4.030  0.8602 -0.1983  2.0839
  191SAPI  C31022150   1.640   4.997   4.218 -0.4170 -0.0161 -0.7648
  191SAPI  H10X22151   1.583   4.905   4.243  0.4364  0.4131  3.6777
  191SAPI  H10Y22152   1.573   5.072   4.264  0.0244  0.2798 -0.5973
  191SAPI  C31122153   1.775   4.990   4.281  0.0554  0.0382  0.0304
  191SAPI  H11X22154   1.809   5.095   4.275 -0.6222  0.2449 -0.3402
  191SAPI  H11Y22155   1.842   4.921   4.225  0.2637 -0.2187  0.5918
  191SAPI  C31222156   1.767   4.939   4.421  0.0344 -0.2453 -0.3841
  191SAPI  H12X22157   1.730   4.835   4.415 -1.9533  0.3340  0.7911
  191SAPI  H12Y22158   1.690   4.998   4.476 -0.1345  2.5030 -3.2259
  191SAPI  C31322159   1.902   4.959   4.487 -0.2696  0.0999 -0.5872
  191SAPI  H13X22160   1.927   5.067   4.491  4.0176 -0.7004 -0.6665
  191SAPI  H13Y22161   1.987   4.911   4.433  1.3304  2.9368 -0.7439
  191SAPI  C31422162   1.903   4.927   4.639  0.0750  0.2774 -0.0587
  191SAPI  H14X22163   1.806   4.953   4.687 -0.9721 -2.3150 -0.6305
  191SAPI  H14Y22164   1.989   4.978   4.689  1.0925 -1.9455  0.5859
  191SAPI  C31522165   1.931   4.780   4.658  0.3541  0.4294  0.0184
  191SAPI  H15X22166   2.030   4.736   4.635 -0.4140 -0.8594 -0.9849
  191SAPI  H15Y22167   1.860   4.737   4.583 -1.2797 -0.1268  1.8131
  191SAPI  C31622168   1.905   4.727   4.794 -0.5934 -0.0194  0.3465
  191SAPI  H16X22169   1.808   4.765   4.835  0.2191 -0.7020  3.0796
  191SAPI  H16Y22170   1.985   4.759   4.864 -0.9974 -0.6273  1.1012
  191SAPI  C31722171   1.881   4.574   4.798  0.0928 -0.5614 -0.3459
  191SAPI  H17X22172   1.982   4.530   4.785  1.3701  2.4551 -1.6726
  191SAPI  H17Y22173   1.818   4.528   4.719  1.6548  0.4645 -2.3008
  191SAPI  C31822174   1.835   4.519   4.937 -0.0738 -0.7216 -0.0714
  191SAPI  H18X22175   1.904   4.552   5.017 -0.8362 -0.0620  0.3229
  191SAPI  H18Y22176   1.831   4.408   4.938 -3.3336 -0.6868  0.4259
  191SAPI  H18Z22177   1.730   4.548   4.957 -0.1512 -0.5944 -0.6221
  192SAPI   C1222178   3.696   3.360   1.952 -0.1418 -0.1465 -0.1880
  192SAPI    H222179   3.670   3.323   2.053 -1.6411  1.2452 -0.0265
  192SAPI    O222180   3.836   3.342   1.958  0.1717  0.4912  0.1327
  192SAPI   HO222181   3.863   3.296   2.038 -0.0692  0.4474  0.1890
  192SAPI   C1322182   3.624   3.272   1.852 -0.5558  0.1690  0.3007
  192SAPI    H322183   3.517   3.285   1.877 -0.0422 -1.1439  3.6049
  192SAPI    O322184   3.650   3.133   1.866 -0.8409  0.1463 -0.5482
  192SAPI   HO322185   3.570   3.086   1.889  1.0731 -2.4382  1.4493
  192SAPI   C1422186   3.656   3.318   1.708 -0.2862 -0.4990 -0.0519
  192SAPI    H422187   3.759   3.277   1.694 -1.0179 -2.1521 -0.8797
  192SAPI    O422188   3.590   3.245   1.609  0.4968  0.0016 -0.3531
  192SAPI   HO422189   3.636   3.167   1.576 -1.8299 -0.7823 -2.0522
  192SAPI   C1522190   3.662   3.470   1.681  0.2901 -0.5077 -0.1323
  192SAPI    H522191   3.557   3.493   1.653  0.1305 -0.1251  0.7642
  192SAPI    O522192   3.739   3.487   1.568 -0.7731 -0.8249  0.0590
  192SAPI   HO522193   3.694   3.554   1.516 -1.7556 -0.2093  1.6348
  192SAPI   C1622194   3.687   3.568   1.796  0.1398  1.0666  0.1198
  192SAPI    H622195   3.796   3.589   1.796  0.0409  1.7451  1.6434
  192SAPI    O622196   3.636   3.699   1.764 -0.2665 -0.4702  0.4830
  192SAPI   HO622197   3.542   3.704   1.784 -0.7907 -2.1286 -1.3537
  192SAPI   C1122198   3.650   3.506   1.934  0.1806 -0.7915  0.3097
  192SAPI    H122199   3.540   3.492   1.924  0.0906 -1.7011  2.1805
  192SAPI     P22200   3.599   3.607   2.171  0.0814  0.3499  0.1715
  192SAPI   O1322201   3.470   3.533   2.150  0.3272  0.2605  0.3252
  192SAPI   O1422202   3.587   3.753   2.202 -1.0406  0.3144  0.7068
  192SAPI   O1222203   3.694   3.588   2.037  0.3056 -0.5661 -0.6826
  192SAPI   O1122204   3.677   3.533   2.280  0.6611  0.2090 -0.4571
  192SAPI    C122205   3.805   3.574   2.328  0.7595 -0.0723  0.1354
  192SAPI    HA22206   3.865   3.482   2.312  1.4309  0.4554 -0.4666
  192SAPI    HB22207   3.843   3.662   2.272  0.8288 -1.4625 -2.1078
  192SAPI    C222208   3.795   3.598   2.483  1.0754  0.5939  0.0394
  192SAPI    HS22209   3.779   3.507   2.545 -1.0116  1.1088  0.3566
  192SAPI   O2122210   3.701   3.699   2.507 -0.4412 -0.1990 -0.0150
  192SAPI   C2122211   3.577   3.672   2.543  0.6502 -0.3931 -0.3896
  192SAPI   O2222212   3.535   3.559   2.563  0.1070  0.4768 -0.0155
  192SAPI   C2222213   3.503   3.808   2.562 -0.0126  0.9174  0.1355
  192SAPI   H2R22214   3.574   3.880   2.609  1.5180 -1.0158  0.9273
  192SAPI   H2S22215   3.473   3.844   2.461 -0.9069 -0.0338  0.0472
  192SAPI    C322216   3.930   3.654   2.524  0.0685  0.0058  0.1040
  192SAPI    HX22217   3.939   3.758   2.484  3.3866  0.3165  1.3776
  192SAPI    HY22218   4.010   3.590   2.481  0.2175 -1.1276  1.9656
  192SAPI   O3122219   3.952   3.650   2.667  0.6942 -0.1650  0.3068
  192SAPI   C3122220   3.921   3.772   2.729 -0.1068  0.7631  0.4858
  192SAPI   O3222221   3.899   3.874   2.671 -0.0283  0.1905  0.2843
  192SAPI   C3222222   3.919   3.738   2.882 -0.0397  0.4964 -0.0625
  192SAPI   H2X22223   3.973   3.644   2.905 -1.8997 -0.3527  1.0305
  192SAPI   H2Y22224   3.814   3.721   2.916  0.4883 -0.2069  1.3158
  192SAPI   C2322225   3.385   3.791   2.657 -0.4553 -0.1111  0.1418
  192SAPI   H3R22226   3.308   3.723   2.615 -1.8133  1.0652  0.6805
  192SAPI   H3S22227   3.334   3.889   2.657 -1.8914 -0.8118 -1.3917
  192SAPI   C2422228   3.414   3.743   2.799  0.3175 -0.0737  0.2062
  192SAPI   H4R22229   3.423   3.633   2.808  0.8573 -0.3232 -2.6009
  192SAPI   H4S22230   3.321   3.773   2.851 -0.8265 -0.0652 -1.7716
  192SAPI   C2522231   3.530   3.818   2.867  1.0365 -0.6255 -0.9142
  192SAPI   H5R22232   3.574   3.906   2.817 -2.5019  3.4371  2.2874
  192SAPI   C2622233   3.586   3.791   2.983  0.9840  0.1721  0.3887
  192SAPI   H6R22234   3.670   3.844   3.030  1.9832 -1.8272  0.9777
  192SAPI   C2722235   3.553   3.672   3.065  0.2249 -0.1251 -0.2780
  192SAPI   H7R22236   3.551   3.581   3.002 -2.3265  0.5720 -1.3315
  192SAPI   H7S22237   3.459   3.683   3.123  0.0122 -1.0859 -0.4301
  192SAPI   C2822238   3.669   3.642   3.165  0.2407 -1.0116 -0.6221
  192SAPI   H8R22239   3.771   3.669   3.130 -0.4251  1.4104 -0.9120
  192SAPI   C2922240   3.651   3.603   3.293  0.3260 -0.0874  0.0815
  192SAPI   H9R22241   3.743   3.603   3.354  0.5047  4.0894  0.0884
  192SAPI  C21022242   3.528   3.576   3.365 -0.8645 -0.0330  0.4736
  192SAPI  H10R22243   3.534   3.481   3.423  0.9793  0.3975  1.0457
  192SAPI  H10S22244   3.445   3.560   3.292 -2.1939 -0.1794  1.9651
  192SAPI  C21122245   3.492   3.694   3.453  1.0309  0.4919  1.1147
  192SAPI  H11R22246   3.447   3.781   3.404  1.0541 -0.2436 -0.2641
  192SAPI  C21222247   3.492   3.700   3.582  0.1372 -0.0620 -0.2394
  192SAPI  H12R22248   3.470   3.796   3.630 -1.9986 -0.1008 -1.0208
  192SAPI  C21322249   3.540   3.599   3.686 -0.0490 -0.3061  0.8350
  192SAPI  H13R22250   3.599   3.652   3.763 -0.4450 -0.2321  1.0914
  192SAPI  H13S22251   3.621   3.539   3.639  1.4385  1.5294  0.9570
  192SAPI  C21422252   3.436   3.511   3.743 -0.2309  0.5924 -0.4518
  192SAPI  H14R22253   3.419   3.431   3.670 -1.4200  0.2467  0.1733
  192SAPI  C21522254   3.371   3.525   3.861 -0.2948 -0.1641  0.4523
  192SAPI  H15R22255   3.320   3.435   3.897  1.7557 -1.4638  0.2929
  192SAPI  C21622256   3.388   3.634   3.962  0.2927 -0.1882 -0.3926
  192SAPI  H16R22257   3.291   3.688   3.959 -0.9542 -2.3512 -1.3589
  192SAPI  H16S22258   3.470   3.703   3.935  0.0905  0.4827  0.6276
  192SAPI  C21722259   3.404   3.589   4.107 -0.0432 -0.3862  0.2700
  192SAPI  H17R22260   3.502   3.538   4.121 -0.1165 -0.0441  2.3324
  192SAPI  H17S22261   3.320   3.526   4.144 -0.7198  0.4889  0.2675
  192SAPI  C21822262   3.392   3.709   4.212 -0.1163  0.1139  0.7208
  192SAPI  H18R22263   3.306   3.776   4.191  1.2479  1.6952 -0.1287
  192SAPI  H18S22264   3.491   3.759   4.206  0.1616 -0.4143  0.8224
  192SAPI  C21922265   3.384   3.665   4.359  0.3108  0.2889 -0.4791
  192SAPI  H19R22266   3.292   3.605   4.377  0.7370 -0.2310  0.0004
  192SAPI  H19S22267   3.378   3.765   4.409  1.9173  1.0667 -1.7563
  192SAPI  C22022268   3.505   3.593   4.407 -0.2159 -0.4729  0.0557
  192SAPI  H20R22269   3.596   3.655   4.391 -0.0960 -0.5003  0.6157
  192SAPI  H20S22270   3.520   3.499   4.350 -0.2332  1.0903 -2.7493
  192SAPI  H20T22271   3.489   3.568   4.514 -1.8525 -0.4726 -0.1623
  192SAPI   C3322272   3.981   3.859   2.960 -0.1078 -0.0506  0.4828
  192SAPI   H3X22273   3.906   3.937   2.936 -1.5949 -1.2141  1.2227
  192SAPI   H3Y22274   4.080   3.890   2.919 -0.4242 -0.6112 -0.7346
  192SAPI   C3422275   3.999   3.851   3.108  0.3734  0.1059 -0.6511
  192SAPI   H4X22276   4.056   3.757   3.125  0.6467  0.0960 -1.5794
  192SAPI   H4Y22277   3.900   3.835   3.156  0.5659  1.4510  0.2297
  192SAPI   C3522278   4.068   3.975   3.174 -0.1113 -0.0160 -0.7329
  192SAPI   H5X22279   4.007   4.068   3.177 -0.2935 -0.1612  0.6256
  192SAPI   H5Y22280   4.162   3.999   3.120  1.4566 -1.7283  1.0849
  192SAPI   C3622281   4.113   3.940   3.317  0.2550 -0.5081 -0.2589
  192SAPI   H6X22282   4.152   4.035   3.359  2.6486 -1.7529  0.5464
  192SAPI   H6Y22283   4.193   3.863   3.319  0.0394 -0.7252  1.1321
  192SAPI   C3722284   4.002   3.900   3.419  0.5497 -0.0336  0.0119
  192SAPI   H7X22285   3.956   3.802   3.394  0.9865 -0.1630 -0.2951
  192SAPI   H7Y22286   3.926   3.980   3.427  0.4962  0.2860 -2.7401
  192SAPI   C3822287   4.067   3.888   3.561  0.4408 -0.0806  0.0320
  192SAPI   H8X22288   4.080   3.995   3.587 -0.2682  0.1237 -0.4218
  192SAPI   H8Y22289   4.164   3.836   3.572 -0.8236 -2.2498  1.6470
  192SAPI   C3922290   3.977   3.811   3.656  0.6609  0.2888  0.5548
  192SAPI   H9X22291   3.968   3.705   3.625 -0.1700  0.1302  1.3013
  192SAPI   H9Y22292   3.873   3.851   3.647  0.8696  0.7016 -0.1124
  192SAPI  C31022293   4.028   3.821   3.805  0.2319 -0.6491  0.6047
  192SAPI  H10X22294   4.047   3.926   3.836 -0.9043 -0.6360  1.3379
  192SAPI  H10Y22295   4.121   3.761   3.795 -0.3389 -1.6703  1.1977
  192SAPI  C31122296   3.937   3.774   3.913  0.4280  0.6154 -0.2562
  192SAPI  H11X22297   3.924   3.664   3.897 -0.5902  0.6907 -0.0268
  192SAPI  H11Y22298   3.840   3.828   3.910  1.4500  2.4592 -2.3230
  192SAPI  C31222299   3.996   3.791   4.058  0.1904  0.1751  0.0848
  192SAPI  H12X22300   4.025   3.899   4.059  0.3057  0.2536 -2.8415
  192SAPI  H12Y22301   4.099   3.754   4.075  0.2854  0.7572  0.8462
  192SAPI  C31322302   3.911   3.747   4.174 -0.2436 -0.1214 -0.5574
  192SAPI  H13X22303   3.908   3.636   4.180  0.0370 -0.0523  1.8252
  192SAPI  H13Y22304   3.808   3.783   4.154 -0.2886 -0.2022 -0.4692
  192SAPI  C31422305   3.963   3.793   4.307  0.5603  0.3152 -0.2059
  192SAPI  H14X22306   3.991   3.900   4.313 -0.4712  0.6182 -0.5979
  192SAPI  H14Y22307   4.063   3.745   4.314 -0.2384 -1.3431  0.5273
  192SAPI  C31522308   3.867   3.766   4.426 -0.7363  0.3925  0.9061
  192SAPI  H15X22309   3.819   3.666   4.431  1.3796 -0.6537  1.3645
  192SAPI  H15Y22310   3.783   3.838   4.433 -1.8328 -0.5033 -1.7412
  192SAPI  C31622311   3.950   3.774   4.547 -0.5414  0.1093 -0.3840
  192SAPI  H16X22312   4.032   3.847   4.533  1.1712 -1.2630  1.8462
  192SAPI  H16Y22313   3.998   3.677   4.571  0.1728  0.7895  1.0784
  192SAPI  C31722314   3.868   3.828   4.665 -0.9762 -0.4972 -0.6447
  192SAPI  H17X22315   3.856   3.935   4.637 -0.6757 -0.0177  0.9661
  192SAPI  H17Y22316   3.916   3.832   4.765 -2.5761 -0.2170  0.1483
  192SAPI  C31822317   3.730   3.768   4.693  0.1191 -0.2442 -0.1361
  192SAPI  H18X22318   3.659   3.838   4.742  0.9328  0.4291  0.1077
  192SAPI  H18Y22319   3.739   3.681   4.762  0.6213 -0.6657 -0.7172
  192SAPI  H18Z22320   3.679   3.731   4.601  0.2189 -2.3017  0.5791
  193SOD    SOD22321   4.726   3.467   0.497 -0.0358  0.3167 -0.2879
  194SOD    SOD22322   3.305   4.626   7.252 -0.2996 -0.2225 -0.0826
  195SOD    SOD22323   4.628   3.992   7.690  0.2097  0.0376  0.3635
  196SOD    SOD22324   2.035   1.479   1.578 -0.5220 -0.1692  0.2919
  197SOD    SOD22325   5.698   4.288   6.951 -0.1333 -0.1854  0.0492
  198SOD    SOD22326   3.443   5.393   6.896 -0.1426 -0.4133  0.1014
  199SOD    SOD22327   2.890   4.699   2.126  0.4067 -0.0533  0.4487
  200SOD    SOD22328   3.661   6.366   7.671 -0.1972  0.5010  0.2712
  201SOD    SOD22329   2.015   4.577   0.711  0.2371  0.0634  0.1181
  202SOD    SOD22330   0.818   1.398   7.121 -0.1513 -0.0704 -0.3384
  203SOD    SOD22331   0.080   3.834   0.583 -0.5879  0.1470 -0.3789
  204SOD    SOD22332   3.073   0.067   8.661  0.3797 -0.4687 -0.1293
  205SOD    SOD22333   3.170   5.302   7.762  0.2602  0.2982  0.1626
  206SOD    SOD22334   0.245   6.217   8.303 -0.0482  0.0441 -0.0034
  207SOD    SOD22335   3.707   4.171   2.459 -0.1061  0.1030 -0.2333
  208SOD    SOD22336   6.011   4.061   6.989  0.0002 -0.3397  0.1021
  209SOD    SOD22337   2.845   3.461   8.042 -0.0212  0.0327 -0.0934
  210SOD    SOD22338   3.784   1.720   1.667 -0.3004  0.1462 -0.0867
  211SOD    SOD22339   2.433   5.751   6.671 -0.0372 -0.1326 -0.6029
  212SOD    SOD22340   4.334   0.603   6.949 -0.3163 -0.1322  0.1391
  213SOD    SOD22341   0.907   6.437   7.256 -0.2111  0.0740  0.4198
  214SOD    SOD22342   6.355   6.650   6.771 -0.5722  0.3256  0.0132
  215SOD    SOD22343   1.834   4.027   1.390 -0.0878  0.8112 -0.0935
  216SOD    SOD22344   0.702   2.287   0.128  0.1033  0.5293 -0.0478
  217SOD    SOD22345   3.950   6.340   7.035 -0.0907 -0.1124 -0.1171
  218SOD    SOD22346   0.363   0.411   7.451  0.5838 -0.3843 -0.3774
  219SOD    SOD22347   5.462   2.719   2.080 -0.1672 -0.4316  0.2739
  220SOD    SOD22348   0.913   5.001   0.894  0.1737 -0.8045 -0.0775
  221SOD    SOD22349   4.613   3.001   8.748  0.1389  0.3133  0.1905
  222SOD    SOD22350   2.138   6.454   8.339 -0.4702 -0.2167  0.3436
  223SOD    SOD22351   0.275   4.801   0.700  0.3704 -0.3757  0.0131
  224SOD    SOD22352   1.508   5.912   1.889 -0.7466 -0.2227  0.4517
  225SOD    SOD22353   4.564   3.886   6.624 -0.0499  0.6143 -0.4810
  226SOD    SOD22354   5.216   6.745   8.423 -0.0855 -0.2864  0.1820
  227SOD    SOD22355   1.646   4.185   6.996 -0.3488  0.6437 -0.1585
  228SOD    SOD22356   1.603   2.775   6.721  0.3551 -0.0365  0.3975
  229SOD    SOD22357   3.733   1.474   1.129  0.0928 -0.2388  0.3293
  230CLA    CLA22358   5.972   3.764   0.912 -0.0973  0.3917 -0.4281
  231CLA    CLA22359   2.789   6.021   7.807  0.1392  0.0532  0.1642
  232CLA    CLA22360   0.627   4.568   0.745 -0.5312 -0.2400  0.2625
  233CLA    CLA22361   0.424   5.267   2.075  0.0089 -0.3114 -0.4694
  234CLA    CLA22362   0.907   4.677   8.426  0.1059 -0.0146  0.0142
  235CLA    CLA22363   3.756   0.118   6.928  0.8303 -0.0821 -0.1027
  236CLA    CLA22364   1.994   0.176   8.540  0.1173  0.0443 -0.3171
  237CLA    CLA22365   1.328   2.959   7.934 -0.0419  0.2276  0.1560
  238CLA    CLA22366   2.294   2.014   7.623 -0.0740 -0.1383  0.2748
  239CLA    CLA22367   5.546   6.733   7.756  0.4964 -0.0939  0.1562
  240CLA    CLA22368   2.360   3.734   0.268  0.0762 -0.0299  0.1250
  241CLA    CLA22369   0.264   0.382   0.473 -0.1827 -0.4284 -0.1314
  242CLA    CLA22370   4.680   3.437   0.221 -0.2949 -0.1374  0.1399
  243CLA    CLA22371   3.641   5.292   7.365  0.1562  0.3807  0.3759
  244CLA    CLA22372   0.826   1.829   8.714 -0.2661 -0.2094  0.3885
  245CLA    CLA22373   4.418   4.160   0.271 -0.6947  0.0138  0.1376
  246CLA    CLA22374   3.320   4.329   7.588 -0.0323  0.6614  0.4281
  247TIP3   OH222375   2.920   0.513   6.711  0.1554  0.4186  0.0262
  247TIP3    H122376   2.845   0.460   6.685 -0.7008  1.5151  0.2280
  247TIP3    H222377   2.909   0.595   6.664  0.9666  0.7769  0.4414
  248TIP3   OH222378   2.781   1.492   7.853  0.1021 -0.1712 -0.3074
  248TIP3    H122379   2.695   1.512   7.817 -0.6384 -0.5850  1.1196
  248TIP3    H222380   2.787   1.397   7.848 -1.0833 -0.5315  2.7109
  249TIP3   OH222381   3.871   2.919   1.215 -0.2228  0.4738  0.2040
  249TIP3    H122382   3.879   2.825   1.200  1.0486  0.9430 -2.6852
  249TIP3    H222383   3.786   2.942   1.177  0.2032  0.7376 -0.5924
  250TIP3   OH222384   1.655   3.292   6.881 -0.5618 -0.1048  0.5136
  250TIP3    H122385   1.667   3.380   6.917  1.7224  0.4422 -1.3112
  250TIP3    H222386   1.634   3.307   6.789 -1.0930 -1.4774  0.3955
  251TIP3   OH222387   4.315   6.376   8.438 -0.1072 -0.3534  0.2900
  251TIP3    H122388   4.347   6.444   8.497  1.3354 -1.7387  1.1848
  251TIP3    H222389   4.230   6.408   8.409 -0.1624  1.1077  1.8833
  252TIP3   OH222390   2.327   4.030   8.426  0.1555  0.2431 -0.1703
  252TIP3    H122391   2.280   4.063   8.349 -0.1227  1.6281  0.5601
  252TIP3    H222392   2.284   3.948   8.446 -1.5706  1.1640  0.0902
  253TIP3   OH222393   4.771   1.172   8.639  0.6550 -0.3622  0.1567
  253TIP3    H122394   4.736   1.084   8.626  0.1651 -0.6120  2.6727
  253TIP3    H222395   4.707   1.215   8.696  2.5364  0.4527  1.7522
  254TIP3   OH222396   6.280   1.551   7.603 -0.0102  0.2858  0.4312
  254TIP3    H122397   6.374   1.535   7.594  0.1641  0.9423  0.9761
  254TIP3    H222398   6.258   1.521   7.691 -0.6474 -1.3162 -0.2356
  255TIP3   OH222399   3.094   2.751   6.358  1.1020 -0.3277  0.1772
  255TIP3    H122400   3.125   2.666   6.387 -0.4585 -0.9249  0.1405
  255TIP3    H222401   3.083   2.741   6.263  0.3828 -0.2584  0.2534
  256TIP3   OH222402   4.535   1.389   2.250  0.0197  0.6734 -0.1410
  256TIP3    H122403   4.453   1.365   2.207 -0.1139  0.2372  0.3455
  256TIP3    H222404   4.510   1.453   2.317  0.3434  2.0372 -1.2749
  257TIP3   OH222405   1.173   6.126   1.414  0.0788 -0.1927  0.3184
  257TIP3    H122406   1.237   6.073   1.366 -0.7704 -0.9372  0.0013
  257TIP3    H222407   1.151   6.073   1.491  0.4239  0.4158  0.8576
  258TIP3   OH222408   0.532   5.029   2.285 -0.1390 -0.7069 -0.6344
  258TIP3    H122409   0.492   5.104   2.242 -0.6985 -0.6228  0.0267
  258TIP3    H222410   0.493   4.953   2.243  0.1350 -0.6301 -1.0316
  259TIP3   OH222411   3.693   1.716   1.447  0.0982 -0.3181  0.6497
  259TIP3    H122412   3.759   1.760   1.393 -0.9974  0.6607  0.0905
  259TIP3    H222413   3.714   1.623   1.437  1.0570 -0.0565  0.0332
  260TIP3   OH222414   6.543   2.605   0.542 -0.0620  0.1608  0.2815
  260TIP3    H122415   6.511   2.692   0.520  1.7723  0.7151 -0.3948
  260TIP3    H222416   6.477   2.568   0.600  0.1922  2.8555  2.4196
  261TIP3   OH222417   5.040   3.911   6.592 -0.8145 -0.2667 -0.2825
  261TIP3    H122418   5.087   3.858   6.528 -1.7509 -0.0693 -1.1495
  261TIP3    H222419   5.105   3.929   6.660  0.6053  0.6012 -1.7927
  262TIP3   OH222420   2.443   1.739   6.546  0.1300 -0.2752 -0.0440
  262TIP3    H122421   2.401   1.821   6.570  0.8118  0.5105 -1.4509
  262TIP3    H222422   2.372   1.675   6.547 -0.3601  0.2496  1.3411
  263TIP3   OH222423   1.122   1.283   7.998 -0.3310  0.4873  0.1448
  263TIP3    H122424   1.077   1.265   8.081 -1.0430 -0.5835 -0.4470
  263TIP3    H222425   1.131   1.198   7.956  2.5329  0.5942  0.3219
  264TIP3   OH222426   2.136   5.751   1.758 -0.0289 -0.2782 -0.7972
  264TIP3    H122427   2.193   5.825   1.778 -0.7412  0.3880 -1.1849
  264TIP3    H222428   2.166   5.682   1.816 -0.5460  0.8806  0.9221
  265TIP3   OH222429   2.993   6.012   2.226  0.3166 -0.3326  0.0545
  265TIP3    H122430   3.053   6.084   2.208 -0.0305 -0.5140 -2.0541
  265TIP3    H222431   2.914   6.034   2.176 -1.2545 -0.3167  2.3983
  266TIP3   OH222432   0.181   3.354   1.704 -0.0676  0.1216 -0.3745
  266TIP3    H122433   0.189   3.300   1.626 -0.7821  0.6326 -0.8199
  266TIP3    H222434   0.257   3.413   1.700 -0.5638  0.7390 -1.1759
  267TIP3   OH222435   0.549   1.741   6.684 -0.6307 -0.3158  0.6543
  267TIP3    H122436   0.531   1.655   6.722 -1.1752 -0.4867  0.0073
  267TIP3    H222437   0.477   1.757   6.623  0.1527  0.0218 -0.2082
  268TIP3   OH222438   6.593   2.924   7.613 -0.1999 -0.0069  0.5210
  268TIP3    H122439   6.647   2.894   7.540  1.8010  0.4766  1.7333
  268TIP3    H222440   6.520   2.862   7.616  0.5788 -1.0425 -0.8185
  269TIP3   OH222441   2.586   1.368   7.008  0.0493  0.0806 -0.4833
  269TIP3    H122442   2.561   1.282   7.041 -0.9607 -0.1811 -1.8452
  269TIP3    H222443   2.522   1.428   7.045 -0.1204  0.0305 -0.6976
  270TIP3   OH222444   3.367   5.573   0.411 -0.0816 -0.1008 -0.0216
  270TIP3    H122445   3.447   5.537   0.450  0.2320 -0.8558 -1.3184
  270TIP3    H222446   3.330   5.500   0.362 -1.5140  0.2824  0.4487
  271TIP3   OH222447   2.130   5.381   1.022  0.2399 -0.1637  0.0585
  271TIP3    H122448   2.188   5.306   1.012  0.4928  0.2093 -1.4630
  271TIP3    H222449   2.158   5.442   0.955 -0.6244  0.8722  0.6156
  272TIP3   OH222450   2.414   5.058   1.075  0.4853 -0.1660  0.5857
  272TIP3    H122451   2.336   5.060   1.130  0.1110 -2.6971  0.2681
  272TIP3    H222452   2.381   5.078   0.987  0.3740 -0.2202  0.6146
  273TIP3   OH222453   2.408   3.483   8.701  0.2776 -0.2561  0.8225
  273TIP3    H122454   2.437   3.476   8.792  0.2871  1.3025  0.9786
  273TIP3    H222455   2.449   3.564   8.669  0.6117 -0.9939 -0.7039
  274TIP3   OH222456   4.861   5.037   0.271  0.0267 -0.2218 -0.1808
  274TIP3    H122457   4.898   4.959   0.231  1.2339  0.4270 -0.3897
  274TIP3    H222458   4.937   5.086   0.304 -0.6423  1.1208 -0.5355
  275TIP3   OH222459   0.951   0.433   7.162 -0.2203 -0.7389  0.4259
  275TIP3    H122460   1.010   0.383   7.105  1.1689  0.2293  0.9487
  275TIP3    H222461   0.989   0.521   7.164 -0.5736 -0.5949  2.3561
  276TIP3   OH222462   1.965   6.651   0.333 -0.4047 -0.1870 -0.5978
  276TIP3    H122463   2.047   6.605   0.353 -0.2175 -0.1037 -1.1506
  276TIP3    H222464   1.897   6.586   0.348 -0.1155 -0.8068 -1.7891
  277TIP3   OH222465   2.037   2.305   0.763  0.4229 -0.0626  0.2434
  277TIP3    H122466   2.007   2.364   0.693 -0.7022 -0.0872  0.6845
  277TIP3    H222467   2.073   2.364   0.830 -0.5836  0.1350  0.6289
  278TIP3   OH222468   4.936   3.998   0.529 -0.1306  0.1328 -0.2886
  278TIP3    H122469   4.955   3.946   0.451 -0.1620 -0.0231 -0.1916
  278TIP3    H222470   4.861   4.052   0.504  1.6340  2.2444 -1.3812
  279TIP3   OH222471   0.249   1.441   0.623 -0.5386  0.3105  0.4197
  279TIP3    H122472   0.170   1.444   0.569 -0.1772  1.0030 -0.0934
  279TIP3    H222473   0.320   1.465   0.563 -0.1344  1.1851  1.2228
  280TIP3   OH222474   4.293   6.801   7.393 -0.1824 -0.3376 -0.0805
  280TIP3    H122475   4.210   6.840   7.421 -0.5680 -0.9534 -0.3370
  280TIP3    H222476   4.303   6.828   7.302  0.1904  0.2082  0.1172
  281TIP3   OH222477   0.105   6.139   0.488  0.5831  0.4218 -0.5555
  281TIP3    H122478   0.190   6.105   0.513  0.4660  0.7954  0.4436
  281TIP3    H222479   0.059   6.065   0.448  1.0470 -0.0316 -0.2550
  282TIP3   OH222480   1.236   6.460   8.732 -0.2677 -0.0100  0.5570
  282TIP3    H122481   1.233   6.530   8.666 -1.0038  0.0130  0.6138
  282TIP3    H222482   1.316   6.479   8.782  0.6939 -0.4304 -0.7526
  283TIP3   OH222483   0.654   1.768   0.725  0.1318 -1.1145 -0.1324
  283TIP3    H122484   0.583   1.712   0.757  0.2252 -0.5417  1.1205
  283TIP3    H222485   0.659   1.839   0.789  0.2304  0.1580 -1.5105
  284TIP3   OH222486   0.305   2.683   7.822  0.2142  0.4159 -0.4481
  284TIP3    H122487   0.311   2.771   7.783 -0.5985  0.9357  0.5468
  284TIP3    H222488   0.350   2.690   7.905 -1.4035  0.4295  0.4761
  285TIP3   OH222489   1.520   6.143   2.311 -0.0669  0.3705 -0.3507
  285TIP3    H122490   1.557   6.209   2.369 -1.9577 -0.0750  1.4857
  285TIP3    H222491   1.592   6.081   2.296 -0.3169 -1.7705  4.9800
  286TIP3   OH222492   6.046   5.076   0.484  0.3327  0.3921 -0.3253
  286TIP3    H122493   5.952   5.064   0.498  0.3839  0.8131  0.4144
  286TIP3    H222494   6.065   5.027   0.404 -0.3346 -0.4816  0.0458
  287TIP3   OH222495   1.755   0.995   6.657 -0.4259  0.5030  0.1041
  287TIP3    H122496   1.822   0.995   6.589 -0.5723 -0.6374 -0.0609
  287TIP3    H222497   1.803   0.987   6.739 -0.2936  1.0807  0.0872
  288TIP3   OH222498   1.407   5.719   1.236 -0.0507 -0.5287 -0.0438
  288TIP3    H122499   1.426   5.784   1.304 -2.4719 -0.3263  0.5636
  288TIP3    H222500   1.458   5.642   1.260  3.0768  1.1362 -0.9069
  289TIP3   OH222501   6.090   6.080   0.932 -0.7108  0.2713 -0.2510
  289TIP3    H122502   6.015   6.035   0.893 -0.6363  0.7450 -0.9407
  289TIP3    H222503   6.108   6.153   0.873  0.2362  0.2170 -0.0401
  290TIP3   OH222504   4.662   2.857   0.122 -0.0646  0.0163  0.3749
  290TIP3    H122505   4.721   2.852   0.197  0.2957 -0.8686  0.0472
  290TIP3    H222506   4.636   2.767   0.107 -0.0929  0.1810 -0.5960
  291TIP3   OH222507   1.673   3.218   8.044  0.0068  0.1521  0.2179
  291TIP3    H122508   1.655   3.167   8.123 -1.3039 -0.1120 -0.2205
  291TIP3    H222509   1.691   3.306   8.075 -0.4755  0.0474  0.8048
  292TIP3   OH222510   6.003   6.222   0.596  0.2455  0.2109  0.0168
  292TIP3    H122511   5.945   6.194   0.667 -0.7369 -0.4017 -1.0048
  292TIP3    H222512   5.964   6.303   0.563 -0.5119 -0.6121 -1.1861
  293TIP3   OH222513   2.255   2.158   8.123 -0.3662  0.6341 -0.4442
  293TIP3    H122514   2.348   2.139   8.133 -0.2961  0.2728 -1.6271
  293TIP3    H222515   2.220   2.085   8.072 -1.2698  0.8581 -0.1824
  294TIP3   OH222516   5.550   5.696   6.377 -0.3206  0.1368  0.5853
  294TIP3    H122517   5.483   5.628   6.380 -0.2289  0.0255  0.0902
  294TIP3    H222518   5.626   5.657   6.420  0.5881 -1.0274 -1.9298
  295TIP3   OH222519   2.196   0.855   6.790 -0.2316  0.6353 -0.6662
  295TIP3    H122520   2.186   0.761   6.803 -0.6410  0.2375 -3.2102
  295TIP3    H222521   2.254   0.862   6.714  0.2955  2.4668 -0.1326
  296TIP3   OH222522   0.458   3.272   1.311 -0.3380  0.2610 -0.3609
  296TIP3    H122523   0.475   3.262   1.404 -0.9389 -1.6534 -0.4180
  296TIP3    H222524   0.386   3.212   1.293 -1.7014  2.1560 -1.6736
  297TIP3   OH222525   2.019   5.980   8.652 -0.3803  0.2816 -0.7407
  297TIP3    H122526   2.055   6.040   8.718 -0.3517 -0.2422 -0.2767
  297TIP3    H222527   2.090   5.968   8.589  0.5194 -1.2184  0.4795
  298TIP3   OH222528   1.257   4.998   0.245 -0.0949 -0.2852  0.3550
  298TIP3    H122529   1.194   4.926   0.238 -1.6421  0.8899  1.4663
  298TIP3    H222530   1.267   5.031   0.156  0.1240 -1.4311 -0.0627
  299TIP3   OH222531   2.426   0.389   8.483 -0.5981 -0.4583  0.3788
  299TIP3    H122532   2.405   0.446   8.557 -1.0437  1.8524 -1.4364
  299TIP3    H222533   2.342   0.353   8.455 -1.5791  3.5640 -2.7182
  300TIP3   OH222534   6.323   5.126   8.736  0.1631 -0.3472 -0.0665
  300TIP3    H122535   6.380   5.202   8.737 -1.6308  1.0872  1.0390
  300TIP3    H222536   6.239   5.159   8.704 -0.8709 -1.6630  1.1237
  301TIP3   OH222537   2.875   1.776   1.642  0.3057  0.0299  0.0750
  301TIP3    H122538   2.955   1.782   1.589  0.3808  0.1274  0.1971
  301TIP3    H222539   2.841   1.866   1.641  0.4839  0.1031  0.4621
  302TIP3   OH222540   5.931   0.790   7.290  0.4875 -0.1068  0.0578
  302TIP3    H122541   5.975   0.797   7.206  0.8661 -0.5995  0.2140
  302TIP3    H222542   5.871   0.865   7.292  1.9457  1.1038  0.2214
  303TIP3   OH222543   3.573   2.296   1.095 -0.2788  0.3679  0.3135
  303TIP3    H122544   3.607   2.348   1.168 -0.5611  2.0184 -0.6737
  303TIP3    H222545   3.486   2.268   1.125  0.3177 -0.5096  1.2935
  304TIP3   OH222546   5.823   4.293   6.753  0.0354  0.5715  0.3301
  304TIP3    H122547   5.788   4.292   6.664 -1.3110 -1.4271  0.8026
  304TIP3    H222548   5.901   4.237   6.749 -1.0138 -0.9731  0.7090
  305TIP3   OH222549   2.159   1.911   8.412  0.4206 -0.0560 -0.5400
  305TIP3    H122550   2.132   1.859   8.336 -0.4441 -0.2945 -0.0883
  305TIP3    H222551   2.119   1.997   8.397  1.8848  0.5173 -1.3075
  306TIP3   OH222552   1.745   3.570   7.856 -0.4577  0.2524 -0.0922
  306TIP3    H122553   1.838   3.571   7.832 -0.3983  0.7365  0.1552
  306TIP3    H222554   1.710   3.492   7.813  0.3077 -0.5745  0.7348
  307TIP3   OH222555   3.889   3.044   8.522 -0.3570  0.1452  0.2345
  307TIP3    H122556   3.846   2.966   8.486  1.3880 -0.9189  0.3084
  307TIP3    H222557   3.866   3.115   8.462 -0.7091 -0.7662 -0.7357
  308TIP3   OH222558   0.713   4.709   2.212  0.0334  0.1136  0.1634
  308TIP3    H122559   0.792   4.745   2.171  1.0255 -1.4937  0.5771
  308TIP3    H222560   0.710   4.752   2.298  0.8702 -0.3340  0.4275
  309TIP3   OH222561   3.458   5.486   2.512  0.5849  0.1592  0.1767
  309TIP3    H122562   3.364   5.505   2.503  0.2764 -0.0574  2.2831
  309TIP3    H222563   3.492   5.490   2.423 -1.5378 -0.3543 -0.7361
  310TIP3   OH222564   6.132   1.509   8.499 -0.0539  0.0144  0.0391
  310TIP3    H122565   6.118   1.558   8.418 -1.6880 -0.8454 -0.2648
  310TIP3    H222566   6.109   1.569   8.569  0.2485  0.4080 -0.1999
  311TIP3   OH222567   0.018   3.928   0.798  0.2662 -0.6313  0.2385
  311TIP3    H122568  -0.036   3.875   0.857  0.0130 -0.8343 -0.1650
  311TIP3    H222569   0.098   3.946   0.847 -0.5321  0.4260  1.1842
  312TIP3   OH222570   2.810   3.285   8.449  0.2040 -0.1307  0.0379
  312TIP3    H122571   2.885   3.335   8.418  0.6945  1.9214  3.8462
  312TIP3    H222572   2.737   3.347   8.448 -0.5830 -1.0306 -0.3208
  313TIP3   OH222573   1.873   1.875   0.321  0.2095 -0.1776  0.3564
  313TIP3    H122574   1.907   1.877   0.232  0.1039 -1.8075  0.2406
  313TIP3    H222575   1.894   1.960   0.358 -0.4121  0.8014 -1.4598
  314TIP3   OH222576   3.734   5.716   6.589 -0.0780 -0.2012  0.3337
  314TIP3    H122577   3.726   5.638   6.535  0.4035  0.7075 -1.1345
  314TIP3    H222578   3.645   5.741   6.610 -0.3215 -0.1713 -0.6836
  315TIP3   OH222579   2.615   4.106   8.025  0.1048  1.1073 -0.6054
  315TIP3    H122580   2.604   4.173   8.093  1.2235  1.0039 -0.3034
  315TIP3    H222581   2.526   4.082   8.001 -0.3295  1.0907  0.8801
  316TIP3   OH222582   6.234   2.784   0.227  0.4497 -0.2207 -0.0752
  316TIP3    H122583   6.249   2.878   0.232  0.5803 -0.1436 -1.5031
  316TIP3    H222584   6.233   2.755   0.318 -0.3246  1.2665  0.4202
  317TIP3   OH222585   6.146   0.467   8.297  0.6408  0.3334  0.1148
  317TIP3    H122586   6.232   0.435   8.268  0.0716 -1.5356  0.3176
  317TIP3    H222587   6.084   0.410   8.251 -0.4383  0.7570  1.0129
  318TIP3   OH222588   4.848   4.420   8.108  0.7521  0.2714 -0.2896
  318TIP3    H122589   4.764   4.465   8.107  0.6141  0.4266  3.5803
  318TIP3    H222590   4.825   4.327   8.104  0.5191  0.3470 -0.7637
  319TIP3   OH222591   4.288   3.753   0.394 -0.2605 -0.2172  0.4133
  319TIP3    H122592   4.290   3.825   0.456 -0.7615 -0.8286  1.1662
  319TIP3    H222593   4.248   3.681   0.442 -0.1682 -0.8725 -0.4541
  320TIP3   OH222594   4.337   6.091   6.410  0.4773 -0.3246  0.2944
  320TIP3    H122595   4.379   6.137   6.337 -1.3894 -0.3572 -0.8794
  320TIP3    H222596   4.408   6.071   6.470  1.7189  1.9794 -0.2911
  321TIP3   OH222597   3.323   4.858   0.655  0.2453  0.1166 -0.4349
  321TIP3    H122598   3.408   4.843   0.697 -0.1715  0.4958  0.5607
  321TIP3    H222599   3.283   4.771   0.650  0.1880  0.1077  0.1901
  322TIP3   OH222600   2.575   0.938   0.468 -0.1695  0.1190 -0.2003
  322TIP3    H122601   2.491   0.895   0.485 -0.5932  1.2336  0.5925
  322TIP3    H222602   2.588   0.997   0.542  0.9467  0.5354 -0.7014
  323TIP3   OH222603   1.046   2.297   0.389  0.1863 -0.0765 -0.2137
  323TIP3    H122604   1.079   2.381   0.419  1.6163 -0.5084 -0.4872
  323TIP3    H222605   1.116   2.235   0.410 -1.2079 -1.3803  0.8366
  324TIP3   OH222606   3.438   6.116   8.639  0.3282 -0.2500 -0.6380
  324TIP3    H122607   3.476   6.028   8.644 -1.1891 -0.9582 -0.7136
  324TIP3    H222608   3.346   6.100   8.615 -0.0191  1.3530 -0.4688
  325TIP3   OH222609   4.564   0.888   0.512 -0.0249 -0.0171  0.1360
  325TIP3    H122610   4.653   0.897   0.477  0.3192 -2.2654  0.2840
  325TIP3    H222611   4.557   0.795   0.535 -3.1634 -0.3766 -1.8119
  326TIP3   OH222612   6.838   1.804   7.468 -0.0135  0.1453  0.2176
  326TIP3    H122613   6.920   1.839   7.503  0.1969  0.8691 -0.9725
  326TIP3    H222614   6.802   1.875   7.415 -1.2271 -0.2994  0.4170
  327TIP3   OH222615   2.468   0.159   7.108  0.1590 -0.1745  0.1035
  327TIP3    H122616   2.512   0.074   7.111  1.1001  0.3147  0.9152
  327TIP3    H222617   2.513   0.207   7.038  0.5201  0.1037  0.5174
  328TIP3   OH222618   2.421   6.722   0.048 -0.0653 -0.7608 -0.1005
  328TIP3    H122619   2.361   6.789   0.015  0.5678  0.2605  0.7785
  328TIP3    H222620   2.468   6.692  -0.030  0.0669  0.2559 -0.4230
  329TIP3   OH222621   3.086   2.809   6.899 -0.1815  0.0170  0.3123
  329TIP3    H122622   3.115   2.802   6.808  0.6022  0.7520  0.4843
  329TIP3    H222623   3.134   2.739   6.944  0.3684  0.4278  0.3712
  330TIP3   OH222624   2.607   6.580   2.434  0.0828  0.7512 -0.2259
  330TIP3    H122625   2.578   6.671   2.441 -0.5445  0.5796 -0.4960
  330TIP3    H222626   2.536   6.530   2.475 -0.3070  0.2733 -1.4557
  331TIP3   OH222627   5.589   6.216   7.271  0.4634 -0.1638  0.0455
  331TIP3    H122628   5.669   6.251   7.310  0.7624  0.2881 -0.9607
  331TIP3    H222629   5.534   6.193   7.346  0.9707  0.8102  0.7334
  332TIP3   OH222630   0.857   4.013   8.704  0.2707 -0.3356  0.1544
  332TIP3    H122631   0.769   3.984   8.731  1.0487 -0.9856  2.1672
  332TIP3    H222632   0.904   3.932   8.685  0.5095  0.0083 -0.8073
  333TIP3   OH222633   1.406   1.822   2.247  0.1658 -0.2048  0.8815
  333TIP3    H122634   1.455   1.836   2.166 -2.4869 -0.0503 -0.8273
  333TIP3    H222635   1.400   1.908   2.287  1.1343 -0.2048  1.0506
  334TIP3   OH222636   6.046   0.739   7.989  0.3491  0.5462  0.7627
  334TIP3    H122637   6.105   0.663   7.986  0.7623  0.8819  0.2167
  334TIP3    H222638   6.039   0.760   8.082  0.9492  0.3922  0.8449
  335TIP3   OH222639   3.411   3.843   1.069  0.5717 -0.1674 -0.2559
  335TIP3    H122640   3.335   3.902   1.060  1.5140  1.7336  2.6617
  335TIP3    H222641   3.379   3.772   1.125  0.7100  0.2323  0.3418
  336TIP3   OH222642   2.247   5.207   0.166 -0.0013  0.3175  0.2718
  336TIP3    H122643   2.291   5.122   0.169  0.6282  0.6616  1.0416
  336TIP3    H222644   2.298   5.259   0.104  0.6565  0.6891  1.1020
  337TIP3   OH222645   3.345   2.948   7.454  0.1904 -0.8393 -0.0212
  337TIP3    H122646   3.437   2.932   7.475  0.1506 -0.8394  0.1539
  337TIP3    H222647   3.308   2.861   7.440 -0.0251 -0.9068  0.9311
  338TIP3   OH222648   6.088   6.173   2.622  0.1465 -0.4746  0.7311
  338TIP3    H122649   6.183   6.161   2.628  0.2106  0.3359  1.4470
  338TIP3    H222650   6.077   6.253   2.570 -0.1120  0.0722  1.6126
  339TIP3   OH222651   1.210   3.911   0.069 -0.6907 -0.7172 -0.1661
  339TIP3    H122652   1.202   3.880  -0.021 -1.1182  0.2548 -0.4777
  339TIP3    H222653   1.287   3.969   0.068 -0.5241 -0.9291  0.1611
  340TIP3   OH222654   2.071   3.077   7.915  0.4008  0.2490 -0.0407
  340TIP3    H122655   2.048   3.023   7.839 -1.6866  0.6749  0.2356
  340TIP3    H222656   2.090   3.163   7.879  2.6238 -0.3150 -0.3631
  341TIP3   OH222657   2.904   2.412   0.367 -0.1441  0.3193  0.7059
  341TIP3    H122658   2.890   2.343   0.433 -0.8112  1.2130  1.5359
  341TIP3    H222659   2.820   2.417   0.320 -0.2636  0.8842  0.9714
  342TIP3   OH222660   4.862   2.034   8.251  0.3242 -0.2674  0.0071
  342TIP3    H122661   4.896   2.087   8.179 -0.0980 -0.1257 -0.0931
  342TIP3    H222662   4.924   2.048   8.323 -0.9032  2.0986  0.7073
  343TIP3   OH222663   1.681   0.809   0.111 -0.4190 -0.2742 -0.1840
  343TIP3    H122664   1.749   0.875   0.098  0.3229 -1.1413 -0.8304
  343TIP3    H222665   1.616   0.828   0.044 -1.4157  1.2524  1.1421
  344TIP3   OH222666   3.867   5.693   6.835  0.1562 -0.6377  0.3124
  344TIP3    H122667   3.842   5.782   6.860  3.2240  0.7386 -1.0908
  344TIP3    H222668   3.833   5.683   6.746  2.0116  0.2103 -0.5458
  345TIP3   OH222669   6.594   1.249   8.066 -0.6258  0.9180  0.2748
  345TIP3    H122670   6.628   1.337   8.053 -0.5788  0.8528 -0.0420
  345TIP3    H222671   6.504   1.252   8.034 -0.3463  0.6252 -0.5501
  346TIP3   OH222672   5.857   2.113   0.566 -0.1822  0.5521  0.1478
  346TIP3    H122673   5.859   2.022   0.595  0.7138 -0.6261 -3.1463
  346TIP3    H222674   5.925   2.156   0.618  0.7296 -1.1547  0.4435
  347TIP3   OH222675   1.259   6.644   1.633  0.0625  0.0664 -0.1051
  347TIP3    H122676   1.285   6.731   1.662  0.4921  0.6350 -2.0799
  347TIP3    H222677   1.181   6.658   1.580 -0.3112 -0.8627  0.1656
  348TIP3   OH222678   2.371   3.181   1.834  0.0671  0.0309 -0.0207
  348TIP3    H122679   2.393   3.215   1.920  0.2271 -0.6016  0.1930
  348TIP3    H222680   2.341   3.257   1.785 -1.4038  0.1600  1.0318
  349TIP3   OH222681   0.935   1.832   6.897  0.0307  0.3558 -0.4704
  349TIP3    H122682   0.972   1.850   6.984 -0.4631  1.4549 -0.4679
  349TIP3    H222683   0.928   1.737   6.893  1.2776  0.2089  0.1796
  350TIP3   OH222684   1.336   3.541   8.690 -0.0732  0.1783 -0.2001
  350TIP3    H122685   1.276   3.480   8.647 -1.1104  0.1701  1.2199
  350TIP3    H222686   1.304   3.548   8.780  0.5092  2.2015 -0.1011
  351TIP3   OH222687   4.494   2.040   1.346  0.0911  0.0185 -1.3584
  351TIP3    H122688   4.491   2.053   1.440  1.7611 -0.2672 -1.2385
  351TIP3    H222689   4.474   1.947   1.334 -1.7421  0.3788 -1.4503
  352TIP3   OH222690   1.791   1.591   0.363  0.0511  0.1085 -0.0099
  352TIP3    H122691   1.709   1.613   0.407 -0.3508  0.0421 -0.7096
  352TIP3    H222692   1.794   1.650   0.288  0.5524 -0.0206 -0.0913
  353TIP3   OH222693   2.000   5.054   0.211 -0.1583  0.3357  0.1479
  353TIP3    H122694   1.987   5.022   0.121  1.6920  0.6428 -0.2805
  353TIP3    H222695   1.996   5.150   0.203  0.2031  0.3703  0.3521
  354TIP3   OH222696   5.869   0.984   8.090  0.0118 -0.2703 -0.6000
  354TIP3    H122697   5.910   0.899   8.074 -0.9977 -0.6795 -1.1289
  354TIP3    H222698   5.907   1.014   8.173  0.5802 -1.1130 -0.5417
  355TIP3   OH222699   3.575   6.013   0.537  0.2747  0.2114  0.2528
  355TIP3    H122700   3.502   5.979   0.591  1.1205 -1.1328  0.6119
  355TIP3    H222701   3.580   5.952   0.463 -0.1040  1.3522 -0.7295
  356TIP3   OH222702   3.348   6.369   0.610  0.0507 -0.3715 -0.3427
  356TIP3    H122703   3.343   6.464   0.618  0.9010  0.0007 -3.0638
  356TIP3    H222704   3.284   6.348   0.541  1.4127 -1.4612 -1.3357
  357TIP3   OH222705   1.009   4.152   7.213  0.5039  0.1265  0.3269
  357TIP3    H122706   1.034   4.116   7.298  1.3510  5.7973  2.9859
  357TIP3    H222707   1.086   4.140   7.157  0.2208 -2.9917  0.4452
  358TIP3   OH222708   0.027   6.668   1.950  0.5159  0.0451 -0.0843
  358TIP3    H122709  -0.009   6.662   1.861 -1.7605 -0.5616  0.8068
  358TIP3    H222710   0.091   6.597   1.955 -0.3247 -0.7889 -0.8209
  359TIP3   OH222711   4.507   6.253   0.576  0.3856 -0.3815  0.3254
  359TIP3    H122712   4.589   6.275   0.534 -0.7691  2.6113 -0.6477
  359TIP3    H222713   4.443   6.251   0.505 -0.7002 -0.7089  1.2778
  360TIP3   OH222714   0.884   5.232   1.486 -0.2013 -0.0244 -0.3566
  360TIP3    H122715   0.925   5.299   1.431 -0.6493 -0.2915 -1.0292
  360TIP3    H222716   0.801   5.212   1.442 -1.1964  0.7095  1.1385
  361TIP3   OH222717   0.148   3.179   0.052  0.3853 -0.0674 -0.0916
  361TIP3    H122718   0.128   3.098   0.004 -1.0783  0.3473 -0.2139
  361TIP3    H222719   0.239   3.198   0.028  0.4004 -1.0772 -0.9403
  362TIP3   OH222720   2.555   6.757   1.530  0.4310  0.1756 -0.2439
  362TIP3    H122721   2.469   6.740   1.568  0.5019  0.6880  0.1628
  362TIP3    H222722   2.578   6.676   1.484  0.1075 -0.2722  0.3629
  363TIP3   OH222723   6.375   0.106   8.439  0.0627 -0.1206 -0.6203
  363TIP3    H122724   6.383   0.117   8.344  1.8010  0.2340 -0.4615
  363TIP3    H222725   6.359   0.194   8.473 -1.5788 -0.3756 -0.6281
  364TIP3   OH222726   3.941   0.459   1.973  0.5125  0.1746  0.3794
  364TIP3    H122727   3.941   0.413   2.057  0.9326 -0.1698  0.1899
  364TIP3    H222728   3.964   0.549   1.996  1.0770 -0.0158  0.5814
  365TIP3   OH222729   1.685   2.697   0.058  0.5292 -1.0404 -0.3645
  365TIP3    H122730   1.664   2.604   0.051 -1.6142 -0.7550  1.2406
  365TIP3    H222731   1.739   2.703   0.137 -0.5846 -0.7847  0.3983
  366TIP3   OH222732   1.719   6.280   2.450  0.0945 -0.9970 -0.0264
  366TIP3    H122733   1.782   6.298   2.381  2.8642 -0.2909  2.4614
  366TIP3    H222734   1.696   6.366   2.485  0.0562 -1.3957  0.9670
  367TIP3   OH222735   4.426   0.462   2.331 -0.2372 -0.0759 -0.5473
  367TIP3    H122736   4.333   0.443   2.341  0.4753 -3.6628  0.8318
  367TIP3    H222737   4.449   0.427   2.245  0.2606 -1.7263  0.2098
  368TIP3   OH222738   3.101   3.056   7.527 -0.7850  0.3270 -0.7828
  368TIP3    H122739   3.195   3.044   7.514 -0.3824  0.1193  1.7623
  368TIP3    H222740   3.071   3.102   7.448  1.3638  0.0512 -1.8155
  369TIP3   OH222741   4.079   4.609   2.711  0.5772 -0.1639 -0.5992
  369TIP3    H122742   4.112   4.695   2.738  0.1195 -0.0347 -0.4274
  369TIP3    H222743   4.156   4.561   2.681  1.1600 -0.3876  1.1481
  370TIP3   OH222744   2.509   4.032   7.528  0.3077  0.1938 -0.0695
  370TIP3    H122745   2.539   4.121   7.548  1.4124  0.3319 -2.0195
  370TIP3    H222746   2.414   4.035   7.543  0.6176  1.0376  2.0039
  371TIP3   OH222747   6.008   1.947   0.079  0.5677  0.1830  1.4458
  371TIP3    H122748   6.090   1.934   0.125  0.5153  1.1745  1.8311
  371TIP3    H222749   5.949   1.985   0.144  0.0906  0.3569  0.9242
  372TIP3   OH222750   2.100   1.704   0.991  0.0717 -0.4138  0.7146
  372TIP3    H122751   2.015   1.683   0.951  0.1735  0.3419  0.0636
  372TIP3    H222752   2.086   1.788   1.033  0.4754 -0.3225  0.6676
  373TIP3   OH222753   5.354   3.958   0.164 -0.2780  0.3144 -0.4801
  373TIP3    H122754   5.354   3.876   0.114  1.0933 -0.6761  1.0469
  373TIP3    H222755   5.287   4.012   0.121 -1.3601 -1.6578 -1.4261
  374TIP3   OH222756   5.923   6.661   0.588 -0.3804 -0.0548 -0.4694
  374TIP3    H122757   5.950   6.650   0.496 -0.7810 -3.7353 -0.2978
  374TIP3    H222758   5.867   6.585   0.605 -0.9217  0.9324  2.6485
  375TIP3   OH222759   1.019   1.188   8.577  0.1891 -0.1015 -0.0965
  375TIP3    H122760   0.968   1.161   8.501  1.9129 -1.8881 -0.7125
  375TIP3    H222761   1.022   1.111   8.633  2.8288 -0.3953 -0.4978
  376TIP3   OH222762   5.080   3.769   7.951 -0.3354 -0.6232 -0.3150
  376TIP3    H122763   5.006   3.742   8.004 -0.2869 -1.1017 -0.4843
  376TIP3    H222764   5.157   3.739   7.999 -0.1100  1.9550  1.0672
  377TIP3   OH222765   0.981   4.227   8.509  0.1118  0.0706  0.4937
  377TIP3    H122766   0.916   4.174   8.464 -0.6123  1.2424  0.1184
  377TIP3    H222767   0.993   4.183   8.594  0.8881 -1.6836 -0.4611
  378TIP3   OH222768   6.819   3.444   2.695 -0.1377  0.7892 -0.0980
  378TIP3    H122769   6.838   3.537   2.683  1.6624  0.5465  0.4637
  378TIP3    H222770   6.870   3.400   2.626 -0.2715  0.1826  0.1802
  379TIP3   OH222771   2.061   4.784   7.490  0.1700 -0.1269 -0.5480
  379TIP3    H122772   2.005   4.849   7.448  0.1177  0.6560  0.6775
  379TIP3    H222773   2.079   4.820   7.577  1.4234 -1.0262 -0.4028
  380TIP3   OH222774   5.768   6.517   6.718  0.2837 -0.2554 -0.6422
  380TIP3    H122775   5.690   6.471   6.748 -0.7924  1.2411 -1.0280
  380TIP3    H222776   5.841   6.462   6.747 -0.8736 -1.3017  0.4113
  381TIP3   OH222777   4.797   2.477   1.864  0.5181 -0.3853 -0.4822
  381TIP3    H122778   4.792   2.476   1.769 -1.9785  0.7417 -0.4304
  381TIP3    H222779   4.719   2.430   1.894  0.9629 -0.2514  1.0115
  382TIP3   OH222780   0.064   0.025   7.232  0.4864  0.0724  0.3173
  382TIP3    H122781   0.032   0.108   7.269  0.4087  0.2665 -0.1738
  382TIP3    H222782   0.133   0.051   7.172  2.3134 -0.4126  2.1189
  383TIP3   OH222783   3.838   0.633   6.393 -0.5003 -0.6519 -0.0231
  383TIP3    H122784   3.799   0.677   6.468 -3.0989 -1.5460 -0.7601
  383TIP3    H222785   3.873   0.703   6.339  0.5328  0.0598  1.4905
  384TIP3   OH222786   4.089   4.605   1.424 -0.0140 -0.3449  0.8325
  384TIP3    H122787   4.080   4.512   1.446 -1.7553 -0.4681 -0.2445
  384TIP3    H222788   4.132   4.605   1.338 -0.2613 -0.1592  0.7108
  385TIP3   OH222789   1.469   4.365   7.305  1.1265 -0.2290  0.3162
  385TIP3    H122790   1.479   4.447   7.257 -2.0079 -0.1858 -0.4897
  385TIP3    H222791   1.480   4.297   7.238  1.2487 -0.3529  0.4623
  386TIP3   OH222792   0.521   4.726   1.132 -0.3372  0.6171 -0.3510
  386TIP3    H122793   0.612   4.712   1.104  0.0617  1.0804  0.6227
  386TIP3    H222794   0.487   4.639   1.150  0.0713  0.4673 -0.3002
  387TIP3   OH222795   4.483   5.205   7.625  0.5182 -0.1286  0.1435
  387TIP3    H122796   4.500   5.173   7.537  0.1299  0.9192 -0.3298
  387TIP3    H222797   4.388   5.217   7.629  0.6128  0.5991  0.4188
  388TIP3   OH222798   0.414   0.665   1.407 -1.1472 -0.0654 -0.6102
  388TIP3    H122799   0.470   0.618   1.346 -0.7638  0.4980 -0.6995
  388TIP3    H222800   0.442   0.756   1.400  0.8411 -0.3123  2.4307
  389TIP3   OH222801   0.888   5.172   7.437  0.1900 -0.1449  0.3812
  389TIP3    H122802   0.924   5.176   7.526  0.1326  0.2595  0.3896
  389TIP3    H222803   0.823   5.102   7.440  0.3968 -0.3295  0.5808
  390TIP3   OH222804   6.142   2.715   7.374 -0.8666  0.1804 -0.4602
  390TIP3    H122805   6.122   2.625   7.348 -1.6353 -0.0279  0.7810
  390TIP3    H222806   6.107   2.723   7.463  2.1781  0.6512  0.8135
  391TIP3   OH222807   3.006   6.570   6.758 -0.0935  0.0420 -0.3285
  391TIP3    H122808   3.006   6.635   6.688  0.8193  0.7161  0.2726
  391TIP3    H222809   2.914   6.546   6.769 -0.2489 -0.1172 -1.7811
  392TIP3   OH222810   6.718   0.116   0.461 -0.0976  0.3929  0.1530
  392TIP3    H122811   6.784   0.174   0.498  1.1340 -1.0693  0.3563
  392TIP3    H222812   6.649   0.112   0.527 -0.5040  2.0440 -0.1245
  393TIP3   OH222813   1.815   1.325   0.395  0.0023  0.1124  0.0348
  393TIP3    H122814   1.858   1.288   0.472 -2.1241 -2.2389  0.2399
  393TIP3    H222815   1.800   1.417   0.416  0.7203 -0.1607  1.8525
  394TIP3   OH222816   0.885   1.903   7.940  0.2887  0.0856  0.2953
  394TIP3    H122817   0.852   1.991   7.959 -3.2182 -0.6408 -1.4432
  394TIP3    H222818   0.842   1.847   8.004 -1.6518 -0.8380 -1.6677
  395TIP3   OH222819   5.211   3.270   0.943 -0.2969 -0.5683 -0.3124
  395TIP3    H122820   5.287   3.296   0.996  0.7430  4.6323 -3.5561
  395TIP3    H222821   5.140   3.262   1.005  1.8865 -0.4972  2.3955
  396TIP3   OH222822   4.765   1.510   8.464  0.1288  0.0014  0.2400
  396TIP3    H122823   4.839   1.533   8.520 -0.2489 -0.4987  0.9559
  396TIP3    H222824   4.750   1.588   8.410  0.7452  0.3433  0.5546
  397TIP3   OH222825   1.307   5.450   0.160  0.2204 -0.3638 -0.3176
  397TIP3    H122826   1.263   5.527   0.126  1.4875  0.3265 -0.4700
  397TIP3    H222827   1.398   5.460   0.133  0.6590 -1.3148  0.6845
  398TIP3   OH222828   0.672   4.040   2.297 -0.3880  0.3355  0.2225
  398TIP3    H122829   0.587   4.081   2.281 -0.3362  0.3265 -0.0747
  398TIP3    H222830   0.655   3.946   2.293 -0.3171  0.3361 -0.0725
  399TIP3   OH222831   3.907   0.028   1.657  0.2455  0.2483  0.1669
  399TIP3    H122832   3.961   0.053   1.582  0.1917  0.4819  0.2051
  399TIP3    H222833   3.896   0.109   1.707  1.6615 -0.2084  1.3048
  400TIP3   OH222834   4.319   2.426   0.103  0.0076  0.1161  0.1812
  400TIP3    H122835   4.397   2.371   0.118  0.5895  0.6878 -0.6581
  400TIP3    H222836   4.355   2.511   0.079 -0.8957  0.7915  1.2194
  401TIP3   OH222837   1.112   3.304   1.709  0.2167 -0.1867  0.1659
  401TIP3    H122838   1.192   3.326   1.662  1.2467 -0.7936  1.5681
  401TIP3    H222839   1.128   3.332   1.799 -1.4496  0.3550  0.3326
  402TIP3   OH222840   0.446   6.264   7.506 -0.1659 -0.0046  0.3072
  402TIP3    H122841   0.475   6.173   7.511  0.3095  0.1335  0.0695
  402TIP3    H222842   0.351   6.257   7.490 -0.3748 -0.4475  1.6377
  403TIP3   OH222843   3.162   2.414   7.709  0.3856  0.8309  0.3384
  403TIP3    H122844   3.195   2.501   7.731  1.0483  0.7759 -0.4106
  403TIP3    H222845   3.077   2.409   7.753  0.5341  1.6903  0.7400
  404TIP3   OH222846   2.987   5.484   8.674  0.2527  0.2189  0.7388
  404TIP3    H122847   2.938   5.449   8.599  1.2100  0.4639 -0.0085
  404TIP3    H222848   2.961   5.427   8.747 -0.5095 -0.1736  0.1792
  405TIP3   OH222849   6.688   4.233   8.351 -0.1684 -0.7548  0.3914
  405TIP3    H122850   6.671   4.323   8.376 -0.3648 -0.5026 -0.5973
  405TIP3    H222851   6.602   4.191   8.351 -0.4543 -0.2682 -1.6210
  406TIP3   OH222852   4.569   4.982   7.085  0.3484 -0.6411  0.4982
  406TIP3    H122853   4.555   4.888   7.097 -0.1953 -0.5705  0.4458
  406TIP3    H222854   4.661   4.989   7.061  0.2497 -1.2250 -0.1074
  407TIP3   OH222855   0.011   2.057   0.343 -0.2333  0.3891 -0.0476
  407TIP3    H122856   0.084   1.998   0.361  0.0059  1.0481  1.2904
  407TIP3    H222857   0.042   2.143   0.372 -1.4061  0.7461  0.2071
  408TIP3   OH222858   2.638   3.874   8.209  0.9113  0.1522 -0.2544
  408TIP3    H122859   2.580   3.817   8.158  0.8630  0.0067 -0.0385
  408TIP3    H222860   2.620   3.962   8.176  0.4016  0.1340 -0.0381
  409TIP3   OH222861   2.551   1.698   0.248  0.0244 -0.7896  0.0287
  409TIP3    H122862   2.465   1.738   0.238  0.3176 -0.5167 -1.6849
  409TIP3    H222863   2.610   1.772   0.266 -0.4308 -1.2105  4.4968
  410TIP3   OH222864   6.641   6.830   0.249  0.1999 -0.0105  0.3389
  410TIP3    H122865   6.682   6.878   0.177 -1.6713  0.4078 -0.5187
  410TIP3    H222866   6.657   6.884   0.326 -0.9529  1.5341 -0.4342
  411TIP3   OH222867   0.007   2.681   6.379  0.1135  0.1711  0.0422
  411TIP3    H122868  -0.027   2.752   6.325 -1.3540 -0.4394  0.1214
  411TIP3    H222869  -0.059   2.668   6.446  0.4184 -1.1950  0.1025
  412TIP3   OH222870   3.699   1.062   2.226 -0.1743  0.0584 -0.1589
  412TIP3    H122871   3.695   1.009   2.305 -0.8400  0.2679 -0.0536
  412TIP3    H222872   3.630   1.128   2.236 -1.2231 -0.7779 -1.5357
  413TIP3   OH222873   5.370   3.426   6.440 -0.3100 -0.3813  0.5242
  413TIP3    H122874   5.411   3.506   6.409  0.9008 -0.2394  2.3695
  413TIP3    H222875   5.280   3.452   6.462  0.2320  0.6173  1.6245
  414TIP3   OH222876   4.357   1.421   0.531  0.0308  0.4937 -0.0083
  414TIP3    H122877   4.304   1.355   0.487 -1.0198  1.4113 -0.1400
  414TIP3    H222878   4.294   1.474   0.579  0.8604  1.4207  0.0746
  415TIP3   OH222879   3.337   0.077   0.785 -0.3976 -0.1531  0.3572
  415TIP3    H122880   3.246   0.049   0.786 -0.4731  0.0968  0.5110
  415TIP3    H222881   3.338   0.160   0.833  0.1347 -0.8422  1.6076
  416TIP3   OH222882   5.984   4.604   0.104  0.2210  0.2557  0.3576
  416TIP3    H122883   5.927   4.587   0.180 -0.2850 -2.6524 -0.5645
  416TIP3    H222884   6.071   4.577   0.133 -0.3624 -3.2726 -0.6849
  417TIP3   OH222885   0.310   2.363   0.430  0.3863 -0.2041  0.5620
  417TIP3    H122886   0.353   2.280   0.411 -0.2843  0.0496 -2.5761
  417TIP3    H222887   0.382   2.426   0.438  0.8042 -0.2111 -2.2562
  418TIP3   OH222888   4.118   0.970   7.115  0.1094 -0.0458  0.0256
  418TIP3    H122889   4.114   0.907   7.187 -0.7246 -0.4932 -0.3952
  418TIP3    H222890   4.070   1.046   7.147  2.7875  1.2457  1.3091
  419TIP3   OH222891   1.599   5.392   7.005  0.5792 -0.4490  0.1769
  419TIP3    H122892   1.575   5.309   6.964 -0.4808 -0.2182  0.3032
  419TIP3    H222893   1.610   5.452   6.931 -0.6660 -0.2047  0.1639
  420TIP3   OH222894   5.528   5.963   8.712  0.3109 -0.1523 -0.4233
  420TIP3    H122895   5.476   5.922   8.782 -0.0971 -1.5083 -1.4767
  420TIP3    H222896   5.467   5.971   8.639  1.3960 -1.2344 -1.4966
  421TIP3   OH222897   5.625   2.321   1.087  0.3904 -0.0177 -0.2045
  421TIP3    H122898   5.572   2.289   1.160 -0.6141  1.1341 -0.4103
  421TIP3    H222899   5.584   2.282   1.010 -0.8699  1.7006 -0.4620
  422TIP3   OH222900   1.357   0.234   2.168  0.0652 -0.3777 -0.5009
  422TIP3    H122901   1.336   0.321   2.133 -0.1392  0.1941  0.9503
  422TIP3    H222902   1.280   0.211   2.221 -0.2388 -1.8321 -1.5417
  423TIP3   OH222903   5.998   2.353   6.622  0.0379  0.0335  0.0645
  423TIP3    H122904   5.948   2.285   6.577 -0.7255  0.3364  0.4360
  423TIP3    H222905   5.956   2.435   6.597  1.6236  0.4894 -1.2477
  424TIP3   OH222906   5.228   2.619   0.629 -0.3109 -0.1080 -0.1418
  424TIP3    H122907   5.148   2.623   0.683  0.1627 -1.4596  0.7225
  424TIP3    H222908   5.296   2.654   0.686 -0.0858  0.0039 -0.4787
  425TIP3   OH222909   5.097   4.003   7.516 -0.5905 -0.0982  0.0802
  425TIP3    H122910   5.061   3.988   7.428  1.1569  2.0074 -1.1104
  425TIP3    H222911   5.129   3.916   7.543  0.9348 -0.4569 -2.4408
  426TIP3   OH222912   1.413   4.340   1.823 -0.2355  0.0659  1.0938
  426TIP3    H122913   1.327   4.346   1.865  0.1508 -0.9020  2.0521
  426TIP3    H222914   1.459   4.271   1.870  1.3958  1.1442  1.1695
  427TIP3   OH222915   2.148   6.219   7.441 -0.8995 -0.1126 -0.5603
  427TIP3    H122916   2.063   6.214   7.484  0.1104  2.9996  2.3008
  427TIP3    H222917   2.131   6.263   7.358 -2.2193 -1.0659 -0.8275
  428TIP3   OH222918   0.081   5.998   7.930  0.3088  0.0812 -0.0971
  428TIP3    H122919   0.017   6.019   7.861  1.0590 -0.8246 -1.1101
  428TIP3    H222920   0.104   5.906   7.914 -0.0646 -0.3971  1.8578
  429TIP3   OH222921   1.286   3.985   8.473  0.2497 -0.4727  0.2501
  429TIP3    H122922   1.324   3.921   8.533  0.3748 -0.7539 -0.1223
  429TIP3    H222923   1.212   3.940   8.433  0.5565 -0.5211 -0.2825
  430TIP3   OH222924   0.527   3.025   7.519  0.1624  0.1120  0.6033
  430TIP3    H122925   0.523   2.946   7.465  1.7424 -0.7217  1.6283
  430TIP3    H222926   0.528   3.097   7.456  0.5272 -0.7623 -0.4214
  431TIP3   OH222927   2.321   5.943   8.660  0.3343  0.0596 -0.1569
  431TIP3    H122928   2.320   5.934   8.755  0.8136 -0.2479 -0.1719
  431TIP3    H222929   2.363   6.027   8.644 -2.6169  1.6614 -0.0447
  432TIP3   OH222930   1.834   3.459   7.285 -0.4909 -0.2897 -0.2451
  432TIP3    H122931   1.905   3.398   7.304 -0.0972 -0.0293 -0.8585
  432TIP3    H222932   1.758   3.404   7.266  0.0348 -0.6110 -1.4866
  433TIP3   OH222933   3.547   4.201   7.954  1.0096  0.0319 -0.3282
  433TIP3    H122934   3.515   4.111   7.945  2.0565 -0.6957  2.2721
  433TIP3    H222935   3.642   4.194   7.949  1.1081  1.0151 -0.1032
  434TIP3   OH222936   5.888   0.984   1.451 -0.4036 -0.6411  0.3659
  434TIP3    H122937   5.983   0.986   1.457 -0.3740 -2.0234  0.7034
  434TIP3    H222938   5.869   0.981   1.358 -0.2319  2.0367  0.1712
  435TIP3   OH222939   6.803   6.490   8.162  0.1396  0.4118  0.2745
  435TIP3    H122940   6.726   6.541   8.138  1.5644  1.5583 -2.2478
  435TIP3    H222941   6.774   6.436   8.235 -2.2171  2.8697  1.3282
  436TIP3   OH222942   1.401   1.261   0.989  0.0492  0.1856  0.3127
  436TIP3    H122943   1.440   1.231   1.071 -2.3714 -1.7327  0.8733
  436TIP3    H222944   1.357   1.342   1.012  1.4546  1.0034  0.2573
  437TIP3   OH222945   4.287   6.195   0.946  0.2443 -0.1474  0.1576
  437TIP3    H122946   4.218   6.247   0.905 -0.2330 -1.4848 -0.8405
  437TIP3    H222947   4.306   6.240   1.028  0.2318  1.8560 -0.8669
  438TIP3   OH222948   3.023   6.504   1.594 -0.3804 -0.1617 -0.5187
  438TIP3    H122949   2.972   6.498   1.513 -0.4315  0.5109 -0.5427
  438TIP3    H222950   3.047   6.414   1.614  0.6832 -0.2263 -1.9544
  439TIP3   OH222951   6.741   5.919   7.446  1.3928  0.3312 -0.0042
  439TIP3    H122952   6.779   5.881   7.367  1.2749 -0.1028  0.1462
  439TIP3    H222953   6.735   6.013   7.427 -0.1016  0.0588 -1.1481
  440TIP3   OH222954   2.217   6.298   8.176 -0.1088 -0.1463  0.6778
  440TIP3    H122955   2.274   6.332   8.106 -1.7391  1.6209  0.1340
  440TIP3    H222956   2.165   6.230   8.133 -0.4989  0.3358  0.3766
  441TIP3   OH222957   4.246   1.126   1.037 -0.7822  0.1523  0.1341
  441TIP3    H122958   4.297   1.115   0.957 -1.1678  1.5385 -0.3278
  441TIP3    H222959   4.171   1.178   1.010 -1.5905 -0.4508  1.1489
  442TIP3   OH222960   2.724   3.037   8.599  0.0122  0.3585 -0.2283
  442TIP3    H122961   2.739   3.106   8.534  0.2551  1.7042  1.1995
  442TIP3    H222962   2.731   3.082   8.684 -0.9118 -1.2151  0.7289
  443TIP3   OH222963   1.724   0.561   1.452  0.0256  0.2475 -0.1767
  443TIP3    H122964   1.784   0.560   1.378  2.7234  1.1177  1.8605
  443TIP3    H222965   1.703   0.654   1.465 -1.7492 -0.0236 -0.7607
  444TIP3   OH222966   4.697   3.752   7.784 -0.5109  0.0880 -0.4879
  444TIP3    H122967   4.773   3.702   7.813 -0.8675 -0.4702 -0.5151
  444TIP3    H222968   4.628   3.728   7.845 -0.5277  1.0196 -0.1225
  445TIP3   OH222969   2.205   6.247   7.737 -0.0905  0.5756 -0.0840
  445TIP3    H122970   2.114   6.272   7.752  0.0301  1.6197 -0.9921
  445TIP3    H222971   2.211   6.235   7.642  0.8822  1.2331 -0.1218
  446TIP3   OH222972   1.749   2.253   8.080  0.1040  0.5225  0.4111
  446TIP3    H122973   1.816   2.239   8.013 -1.3842  1.2367 -1.3214
  446TIP3    H222974   1.712   2.166   8.097 -2.2558  0.7063 -2.8243
  447TIP3   OH222975   0.237   2.083   7.963  0.4318  0.8142 -0.2606
  447TIP3    H122976   0.183   2.064   7.886 -1.3174 -1.1884  1.3237
  447TIP3    H222977   0.303   2.145   7.932 -0.7754  0.8154 -3.1098
  448TIP3   OH222978   6.719   0.368   0.187 -0.5675  0.1815 -0.0503
  448TIP3    H122979   6.658   0.400   0.120  0.1627  1.2566 -0.2236
  448TIP3    H222980   6.759   0.291   0.148 -2.9366 -1.5386  0.6833
  449TIP3   OH222981   5.711   5.117   8.568 -0.3700  0.2253  0.3187
  449TIP3    H122982   5.662   5.199   8.561 -0.3074  0.3109  0.8500
  449TIP3    H222983   5.793   5.133   8.521 -1.1036 -0.1414 -1.1907
  450TIP3   OH222984   4.896   2.339   1.627  0.0355 -0.1824  0.4612
  450TIP3    H122985   4.942   2.345   1.543 -1.1980  0.4866 -0.1985
  450TIP3    H222986   4.957   2.293   1.685  1.8162  1.2767 -0.1530
  451TIP3   OH222987   4.399   3.341   0.283  0.5289  0.1433 -0.1274
  451TIP3    H122988   4.472   3.393   0.249  0.6880 -0.5376 -0.8510
  451TIP3    H222989   4.437   3.290   0.354  0.9799 -0.8261 -1.0338
  452TIP3   OH222990   3.205   5.021   8.759 -0.0156 -0.4063  0.3235
  452TIP3    H122991   3.296   4.992   8.771  0.3571 -0.3892 -2.0460
  452TIP3    H222992   3.212   5.106   8.715 -1.1918  1.1800  2.9423
  453TIP3   OH222993   3.130   4.728   1.589 -0.1212 -0.4521 -0.2253
  453TIP3    H122994   3.188   4.722   1.513 -1.1850  0.6809 -1.1533
  453TIP3    H222995   3.190   4.725   1.665  1.0856  0.0981 -1.1265
  454TIP3   OH222996   5.382   1.792   8.519 -0.4294 -0.6933 -0.3462
  454TIP3    H122997   5.433   1.751   8.589 -0.2241 -0.1956 -0.2000
  454TIP3    H222998   5.292   1.788   8.550 -0.2853 -0.0239  0.1823
  455TIP3   OH222999   1.113   1.907   1.494  0.3309  0.3701 -0.2972
  455TIP3    H123000   1.146   1.883   1.581  0.2714  0.5281 -0.2303
  455TIP3    H223001   1.032   1.955   1.512 -0.0323 -0.1762 -0.4671
  456TIP3   OH223002   0.701   4.631   0.445 -0.1114  0.3521  0.1169
  456TIP3    H123003   0.696   4.610   0.539  1.2285 -2.0565 -0.2621
  456TIP3    H223004   0.794   4.626   0.424 -0.5587 -1.3502 -1.7306
  457TIP3   OH223005   5.789   1.278   7.575 -0.0884 -0.6027  0.1719
  457TIP3    H123006   5.745   1.292   7.659 -0.4262 -0.9998  0.0624
  457TIP3    H223007   5.738   1.209   7.532  0.2291 -0.5759 -0.2537
  458TIP3   OH223008   2.039   3.139   0.658 -0.1690 -0.3435  0.1263
  458TIP3    H123009   1.981   3.182   0.721 -1.2951 -0.0753 -1.0560
  458TIP3    H223010   2.093   3.081   0.712  1.2215  2.2443  1.7465
  459TIP3   OH223011   1.840   1.112   1.582 -0.0683 -0.0267  0.5657
  459TIP3    H123012   1.908   1.141   1.521 -0.3830  0.6285  0.5158
  459TIP3    H223013   1.887   1.090   1.662  0.2278  0.2451  0.4707
  460TIP3   OH223014   4.082   2.723   0.051  0.1645  0.4434  0.1865
  460TIP3    H123015   4.103   2.801   0.000  0.2884  0.2462 -0.0701
  460TIP3    H223016   4.066   2.655  -0.015  1.5272 -0.1329  0.4087
  461TIP3   OH223017   2.181   0.288   2.592  0.2748 -0.0668  0.2774
  461TIP3    H123018   2.093   0.280   2.556  0.2752  1.1584 -0.0473
  461TIP3    H223019   2.170   0.276   2.686 -0.4436  1.2714  0.3811
  462TIP3   OH223020   1.946   0.079   1.810  0.1757  0.3505  0.0745
  462TIP3    H123021   1.873   0.119   1.857 -1.6480 -0.8023 -1.6148
  462TIP3    H223022   2.012   0.147   1.807 -1.1797  1.7828  0.8554
  463TIP3   OH223023   0.971   4.624   0.305 -0.4704 -0.7366  0.2203
  463TIP3    H123024   0.920   4.606   0.226  0.1304 -0.3684 -0.2577
  463TIP3    H223025   1.060   4.640   0.273 -0.2180 -0.6084  0.9746
  464TIP3   OH223026   2.991   5.799   7.675  0.4795  0.2962  0.1586
  464TIP3    H123027   2.909   5.753   7.660  1.1580 -0.2256 -2.5200
  464TIP3    H223028   2.966   5.886   7.704 -0.9835 -0.0441 -0.0244
  465TIP3   OH223029   0.266   2.491   8.240  0.1721  0.5465  0.3482
  465TIP3    H123030   0.211   2.531   8.307 -1.4139 -0.5997 -0.2173
  465TIP3    H223031   0.325   2.433   8.288 -0.8010 -0.1002  0.7963
  466TIP3   OH223032   3.725   4.065   2.663  0.2059 -0.3068  0.7602
  466TIP3    H123033   3.789   3.994   2.656  1.2475  0.6752 -0.0693
  466TIP3    H223034   3.730   4.093   2.754  1.5005  0.2137  0.5530
  467TIP3   OH223035   1.835   1.779   0.653  0.0092  0.0750 -0.1829
  467TIP3    H123036   1.866   1.868   0.665 -0.3339  0.2895 -0.8125
  467TIP3    H223037   1.819   1.746   0.741  2.6531 -0.2991  0.2193
  468TIP3   OH223038   5.451   2.300   0.406  0.0255  0.1171  0.4062
  468TIP3    H123039   5.454   2.321   0.313  0.7866 -0.2162  0.3459
  468TIP3    H223040   5.412   2.212   0.409  0.0262  0.1163  0.3951
  469TIP3   OH223041   6.009   5.311   8.277 -0.3828  0.0381  0.6721
  469TIP3    H123042   6.060   5.371   8.331 -2.1996  0.9272  1.4720
  469TIP3    H223043   6.075   5.262   8.228  1.2565  0.7004  2.0917
  470TIP3   OH223044   0.007   1.620   6.444  0.3433 -0.2822 -0.2905
  470TIP3    H123045   0.080   1.595   6.388  1.3024  0.7807  0.4472
  470TIP3    H223046   0.038   1.697   6.491 -1.0799 -0.1046  0.4053
  471TIP3   OH223047   1.341   3.505   0.446  0.5526  0.3489 -0.1371
  471TIP3    H123048   1.284   3.430   0.463 -0.1749  1.3925  2.7374
  471TIP3    H223049   1.286   3.581   0.465  2.3503  1.4495  0.9584
  472TIP3   OH223050   2.432   1.909   8.776  0.0002 -0.4336  0.3881
  472TIP3    H123051   2.420   1.854   8.699 -1.0829 -1.1401  1.0394
  472TIP3    H223052   2.396   1.858   8.849  1.0390  0.1902  1.3933
  473TIP3   OH223053   1.663   2.067   7.783 -0.2297  0.4875 -0.0428
  473TIP3    H123054   1.683   2.023   7.865  1.0717  0.5717 -0.2975
  473TIP3    H223055   1.570   2.049   7.768 -0.0800 -0.9293  0.5909
  474TIP3   OH223056   4.690   0.777   0.002 -0.3544  0.4309  0.1990
  474TIP3    H123057   4.739   0.706   0.043 -1.9531 -1.4838 -1.0332
  474TIP3    H223058   4.664   0.833   0.075  2.0068  0.5304  1.0707
  475TIP3   OH223059   4.968   1.131   2.187 -0.1126  0.5661 -0.3739
  475TIP3    H123060   5.002   1.220   2.200 -0.9772  1.2366 -2.2927
  475TIP3    H223061   4.894   1.126   2.247 -0.1806  1.2210 -0.3861
  476TIP3   OH223062   5.557   3.681   8.580  0.2600 -0.1446 -0.4025
  476TIP3    H123063   5.614   3.607   8.560  0.5959  0.1342 -0.4790
  476TIP3    H223064   5.600   3.726   8.652 -0.9435 -1.1451  0.9989
  477TIP3   OH223065   0.971   4.935   0.341  0.3179  0.6069 -0.6287
  477TIP3    H123066   0.977   4.841   0.359 -0.5999  0.8300  0.9823
  477TIP3    H223067   1.048   4.973   0.384  0.5223  0.6476 -1.0191
  478TIP3   OH223068   2.118   4.899   0.405 -0.1179  0.2184  0.8629
  478TIP3    H123069   2.213   4.910   0.399 -0.0220  1.2453  3.2206
  478TIP3    H223070   2.082   4.971   0.353  0.3556 -0.1225  0.0334
  479TIP3   OH223071   4.821   3.540   7.938  0.1764 -0.1495 -0.4677
  479TIP3    H123072   4.781   3.454   7.954 -2.5083  1.0942  0.0078
  479TIP3    H223073   4.859   3.564   8.023  2.1356 -1.3567 -0.9326
  480TIP3   OH223074   1.571   5.183   0.668 -0.0589 -0.4996 -0.3485
  480TIP3    H123075   1.550   5.268   0.630  0.3575 -0.9696 -1.6901
  480TIP3    H223076   1.631   5.143   0.605  0.5160 -1.3971  0.7311
  481TIP3   OH223077   4.656   4.633   1.969  0.2315  0.1896 -0.2470
  481TIP3    H123078   4.715   4.582   1.915 -0.1955 -1.0430  0.4144
  481TIP3    H223079   4.580   4.649   1.913  0.2365 -0.1645 -0.3538
  482TIP3   OH223080   6.351   3.374   8.037  0.3490 -0.0783 -0.1677
  482TIP3    H123081   6.357   3.281   8.059  0.7386  0.1742  0.8817
  482TIP3    H223082   6.438   3.409   8.060  0.7886  0.2311 -2.1573
  483TIP3   OH223083   5.244   3.624   6.838 -0.4530 -0.1167 -0.2055
  483TIP3    H123084   5.209   3.574   6.764  0.0485  0.0048 -0.5309
  483TIP3    H223085   5.241   3.715   6.808  1.4938 -0.2150 -0.8324
  484TIP3   OH223086   2.230   1.589   1.508 -0.1954 -0.1557  0.5127
  484TIP3    H123087   2.218   1.671   1.461  0.1481 -0.3709  0.0388
  484TIP3    H223088   2.321   1.591   1.539  0.3150 -1.0259 -0.8440
  485TIP3   OH223089   5.983   3.424   1.302  0.1938  0.2977 -0.2558
  485TIP3    H123090   5.889   3.441   1.301  0.2013  0.3560 -0.0776
  485TIP3    H223091   6.000   3.390   1.390  0.1594 -0.7494 -0.6525
  486TIP3   OH223092   2.562   4.387   7.542  0.6234  0.8158 -0.3402
  486TIP3    H123093   2.610   4.343   7.611 -1.0238 -0.0049  0.3452
  486TIP3    H223094   2.628   4.435   7.493  2.3329 -1.4417 -0.3778
  487TIP3   OH223095   5.743   3.976   7.268  0.0607  0.0641 -0.1329
  487TIP3    H123096   5.665   4.028   7.249  0.5085  1.0731  0.6847
  487TIP3    H223097   5.765   3.933   7.184 -0.0039  1.6390 -0.9987
  488TIP3   OH223098   2.778   6.183   7.319 -0.2637 -0.0659  0.8681
  488TIP3    H123099   2.762   6.275   7.299  1.3522 -0.2373 -1.6303
  488TIP3    H223100   2.831   6.184   7.398 -1.7711  1.0238  1.9116
  489TIP3   OH223101   5.874   5.556   0.476 -0.2226  0.2171  0.6498
  489TIP3    H123102   5.916   5.473   0.497  2.3115  0.8670 -1.3363
  489TIP3    H223103   5.941   5.622   0.492 -1.7955  1.8054  1.0694
  490TIP3   OH223104   6.162   2.799   1.183  0.4730  0.5668 -0.6191
  490TIP3    H123105   6.180   2.705   1.188 -1.3696  0.2328  0.2934
  490TIP3    H223106   6.135   2.813   1.092 -0.5932 -0.0541 -0.4081
  491TIP3   OH223107   2.401   5.564   8.315  0.1468 -0.4336  0.6315
  491TIP3    H123108   2.336   5.579   8.383  1.1494  0.7421  1.3657
  491TIP3    H223109   2.483   5.549   8.363  0.5320 -1.4181 -0.2837
  492TIP3   OH223110   4.701   0.087   8.414 -0.0341  0.0386  0.1517
  492TIP3    H123111   4.663   0.166   8.376  1.0358 -0.3897 -1.9534
  492TIP3    H223112   4.724   0.033   8.339  0.9216 -1.4944  1.4830
  493TIP3   OH223113   1.667   1.879   0.077  0.5039 -0.8683  0.3716
  493TIP3    H123114   1.660   1.950   0.141 -0.8267 -0.3860 -0.2647
  493TIP3    H223115   1.754   1.843   0.090  0.9425  0.4295  1.1953
  494TIP3   OH223116   1.124   5.380   7.400  0.2702  0.3667  0.0061
  494TIP3    H123117   1.099   5.323   7.327  1.5372  0.2566 -0.3580
  494TIP3    H223118   1.214   5.356   7.420 -0.1204  0.1863  1.8181
  495TIP3   OH223119   1.062   6.101   2.727  0.4788  0.4677  0.3150
  495TIP3    H123120   1.033   6.191   2.737  0.2181  0.2386  1.9994
  495TIP3    H223121   0.981   6.049   2.728  0.4867  0.2742 -2.3516
  496TIP3   OH223122   0.471   1.612   8.172 -0.5909  0.1046  0.0522
  496TIP3    H123123   0.413   1.605   8.247  0.3796 -0.1461  0.7995
  496TIP3    H223124   0.482   1.522   8.141 -0.3830  0.1163  0.0874
  497TIP3   OH223125   0.569   3.323   8.261 -0.5616 -0.3874 -0.1111
  497TIP3    H123126   0.630   3.299   8.192 -1.3480  1.4482 -1.5348
  497TIP3    H223127   0.620   3.378   8.320 -0.2996 -0.6200 -0.1204
  498TIP3   OH223128   0.527   5.508   8.001  0.7078  0.0709 -0.1013
  498TIP3    H123129   0.606   5.467   7.965  1.2109  0.5108  0.4990
  498TIP3    H223130   0.458   5.443   7.985  1.2710 -0.5099 -0.2262
  499TIP3   OH223131   0.530   1.472   6.798  0.4680  0.0504  0.2046
  499TIP3    H123132   0.565   1.385   6.777 -1.7846 -1.1488  1.1096
  499TIP3    H223133   0.477   1.496   6.722 -1.0371 -0.5982  1.0109
  500TIP3   OH223134   5.985   6.155   1.270 -0.6585  0.7779 -0.1376
  500TIP3    H123135   5.961   6.114   1.353 -0.4982  1.2603  0.1480
  500TIP3    H223136   5.908   6.143   1.214  0.3789 -2.5628 -1.1009
  501TIP3   OH223137   6.420   2.592   2.694  0.0627 -0.3460  0.3184
  501TIP3    H123138   6.478   2.585   2.770 -0.0916  0.7102  0.5485
  501TIP3    H223139   6.471   2.555   2.622 -0.3858 -2.8656  1.1873
  502TIP3   OH223140   6.577   2.229   8.629 -0.1132 -0.5877 -0.1275
  502TIP3    H123141   6.670   2.249   8.618  0.5586 -0.5037  3.9716
  502TIP3    H223142   6.576   2.137   8.655 -1.3622 -0.9573 -1.4015
  503TIP3   OH223143   5.602   2.382   7.901  0.2750  0.8617  0.0050
  503TIP3    H123144   5.638   2.348   7.983  1.1057  1.4328 -0.1154
  503TIP3    H223145   5.624   2.475   7.902 -1.2644  1.2517 -0.0438
  504TIP3   OH223146   1.213   3.440   2.281  0.2272  0.6216  0.2752
  504TIP3    H123147   1.260   3.383   2.219 -1.7601 -0.5989 -0.2130
  504TIP3    H223148   1.184   3.514   2.228 -0.4210  0.1918  0.0256
  505TIP3   OH223149   0.503   2.767   8.442 -0.2213 -0.0913  0.3827
  505TIP3    H123150   0.418   2.723   8.446 -1.4294  1.9567 -0.7793
  505TIP3    H223151   0.513   2.789   8.349 -0.5437  3.4843  1.0590
  506TIP3   OH223152   0.963   5.257   0.713 -0.3783 -0.2451 -0.0009
  506TIP3    H123153   0.941   5.171   0.678  1.9480 -0.6822 -0.5096
  506TIP3    H223154   1.058   5.262   0.707 -0.3838  1.9821  0.9398
  507TIP3   OH223155   3.153   2.941   1.590 -0.0197  0.0996  0.2374
  507TIP3    H123156   3.248   2.939   1.587 -0.0444 -1.1014 -0.1231
  507TIP3    H223157   3.132   3.003   1.660  1.0073  0.8257 -0.0772
  508TIP3   OH223158   3.648   0.178   1.446  0.1717 -0.0587 -0.0094
  508TIP3    H123159   3.624   0.223   1.527  1.5011  0.8321 -0.0786
  508TIP3    H223160   3.568   0.176   1.395 -0.3571  0.5779  0.7689
  509TIP3   OH223161   4.092   2.839   8.171  0.3318  0.2601  0.0692
  509TIP3    H123162   4.079   2.932   8.153 -0.9845 -0.1249 -1.0681
  509TIP3    H223163   4.033   2.793   8.112  0.1828 -1.2874  1.3234
  510TIP3   OH223164   0.857   6.273   0.725  0.4681  0.4241 -0.3219
  510TIP3    H123165   0.882   6.304   0.813 -2.9349 -0.6225  1.1881
  510TIP3    H223166   0.812   6.347   0.685 -0.8319 -0.0475  0.1942
  511TIP3   OH223167   1.260   4.211   7.722  0.5268 -0.1737 -0.2055
  511TIP3    H123168   1.325   4.197   7.791  0.5369 -2.6056 -0.6105
  511TIP3    H223169   1.311   4.226   7.643  0.5587 -0.4333 -0.2327
  512TIP3   OH223170   2.505   1.022   0.026  0.2498 -0.2057  0.3407
  512TIP3    H123171   2.545   1.022  -0.061 -0.4754  3.2814 -0.1377
  512TIP3    H223172   2.445   0.947   0.025  0.4421 -0.4146 -2.0669
  513TIP3   OH223173   0.632   4.130   1.707  0.1340  0.2321  0.1297
  513TIP3    H123174   0.708   4.149   1.761 -0.6786  0.7585  1.1331
  513TIP3    H223175   0.581   4.067   1.759 -0.7991  0.9594  0.1302
  514TIP3   OH223176   2.072   2.473   0.966  0.7797  0.5264  0.5241
  514TIP3    H123177   2.099   2.508   1.051 -0.5134  0.9058  0.8004
  514TIP3    H223178   1.977   2.469   0.971  0.6277  1.1799 -1.1408
  515TIP3   OH223179   4.578   3.595   3.016 -0.8330  0.4240  0.0695
  515TIP3    H123180   4.554   3.528   2.953  0.8162  0.1544 -0.3082
  515TIP3    H223181   4.502   3.602   3.074 -1.5882 -0.7289 -0.7560
  516TIP3   OH223182   4.495   6.397   7.055 -0.2320 -0.8140  0.3732
  516TIP3    H123183   4.520   6.314   7.015  0.4272 -0.9863  1.1226
  516TIP3    H223184   4.533   6.464   6.998  0.3531 -1.0527  0.4807
  517TIP3   OH223185   1.247   2.517   2.656  0.0089 -0.2233 -0.2323
  517TIP3    H123186   1.165   2.469   2.667  0.6421 -1.1537  0.5315
  517TIP3    H223187   1.293   2.507   2.739  0.6673  0.7604 -0.4550
  518TIP3   OH223188   1.943   3.854   1.255 -0.1007  0.0332 -0.3499
  518TIP3    H123189   1.925   3.760   1.263 -2.1360  0.3346 -0.6391
  518TIP3    H223190   2.030   3.866   1.293 -0.0712 -1.8674  0.2897
  519TIP3   OH223191   5.016   6.413   6.781 -0.1547 -0.7352 -0.0217
  519TIP3    H123192   4.934   6.450   6.815 -0.1142 -0.3490 -0.3287
  519TIP3    H223193   5.064   6.387   6.859 -1.0541 -2.0440  0.1229
  520TIP3   OH223194   1.555   0.751   1.792 -0.1133 -0.7723  0.0752
  520TIP3    H123195   1.550   0.777   1.701 -0.4271 -1.5908 -0.1524
  520TIP3    H223196   1.475   0.785   1.832  1.4321  2.3052  0.8111
  521TIP3   OH223197   1.400   3.394   1.912  0.6733  0.4335 -0.1698
  521TIP3    H123198   1.313   3.390   1.952  0.6047 -0.0685 -0.3678
  521TIP3    H223199   1.404   3.481   1.872  0.1396  0.3316 -0.4497
  522TIP3   OH223200   2.548   3.882   1.413 -0.4761  0.3872 -0.1591
  522TIP3    H123201   2.471   3.933   1.434  0.9981  2.7314 -0.0642
  522TIP3    H223202   2.601   3.941   1.359  1.4208 -0.9814  0.1197
  523TIP3   OH223203   0.661   3.003   0.805  0.0373  0.1556 -0.0126
  523TIP3    H123204   0.680   2.911   0.786  2.1432  0.6672 -0.6231
  523TIP3    H223205   0.608   3.032   0.731  0.6955 -0.1726 -0.6239
  524TIP3   OH223206   1.262   0.647   0.590 -0.0821  0.4414 -0.5853
  524TIP3    H123207   1.290   0.730   0.551 -0.4790  0.4816 -0.7835
  524TIP3    H223208   1.196   0.672   0.654  0.4943  0.3671  0.0578
  525TIP3   OH223209   6.597   3.611   2.456  0.3957 -0.1504 -0.2238
  525TIP3    H123210   6.514   3.604   2.503  0.6896 -0.7950  0.2252
  525TIP3    H223211   6.664   3.612   2.525  0.8143 -0.7670 -0.6035
  526TIP3   OH223212   4.159   2.526   6.818 -0.0861  0.8702 -0.4462
  526TIP3    H123213   4.162   2.431   6.823  0.6371  0.9227  3.4113
  526TIP3    H223214   4.243   2.550   6.780  1.1733 -0.0890  1.5203
  527TIP3   OH223215   0.471   4.385   7.941 -0.1281  0.2480 -0.4975
  527TIP3    H123216   0.462   4.457   7.879  0.2395  1.8377  1.2148
  527TIP3    H223217   0.455   4.425   8.027  2.4547 -1.1562  0.7500
  528TIP3   OH223218   5.924   2.755   1.356 -0.4432 -0.1986  0.3703
  528TIP3    H123219   5.910   2.713   1.271  1.0500 -1.5039  0.7233
  528TIP3    H223220   5.982   2.696   1.403 -1.2641  0.4717  2.3463
  529TIP3   OH223221   1.414   3.553   7.922 -0.0756 -0.2120  0.4424
  529TIP3    H123222   1.455   3.602   7.851 -0.0534 -1.0239 -0.1095
  529TIP3    H223223   1.484   3.497   7.956  0.2305  0.9532  1.8523
  530TIP3   OH223224   3.968   5.975   0.443 -0.2682 -0.0224 -0.0219
  530TIP3    H123225   3.920   5.898   0.473 -0.7174  0.3536  0.2501
  530TIP3    H223226   3.967   6.035   0.518 -0.1928  0.3691 -0.3299
  531TIP3   OH223227   5.611   3.700   2.421  0.1151  0.1349  0.0695
  531TIP3    H123228   5.672   3.637   2.382 -0.7761 -0.2516 -0.7374
  531TIP3    H223229   5.612   3.679   2.514  0.7864 -0.2427 -0.0164
  532TIP3   OH223230   1.363   4.623   0.379  0.0308  0.2624 -0.1976
  532TIP3    H123231   1.317   4.572   0.446  0.9202  1.1660  1.1642
  532TIP3    H223232   1.440   4.571   0.358  0.0615  0.2547 -0.0684
  533TIP3   OH223233   3.993   3.085   1.789 -0.2889  0.0854 -0.3528
  533TIP3    H123234   3.965   3.036   1.712  0.1703  1.5468 -1.5000
  533TIP3    H223235   3.914   3.127   1.821 -0.3519  0.0725 -0.4910
  534TIP3   OH223236   4.133   0.163   1.181  0.0969  0.6793  0.0552
  534TIP3    H123237   4.040   0.151   1.164  0.1500  1.3933 -0.8091
  534TIP3    H223238   4.144   0.139   1.273 -0.7817 -0.2231 -0.0583
  535TIP3   OH223239   5.761   5.569   8.602 -0.2893 -0.1235 -0.5154
  535TIP3    H123240   5.703   5.644   8.620  1.1344  0.3369  2.9914
  535TIP3    H223241   5.838   5.608   8.560 -1.0964 -0.2755 -2.2271
  536TIP3   OH223242   5.711   3.295   6.165 -0.3079 -0.3901 -0.5852
  536TIP3    H123243   5.797   3.336   6.150  0.2358 -1.4761 -0.5530
  536TIP3    H223244   5.708   3.280   6.260 -0.5727 -0.2611 -0.5732
  537TIP3   OH223245   1.232   5.949   1.868 -0.1833  0.1205  0.6949
  537TIP3    H123246   1.158   6.008   1.884  0.2701  0.8329  0.1845
  537TIP3    H223247   1.214   5.873   1.924 -0.0295  1.3691  2.5022
  538TIP3   OH223248   0.410   5.612   2.777  0.6453 -0.1598 -0.4875
  538TIP3    H123249   0.339   5.675   2.781 -0.8552 -1.8334  0.5159
  538TIP3    H223250   0.481   5.653   2.827  0.1217  1.1811 -0.7910
  539TIP3   OH223251   6.227   3.166   7.257  0.0749 -0.6503  0.2504
  539TIP3    H123252   6.231   3.118   7.339  2.2235  1.3329  1.4075
  539TIP3    H223253   6.296   3.127   7.203  0.3722 -0.2704  0.3587
  540TIP3   OH223254   1.817   0.527   7.234 -0.6918 -0.6010  0.7334
  540TIP3    H123255   1.822   0.554   7.142  1.5366  1.6150  1.3967
  540TIP3    H223256   1.892   0.468   7.245 -1.7849 -2.0094  0.8414
  541TIP3   OH223257   4.215   1.207   6.916  0.6700  0.3553  0.3185
  541TIP3    H123258   4.135   1.179   6.871  0.6006  0.4246  0.3994
  541TIP3    H223259   4.187   1.277   6.974  0.1874 -1.6083  2.6408
  542TIP3   OH223260   0.294   4.042   8.015  0.1586  0.4546  0.1614
  542TIP3    H123261   0.199   4.049   8.003  0.0531  0.0766  0.7597
  542TIP3    H223262   0.309   4.067   8.106  0.4701 -0.8939  0.4984
  543TIP3   OH223263   1.788   0.517   8.151  0.0441 -0.0172  0.0669
  543TIP3    H123264   1.836   0.479   8.224  0.1382 -1.6418 -0.7800
  543TIP3    H223265   1.711   0.557   8.191 -0.0944 -1.1951  1.0361
  544TIP3   OH223266   6.634   0.070   7.267 -0.1262  0.1511  0.0462
  544TIP3    H123267   6.602   0.098   7.181  0.9404  1.8205  0.1426
  544TIP3    H223268   6.714   0.020   7.248 -0.8091 -0.9712  0.0076
  545TIP3   OH223269   5.715   2.889   7.253  0.0616  0.0049 -0.3563
  545TIP3    H123270   5.686   2.876   7.343 -1.3855  0.5153 -0.7187
  545TIP3    H223271   5.733   2.801   7.220 -0.4998 -0.2812  0.0887
  546TIP3   OH223272   5.815   5.804   7.761  0.1469  0.0631 -0.1747
  546TIP3    H123273   5.911   5.803   7.771  0.1430  1.0148  0.0152
  546TIP3    H223274   5.797   5.882   7.709 -0.4873 -0.4457 -0.7347
  547TIP3   OH223275   4.512   5.326   8.309  0.0021  0.3430 -0.4071
  547TIP3    H123276   4.442   5.347   8.247 -0.6174 -0.1792  0.1038
  547TIP3    H223277   4.522   5.231   8.303 -0.4690  0.2026  0.6969
  548TIP3   OH223278   4.850   1.328   1.579 -0.3970 -0.0185  0.1791
  548TIP3    H123279   4.774   1.289   1.537 -0.9717 -0.4633  1.5822
  548TIP3    H223280   4.814   1.384   1.647  0.4756  1.6331 -0.6610
  549TIP3   OH223281   4.844   0.734   0.773  0.1328  0.4860  0.2941
  549TIP3    H123282   4.824   0.715   0.865  0.9701 -1.2570  0.1449
  549TIP3    H223283   4.761   0.722   0.727  0.2420 -1.0808  0.4794
  550TIP3   OH223284   4.963   1.028   8.009 -0.2693  0.0608  0.0858
  550TIP3    H123285   4.881   1.078   8.014  0.0790  0.7638 -0.9481
  550TIP3    H223286   5.019   1.067   8.076  0.5439  2.1298 -1.6936
  551TIP3   OH223287   4.039   4.189   8.159 -0.1177  0.3871 -0.0080
  551TIP3    H123288   4.029   4.125   8.230 -3.5418 -1.8425 -2.1905
  551TIP3    H223289   3.988   4.265   8.187 -2.7545 -1.0663 -0.4969
  552TIP3   OH223290   2.231   0.607   1.630 -0.2507  0.0933  0.1364
  552TIP3    H123291   2.260   0.648   1.548 -0.2886  1.0083  0.5702
  552TIP3    H223292   2.146   0.568   1.608  0.6236 -1.3948 -0.7681
  553TIP3   OH223293   1.116   4.402   8.352  0.3274 -0.4956  0.3536
  553TIP3    H123294   1.071   4.333   8.401 -0.1663 -0.2013  0.3207
  553TIP3    H223295   1.060   4.479   8.363  1.8083  0.4055  1.9583
  554TIP3   OH223296   5.401   0.117   1.358 -0.0593  0.5456 -0.0764
  554TIP3    H123297   5.424   0.161   1.276  1.3076  5.2657  2.4571
  554TIP3    H223298   5.485   0.106   1.403 -0.7755 -1.9266  0.7912
  555TIP3   OH223299   0.177   3.873   0.135  0.1316  0.5423 -0.1831
  555TIP3    H123300   0.238   3.946   0.137 -0.4758  1.0620  0.9380
  555TIP3    H223301   0.114   3.896   0.067  0.7643  0.3545 -0.8374
  556TIP3   OH223302   4.066   4.433   7.529 -0.1726 -0.8765 -0.8175
  556TIP3    H123303   4.155   4.441   7.563  0.2757 -1.0244 -1.9258
  556TIP3    H223304   4.075   4.382   7.449 -0.8644  1.2942 -2.3755
  557TIP3   OH223305   4.621   5.497   1.282 -0.4208 -0.0551  0.0409
  557TIP3    H123306   4.703   5.523   1.240  0.8519 -1.3676  1.5800
  557TIP3    H223307   4.619   5.545   1.365 -0.1759 -1.5049  0.9282
  558TIP3   OH223308   1.540   1.533   6.901  0.5890  0.1538  0.4395
  558TIP3    H123309   1.459   1.555   6.855 -0.2005 -0.5364  1.4582
  558TIP3    H223310   1.535   1.584   6.982  1.1104 -0.0046  0.5708
  559TIP3   OH223311   5.990   3.192   7.755 -0.0362  0.5406  0.0989
  559TIP3    H123312   5.976   3.277   7.796 -0.8702  0.1308  0.6713
  559TIP3    H223313   5.906   3.170   7.715  0.3951  0.3381 -0.7230
  560TIP3   OH223314   5.744   2.683   7.924 -0.1499 -0.0237  0.3382
  560TIP3    H123315   5.804   2.757   7.913  0.6064 -0.7557 -0.6368
  560TIP3    H223316   5.751   2.660   8.017  0.8167  0.1241  0.3101
  561TIP3   OH223317   5.790   2.372   7.020 -0.5339  0.0177 -0.5924
  561TIP3    H123318   5.717   2.394   6.963  0.0248  0.1812 -1.2550
  561TIP3    H223319   5.847   2.316   6.967 -0.4139 -0.5100  0.0740
  562TIP3   OH223320   6.717   5.161   8.144  0.2116 -0.3265  1.0801
  562TIP3    H123321   6.732   5.093   8.210  0.8497  0.4419  1.7357
  562TIP3    H223322   6.740   5.119   8.062 -3.4727 -2.3573  0.8238
  563TIP3   OH223323   6.183   0.330   7.488 -0.4066  0.4337 -0.1411
  563TIP3    H123324   6.164   0.395   7.419 -1.2530  0.3166 -0.0275
  563TIP3    H223325   6.254   0.277   7.452  2.4907  3.2374  0.9215
  564TIP3   OH223326   5.377   1.075   8.656 -0.4508  0.1742 -0.1978
  564TIP3    H123327   5.449   1.139   8.654 -0.0352 -0.2635  0.3112
  564TIP3    H223328   5.326   1.093   8.577 -1.1478  2.0538  0.6140
  565TIP3   OH223329   3.458   6.846   0.479  0.2109 -0.2967 -0.1729
  565TIP3    H123330   3.487   6.935   0.458  1.4364 -0.5783  0.1993
  565TIP3    H223331   3.497   6.828   0.564 -0.3773 -1.0449 -0.0532
  566TIP3   OH223332   6.486   2.322   0.257 -0.4154 -0.1608 -0.1829
  566TIP3    H123333   6.426   2.389   0.223 -1.1577 -0.6588  0.1215
  566TIP3    H223334   6.443   2.289   0.336 -0.4713 -1.5838 -0.7740
  567TIP3   OH223335   5.410   6.714   1.090 -0.1156 -0.5211 -0.1004
  567TIP3    H123336   5.349   6.648   1.057 -0.7917 -0.8468  1.7073
  567TIP3    H223337   5.444   6.676   1.171 -1.5223  1.8909  1.7144
  568TIP3   OH223338   4.829   0.656   7.610  0.4970 -0.1316 -0.2315
  568TIP3    H123339   4.861   0.566   7.609 -1.0609 -0.7646  1.1677
  568TIP3    H223340   4.746   0.651   7.659  0.5124  2.0982  0.1227
  569TIP3   OH223341   2.969   5.260   0.018  0.0408 -0.0378 -0.7575
  569TIP3    H123342   2.887   5.286   0.060  1.9875  0.4473  3.1350
  569TIP3    H223343   2.979   5.168   0.040  1.7357  0.5521  1.1568
  570TIP3   OH223344   3.478   2.228   7.727  0.1271 -0.2943 -0.4989
  570TIP3    H123345   3.412   2.161   7.711 -0.7412 -0.3028  2.4991
  570TIP3    H223346   3.559   2.179   7.741  0.1007 -0.5022 -1.0421
  571TIP3   OH223347   4.100   6.035   7.542 -0.3993  0.2988 -0.4537
  571TIP3    H123348   4.010   6.066   7.536  0.2771  2.3899 -0.8516
  571TIP3    H223349   4.139   6.060   7.458  0.6544 -0.1575 -0.1160
  572TIP3   OH223350   5.647   3.942   0.310 -0.0251  0.3333  0.3915
  572TIP3    H123351   5.678   3.902   0.391  1.7047  0.2910 -0.2670
  572TIP3    H223352   5.594   3.873   0.268  0.3643 -0.1780  0.7365
  573TIP3   OH223353   2.954   6.411   1.329 -0.6483 -0.9263  0.0730
  573TIP3    H123354   3.048   6.417   1.312 -0.8887 -0.1343 -1.0815
  573TIP3    H223355   2.913   6.416   1.243 -1.9725  3.7353  0.6631
  574TIP3   OH223356   5.702   3.492   1.026 -0.1155  0.0343 -0.3172
  574TIP3    H123357   5.712   3.487   1.121 -2.2630 -1.5130 -0.0993
  574TIP3    H223358   5.787   3.464   0.991  1.7775  3.5271  1.0115
  575TIP3   OH223359   0.901   3.956   1.491  0.2170 -0.4462 -1.0086
  575TIP3    H123360   0.993   3.949   1.515  0.1985 -2.5315 -1.3449
  575TIP3    H223361   0.901   4.006   1.409  0.7343  2.0730  0.4254
  576TIP3   OH223362   5.432   3.307   2.198 -0.2671  0.2636 -0.5852
  576TIP3    H123363   5.358   3.246   2.203  1.3150 -1.7691 -0.4393
  576TIP3    H223364   5.410   3.377   2.259 -0.3742 -2.3216  2.6582
  577TIP3   OH223365   0.735   1.716   8.082  0.0799 -0.4995  1.1683
  577TIP3    H123366   0.769   1.641   8.131 -0.2672 -0.0994  2.0230
  577TIP3    H223367   0.641   1.715   8.098 -0.0921 -0.5481  0.2461
  578TIP3   OH223368   1.328   3.550   1.693  0.2928 -0.8324  0.6262
  578TIP3    H123369   1.377   3.472   1.666  0.9030 -0.5665  0.9353
  578TIP3    H223370   1.298   3.589   1.611  2.1509 -0.0225  0.2581
  579TIP3   OH223371   4.521   5.710   0.605 -0.3838 -0.4507  0.0626
  579TIP3    H123372   4.532   5.722   0.699 -1.8168  0.5468  0.1308
  579TIP3    H223373   4.566   5.785   0.566  0.5896 -1.0918 -0.1025
  580TIP3   OH223374   0.184   5.675   8.728 -0.4952 -0.6184 -0.4258
  580TIP3    H123375   0.216   5.664   8.817 -2.0885 -2.7328 -0.0359
  580TIP3    H223376   0.237   5.746   8.692  1.6261 -1.1097  1.5006
  581TIP3   OH223377   1.838   4.480   7.629  0.6287 -0.8693 -0.2405
  581TIP3    H123378   1.858   4.511   7.717  2.4594  1.2551 -1.2970
  581TIP3    H223379   1.744   4.460   7.631  0.6897 -1.1909  2.2219
  582TIP3   OH223380   2.811   4.477   0.309  0.2415  0.1564  0.2907
  582TIP3    H123381   2.879   4.423   0.349 -0.8493 -1.8082 -0.3385
  582TIP3    H223382   2.795   4.435   0.224 -1.2000  1.0392  0.0970
  583TIP3   OH223383   3.330   0.562   1.283 -0.2125  0.5098  0.1577
  583TIP3    H123384   3.250   0.514   1.305 -0.5275  0.7977 -0.3589
  583TIP3    H223385   3.308   0.612   1.205  1.3007 -1.6304 -1.8096
  584TIP3   OH223386   2.588   0.441   2.488 -0.4203 -0.0228 -0.2994
  584TIP3    H123387   2.620   0.523   2.525 -1.2274 -0.1866  0.8034
  584TIP3    H223388   2.496   0.458   2.468 -0.5357 -0.5885 -0.2616
  585TIP3   OH223389   0.673   4.960   0.279 -0.3891  0.4005  0.1371
  585TIP3    H123390   0.768   4.968   0.287 -0.4915  1.8402  0.1405
  585TIP3    H223391   0.640   5.046   0.303 -1.7534 -0.2997  0.8502
  586TIP3   OH223392   1.421   4.438   7.957  0.2203 -0.3775  0.2697
  586TIP3    H123393   1.346   4.457   7.900 -0.8207  0.7688  1.9329
  586TIP3    H223394   1.430   4.343   7.954 -1.2411 -0.5305 -0.0512
  587TIP3   OH223395   6.120   5.880   8.482  0.1549 -0.5896  0.0734
  587TIP3    H123396   6.044   5.922   8.441 -0.2601 -2.4345 -1.2000
  587TIP3    H223397   6.086   5.845   8.564 -0.0222 -0.2699  0.1428
  588TIP3   OH223398   5.174   2.433   1.787 -0.1591  0.2881 -0.0640
  588TIP3    H123399   5.179   2.466   1.877  0.0842  1.7947 -0.6091
  588TIP3    H223400   5.099   2.373   1.788  0.3844 -0.4285  1.3411
  589TIP3   OH223401   3.875   6.258   7.225 -0.2441  0.3055  0.0258
  589TIP3    H123402   3.808   6.205   7.268  0.0536 -0.0641  0.0421
  589TIP3    H223403   3.954   6.242   7.277  0.2944 -0.6910 -1.0484
  590TIP3   OH223404   1.648   1.893   0.473  0.0612 -0.4280  0.4139
  590TIP3    H123405   1.662   1.838   0.550  1.5802 -0.6922 -0.0173
  590TIP3    H223406   1.728   1.883   0.421 -1.2328 -0.9306 -1.6387
  591TIP3   OH223407   4.664   3.457   7.251 -0.5640 -0.7061 -0.2181
  591TIP3    H123408   4.680   3.533   7.307 -3.0770 -0.3127  0.0716
  591TIP3    H223409   4.742   3.452   7.195  0.1238  1.4374  0.4419
  592TIP3   OH223410   0.353   4.880   2.471  0.1073  0.5015 -0.1489
  592TIP3    H123411   0.356   4.784   2.469  2.1155  0.5006  0.6095
  592TIP3    H223412   0.439   4.907   2.441 -0.5721  2.1045 -0.7448
  593TIP3   OH223413   4.702   0.926   1.465  0.1216  0.2298 -0.3025
  593TIP3    H123414   4.713   0.892   1.554  0.2996  0.0207 -0.4046
  593TIP3    H223415   4.625   0.880   1.431  1.2669 -1.2401 -0.9952
  594TIP3   OH223416   5.047   5.119   0.469  0.1956  0.1654 -0.0368
  594TIP3    H123417   5.077   5.073   0.546 -4.1935  0.6913  2.3552
  594TIP3    H223418   5.087   5.206   0.475  1.3615 -0.4072  0.5827
  595TIP3   OH223419   3.486   0.209   7.032 -0.1715 -0.5329  0.2531
  595TIP3    H123420   3.570   0.186   6.992  1.8069  3.8004  1.2490
  595TIP3    H223421   3.491   0.171   7.120  0.7084 -0.4645  0.2455
  596TIP3   OH223422   0.242   5.770   8.170  0.1944  0.3170 -0.0688
  596TIP3    H123423   0.232   5.679   8.196  1.8712 -0.4619 -1.9218
  596TIP3    H223424   0.194   5.778   8.088  0.7309  0.8776 -0.3384
  597TIP3   OH223425   5.353   4.763   7.192 -0.0716  0.4410  0.2792
  597TIP3    H123426   5.373   4.688   7.248 -0.0104 -0.3788 -0.7987
  597TIP3    H223427   5.364   4.839   7.249 -2.0081 -0.4320  1.9374
  598TIP3   OH223428   0.391   5.409   1.050  0.2651  0.2771  0.3664
  598TIP3    H123429   0.348   5.405   1.136 -0.8966  0.9044 -0.1658
  598TIP3    H223430   0.416   5.500   1.041 -1.5423  0.7133 -0.8331
  599TIP3   OH223431   6.545   1.438   0.637 -0.1109 -1.2021  0.3731
  599TIP3    H123432   6.551   1.413   0.545  1.3757 -0.7953  0.3264
  599TIP3    H223433   6.628   1.408   0.675  0.0061  0.0949  1.1921
  600TIP3   OH223434   5.051   4.478   7.168  0.1500  0.2854  0.5607
  600TIP3    H123435   5.040   4.570   7.191  0.7734  0.1251  1.5921
  600TIP3    H223436   4.978   4.433   7.210  0.5596  0.1598  1.1593
  601TIP3   OH223437   0.006   4.163   8.590 -0.2342 -0.4475 -0.1662
  601TIP3    H123438  -0.033   4.171   8.503 -0.5234  1.1105  0.0720
  601TIP3    H223439  -0.067   4.144   8.648 -0.0663 -1.3112 -0.2253
  602TIP3   OH223440   1.592   2.453   7.915 -0.5177  0.4884 -0.1071
  602TIP3    H123441   1.546   2.527   7.874  0.9133  0.1633 -2.4974
  602TIP3    H223442   1.607   2.392   7.843  2.3481 -0.0569  0.8412
  603TIP3   OH223443   1.891   6.295   7.990 -0.1002 -0.7985  0.1360
  603TIP3    H123444   1.842   6.375   7.971 -0.7656 -1.4399 -0.9620
  603TIP3    H223445   1.869   6.236   7.918  2.8916 -0.8627 -0.8619
  604TIP3   OH223446   6.649   3.254   2.391  0.3203  0.4655  0.0425
  604TIP3    H123447   6.569   3.239   2.441  0.3127  1.9228  0.5382
  604TIP3    H223448   6.720   3.221   2.447 -0.0153 -2.6722 -1.2444
  605TIP3   OH223449   4.898   6.820   7.640 -0.2826  0.3783  0.2606
  605TIP3    H123450   4.820   6.768   7.625  0.3991 -0.4877 -0.3826
  605TIP3    H223451   4.865   6.907   7.663 -1.4406  0.4267 -1.4063
  606TIP3   OH223452   4.409   0.889   1.148 -0.2910 -0.6370  0.1161
  606TIP3    H123453   4.363   0.973   1.155  1.2560  0.1349  1.6807
  606TIP3    H223454   4.444   0.874   1.235  2.3589 -1.2049 -0.9729
  607TIP3   OH223455   5.010   3.656   1.053  0.3836 -0.3886  0.5849
  607TIP3    H123456   5.013   3.752   1.046 -2.2973 -0.3345 -1.5585
  607TIP3    H223457   5.046   3.637   1.140  0.8792  2.5503  1.1301
  608TIP3   OH223458   0.968   2.830   0.270  0.2080  0.1307 -0.0113
  608TIP3    H123459   1.007   2.874   0.194 -0.7479  0.1509 -0.5007
  608TIP3    H223460   1.037   2.771   0.300  0.7968  0.5153 -0.5552
  609TIP3   OH223461   0.964   6.374   8.646  0.0336 -0.1903 -0.1793
  609TIP3    H123462   1.054   6.381   8.679  0.1969 -0.0056 -0.6649
  609TIP3    H223463   0.962   6.430   8.569 -0.3535 -0.5989 -0.4741
  610TIP3   OH223464   0.273   6.552   1.848  0.6722 -0.0326 -0.0659
  610TIP3    H123465   0.279   6.609   1.771 -1.3587 -0.8527 -0.8961
  610TIP3    H223466   0.313   6.470   1.821  1.3534  0.1657  0.3038
  611TIP3   OH223467   1.394   6.124   8.769  0.3754 -0.6602  0.1281
  611TIP3    H123468   1.389   6.186   8.841  1.3239 -0.5547  0.1075
  611TIP3    H223469   1.321   6.064   8.784 -0.3731  0.2722  0.3099
  612TIP3   OH223470   2.514   4.347   1.373  0.3319 -0.3715  0.2196
  612TIP3    H123471   2.590   4.395   1.339 -0.2983 -0.7463 -1.8829
  612TIP3    H223472   2.456   4.416   1.407  1.1648 -0.0051  0.9313
  613TIP3   OH223473   6.144   6.708   8.119  0.6833  0.0985 -0.2850
  613TIP3    H123474   6.114   6.790   8.079  1.0601 -0.3198 -1.4672
  613TIP3    H223475   6.235   6.725   8.143  0.8207 -0.0316 -0.7085
  614TIP3   OH223476   5.844   3.934   2.119  0.0163 -0.0602  0.5694
  614TIP3    H123477   5.938   3.933   2.135  0.0235 -1.3220  0.4947
  614TIP3    H223478   5.810   3.859   2.167 -0.6543 -0.8966 -1.1428
  615TIP3   OH223479   3.224   5.295   8.660  0.4433  0.0715 -0.8376
  615TIP3    H123480   3.254   5.385   8.651 -1.6605  0.8043 -1.0825
  615TIP3    H223481   3.134   5.302   8.692  0.2657 -1.9454 -0.7180
  616TIP3   OH223482   2.337   0.212   2.029 -0.0217  0.1515  0.4036
  616TIP3    H123483   2.283   0.285   2.058  0.4978  1.0703 -0.8712
  616TIP3    H223484   2.363   0.168   2.110  0.8028  2.2023  1.3199
  617TIP3   OH223485   2.283   1.745   0.151  0.1209  0.0037  0.8110
  617TIP3    H123486   2.268   1.814   0.215 -1.2065  0.7930 -0.2973
  617TIP3    H223487   2.207   1.687   0.159  1.6329 -1.8967  2.3424
  618TIP3   OH223488   4.106   6.637   8.382 -0.3084 -0.0962  0.6634
  618TIP3    H123489   4.026   6.609   8.337 -0.8567  0.4193  1.3004
  618TIP3    H223490   4.080   6.646   8.474  0.6219 -0.4342  0.9660
  619TIP3   OH223491   4.593   1.195   1.130 -0.7697  0.5352  0.1565
  619TIP3    H123492   4.637   1.250   1.065  0.6582 -0.1968  0.4554
  619TIP3    H223493   4.550   1.127   1.079 -0.5990  0.6056 -0.0830
  620TIP3   OH223494   3.773   5.244   8.094  0.1524 -0.4125 -0.6418
  620TIP3    H123495   3.776   5.232   8.189 -5.5918  2.2299  0.3239
  620TIP3    H223496   3.797   5.336   8.080  0.2274 -0.5758 -1.6900
  621TIP3   OH223497   6.526   5.398   8.193  0.0743 -0.5641 -0.6935
  621TIP3    H123498   6.484   5.312   8.197 -1.7329  0.2888  1.3866
  621TIP3    H223499   6.599   5.391   8.254  0.6314 -0.9386 -1.3946
  622TIP3   OH223500   6.578   1.687   0.768  0.3802  0.6259 -0.1243
  622TIP3    H123501   6.552   1.611   0.715  0.1684  0.3292  0.3959
  622TIP3    H223502   6.658   1.659   0.812 -0.5945  0.0694  1.3743
  623TIP3   OH223503   0.485   5.462   1.434 -0.1961 -0.1273  0.2443
  623TIP3    H123504   0.521   5.374   1.428  1.6779  0.6184  0.0253
  623TIP3    H223505   0.558   5.520   1.413 -1.6127  1.4642 -0.5382
  624TIP3   OH223506   4.810   5.753   7.394 -0.4836 -0.2254 -0.0812
  624TIP3    H123507   4.875   5.819   7.369 -0.9845  1.1162  1.9317
  624TIP3    H223508   4.853   5.669   7.377  0.5935  0.5910 -1.6325
  625TIP3   OH223509   2.742   1.507   0.303  0.0608 -0.1668 -0.2242
  625TIP3    H123510   2.655   1.545   0.304 -0.3664 -1.1197  0.0493
  625TIP3    H223511   2.754   1.475   0.214 -0.1500 -0.6542 -0.0794
  626TIP3   OH223512   5.158   4.917   1.979 -0.5105  0.1514  0.1973
  626TIP3    H123513   5.232   4.976   1.991 -2.4170  3.1359 -1.4708
  626TIP3    H223514   5.084   4.962   2.020 -2.0920 -1.0198 -1.2228
  627TIP3   OH223515   5.929   6.100   7.890  0.1009  0.3487 -0.5975
  627TIP3    H123516   5.919   6.071   7.799 -2.0254  2.3176 -1.0755
  627TIP3    H223517   6.023   6.092   7.907  0.7937  1.1397 -3.4405
  628TIP3   OH223518   3.750   6.464   8.659 -0.2716  0.7149  0.0898
  628TIP3    H123519   3.779   6.496   8.744  0.1602  0.5021  0.0257
  628TIP3    H223520   3.829   6.426   8.619 -0.6957 -0.1607  0.0473
  629TIP3   OH223521   4.306   4.593   0.811  0.1304 -0.1489  0.0621
  629TIP3    H123522   4.385   4.583   0.865 -0.1991  0.3003  0.6424
  629TIP3    H223523   4.281   4.684   0.823 -0.1135 -0.1178 -0.6413
  630TIP3   OH223524   0.657   6.586   1.235 -0.0717 -0.3063  0.0316
  630TIP3    H123525   0.664   6.630   1.150  2.1859 -0.4574  0.0665
  630TIP3    H223526   0.570   6.609   1.267 -0.1416  1.5767 -1.3331
  631TIP3   OH223527   2.650   5.854   6.642 -0.3777 -0.1660  0.4084
  631TIP3    H123528   2.743   5.832   6.632 -0.5323 -0.5844 -0.1387
  631TIP3    H223529   2.647   5.949   6.629  0.0017 -0.1151  0.6553
  632TIP3   OH223530   6.609   4.591   1.085 -0.6487  0.5483  0.5751
  632TIP3    H123531   6.661   4.632   1.016 -1.1739 -1.3730 -1.0455
  632TIP3    H223532   6.636   4.636   1.165  2.5932  0.4913 -0.3373
  633TIP3   OH223533   4.676   1.764   2.119  0.2085 -0.2873  0.4839
  633TIP3    H123534   4.719   1.834   2.069 -0.5665 -0.7491 -0.8701
  633TIP3    H223535   4.745   1.730   2.176  1.0154  0.5233  0.0138
  634TIP3   OH223536   1.421   3.978   0.397  0.1589 -0.0783  0.6118
  634TIP3    H123537   1.502   3.967   0.348  0.6243  1.6412  0.9292
  634TIP3    H223538   1.356   4.001   0.331 -0.3473 -2.4426  0.2224
  635TIP3   OH223539   2.123   5.263   1.755 -0.1267  0.0684  0.2061
  635TIP3    H123540   2.094   5.354   1.748  0.9813  0.3966 -0.3644
  635TIP3    H223541   2.208   5.261   1.711 -1.0191 -1.6810 -1.6352
  636TIP3   OH223542   4.533   1.891   8.590 -0.6217 -0.5385  0.0607
  636TIP3    H123543   4.452   1.867   8.636 -0.4193 -0.4330  0.4821
  636TIP3    H223544   4.599   1.896   8.660 -0.0112 -1.6856 -0.4111
  637TIP3   OH223545   0.654   6.536   8.066  0.0588 -0.1612 -0.5267
  637TIP3    H123546   0.602   6.614   8.047 -0.3773 -0.4860 -0.6897
  637TIP3    H223547   0.604   6.464   8.027 -0.4151 -0.7438  1.0875
  638TIP3   OH223548   6.458   0.898   0.925  0.1694 -0.1954  0.1608
  638TIP3    H123549   6.510   0.946   0.861 -0.2824  1.3184  0.8887
  638TIP3    H223550   6.369   0.899   0.891  0.0102  0.2085  0.5837
  639TIP3   OH223551   2.939   5.019   0.133 -0.3244  0.3648 -0.2078
  639TIP3    H123552   2.857   4.970   0.132 -0.9671  1.4205 -1.1022
  639TIP3    H223553   3.004   4.955   0.163 -1.8921  0.3056  3.5180
  640TIP3   OH223554   4.366   0.597   1.093 -0.3497 -0.2115  0.2098
  640TIP3    H123555   4.363   0.508   1.128  2.1215  0.2922  1.9770
  640TIP3    H223556   4.349   0.654   1.169  2.8805  0.8615  0.2901
  641TIP3   OH223557   2.695   6.286   0.413  0.6489 -0.2045  0.5976
  641TIP3    H123558   2.604   6.272   0.438 -0.4943  1.9727 -1.8978
  641TIP3    H223559   2.719   6.208   0.363  0.3451 -0.9885  1.6423
  642TIP3   OH223560   1.105   6.708   0.852 -0.4202 -0.0327  0.3830
  642TIP3    H123561   1.013   6.718   0.826 -0.4227  0.9055  0.7087
  642TIP3    H223562   1.102   6.703   0.947 -0.0900  0.5754  0.4278
  643TIP3   OH223563   5.614   0.562   0.287  0.2351  0.1815 -0.1587
  643TIP3    H123564   5.647   0.515   0.210 -0.3429 -0.7495  0.1536
  643TIP3    H223565   5.520   0.570   0.272  0.1563  0.2048  0.3406
  644TIP3   OH223566   5.334   5.973   1.156 -0.9919 -0.0565  0.3680
  644TIP3    H123567   5.276   5.934   1.221 -0.5572 -1.7708 -0.2243
  644TIP3    H223568   5.418   5.928   1.169 -0.6642  0.1974 -0.7905
  645TIP3   OH223569   3.508   4.477   7.761 -0.5867  0.1279  0.5900
  645TIP3    H123570   3.438   4.437   7.709 -0.3752 -1.1703  1.2642
  645TIP3    H223571   3.560   4.403   7.792 -0.4042  0.9090  2.2142
  646TIP3   OH223572   3.896   2.355   1.171 -0.2896 -0.3108  0.0270
  646TIP3    H123573   3.989   2.338   1.158 -0.2218  0.8411 -1.1567
  646TIP3    H223574   3.887   2.372   1.265  0.7567 -0.0086  0.0760
  647TIP3   OH223575   3.115   3.628   0.222 -0.3374 -0.9032  0.2240
  647TIP3    H123576   3.069   3.701   0.264 -0.6555 -1.4011  0.7529
  647TIP3    H223577   3.196   3.666   0.190 -0.8052 -0.1636 -0.1052
  648TIP3   OH223578   2.845   1.620   7.312 -0.1391 -0.2757 -1.2395
  648TIP3    H123579   2.897   1.554   7.357  0.0716  0.2050 -0.7706
  648TIP3    H223580   2.848   1.696   7.369 -2.9611 -0.8336 -0.1919
  649TIP3   OH223581   1.613   1.973   1.393  0.2847  0.6614 -0.2350
  649TIP3    H123582   1.585   2.028   1.319 -0.7490  0.6332  0.1277
  649TIP3    H223583   1.560   1.894   1.386  1.1134  0.0868 -0.2083
  650TIP3   OH223584   5.569   5.743   1.247 -0.6366 -0.5797  0.2335
  650TIP3    H123585   5.655   5.781   1.267 -0.0916 -1.3320 -0.6067
  650TIP3    H223586   5.526   5.735   1.332 -0.7041  1.6967  0.4718
  651TIP3   OH223587   3.279   6.295   7.657 -0.0459  0.3002  1.1967
  651TIP3    H123588   3.256   6.263   7.569 -2.2529  1.2393  1.3605
  651TIP3    H223589   3.359   6.345   7.644  1.1782 -1.7739  0.2259
  652TIP3   OH223590   5.470   5.336   0.915  0.4957  0.0464 -0.4531
  652TIP3    H123591   5.421   5.290   0.982 -0.2662  1.6479  0.1445
  652TIP3    H223592   5.504   5.414   0.959 -0.4438  1.4050 -2.0161
  653TIP3   OH223593   1.887   0.692   1.709  0.1089 -0.7979  0.4082
  653TIP3    H123594   1.813   0.705   1.768  0.8906  1.4462  0.9841
  653TIP3    H223595   1.964   0.720   1.760  1.0324 -0.6145 -1.0227
  654TIP3   OH223596   1.880   1.837   1.343 -0.1975  0.2254  0.2705
  654TIP3    H123597   1.790   1.867   1.337  0.0395  0.6752 -1.7396
  654TIP3    H223598   1.920   1.893   1.409 -1.2373  0.3849  0.7816
  655TIP3   OH223599   0.387   2.485   1.251  0.0621 -0.0622  0.0255
  655TIP3    H123600   0.320   2.460   1.187 -0.9065 -1.0939  1.3710
  655TIP3    H223601   0.387   2.413   1.314  0.4581  1.2538  1.5869
  656TIP3   OH223602   1.058   1.525   8.042 -0.9602  0.0006  0.1563
  656TIP3    H123603   1.102   1.445   8.014  0.0565  0.5824  0.0489
  656TIP3    H223604   0.985   1.495   8.097 -1.4951 -1.0494 -1.0799
  657TIP3   OH223605   6.567   0.988   8.625  0.0179  0.0210  0.2316
  657TIP3    H123606   6.636   0.996   8.691  0.1401 -1.9330  0.4061
  657TIP3    H223607   6.593   1.048   8.555  0.5389  1.1929  1.3861
  658TIP3   OH223608   1.030   6.699   8.117 -0.0208 -0.0251 -0.2184
  658TIP3    H123609   0.966   6.631   8.138  0.4391 -0.3461  0.1767
  658TIP3    H223610   0.999   6.777   8.164 -0.7580  0.1566 -0.9846
  659TIP3   OH223611   5.305   2.745   0.870  0.4836  0.1784 -0.1948
  659TIP3    H123612   5.384   2.800   0.863 -0.2974  1.4186  0.3739
  659TIP3    H223613   5.335   2.665   0.913  1.7266 -0.0201 -1.3635
  660TIP3   OH223614   0.659   3.218   7.965  0.2433 -0.0357  0.1713
  660TIP3    H123615   0.655   3.123   7.979 -1.6392 -0.3382 -1.8903
  660TIP3    H223616   0.653   3.229   7.870  1.1415  2.1482  0.3100
  661TIP3   OH223617   5.984   4.299   7.032  0.4867 -0.0213  0.1299
  661TIP3    H123618   6.024   4.305   7.119  0.8866  0.4472 -0.0799
  661TIP3    H223619   6.003   4.383   6.991 -1.9686  0.8054  0.5255
  662TIP3   OH223620   2.816   5.646   7.212  0.0978 -0.7204 -0.1518
  662TIP3    H123621   2.846   5.717   7.155  1.7943 -0.1426  1.3421
  662TIP3    H223622   2.742   5.608   7.166  1.7141 -0.6939 -3.0371
  663TIP3   OH223623   0.746   6.422   0.515 -0.1667  0.3308 -0.1867
  663TIP3    H123624   0.802   6.363   0.464 -0.1830  0.6946 -0.6330
  663TIP3    H223625   0.736   6.499   0.459 -0.6959  0.4782  0.1104
  664TIP3   OH223626   1.700   5.665   8.594  0.2314 -0.0393  0.1368
  664TIP3    H123627   1.731   5.677   8.504 -1.5494 -0.5671 -0.5805
  664TIP3    H223628   1.693   5.570   8.605 -1.4317  0.0474  0.1225
  665TIP3   OH223629   2.016   0.154   1.504 -0.9595 -0.3031 -0.0142
  665TIP3    H123630   1.952   0.101   1.552 -1.5527  1.4074  1.2132
  665TIP3    H223631   2.072   0.191   1.573  2.2885 -2.7398 -1.0943
  666TIP3   OH223632   1.746   0.757   7.910  0.0352 -0.3851 -0.2990
  666TIP3    H123633   1.707   0.678   7.948  1.3663 -1.4887 -1.1175
  666TIP3    H223634   1.797   0.725   7.835  0.4766  1.2786 -0.7518
  667TIP3   OH223635   5.150   4.644   6.464  0.2004 -0.2985  0.0106
  667TIP3    H123636   5.068   4.693   6.457  0.1601 -0.5597 -1.8142
  667TIP3    H223637   5.123   4.552   6.462  0.5108 -0.3852 -0.4272
  668TIP3   OH223638   6.151   1.364   7.233 -0.2180 -0.1814 -0.4995
  668TIP3    H123639   6.181   1.454   7.228  0.3423 -0.3908 -1.0951
  668TIP3    H223640   6.057   1.370   7.251 -0.7328  0.6042 -3.0043
  669TIP3   OH223641   6.473   5.982   1.510  0.3102  0.1912 -0.1802
  669TIP3    H123642   6.406   5.943   1.567 -2.1627 -0.2262 -3.1389
  669TIP3    H223643   6.464   6.076   1.523 -0.5045  0.1163 -0.1460
  670TIP3   OH223644   1.543   2.777   8.142 -0.0508 -0.4672  0.2469
  670TIP3    H123645   1.537   2.697   8.193 -0.4301  0.6372  2.0309
  670TIP3    H223646   1.460   2.782   8.095  0.6684 -1.9647 -1.2724
  671TIP3   OH223647   5.705   3.457   1.286  0.4323  0.0088 -0.3965
  671TIP3    H123648   5.710   3.368   1.322  1.3970 -0.2381 -1.1055
  671TIP3    H223649   5.619   3.489   1.313 -0.3151 -1.4853 -0.9149
  672TIP3   OH223650   0.095   1.365   2.245 -0.0828 -0.3974  0.2263
  672TIP3    H123651   0.190   1.378   2.248 -0.0841 -0.0593 -0.7885
  672TIP3    H223652   0.076   1.306   2.319  1.0863 -1.5246 -0.3373
  673TIP3   OH223653   4.521   1.400   8.472  0.4342  0.4874 -0.1669
  673TIP3    H123654   4.607   1.439   8.458 -0.3950  2.4474 -0.1176
  673TIP3    H223655   4.497   1.426   8.560 -0.9497  1.5511 -0.8186
  674TIP3   OH223656   0.847   0.215   0.795  0.0983  0.0342 -0.1910
  674TIP3    H123657   0.888   0.186   0.714  0.9209 -0.5743  0.4268
  674TIP3    H223658   0.796   0.292   0.770  2.4201  1.4571 -0.8345
  675TIP3   OH223659   0.352   3.610   7.148 -1.1103 -0.1636  0.4731
  675TIP3    H123660   0.282   3.569   7.098 -0.1281 -0.5441 -0.6196
  675TIP3    H223661   0.325   3.601   7.239 -3.1340  0.9078  0.0204
  676TIP3   OH223662   0.734   0.840   0.292  0.2685 -0.6608 -0.2196
  676TIP3    H123663   0.733   0.825   0.198  1.1263  1.1203 -0.5531
  676TIP3    H223664   0.663   0.785   0.326 -1.1103 -0.1228 -2.0792
  677TIP3   OH223665   3.558   0.219   6.137 -0.6139 -0.5520 -0.8537
  677TIP3    H123666   3.616   0.296   6.132  2.3872 -2.6253 -0.5751
  677TIP3    H223667   3.516   0.228   6.223 -0.3417  0.7776 -0.8245
  678TIP3   OH223668   1.756   4.334   8.780 -0.2779  0.4795  0.1195
  678TIP3    H123669   1.738   4.409   8.836  1.6435  1.4445 -0.4880
  678TIP3    H223670   1.714   4.355   8.696  1.5550  1.6682 -0.5604
  679TIP3   OH223671   3.369   3.638   1.242  0.1057  0.5014  0.5352
  679TIP3    H123672   3.406   3.551   1.258 -3.1682 -0.6909  2.5910
  679TIP3    H223673   3.389   3.687   1.321 -1.9228  0.0597  1.3719
  680TIP3   OH223674   2.701   3.782   0.288  0.1514 -0.5352  1.5570
  680TIP3    H123675   2.695   3.686   0.290 -1.3613 -0.5118  0.0688
  680TIP3    H223676   2.611   3.811   0.276  0.7104  1.0508  1.0245
  681TIP3   OH223677   1.288   1.185   0.751 -0.0598  0.0393  0.4117
  681TIP3    H123678   1.247   1.265   0.719 -1.0292  0.2155  1.9576
  681TIP3    H223679   1.339   1.214   0.827 -0.1774 -0.7660  0.8006
  682TIP3   OH223680   4.324   2.488   2.392 -0.0911  0.6372  0.1159
  682TIP3    H123681   4.262   2.484   2.465  1.0270 -1.1452  1.0275
  682TIP3    H223682   4.391   2.550   2.420 -0.1459  0.6639  0.1871
  683TIP3   OH223683   4.808   4.708   7.889  0.4252 -0.3909 -0.5905
  683TIP3    H123684   4.844   4.694   7.976  1.1987 -0.4747 -0.9185
  683TIP3    H223685   4.732   4.649   7.885  0.1046 -0.0421  0.1837
  684TIP3   OH223686   2.753   5.415   7.690 -0.1609  0.2846 -0.5937
  684TIP3    H123687   2.658   5.414   7.686 -0.1625  1.5182 -1.3419
  684TIP3    H223688   2.781   5.420   7.598  0.5934  0.9171 -0.3450
  685TIP3   OH223689   4.825   5.283   6.975 -0.1943  0.4515 -0.1422
  685TIP3    H123690   4.822   5.375   6.952 -0.7825  0.5407  0.2701
  685TIP3    H223691   4.888   5.278   7.048 -0.4865  0.5926  0.1215
  686TIP3   OH223692   5.288   6.079   8.442  0.0075  0.5184 -0.0556
  686TIP3    H123693   5.269   5.988   8.421 -0.4518  0.5855  0.0669
  686TIP3    H223694   5.352   6.106   8.375 -0.7980  0.4779 -0.8540
  687TIP3   OH223695   5.486   5.437   0.039 -0.1421 -0.3628  0.5491
  687TIP3    H123696   5.505   5.385  -0.039 -0.9477 -0.7043  0.5801
  687TIP3    H223697   5.432   5.380   0.094 -1.8769  0.8259  0.1542
  688TIP3   OH223698   4.299   3.288   1.192 -0.2699 -0.4972  0.4765
  688TIP3    H123699   4.338   3.376   1.195  2.0396 -1.1623 -3.2075
  688TIP3    H223700   4.209   3.303   1.165  0.3272  0.7747 -0.9666
  689TIP3   OH223701   3.913   2.950   8.795  0.4557 -0.1659 -0.6675
  689TIP3    H123702   3.933   2.860   8.819  0.1209  0.0366  0.4647
  689TIP3    H223703   3.898   2.948   8.701 -1.2939 -1.6209 -0.4005
  690TIP3   OH223704   3.987   3.085   8.130 -0.1850 -0.0786 -0.1690
  690TIP3    H123705   3.994   3.112   8.038  2.0231 -1.8935 -0.6211
  690TIP3    H223706   3.906   3.126   8.161 -0.7592  0.9531 -2.7796
  691TIP3   OH223707   3.484   2.620   1.758  0.1699 -0.0602 -0.0120
  691TIP3    H123708   3.475   2.609   1.852  1.2738  0.1577  0.1380
  691TIP3    H223709   3.578   2.633   1.744 -0.1393  1.4325 -0.9861
  692TIP3   OH223710   4.234   3.927   0.159 -0.6956  0.0822  0.6643
  692TIP3    H123711   4.280   4.005   0.191 -0.8361  1.0270 -1.2718
  692TIP3    H223712   4.232   3.868   0.234  1.6150  0.9372  1.5103
  693TIP3   OH223713   3.500   2.976   0.756  0.0682  0.1266  0.1801
  693TIP3    H123714   3.485   2.913   0.827  0.4975  0.5824  0.6803
  693TIP3    H223715   3.577   2.941   0.710 -2.9366 -2.9045 -3.1560
  694TIP3   OH223716   4.409   3.425   1.993 -0.2485 -0.5925  0.3773
  694TIP3    H123717   4.375   3.338   2.010  0.3643 -0.9601 -0.2449
  694TIP3    H223718   4.340   3.469   1.943  0.1976 -1.3749 -0.9834
  695TIP3   OH223719   5.514   3.088   0.091 -0.4198 -0.2485  0.0102
  695TIP3    H123720   5.436   3.097   0.146  0.1127 -1.5396  1.0283
  695TIP3    H223721   5.586   3.116   0.148  0.4214 -3.7282  0.8868
  696TIP3   OH223722   2.173   4.237   0.940  0.6133 -0.2056  0.5295
  696TIP3    H123723   2.242   4.299   0.965  0.3860 -0.2290  1.2525
  696TIP3    H223724   2.205   4.195   0.861  1.3275 -0.0500  0.7317
  697TIP3   OH223725   6.253   5.093   1.477  0.2787 -0.4153  0.1663
  697TIP3    H123726   6.224   5.180   1.505 -0.4219 -1.2145  2.0377
  697TIP3    H223727   6.191   5.032   1.516  1.5516 -1.8625  0.0478
  698TIP3   OH223728   3.911   2.220   7.756 -0.2814  0.1852 -0.1673
  698TIP3    H123729   3.969   2.146   7.777 -0.7712  0.0003  0.5811
  698TIP3    H223730   3.925   2.236   7.663  1.3418  0.4717  0.0978
  699TIP3   OH223731   3.520   5.672   8.047  0.1054  0.7812 -0.1699
  699TIP3    H123732   3.535   5.758   8.085  1.6188  0.6271 -0.3510
  699TIP3    H223733   3.467   5.626   8.112  0.3855  1.4155  0.5195
  700TIP3   OH223734   4.832   3.408   8.586  0.4724  0.1627 -0.2243
  700TIP3    H123735   4.737   3.400   8.598  0.4003 -0.0118 -0.8601
  700TIP3    H223736   4.841   3.458   8.506  0.9145 -0.2334 -0.4256
  701TIP3   OH223737   5.298   0.719   2.668 -0.2673  0.4004  0.5926
  701TIP3    H123738   5.222   0.777   2.671  0.3297  1.2365  0.1373
  701TIP3    H223739   5.329   0.724   2.577 -1.1128 -1.8702  0.1143
  702TIP3   OH223740   0.290   2.845   7.086  0.2180 -0.1928  0.1345
  702TIP3    H123741   0.248   2.931   7.088 -1.0276 -0.7599 -0.2263
  702TIP3    H223742   0.376   2.859   7.126  0.3457  1.3631 -0.6079
  703TIP3   OH223743   5.611   4.809   6.759  0.0540  0.3224  0.0960
  703TIP3    H123744   5.554   4.886   6.752 -0.9317 -0.3841  0.0889
  703TIP3    H223745   5.590   4.771   6.844  1.4222  0.7133  0.6428
  704TIP3   OH223746   2.323   6.389   7.940 -0.1989 -0.2254 -0.5703
  704TIP3    H123747   2.385   6.449   7.899 -0.0687 -0.8508 -1.3279
  704TIP3    H223748   2.292   6.334   7.868 -2.5165  0.7896 -0.4556
  705TIP3   OH223749   3.858   6.236   7.752  0.5269 -0.1904  0.5408
  705TIP3    H123750   3.839   6.159   7.806 -1.3170  1.4531  2.3878
  705TIP3    H223751   3.944   6.265   7.780  1.1014 -1.3584  0.0492
  706TIP3   OH223752   0.703   5.658   1.463 -0.5105  0.0665  0.5756
  706TIP3    H123753   0.723   5.751   1.471 -0.9801  0.0944  1.5670
  706TIP3    H223754   0.782   5.619   1.425 -0.3359  0.8712  0.1095
  707TIP3   OH223755   2.537   3.219   8.441  0.2409  0.5965  0.4249
  707TIP3    H123756   2.474   3.148   8.427  1.2314  0.0855 -1.7703
  707TIP3    H223757   2.621   3.181   8.418  0.9509  2.1467  0.3837
  708TIP3   OH223758   2.929   1.167   0.456  1.0004  0.2425  0.3409
  708TIP3    H123759   2.988   1.093   0.442  0.4632 -0.1906  0.3089
  708TIP3    H223760   2.939   1.222   0.379  0.6416 -0.3310 -0.1185
  709TIP3   OH223761   3.660   0.779   7.032  0.0101  0.0429  0.3586
  709TIP3    H123762   3.651   0.810   6.942  1.1166 -0.8734 -0.0949
  709TIP3    H223763   3.723   0.707   7.026  1.9719  1.4531  2.1702
  710TIP3   OH223764   5.441   1.540   1.191 -0.1956  0.1556  0.0589
  710TIP3    H123765   5.454   1.446   1.185  2.1193  0.3450  1.1962
  710TIP3    H223766   5.354   1.549   1.229 -0.0399 -1.5542  0.9158
  711TIP3   OH223767   1.434   6.054   2.072  0.2444  0.2571 -0.0315
  711TIP3    H123768   1.370   6.114   2.032  1.2542  1.2681 -0.1830
  711TIP3    H223769   1.429   6.073   2.166 -1.2709 -1.2766  0.2489
  712TIP3   OH223770   0.917   0.900   7.977  0.5329 -0.3300 -0.1825
  712TIP3    H123771   0.830   0.889   7.937  0.6837 -0.5387 -0.4591
  712TIP3    H223772   0.978   0.863   7.913  0.8783  0.3110 -0.2353
  713TIP3   OH223773   2.336   4.272   7.457  0.1651  0.3755  0.6922
  713TIP3    H123774   2.322   4.250   7.549  0.7322  0.8225  0.8915
  713TIP3    H223775   2.417   4.322   7.457 -0.0621  0.7535  0.0078
  714TIP3   OH223776   3.408   1.621   8.505 -0.0989  0.4897 -0.0506
  714TIP3    H123777   3.487   1.671   8.525 -0.8266  1.4702  0.4100
  714TIP3    H223778   3.336   1.683   8.514 -1.4568 -1.3410  4.0362
  715TIP3   OH223779   4.711   1.827   0.405 -0.0602  0.3253 -0.3923
  715TIP3    H123780   4.691   1.733   0.399 -0.6154  0.5095 -1.9758
  715TIP3    H223781   4.631   1.867   0.437  0.7617  0.1017  2.1531
  716TIP3   OH223782   2.253   2.022   2.390 -0.0009  0.8952  0.4780
  716TIP3    H123783   2.313   2.066   2.330  1.8014 -1.7617  0.1789
  716TIP3    H223784   2.171   2.014   2.340  1.7604 -2.3230 -2.4046
  717TIP3   OH223785   0.840   6.048   7.551 -0.4644  0.1023  0.6923
  717TIP3    H123786   0.897   6.121   7.576 -1.2536  1.5970 -1.5034
  717TIP3    H223787   0.899   5.985   7.510  0.1047 -0.0980  1.7865
  718TIP3   OH223788   2.202   3.780   1.772 -0.6108 -0.5725 -0.6934
  718TIP3    H123789   2.272   3.785   1.706 -0.0079 -0.0925 -0.0252
  718TIP3    H223790   2.228   3.707   1.828 -0.9093 -0.7129 -0.7373
  719TIP3   OH223791   1.631   1.590   0.586 -0.0193 -0.1496  0.5501
  719TIP3    H123792   1.692   1.649   0.630  1.1601  0.3655 -1.6426
  719TIP3    H223793   1.638   1.508   0.635  2.2926 -0.0365  0.5274
  720TIP3   OH223794   3.922   3.221   0.089  0.5699  0.0502  0.0516
  720TIP3    H123795   3.921   3.126   0.098  0.9344  0.1051  0.6900
  720TIP3    H223796   3.991   3.251   0.148 -0.3454  0.8055  0.7768
  721TIP3   OH223797   6.606   3.063   8.033  0.2533  0.3972 -0.2498
  721TIP3    H123798   6.600   3.128   8.103 -0.0609  0.8631 -0.7079
  721TIP3    H223799   6.565   3.104   7.957 -0.5394 -0.5759 -0.3770
  722TIP3   OH223800   4.320   2.763   0.285  1.2517  0.6149 -0.3729
  722TIP3    H123801   4.295   2.712   0.208 -2.7316  0.8592  0.5207
  722TIP3    H223802   4.366   2.701   0.342 -0.4479 -1.0838 -0.7655
  723TIP3   OH223803   1.885   2.403   1.871  0.2006  0.3683 -0.4557
  723TIP3    H123804   1.861   2.311   1.882  0.4951  0.4153  0.7352
  723TIP3    H223805   1.805   2.445   1.840 -0.9832  0.2919  2.1813
  724TIP3   OH223806   0.325   1.172   8.610 -0.5800  0.7988  0.5805
  724TIP3    H123807   0.316   1.122   8.529 -1.5650 -0.5189  1.4456
  724TIP3    H223808   0.247   1.228   8.612 -0.9207  0.3237  0.9272
  725TIP3   OH223809   0.605   3.883   8.128  0.3334  0.4265 -0.6892
  725TIP3    H123810   0.578   3.877   8.036  2.6759  1.3521 -1.4965
  725TIP3    H223811   0.593   3.975   8.150 -1.0908  0.0523  0.2901
  726TIP3   OH223812   6.469   4.660   1.322  0.1072 -0.4096  0.0923
  726TIP3    H123813   6.426   4.677   1.405  0.1242  1.7982 -0.2799
  726TIP3    H223814   6.562   4.676   1.339  0.2971 -1.3182 -0.0368
  727TIP3   OH223815   4.250   3.380   7.540 -0.3243 -0.2795 -0.2463
  727TIP3    H123816   4.172   3.429   7.565  0.0157 -0.3393  0.9788
  727TIP3    H223817   4.323   3.433   7.573  0.0391 -2.5691  3.1724
  728TIP3   OH223818   6.619   2.390   1.797 -0.0299 -0.1056 -0.2777
  728TIP3    H123819   6.710   2.368   1.778  0.7810  1.8585  1.0288
  728TIP3    H223820   6.606   2.476   1.757 -1.7714 -0.9272 -1.6005
  729TIP3   OH223821   1.029   6.013   1.625  0.0470  0.5031 -0.1720
  729TIP3    H123822   0.960   5.999   1.560  0.2306 -2.1979  0.0821
  729TIP3    H223823   0.991   5.983   1.707  0.6752  1.4591  0.4931
  730TIP3   OH223824   4.925   6.461   7.618 -0.1358 -0.4612 -0.4545
  730TIP3    H123825   4.867   6.434   7.689 -1.0506 -1.9064 -1.6757
  730TIP3    H223826   4.975   6.534   7.653  0.1660 -1.7619  2.0067
  731TIP3   OH223827   0.224   0.652   0.344  0.2806  0.8853 -0.2416
  731TIP3    H123828   0.234   0.576   0.401 -0.9125  0.8217 -0.0793
  731TIP3    H223829   0.202   0.616   0.258 -0.7763  1.0237 -0.0531
  732TIP3   OH223830   6.484   5.757   6.661  0.0199 -0.5216  0.2343
  732TIP3    H123831   6.467   5.804   6.742 -3.3842 -1.5519  0.3130
  732TIP3    H223832   6.428   5.679   6.667 -0.8015 -0.3559 -3.2925
  733TIP3   OH223833   1.192   5.655   0.032  0.0857  0.2069 -0.7693
  733TIP3    H123834   1.252   5.691  -0.034 -0.3766 -1.2677 -2.0697
  733TIP3    H223835   1.105   5.679  -0.000 -0.0996  1.5134  0.6036
  734TIP3   OH223836   5.579   5.346   0.435  0.1373 -0.5405 -0.0528
  734TIP3    H123837   5.500   5.399   0.442  0.6006 -0.0104  1.5665
  734TIP3    H223838   5.603   5.326   0.525  1.7598 -0.8241 -0.5029
  735TIP3   OH223839   0.685   2.941   2.022 -0.1791  0.0885  0.0895
  735TIP3    H123840   0.634   2.985   2.090  0.6901  1.2927 -0.0102
  735TIP3    H223841   0.764   2.911   2.067 -0.2464 -0.3730 -0.0911
  736TIP3   OH223842   5.088   3.567   2.214  0.4255 -0.4408  0.1659
  736TIP3    H123843   5.141   3.488   2.225  2.0201 -0.1157 -3.5460
  736TIP3    H223844   5.148   3.638   2.235  0.0762 -0.1592  0.1994
  737TIP3   OH223845   5.298   2.278   8.081  0.0438 -0.4922  0.1379
  737TIP3    H123846   5.245   2.250   8.155 -0.2037 -0.6853 -0.1071
  737TIP3    H223847   5.247   2.349   8.041 -1.5470 -2.5847 -1.8500
  738TIP3   OH223848   5.133   6.201   1.490  0.3775 -0.1875  0.0904
  738TIP3    H123849   5.089   6.222   1.572  1.5631 -1.2906  1.0377
  738TIP3    H223850   5.215   6.159   1.516  1.3391  0.5027 -1.6390
  739TIP3   OH223851   6.349   2.751   7.198  0.0471 -0.0681 -0.6723
  739TIP3    H123852   6.350   2.700   7.116 -0.9364 -1.1399 -0.0394
  739TIP3    H223853   6.256   2.761   7.219  0.2738  0.8473 -0.0717
  740TIP3   OH223854   0.226   6.473   0.097  0.3642 -0.0148  0.1724
  740TIP3    H123855   0.193   6.552   0.139  1.3601 -0.1212  1.2277
  740TIP3    H223856   0.225   6.492   0.003 -2.0564  0.1827  0.1913
  741TIP3   OH223857   2.283   2.488   1.967 -0.1128  0.4816  0.2572
  741TIP3    H123858   2.279   2.413   1.907 -0.7405 -0.0181  0.9051
  741TIP3    H223859   2.316   2.451   2.049  1.4719  1.3075  0.0227
  742TIP3   OH223860   1.411   2.452   0.809  0.3707 -0.2213  0.0466
  742TIP3    H123861   1.446   2.470   0.722 -2.8756  1.6696 -1.0791
  742TIP3    H223862   1.347   2.382   0.795 -1.1709  1.0232  0.5345
  743TIP3   OH223863   0.786   5.962   6.984 -0.3847 -0.2147 -0.0291
  743TIP3    H123864   0.840   6.039   6.964 -0.9305  0.2523  0.2463
  743TIP3    H223865   0.711   5.970   6.925 -0.0475 -0.9874 -0.5766
  744TIP3   OH223866   3.251   1.195   8.691 -0.7576  0.1346 -0.5512
  744TIP3    H123867   3.195   1.194   8.769 -0.7453 -0.7391 -0.5401
  744TIP3    H223868   3.259   1.287   8.668 -1.8510  0.2977 -0.3018
  745TIP3   OH223869   3.854   2.570   2.452  0.3194 -0.2871  0.1529
  745TIP3    H123870   3.883   2.497   2.506  0.2731 -0.1502  0.3610
  745TIP3    H223871   3.905   2.645   2.482  0.4899 -0.2693 -0.1768
  746TIP3   OH223872   2.008   1.153   7.070 -0.0975  0.6497 -0.2240
  746TIP3    H123873   2.003   1.215   6.997  0.5820 -0.8359 -1.6031
  746TIP3    H223874   1.922   1.159   7.112 -0.6580  1.2691 -1.3954
  747TIP3   OH223875   5.105   2.407   0.365 -0.1364  0.6105  0.4380
  747TIP3    H123876   5.133   2.343   0.430 -0.2084 -1.0698 -1.0906
  747TIP3    H223877   5.184   2.461   0.349  0.9177 -1.1167 -0.4766
  748TIP3   OH223878   5.619   5.259   7.550  0.4232  0.8627  0.0726
  748TIP3    H123879   5.586   5.174   7.580 -1.0462  0.6654 -1.9002
  748TIP3    H223880   5.545   5.319   7.562  1.2921  1.7789  1.0005
  749TIP3   OH223881   0.241   4.086   2.521 -0.0259  0.1657  0.0604
  749TIP3    H123882   0.215   4.118   2.608  2.5232 -2.0297  1.8115
  749TIP3    H223883   0.203   3.998   2.515  0.0841  0.1741 -0.9075
  750TIP3   OH223884   3.847   3.625   0.002  0.1904 -0.0606 -0.0596
  750TIP3    H123885   3.912   3.613  -0.067 -1.0139  0.6116 -1.3779
  750TIP3    H223886   3.763   3.624  -0.044 -0.7943 -1.4141  1.6379
  751TIP3   OH223887   4.783   4.729   8.182 -0.5799 -0.9121 -0.3435
  751TIP3    H123888   4.822   4.817   8.176  0.0114 -1.2871 -3.6137
  751TIP3    H223889   4.854   4.675   8.218 -0.4502 -0.3429  0.2863
  752TIP3   OH223890   6.801   0.247   7.889 -1.0357 -0.3069  0.7937
  752TIP3    H123891   6.855   0.326   7.889  0.4518 -1.2177  3.0319
  752TIP3    H223892   6.713   0.279   7.910 -0.7528  0.8850  0.2403
  753TIP3   OH223893   6.004   5.132   1.656  0.2076 -0.1772  0.1265
  753TIP3    H123894   5.954   5.050   1.656  0.4241 -0.3716 -1.7711
  753TIP3    H223895   5.975   5.178   1.577  0.3351  1.4453  0.9846
  754TIP3   OH223896   3.082   6.005   1.792 -0.7472 -0.3404  0.1773
  754TIP3    H123897   3.172   6.038   1.797 -1.3885  1.6978 -0.7450
  754TIP3    H223898   3.060   5.983   1.882  0.2459  0.3281  0.5986
  755TIP3   OH223899   1.210   0.893   0.792 -0.6224  0.4480 -0.1865
  755TIP3    H123900   1.282   0.869   0.733 -0.8507 -1.6584  0.3118
  755TIP3    H223901   1.251   0.905   0.877 -0.8719 -1.1456  0.1829
  756TIP3   OH223902   6.449   4.567   0.004 -0.8620 -0.0313 -0.0630
  756TIP3    H123903   6.375   4.581   0.063 -1.1121 -0.2990 -0.3088
  756TIP3    H223904   6.409   4.541  -0.079 -0.4635 -0.8707 -0.0010
  757TIP3   OH223905   6.085   1.690   7.473 -0.0565 -0.0959  0.3397
  757TIP3    H123906   6.161   1.655   7.520  0.9775  1.5591 -0.0039
  757TIP3    H223907   6.115   1.698   7.383 -1.0355 -0.4606 -0.0282
  758TIP3   OH223908   6.341   0.755   0.236  0.0848  0.5720 -0.0718
  758TIP3    H123909   6.311   0.747   0.327  2.2748 -2.0173  0.5388
  758TIP3    H223910   6.261   0.773   0.186 -1.4787  0.1328  2.1271
  759TIP3   OH223911   5.878   2.582   7.457  0.1273  0.1221 -0.1851
  759TIP3    H123912   5.795   2.627   7.470 -0.3410 -1.0549  1.0680
  759TIP3    H223913   5.862   2.521   7.384 -0.3838 -0.7079  0.6031
  760TIP3   OH223914   1.177   2.247   6.392 -0.4249 -0.0759 -0.7501
  760TIP3    H123915   1.267   2.276   6.409 -1.6356  3.0059  1.3292
  760TIP3    H223916   1.149   2.300   6.318 -1.2802  0.9065  0.2461
  761TIP3   OH223917   5.561   1.836   7.593 -0.0988 -0.1899  0.1832
  761TIP3    H123918   5.655   1.828   7.577  0.1734 -0.1233  1.5585
  761TIP3    H223919   5.545   1.780   7.669 -1.2539 -0.5310 -0.2918
  762TIP3   OH223920   5.042   5.249   1.237 -0.5902 -0.2381 -0.5102
  762TIP3    H123921   5.083   5.188   1.298 -1.1407  0.6417  0.7637
  762TIP3    H223922   4.951   5.256   1.265 -0.2932  2.0001  0.0891
  763TIP3   OH223923   1.558   2.593   0.311  0.0597  0.5419 -0.2470
  763TIP3    H123924   1.592   2.666   0.363 -0.2270 -0.2982  1.1526
  763TIP3    H223925   1.464   2.608   0.308  0.0028  0.2270  0.0279
  764TIP3   OH223926   6.172   5.995   0.592 -0.2488 -0.0542 -0.6981
  764TIP3    H123927   6.117   6.070   0.612 -0.5051  0.5456 -3.2377
  764TIP3    H223928   6.257   6.017   0.630 -0.6966  0.8560 -0.1763
  765TIP3   OH223929   3.647   1.020   1.513  0.5268 -0.2566 -0.4329
  765TIP3    H123930   3.679   0.934   1.538  0.4532  0.0063  0.5974
  765TIP3    H223931   3.575   1.038   1.574  0.5341  0.5253 -0.6412
  766TIP3   OH223932   4.379   0.323   7.893 -0.2069 -0.0825 -0.2060
  766TIP3    H123933   4.452   0.262   7.901 -0.0085 -0.3266 -2.8792
  766TIP3    H223934   4.407   0.401   7.940  1.4073 -0.5049 -0.4246
  767TIP3   OH223935   2.362   3.375   0.772 -0.1010 -0.9525 -0.3672
  767TIP3    H123936   2.268   3.392   0.768  0.2410  1.2657 -0.2248
  767TIP3    H223937   2.382   3.368   0.865 -0.2652 -2.6624 -0.4183
  768TIP3   OH223938   0.317   6.671   2.118 -0.3261 -0.0281  0.3397
  768TIP3    H123939   0.320   6.637   2.028  0.8651  2.4682 -0.6779
  768TIP3    H223940   0.398   6.638   2.158  0.0177  0.2600 -0.1021
  769TIP3   OH223941   3.275   6.299   7.380 -0.4663  0.2418 -0.2489
  769TIP3    H123942   3.203   6.362   7.387 -0.2555  0.8691 -2.6601
  769TIP3    H223943   3.246   6.238   7.312 -0.0329 -1.4478  1.0024
  770TIP3   OH223944   4.379   0.476   1.664 -0.1552  0.5749 -0.0792
  770TIP3    H123945   4.364   0.564   1.697 -0.9282  0.5802 -0.4359
  770TIP3    H223946   4.292   0.436   1.660  0.3561 -1.0258  2.3296
  771TIP3   OH223947   3.583   1.875   0.382  0.4163 -0.1776  0.4854
  771TIP3    H123948   3.616   1.964   0.387  0.5964 -0.3143  2.0931
  771TIP3    H223949   3.593   1.851   0.290 -1.0108  1.9623 -0.3137
  772TIP3   OH223950   5.807   4.321   0.874  0.0977 -0.1419  0.3767
  772TIP3    H123951   5.746   4.318   0.800  0.5077 -1.8518  0.0601
  772TIP3    H223952   5.772   4.389   0.931 -1.5695 -0.4012 -0.2610
  773TIP3   OH223953   6.531   2.104   1.994 -0.4012 -0.3836 -0.1358
  773TIP3    H123954   6.555   2.075   1.906 -1.3753 -2.7073  0.3103
  773TIP3    H223955   6.559   2.196   1.997  1.2579 -0.7439 -2.2439
  774TIP3   OH223956   6.277   4.213   2.449  0.3470  0.1537  0.4565
  774TIP3    H123957   6.199   4.263   2.471  0.6377  1.6737 -1.6059
  774TIP3    H223958   6.245   4.124   2.432 -0.4897  0.0778  2.1786
  775TIP3   OH223959   3.013   2.071   8.036 -0.1993 -0.1559 -0.3798
  775TIP3    H123960   3.066   2.010   7.985 -1.3557 -1.3066 -0.2361
  775TIP3    H223961   3.064   2.152   8.035  0.1744 -0.3306 -2.7309
  776TIP3   OH223962   1.242   4.399   0.545  0.0561  0.1143 -0.1936
  776TIP3    H123963   1.298   4.360   0.477  0.0411  0.4256 -0.3875
  776TIP3    H223964   1.267   4.353   0.625  0.5827  0.2346 -0.2801
  777TIP3   OH223965   6.030   4.895   1.467 -0.2651  0.1886 -0.0242
  777TIP3    H123966   5.943   4.934   1.472 -0.9823 -1.3706 -0.0789
  777TIP3    H223967   6.022   4.824   1.404  0.8671 -0.4229  0.4945
  778TIP3   OH223968   6.686   0.951   7.159 -0.2937 -0.2747  0.7408
  778TIP3    H123969   6.627   0.876   7.160  1.3192 -1.6313  2.2133
  778TIP3    H223970   6.774   0.912   7.158  0.6015  1.6284  0.0506
  779TIP3   OH223971   1.002   3.252   2.309  0.2950 -0.3435 -0.1943
  779TIP3    H123972   1.052   3.328   2.278 -0.4615 -0.5984 -2.2006
  779TIP3    H223973   0.918   3.258   2.263 -0.1300 -1.8834  0.3195
  780TIP3   OH223974   3.408   1.223   0.697 -0.1399 -0.2004  0.0814
  780TIP3    H123975   3.504   1.231   0.699 -0.0433 -1.1397  1.2577
  780TIP3    H223976   3.384   1.239   0.606  0.9893  1.4412  0.0288
  781TIP3   OH223977   3.551   6.245   7.828 -0.3239 -0.8938 -0.7159
  781TIP3    H123978   3.484   6.263   7.893 -1.0540  0.7605 -1.8485
  781TIP3    H223979   3.556   6.149   7.824 -1.8374 -1.0347  0.1576
  782TIP3   OH223980   3.365   2.702   6.763  0.1149  0.2465  0.2354
  782TIP3    H123981   3.406   2.726   6.846 -1.2024  0.2904  0.9051
  782TIP3    H223982   3.295   2.641   6.788  0.1714 -0.3229 -0.9297
  783TIP3   OH223983   3.699   0.635   1.227 -0.5940 -0.9133  0.6511
  783TIP3    H123984   3.794   0.641   1.236 -0.5142 -0.7795 -0.2480
  783TIP3    H223985   3.669   0.726   1.227 -0.8389 -0.9721  1.9929
  784TIP3   OH223986   4.720   6.176   8.565  0.1369 -0.2769 -0.0642
  784TIP3    H123987   4.799   6.198   8.615  0.0473  0.7383 -0.3543
  784TIP3    H223988   4.728   6.226   8.484 -0.6845 -0.3711 -0.2111
  785TIP3   OH223989   5.716   1.289   7.830  0.2837  0.3100  0.2821
  785TIP3    H123990   5.788   1.229   7.848  1.8300  1.9853  0.0656
  785TIP3    H223991   5.656   1.278   7.904  1.1361 -0.5821  0.8716
  786TIP3   OH223992   4.093   5.475   1.251 -0.1629 -0.0655  0.0063
  786TIP3    H123993   4.172   5.521   1.282  1.2230 -1.5401 -1.1689
  786TIP3    H223994   4.043   5.542   1.204  0.5225  0.8439  0.5452
  787TIP3   OH223995   0.281   6.437   1.209 -0.3937 -0.5911  0.6672
  787TIP3    H123996   0.245   6.348   1.211 -3.1573  0.4074 -0.1916
  787TIP3    H223997   0.361   6.429   1.158 -1.8632 -2.2466 -1.5931
  788TIP3   OH223998   4.496   4.901   7.879 -0.6306  0.0422 -0.0271
  788TIP3    H123999   4.434   4.970   7.856 -0.0232  1.3028  1.8411
  788TIP3    H224000   4.580   4.931   7.844 -0.3605  0.2972  0.8057
  789TIP3   OH224001   1.418   5.896   6.923 -0.3353 -0.3736 -0.1479
  789TIP3    H124002   1.436   5.959   6.853  3.0136 -1.2852 -0.2581
  789TIP3    H224003   1.389   5.817   6.877  1.5723 -0.8748 -0.5636
  790TIP3   OH224004   5.434   0.724   1.513  0.9354 -0.3036  0.0524
  790TIP3    H124005   5.491   0.721   1.436 -0.5871 -0.8985 -1.0867
  790TIP3    H224006   5.445   0.813   1.547  2.0204 -0.1919 -0.5253
  791TIP3   OH224007   0.774   1.379   0.905 -0.2986 -0.6798  0.1002
  791TIP3    H124008   0.826   1.400   0.827  0.8818 -2.5305  0.3408
  791TIP3    H224009   0.811   1.434   0.974  0.0842 -0.6308 -0.1423
  792TIP3   OH224010   5.999   2.706   0.477  0.3675 -0.4048  0.5947
  792TIP3    H124011   6.043   2.622   0.481  0.2919 -0.4548  0.3948
  792TIP3    H224012   5.927   2.693   0.415  0.6176 -0.0748  0.2216
  793TIP3   OH224013   1.604   4.873   8.525  0.2976 -0.2509 -0.2684
  793TIP3    H124014   1.688   4.830   8.511  0.2540 -0.1499 -0.8672
  793TIP3    H224015   1.548   4.841   8.455  1.1419  3.0610 -2.6856
  794TIP3   OH224016   0.449   3.811   0.400  0.6590 -0.2320  0.1127
  794TIP3    H124017   0.426   3.903   0.386  0.3737 -0.1973  0.7832
  794TIP3    H224018   0.461   3.776   0.311  0.6299  0.4140 -0.1534
  795TIP3   OH224019   1.160   5.729   2.003  0.0918  0.1529 -0.7233
  795TIP3    H124020   1.215   5.663   1.962  0.3240 -0.1103 -0.0149
  795TIP3    H224021   1.155   5.702   2.095  0.1494  1.0932 -0.4358
  796TIP3   OH224022   5.389   1.851   1.360 -0.2256 -0.1961  0.2032
  796TIP3    H124023   5.468   1.893   1.394  0.1245  0.7845 -1.7178
  796TIP3    H224024   5.390   1.764   1.400  1.2750  0.1536  1.0087
  797TIP3   OH224025   1.257   4.767   1.529 -0.3747  0.0594  0.1100
  797TIP3    H124026   1.340   4.741   1.489 -1.2188 -2.5138 -0.1442
  797TIP3    H224027   1.277   4.774   1.622  0.4222  0.9196 -0.1068
  798TIP3   OH224028   5.358   1.803   0.472  0.1313  0.2139 -0.3743
  798TIP3    H124029   5.373   1.886   0.428 -0.5656  0.0547 -0.9266
  798TIP3    H224030   5.341   1.741   0.402 -1.2995  0.0207  0.1135
  799TIP3   OH224031   1.142   0.976   0.147  0.6497 -0.4609 -0.1917
  799TIP3    H124032   1.109   0.957   0.235  1.5289 -2.1752 -0.1899
  799TIP3    H224033   1.199   1.052   0.158 -0.4479  0.3018  0.4168
  800TIP3   OH224034   1.383   1.300   8.131 -0.0532 -0.3049 -0.2515
  800TIP3    H124035   1.423   1.387   8.132 -1.7276  0.5425  2.1350
  800TIP3    H224036   1.333   1.298   8.049 -0.8239  1.4158  0.1344
  801TIP3   OH224037   6.114   2.973   0.514 -0.2899  0.0771  0.2588
  801TIP3    H124038   6.095   2.879   0.505 -1.0083  0.3233 -0.9715
  801TIP3    H224039   6.068   3.014   0.442  0.9966  1.2594  0.0599
  802TIP3   OH224040   0.563   6.493   7.439  0.5183 -0.1196 -0.3133
  802TIP3    H124041   0.530   6.406   7.460  0.2427  0.3678  1.4442
  802TIP3    H224042   0.489   6.538   7.398 -0.5710  0.4164  2.0744
  803TIP3   OH224043   1.649   6.064   0.229  0.0182 -0.2062 -0.3092
  803TIP3    H124044   1.618   6.074   0.139 -0.1390  1.3732 -0.1163
  803TIP3    H224045   1.611   5.981   0.259 -1.9212  0.3815 -0.9491
  804TIP3   OH224046   3.983   6.311   0.344  0.1761 -0.0460  0.6843
  804TIP3    H124047   4.028   6.235   0.381  0.9260 -1.2387 -2.3519
  804TIP3    H224048   4.051   6.378   0.337  0.4791 -0.4228 -0.0855
  805TIP3   OH224049   1.340   5.198   2.039 -0.3928 -0.0909  0.0604
  805TIP3    H124050   1.258   5.246   2.032  1.7086  3.7251 -0.7705
  805TIP3    H224051   1.392   5.248   2.102  1.3777 -2.3305  0.5158
  806TIP3   OH224052   2.254   1.175   8.664  0.4034  0.9442 -0.1003
  806TIP3    H124053   2.189   1.142   8.725  2.9095  0.8088  2.7448
  806TIP3    H224054   2.243   1.270   8.665  0.6262  0.9649  0.8535
  807TIP3   OH224055   1.579   0.537   7.585  0.6195 -0.1874 -0.0737
  807TIP3    H124056   1.567   0.597   7.512 -0.9507 -0.9686 -0.4912
  807TIP3    H224057   1.665   0.560   7.621  0.4173  1.7422 -0.7252
  808TIP3   OH224058   4.950   4.957   7.302  0.4046  0.4896  0.4013
  808TIP3    H124059   5.039   4.989   7.288  0.5180  0.1476  0.3205
  808TIP3    H224060   4.930   4.906   7.224 -0.3389  1.6017 -0.1555
  809TIP3   OH224061   1.067   3.532   7.428 -0.4769  0.3891  0.4945
  809TIP3    H124062   1.040   3.453   7.475 -0.3960 -1.0613 -1.7186
  809TIP3    H224063   0.992   3.552   7.371  0.5439  0.2066 -0.9728
  810TIP3   OH224064   2.009   3.796   2.653  0.4889 -0.0651 -0.5146
  810TIP3    H124065   1.952   3.722   2.676  1.5118 -0.9384 -0.7005
  810TIP3    H224066   1.951   3.872   2.652 -1.0590 -1.1786 -2.4423
  811TIP3   OH224067   5.852   5.321   1.095  0.0043  0.2708 -0.3100
  811TIP3    H124068   5.936   5.336   1.137 -0.0442 -1.8854  0.6538
  811TIP3    H224069   5.809   5.407   1.098  1.2011  0.8732  1.3670
  812TIP3   OH224070   1.961   2.642   8.688  0.0086 -0.3957  0.2342
  812TIP3    H124071   2.016   2.686   8.623  1.0179 -2.3812 -0.3141
  812TIP3    H224072   1.914   2.714   8.731  1.4885  1.2092 -0.6768
  813TIP3   OH224073   1.265   0.438   7.803 -0.5877  0.6479  0.1181
  813TIP3    H124074   1.333   0.505   7.802 -0.1637  0.2304 -0.0543
  813TIP3    H224075   1.309   0.360   7.838 -0.9631  0.3578 -0.0400
  814TIP3   OH224076   4.022   6.797   6.946  0.1050 -0.5642 -0.6188
  814TIP3    H124077   3.941   6.847   6.953 -1.1064 -2.6188  1.7463
  814TIP3    H224078   4.012   6.745   6.866  0.0952  0.7705 -1.5098
  815TIP3   OH224079   5.451   2.276   1.866 -0.5754  1.2670 -0.0329
  815TIP3    H124080   5.507   2.201   1.886 -0.1954  0.9009 -2.2685
  815TIP3    H224081   5.377   2.265   1.926 -0.1166 -0.4182  0.3044
  816TIP3   OH224082   4.275   2.541   0.551 -0.3359 -0.0285 -0.6821
  816TIP3    H124083   4.214   2.475   0.519  0.5727 -2.2615  1.7264
  816TIP3    H224084   4.221   2.603   0.599 -0.9192 -1.2350  0.2902
  817TIP3   OH224085   0.566   2.835   7.140  0.1228  0.2397 -0.2215
  817TIP3    H124086   0.539   2.758   7.089  1.0209 -0.7098  0.6942
  817TIP3    H224087   0.549   2.811   7.231  2.7387  0.0924  0.3125
  818TIP3   OH224088   1.051   0.714   8.285  0.4030 -0.6992 -0.3762
  818TIP3    H124089   0.966   0.696   8.245  0.8137 -0.8751 -1.1949
  818TIP3    H224090   1.053   0.659   8.364 -0.2651 -0.6385 -0.3127
  819TIP3   OH224091   3.268   0.337   1.914  0.3063  0.2601  0.4848
  819TIP3    H124092   3.255   0.326   1.820  1.7386  0.5044  0.2241
  819TIP3    H224093   3.208   0.407   1.939 -1.6208 -1.2170  0.2034
  820TIP3   OH224094   2.147   1.398   1.767 -0.2558  0.1350  0.1077
  820TIP3    H124095   2.141   1.472   1.827  0.5911  0.0448  0.3068
  820TIP3    H224096   2.137   1.321   1.822 -1.8509  0.0794 -0.1840
  821TIP3   OH224097   1.496   0.314   8.549  0.4861 -0.4905 -0.0837
  821TIP3    H124098   1.531   0.398   8.578 -0.2487  0.1138 -0.9035
  821TIP3    H224099   1.546   0.249   8.599  0.3954  0.4471  1.3069
  822TIP3   OH224100   0.885   5.918   2.149 -0.4491 -0.2969  0.2800
  822TIP3    H124101   0.900   5.842   2.205 -0.4268  0.9518  2.0643
  822TIP3    H224102   0.836   5.979   2.204 -0.0917  1.1669 -0.9366
  823TIP3   OH224103   5.668   0.836   0.809 -0.2255  0.1053  0.0539
  823TIP3    H124104   5.681   0.767   0.874 -1.1953 -0.6931 -0.5563
  823TIP3    H224105   5.606   0.896   0.850  0.6694  0.6712  0.6117
  824TIP3   OH224106   5.017   5.555   7.339  0.0301  0.1440 -0.5121
  824TIP3    H124107   5.054   5.471   7.313  1.2645  0.8739 -1.2171
  824TIP3    H224108   5.093   5.611   7.356 -0.7621  1.1007  0.0454
  825TIP3   OH224109   3.322   0.201   2.146 -0.3571  0.5690 -0.0013
  825TIP3    H124110   3.272   0.240   2.073 -0.7807 -2.3918 -1.4225
  825TIP3    H224111   3.266   0.216   2.223 -1.2132  1.3753 -0.7456
  826TIP3   OH224112   4.728   1.130   8.048  0.4799  0.1800  0.2661
  826TIP3    H124113   4.652   1.117   7.992  2.1544  0.9679 -2.3807
  826TIP3    H224114   4.715   1.216   8.088 -0.4459 -0.1246  0.6390
  827TIP3   OH224115   0.399   4.079   0.322  0.1497  0.3129 -0.2677
  827TIP3    H124116   0.419   4.163   0.364  2.5273 -0.7775  0.9350
  827TIP3    H224117   0.456   4.077   0.245  0.7961 -0.5593  0.2182
  828TIP3   OH224118   6.643   0.302   8.632  0.0781  0.3823 -0.4232
  828TIP3    H124119   6.703   0.259   8.692 -0.9892 -0.6114 -0.0271
  828TIP3    H224120   6.649   0.251   8.551  0.7301  1.0775 -0.8208
  829TIP3   OH224121   3.879   2.392   8.307  0.2207  0.3428  0.1997
  829TIP3    H124122   3.952   2.416   8.249  1.7372  1.1767  2.3095
  829TIP3    H224123   3.824   2.470   8.310  0.1317  0.2934 -0.1132
  830TIP3   OH224124   0.706   5.437   2.092  0.2011  0.2015 -0.3278
  830TIP3    H124125   0.619   5.396   2.087 -0.2006  1.0397 -0.3788
  830TIP3    H224126   0.742   5.407   2.175  1.3623 -3.0213 -1.8173
  831TIP3   OH224127   2.023   3.577   7.780  0.6866 -0.0067  0.1234
  831TIP3    H124128   2.052   3.534   7.860 -0.7986  1.4390  1.5068
  831TIP3    H224129   2.079   3.540   7.711  2.4343 -0.8320  1.9015
  832TIP3   OH224130   3.068   1.711   0.400  0.4022 -0.5979  0.4747
  832TIP3    H124131   3.102   1.801   0.396 -0.4933 -0.2371  0.7723
  832TIP3    H224132   3.146   1.657   0.407  1.0536  0.0316 -1.4316
  833TIP3   OH224133   0.126   5.342   8.143 -0.2418  0.3469  0.1258
  833TIP3    H124134   0.102   5.414   8.201 -0.6859  0.4579 -0.1791
  833TIP3    H224135   0.041   5.306   8.114 -0.0357  0.3778 -0.5414
  834TIP3   OH224136   3.518   6.788   2.544  0.1549 -0.0823 -0.5167
  834TIP3    H124137   3.463   6.865   2.536 -0.2771  0.2683  3.7327
  834TIP3    H224138   3.467   6.718   2.502 -2.5563  0.6848  1.2649
  835TIP3   OH224139   6.310   4.701   2.586 -0.2397  0.1840  0.0785
  835TIP3    H124140   6.342   4.611   2.587  0.2520  0.2339 -2.9255
  835TIP3    H224141   6.384   4.752   2.552 -0.2540  1.9116  2.3781
  836TIP3   OH224142   6.093   3.082   1.212  0.0893 -0.0443  0.1810
  836TIP3    H124143   6.087   2.989   1.191  1.0133  0.1631 -1.0493
  836TIP3    H224144   6.072   3.127   1.130  1.2023  0.8186  0.3543
  837TIP3   OH224145   6.582   2.828   1.384  0.6967  0.4825  0.1413
  837TIP3    H124146   6.560   2.898   1.446  0.7286 -0.0390  0.7453
  837TIP3    H224147   6.662   2.789   1.419  0.3590 -0.2349  0.1276
  838TIP3   OH224148   6.576   0.682   7.429 -0.6608 -0.5375 -0.5233
  838TIP3    H124149   6.551   0.721   7.345 -2.1277  0.5862  0.3941
  838TIP3    H224150   6.549   0.746   7.494  0.6601 -1.3022  0.8149
  839TIP3   OH224151   1.147   2.274   0.782 -0.4862  0.6023  0.2503
  839TIP3    H124152   1.063   2.260   0.738 -1.2328  2.3938  0.9730
  839TIP3    H224153   1.123   2.316   0.865  0.9482 -1.3960  1.7812
  840TIP3   OH224154   1.166   5.760   7.739  0.2227 -0.6279 -0.5231
  840TIP3    H124155   1.127   5.821   7.677 -1.7167 -1.9807 -0.7278
  840TIP3    H224156   1.182   5.812   7.818  1.5169  0.8051 -1.6642
  841TIP3   OH224157   3.938   4.756   1.073  0.0208 -0.1710  0.1876
  841TIP3    H124158   3.865   4.797   1.120  0.6244 -1.0859  2.0275
  841TIP3    H224159   3.950   4.810   0.995 -0.7531  1.7077  1.2953
  842TIP3   OH224160   5.969   0.676   1.155 -0.0796  0.2030  0.1719
  842TIP3    H124161   5.930   0.756   1.122 -1.9692 -1.0003 -0.7102
  842TIP3    H224162   6.061   0.698   1.170  0.0276  1.8558 -2.3454
  843TIP3   OH224163   4.389   2.190   0.593  0.0310  0.1216 -0.6740
  843TIP3    H124164   4.368   2.137   0.670  3.0112  0.9477  0.8625
  843TIP3    H224165   4.323   2.259   0.593 -0.3453 -0.2064  0.8180
  844TIP3   OH224166   3.118   4.089   2.072 -0.0384 -0.3734  0.5401
  844TIP3    H124167   3.168   4.119   2.148  0.1905 -0.3007  0.3638
  844TIP3    H224168   3.029   4.122   2.087 -0.0695 -0.6174  0.9211
  845TIP3   OH224169   0.126   1.370   8.559  0.2549 -0.1782 -0.8546
  845TIP3    H124170   0.080   1.316   8.495  1.3320  1.0099 -2.7392
  845TIP3    H224171   0.081   1.454   8.557 -0.6747 -0.5643  1.1828
  846TIP3   OH224172   1.724   4.774   7.533  0.8266 -0.5073 -0.0386
  846TIP3    H124173   1.635   4.768   7.566  1.0018 -0.7986  0.3862
  846TIP3    H224174   1.754   4.861   7.559  0.4887 -0.2029 -0.6438
  847TIP3   OH224175   0.368   1.479   7.496  0.3054 -0.5204  0.0325
  847TIP3    H124176   0.292   1.528   7.530 -1.1960 -1.0955 -2.2456
  847TIP3    H224177   0.338   1.388   7.492  1.0348 -0.7303 -1.0837
  848TIP3   OH224178   4.166   6.396   0.763  0.1591 -0.2595 -0.2886
  848TIP3    H124179   4.133   6.485   0.778  0.0075 -0.4578  0.6163
  848TIP3    H224180   4.261   6.406   0.760  0.1931 -0.2012  0.8169
  849TIP3   OH224181   4.840   2.360   0.546  0.5566  0.9304  0.0512
  849TIP3    H124182   4.930   2.330   0.556  0.4985 -0.4156 -2.6970
  849TIP3    H224183   4.791   2.313   0.614  1.4545 -0.7709 -0.4180
  850TIP3   OH224184   5.318   5.048   6.510  0.0652  0.5653  0.1330
  850TIP3    H124185   5.224   5.047   6.527  0.2662  0.3088  1.3540
  850TIP3    H224186   5.345   4.957   6.520  0.0813  0.2134 -2.6170
  851TIP3   OH224187   0.950   1.279   7.635 -0.3528  0.4945 -0.5675
  851TIP3    H124188   1.040   1.259   7.661 -0.3785  1.0588 -0.0058
  851TIP3    H224189   0.945   1.374   7.637 -0.6629  0.5118 -1.6719
  852TIP3   OH224190   6.128   4.306   7.939 -0.3667 -0.4252  0.6027
  852TIP3    H124191   6.147   4.272   7.852 -0.8731  0.9993 -0.0938
  852TIP3    H224192   6.072   4.240   7.979 -1.0730 -0.5762 -0.5919
  853TIP3   OH224193   3.033   5.207   1.013  0.3863 -0.0185  0.1321
  853TIP3    H124194   2.949   5.220   1.057 -0.5547  0.0452 -1.5905
  853TIP3    H224195   3.058   5.294   0.983  0.0181 -0.3250 -1.1281
  854TIP3   OH224196   6.261   4.722   1.493 -0.9456 -0.1141 -0.2638
  854TIP3    H124197   6.225   4.655   1.550  0.0822  1.7234  2.7751
  854TIP3    H224198   6.185   4.774   1.465 -1.2499  0.7492  1.9951
  855TIP3   OH224199   1.972   5.097   6.636 -0.1902  0.2184  0.0884
  855TIP3    H124200   1.960   5.181   6.681 -0.2502  0.7806 -0.9464
  855TIP3    H224201   1.937   5.112   6.548  0.4351 -0.6859 -0.3235
  856TIP3   OH224202   2.548   5.252   8.240  0.5187 -0.2167 -0.3972
  856TIP3    H124203   2.544   5.276   8.148  1.0179  3.0995  0.3120
  856TIP3    H224204   2.633   5.285   8.269  1.6807 -3.7423  0.7180
  857TIP3   OH224205   4.165   0.777   8.061 -0.1693 -0.4603  0.1802
  857TIP3    H124206   4.162   0.808   7.970 -2.1894 -0.5516  0.1740
  857TIP3    H224207   4.146   0.854   8.113 -0.3585 -0.6908  0.4518
  858TIP3   OH224208   6.761   6.367   8.794  0.3544  0.1497  0.1622
  858TIP3    H124209   6.773   6.443   8.852 -1.7441  1.1259 -0.6226
  858TIP3    H224210   6.676   6.330   8.819 -0.7749  0.7769 -2.4308
  859TIP3   OH224211   6.008   2.038   2.201 -0.1265  0.1643 -0.1812
  859TIP3    H124212   5.926   1.991   2.183 -0.4622  0.9114 -0.6954
  859TIP3    H224213   6.076   1.971   2.197 -0.9417 -1.0238  3.0239
  860TIP3   OH224214   4.053   3.337   1.033  0.7456  0.2458 -0.2223
  860TIP3    H124215   4.123   3.397   1.009  0.6984  1.1423  1.7685
  860TIP3    H224216   3.975   3.391   1.038  0.3562 -0.3120 -0.1227
  861TIP3   OH224217   2.910   6.196   7.564  0.1667  0.2610 -0.6596
  861TIP3    H124218   2.937   6.270   7.618 -1.6070  0.0869  0.5573
  861TIP3    H224219   2.852   6.145   7.621  0.5460 -1.5121 -1.8062
  862TIP3   OH224220   0.030   1.075   8.439  0.1902 -0.2457 -0.1987
  862TIP3    H124221  -0.013   1.016   8.376 -0.6482 -0.7152  0.7844
  862TIP3    H224222  -0.042   1.122   8.481  0.8491  1.4916 -0.9412
  863TIP3   OH224223   4.472   2.686   2.512  0.2281  0.4629  0.4434
  863TIP3    H124224   4.424   2.768   2.496  1.0650  1.0938  1.0698
  863TIP3    H224225   4.547   2.712   2.565  0.5763 -0.7044  0.5552
  864TIP3   OH224226   5.449   0.639   7.629  0.6154 -0.0615 -0.9241
  864TIP3    H124227   5.416   0.560   7.585 -0.0717  0.5123 -1.4609
  864TIP3    H224228   5.397   0.645   7.709  2.3953 -1.5452  0.4527
  865TIP3   OH224229   0.155   1.745   0.026  0.1103 -0.5358 -0.4048
  865TIP3    H124230   0.130   1.656   0.001 -1.1148 -0.5021  0.6244
  865TIP3    H224231   0.119   1.800  -0.043  1.5231 -0.8535 -1.4599
  866TIP3   OH224232   1.321   2.352   0.228 -0.3960  0.2982 -0.4327
  866TIP3    H124233   1.246   2.411   0.223 -0.8193 -0.2047 -0.1078
  866TIP3    H224234   1.398   2.409   0.222 -0.8024  0.8664 -0.2265
  867TIP3   OH224235   0.741   1.682   7.722 -0.1228  0.5866 -0.2138
  867TIP3    H124236   0.712   1.770   7.695  0.0952  0.8091  0.2633
  867TIP3    H224237   0.747   1.687   7.818 -0.6799 -0.1287 -0.1336
  868TIP3   OH224238   0.888   1.552   6.961 -0.3139  0.0549 -0.3184
  868TIP3    H124239   0.856   1.506   6.884 -1.2751  0.7217 -0.3298
  868TIP3    H224240   0.982   1.531   6.964  0.2111  1.6133 -2.8160
  869TIP3   OH224241   4.841   6.623   0.408 -0.1295  0.1464  0.1572
  869TIP3    H124242   4.759   6.658   0.372 -0.1179 -1.6726 -1.8257
  869TIP3    H224243   4.884   6.699   0.448 -1.7566  1.5922 -0.7028
  870TIP3   OH224244   4.329   0.940   6.470  0.0434 -0.2672 -0.5200
  870TIP3    H124245   4.373   0.863   6.435 -0.3302 -0.2941 -0.9395
  870TIP3    H224246   4.339   0.933   6.565 -2.8872 -2.6372 -0.2630
  871TIP3   OH224247   0.049   3.910   8.691 -0.1026 -0.1353 -0.2215
  871TIP3    H124248   0.028   3.996   8.655 -3.8770 -2.4871 -4.5548
  871TIP3    H224249   0.133   3.887   8.651 -0.0851  0.6643 -0.6591
  872TIP3   OH224250   0.778   4.833   8.089 -0.4023 -0.2038 -0.0808
  872TIP3    H124251   0.722   4.807   8.162 -1.1077 -1.6593 -1.1144
  872TIP3    H224252   0.845   4.888   8.130 -0.2817 -1.6525  1.8022
  873TIP3   OH224253   0.083   6.372   2.092 -0.0474 -0.4977 -0.2842
  873TIP3    H124254   0.097   6.407   2.180  0.4887 -0.8346 -0.2291
  873TIP3    H224255   0.129   6.288   2.092  0.8817 -0.0218 -1.2155
  874TIP3   OH224256   2.793   6.414   0.930  0.5812  0.1877 -0.1071
  874TIP3    H124257   2.785   6.508   0.916  0.0607  0.3119  0.8874
  874TIP3    H224258   2.830   6.380   0.849  0.8352  1.2567 -0.4526
  875TIP3   OH224259   0.412   5.422   3.033  0.3008  0.2214 -0.0808
  875TIP3    H124260   0.391   5.515   3.045  2.3157  0.9420 -1.5686
  875TIP3    H224261   0.349   5.392   2.968  1.0095  1.1787 -1.2543
  876TIP3   OH224262   2.295   0.491   2.448 -0.8959  0.1788 -0.3652
  876TIP3    H124263   2.244   0.563   2.486 -1.0650 -0.1772  0.0913
  876TIP3    H224264   2.257   0.412   2.485  0.5405 -0.0684  0.7060
  877TIP3   OH224265   0.596   0.445   0.963 -0.2325 -0.0400  0.2903
  877TIP3    H124266   0.670   0.421   0.906  0.6890  0.7856  1.1081
  877TIP3    H224267   0.525   0.465   0.902  0.8803  1.3098 -0.6112
  878TIP3   OH224268   5.495   3.811   1.588  0.1800  0.5326 -0.1165
  878TIP3    H124269   5.498   3.907   1.590 -0.9305  0.5817  1.3827
  878TIP3    H224270   5.586   3.785   1.573  0.5751  1.8192 -0.1387
  879TIP3   OH224271   5.778   5.609   6.503 -0.0033 -0.4500 -0.0475
  879TIP3    H124272   5.795   5.676   6.569 -0.7478  0.5057 -0.8011
  879TIP3    H224273   5.863   5.593   6.462  0.4047 -0.8463  0.9401
  880TIP3   OH224274   0.253   1.793   1.924 -0.0739 -0.4520  0.1236
  880TIP3    H124275   0.183   1.808   1.988 -0.5042 -0.9217 -0.2244
  880TIP3    H224276   0.329   1.768   1.977  0.0356  0.7407  0.5504
  881TIP3   OH224277   4.985   0.708   7.073  0.3246  0.1337  0.5922
  881TIP3    H124278   5.072   0.746   7.085  0.7211  0.0439 -1.5633
  881TIP3    H224279   5.002   0.622   7.034 -0.7229  0.7784 -1.4247
  882TIP3   OH224280   4.559   4.681   0.119  0.1209  0.0479  0.2203
  882TIP3    H124281   4.536   4.699   0.210  2.7899  1.6413  0.6773
  882TIP3    H224282   4.592   4.591   0.120 -0.6253 -0.2302  0.6366
  883TIP3   OH224283   4.418   5.112   1.317 -0.0520  0.0996  0.0063
  883TIP3    H124284   4.482   5.050   1.350 -1.0271 -0.8160  0.2093
  883TIP3    H224285   4.407   5.089   1.225  2.0942  2.1684 -0.8973
  884TIP3   OH224286   6.695   6.700   0.703  0.2636  0.0541 -0.6572
  884TIP3    H124287   6.667   6.773   0.648 -1.0899 -0.5471 -0.7919
  884TIP3    H224288   6.780   6.728   0.737  0.3580  1.1500 -1.7045
  885TIP3   OH224289   2.189   3.517   7.102  0.0970 -0.2543  0.4607
  885TIP3    H124290   2.169   3.557   7.186 -0.9541 -0.2279  0.2128
  885TIP3    H224291   2.160   3.580   7.037  2.4108  0.4508  0.0410
  886TIP3   OH224292   1.274   0.652   8.133 -0.6412 -0.1094 -0.0852
  886TIP3    H124293   1.202   0.674   8.192 -0.3538  0.3719  0.0820
  886TIP3    H224294   1.332   0.728   8.135 -0.9173  0.1621 -1.4293
  887TIP3   OH224295   3.645   3.281   0.439  0.3014 -0.2775  0.0275
  887TIP3    H124296   3.723   3.272   0.494  0.7894 -0.7353 -0.7248
  887TIP3    H224297   3.678   3.312   0.355 -0.4403  0.4166 -0.0269
  888TIP3   OH224298   6.600   6.252   1.142  0.4632 -0.2906  0.0325
  888TIP3    H124299   6.522   6.218   1.099 -0.3237 -0.5190  1.5520
  888TIP3    H224300   6.602   6.345   1.120  0.2214 -0.4513 -0.6717
  889TIP3   OH224301   4.747   6.239   7.746  0.0788  0.2824  0.4189
  889TIP3    H124302   4.686   6.167   7.763  0.3288 -0.4868 -1.6366
  889TIP3    H224303   4.700   6.317   7.772 -1.5714 -0.3451 -0.5370
  890TIP3   OH224304   0.006   2.095   7.384  0.7095 -0.0744 -0.1574
  890TIP3    H124305   0.051   2.163   7.434 -0.5100  1.4183 -1.0048
  890TIP3    H224306   0.056   2.088   7.303  0.5235  0.2094 -0.2978
  891TIP3   OH224307   2.432   4.844   7.133  0.0344 -0.2232  0.2099
  891TIP3    H124308   2.497   4.798   7.080 -0.6623  0.4419 -1.2970
  891TIP3    H224309   2.484   4.894   7.196  0.9999  0.0706 -0.7731
  892TIP3   OH224310   6.735   0.920   7.448 -0.6348  0.3926  0.9559
  892TIP3    H124311   6.730   0.895   7.355  0.4296  3.3637 -0.0286
  892TIP3    H224312   6.672   0.992   7.456 -0.4158  0.4427  2.4520
  893TIP3   OH224313   4.893   5.677   7.939  0.1281 -0.0365 -0.0797
  893TIP3    H124314   4.898   5.590   7.899  0.0892 -0.0052 -0.1510
  893TIP3    H224315   4.969   5.723   7.904  1.6471 -0.8611  1.8879
  894TIP3   OH224316   0.817   3.536   6.919  0.6458 -0.2349 -0.6241
  894TIP3    H124317   0.752   3.466   6.929  1.6602 -0.9917  1.3648
  894TIP3    H224318   0.794   3.599   6.987  2.1281 -0.6829  0.3439
  895TIP3   OH224319   1.077   3.810   8.420 -0.3226  0.5662  0.3616
  895TIP3    H124320   1.042   3.728   8.454 -0.9443  1.4834  1.9930
  895TIP3    H224321   1.066   3.803   8.325  1.9694 -2.3075  0.1459
  896TIP3   OH224322   4.028   1.953   1.989  0.4701 -0.6226 -0.0485
  896TIP3    H124323   4.098   1.887   1.991  0.2164 -0.9042 -0.3394
  896TIP3    H224324   4.031   1.989   1.901  0.6407 -0.2029  0.1262
  897TIP3   OH224325   2.714   4.646   1.845  0.0932 -0.5776  0.7882
  897TIP3    H124326   2.627   4.685   1.852  0.8233  1.0867  1.1495
  897TIP3    H224327   2.773   4.712   1.882  1.4834 -1.7927  0.8431
  898TIP3   OH224328   1.465   3.560   0.674 -0.9525 -0.5103  0.4034
  898TIP3    H124329   1.543   3.610   0.650 -2.0806  1.3703  0.3911
  898TIP3    H224330   1.433   3.523   0.592 -0.7978 -0.1655  0.1869
  899TIP3   OH224331   6.536   3.353   1.061  0.2844  0.1374 -0.5496
  899TIP3    H124332   6.563   3.316   1.144 -0.6187  1.2132  0.2527
  899TIP3    H224333   6.527   3.277   1.003 -0.5813 -0.8054  0.7573
  900TIP3   OH224334   1.629   0.539   8.617  0.3323 -0.2322 -0.0200
  900TIP3    H124335   1.696   0.574   8.557  1.7217 -1.2914  0.8628
  900TIP3    H224336   1.601   0.616   8.667  0.9844  0.2174 -0.3178
  901TIP3   OH224337   1.732   3.826   2.442  0.2793  0.1945  0.0934
  901TIP3    H124338   1.768   3.882   2.511  0.5319  0.0928  0.0444
  901TIP3    H224339   1.754   3.737   2.470 -2.2319 -0.1085  1.4522
  902TIP3   OH224340   5.746   6.369   0.935 -0.1388  0.3211  0.2879
  902TIP3    H124341   5.798   6.399   1.010  0.4358  0.8213 -0.3063
  902TIP3    H224342   5.663   6.340   0.974 -0.6503  2.4634  0.9187
  903TIP3   OH224343   1.137   6.221   0.753  0.2230 -0.1659 -0.1717
  903TIP3    H124344   1.195   6.297   0.762  0.5380 -0.5090  0.8258
  903TIP3    H224345   1.061   6.255   0.706 -0.6880  1.3749  2.2205
  904TIP3   OH224346   1.516   4.378   6.924 -0.0573 -0.7475  0.5392
  904TIP3    H124347   1.510   4.461   6.972  0.1689 -0.8404  0.7359
  904TIP3    H224348   1.446   4.381   6.860  0.7773  0.1877 -0.3657
  905TIP3   OH224349   1.390   0.550   0.096  0.0128 -0.6815 -0.4122
  905TIP3    H124350   1.376   0.640   0.066 -0.1146  0.0876  1.7871
  905TIP3    H224351   1.378   0.554   0.191  2.0149 -2.6261  0.0140
  906TIP3   OH224352   0.928   2.215   0.149 -0.4875  0.1511 -0.2963
  906TIP3    H124353   0.947   2.125   0.122 -1.8298 -0.2019 -0.1125
  906TIP3    H224354   0.989   2.232   0.220 -0.3343 -0.6762 -0.2180
  907TIP3   OH224355   4.832   0.294   0.302  0.2732 -0.0215 -0.0529
  907TIP3    H124356   4.742   0.298   0.270  0.3160  0.7466 -0.0958
  907TIP3    H224357   4.865   0.209   0.272  0.5024  0.8702 -2.5886
  908TIP3   OH224358   6.735   6.168   2.844  0.2602 -0.5880  0.1286
  908TIP3    H124359   6.714   6.125   2.927  2.3033  0.6004  1.3501
  908TIP3    H224360   6.783   6.101   2.794  2.5850 -0.1719  1.6315
  909TIP3   OH224361   4.697   1.018   6.502  0.1788 -0.5711 -0.0050
  909TIP3    H124362   4.751   0.942   6.481  0.4650 -0.0548 -1.2378
  909TIP3    H224363   4.692   1.068   6.420 -2.7755 -0.9460 -0.1736
  910TIP3   OH224364   5.391   5.733   7.996  0.0801  0.2379 -0.3135
  910TIP3    H124365   5.351   5.668   8.054 -0.8092  0.1872 -0.9684
  910TIP3    H224366   5.345   5.815   8.016 -1.1744 -0.0380 -1.8257
  911TIP3   OH224367   2.278   4.201   1.294  0.1402  0.8643  0.2106
  911TIP3    H124368   2.364   4.242   1.306  0.0937  0.6147  1.6734
  911TIP3    H224369   2.295   4.125   1.240  0.8741  0.7630  0.5677
  912TIP3   OH224370   0.500   1.685   0.407 -0.3580  0.1787 -0.7147
  912TIP3    H124371   0.427   1.716   0.352 -2.1406  0.6069  1.7219
  912TIP3    H224372   0.561   1.759   0.409 -1.4039  1.0574 -0.2641
  913TIP3   OH224373   0.339   6.717   6.293 -0.2397 -0.3255  0.0009
  913TIP3    H124374   0.386   6.728   6.376 -0.6554  0.5811  0.1322
  913TIP3    H224375   0.361   6.629   6.264  2.0248  0.2660 -0.2322
  914TIP3   OH224376   5.704   6.159   8.655  0.1717  0.0907  0.0277
  914TIP3    H124377   5.650   6.080   8.666  0.8557 -0.4080 -0.0775
  914TIP3    H224378   5.746   6.171   8.740  0.8659 -0.2712 -0.2580
  915TIP3   OH224379   0.552   5.896   2.103  0.2221  0.2997  0.0649
  915TIP3    H124380   0.608   5.888   2.181 -1.2129  0.0313  1.1197
  915TIP3    H224381   0.497   5.972   2.122 -0.9056 -0.4389 -0.1730
  916TIP3   OH224382   1.293   4.473   7.587  0.7375 -0.0780 -0.0021
  916TIP3    H124383   1.247   4.432   7.661  2.4615  1.0097  1.7773
  916TIP3    H224384   1.239   4.453   7.511 -1.3141 -0.9746  1.5951
  917TIP3   OH224385   0.989   5.922   0.646  0.7884 -0.1775 -0.0093
  917TIP3    H124386   1.079   5.933   0.678  0.6439 -0.1419  0.3818
  917TIP3    H224387   0.993   5.845   0.589  0.7235 -1.1694  1.2972
  918TIP3   OH224388   2.222   3.119   0.351  0.2599  0.2201 -0.3271
  918TIP3    H124389   2.268   3.153   0.274  1.7847 -1.1728 -0.0965
  918TIP3    H224390   2.226   3.190   0.415  1.3816  0.4462 -0.6222
  919TIP3   OH224391   5.263   6.808   8.663 -0.1823 -0.4333  0.6963
  919TIP3    H124392   5.350   6.837   8.690  1.1256 -2.6679 -0.8307
  919TIP3    H224393   5.260   6.715   8.684 -2.9535 -0.0940  2.3638
  920TIP3   OH224394   1.063   1.884   0.661  0.2888 -0.7218  0.1888
  920TIP3    H124395   1.128   1.911   0.727  0.0147  0.9780 -0.1773
  920TIP3    H224396   1.115   1.862   0.584  0.4839 -0.1558  0.1537
  921TIP3   OH224397   1.391   0.927   1.037 -0.1913 -0.8329 -0.2673
  921TIP3    H124398   1.471   0.927   0.984 -0.3909 -1.6196 -0.5832
  921TIP3    H224399   1.415   0.881   1.117  0.3290  1.0224  0.7185
  922TIP3   OH224400   5.749   1.917   2.173 -0.2364 -0.1669 -0.1667
  922TIP3    H124401   5.702   1.834   2.182  0.0916 -0.6140 -2.2196
  922TIP3    H224402   5.720   1.969   2.248 -2.1631 -1.3147 -0.0604
  923TIP3   OH224403   1.755   4.612   0.760 -0.4059  0.8021  0.5947
  923TIP3    H124404   1.695   4.544   0.730  1.5702 -1.4310  1.3423
  923TIP3    H224405   1.702   4.691   0.763 -2.4495 -0.3125 -1.8594
  924TIP3   OH224406   1.660   2.681   1.543 -0.2116 -0.2866  0.0471
  924TIP3    H124407   1.745   2.725   1.545 -1.4211  2.1860  1.4203
  924TIP3    H224408   1.629   2.686   1.634 -0.9727 -3.0354  0.0352
  925TIP3   OH224409   3.855   6.335   1.349 -0.3533  0.0247  0.1097
  925TIP3    H124410   3.882   6.298   1.433 -1.8650  0.7410  0.9638
  925TIP3    H224411   3.909   6.413   1.338 -0.2546  0.0103  0.5016
  926TIP3   OH224412   3.750   4.189   1.864  0.0018 -0.6471  0.2240
  926TIP3    H124413   3.739   4.094   1.860  0.9389 -0.7210 -1.1279
  926TIP3    H224414   3.818   4.202   1.930  0.3903 -0.9669 -0.1133
  927TIP3   OH224415   6.640   1.906   8.139  0.5342 -0.0301 -0.0677
  927TIP3    H124416   6.636   1.980   8.199 -1.6831 -0.3123  0.2126
  927TIP3    H224417   6.549   1.876   8.132  0.7635 -0.2763 -3.2228
  928TIP3   OH224418   4.812   5.512   0.921  0.2022  0.3228 -0.0958
  928TIP3    H124419   4.877   5.480   0.858  1.6429  1.4274  0.7851
  928TIP3    H224420   4.800   5.604   0.898 -1.6165 -0.0140 -0.6813
  929TIP3   OH224421   2.901   1.438   1.391 -0.2778  0.2973  0.5493
  929TIP3    H124422   2.866   1.400   1.310  2.1780 -2.3966  0.5709
  929TIP3    H224423   2.965   1.503   1.360 -1.9307  1.9909  0.4793
  930TIP3   OH224424   3.164   1.257   7.746  0.3317  0.6802 -0.6570
  930TIP3    H124425   3.242   1.277   7.797  1.0378  1.4296 -1.9708
  930TIP3    H224426   3.109   1.335   7.754  0.1046  0.4990 -0.4357
  931TIP3   OH224427   5.699   3.458   8.487  0.0557  0.0549  0.5795
  931TIP3    H124428   5.791   3.432   8.492  0.2222  0.3151 -0.7626
  931TIP3    H224429   5.691   3.505   8.404 -1.2100  0.3784  0.8509
  932TIP3   OH224430   6.794   4.207   1.482 -0.2449  0.2793  0.4102
  932TIP3    H124431   6.849   4.146   1.432  0.3858 -0.2012  1.6445
  932TIP3    H224432   6.810   4.292   1.442 -0.5392 -0.2317 -0.8445
  933TIP3   OH224433   4.944   4.728   7.094 -0.0034  0.5433  0.6884
  933TIP3    H124434   5.027   4.734   7.047  0.3171  1.2663  1.3247
  933TIP3    H224435   4.880   4.707   7.026  0.4683  1.4362 -0.0504
  934TIP3   OH224436   6.755   0.563   6.944  0.4457  0.3999 -0.0036
  934TIP3    H124437   6.785   0.510   6.870 -1.4754  0.3595 -0.8086
  934TIP3    H224438   6.672   0.601   6.914 -0.0225  0.9567  1.8834
  935TIP3   OH224439   4.642   1.411   0.253  0.7254 -0.4038  0.6523
  935TIP3    H124440   4.731   1.433   0.282  1.0525  0.1348 -0.7053
  935TIP3    H224441   4.652   1.329   0.206  0.7730  0.3739 -0.7463
  936TIP3   OH224442   3.600   3.745   7.707  0.7018  0.1972 -0.4537
  936TIP3    H124443   3.581   3.657   7.741  1.3724  0.1604 -0.1527
  936TIP3    H224444   3.524   3.767   7.653 -0.4729  0.2929  1.1446
  937TIP3   OH224445   3.953   1.790   7.480 -0.0763 -0.0767  0.1854
  937TIP3    H124446   3.919   1.701   7.482  0.6685 -0.3675  1.7119
  937TIP3    H224447   4.043   1.782   7.513  0.3430  1.1089 -0.5889
  938TIP3   OH224448   2.654   4.690   8.684 -0.1068 -0.2783 -0.1682
  938TIP3    H124449   2.686   4.600   8.676  0.9156  0.0991 -0.3564
  938TIP3    H224450   2.722   4.744   8.644  2.1534  1.1269  4.8489
  939TIP3   OH224451   5.787   3.106   7.969  0.3313  0.0843  0.3810
  939TIP3    H124452   5.717   3.050   8.001 -0.1931 -0.2522 -1.2701
  939TIP3    H224453   5.821   3.061   7.892  1.8235  0.6520  0.6716
  940TIP3   OH224454   2.687   3.330   7.907 -0.2114 -0.0181 -0.1730
  940TIP3    H124455   2.680   3.235   7.905 -2.1139  0.0957 -0.5139
  940TIP3    H224456   2.598   3.361   7.925 -0.0540  1.7516 -2.0336
  941TIP3   OH224457   2.844   2.815   8.738 -0.2646  0.0776  0.5358
  941TIP3    H124458   2.802   2.885   8.687 -0.5539 -0.0895  0.5380
  941TIP3    H224459   2.776   2.788   8.801 -0.5452 -0.9374 -0.1748
  942TIP3   OH224460   0.486   6.358   0.013  0.5164  0.1985 -0.0552
  942TIP3    H124461   0.408   6.396   0.053  0.5778 -0.6206  0.8774
  942TIP3    H224462   0.489   6.395  -0.075 -1.4874 -0.5199 -0.4713
  943TIP3   OH224463   2.623   0.202   0.706  0.0595  0.0876  0.1231
  943TIP3    H124464   2.648   0.138   0.639 -0.1659 -0.4012  0.4926
  943TIP3    H224465   2.548   0.248   0.668 -0.2983 -0.4340  0.1716
  944TIP3   OH224466   2.994   4.107   6.976  0.2077 -0.0721  0.3319
  944TIP3    H124467   2.941   4.035   7.010  0.1047 -0.3504 -0.3877
  944TIP3    H224468   2.960   4.121   6.887  0.9096  0.1831  0.0965
  945TIP3   OH224469   2.882   6.292   7.951  0.1607  0.4232  0.0982
  945TIP3    H124470   2.848   6.214   7.907  1.6851 -0.2087 -0.0050
  945TIP3    H224471   2.954   6.322   7.896  0.9419  0.6749  1.2120
  946TIP3   OH224472   2.265   3.570   1.397 -0.3970 -0.3260 -0.2844
  946TIP3    H124473   2.249   3.487   1.351  2.3033 -1.9244  1.3664
  946TIP3    H224474   2.223   3.558   1.482  0.0270 -0.0107 -0.0320
  947TIP3   OH224475   4.937   5.158   8.736  0.2731  0.0826 -0.7438
  947TIP3    H124476   4.970   5.160   8.825 -1.2375  0.8727 -0.1727
  947TIP3    H224477   4.963   5.072   8.702 -0.1857 -0.7272  0.8734
  948TIP3   OH224478   1.224   0.516   1.942 -0.1031  0.1841  0.4427
  948TIP3    H124479   1.290   0.506   1.874 -1.9307  0.0070 -1.4159
  948TIP3    H224480   1.273   0.546   2.019  1.9645  1.1234 -1.1323
  949TIP3   OH224481   0.788   2.433   8.323  0.0392  0.5617  0.2730
  949TIP3    H124482   0.768   2.355   8.272  0.9952  0.4709  0.0105
  949TIP3    H224483   0.736   2.502   8.284  0.6903  0.4767 -0.7806
  950TIP3   OH224484   0.251   3.948   0.936 -0.1586  0.0433  0.1747
  950TIP3    H124485   0.247   3.891   1.012 -2.6627 -1.1295 -0.7249
  950TIP3    H224486   0.332   3.923   0.891  0.2317 -0.7824  1.3023
  951TIP3   OH224487   6.521   5.771   7.542 -0.5079  0.2875 -0.5146
  951TIP3    H124488   6.473   5.753   7.461 -0.8268  1.0564 -0.4985
  951TIP3    H224489   6.593   5.828   7.515  0.3323 -0.7368 -0.5162
  952TIP3   OH224490   5.164   6.525   1.772  0.1553  0.0181  0.1043
  952TIP3    H124491   5.252   6.561   1.757 -1.0012  3.3695  0.5042
  952TIP3    H224492   5.152   6.532   1.866 -0.5565 -0.4414  0.0515
  953TIP3   OH224493   1.958   6.633   0.053 -0.3025  0.2679 -0.7879
  953TIP3    H124494   1.946   6.685   0.133 -0.7537  0.5339 -1.0280
  953TIP3    H224495   2.043   6.591   0.065 -0.4549  0.1472 -0.0723
  954TIP3   OH224496   6.224   0.364   0.688 -0.0256 -0.1338  0.6475
  954TIP3    H124497   6.207   0.336   0.599  0.1996 -0.9338  0.8463
  954TIP3    H224498   6.248   0.456   0.681 -2.0090  0.3907  0.1051
  955TIP3   OH224499   0.097   0.739   8.733 -0.0357  0.5234  0.2355
  955TIP3    H124500   0.043   0.666   8.701  0.6819 -0.3369  0.9352
  955TIP3    H224501   0.127   0.783   8.654 -0.0057 -0.3003 -0.2268
  956TIP3   OH224502   4.073   0.087   0.433  0.0340 -0.3434  0.0512
  956TIP3    H124503   4.120   0.125   0.507  0.8398 -0.6773 -0.2744
  956TIP3    H224504   4.124   0.009   0.410  0.4619  0.3977 -1.5948
  957TIP3   OH224505   4.102   4.850   0.082 -0.3894 -0.7544  0.2195
  957TIP3    H124506   4.190   4.871   0.053 -0.3853 -1.1653 -0.0718
  957TIP3    H224507   4.079   4.921   0.142  0.3000 -0.8698  0.6306
  958TIP3   OH224508   2.226   2.623   0.195 -0.3131  0.0768 -0.3655
  958TIP3    H124509   2.221   2.711   0.231 -0.1327 -0.0008 -0.1536
  958TIP3    H224510   2.240   2.566   0.270  1.0392  0.0093 -0.6424
  959TIP3   OH224511   6.484   4.183   7.920  0.5374 -0.0657  0.1991
  959TIP3    H124512   6.431   4.161   7.843  0.8778  0.6650 -0.2564
  959TIP3    H224513   6.434   4.252   7.964  1.5541  1.3705 -0.7908
  960TIP3   OH224514   1.813   2.769   0.276  0.0455  0.1315 -0.4235
  960TIP3    H124515   1.857   2.717   0.344  0.7802 -0.2774 -1.1890
  960TIP3    H224516   1.767   2.838   0.324 -0.4248 -0.8429  0.5751
  961TIP3   OH224517   4.835   5.638   0.155 -0.2263  0.8487  0.1738
  961TIP3    H124518   4.857   5.545   0.163 -0.4397  0.7478 -0.3917
  961TIP3    H224519   4.867   5.663   0.069  0.0024  1.3548  0.3990
  962TIP3   OH224520   2.543   6.157   8.037 -0.0036 -0.1657  0.1222
  962TIP3    H124521   2.481   6.090   8.066 -0.8302 -0.0925 -1.4087
  962TIP3    H224522   2.611   6.108   7.991 -0.2282 -0.0283 -0.3611
  963TIP3   OH224523   3.287   2.674   1.573 -0.2387  0.6511 -0.2046
  963TIP3    H124524   3.340   2.626   1.636 -0.5234  0.7433  0.1095
  963TIP3    H224525   3.247   2.606   1.518 -0.1380  0.5617 -0.1678
  964TIP3   OH224526   5.583   4.198   1.381 -0.1889 -0.0038 -0.6194
  964TIP3    H124527   5.654   4.160   1.434  1.9267  1.2026 -2.4277
  964TIP3    H224528   5.595   4.159   1.294 -1.2751  0.8253 -1.1628
  965TIP3   OH224529   1.634   2.006   1.673  0.4985  0.4497  0.0968
  965TIP3    H124530   1.654   1.993   1.580  3.4511 -0.9021  0.7946
  965TIP3    H224531   1.649   1.920   1.712 -1.4508  0.8008  1.7594
  966TIP3   OH224532   0.737   6.046   0.625  0.3603  0.3102 -0.0206
  966TIP3    H124533   0.781   6.127   0.652  0.9723  0.1010 -0.3824
  966TIP3    H224534   0.808   5.984   0.610 -0.1497 -0.6797  1.4632
  967TIP3   OH224535   6.362   3.714   7.755  0.2369  0.0083  0.1957
  967TIP3    H124536   6.304   3.652   7.710  1.8685  0.2933 -2.5297
  967TIP3    H224537   6.434   3.661   7.787  1.1684  0.3043 -1.3198
  968TIP3   OH224538   2.854   1.820   7.804 -0.4690  0.2234 -0.1929
  968TIP3    H124539   2.937   1.841   7.846 -1.4461 -0.2983  2.1719
  968TIP3    H224540   2.823   1.743   7.851 -1.9994  0.0091 -1.4733
  969TIP3   OH224541   2.925   5.639   2.436  0.2666 -0.4134  0.2538
  969TIP3    H124542   2.912   5.700   2.363  1.3777  0.1841  0.5332
  969TIP3    H224543   2.844   5.646   2.487 -1.2852 -2.1263 -1.7925
  970TIP3   OH224544   5.564   4.445   8.723  0.3727  0.7529 -0.3333
  970TIP3    H124545   5.621   4.368   8.734  0.6031  1.1697  1.5915
  970TIP3    H224546   5.600   4.489   8.646  1.0164 -0.3944 -0.7218
  971TIP3   OH224547   0.971   5.063   7.687 -0.4848  0.3353 -0.5629
  971TIP3    H124548   0.914   4.988   7.679  0.0736 -0.0854 -0.6599
  971TIP3    H224549   0.933   5.115   7.759 -0.3847 -0.4809  0.0909
  972TIP3   OH224550   0.158   4.155   7.318 -0.2413  0.4939  0.0228
  972TIP3    H124551   0.166   4.245   7.287 -1.2095 -0.1502 -2.2734
  972TIP3    H224552   0.079   4.156   7.373  0.4638  1.2762  1.0577
  973TIP3   OH224553   6.627   2.811   0.764 -0.3650  0.8380  0.3568
  973TIP3    H124554   6.607   2.735   0.819 -0.2349  1.2986  1.0561
  973TIP3    H224555   6.544   2.833   0.722 -0.7726  1.2179  1.3206
  974TIP3   OH224556   0.712   6.200   1.736  0.2391  0.3602 -0.3980
  974TIP3    H124557   0.685   6.230   1.823 -1.4368 -0.1399 -0.7213
  974TIP3    H224558   0.712   6.105   1.742 -1.0275  0.2886 -1.2499
  975TIP3   OH224559   6.165   1.814   1.850 -0.2587  0.1352 -0.2460
  975TIP3    H124560   6.207   1.771   1.924  0.4012 -0.4975 -0.9726
  975TIP3    H224561   6.077   1.837   1.882  0.5300  1.3148  1.2401
  976TIP3   OH224562   4.577   1.317   7.448  0.0089 -0.0721  0.8196
  976TIP3    H124563   4.619   1.310   7.363 -0.5094  0.1469  0.5404
  976TIP3    H224564   4.537   1.232   7.463  0.1011 -0.1109  0.8458
  977TIP3   OH224565   5.761   3.652   8.312 -0.0533  0.0884 -0.4218
  977TIP3    H124566   5.834   3.597   8.285 -0.9078 -1.5086  0.3736
  977TIP3    H224567   5.792   3.697   8.391  1.0410  1.6834 -1.6965
  978TIP3   OH224568   5.496   2.229   1.307 -0.2591 -0.5498  0.8239
  978TIP3    H124569   5.497   2.287   1.383 -1.7888  1.3465 -0.5075
  978TIP3    H224570   5.404   2.203   1.297 -0.6404  1.3421 -1.7702
  979TIP3   OH224571   2.115   6.788   1.311 -0.0261  0.2094 -0.3804
  979TIP3    H124572   2.169   6.804   1.389  0.0989  0.6196 -0.5506
  979TIP3    H224573   2.027   6.817   1.337  0.0724  0.6015 -0.4827
  980TIP3   OH224574   1.015   5.206   6.575 -0.4603  0.0732 -0.3986
  980TIP3    H124575   0.934   5.155   6.575 -0.1134 -0.5294  1.0462
  980TIP3    H224576   1.022   5.241   6.664  1.9851 -1.7750  0.2419
  981TIP3   OH224577   4.911   0.524   0.383  0.4557 -0.3332  0.5747
  981TIP3    H124578   5.005   0.535   0.370  0.9716 -2.8247  1.7086
  981TIP3    H224579   4.892   0.436   0.351 -1.3485 -0.2047  1.1542
  982TIP3   OH224580   4.181   4.144   8.583  0.4590  0.0128  0.9887
  982TIP3    H124581   4.228   4.195   8.649 -0.6255 -0.7518  2.4077
  982TIP3    H224582   4.186   4.197   8.504  0.2714  1.8360  2.1375
  983TIP3   OH224583   3.319   1.502   1.657 -0.7379  0.1518 -0.2781
  983TIP3    H124584   3.355   1.453   1.584  0.5795  1.7631 -0.7747
  983TIP3    H224585   3.344   1.453   1.735  4.3360  1.9702 -0.3981
  984TIP3   OH224586   1.178   4.106   0.276 -0.3029  0.1897  0.2782
  984TIP3    H124587   1.170   4.033   0.215  1.8302  0.6546 -0.6326
  984TIP3    H224588   1.088   4.124   0.303 -1.1498 -0.9980 -1.5648
  985TIP3   OH224589   6.287   5.121   8.390 -0.3500 -0.1410 -0.0916
  985TIP3    H124590   6.258   5.143   8.479 -1.0685  0.3401 -0.4321
  985TIP3    H224591   6.373   5.163   8.382  0.7366 -1.9807  1.0950
  986TIP3   OH224592   5.633   0.812   7.999  0.8673  0.5799  0.1540
  986TIP3    H124593   5.659   0.876   7.934 -1.3603  1.8322  0.3911
  986TIP3    H224594   5.538   0.805   7.990  0.6860 -0.4565  2.1406
  987TIP3   OH224595   4.863   3.143   7.324  0.2301 -0.3128 -0.2196
  987TIP3    H124596   4.858   3.165   7.231  2.0901  1.0288 -0.0703
  987TIP3    H224597   4.861   3.227   7.368 -2.4813 -0.9881  1.1602
  988TIP3   OH224598   4.112   2.798   7.346  0.3408  0.3392 -0.5564
  988TIP3    H124599   4.072   2.884   7.342 -0.6080 -0.1380 -2.0718
  988TIP3    H224600   4.039   2.737   7.355  1.0276 -0.2994  1.0399
  989TIP3   OH224601   2.398   4.670   0.597  0.2349 -0.4272  0.3873
  989TIP3    H124602   2.367   4.752   0.637  1.9883  0.8286 -0.6610
  989TIP3    H224603   2.384   4.684   0.503  1.4309 -0.9082  0.1203
  990TIP3   OH224604   4.409   0.673   7.906  0.1066  0.3743  0.1029
  990TIP3    H124605   4.447   0.761   7.902  1.8399 -0.2495  1.2910
  990TIP3    H224606   4.367   0.669   7.992 -0.9439  0.3969 -0.4040
  991TIP3   OH224607   1.524   6.579   0.802  0.1184 -0.1732  0.1428
  991TIP3    H124608   1.494   6.667   0.827 -2.8531 -1.1093  0.1450
  991TIP3    H224609   1.526   6.581   0.706 -1.9555 -0.6576  0.0550
  992TIP3   OH224610   4.423   4.297   0.791 -0.0901  0.0473  0.1726
  992TIP3    H124611   4.360   4.251   0.846  0.1424 -0.6500 -0.1349
  992TIP3    H224612   4.421   4.250   0.707  0.3569  0.4221 -0.0540
  993TIP3   OH224613   5.628   1.279   7.125  0.3193 -0.3318 -0.4684
  993TIP3    H124614   5.694   1.326   7.074 -0.7910  1.4272 -0.3913
  993TIP3    H224615   5.572   1.238   7.059 -0.8908  1.6271 -0.7380
  994TIP3   OH224616   2.202   3.611   7.371 -0.2109  0.2395 -0.2876
  994TIP3    H124617   2.149   3.687   7.396 -0.5503 -0.4515  1.1926
  994TIP3    H224618   2.288   3.628   7.408 -0.3964 -0.2693  0.3887
  995TIP3   OH224619   2.304   2.984   1.366  0.1797 -0.0578  0.2104
  995TIP3    H124620   2.371   2.918   1.383  1.3309  0.4901 -1.9055
  995TIP3    H224621   2.318   3.051   1.433 -1.1735 -1.9460  2.5630
  996TIP3   OH224622   4.323   0.969   0.658  0.0452  0.2797 -0.2228
  996TIP3    H124623   4.262   0.906   0.696  1.5422  0.6909  3.2942
  996TIP3    H224624   4.401   0.918   0.637  0.7659  0.6443  1.3814
  997TIP3   OH224625   0.794   5.681   8.585 -0.0935 -0.5537 -0.2527
  997TIP3    H124626   0.881   5.719   8.598  0.0349 -0.9623  0.1541
  997TIP3    H224627   0.733   5.752   8.603  0.1593 -0.1053 -1.1128
  998TIP3   OH224628   5.448   3.375   7.822 -0.6259  0.3693 -0.3175
  998TIP3    H124629   5.534   3.369   7.780 -0.5238  0.5215 -0.1337
  998TIP3    H224630   5.449   3.305   7.887 -1.2217 -0.6126 -1.3375
  999TIP3   OH224631   1.617   1.015   7.877 -0.0853 -0.1030  0.1191
  999TIP3    H124632   1.630   0.922   7.895 -0.9245  0.1329  2.1792
  999TIP3    H224633   1.527   1.033   7.901  0.3313  1.4377  0.6783
 1000TIP3   OH224634   4.526   0.337   7.633  0.5266  0.1885  0.3716
 1000TIP3    H124635   4.499   0.400   7.700  2.8258  1.0683  0.5428
 1000TIP3    H224636   4.569   0.390   7.566  0.4944 -0.9624 -0.5820
 1001TIP3   OH224637   0.859   6.173   1.179 -0.2164 -0.0623 -0.2813
 1001TIP3    H124638   0.765   6.186   1.171 -0.0699  1.7235  0.3311
 1001TIP3    H224639   0.884   6.124   1.101 -1.6994 -0.9962 -0.2125
 1002TIP3   OH224640   0.859   2.240   8.602  0.3576 -0.1628  0.8488
 1002TIP3    H124641   0.835   2.191   8.681 -1.0565  0.0619  0.5879
 1002TIP3    H224642   0.786   2.224   8.541  1.8727 -1.1474 -0.7923
 1003TIP3   OH224643   0.547   5.582   1.707 -0.1768 -0.3877  0.2191
 1003TIP3    H124644   0.567   5.623   1.623  0.0534  0.0990  0.5082
 1003TIP3    H224645   0.633   5.559   1.743 -0.0688  1.6868  1.4592
 1004TIP3   OH224646   5.304   1.701   0.203 -0.4114 -0.7661  0.0991
 1004TIP3    H124647   5.374   1.653   0.160 -0.8921 -0.1521 -1.4564
 1004TIP3    H224648   5.227   1.645   0.193 -0.4562 -0.7744  0.4820
 1005TIP3   OH224649   2.952   2.466   0.041 -0.3067 -0.7457  0.0578
 1005TIP3    H124650   2.932   2.414   0.119 -1.4783  0.3061  0.4900
 1005TIP3    H224651   3.037   2.504   0.059  0.5203 -2.3689 -0.2109
 1006TIP3   OH224652   3.219   4.077   1.065  0.4839  0.2517 -0.3985
 1006TIP3    H124653   3.283   4.148   1.067  0.4016  0.3889 -1.6725
 1006TIP3    H224654   3.158   4.101   0.996  0.1268 -0.7748 -0.4651
 1007TIP3   OH224655   6.514   5.450   7.363 -0.0209 -0.3033 -0.2054
 1007TIP3    H124656   6.453   5.425   7.294  1.0902 -0.4351 -1.1790
 1007TIP3    H224657   6.471   5.523   7.408 -0.8373 -0.3216 -0.9347
 1008TIP3   OH224658   1.891   2.439   0.569 -0.2901 -0.2906  0.1082
 1008TIP3    H124659   1.833   2.385   0.623 -0.1930  2.1790  2.9964
 1008TIP3    H224660   1.844   2.450   0.487 -2.5634 -0.7841  1.2440
 1009TIP3   OH224661   5.654   0.821   8.570 -0.2556 -0.2109  0.0835
 1009TIP3    H124662   5.562   0.806   8.549 -0.5008  0.8860  0.3105
 1009TIP3    H224663   5.691   0.861   8.491 -0.3451  0.7281  0.5040
 1010TIP3   OH224664   2.497   5.648   8.774 -0.6723  0.3660 -0.0138
 1010TIP3    H124665   2.522   5.638   8.683  1.4971  0.6163  0.5062
 1010TIP3    H224666   2.448   5.731   8.777 -0.7266  0.3706 -0.9261
 1011TIP3   OH224667   3.717   1.962   1.924  0.3263 -0.0636  0.0487
 1011TIP3    H124668   3.803   1.977   1.964 -0.7462  1.2132  2.0312
 1011TIP3    H224669   3.672   2.046   1.933 -0.8325 -0.4492 -1.7729
 1012TIP3   OH224670   1.888   3.694   7.491  0.6279  0.2811  0.1784
 1012TIP3    H124671   1.831   3.619   7.475 -1.6987  1.9746  0.0117
 1012TIP3    H224672   1.885   3.708   7.585 -0.2280  1.0722  0.0482
 1013TIP3   OH224673   3.238   0.180   1.307 -0.0012  0.1999  0.8548
 1013TIP3    H124674   3.156   0.228   1.314 -2.1450 -3.1467  0.9430
 1013TIP3    H224675   3.222   0.114   1.240  2.8153 -0.3375  0.5615
 1014TIP3   OH224676   1.593   1.106   1.460 -0.6306  0.3200  0.5023
 1014TIP3    H124677   1.527   1.093   1.527 -0.1910 -1.2378  0.6901
 1014TIP3    H224678   1.676   1.111   1.508 -0.2900 -1.0357  0.1091
 1015TIP3   OH224679   5.358   2.283   7.756  0.2949  0.1064  0.4809
 1015TIP3    H124680   5.444   2.302   7.792  0.4588  0.8160 -0.2341
 1015TIP3    H224681   5.373   2.214   7.691  0.4878  0.8224 -0.2601
 1016TIP3   OH224682   5.173   5.433   7.908 -0.0243 -0.4247 -0.5802
 1016TIP3    H124683   5.256   5.392   7.882  0.3697  0.3180 -0.5306
 1016TIP3    H224684   5.196   5.486   7.984 -1.1786 -2.6850  1.4694
 1017TIP3   OH224685   4.679   4.068   2.042 -0.3175 -0.4825 -0.4669
 1017TIP3    H124686   4.675   4.078   2.137 -1.5132 -0.7873 -0.4728
 1017TIP3    H224687   4.680   3.974   2.027 -0.2539 -0.4369 -0.7633
 1018TIP3   OH224688   4.734   4.592   1.506 -0.0846 -0.0776  0.2384
 1018TIP3    H124689   4.762   4.654   1.440  0.7634 -0.4520  0.2304
 1018TIP3    H224690   4.651   4.627   1.539  0.7612  1.4815  0.8024
 1019TIP3   OH224691   6.692   5.608   6.779  0.7389 -0.3142 -0.1463
 1019TIP3    H124692   6.617   5.646   6.733  1.5458  0.8711 -0.5306
 1019TIP3    H224693   6.728   5.544   6.718  0.7086 -0.0643 -0.4283
 1020TIP3   OH224694   1.703   1.581   8.478 -0.1537 -0.7147 -0.1725
 1020TIP3    H124695   1.668   1.493   8.489 -2.0143 -0.2189 -1.5581
 1020TIP3    H224696   1.636   1.638   8.515  0.8423  0.1517  0.3419
 1021TIP3   OH224697   3.306   6.156   1.875 -0.2454 -0.3430  0.0379
 1021TIP3    H124698   3.399   6.150   1.854  0.1467 -1.8449  1.8729
 1021TIP3    H224699   3.283   6.247   1.858  1.8175  0.3164  0.4799
 1022TIP3   OH224700   2.467   4.762   2.127  0.4479  0.6591 -1.0138
 1022TIP3    H124701   2.458   4.770   2.032 -1.7042 -1.1287 -1.0392
 1022TIP3    H224702   2.416   4.835   2.162  1.3202  1.3754 -1.1950
 1023TIP3   OH224703   5.010   1.781   8.252  0.0151 -0.2017 -0.0473
 1023TIP3    H124704   5.063   1.789   8.331  1.2377 -0.0741 -0.8696
 1023TIP3    H224705   4.949   1.855   8.257  1.2059  0.8066 -0.0563
 1024TIP3   OH224706   0.622   6.147   0.199 -0.4626  0.5979  0.6080
 1024TIP3    H124707   0.580   6.133   0.284 -2.2203 -0.5095 -0.3895
 1024TIP3    H224708   0.556   6.192   0.147 -0.0682 -0.3037 -0.7036
 1025TIP3   OH224709   3.718   1.517   0.901 -0.1043 -0.4640  0.4399
 1025TIP3    H124710   3.792   1.563   0.861 -1.5407  1.7919  0.1955
 1025TIP3    H224711   3.685   1.460   0.832 -2.0968  2.8284 -1.5690
 1026TIP3   OH224712   5.906   1.357   1.109 -0.4181  0.6557 -0.0883
 1026TIP3    H124713   5.872   1.443   1.134 -3.0398 -0.7246  1.6055
 1026TIP3    H224714   5.973   1.337   1.174 -0.6271  0.9565  0.2203
 1027TIP3   OH224715   6.644   6.090   7.753 -0.3632 -0.0355  0.1757
 1027TIP3    H124716   6.572   6.048   7.706 -0.3580  0.8464 -0.6493
 1027TIP3    H224717   6.707   6.113   7.684 -0.2889  1.1561  0.6232
 1028TIP3   OH224718   5.740   2.193   7.735  0.2758  0.5596  0.1552
 1028TIP3    H124719   5.722   2.261   7.800  0.3036  1.9673 -1.2397
 1028TIP3    H224720   5.709   2.112   7.776 -1.5326  1.6658  1.1524
 1029TIP3   OH224721   0.982   5.715   2.301  0.0101 -0.1906  0.1883
 1029TIP3    H124722   0.916   5.686   2.364 -0.1551  0.2521  0.2239
 1029TIP3    H224723   1.028   5.635   2.276  0.5785 -0.2791  1.4346
 1030TIP3   OH224724   1.883   0.067   0.950 -0.0247 -0.4774 -1.1303
 1030TIP3    H124725   1.861   0.152   0.989 -1.0292 -1.9110  1.7513
 1030TIP3    H224726   1.969   0.045   0.988 -0.5977 -1.5010 -0.3541
 1031TIP3   OH224727   5.541   3.278   2.513  0.1459  0.3538  0.6097
 1031TIP3    H124728   5.467   3.329   2.547  0.4157  1.1050  0.1073
 1031TIP3    H224729   5.601   3.344   2.479  0.6463 -0.2987  0.2088
 1032TIP3   OH224730   4.110   0.551   0.928  0.2153  0.2708  0.1574
 1032TIP3    H124731   4.078   0.461   0.939  2.6275 -0.6043  0.5514
 1032TIP3    H224732   4.181   0.559   0.992  0.7013  2.1379 -0.5666
 1033TIP3   OH224733   0.623   3.660   1.571  0.0923  0.0416 -0.1058
 1033TIP3    H124734   0.666   3.718   1.634  0.2779  0.2114 -0.3889
 1033TIP3    H224735   0.577   3.719   1.511 -0.5894 -0.1368  0.2247
 1034TIP3   OH224736   2.661   1.824   6.683  0.1393  0.2821 -0.4303
 1034TIP3    H124737   2.612   1.784   6.611  0.7378  0.2815 -0.8401
 1034TIP3    H224738   2.595   1.842   6.750 -0.5756  1.1337 -1.3418
 1035TIP3   OH224739   0.865   0.356   8.713 -0.2148  0.0484 -0.1685
 1035TIP3    H124740   0.934   0.301   8.675 -2.0706 -2.3730 -0.2351
 1035TIP3    H224741   0.848   0.318   8.799 -0.9656  1.1109  0.1822
 1036TIP3   OH224742   5.107   4.548   0.260 -0.0028 -0.1427 -0.3593
 1036TIP3    H124743   5.189   4.499   0.256  0.0679 -0.0306 -0.2935
 1036TIP3    H224744   5.055   4.515   0.186  0.4465  0.3969 -0.9325
 1037TIP3   OH224745   4.332   2.119   0.019  0.6415 -0.0906  0.2206
 1037TIP3    H124746   4.339   2.157  -0.068 -0.4999 -0.1792  0.0768
 1037TIP3    H224747   4.400   2.164   0.070  0.8286  0.4918 -0.5231
 1038TIP3   OH224748   3.246   5.237   0.488 -0.4847  0.3290 -0.6578
 1038TIP3    H124749   3.253   5.184   0.409 -1.2750 -0.9318  0.0897
 1038TIP3    H224750   3.193   5.312   0.462  1.1594  1.1231 -1.8857
 1039TIP3   OH224751   4.511   2.890   6.473 -0.4528  0.0547 -0.5328
 1039TIP3    H124752   4.491   2.899   6.567  1.6663  1.3211 -0.1353
 1039TIP3    H224753   4.480   2.971   6.434  1.8785  1.1730 -0.2337
 1040TIP3   OH224754   2.738   2.162   0.016 -0.1941 -0.1916 -0.1493
 1040TIP3    H124755   2.819   2.164   0.068 -0.4360 -1.1769  0.3093
 1040TIP3    H224756   2.751   2.090  -0.045  0.2663  1.2527 -1.8103
 1041TIP3   OH224757   0.066   0.530   8.291  0.3294  0.0101  0.3158
 1041TIP3    H124758   0.142   0.572   8.330  0.8335 -1.9333  1.5989
 1041TIP3    H224759  -0.006   0.551   8.350  0.8275 -1.8104  1.6845
 1042TIP3   OH224760   4.601   0.403   0.934  0.1178 -0.7239  0.1815
 1042TIP3    H124761   4.640   0.474   0.984  2.2543 -0.4739 -1.6549
 1042TIP3    H224762   4.537   0.364   0.993  0.7122  1.0864  2.1508
 1043TIP3   OH224763   4.377   5.695   1.259  0.1120 -0.0920 -0.2205
 1043TIP3    H124764   4.424   5.700   1.342  0.7204 -0.8195 -0.5109
 1043TIP3    H224765   4.317   5.770   1.261 -0.3684 -0.4637  1.1741
 1044TIP3   OH224766   6.751   6.105   0.808 -0.0192  0.3542 -0.0634
 1044TIP3    H124767   6.814   6.035   0.793 -1.9241 -1.5919  0.4907
 1044TIP3    H224768   6.666   6.061   0.806 -1.5780  3.1252 -2.7653
 1045TIP3   OH224769   5.956   1.372   0.835 -0.1271 -0.5537  0.6848
 1045TIP3    H124770   5.888   1.438   0.822 -0.4208 -0.8425  0.7490
 1045TIP3    H224771   5.948   1.347   0.927  1.1244  0.5754  1.1266
 1046TIP3   OH224772   5.761   1.346   8.412 -0.3820  0.2064  0.1720
 1046TIP3    H124773   5.742   1.408   8.483 -1.7189 -1.1877  1.1147
 1046TIP3    H224774   5.855   1.330   8.418 -0.5015 -0.0806  1.8532
 1047TIP3   OH224775   6.453   5.584   2.218  0.5044  0.0377  0.3348
 1047TIP3    H124776   6.547   5.569   2.224  0.6105 -0.5341 -1.7570
 1047TIP3    H224777   6.415   5.525   2.283  1.4461 -2.5912 -1.3204
 1048TIP3   OH224778   3.644   5.757   7.508 -0.2955 -0.0845  0.0254
 1048TIP3    H124779   3.650   5.685   7.570 -0.1332  0.1824  0.3237
 1048TIP3    H224780   3.659   5.717   7.422  0.2509 -0.3313  0.2313
 1049TIP3   OH224781   4.629   2.445   8.756 -0.2113 -0.2592 -0.3046
 1049TIP3    H124782   4.719   2.440   8.790  0.2314 -0.6043 -1.4854
 1049TIP3    H224783   4.593   2.523   8.798  0.5993 -0.1851  0.2896
 1050TIP3   OH224784   3.717   5.267   0.729 -0.0264  0.7335 -0.3545
 1050TIP3    H124785   3.643   5.310   0.771  0.2223  0.9275 -0.1072
 1050TIP3    H224786   3.680   5.188   0.689  0.0786 -0.7231  2.1919
 1051TIP3   OH224787   1.738   3.689   8.516 -1.0679  0.4114  0.1960
 1051TIP3    H124788   1.780   3.687   8.602 -1.2537  0.5512  0.2903
 1051TIP3    H224789   1.800   3.645   8.458 -0.0957  1.9534  0.0124
 1052TIP3   OH224790   3.706   3.246   8.016 -0.4804  0.5083  0.0902
 1052TIP3    H124791   3.638   3.312   8.009 -1.9705 -0.7381  1.9205
 1052TIP3    H224792   3.669   3.168   7.975  0.7172  0.3812 -0.8256
 1053TIP3   OH224793   0.264   2.906   1.525  0.0248 -0.7015 -1.1428
 1053TIP3    H124794   0.323   2.898   1.599 -0.5198  1.7597 -0.3516
 1053TIP3    H224795   0.320   2.898   1.448  1.0947 -0.1927 -0.4320
 1054TIP3   OH224796   4.156   2.199   2.055 -0.4233  0.2646  0.9292
 1054TIP3    H124797   4.119   2.113   2.075 -0.7178  0.1309 -0.1558
 1054TIP3    H224798   4.081   2.254   2.031 -0.0441  0.2390 -0.3946
 1055TIP3   OH224799   2.751   2.895   2.072 -0.0167  0.0166 -0.1457
 1055TIP3    H124800   2.826   2.842   2.045 -0.5272 -1.7583  1.6627
 1055TIP3    H224801   2.708   2.920   1.990  1.2095 -0.9186 -1.1132
 1056TIP3   OH224802   2.305   5.163   0.857 -0.2830  0.7032 -0.0025
 1056TIP3    H124803   2.395   5.161   0.824 -0.5324 -0.6748 -0.6709
 1056TIP3    H224804   2.252   5.182   0.780 -0.6842 -0.1392  0.0545
 1057TIP3   OH224805   6.068   4.956   0.250 -0.0242 -0.1282 -0.1071
 1057TIP3    H124806   6.047   4.960   0.156 -2.7735 -1.0138  0.3701
 1057TIP3    H224807   6.134   4.888   0.257  1.4217  1.0307 -1.5112
 1058TIP3   OH224808   4.522   1.652   7.140  0.6732  0.5582 -0.0471
 1058TIP3    H124809   4.598   1.606   7.106  0.5508  0.2394  0.1042
 1058TIP3    H224810   4.509   1.616   7.227 -0.3896 -0.2979 -0.5263
 1059TIP3   OH224811   0.008   6.585   0.389  0.1193 -0.1765 -0.4724
 1059TIP3    H124812   0.072   6.539   0.444  1.0915 -0.8733 -2.1044
 1059TIP3    H224813  -0.073   6.582   0.440  0.8349 -1.2747  0.6772
 1060TIP3   OH224814   0.602   0.091   7.603 -0.0444  0.2605  0.3987
 1060TIP3    H124815   0.555   0.100   7.686 -0.8250  1.2519 -0.1239
 1060TIP3    H224816   0.567   0.011   7.564 -2.1124  1.5099 -0.4487
 1061TIP3   OH224817   1.389   6.037   0.453 -0.4949 -0.4368 -0.4083
 1061TIP3    H124818   1.395   5.985   0.533 -0.1470 -0.0732 -0.1967
 1061TIP3    H224819   1.315   5.999   0.406  1.4438 -2.9917 -1.6158
 1062TIP3   OH224820   5.172   5.962   0.918 -0.1531 -0.1798  0.1837
 1062TIP3    H124821   5.243   5.991   0.976  0.2350 -1.3046  0.2905
 1062TIP3    H224822   5.093   5.975   0.970  0.1250 -0.4735  0.6954
 1063TIP3   OH224823   3.276   3.274   1.646  0.8329 -1.0805 -0.2216
 1063TIP3    H124824   3.359   3.269   1.600  0.4118  0.8707 -1.2973
 1063TIP3    H224825   3.210   3.269   1.577  0.1475  0.2368  0.2891
 1064TIP3   OH224826   1.206   1.421   0.400  0.2445  0.0862 -0.5342
 1064TIP3    H124827   1.256   1.366   0.459 -0.6334 -0.9003 -0.6754
 1064TIP3    H224828   1.270   1.483   0.364  0.8473  0.4833  1.1581
 1065TIP3   OH224829   0.178   1.430   7.846  0.7420 -0.3637 -0.5952
 1065TIP3    H124830   0.274   1.435   7.848  0.7718  2.8242 -2.8021
 1065TIP3    H224831   0.149   1.520   7.830 -2.3452 -1.7156 -4.2558
 1066TIP3   OH224832   4.483   3.773   1.311 -0.1546 -0.5592 -0.5544
 1066TIP3    H124833   4.388   3.785   1.314 -0.2178 -0.9801 -0.6693
 1066TIP3    H224834   4.510   3.769   1.402 -0.0867  0.6721 -0.5054
 1067TIP3   OH224835   5.283   5.688   1.512  0.1916 -0.3964  0.4069
 1067TIP3    H124836   5.228   5.759   1.547 -0.2204 -0.4755 -0.0770
 1067TIP3    H224837   5.373   5.717   1.530  0.0182  0.1013  0.4924
 1068TIP3   OH224838   5.869   4.066   2.405 -0.2785 -0.0501  0.7939
 1068TIP3    H124839   5.900   3.976   2.393 -2.1259 -0.6748  0.2724
 1068TIP3    H224840   5.793   4.058   2.463  0.9578  1.5006  2.7467
 1069TIP3   OH224841   5.846   2.586   0.300 -0.5592  0.2690 -0.2942
 1069TIP3    H124842   5.794   2.520   0.347 -0.4419  0.4095  0.0382
 1069TIP3    H224843   5.840   2.560   0.208 -0.7417 -0.0478 -0.1963
 1070TIP3   OH224844   6.275   6.517   7.140 -0.1259  0.0747 -0.3527
 1070TIP3    H124845   6.350   6.573   7.160  0.5002 -0.9855  0.3488
 1070TIP3    H224846   6.270   6.518   7.044  0.0825  1.0459 -0.3670
 1071TIP3   OH224847   1.666   0.122   1.882  0.2431  0.2178 -0.2480
 1071TIP3    H124848   1.585   0.091   1.922 -1.0210  1.9954 -1.2568
 1071TIP3    H224849   1.660   0.218   1.890  1.5330  0.4434 -1.6593
 1072TIP3   OH224850   6.561   5.521   7.902  0.9869  0.4044 -0.1299
 1072TIP3    H124851   6.569   5.478   7.987 -0.7820 -1.3688 -0.7805
 1072TIP3    H224852   6.609   5.603   7.912 -1.1741  1.4446  3.3767
 1073TIP3   OH224853   5.433   4.951   8.059  0.1548  0.5963  0.6180
 1073TIP3    H124854   5.441   5.047   8.060 -0.8653  0.6887  0.9201
 1073TIP3    H224855   5.494   4.922   8.127 -2.5752  1.3491  3.6784
 1074TIP3   OH224856   4.944   2.392   7.557 -0.4266 -0.6046  0.1817
 1074TIP3    H124857   4.930   2.457   7.489  0.4865 -0.0819  0.4826
 1074TIP3    H224858   5.031   2.357   7.541 -0.1534 -0.3895  1.1501
 1075TIP3   OH224859   2.734   2.658   1.306 -0.0858 -0.4387  0.0306
 1075TIP3    H124860   2.658   2.617   1.346  0.1160 -1.8322 -0.9469
 1075TIP3    H224861   2.807   2.634   1.362 -0.4168  1.7217  1.5394
 1076TIP3   OH224862   6.071   3.488   0.182  0.4149  0.5993  0.3059
 1076TIP3    H124863   6.114   3.540   0.249  1.3394 -0.8324  0.8522
 1076TIP3    H224864   6.016   3.426   0.230  0.4960  0.0641 -0.2728
 1077TIP3   OH224865   6.743   5.128   8.737 -0.0023  0.1681 -0.3673
 1077TIP3    H124866   6.785   5.214   8.742 -0.4597  0.3396  0.6125
 1077TIP3    H224867   6.685   5.125   8.813 -0.8142 -0.5760 -1.0072
 1078TIP3   OH224868   4.619   3.343   1.802  0.1061 -0.0866 -0.0106
 1078TIP3    H124869   4.556   3.274   1.779  0.6200 -0.7129  0.4297
 1078TIP3    H224870   4.565   3.413   1.839 -0.5877  0.3805 -1.8065
 1079TIP3   OH224871   1.969   0.187   8.136  0.0595  0.2715 -0.1414
 1079TIP3    H124872   1.885   0.205   8.093 -0.4336 -0.4136  0.5049
 1079TIP3    H224873   2.032   0.241   8.089 -0.5049 -0.2336 -1.5461
 1080TIP3   OH224874   4.633   4.815   8.387  0.1829 -0.1176  0.1107
 1080TIP3    H124875   4.556   4.758   8.382  0.6000 -0.7249  0.3588
 1080TIP3    H224876   4.696   4.774   8.327  0.3316  0.3363 -0.0429
 1081TIP3   OH224877   6.178   6.073   1.504 -0.1401 -0.0614  0.0357
 1081TIP3    H124878   6.220   6.158   1.498 -1.3422  0.4760 -1.7681
 1081TIP3    H224879   6.179   6.040   1.414 -1.9251 -0.8157  0.2538
 1082TIP3   OH224880   5.566   3.349   8.705  0.0269  0.1451 -0.2428
 1082TIP3    H124881   5.524   3.264   8.690 -0.8642  0.2251  1.5862
 1082TIP3    H224882   5.607   3.370   8.621  1.6265 -2.8368 -0.3580
 1083TIP3   OH224883   2.154   5.469   8.510  0.1018 -0.4870  0.7577
 1083TIP3    H124884   2.191   5.404   8.450  0.7572  0.7029 -0.1948
 1083TIP3    H224885   2.157   5.428   8.596  0.7406 -1.6039  0.2262
 1084TIP3   OH224886   3.367   5.108   6.543  0.4216  0.1102 -0.0813
 1084TIP3    H124887   3.376   5.013   6.548  1.1528  0.2310  1.4782
 1084TIP3    H224888   3.276   5.122   6.516 -0.0206 -1.0227  0.7637
 1085TIP3   OH224889   3.798   3.893   7.973 -0.4923 -0.2489 -0.2185
 1085TIP3    H124890   3.844   3.872   7.892  0.4248 -0.6414  0.3806
 1085TIP3    H224891   3.786   3.987   7.970  1.3622  0.0411  0.0857
 1086TIP3   OH224892   6.173   3.098   1.991 -0.0129 -0.1076 -0.0641
 1086TIP3    H124893   6.222   3.153   2.052 -1.1176  0.5341  0.2892
 1086TIP3    H224894   6.207   3.010   2.004  0.9096  0.2932  0.2848
 1087TIP3   OH224895   4.758   5.036   7.479  0.3669  0.2646  0.0219
 1087TIP3    H124896   4.671   5.030   7.440  0.0712  1.2113  0.5124
 1087TIP3    H224897   4.812   4.979   7.425 -0.5315 -0.2579 -0.3499
 1088TIP3   OH224898   0.624   5.826   0.750 -0.4398  0.8341 -0.1071
 1088TIP3    H124899   0.644   5.917   0.770 -1.3713  1.3019 -1.1970
 1088TIP3    H224900   0.582   5.829   0.664 -2.3543 -0.4052  0.7371
 1089TIP3   OH224901   0.871   2.816   8.273  0.8554 -0.2612  0.2035
 1089TIP3    H124902   0.823   2.739   8.241  1.2316 -0.8343  0.9661
 1089TIP3    H224903   0.953   2.815   8.224  1.7245 -1.5273  1.5824
 1090TIP3   OH224904   0.864   5.698   8.274  0.3334  0.0199 -1.0603
 1090TIP3    H124905   0.812   5.707   8.195 -0.4306  0.4849 -0.5176
 1090TIP3    H224906   0.927   5.628   8.254  0.4989  0.4963 -2.2476
 1091TIP3   OH224907   4.907   5.613   1.534 -0.0172 -0.6053  0.1814
 1091TIP3    H124908   4.969   5.548   1.566 -0.9475 -0.8697  1.5642
 1091TIP3    H224909   4.857   5.639   1.612  0.9446  2.5147 -0.0989
 1092TIP3   OH224910   3.400   4.508   7.039  0.1453  0.0844 -0.5345
 1092TIP3    H124911   3.407   4.567   6.963 -0.2475  1.1600  0.2424
 1092TIP3    H224912   3.383   4.422   7.000  1.3055  0.3546 -1.7241
 1093TIP3   OH224913   4.222   2.287   1.628  0.1425  0.0847 -0.2759
 1093TIP3    H124914   4.148   2.344   1.648 -1.1423 -1.3700 -0.6225
 1093TIP3    H224915   4.292   2.317   1.685 -1.1241  0.7002  1.0239
 1094TIP3   OH224916   0.741   2.276   1.923  0.7681 -0.5689  0.7363
 1094TIP3    H124917   0.731   2.343   1.855  0.3010 -0.6633  0.7121
 1094TIP3    H224918   0.836   2.266   1.933  0.8588 -1.2068 -0.5475
 1095TIP3   OH224919   1.195   4.917   7.586 -0.6472 -0.1173 -0.5456
 1095TIP3    H124920   1.138   4.978   7.633  1.1984  1.1476  0.1649
 1095TIP3    H224921   1.282   4.956   7.592  0.1441 -1.4005 -2.5569
 1096TIP3   OH224922   6.558   0.421   7.541  0.1203 -0.4186 -0.3220
 1096TIP3    H124923   6.624   0.480   7.504  0.3710  0.0391  0.7936
 1096TIP3    H224924   6.489   0.480   7.572  0.5131 -0.6541  1.0820
 1097TIP3   OH224925   4.240   3.093   8.254  0.3625 -0.3727 -0.1372
 1097TIP3    H124926   4.305   3.092   8.184  2.4947 -2.9722  1.6740
 1097TIP3    H224927   4.157   3.076   8.210  1.3093  0.0995 -2.2169
 1098TIP3   OH224928   2.809   5.679   8.553  0.2573  0.5358 -0.7896
 1098TIP3    H124929   2.842   5.739   8.620 -1.1249  0.0550  0.3686
 1098TIP3    H224930   2.874   5.609   8.550 -1.0172 -0.9572  2.2382
 1099TIP3   OH224931   1.031   0.929   6.370 -0.1801 -0.1650  0.5130
 1099TIP3    H124932   1.115   0.910   6.411  0.6429 -0.6438 -1.2921
 1099TIP3    H224933   1.000   0.845   6.337 -0.4161  0.3103 -0.5163
 1100TIP3   OH224934   2.898   4.577   1.657  0.2994 -0.0830  0.2831
 1100TIP3    H124935   2.850   4.636   1.715 -0.2151 -0.6677  0.4480
 1100TIP3    H224936   2.961   4.635   1.612  1.3090  0.2445  2.0309
 1101TIP3   OH224937   6.719   5.387   0.428 -0.8956 -0.0883  0.1157
 1101TIP3    H124938   6.717   5.331   0.505 -2.2036  2.1417  1.8153
 1101TIP3    H224939   6.627   5.403   0.407 -0.5567  1.0732 -0.5747
 1102TIP3   OH224940   3.714   2.024   7.748 -0.9002  0.2056 -0.0341
 1102TIP3    H124941   3.776   2.097   7.738 -1.2292  0.4644 -0.2022
 1102TIP3    H224942   3.726   1.995   7.838 -2.1259  1.7191  0.6559
 1103TIP3   OH224943   5.132   4.641   1.341  0.0495  0.5873  0.4122
 1103TIP3    H124944   5.128   4.583   1.417 -0.1216 -0.7539 -0.5743
 1103TIP3    H224945   5.130   4.581   1.266 -1.3043  1.9359 -0.6753
 1104TIP3   OH224946   0.039   6.304   0.995 -0.4627  0.4588 -0.1164
 1104TIP3    H124947   0.103   6.340   0.934  2.2005 -2.7628  0.4822
 1104TIP3    H224948  -0.016   6.247   0.941 -1.3308  1.3416 -0.2083
 1105TIP3   OH224949   5.531   2.161   6.399 -0.2977 -0.0871  0.1020
 1105TIP3    H124950   5.590   2.086   6.390 -0.6629 -0.3701  0.0167
 1105TIP3    H224951   5.473   2.137   6.471 -0.8039 -0.1534 -0.3189
 1106TIP3   OH224952   0.474   6.549   2.698 -0.1946  0.2940  0.4411
 1106TIP3    H124953   0.503   6.461   2.721 -0.9493  0.3992  1.8881
 1106TIP3    H224954   0.415   6.574   2.768  0.0079  1.9689  0.0554
 1107TIP3   OH224955   0.790   6.518   1.536  0.0438  0.3914 -0.1234
 1107TIP3    H124956   0.699   6.539   1.514  0.3345  0.5947 -1.1836
 1107TIP3    H224957   0.832   6.502   1.451  1.0384  0.4650  0.3428
 1108TIP3   OH224958   4.439   2.627   8.771  0.4099 -0.3382  0.0470
 1108TIP3    H124959   4.416   2.566   8.700  0.8926 -0.3253 -0.1265
 1108TIP3    H224960   4.460   2.709   8.727  1.7545 -0.6247  0.0950
 1109TIP3   OH224961   1.425   4.175   8.636  0.0756 -0.0424  0.3824
 1109TIP3    H124962   1.493   4.108   8.646  0.0800 -0.3137 -1.2548
 1109TIP3    H224963   1.374   4.145   8.561 -2.3209 -0.2408  1.9739
 1110TIP3   OH224964   3.601   1.121   7.989  0.3873 -0.4357 -0.2672
 1110TIP3    H124965   3.563   1.090   7.907  0.6434 -1.7538  0.1000
 1110TIP3    H224966   3.641   1.044   8.028  2.4367  0.6611 -0.0776
 1111TIP3   OH224967   6.189   0.851   0.885  0.0424 -0.3948  0.5001
 1111TIP3    H124968   6.130   0.807   0.824 -0.9975  0.9754  0.4523
 1111TIP3    H224969   6.145   0.934   0.905  0.8802 -0.3170  2.2609
 1112TIP3   OH224970   3.562   0.881   7.421  0.3535 -0.3030 -0.0289
 1112TIP3    H124971   3.478   0.878   7.376  1.0328  0.7516 -1.4229
 1112TIP3    H224972   3.548   0.942   7.494  0.6178  2.1530 -1.9192
 1113TIP3   OH224973   2.205   4.252   1.588 -0.0763 -0.0309  0.0148
 1113TIP3    H124974   2.276   4.294   1.635 -0.0716  1.1419 -0.9815
 1113TIP3    H224975   2.147   4.324   1.563 -0.4710 -0.7007 -1.0720
 1114TIP3   OH224976   6.125   1.167   8.523  0.0876  0.0513  0.2426
 1114TIP3    H124977   6.208   1.170   8.570 -0.5191 -2.3127  1.6380
 1114TIP3    H224978   6.066   1.222   8.574  0.6738  1.5640 -0.6360
 1115TIP3   OH224979   6.766   6.029   1.176 -0.0216 -0.0682  0.3488
 1115TIP3    H124980   6.731   6.115   1.151 -0.5209 -0.0951  0.9213
 1115TIP3    H224981   6.689   5.979   1.201  0.3126 -0.5470  0.4251
 1116TIP3   OH224982   6.233   3.075   7.739 -0.4276  0.6302 -0.1738
 1116TIP3    H124983   6.231   3.022   7.819 -0.3450 -2.4328 -2.0499
 1116TIP3    H224984   6.143   3.107   7.730 -0.3170  1.4744  1.3725
 1117TIP3   OH224985   3.833   1.705   1.910 -0.0226  0.7181  0.3360
 1117TIP3    H124986   3.893   1.652   1.963  1.0197  0.2745 -1.2144
 1117TIP3    H224987   3.826   1.788   1.958  0.9452  0.3622  1.1259
 1118TIP3   OH224988   0.902   3.926   1.154  0.1993 -0.0727  0.1110
 1118TIP3    H124989   0.862   3.839   1.158 -1.6238  0.7588  1.8913
 1118TIP3    H224990   0.985   3.916   1.201 -1.0684 -0.4320  2.4897
 1119TIP3   OH224991   2.305   4.014   1.518 -0.3116  0.3555 -0.5878
 1119TIP3    H124992   2.339   3.991   1.605  0.3049 -0.0564 -0.9383
 1119TIP3    H224993   2.263   4.099   1.531 -0.6936  0.0582  0.2336
 1120TIP3   OH224994   6.111   0.740   7.510  0.2631  0.0166 -0.2509
 1120TIP3    H124995   6.082   0.820   7.554  1.6887 -0.2933  1.3537
 1120TIP3    H224996   6.033   0.707   7.466 -0.3624  2.2701 -0.9653
 1121TIP3   OH224997   5.867   5.763   1.489 -0.5935  0.2419  0.3195
 1121TIP3    H124998   5.891   5.856   1.487 -0.3893  0.1967 -2.0644
 1121TIP3    H224999   5.950   5.717   1.495 -0.5819  0.2036 -0.0923
 1122TIP3   OH225000   2.402   1.411   8.390  0.1475  0.2434 -0.4352
 1122TIP3    H125001   2.340   1.397   8.319 -0.3734 -2.9894  0.5026
 1122TIP3    H225002   2.355   1.466   8.453 -1.9634 -2.2255  0.3160
 1123TIP3   OH225003   4.178   5.377   8.531  0.1762  0.1058  0.1729
 1123TIP3    H125004   4.110   5.424   8.578 -0.2781  0.3305 -0.6774
 1123TIP3    H225005   4.241   5.351   8.598 -0.2464  0.7634  0.8363
 1124TIP3   OH225006   4.991   1.218   0.973 -0.1364  0.0726  0.2076
 1124TIP3    H125007   5.044   1.181   1.044 -0.8217 -0.5634  0.4081
 1124TIP3    H225008   5.014   1.165   0.897  0.1170  0.3350  0.0967
 1125TIP3   OH225009   2.185   4.500   8.568 -0.6857  0.1910 -0.3698
 1125TIP3    H125010   2.194   4.459   8.482  0.1356  0.5025 -0.4402
 1125TIP3    H225011   2.268   4.483   8.612 -0.4944  1.3817 -0.2382
 1126TIP3   OH225012   5.620   4.557   2.576  0.0479 -0.0909 -0.0810
 1126TIP3    H125013   5.573   4.544   2.658  0.7108  1.1905  0.5263
 1126TIP3    H225014   5.582   4.636   2.538  0.5376 -0.0161 -0.4318
 1127TIP3   OH225015   0.541   2.139   2.805 -0.3973  0.4028  0.6557
 1127TIP3    H125016   0.625   2.112   2.769 -1.1501  0.7139 -1.4448
 1127TIP3    H225017   0.544   2.235   2.802 -0.7308  0.4193  0.8202
 1128TIP3   OH225018   4.879   4.827   0.718  0.7078  0.2001  0.1375
 1128TIP3    H125019   4.929   4.764   0.666  0.4390  0.1596 -0.0754
 1128TIP3    H225020   4.807   4.854   0.661  2.3201  2.8142 -0.8883
 1129TIP3   OH225021   6.672   3.793   8.375 -0.2258  0.4317  0.4508
 1129TIP3    H125022   6.737   3.843   8.324  0.3817 -0.2996  0.4911
 1129TIP3    H225023   6.719   3.766   8.454  0.4207 -2.6399 -0.8381
 1130TIP3   OH225024   5.412   5.243   7.877 -0.2401 -0.2179  0.1580
 1130TIP3    H125025   5.359   5.205   7.947 -1.6375 -2.3144 -1.8970
 1130TIP3    H225026   5.466   5.308   7.921 -3.0147  0.5776  2.7425
 1131TIP3   OH225027   5.502   1.666   1.753  0.3074 -0.2268  0.3955
 1131TIP3    H125028   5.555   1.634   1.826  2.0261  1.9719  0.2229
 1131TIP3    H225029   5.434   1.719   1.794 -0.6573 -1.5254  0.5198
 1132TIP3   OH225030   0.880   5.356   8.445  0.1561 -0.1777 -0.4085
 1132TIP3    H125031   0.859   5.448   8.462 -2.0370 -0.5128 -0.9900
 1132TIP3    H225032   0.799   5.319   8.410  0.6426 -2.6225  0.8536
 1133TIP3   OH225033   0.196   5.365   1.740 -0.7065  0.3790 -0.6656
 1133TIP3    H125034   0.103   5.384   1.731 -0.6829  1.1676  0.5282
 1133TIP3    H225035   0.200   5.294   1.803 -0.4873  0.6315 -0.3911
 1134TIP3   OH225036   1.411   2.614   7.509  0.2235  0.0547  0.2758
 1134TIP3    H125037   1.329   2.649   7.475  0.9199  1.5084  0.0093
 1134TIP3    H225038   1.406   2.519   7.494 -1.5705  0.0605  0.6809
 1135TIP3   OH225039   5.121   5.898   8.131 -0.0175  0.3281 -0.0174
 1135TIP3    H125040   5.080   5.887   8.045 -1.3139 -2.4734  0.8383
 1135TIP3    H225041   5.155   5.988   8.130 -1.6662  1.0473 -2.7102
 1136TIP3   OH225042   2.701   5.348   0.206 -0.2131 -0.0008  0.7844
 1136TIP3    H125043   2.677   5.258   0.186  0.0547 -0.4003  2.1347
 1136TIP3    H225044   2.754   5.341   0.286  2.3744  1.0441 -0.7041
 1137TIP3   OH225045   0.297   0.042   8.052 -0.1172 -0.4769 -0.0144
 1137TIP3    H125046   0.287   0.129   8.090 -0.0437 -0.2162 -0.5971
 1137TIP3    H225047   0.208   0.005   8.055 -0.0219 -0.6549  0.8767
 1138TIP3   OH225048   1.247   0.113   6.818  0.5524  0.1247  0.2410
 1138TIP3    H125049   1.319   0.096   6.757 -0.6324 -2.0085 -0.6803
 1138TIP3    H225050   1.267   0.199   6.856  2.4097  0.5797 -1.5996
 1139TIP3   OH225051   1.539   6.556   0.524 -0.0563 -0.4577  0.1850
 1139TIP3    H125052   1.476   6.629   0.524 -1.1948 -1.4106 -0.5580
 1139TIP3    H225053   1.487   6.479   0.503  1.4511 -1.2146 -0.9699
 1140TIP3   OH225054   4.555   3.283   0.537  0.5533 -0.0620 -0.3788
 1140TIP3    H125055   4.467   3.266   0.570  0.3661 -1.3694 -1.4323
 1140TIP3    H225056   4.600   3.198   0.544  1.2917  0.2512 -1.0932
 1141TIP3   OH225057   5.782   1.202   0.325 -0.1658  0.4805  0.2960
 1141TIP3    H125058   5.860   1.252   0.300  0.5557 -0.5519  0.3728
 1141TIP3    H225059   5.752   1.242   0.406  1.3683 -0.1867  1.2418
 1142TIP3   OH225060   1.464   4.154   7.902 -0.1371 -0.0014 -0.2024
 1142TIP3    H125061   1.555   4.133   7.924 -0.5497 -2.2546 -0.4023
 1142TIP3    H225062   1.417   4.071   7.912 -2.2045  1.1203 -0.0313
 1143TIP3   OH225063   1.887   2.219   1.120 -0.4179 -0.3542 -0.3441
 1143TIP3    H125064   1.922   2.227   1.209 -1.0092 -2.0347  0.0747
 1143TIP3    H225065   1.827   2.293   1.110 -1.4984 -0.9737  1.2261
 1144TIP3   OH225066   0.540   6.127   1.108  0.2339  0.8812 -0.6680
 1144TIP3    H125067   0.445   6.125   1.116  0.3055  1.1394  0.2533
 1144TIP3    H225068   0.568   6.037   1.126  0.2923  1.1797  0.8606
 1145TIP3   OH225069   3.887   3.295   0.567  0.5262  0.0489  0.1208
 1145TIP3    H125070   3.903   3.222   0.508  1.3981  0.8724 -0.7042
 1145TIP3    H225071   3.936   3.272   0.647 -0.0700 -0.7367  0.2701
 1146TIP3   OH225072   3.345   5.519   8.521 -0.1006  0.2265 -0.3525
 1146TIP3    H125073   3.395   5.511   8.440 -1.8741 -1.5604 -1.3660
 1146TIP3    H225074   3.300   5.603   8.514 -1.1636 -0.4232 -1.8292
 1147TIP3   OH225075   5.839   6.731   1.455 -0.3764  0.1700 -0.1929
 1147TIP3    H125076   5.796   6.655   1.417  0.3659  0.7983 -2.4214
 1147TIP3    H225077   5.862   6.704   1.544 -0.4974 -2.0645 -0.7941
 1148TIP3   OH225078   0.443   0.539   0.733  0.0488  0.2312  0.0196
 1148TIP3    H125079   0.381   0.483   0.687 -0.8292  1.0052  0.2369
 1148TIP3    H225080   0.393   0.618   0.756  0.9781  0.6735  0.6144
 1149TIP3   OH225081   1.806   6.119   7.786  0.2777  0.0089  0.2954
 1149TIP3    H125082   1.770   6.043   7.832  0.3391  0.6405  1.4297
 1149TIP3    H225083   1.739   6.142   7.722  0.1407 -0.8349  0.1291
 1150TIP3   OH225084   3.454   4.844   6.453  0.0021 -0.2941  0.1486
 1150TIP3    H125085   3.471   4.854   6.360  1.2256  0.4753  0.4361
 1150TIP3    H225086   3.536   4.810   6.489 -0.9797 -2.2239  0.7082
 1151TIP3   OH225087   0.642   1.573   1.568 -0.2455  0.0530  0.7288
 1151TIP3    H125088   0.648   1.481   1.543  0.4326  0.1621  0.4773
 1151TIP3    H225089   0.599   1.572   1.653 -4.7317 -0.2050 -1.2442
 1152TIP3   OH225090   3.342   5.927   7.951  0.1309 -0.2311 -0.0908
 1152TIP3    H125091   3.289   5.979   7.891  0.0220 -0.4304 -0.1672
 1152TIP3    H225092   3.432   5.948   7.927  0.1021  0.7484  0.5864
 1153TIP3   OH225093   2.755   5.674   7.770 -0.1939  0.4212  0.3890
 1153TIP3    H125094   2.801   5.687   7.853 -1.4247 -0.1497  1.1879
 1153TIP3    H225095   2.750   5.579   7.760 -0.9606  0.4790  0.1860
 1154TIP3   OH225096   1.749   1.118   7.641 -0.3573 -0.5273  0.1575
 1154TIP3    H125097   1.708   1.099   7.725  1.9652  0.5799  1.6411
 1154TIP3    H225098   1.715   1.205   7.617  0.6361  0.1361  1.0915
 1155TIP3   OH225099   2.574   5.919   0.555 -0.3195  0.2053 -0.0781
 1155TIP3    H125100   2.545   5.840   0.510 -2.3550  0.4814  0.6454
 1155TIP3    H225101   2.554   5.990   0.495 -0.1811  0.3226  0.0122
 1156TIP3   OH225102   0.080   1.520   7.192 -0.2000  0.2625 -0.3391
 1156TIP3    H125103   0.021   1.502   7.265  0.7611 -2.5528 -0.1412
 1156TIP3    H225104   0.028   1.500   7.114 -0.2133 -0.0171 -0.2603
 1157TIP3   OH225105   0.967   4.542   1.978  0.3303  0.9721  0.2539
 1157TIP3    H125106   0.960   4.637   1.987 -0.8266  0.9762 -0.5435
 1157TIP3    H225107   0.941   4.524   1.888  2.4788  0.0627 -0.2581
 1158TIP3   OH225108   0.020   1.867   1.109  0.4118  0.1539  0.3096
 1158TIP3    H125109  -0.010   1.841   1.196 -0.4810 -0.5152 -0.1880
 1158TIP3    H225110   0.003   1.962   1.105 -0.5569  0.0007  0.4750
 1159TIP3   OH225111   6.388   0.354   8.266  0.1672  0.3819  0.5844
 1159TIP3    H125112   6.477   0.388   8.259  0.1529  0.2883 -0.1440
 1159TIP3    H225113   6.369   0.317   8.179 -0.3802 -0.0900  0.8946
 1160TIP3   OH225114   4.277   2.105   1.101 -0.4589 -0.2904  0.7596
 1160TIP3    H125115   4.366   2.072   1.110  0.1349  0.4481 -1.6259
 1160TIP3    H225116   4.267   2.166   1.173  1.4627  0.5726  0.3623
 1161TIP3   OH225117   4.849   5.853   8.248  0.4077 -0.2091 -0.3200
 1161TIP3    H125118   4.932   5.872   8.205  0.4769 -0.6566 -0.3924
 1161TIP3    H225119   4.788   5.833   8.177  0.4232 -0.5770 -0.2338
 1162TIP3   OH225120   2.930   6.280   8.759 -0.2123  0.0664  0.4720
 1162TIP3    H125121   3.019   6.300   8.731 -0.3350 -1.4977 -1.2562
 1162TIP3    H225122   2.929   6.301   8.852  2.6809 -2.0075  1.1131
 1163TIP3   OH225123   3.185   0.018   1.088  0.6653 -0.0277  0.2829
 1163TIP3    H125124   3.252   0.024   1.020  1.1004 -0.0308  0.7008
 1163TIP3    H225125   3.161  -0.075   1.091 -0.0207  0.1165 -0.4858
 1164TIP3   OH225126   0.897   6.403   0.949  0.0775 -0.0806 -0.0220
 1164TIP3    H125127   0.935   6.356   1.023 -0.2186  0.8927  0.7736
 1164TIP3    H225128   0.888   6.493   0.980  0.7506  0.5500 -1.5452
 1165TIP3   OH225129   3.709   0.200   1.095 -0.3827 -0.0900  0.7749
 1165TIP3    H125130   3.619   0.173   1.117 -0.3514 -0.4222  0.4996
 1165TIP3    H225131   3.764   0.143   1.149 -0.3401  0.3739  1.2319
 1166TIP3   OH225132   2.626   3.233   8.727  0.5077 -0.1008  0.1782
 1166TIP3    H125133   2.589   3.290   8.794 -0.0699 -1.1014  0.7348
 1166TIP3    H225134   2.578   3.255   8.647 -0.3782 -0.4686  0.5998
 1167TIP3   OH225135   3.747   4.519   8.434  0.2902 -0.2055 -0.9284
 1167TIP3    H125136   3.789   4.459   8.495 -1.7742 -0.7661  0.0171
 1167TIP3    H225137   3.667   4.546   8.478  1.2404  3.5611 -1.1543
 1168TIP3   OH225138   3.296   5.885   0.946  0.0364  0.7755  1.1512
 1168TIP3    H125139   3.331   5.855   1.030 -2.8848 -0.6531  1.9974
 1168TIP3    H225140   3.208   5.918   0.968 -1.4422 -1.0434 -1.4626
 1169TIP3   OH225141   2.548   5.838   8.529 -0.2240  0.0065 -0.3680
 1169TIP3    H125142   2.530   5.746   8.511  2.3009 -1.0053  1.6778
 1169TIP3    H225143   2.461   5.877   8.543 -1.2880 -2.6699  1.3092
 1170TIP3   OH225144   3.701   3.445   7.568  0.1696  0.1936  0.4408
 1170TIP3    H125145   3.712   3.538   7.547  1.0639  0.1058  0.4991
 1170TIP3    H225146   3.636   3.444   7.638 -0.1759  0.7425  0.1359
 1171TIP3   OH225147   5.303   0.097   8.338 -0.7513 -0.3556  0.6425
 1171TIP3    H125148   5.231   0.121   8.280 -0.3303 -0.3436  0.1208
 1171TIP3    H225149   5.382   0.125   8.292 -0.3802 -0.8045  0.9935
 1172TIP3   OH225150   3.969   3.686   2.026  0.3198 -0.4514 -0.1370
 1172TIP3    H125151   4.032   3.618   2.048  0.0514  0.0259  2.4127
 1172TIP3    H225152   3.886   3.640   2.015 -0.0330 -0.5655  2.3956
 1173TIP3   OH225153   1.398   3.789   1.357  0.5938 -0.4391  0.4703
 1173TIP3    H125154   1.357   3.729   1.419  1.1329 -0.7678  0.5057
 1173TIP3    H225155   1.334   3.796   1.286  0.7718 -1.4939  0.1959
 1174TIP3   OH225156   2.038   3.856   7.887 -0.0048 -0.2279 -0.1690
 1174TIP3    H125157   1.979   3.886   7.818 -0.8853  1.4300  1.2299
 1174TIP3    H225158   1.989   3.788   7.933 -0.2726  0.1509  0.1115
 1175TIP3   OH225159   1.583   5.595   7.187 -0.4287  0.1812  0.1406
 1175TIP3    H125160   1.581   5.500   7.193  0.3952  0.1758  0.5382
 1175TIP3    H225161   1.543   5.625   7.269 -0.0067  0.1715  0.3511
 1176TIP3   OH225162   4.483   2.520   0.380 -0.1008 -0.1063 -0.1090
 1176TIP3    H125163   4.408   2.532   0.438 -1.1481 -0.2629 -1.3715
 1176TIP3    H225164   4.504   2.427   0.386  0.1563 -0.0132  0.4410
 1177TIP3   OH225165   2.169   4.511   0.181  0.6800  0.3376  0.2079
 1177TIP3    H125166   2.097   4.559   0.221  0.5236 -0.0934  0.4550
 1177TIP3    H225167   2.126   4.442   0.131  0.9287 -0.1196  0.6152
 1178TIP3   OH225168   6.513   6.435   7.786  0.1495  0.3943 -0.2849
 1178TIP3    H125169   6.490   6.343   7.771  1.3792 -0.7175  3.6336
 1178TIP3    H225170   6.437   6.471   7.832  0.1264  1.0417 -0.8260
 1179TIP3   OH225171   4.843   5.228   8.130 -0.3536 -0.1770 -0.2339
 1179TIP3    H125172   4.831   5.282   8.052  0.0416  0.4526  0.1305
 1179TIP3    H225173   4.871   5.290   8.198 -1.3401 -0.6098  0.5874
 1180TIP3   OH225174   6.584   0.065   1.303  0.5977  0.4240 -0.6126
 1180TIP3    H125175   6.659   0.025   1.347  0.2584  0.1433 -0.2775
 1180TIP3    H225176   6.578   0.019   1.219  1.1188  0.8157 -0.8671
 1181TIP3   OH225177   4.373   0.114   1.415  0.3357  0.1293 -0.2626
 1181TIP3    H125178   4.453   0.073   1.384 -0.2462 -0.5997 -0.8192
 1181TIP3    H225179   4.399   0.158   1.496  1.1889 -0.5037 -0.1814
 1182TIP3   OH225180   2.417   3.685   1.654 -0.3877 -0.1735  0.0171
 1182TIP3    H125181   2.470   3.628   1.709  0.6888 -1.8547 -2.5445
 1182TIP3    H225182   2.462   3.684   1.569 -1.3331  3.1238 -0.6490
 1183TIP3   OH225183   4.412   5.968   8.233 -0.4680  0.2710  0.5258
 1183TIP3    H125184   4.420   5.874   8.216  0.0768  0.5036 -0.5990
 1183TIP3    H225185   4.471   5.985   8.306 -1.0053 -0.3544  1.1139
 1184TIP3   OH225186   1.087   0.001   1.416 -0.3453  0.1751  0.2274
 1184TIP3    H125187   1.093  -0.085   1.374  0.4243  0.0704  0.5335
 1184TIP3    H225188   1.022  -0.010   1.485  0.5203 -0.4761  0.9661
 1185TIP3   OH225189   4.211   3.859   7.121  0.6469 -0.0968  0.6109
 1185TIP3    H125190   4.156   3.932   7.149  0.3608 -0.8362  2.0261
 1185TIP3    H225191   4.196   3.853   7.026 -1.5415 -0.1313  0.9073
 1186TIP3   OH225192   6.199   5.318   1.626  0.4657  0.0131  0.0258
 1186TIP3    H125193   6.125   5.265   1.655  0.4130 -0.2416 -0.5762
 1186TIP3    H225194   6.244   5.341   1.707  0.0378 -0.2825  0.3540
 1187TIP3   OH225195   3.692   5.922   6.905 -0.0245  0.2443 -0.2705
 1187TIP3    H125196   3.723   5.967   6.826  0.7025 -0.1144 -0.1978
 1187TIP3    H225197   3.597   5.930   6.901  0.0242  0.5869 -0.9734
 1188TIP3   OH225198   3.900   4.089   1.603 -0.0397 -0.5595  0.7288
 1188TIP3    H125199   3.896   4.139   1.684 -0.3902 -0.4129  0.6201
 1188TIP3    H225200   3.970   4.024   1.619 -0.6712 -1.0832  1.4563
 1189TIP3   OH225201   6.761   6.800   1.477  0.3298 -0.6652  0.2216
 1189TIP3    H125202   6.791   6.822   1.565 -2.1091  0.3702  0.8741
 1189TIP3    H225203   6.833   6.828   1.420  0.9740  0.9272  1.7140
 1190TIP3   OH225204   6.740   4.691   8.087 -0.3042  0.2774 -0.1723
 1190TIP3    H125205   6.788   4.687   8.170 -1.6165  0.7906  0.6375
 1190TIP3    H225206   6.726   4.599   8.063  1.3523  0.1060 -0.6207
 1191TIP3   OH225207   0.457   5.931   1.381 -0.0827  0.2927  0.1613
 1191TIP3    H125208   0.476   5.937   1.475 -0.6771  4.0315  0.2152
 1191TIP3    H225209   0.362   5.946   1.375  0.1472  1.4377 -1.0601
 1192TIP3   OH225210   6.662   5.051   1.142 -0.4922  0.4101  0.0428
 1192TIP3    H125211   6.572   5.081   1.158 -0.5867  1.3776 -1.9574
 1192TIP3    H225212   6.717   5.113   1.189 -0.8428  0.5472  0.2773
 1193TIP3   OH225213   1.943   3.079   0.395  0.3603  0.0506  0.2560
 1193TIP3    H125214   2.032   3.086   0.430 -0.1816 -1.5889  2.1614
 1193TIP3    H225215   1.892   3.043   0.468 -1.8617  0.8536 -0.8142
 1194TIP3   OH225216   3.100   5.230   8.357 -0.0766  0.0920 -0.0004
 1194TIP3    H125217   3.119   5.320   8.329  0.0432  0.5545  1.4935
 1194TIP3    H225218   3.182   5.200   8.397 -0.1149 -0.7055 -0.4823
 1195TIP3   OH225219   1.953   4.878   1.064 -0.3263 -0.1995 -0.0379
 1195TIP3    H125220   1.921   4.936   0.994 -0.1106  0.5920  0.4977
 1195TIP3    H225221   1.885   4.812   1.073 -1.8672  1.4298  1.0478
 1196TIP3   OH225222   0.110   4.408   7.761  0.4849  0.1460 -0.0640
 1196TIP3    H125223   0.068   4.490   7.734  0.1780 -0.2308 -0.7285
 1196TIP3    H225224   0.039   4.356   7.798  0.3880 -0.4192 -1.0254
 1197TIP3   OH225225   2.677   5.038   0.372 -0.1302 -0.8891 -0.2968
 1197TIP3    H125226   2.713   4.991   0.297  2.2611  0.0372  0.1703
 1197TIP3    H225227   2.694   4.981   0.446 -1.4333 -1.2956 -0.3062
 1198TIP3   OH225228   5.988   3.238   7.125 -0.3680 -0.1812 -0.2170
 1198TIP3    H125229   5.967   3.207   7.037  0.4194 -0.9709 -0.1500
 1198TIP3    H225230   6.083   3.225   7.133 -0.5037 -0.6420  0.9276
 1199TIP3   OH225231   6.836   5.277   7.172  0.0459  0.1286 -0.6957
 1199TIP3    H125232   6.791   5.297   7.090 -0.4318  0.1280 -0.4390
 1199TIP3    H225233   6.780   5.212   7.215  1.4814 -1.6990 -1.4448
 1200TIP3   OH225234   6.182   4.171   7.692 -0.4306 -0.6476 -0.3838
 1200TIP3    H125235   6.240   4.098   7.710 -0.2287 -0.7443 -1.4067
 1200TIP3    H225236   6.094   4.135   7.703 -0.3211 -0.7510  0.1971
 1201TIP3   OH225237   0.286   0.605   1.847 -0.0483 -0.0802 -0.0504
 1201TIP3    H125238   0.288   0.555   1.766 -0.5751 -0.5638  0.2209
 1201TIP3    H225239   0.297   0.539   1.916  0.7951  0.3691  0.2592
 1202TIP3   OH225240   2.840   5.212   8.228 -0.0691  0.1824  0.3406
 1202TIP3    H125241   2.812   5.128   8.192  1.0842 -0.6683  1.3407
 1202TIP3    H225242   2.889   5.253   8.158  0.1712 -0.4081  0.1559
 1203TIP3   OH225243   4.741   4.865   0.039  0.2086  0.5909  0.0680
 1203TIP3    H125244   4.672   4.799   0.045 -0.3735  1.1898 -0.0280
 1203TIP3    H225245   4.803   4.841   0.108  1.3867 -1.6387 -1.5897
 1204TIP3   OH225246   4.468   6.691   7.934  0.0009  0.0955  0.1554
 1204TIP3    H125247   4.379   6.669   7.906 -0.0627  1.7028 -1.0550
 1204TIP3    H225248   4.467   6.681   8.029 -1.2187 -0.7414  0.0779
 1205TIP3   OH225249   1.649   2.098   2.029  0.0967 -0.2398  0.0476
 1205TIP3    H125250   1.738   2.062   2.022  0.6439  1.1961 -0.9209
 1205TIP3    H225251   1.592   2.022   2.028  1.2321 -1.1188 -1.4684
 1206TIP3   OH225252   3.982   0.691   1.307 -0.1597 -0.1977 -0.3824
 1206TIP3    H125253   4.004   0.778   1.275 -0.0009 -0.8630 -2.2743
 1206TIP3    H225254   4.056   0.636   1.280  0.6459 -0.6410  2.4208
 1207TIP3   OH225255   6.675   4.082   1.804 -0.1975  0.0633 -0.0457
 1207TIP3    H125256   6.732   4.158   1.798  0.8669 -0.8199 -3.4925
 1207TIP3    H225257   6.608   4.097   1.737 -0.5853 -1.5704 -0.0706
 1208TIP3   OH225258   1.945   3.260   1.280 -0.1432  0.0386 -0.2534
 1208TIP3    H125259   1.957   3.177   1.325  0.3746 -0.7380 -1.7409
 1208TIP3    H225260   1.852   3.281   1.293 -0.1712 -0.5179  0.5307
 1209TIP3   OH225261   1.635   2.436   1.737 -0.2055 -0.0038 -0.7555
 1209TIP3    H125262   1.625   2.528   1.762 -0.5013  0.0404 -1.0332
 1209TIP3    H225263   1.566   2.390   1.786 -0.0228 -0.0857 -0.5748
 1210TIP3   OH225264   0.309   1.173   7.677  0.2547 -0.0575 -0.4916
 1210TIP3    H125265   0.366   1.205   7.747 -1.2233  1.7575 -0.0457
 1210TIP3    H225266   0.368   1.157   7.604  1.4498  0.9622  0.2040
 1211TIP3   OH225267   0.903   2.267   1.004  0.3827 -0.8645 -0.3599
 1211TIP3    H125268   0.858   2.239   1.084 -1.4655  3.0686  0.2075
 1211TIP3    H225269   0.848   2.235   0.933 -2.0516  1.5464  0.2694
 1212TIP3   OH225270   4.424   3.776   7.278 -0.1107  0.3626 -0.0176
 1212TIP3    H125271   4.462   3.758   7.191 -0.7274  3.2619 -0.9918
 1212TIP3    H225272   4.343   3.823   7.259 -1.4193 -0.8552  2.1632
 1213TIP3   OH225273   5.780   0.514   0.526  0.1765 -0.4895  0.3252
 1213TIP3    H125274   5.714   0.497   0.459 -1.8308 -1.0339  2.3477
 1213TIP3    H225275   5.770   0.444   0.590  2.2951 -0.2176  1.0547
 1214TIP3   OH225276   4.992   2.245   1.870  0.2914  0.5473 -0.1043
 1214TIP3    H125277   4.903   2.228   1.898  0.2210  0.3143 -0.4613
 1214TIP3    H225278   5.047   2.189   1.925  0.1895  0.4472 -0.1046
 1215TIP3   OH225279   6.150   1.524   0.078  0.2665  0.5724 -0.1404
 1215TIP3    H125280   6.149   1.485   0.165  2.3125  0.3524 -0.1635
 1215TIP3    H225281   6.060   1.518   0.048 -0.6439  1.3681  2.2571
 1216TIP3   OH225282   5.012   4.812   1.588  0.2408  0.1751 -0.3294
 1216TIP3    H125283   4.932   4.856   1.616  0.8851 -0.3788  2.7908
 1216TIP3    H225284   5.072   4.882   1.565  0.3093  0.8552  1.7747
 1217TIP3   OH225285   1.569   4.716   8.264 -0.2175 -0.6470  0.4462
 1217TIP3    H125286   1.485   4.673   8.285 -0.3421 -0.3967  0.4633
 1217TIP3    H225287   1.562   4.737   8.171 -0.7555  0.6431  0.7558
 1218TIP3   OH225288   4.304   0.252   8.563  0.4286 -0.7466  0.1547
 1218TIP3    H125289   4.350   0.336   8.564  0.6245 -0.8211  1.9919
 1218TIP3    H225290   4.211   0.275   8.561  0.4033 -0.3502  2.5188
 1219TIP3   OH225291   0.601   5.869   1.168 -0.4114 -0.1121 -0.2459
 1219TIP3    H125292   0.554   5.892   1.248  0.0445  0.7231 -0.2034
 1219TIP3    H225293   0.672   5.812   1.198 -0.8953 -0.6907 -0.2005
 1220TIP3   OH225294   1.003   3.124   2.552 -0.2781  0.1700 -0.1840
 1220TIP3    H125295   0.986   3.181   2.478  0.4473  0.8199  0.1355
 1220TIP3    H225296   0.930   3.139   2.612 -0.5664  0.0648 -0.5025
 1221TIP3   OH225297   3.216   0.116   7.530 -0.4095  0.3428 -0.4164
 1221TIP3    H125298   3.208   0.063   7.609  2.1863 -1.0828 -1.0170
 1221TIP3    H225299   3.286   0.075   7.480  0.0290  2.9093 -2.1124
 1222TIP3   OH225300   5.357   3.864   7.425  0.2350  0.3636 -0.2191
 1222TIP3    H125301   5.409   3.916   7.486  0.1716  0.3089 -0.1201
 1222TIP3    H225302   5.307   3.804   7.480  0.0893  0.3955 -0.3158
 1223TIP3   OH225303   2.038   4.716   1.696 -0.4403  0.0415  0.1597
 1223TIP3    H125304   2.000   4.715   1.784 -0.3640  0.0630  0.1927
 1223TIP3    H225305   2.132   4.725   1.710 -0.1156 -2.6965  0.1632
 1224TIP3   OH225306   6.335   6.237   7.680  0.2504  0.0921  0.0709
 1224TIP3    H125307   6.254   6.266   7.638  0.3830 -0.4449 -0.5742
 1224TIP3    H225308   6.336   6.281   7.765 -0.9189 -0.2009  0.2498
 1225TIP3   OH225309   1.550   0.792   1.219  0.4661  0.3061 -0.6993
 1225TIP3    H125310   1.605   0.805   1.296  0.7081  1.2748 -1.0256
 1225TIP3    H225311   1.608   0.810   1.144 -0.4201  1.8715 -1.0300
 1226TIP3   OH225312   0.726   4.945   7.419  0.1017  0.2034  0.2752
 1226TIP3    H125313   0.718   4.934   7.324 -0.7657  2.1249  0.0737
 1226TIP3    H225314   0.788   4.877   7.446  0.3792 -0.3803 -1.6587
 1227TIP3   OH225315   5.254   3.428   7.350 -0.2908  0.1991  0.4457
 1227TIP3    H125316   5.167   3.461   7.326  0.3136  1.5089 -0.0495
 1227TIP3    H225317   5.238   3.342   7.388 -1.7322  0.0974 -0.3446
 1228TIP3   OH225318   3.771   4.955   0.334 -0.1435  0.2510  0.3599
 1228TIP3    H125319   3.781   4.866   0.368 -0.2432  1.0271  2.5810
 1228TIP3    H225320   3.860   4.984   0.315 -0.2218 -0.8561 -2.0057
 1229TIP3   OH225321   6.405   5.870   8.399 -0.3162  0.4082  0.2221
 1229TIP3    H125322   6.443   5.811   8.465 -1.2208 -1.1642 -0.6135
 1229TIP3    H225323   6.311   5.863   8.412 -0.4402  2.6081  0.8527
 1230TIP3   OH225324   2.802   4.398   2.419 -0.3140 -0.6725 -0.1568
 1230TIP3    H125325   2.711   4.427   2.415  0.4921  1.9973 -1.7421
 1230TIP3    H225326   2.799   4.306   2.396 -2.6389 -0.7948  0.3797
 1231TIP3   OH225327   3.673   5.891   6.390 -0.1314 -0.4833  0.2866
 1231TIP3    H125328   3.707   5.836   6.319  1.4998  1.3082 -0.3924
 1231TIP3    H225329   3.711   5.853   6.469 -0.3707 -1.3219  0.0095
 1232TIP3   OH225330   1.473   3.532   0.214 -0.0779 -0.3833  0.6615
 1232TIP3    H125331   1.397   3.502   0.164 -0.8455  0.5903  1.2094
 1232TIP3    H225332   1.442   3.536   0.304  1.2867 -2.1129  1.2487
 1233TIP3   OH225333   0.141   3.093   2.430 -1.0301  0.3630 -0.5024
 1233TIP3    H125334   0.200   3.018   2.422 -1.5246 -0.4600  2.3672
 1233TIP3    H225335   0.132   3.126   2.341 -0.1239 -2.4634 -1.7622
 1234TIP3   OH225336   0.310   5.334   6.873 -0.4483  0.1766 -0.0245
 1234TIP3    H125337   0.241   5.400   6.874 -1.0602 -0.4537 -0.0909
 1234TIP3    H225338   0.355   5.347   6.789  1.5723  2.6487  1.3123
 1235TIP3   OH225339   0.126   1.464   0.039  0.3183 -0.4708  0.4955
 1235TIP3    H125340   0.126   1.398  -0.030 -0.3601  0.7568 -0.7178
 1235TIP3    H225341   0.213   1.504   0.035  0.6007 -1.0292  0.9830
 1236TIP3   OH225342   6.369   0.626   8.062 -0.1058  0.1906  0.0931
 1236TIP3    H125343   6.395   0.607   8.152 -2.3368 -1.9756  0.3841
 1236TIP3    H225344   6.343   0.718   8.064  1.8380  0.7818  1.1026
 1237TIP3   OH225345   0.878   4.704   7.472 -0.5800  0.2800  0.2349
 1237TIP3    H125346   0.923   4.631   7.516 -1.0646 -0.4423 -0.4485
 1237TIP3    H225347   0.934   4.726   7.398  0.2093  1.4652  1.1276
 1238TIP3   OH225348   4.144   0.828   1.034  0.3950 -0.0812 -0.0657
 1238TIP3    H125349   4.104   0.887   1.098  1.5862  1.1024 -0.3702
 1238TIP3    H225350   4.237   0.826   1.058  0.5466 -1.0773 -0.6612
 1239TIP3   OH225351   0.565   5.226   7.553 -0.6296 -0.9018 -0.0469
 1239TIP3    H125352   0.614   5.281   7.492 -1.0749 -0.5951 -0.1309
 1239TIP3    H225353   0.558   5.279   7.632  0.6537 -1.6079  0.5783
 1240TIP3   OH225354   2.226   1.552   2.069 -0.2675 -0.5221  0.0775
 1240TIP3    H125355   2.162   1.564   2.139 -0.3434 -1.8519  0.2779
 1240TIP3    H225356   2.289   1.489   2.105  1.1220  0.6881 -0.1455
 1241TIP3   OH225357   2.319   6.443   8.505 -0.2687  0.6534 -0.4573
 1241TIP3    H125358   2.369   6.371   8.542 -0.7245  1.5591  2.1108
 1241TIP3    H225359   2.384   6.506   8.476  0.0916  0.0249 -1.0543
 1242TIP3   OH225360   5.199   0.512   2.396  0.2094  0.1069  0.2480
 1242TIP3    H125361   5.257   0.588   2.395  0.1038  0.1889  0.3398
 1242TIP3    H225362   5.142   0.526   2.472  0.5131 -0.3030  0.5605
 1243TIP3   OH225363   4.120   0.113   1.493  0.4856  0.0732 -0.4051
 1243TIP3    H125364   4.075   0.190   1.460 -0.5589 -0.1700  0.3969
 1243TIP3    H225365   4.211   0.125   1.467  0.6528  2.3230  0.9910
 1244TIP3   OH225366   0.119   1.864   8.342 -0.1046  0.4585  0.3338
 1244TIP3    H125367   0.190   1.810   8.306 -1.1082  0.2447 -1.4492
 1244TIP3    H225368   0.143   1.954   8.319 -0.7379  0.3230 -0.9262
 1245TIP3   OH225369   1.938   3.294   8.113  0.2910  0.1329  0.0181
 1245TIP3    H125370   1.927   3.300   8.018  1.2682  0.1710 -0.1039
 1245TIP3    H225371   1.929   3.201   8.133 -0.4455  0.1877 -0.0342
 1246TIP3   OH225372   5.228   5.119   7.494 -0.6536  0.3489  0.0926
 1246TIP3    H125373   5.224   5.030   7.530  0.3196  0.5878  0.8161
 1246TIP3    H225374   5.136   5.148   7.491 -0.8577 -0.1279  1.2399
 1247TIP3   OH225375   0.350   6.818   1.503 -0.5543 -0.2228  0.0324
 1247TIP3    H125376   0.276   6.832   1.444  0.2843 -1.7608 -1.4802
 1247TIP3    H225377   0.419   6.783   1.447  1.1651  0.6522  1.4945
 1248TIP3   OH225378   1.172   5.672   0.890  0.4810  0.2526  0.2941
 1248TIP3    H125379   1.234   5.600   0.903  0.5657  0.5926  2.0396
 1248TIP3    H225380   1.219   5.749   0.921 -0.4494  0.6782  0.6765
 1249TIP3   OH225381   1.141   4.852   0.538 -0.5420 -0.3635 -0.3318
 1249TIP3    H125382   1.158   4.762   0.566 -1.4320 -0.1875  0.8525
 1249TIP3    H225383   1.210   4.904   0.580  0.6206 -0.5984 -1.8826
 1250TIP3   OH225384   0.120   4.020   1.351 -0.2206  0.0163  0.1810
 1250TIP3    H125385   0.199   3.989   1.396  0.2600 -1.1192 -1.3471
 1250TIP3    H225386   0.049   3.968   1.389 -0.1068  0.3590  0.8847
 1251TIP3   OH225387   0.096   5.808   0.621  0.1246 -0.5919 -0.0526
 1251TIP3    H125388   0.169   5.861   0.590  0.5735 -0.9439  0.3926
 1251TIP3    H225389   0.074   5.844   0.707  0.4618 -1.1549  0.2713
 1252TIP3   OH225390   4.181   5.494   1.583 -0.3750  0.3792  0.1054
 1252TIP3    H125391   4.261   5.471   1.537 -0.2534  1.5620 -0.3147
 1252TIP3    H225392   4.120   5.422   1.566 -0.5443  1.0519 -2.4369
 1253TIP3   OH225393   1.143   2.107   8.293  0.3072  0.1876  0.5384
 1253TIP3    H125394   1.130   2.079   8.384 -0.2382 -1.6713 -0.0811
 1253TIP3    H225395   1.060   2.088   8.250  0.9675 -0.0998 -0.6349
 1254TIP3   OH225396   4.416   1.158   0.839 -0.0623 -0.5492  0.0384
 1254TIP3    H125397   4.380   1.114   0.762  0.8605 -1.1292 -0.0724
 1254TIP3    H225398   4.510   1.165   0.822  0.2393 -1.1456  1.3144
 1255TIP3   OH225399   3.535   1.300   1.540  0.2463  0.0277  0.7268
 1255TIP3    H125400   3.460   1.309   1.481  1.4857  2.5729 -0.6501
 1255TIP3    H225401   3.528   1.212   1.576 -2.2599 -0.5255 -0.9098
 1256TIP3   OH225402   4.687   1.212   1.397 -0.1091  0.4910  0.1613
 1256TIP3    H125403   4.723   1.124   1.411 -1.5875 -0.1132  0.3684
 1256TIP3    H225404   4.678   1.219   1.302  0.8951  0.8018  0.0813
 1257TIP3   OH225405   0.940   4.985   8.341  0.2050  0.1971  0.3458
 1257TIP3    H125406   0.927   4.898   8.378 -0.7233  0.6522  1.1310
 1257TIP3    H225407   0.885   5.042   8.394 -1.0118  0.9202 -1.5881
 1258TIP3   OH225408   0.864   6.215   0.354  0.4346  0.7790 -0.3908
 1258TIP3    H125409   0.932   6.155   0.324 -0.4317  0.6190 -2.1472
 1258TIP3    H225410   0.786   6.189   0.306 -0.6484  1.5722  0.8785
 1259TIP3   OH225411   0.489   6.512   8.346 -0.0331  0.3934 -0.0605
 1259TIP3    H125412   0.557   6.515   8.278 -0.2588 -0.2276 -0.3244
 1259TIP3    H225413   0.411   6.547   8.303 -0.6517 -1.6196 -0.7228
 1260TIP3   OH225414   5.993   0.565   0.384  0.2900 -0.0274 -0.1687
 1260TIP3    H125415   5.981   0.483   0.336  0.8119 -1.6072  2.1898
 1260TIP3    H225416   5.924   0.565   0.450  0.0213  1.6871 -0.4084
 1261TIP3   OH225417   3.572   4.262   8.566 -0.1147  0.3200 -0.5259
 1261TIP3    H125418   3.549   4.192   8.504 -0.9325  0.1272 -0.0272
 1261TIP3    H225419   3.666   4.275   8.554 -0.3016  0.4388 -1.9481
 1262TIP3   OH225420   1.082   6.066   0.263  0.3098  0.3718  0.0564
 1262TIP3    H125421   1.110   6.156   0.243  1.7500 -0.2722 -0.9882
 1262TIP3    H225422   1.160   6.013   0.248 -0.9712 -1.2812 -1.0749
 1263TIP3   OH225423   1.827   1.376   1.635  0.3674 -0.2229 -0.2030
 1263TIP3    H125424   1.745   1.418   1.661  1.1861 -0.0179  2.3456
 1263TIP3    H225425   1.808   1.282   1.641  0.0155 -0.1827 -0.6828
 1264TIP3   OH225426   5.749   3.348   7.251  0.4101  0.2729 -0.2316
 1264TIP3    H125427   5.819   3.301   7.204  0.2264  1.0429 -1.3274
 1264TIP3    H225428   5.702   3.280   7.299  0.5450 -0.5866 -1.2752
 1265TIP3   OH225429   1.536   2.952   2.227  0.3772  0.6745 -0.4357
 1265TIP3    H125430   1.549   2.954   2.133  0.2673 -1.8508 -0.5961
 1265TIP3    H225431   1.602   2.890   2.259 -0.1645  0.8010  1.0156
 1266TIP3   OH225432   2.602   3.749   7.713 -0.2415  0.4540  0.4223
 1266TIP3    H125433   2.671   3.802   7.673 -1.2487  0.7508 -1.0003
 1266TIP3    H225434   2.629   3.658   7.697 -0.6143  0.5681 -0.9589
 1267TIP3   OH225435   6.641   1.517   7.984 -0.5276 -0.2157  0.2041
 1267TIP3    H125436   6.572   1.572   7.949 -0.4513 -0.7402 -0.8164
 1267TIP3    H225437   6.711   1.578   8.008 -0.0599  0.1026 -1.7859
 1268TIP3   OH225438   2.675   1.964   0.196  0.0510  0.2429  0.6166
 1268TIP3    H125439   2.679   2.034   0.130  0.7963 -1.1846 -0.9284
 1268TIP3    H225440   2.764   1.930   0.201 -0.7157 -2.1464 -0.4613
 1269TIP3   OH225441   6.772   3.345   0.685  0.6693  0.1680  0.0659
 1269TIP3    H125442   6.730   3.266   0.719  0.7922  0.2972  0.5214
 1269TIP3    H225443   6.705   3.413   0.691  0.2138 -0.1194 -1.3009
 1270TIP3   OH225444   6.421   0.372   0.008 -0.1184 -0.1517  1.0764
 1270TIP3    H125445   6.494   0.348  -0.047 -1.4062  0.2385 -0.9004
 1270TIP3    H225446   6.378   0.289   0.030 -0.3245 -0.2290  0.4066
 1271TIP3   OH225447   3.042   0.433   6.960 -0.1463  0.1316 -0.5573
 1271TIP3    H125448   2.999   0.466   6.882 -0.3063 -2.6694 -1.7655
 1271TIP3    H225449   3.113   0.379   6.927  1.2836  0.7514  1.3288
 1272TIP3   OH225450   1.422   2.195   6.901 -0.1629  0.0811 -0.2200
 1272TIP3    H125451   1.478   2.184   6.824  1.9698 -2.3629  1.5079
 1272TIP3    H225452   1.466   2.262   6.953 -0.5785  0.3823 -0.2504
 1273TIP3   OH225453   1.396   4.094   0.621  0.5787 -0.1334  0.0518
 1273TIP3    H125454   1.417   4.066   0.532 -1.9322  0.4469 -0.8132
 1273TIP3    H225455   1.351   4.020   0.660 -1.8623  0.8830 -0.6184
 1274TIP3   OH225456   3.312   1.394   0.159  0.0322 -0.4516 -0.2903
 1274TIP3    H125457   3.325   1.429   0.071 -0.8556  0.6160 -0.0176
 1274TIP3    H225458   3.247   1.325   0.148 -0.9027  0.4117 -0.3404
 1275TIP3   OH225459   3.605   2.650   1.206 -0.2130 -0.4826 -0.4125
 1275TIP3    H125460   3.597   2.662   1.301  0.9410 -0.6764 -0.2720
 1275TIP3    H225461   3.517   2.627   1.177 -1.3308  2.6876  0.1165
 1276TIP3   OH225462   2.959   1.708   2.531 -0.6566 -0.2486 -0.0586
 1276TIP3    H125463   3.054   1.699   2.537 -0.7919 -1.1554  1.0144
 1276TIP3    H225464   2.946   1.793   2.488  0.6330  0.5184  0.9934
 1277TIP3   OH225465   5.255   3.761   7.649 -0.2062  0.1566  0.0408
 1277TIP3    H125466   5.256   3.776   7.743 -3.4354 -0.6114  0.3182
 1277TIP3    H225467   5.237   3.667   7.640  3.6760 -0.6331 -1.4889
 1278TIP3   OH225468   4.540   4.383   0.467 -0.1448  0.1417 -0.1005
 1278TIP3    H125469   4.536   4.293   0.434  0.4446  0.2437 -0.4793
 1278TIP3    H225470   4.625   4.415   0.436  1.2895 -0.3163  2.9572
 1279TIP3   OH225471   4.582   5.295   7.113  0.3084 -0.4161  0.2281
 1279TIP3    H125472   4.650   5.272   7.049 -0.3675  0.3038 -0.7718
 1279TIP3    H225473   4.631   5.316   7.193  1.1732 -1.2433 -0.0599
 1280TIP3   OH225474   0.446   3.017   1.717 -0.0404  0.4017  0.0677
 1280TIP3    H125475   0.535   2.998   1.745 -0.3228 -2.7381 -0.8415
 1280TIP3    H225476   0.403   3.050   1.796  1.5768  0.8117  0.8158
 1281TIP3   OH225477   2.110   0.937   7.219 -0.3489 -0.5811  0.0724
 1281TIP3    H125478   2.084   1.019   7.176 -1.1433  0.2678  2.0278
 1281TIP3    H225479   2.054   0.933   7.298 -0.1929 -2.9139  0.1350
 1282TIP3   OH225480   6.536   3.469   0.738 -0.0711  0.5525 -0.0907
 1282TIP3    H125481   6.527   3.537   0.804 -0.7934 -0.6911  1.1353
 1282TIP3    H225482   6.520   3.514   0.655 -3.3274  1.4119  0.8521
 1283TIP3   OH225483   1.201   3.167   0.022  0.5209 -0.3775 -0.1570
 1283TIP3    H125484   1.188   3.185  -0.071  1.8889 -0.6491 -0.4214
 1283TIP3    H225485   1.169   3.077   0.034 -0.2191 -0.1277 -0.2271
 1284TIP3   OH225486   1.729   6.843   8.581 -0.3699 -0.1468  0.2793
 1284TIP3    H125487   1.674   6.896   8.638 -0.4412  0.0287  0.0501
 1284TIP3    H225488   1.802   6.900   8.557 -1.1895  0.3632 -1.1297
 1285TIP3   OH225489   1.541   1.954   0.963  0.1317  0.3346  0.0486
 1285TIP3    H125490   1.634   1.943   0.985  0.4775  1.3657 -0.8505
 1285TIP3    H225491   1.509   2.017   1.027 -0.3847 -1.2241  1.4008
 1286TIP3   OH225492   5.165   3.744   6.438  0.2696 -0.2166 -0.1232
 1286TIP3    H125493   5.146   3.678   6.504  1.5644 -0.8531 -0.3482
 1286TIP3    H225494   5.143   3.702   6.354 -0.4056  0.2223 -0.1756
 1287TIP3   OH225495   1.129   1.666   0.094  0.4748  0.6061  0.4652
 1287TIP3    H125496   1.060   1.659   0.028  0.9737  2.0032 -0.2279
 1287TIP3    H225497   1.096   1.615   0.168 -1.5225  1.5958  0.3222
 1288TIP3   OH225498   2.176   0.061   0.538 -0.1349 -0.0305 -0.5279
 1288TIP3    H125499   2.117   0.056   0.463 -0.8088 -2.6820  0.0689
 1288TIP3    H225500   2.248   0.003   0.516 -1.9731 -3.7166  2.0318
 1289TIP3   OH225501   1.429   4.912   7.009  0.1398 -0.9473 -0.0050
 1289TIP3    H125502   1.334   4.921   7.000  0.2623 -0.5994 -1.1610
 1289TIP3    H225503   1.463   4.996   6.978  0.8444 -1.1742  0.1493
 1290TIP3   OH225504   6.450   0.096   7.470 -0.0085  0.0164  0.0247
 1290TIP3    H125505   6.436   0.010   7.510  0.5530 -0.1910 -0.2094
 1290TIP3    H225506   6.520   0.082   7.407 -0.4103  0.4959 -0.5342
 1291TIP3   OH225507   0.032   2.331   8.784  0.0540  0.2566  0.3608
 1291TIP3    H125508   0.017   2.402   8.722 -0.2792 -0.4389 -0.3841
 1291TIP3    H225509  -0.017   2.355   8.862  1.2363  1.6063  0.7236
 1292TIP3   OH225510   1.521   5.161   6.860 -0.3169  0.4458  0.2250
 1292TIP3    H125511   1.605   5.120   6.840 -0.3098  0.6954 -0.2664
 1292TIP3    H225512   1.486   5.187   6.775 -0.5720  0.9673  0.4863
 1293TIP3   OH225513   5.762   5.726   2.095 -0.4856  0.3395 -0.8095
 1293TIP3    H125514   5.812   5.734   2.176 -0.0443  1.3217 -1.1649
 1293TIP3    H225515   5.727   5.814   2.079  0.5195  0.5017 -2.3516
 1294TIP3   OH225516   2.724   4.315   7.099  0.4281 -0.1597  0.0695
 1294TIP3    H125517   2.769   4.266   7.168 -1.0229 -1.5629  0.0705
 1294TIP3    H225518   2.632   4.291   7.108 -0.2737  2.1375 -0.3395
 1295TIP3   OH225519   0.745   2.751   0.675  0.0242 -0.2259 -0.3353
 1295TIP3    H125520   0.720   2.672   0.721 -0.0346 -0.3325 -0.5469
 1295TIP3    H225521   0.840   2.744   0.665  0.1612  0.2528  0.6024
 1296TIP3   OH225522   1.277   1.951   0.838  0.4815 -0.2345  0.6440
 1296TIP3    H125523   1.370   1.963   0.858  0.7866 -1.0772 -0.1565
 1296TIP3    H225524   1.234   1.952   0.923  0.9534  2.1118  0.9275
 1297TIP3   OH225525   0.243   2.193   0.127 -0.1610 -0.2255  0.1451
 1297TIP3    H125526   0.187   2.268   0.145 -0.0528 -0.4203  1.4224
 1297TIP3    H225527   0.213   2.160   0.043 -1.3224  0.2538  0.3505
 1298TIP3   OH225528   1.785   3.939   2.187  0.0856 -0.5146  0.2910
 1298TIP3    H125529   1.789   4.034   2.182  0.5268 -0.4650  1.2858
 1298TIP3    H225530   1.768   3.921   2.279 -1.3300 -1.3760 -0.1052
 1299TIP3   OH225531   4.147   2.906   6.793 -0.2487  0.4305  0.3140
 1299TIP3    H125532   4.079   2.869   6.737 -0.2969  0.4407  0.3647
 1299TIP3    H225533   4.104   2.980   6.837  0.4481  1.9622 -1.4461
 1300TIP3   OH225534   0.157   6.432   7.459  0.1271 -0.5442  0.2321
 1300TIP3    H125535   0.200   6.436   7.545  0.6829 -0.4619 -0.0400
 1300TIP3    H225536   0.081   6.489   7.467  0.0770 -0.6698  0.7197
 1301TIP3   OH225537   4.767   1.233   7.635 -0.7243  0.1552 -0.2432
 1301TIP3    H125538   4.698   1.269   7.579 -0.0170  1.1306 -0.5023
 1301TIP3    H225539   4.840   1.294   7.626 -0.0990 -0.4388  0.6468
 1302TIP3   OH225540   3.767   1.592   7.379 -0.6191  0.5884 -0.3828
 1302TIP3    H125541   3.706   1.519   7.393 -1.5159  1.3143 -0.4438
 1302TIP3    H225542   3.798   1.581   7.289 -1.5825  0.8821 -0.7615
 1303TIP3   OH225543   4.629   3.521   8.217 -0.1179 -0.1801 -0.0340
 1303TIP3    H125544   4.715   3.486   8.240 -0.3405 -0.5953  0.1822
 1303TIP3    H225545   4.586   3.450   8.169  0.1977  0.5429 -1.4120
 1304TIP3   OH225546   0.944   5.844   1.846  0.8029  0.0839 -0.8920
 1304TIP3    H125547   0.965   5.777   1.782  0.5994 -0.8552 -0.0145
 1304TIP3    H225548   0.950   5.799   1.931 -0.1551  0.9575 -0.3313
 1305TIP3   OH225549   3.821   1.298   2.519 -0.2849  0.0743 -0.1137
 1305TIP3    H125550   3.796   1.311   2.428  0.8791 -1.3761 -0.6845
 1305TIP3    H225551   3.847   1.206   2.524  0.0553  0.2223  1.5961
 1306TIP3   OH225552   5.384   6.240   1.671  0.1296  0.2817  0.0458
 1306TIP3    H125553   5.356   6.305   1.736  1.0060  1.6273 -0.8812
 1306TIP3    H225554   5.441   6.181   1.721 -0.6039  0.2546  0.8836
 1307TIP3   OH225555   5.619   2.054   0.082 -0.7223  0.0136  0.0245
 1307TIP3    H125556   5.639   2.083   0.171 -2.2424 -2.0034  1.1047
 1307TIP3    H225557   5.531   2.017   0.088 -0.4450 -1.1299 -2.1020
 1308TIP3   OH225558   2.411   3.540   7.698 -0.0865  0.2871  0.5615
 1308TIP3    H125559   2.483   3.491   7.659 -1.6810 -1.9274  0.2109
 1308TIP3    H225560   2.429   3.632   7.676  0.8478 -0.5195 -2.5224
 1309TIP3   OH225561   0.571   6.553   8.605  0.0990  0.3179 -0.3042
 1309TIP3    H125562   0.547   6.645   8.619 -0.6392  0.1229 -0.2015
 1309TIP3    H225563   0.502   6.519   8.548 -1.2114 -0.8595  1.8431
 1310TIP3   OH225564   6.791   0.396   0.456  0.0484 -0.0662  0.3394
 1310TIP3    H125565   6.883   0.373   0.468 -0.1334 -0.5877  0.7196
 1310TIP3    H225566   6.786   0.424   0.365  1.0232  2.0206  0.8479
 1311TIP3   OH225567   5.695   0.061   1.213  0.1935  0.1634 -0.0820
 1311TIP3    H125568   5.686  -0.024   1.257  1.4989  0.2632  0.4144
 1311TIP3    H225569   5.695   0.125   1.284  1.7358  0.3681 -0.2197
 1312TIP3   OH225570   2.433   5.388   0.087  0.0664 -0.1690 -0.2461
 1312TIP3    H125571   2.429   5.484   0.082  1.7608 -0.0043  0.7857
 1312TIP3    H225572   2.462   5.370   0.177 -0.3587 -1.6661 -0.3848
 1313TIP3   OH225573   4.924   1.394   0.318  0.5889  0.2622 -0.1970
 1313TIP3    H125574   4.901   1.337   0.392  1.5858 -0.2497 -0.2610
 1313TIP3    H225575   4.932   1.334   0.244  0.8953  0.5864 -0.4281
 1314TIP3   OH225576   4.108   5.665   7.457 -0.3307 -0.2006 -0.2194
 1314TIP3    H125577   4.117   5.627   7.544  0.3982 -2.1641 -1.0969
 1314TIP3    H225578   4.071   5.595   7.404 -0.8861  0.9997 -1.4717
 1315TIP3   OH225579   2.089   1.361   7.512  0.3278 -0.3460  0.0307
 1315TIP3    H125580   2.114   1.283   7.561  0.7376 -0.8548 -0.9477
 1315TIP3    H225581   2.111   1.435   7.569  2.4439 -0.8362 -0.0630
 1316TIP3   OH225582   3.620   3.358   1.310  0.0191 -0.0820 -0.1677
 1316TIP3    H125583   3.629   3.354   1.405  2.1406 -0.5531 -0.3377
 1316TIP3    H225584   3.530   3.330   1.293 -0.0540 -1.0940  1.6249
 1317TIP3   OH225585   6.617   0.731   0.150 -0.0697  0.2655 -0.5324
 1317TIP3    H125586   6.536   0.720   0.201 -0.2614 -3.8251 -1.3823
 1317TIP3    H225587   6.687   0.730   0.216 -0.5212 -0.5548 -0.0488
 1318TIP3   OH225588   5.044   6.638   7.985 -0.0574  0.1463 -0.3155
 1318TIP3    H125589   5.008   6.551   8.001 -0.2972  0.4276  0.7536
 1318TIP3    H225590   5.122   6.622   7.932  0.0060 -0.7372  0.0288
 1319TIP3   OH225591   1.262   5.239   0.764 -0.2637 -0.2109  0.5723
 1319TIP3    H125592   1.275   5.333   0.778  1.6968 -0.5795  1.6064
 1319TIP3    H225593   1.324   5.197   0.823  0.8755 -2.1238 -1.8197
 1320TIP3   OH225594   6.524   6.675   7.151  0.6463  0.0611 -0.3315
 1320TIP3    H125595   6.592   6.644   7.091 -0.2721  0.6462 -1.7420
 1320TIP3    H225596   6.499   6.761   7.117  0.3466  0.5702  1.1308
 1321TIP3   OH225597   3.635   6.244   6.443  0.4804 -0.4293  0.5495
 1321TIP3    H125598   3.710   6.258   6.386 -0.6100  0.7786 -0.6382
 1321TIP3    H225599   3.585   6.325   6.439 -1.4226 -1.5448  0.5043
 1322TIP3   OH225600   3.406   4.425   0.056 -0.0046 -0.4241  0.3469
 1322TIP3    H125601   3.484   4.407   0.108  0.0328 -1.0785  0.0741
 1322TIP3    H225602   3.440   4.454  -0.029 -0.0426 -1.1788  0.0626
 1323TIP3   OH225603   4.894   0.997   7.737 -0.1068 -0.0985  0.3035
 1323TIP3    H125604   4.922   1.015   7.827  1.0445  0.9484 -0.2381
 1323TIP3    H225605   4.836   1.070   7.715 -1.0214 -0.7684  0.4483
 1324TIP3   OH225606   6.528   3.725   0.915  0.2282  0.3929  0.2995
 1324TIP3    H125607   6.466   3.744   0.986  2.1039  1.8659  1.6477
 1324TIP3    H225608   6.490   3.767   0.838 -1.6363 -0.8551  0.4769
 1325TIP3   OH225609   4.590   4.932   1.447  0.2443 -0.7031 -0.9611
 1325TIP3    H125610   4.651   4.879   1.396  0.1177 -1.6719 -0.1540
 1325TIP3    H225611   4.632   4.940   1.533 -0.5066 -0.9305 -0.5600
 1326TIP3   OH225612   2.275   6.111   6.750 -0.4713  0.1184  0.4453
 1326TIP3    H125613   2.233   6.196   6.759 -1.4393 -0.2740 -0.1504
 1326TIP3    H225614   2.252   6.064   6.830  0.0758  0.4189  0.7806
 1327TIP3   OH225615   6.570   1.465   0.978  0.0110 -0.1870  0.3795
 1327TIP3    H125616   6.613   1.381   0.992  1.6937  0.9379  2.5315
 1327TIP3    H225617   6.640   1.524   0.953 -0.9978  0.7916 -0.2128
 1328TIP3   OH225618   6.343   5.512   7.625  0.2229  1.1412  0.0879
 1328TIP3    H125619   6.254   5.541   7.607 -0.9226 -0.0693  3.0088
 1328TIP3    H225620   6.360   5.543   7.714  1.6907 -0.8131  0.5586
 1329TIP3   OH225621   3.394   2.093   1.970  0.3384  0.5179  0.2137
 1329TIP3    H125622   3.314   2.145   1.961  0.3419  0.2239 -2.2353
 1329TIP3    H225623   3.465   2.157   1.968  0.2263  0.7511  2.0634
 1330TIP3   OH225624   2.829   0.192   6.071 -0.0323  0.3159  0.5847
 1330TIP3    H125625   2.856   0.166   5.983  0.0461  0.8872  0.4381
 1330TIP3    H225626   2.733   0.194   6.067 -0.0370  0.1062  0.5820
 1331TIP3   OH225627   4.464   3.000   0.412 -0.1802 -0.0951 -0.1188
 1331TIP3    H125628   4.495   2.925   0.461 -0.6315 -0.5788 -0.5550
 1331TIP3    H225629   4.370   2.984   0.400 -0.1423  0.1598 -0.8602
 1332TIP3   OH225630   0.510   2.306   6.942  0.5137 -0.5522 -0.2414
 1332TIP3    H125631   0.515   2.399   6.965  0.2313 -0.6335  0.1701
 1332TIP3    H225632   0.560   2.299   6.861 -1.1056  0.3282 -1.3708
 1333TIP3   OH225633   3.611   0.483   6.987 -0.3113  0.1091  0.0255
 1333TIP3    H125634   3.667   0.447   6.919 -0.9980  0.1319 -0.5628
 1333TIP3    H225635   3.567   0.406   7.024  1.4175 -0.1309  1.7288
 1334TIP3   OH225636   0.401   2.074   6.766  0.4314 -0.6171 -0.2110
 1334TIP3    H125637   0.477   2.082   6.823  0.4603 -2.4350  0.0674
 1334TIP3    H225638   0.331   2.043   6.824  0.3715 -2.1679 -1.0418
 1335TIP3   OH225639   2.332   5.422   7.259 -0.1163 -0.4109 -0.2447
 1335TIP3    H125640   2.318   5.395   7.350 -0.2385  0.2063 -0.0719
 1335TIP3    H225641   2.246   5.413   7.217 -0.0137 -0.8902 -0.3521
 1336TIP3   OH225642   5.693   5.910   0.878  0.1077 -0.1691 -0.0627
 1336TIP3    H125643   5.686   5.845   0.808  3.4194  1.0201 -1.6891
 1336TIP3    H225644   5.747   5.868   0.945  0.6771  0.2188 -0.2700
 1337TIP3   OH225645   6.249   0.997   6.965 -0.0348 -0.3598 -0.2393
 1337TIP3    H125646   6.301   1.073   6.940  0.2424  0.3184  2.1438
 1337TIP3    H225647   6.201   0.973   6.886  2.6500 -0.0179 -2.1164
 1338TIP3   OH225648   0.743   0.554   1.606 -0.3754  0.3385 -0.1204
 1338TIP3    H125649   0.747   0.648   1.623 -1.9052  0.3388  0.3873
 1338TIP3    H225650   0.738   0.548   1.510  0.7478  0.6988 -0.2201
 1339TIP3   OH225651   4.423   6.609   7.562  0.1940  0.2740 -0.2375
 1339TIP3    H125652   4.376   6.679   7.517 -0.9481 -0.1841  0.2049
 1339TIP3    H225653   4.436   6.542   7.494  1.6447  1.0509 -0.7647
 1340TIP3   OH225654   2.332   5.965   1.764 -0.3939  0.2958  0.1797
 1340TIP3    H125655   2.324   6.061   1.762  0.3296  0.3529 -0.3255
 1340TIP3    H225656   2.422   5.948   1.735 -0.7456 -0.5697 -0.4368
 1341TIP3   OH225657   5.272   5.200   1.066  0.8024  0.4225  0.2423
 1341TIP3    H125658   5.258   5.106   1.060 -1.5697  0.6816  0.8298
 1341TIP3    H225659   5.187   5.236   1.091  2.1110  2.5353  2.0262
 1342TIP3   OH225660   6.604   1.012   0.351 -0.4002 -0.8494  0.1367
 1342TIP3    H125661   6.642   0.926   0.371 -1.0275 -0.6597  2.4603
 1342TIP3    H225662   6.660   1.048   0.282  1.9791 -1.7096  1.5202
 1343TIP3   OH225663   4.919   3.485   0.027  0.1585 -0.4356  0.1485
 1343TIP3    H125664   4.899   3.421  -0.042 -0.4332  0.8336 -0.9155
 1343TIP3    H225665   4.852   3.471   0.093 -0.4498 -0.4178 -0.4488
 1344TIP3   OH225666   0.708   3.724   0.504  0.0211 -0.3614 -0.5152
 1344TIP3    H125667   0.703   3.634   0.537  0.5181 -0.0542  0.4180
 1344TIP3    H225668   0.619   3.742   0.473 -0.8435 -0.2344  1.8366
 1345TIP3   OH225669   0.459   1.327   7.846  0.5671  0.6931 -0.2778
 1345TIP3    H125670   0.519   1.320   7.771  1.7400 -0.2293  0.7129
 1345TIP3    H225671   0.515   1.314   7.923 -1.0522 -1.3898  0.6413
 1346TIP3   OH225672   4.145   4.635   1.879  0.3155  0.3003 -0.4210
 1346TIP3    H125673   4.166   4.582   1.956  1.7019  0.7243 -0.4744
 1346TIP3    H225674   4.071   4.688   1.906  2.0582  1.9824  1.4196
 1347TIP3   OH225675   3.325   0.027   8.241  0.2214 -0.4885 -0.7189
 1347TIP3    H125676   3.374  -0.050   8.268 -0.2487 -0.0101  1.7789
 1347TIP3    H225677   3.371   0.060   8.164  0.1921 -3.4375 -2.0999
 1348TIP3   OH225678   2.879   0.514   0.125  0.0593  0.5230 -0.1987
 1348TIP3    H125679   2.912   0.504   0.035  1.1565 -1.0800  0.3284
 1348TIP3    H225680   2.835   0.598   0.125 -0.0930  0.5030 -2.2893
 1349TIP3   OH225681   5.245   4.554   1.593  0.0617  0.4129  0.6854
 1349TIP3    H125682   5.159   4.535   1.631 -1.1512  2.4438 -0.8614
 1349TIP3    H225683   5.304   4.492   1.636 -2.1215 -0.9478  1.9139
 1350TIP3   OH225684   2.421   5.463   0.395 -0.0480  0.1490 -0.1172
 1350TIP3    H125685   2.465   5.382   0.421 -0.5648 -0.0565  0.1391
 1350TIP3    H225686   2.329   5.438   0.385 -0.3314  0.8496  0.6304
 1351TIP3   OH225687   5.570   5.779   1.542  0.3660 -0.1086 -0.7231
 1351TIP3    H125688   5.520   5.850   1.582  0.5323  0.0491 -0.7904
 1351TIP3    H225689   5.662   5.804   1.555  0.4210  0.1840 -1.6125
 1352TIP3   OH225690   3.213   5.368   6.933  0.5204 -0.1903  0.0206
 1352TIP3    H125691   3.171   5.359   7.018  0.8159  2.1917  0.4761
 1352TIP3    H225692   3.184   5.291   6.884 -1.5795 -0.4001  1.4604
 1353TIP3   OH225693   1.729   6.442   8.318 -0.1313  0.1707 -0.1744
 1353TIP3    H125694   1.797   6.469   8.256  0.8797 -2.2291 -0.1989
 1353TIP3    H225695   1.661   6.404   8.263  0.3946 -1.2032  0.0966
 1354TIP3   OH225696   0.219   5.518   2.580  0.3597 -0.3547 -0.0802
 1354TIP3    H125697   0.255   5.533   2.667  0.2637 -0.2565 -0.0566
 1354TIP3    H225698   0.205   5.606   2.544  0.6632 -0.3991 -0.3038
 1355TIP3   OH225699   5.530   5.059   7.709 -0.0758 -0.4468 -0.3072
 1355TIP3    H125700   5.454   5.013   7.675 -0.4937  0.1211 -0.1630
 1355TIP3    H225701   5.495   5.116   7.778  0.5899 -0.7328  0.2797
 1356TIP3   OH225702   0.425   2.338   7.478  0.4167  0.1866  0.0605
 1356TIP3    H125703   0.333   2.339   7.453  0.3163 -0.5003  0.3594
 1356TIP3    H225704   0.447   2.429   7.497 -0.8127  0.1196  2.1043
 1357TIP3   OH225705   3.627   2.078   7.466  0.1113  0.0394  0.3583
 1357TIP3    H125706   3.570   2.028   7.407 -0.7587  1.4060  0.0076
 1357TIP3    H225707   3.658   2.013   7.529  1.9252 -1.7309 -2.1362
 1358TIP3   OH225708   6.671   3.456   8.398  0.2865 -0.3903 -0.3199
 1358TIP3    H125709   6.671   3.545   8.434 -0.0368 -0.1812 -0.8227
 1358TIP3    H225710   6.763   3.433   8.391  0.3637 -0.2663  0.2264
 1359TIP3   OH225711   3.460   1.489   6.553 -0.1417 -0.5490  0.2402
 1359TIP3    H125712   3.439   1.403   6.589 -0.2077 -1.5872 -2.0965
 1359TIP3    H225713   3.544   1.478   6.509 -0.6312  0.2564 -0.9829
 1360TIP3   OH225714   2.866   6.184   8.212  0.0925  0.0710 -0.0361
 1360TIP3    H125715   2.847   6.213   8.122  1.5211  0.9629 -0.0884
 1360TIP3    H225716   2.956   6.212   8.227  0.9542 -2.7955  0.6102
 1361TIP3   OH225717   6.228   3.812   0.207  0.0767  0.5413  0.6087
 1361TIP3    H125718   6.298   3.862   0.164 -1.7702  2.2714 -0.5962
 1361TIP3    H225719   6.203   3.866   0.282 -0.0587  0.0018  0.9544
 1362TIP3   OH225720   4.356   3.815   2.958 -0.2861 -0.0724  0.1754
 1362TIP3    H125721   4.351   3.747   3.025 -0.1825  0.4325  0.7045
 1362TIP3    H225722   4.340   3.769   2.876 -1.6314 -0.5092  0.6546
 1363TIP3   OH225723   3.205   6.142   0.294 -0.4912 -0.5988  0.4934
 1363TIP3    H125724   3.272   6.210   0.298 -0.2910 -0.8535  2.0308
 1363TIP3    H225725   3.245   6.071   0.244 -0.5550  0.2318 -0.7660
 1364TIP3   OH225726   0.586   2.017   1.339 -0.0922 -0.0058 -0.0390
 1364TIP3    H125727   0.636   1.941   1.308  1.1700  0.6968  0.1803
 1364TIP3    H225728   0.546   1.988   1.421 -1.6154 -1.1748 -1.1591
 1365TIP3   OH225729   5.962   0.647   1.456 -0.1398 -0.1369  0.3388
 1365TIP3    H125730   5.906   0.646   1.378  0.0571 -3.5400  0.0647
 1365TIP3    H225731   6.050   0.660   1.421 -0.3862  2.3603  0.4869
 1366TIP3   OH225732   3.496   2.517   8.327  0.1311 -0.0410  0.4233
 1366TIP3    H125733   3.541   2.482   8.404 -0.0531  0.9858  1.0222
 1366TIP3    H225734   3.558   2.581   8.291  0.6018 -1.1689 -0.8440
 1367TIP3   OH225735   3.060   0.020   0.750 -0.0908 -0.2113  0.2211
 1367TIP3    H125736   2.997   0.027   0.822 -0.5732  0.6974 -0.2704
 1367TIP3    H225737   3.034   0.088   0.688 -1.4920 -2.7170 -2.2207
 1368TIP3   OH225738   4.960   0.163   8.645  0.5052 -1.1492  0.1691
 1368TIP3    H125739   5.031   0.217   8.679  1.1155 -0.7682 -1.5941
 1368TIP3    H225740   4.899   0.225   8.605  0.7032 -1.6444 -0.9725
 1369TIP3   OH225741   1.282   1.594   8.414  0.4326 -0.0185 -0.1185
 1369TIP3    H125742   1.199   1.591   8.460  1.3332  0.4501  1.6011
 1369TIP3    H225743   1.333   1.521   8.450  1.6092  1.1030  0.5768
 1370TIP3   OH225744   2.879   0.024   6.893 -0.1362  0.4648 -0.2356
 1370TIP3    H125745   2.971   0.019   6.868 -0.1114 -0.0163 -0.0497
 1370TIP3    H225746   2.836   0.069   6.820  0.6091  2.6802  0.6188
 1371TIP3   OH225747   3.568   0.343   0.739 -0.1833 -0.6549 -0.6120
 1371TIP3    H125748   3.505   0.362   0.809 -0.5105 -2.3493 -0.3963
 1371TIP3    H225749   3.636   0.291   0.781  0.8478  0.2492 -1.0855
 1372TIP3   OH225750   2.550   2.322   1.738 -0.0239  0.4883 -0.2051
 1372TIP3    H125751   2.517   2.232   1.738 -0.2398  0.5683 -0.9628
 1372TIP3    H225752   2.643   2.313   1.762 -0.2496  0.1492  0.5853
 1373TIP3   OH225753   1.413   4.585   1.965  0.1816  0.2509  0.1698
 1373TIP3    H125754   1.401   4.512   1.904  1.5191 -0.4192  0.6507
 1373TIP3    H225755   1.451   4.545   2.043  0.4401  1.3841  0.6543
 1374TIP3   OH225756   3.500   1.664   2.608  0.2427  0.1715 -0.2616
 1374TIP3    H125757   3.472   1.579   2.573 -1.2041  0.0848  1.0157
 1374TIP3    H225758   3.540   1.644   2.692  1.8570  0.5757 -0.8990
 1375TIP3   OH225759   3.493   0.910   1.929 -0.6731 -0.1476  0.2188
 1375TIP3    H125760   3.411   0.887   1.886  0.8210 -0.1195 -2.9894
 1375TIP3    H225761   3.523   0.828   1.968  0.5162 -1.9614 -3.8492
 1376TIP3   OH225762   2.253   5.809   1.068  0.3455 -0.0664 -0.4826
 1376TIP3    H125763   2.196   5.835   0.996  1.4506  0.0527 -1.3348
 1376TIP3    H225764   2.194   5.797   1.142 -1.0275 -1.5534 -1.7309
 1377TIP3   OH225765   4.825   1.271   6.900  0.2648  0.1417 -0.5481
 1377TIP3    H125766   4.901   1.235   6.854  0.9481  0.7914  0.0368
 1377TIP3    H225767   4.780   1.194   6.936  1.8102 -0.1538  0.8595
 1378TIP3   OH225768   5.657   2.073   0.361 -0.7617  0.1533 -0.1427
 1378TIP3    H125769   5.693   2.085   0.449 -0.8524  1.6463 -0.2789
 1378TIP3    H225770   5.564   2.055   0.376 -0.6526 -0.2362  0.0867
 1379TIP3   OH225771   3.592   5.033   0.670 -0.6643  0.3775 -0.0383
 1379TIP3    H125772   3.498   5.020   0.681 -0.8347  1.4479 -0.1226
 1379TIP3    H225773   3.608   5.013   0.578 -0.6673 -0.5171  0.1413
 1380TIP3   OH225774   6.351   5.224   7.590 -0.7169  0.0299 -0.0068
 1380TIP3    H125775   6.433   5.212   7.639 -2.3234 -1.1829  2.6026
 1380TIP3    H225776   6.344   5.318   7.578  0.7233  0.2077  0.3142
 1381TIP3   OH225777   1.339   4.307   0.319 -0.0035  0.0407 -0.3544
 1381TIP3    H125778   1.303   4.219   0.324 -0.8622  0.4418  0.8790
 1381TIP3    H225779   1.433   4.294   0.306 -0.4549 -1.0288 -3.2849
 1382TIP3   OH225780   0.338   3.088   6.713  0.0970 -0.2074 -0.2718
 1382TIP3    H125781   0.330   3.172   6.757 -1.5125 -1.0181  1.0706
 1382TIP3    H225782   0.293   3.100   6.629  0.5986  0.4813 -0.4486
 1383TIP3   OH225783   3.960   1.205   0.663  0.3670  0.0656 -0.8329
 1383TIP3    H125784   3.978   1.227   0.754 -1.0476  0.4602 -0.6394
 1383TIP3    H225785   4.038   1.235   0.616  0.4810  1.2219  0.0481
 1384TIP3   OH225786   1.956   3.886   1.546 -0.4794  0.2424 -0.2480
 1384TIP3    H125787   1.994   3.922   1.626  0.8987 -1.7364  0.0767
 1384TIP3    H225788   2.030   3.852   1.497 -1.3934  0.6496 -1.9845
 1385TIP3   OH225789   5.380   4.082   1.977 -0.0949  0.1614  0.1087
 1385TIP3    H125790   5.367   4.008   2.036 -0.0724 -0.3851 -0.5675
 1385TIP3    H225791   5.468   4.114   1.997 -0.1463  0.0761  0.4770
 1386TIP3   OH225792   5.129   1.219   1.515 -0.2988  0.4662 -0.1375
 1386TIP3    H125793   5.102   1.145   1.461  1.4055 -1.5625  1.6497
 1386TIP3    H225794   5.046   1.260   1.542 -1.3221 -1.2941 -0.4649
 1387TIP3   OH225795   4.326   5.823   7.346  0.2492  0.0302  0.1778
 1387TIP3    H125796   4.346   5.804   7.254 -0.3614  0.1358  0.0155
 1387TIP3    H225797   4.272   5.750   7.374  1.5069 -0.6704  0.8563
 1388TIP3   OH225798   4.001   6.119   6.974 -0.0410  0.4567 -0.6142
 1388TIP3    H125799   4.036   6.033   6.998  0.6580  0.9126  0.0623
 1388TIP3    H225800   3.986   6.114   6.880  1.5088  0.1201 -0.8678
 1389TIP3   OH225801   4.304   0.385   0.114 -0.8713 -0.8097 -0.8851
 1389TIP3    H125802   4.330   0.299   0.148 -0.0974 -1.2318 -2.4167
 1389TIP3    H225803   4.364   0.447   0.155 -0.0811 -1.2812 -1.2965
 1390TIP3   OH225804   2.330   5.143   1.548 -0.3121 -0.0306 -0.0372
 1390TIP3    H125805   2.387   5.077   1.588 -0.2731  0.0384  0.0227
 1390TIP3    H225806   2.265   5.092   1.499 -1.9927 -0.2416  2.2400
 1391TIP3   OH225807   2.464   2.300   0.126 -0.5269 -0.2877 -0.3054
 1391TIP3    H125808   2.447   2.237   0.056  2.1236  0.9404 -2.2117
 1391TIP3    H225809   2.487   2.247   0.202  3.3788 -1.8180 -2.3035
 1392TIP3   OH225810   4.754   4.122   7.839 -0.5622  0.0695 -0.3207
 1392TIP3    H125811   4.793   4.209   7.843 -2.0260  0.7358  0.5270
 1392TIP3    H225812   4.777   4.081   7.923 -0.7183  0.0191 -0.3022
 1393TIP3   OH225813   0.307   1.658   8.384  0.4599  0.1131  0.3582
 1393TIP3    H125814   0.368   1.699   8.446 -0.5114  1.0277  0.7313
 1393TIP3    H225815   0.237   1.622   8.439  1.0016 -1.6139 -0.0019
 1394TIP3   OH225816   2.556   2.030   1.827 -0.0253  0.0339  0.4845
 1394TIP3    H125817   2.629   2.007   1.883 -0.2984  0.3326  0.9698
 1394TIP3    H225818   2.483   2.044   1.887 -0.7599 -1.2742 -0.0545
 1395TIP3   OH225819   2.992   4.595   2.323  0.3205  0.1022  0.1352
 1395TIP3    H125820   3.079   4.562   2.346  0.1760  0.2063  0.8613
 1395TIP3    H225821   2.933   4.549   2.384 -0.3128 -1.1071 -1.3272
 1396TIP3   OH225822   4.353   0.332   1.163 -0.0888  0.1860 -0.7185
 1396TIP3    H125823   4.420   0.266   1.143  1.1665  0.2781  2.6039
 1396TIP3    H225824   4.271   0.282   1.166  0.1794 -0.4127 -2.1884
 1397TIP3   OH225825   3.498   4.631   8.566 -0.1823 -0.4081 -0.2396
 1397TIP3    H125826   3.496   4.726   8.562 -0.4575 -0.3817  0.5038
 1397TIP3    H225827   3.407   4.604   8.555 -0.0841 -0.5950 -0.6167
 1398TIP3   OH225828   5.734   5.529   1.733  0.8988  0.1521 -0.0824
 1398TIP3    H125829   5.785   5.536   1.814  0.6643  0.8240  0.0079
 1398TIP3    H225830   5.795   5.553   1.663  1.0834 -0.3659 -0.1032
 1399TIP3   OH225831   5.488   3.235   0.814  0.3903 -0.3193  0.9355
 1399TIP3    H125832   5.463   3.327   0.820  0.5792 -0.2760  1.0686
 1399TIP3    H225833   5.583   3.235   0.828  0.8613 -0.2345 -1.6724
 1400TIP3   OH225834   1.954   3.294   7.792 -0.3107 -0.0822 -0.3250
 1400TIP3    H125835   1.951   3.208   7.751 -0.7514 -0.5319  0.6257
 1400TIP3    H225836   1.955   3.355   7.718  1.2245 -0.9068 -1.0262
 1401TIP3   OH225837   4.347   6.634   0.985 -0.5885 -0.3030  0.3545
 1401TIP3    H125838   4.300   6.595   1.059 -1.3117  0.4997  0.3365
 1401TIP3    H225839   4.339   6.570   0.915  1.8960 -2.0482  1.5176
 1402TIP3   OH225840   1.901   4.137   7.400  0.3001  0.3957  0.2064
 1402TIP3    H125841   1.945   4.209   7.446  0.4250 -0.5346  1.6141
 1402TIP3    H225842   1.821   4.122   7.451  0.6174 -0.9095  0.3325
 1403TIP3   OH225843   0.128   4.705   2.002 -0.2034  0.2715 -0.0479
 1403TIP3    H125844   0.197   4.653   1.961 -0.9809 -0.4942 -0.4208
 1403TIP3    H225845   0.150   4.706   2.095  1.3024  1.5996 -0.3782
 1404TIP3   OH225846   3.374   2.684   0.608  0.1936 -0.7106  0.3184
 1404TIP3    H125847   3.395   2.753   0.546 -0.9961 -1.0020 -0.4352
 1404TIP3    H225848   3.425   2.609   0.578  0.2761 -0.6114  0.2071
 1405TIP3   OH225849   2.912   3.632   0.758  0.1897  0.4548 -0.6885
 1405TIP3    H125850   2.976   3.675   0.701 -0.8219  0.7897 -1.6350
 1405TIP3    H225851   2.867   3.704   0.802  2.2004  0.1603  2.0484
 1406TIP3   OH225852   5.628   4.106   0.095  0.3799  0.0365  0.1216
 1406TIP3    H125853   5.624   4.056   0.176 -2.6102  1.6205  1.0806
 1406TIP3    H225854   5.711   4.155   0.101  0.5304 -0.3728  1.9210
 1407TIP3   OH225855   3.077   2.393   6.289  0.2747  0.4057 -0.3889
 1407TIP3    H125856   3.008   2.330   6.268  2.0258 -1.5805 -0.5213
 1407TIP3    H225857   3.052   2.428   6.375 -1.3386  0.4261 -0.8388
 1408TIP3   OH225858   3.560   1.769   0.077  0.4101 -0.7433  0.0650
 1408TIP3    H125859   3.654   1.759   0.061  0.0413 -1.9680 -1.5478
 1408TIP3    H225860   3.539   1.698   0.137  0.1111 -2.0243 -1.4876
 1409TIP3   OH225861   3.714   1.900   8.307  0.1306  0.2998  0.1673
 1409TIP3    H125862   3.711   1.991   8.279  2.1478  0.5942  0.7235
 1409TIP3    H225863   3.657   1.896   8.383  1.1130  1.4796  1.0079
 1410TIP3   OH225864   0.248   6.566   6.623 -0.3844 -0.4200  0.2463
 1410TIP3    H125865   0.336   6.532   6.605 -0.5387 -1.1373  0.7616
 1410TIP3    H225866   0.232   6.542   6.714 -1.0563 -0.1654  0.1999
 1411TIP3   OH225867   1.273   4.393   0.836 -0.3945 -0.1921 -0.0570
 1411TIP3    H125868   1.345   4.376   0.897  1.0831  1.0822 -1.3775
 1411TIP3    H225869   1.222   4.312   0.837  0.5132 -0.7961  1.6101
 1412TIP3   OH225870   5.380   1.634   0.939  0.0005 -0.1285 -0.1360
 1412TIP3    H125871   5.407   1.725   0.952 -0.3282  0.2057 -1.6149
 1412TIP3    H225872   5.425   1.586   1.008 -1.3219  1.3892  1.8789
 1413TIP3   OH225873   3.819   1.738   0.139  0.2988  0.1478  0.1237
 1413TIP3    H125874   3.889   1.787   0.096  0.6723  0.4551  1.0544
 1413TIP3    H225875   3.865   1.673   0.193 -0.0011  1.6147  2.2867
 1414TIP3   OH225876   1.724   5.962   1.934  0.4069  0.3402 -0.2983
 1414TIP3    H125877   1.755   5.980   2.023 -0.4464 -1.0472  0.3221
 1414TIP3    H225878   1.776   5.888   1.904  0.9299  1.0199 -1.1089
 1415TIP3   OH225879   0.537   3.799   2.128  0.0858 -0.4601  0.6351
 1415TIP3    H125880   0.565   3.747   2.204  2.1985 -2.3422 -1.2596
 1415TIP3    H225881   0.453   3.761   2.103 -1.8112  1.6507  3.1858
 1416TIP3   OH225882   0.142   4.223   0.746 -0.0905  0.5071  0.0366
 1416TIP3    H125883   0.122   4.133   0.772  1.3003  0.2158  0.1659
 1416TIP3    H225884   0.235   4.234   0.765 -0.4702  2.3527  1.0922
 1417TIP3   OH225885   3.852   1.216   1.560 -0.5143 -0.3593  0.7626
 1417TIP3    H125886   3.787   1.153   1.529 -0.7656 -0.1252  0.8079
 1417TIP3    H225887   3.872   1.188   1.649  0.9691 -1.6382  0.0588
 1418TIP3   OH225888   6.425   3.475   7.074  0.4269  0.1576 -0.1237
 1418TIP3    H125889   6.429   3.409   7.005 -0.6727  0.5036 -0.5369
 1418TIP3    H225890   6.354   3.534   7.047  0.3050  0.5775  1.0529
 1419TIP3   OH225891   5.804   1.046   7.231  0.4465  0.0554 -0.6530
 1419TIP3    H125892   5.792   1.030   7.325 -1.5935 -0.8814 -1.0026
 1419TIP3    H225893   5.847   1.131   7.227 -0.2452  0.5569  1.1364
 1420TIP3   OH225894   6.718   3.453   2.212 -0.3423  0.2281 -0.1433
 1420TIP3    H125895   6.710   3.526   2.274 -0.0244  0.2634 -0.1381
 1420TIP3    H225896   6.667   3.382   2.251 -1.0796  0.6156 -0.4076
 1421TIP3   OH225897   5.670   2.851   7.516 -0.3143  0.5269 -0.0890
 1421TIP3    H125898   5.609   2.913   7.554 -1.0354  0.3213 -0.8891
 1421TIP3    H225899   5.634   2.765   7.537 -1.7385  0.3787 -2.6998
 1422TIP3   OH225900   2.287   1.567   8.597  0.0499 -0.2182  0.6029
 1422TIP3    H125901   2.351   1.580   8.666  0.4809  2.1618 -0.1366
 1422TIP3    H225902   2.220   1.634   8.613 -0.7780 -0.8086 -0.2594
 1423TIP3   OH225903   5.794   1.156   2.053  0.0363 -0.1704  0.3961
 1423TIP3    H125904   5.828   1.180   2.140 -1.9144  0.4314  1.0285
 1423TIP3    H225905   5.738   1.081   2.069 -0.2489 -0.1233 -0.3598
 1424TIP3   OH225906   3.013   3.101   0.781 -0.3034 -0.7782  0.0477
 1424TIP3    H125907   2.949   3.060   0.838  0.5305 -0.4692  1.2451
 1424TIP3    H225908   2.986   3.193   0.776 -3.0299 -1.5478 -3.8113
 1425TIP3   OH225909   6.200   4.497   8.373  0.2944  0.0029  0.0728
 1425TIP3    H125910   6.199   4.426   8.308 -0.6398  0.7614 -0.7865
 1425TIP3    H225911   6.214   4.576   8.321  1.9260  0.4111  1.0840
 1426TIP3   OH225912   2.403   1.827   8.506  0.0510  0.1363 -0.5154
 1426TIP3    H125913   2.314   1.830   8.472  0.2333  2.1728 -0.9907
 1426TIP3    H225914   2.448   1.898   8.461  1.8120 -0.5782  0.0223
 1427TIP3   OH225915   3.526   0.307   0.467 -0.1852  0.2653  0.1240
 1427TIP3    H125916   3.564   0.361   0.397 -1.6013 -0.4634 -1.2546
 1427TIP3    H225917   3.574   0.334   0.545 -0.9351  3.7339 -0.4130
 1428TIP3   OH225918   0.211   0.253   7.092  0.5062 -0.3116 -0.2558
 1428TIP3    H125919   0.251   0.316   7.152  1.2161 -0.6128 -0.3982
 1428TIP3    H225920   0.146   0.303   7.043  0.0467 -0.0227  0.6320
 1429TIP3   OH225921   4.019   5.234   8.801  0.3157  0.4532  0.5435
 1429TIP3    H125922   4.112   5.231   8.779  0.0548  0.6948 -0.6367
 1429TIP3    H225923   3.973   5.214   8.720 -0.6701  0.1233  1.1565
 1430TIP3   OH225924   5.410   3.491   0.873  0.1916  0.2051  0.4223
 1430TIP3    H125925   5.320   3.459   0.865 -0.0223  0.8759  0.1093
 1430TIP3    H225926   5.430   3.483   0.966  0.1495 -0.8445  0.3528
 1431TIP3   OH225927   1.329   3.202   7.744 -0.3769  0.0844  0.5778
 1431TIP3    H125928   1.346   3.121   7.791  0.9976  0.5978  0.9900
 1431TIP3    H225929   1.270   3.251   7.802  0.5855  0.3299  1.3626
 1432TIP3   OH225930   6.770   1.321   0.488 -0.1617  0.4983  0.0792
 1432TIP3    H125931   6.779   1.415   0.472 -2.1436  0.9628  1.3349
 1432TIP3    H225932   6.754   1.284   0.401 -0.7155  1.5353 -0.2813
 1433TIP3   OH225933   6.092   2.459   0.894  0.3663  0.0541 -0.7793
 1433TIP3    H125934   6.096   2.481   0.987 -1.1008  0.1918 -0.7342
 1433TIP3    H225935   6.030   2.386   0.889  0.6660 -0.1608 -1.6238
 1434TIP3   OH225936   0.612   2.710   1.881  0.4212  0.0704  0.1553
 1434TIP3    H125937   0.554   2.662   1.940 -1.1370  1.3730 -0.2628
 1434TIP3    H225938   0.634   2.790   1.929  0.9283  0.1274 -0.1646
 1435TIP3   OH225939   0.541   3.681   0.188  0.4087 -0.3786 -0.1892
 1435TIP3    H125940   0.618   3.624   0.191  0.9868  0.4232  0.7410
 1435TIP3    H225941   0.474   3.628   0.144  0.7529 -2.0105  1.1188
 1436TIP3   OH225942   4.652   2.929   1.347 -0.1196 -0.0706  0.0986
 1436TIP3    H125943   4.558   2.948   1.345  0.0676  1.2650  1.6820
 1436TIP3    H225944   4.681   2.940   1.257 -1.3677  0.1331 -0.2962
 1437TIP3   OH225945   5.282   1.949   0.075  0.3933 -0.9103 -0.3775
 1437TIP3    H125946   5.281   1.871   0.130 -0.8970 -0.0337  0.9404
 1437TIP3    H225947   5.296   1.917  -0.013 -0.2537 -2.6472  0.1100
 1438TIP3   OH225948   6.203   0.724   2.449  0.1426 -0.2598  0.0043
 1438TIP3    H125949   6.238   0.744   2.362 -0.9254 -1.0215 -0.6168
 1438TIP3    H225950   6.161   0.805   2.477  1.5295  0.3672  0.3493
 1439TIP3   OH225951   5.457   0.323   1.159  0.0189 -0.6726 -0.2469
 1439TIP3    H125952   5.547   0.328   1.129  0.9291  1.1959  2.4044
 1439TIP3    H225953   5.436   0.412   1.188 -2.5489 -1.1483 -0.3618
 1440TIP3   OH225954   5.931   5.124   7.651  0.5006 -0.1808  0.0396
 1440TIP3    H125955   5.955   5.151   7.740  0.7624 -0.3178  0.0118
 1440TIP3    H225956   5.890   5.039   7.662  1.1029 -0.4891 -0.0292
 1441TIP3   OH225957   2.675   5.480   0.637 -0.1191  0.5787  0.0505
 1441TIP3    H125958   2.625   5.536   0.695 -1.7137  0.4511 -1.1278
 1441TIP3    H225959   2.745   5.537   0.604 -1.8494  2.0481 -1.3303
 1442TIP3   OH225960   3.620   0.072   7.737  0.2986  0.4182 -0.2701
 1442TIP3    H125961   3.613   0.159   7.696  1.6151  0.7124  0.0817
 1442TIP3    H225962   3.693   0.081   7.798 -0.1355 -0.6922  0.4327
 1443TIP3   OH225963   4.665   2.677   1.670  0.2841 -0.3631 -0.0705
 1443TIP3    H125964   4.747   2.726   1.679 -0.7623  1.4084  0.3371
 1443TIP3    H225965   4.625   2.682   1.757 -1.0667  0.3618 -0.7054
 1444TIP3   OH225966   6.031   5.765   0.504  0.0304 -0.1621 -0.0031
 1444TIP3    H125967   6.094   5.829   0.537  2.2031 -0.8845 -2.4147
 1444TIP3    H225968   5.969   5.816   0.452  0.0702  0.2732  0.3730
 1445TIP3   OH225969   0.841   1.348   0.612 -0.3001 -0.1567  0.0562
 1445TIP3    H125970   0.764   1.402   0.593 -0.1210  0.0143 -0.1921
 1445TIP3    H225971   0.820   1.262   0.574 -0.2191 -0.0059 -0.3334
 1446TIP3   OH225972   0.135   6.287   8.492 -0.0911  0.3240  0.2553
 1446TIP3    H125973   0.101   6.376   8.507  0.4759  0.1849  2.6376
 1446TIP3    H225974   0.118   6.241   8.574  1.4142 -1.1980 -0.2534
 1447TIP3   OH225975   0.905   6.046   7.228  0.0519  0.3809 -0.3129
 1447TIP3    H125976   0.840   6.001   7.174  1.2666 -1.2070 -0.5308
 1447TIP3    H225977   0.983   5.991   7.223  1.2661  1.9514  0.3718
 1448TIP3   OH225978   0.167   2.039   1.461 -0.2207 -0.0518 -0.3245
 1448TIP3    H125979   0.179   2.014   1.553  0.6070 -1.4943 -0.7855
 1448TIP3    H225980   0.098   1.980   1.429  1.0069 -1.0983 -1.1587
 1449TIP3   OH225981   2.366   6.142   0.964 -0.4204 -0.3593 -0.0562
 1449TIP3    H125982   2.276   6.124   0.940 -0.4625 -0.3597  0.0987
 1449TIP3    H225983   2.369   6.236   0.980 -0.7984 -0.5949  1.5772
 1450TIP3   OH225984   1.238   0.579   0.959 -0.5700 -0.3496  0.5943
 1450TIP3    H125985   1.329   0.581   0.929 -0.9370  2.7005 -0.7619
 1450TIP3    H225986   1.240   0.618   1.046 -0.6537  1.1709 -0.0400
 1451TIP3   OH225987   1.317   5.162   6.602  0.8201 -0.3074 -0.8788
 1451TIP3    H125988   1.325   5.207   6.518  1.6878 -0.4137 -0.8596
 1451TIP3    H225989   1.228   5.183   6.632  0.4666 -0.3441 -1.8585
 1452TIP3   OH225990   0.459   2.858   6.403 -0.1906 -0.4617  0.1783
 1452TIP3    H125991   0.382   2.892   6.358  0.1833 -1.3723 -1.2398
 1452TIP3    H225992   0.531   2.913   6.373 -0.0700 -0.5259  0.3485
 1453TIP3   OH225993   4.699   3.263   1.124 -0.5044  0.3491 -0.0415
 1453TIP3    H125994   4.748   3.343   1.103  0.5293 -0.0279  0.8560
 1453TIP3    H225995   4.611   3.280   1.090  0.3901  0.7688 -2.3955
 1454TIP3   OH225996   6.571   6.551   6.805  0.4586  0.0385  0.6932
 1454TIP3    H125997   6.642   6.588   6.752  2.5657  0.3142  3.4942
 1454TIP3    H225998   6.582   6.457   6.797 -0.2680  0.0395 -0.5766
 1455TIP3   OH225999   0.214   6.384   0.567 -0.1957  0.2160 -0.1704
 1455TIP3    H126000   0.273   6.349   0.500  0.0959 -0.8007  0.5903
 1455TIP3    H226001   0.142   6.321   0.571  0.6642 -0.7586  1.6812
 1456TIP3   OH226002   0.950   6.833   7.445 -0.0021  0.0463  0.0848
 1456TIP3    H126003   0.877   6.822   7.384 -0.5547 -2.3552  1.0435
 1456TIP3    H226004   1.027   6.809   7.395 -0.4303 -1.7033  0.1757
 1457TIP3   OH226005   6.207   0.587   1.326  0.4574 -0.4213  0.0304
 1457TIP3    H126006   6.296   0.601   1.293  0.1892 -0.3636 -0.6820
 1457TIP3    H226007   6.189   0.495   1.309  0.5642 -0.5578  0.6377
 1458TIP3   OH226008   3.438   1.941   6.704  0.0846  0.0654 -0.0521
 1458TIP3    H126009   3.359   1.990   6.722 -1.1197 -1.5862 -0.5872
 1458TIP3    H226010   3.422   1.897   6.620  2.6737  1.8311 -1.6313
 1459TIP3   OH226011   5.968   2.023   1.051  0.1964  0.7132 -0.2383
 1459TIP3    H126012   5.941   2.108   1.019  0.5621  1.1635  0.6018
 1459TIP3    H226013   5.999   2.039   1.141 -0.5249 -0.4404  0.2454
 1460TIP3   OH226014   4.904   3.155   2.301 -0.2955 -0.2560 -0.0170
 1460TIP3    H126015   4.912   3.189   2.212 -0.1485 -0.5181 -0.1061
 1460TIP3    H226016   4.917   3.231   2.357  0.7172 -0.2847 -0.1945
 1461TIP3   OH226017   1.703   6.432   1.263  0.8182 -0.0485 -0.6409
 1461TIP3    H126018   1.653   6.513   1.276  0.1928 -0.3608 -1.0632
 1461TIP3    H226019   1.781   6.443   1.318 -0.3980 -0.1633  1.1976
 1462TIP3   OH226020   1.925   2.916   2.216 -0.1700  0.3796  0.4579
 1462TIP3    H126021   1.899   2.949   2.130  1.2888 -1.2115 -0.6470
 1462TIP3    H226022   1.886   2.829   2.222  1.5152 -0.4220  0.4310
 1463TIP3   OH226023   2.214   1.930   1.824 -0.6807 -0.1001 -0.5083
 1463TIP3    H126024   2.265   1.851   1.842 -0.3833 -0.0052 -0.9302
 1463TIP3    H226025   2.124   1.908   1.850 -0.3871 -0.1810  0.4958
 1464TIP3   OH226026   6.337   3.152   0.556 -0.8398 -0.5673 -0.1491
 1464TIP3    H126027   6.254   3.106   0.556 -2.0145  1.3874  1.1251
 1464TIP3    H226028   6.323   3.226   0.497  1.0590 -1.8113 -2.3251
 1465TIP3   OH226029   6.714   3.075   0.763  0.1451 -0.4623 -0.0890
 1465TIP3    H126030   6.724   3.079   0.858  0.4325 -0.2402 -0.1292
 1465TIP3    H226031   6.688   2.985   0.746 -0.2038 -0.4277  0.2276
 1466TIP3   OH226032   0.647   2.145   0.310 -0.5117  0.4807 -0.0648
 1466TIP3    H126033   0.690   2.079   0.364 -0.0935  1.5925  1.0042
 1466TIP3    H226034   0.556   2.143   0.337 -1.0077 -1.2155 -1.6612
 1467TIP3   OH226035   6.607   6.184   8.031  0.3576 -0.8344 -0.5800
 1467TIP3    H126036   6.539   6.137   8.078 -1.2241  0.8738 -1.0573
 1467TIP3    H226037   6.620   6.132   7.951  0.5074 -1.8251  0.0728
 1468TIP3   OH226038   1.559   4.159   1.959  0.1864  0.0661 -0.4921
 1468TIP3    H126039   1.643   4.165   1.913  0.1802 -3.7787 -1.3550
 1468TIP3    H226040   1.582   4.161   2.052  1.2258 -0.4490 -0.7226
 1469TIP3   OH226041   4.180   0.502   7.090  0.2053 -0.0355 -0.2977
 1469TIP3    H126042   4.134   0.438   7.035  0.9928 -1.6230  0.8235
 1469TIP3    H226043   4.113   0.567   7.110 -1.4244 -1.9116  0.7039
 1470TIP3   OH226044   0.273   5.645   6.619 -0.1721 -0.0497  0.3177
 1470TIP3    H126045   0.326   5.681   6.548 -1.5524  1.0241 -0.2229
 1470TIP3    H226046   0.322   5.569   6.649 -0.0104 -1.1615 -2.4485
 1471TIP3   OH226047   2.608   1.020   2.049 -0.4957 -0.1418 -0.4190
 1471TIP3    H126048   2.598   0.958   2.120 -4.0943  0.2153 -0.4190
 1471TIP3    H226049   2.603   1.106   2.091  1.8476  0.2031 -0.7057
 1472TIP3   OH226050   0.895   1.984   0.979  0.1981  0.7733 -0.1337
 1472TIP3    H126051   0.870   2.012   1.067  1.3320  0.2460  0.3768
 1472TIP3    H226052   0.980   2.025   0.963  1.2202 -1.1311  0.0580
 1473TIP3   OH226053   6.808   1.826   0.603  0.6571 -0.3730  0.3566
 1473TIP3    H126054   6.809   1.878   0.684  1.1532 -1.9061  1.3780
 1473TIP3    H226055   6.845   1.885   0.537  1.2168  0.5725  1.4705
 1474TIP3   OH226056   4.342   1.392   8.268  0.3816  0.5212  0.3746
 1474TIP3    H126057   4.392   1.397   8.349 -0.4300 -0.0861  0.9378
 1474TIP3    H226058   4.250   1.394   8.297  0.0789  0.9919 -0.5793
 1475TIP3   OH226059   5.460   2.905   7.099  0.0300 -0.0234  0.9085
 1475TIP3    H126060   5.458   2.930   7.006 -0.5545  0.1475  0.9628
 1475TIP3    H226061   5.554   2.902   7.121  0.1514  2.1230  0.8910
 1476TIP3   OH226062   3.109   6.202   1.185  0.2003  0.3367  0.3169
 1476TIP3    H126063   3.077   6.150   1.111  1.3214 -1.1757  0.8482
 1476TIP3    H226064   3.084   6.151   1.262 -1.2425  2.0449  1.0456
 1477TIP3   OH226065   1.154   2.920   0.685  0.2616  0.3305 -0.2593
 1477TIP3    H126066   1.126   2.829   0.691  1.0941  0.0140 -0.9745
 1477TIP3    H226067   1.108   2.955   0.609  0.9763  0.0974 -0.8193
 1478TIP3   OH226068   2.932   2.053   7.408  0.3541  0.8817  0.1260
 1478TIP3    H126069   2.963   2.134   7.450 -1.0522  2.6241 -1.9903
 1478TIP3    H226070   3.001   2.032   7.345  1.0441 -0.0252  1.1429
 1479TIP3   OH226071   0.204   5.402   1.259  0.6063 -0.7341 -0.0726
 1479TIP3    H126072   0.206   5.490   1.296  1.1097 -0.6436 -0.3037
 1479TIP3    H226073   0.206   5.344   1.335  0.5582 -0.5480  0.0716
 1480TIP3   OH226074   5.589   5.357   8.569 -0.4702 -0.4405  0.0272
 1480TIP3    H126075   5.648   5.422   8.607  1.1079 -1.1380 -1.0749
 1480TIP3    H226076   5.570   5.391   8.481 -0.7640 -0.7853 -0.0430
 1481TIP3   OH226077   6.016   2.494   8.162  0.1518  0.0809 -0.2938
 1481TIP3    H126078   5.931   2.533   8.178  0.0442 -0.1084 -0.4032
 1481TIP3    H226079   6.011   2.460   8.073  0.0618 -0.6387 -0.0281
 1482TIP3   OH226080   4.983   4.503   1.609 -0.4306 -0.1190  0.3228
 1482TIP3    H126081   4.938   4.476   1.689  0.9591 -0.6368  0.9610
 1482TIP3    H226082   4.920   4.561   1.565 -2.3141 -1.9390  0.4252
 1483TIP3   OH226083   4.998   6.287   1.719 -0.1020 -0.5091 -0.2221
 1483TIP3    H126084   4.909   6.317   1.701  0.1294  0.3624  0.0443
 1483TIP3    H226085   5.049   6.367   1.732  1.0144 -0.9213 -1.7071
 1484TIP3   OH226086   4.347   5.524   0.506  0.3346  0.2272 -0.3067
 1484TIP3    H126087   4.413   5.581   0.545  0.4068 -0.7653  1.1020
 1484TIP3    H226088   4.324   5.463   0.576 -0.4910 -0.8216 -1.4524
 1485TIP3   OH226089   4.750   5.243   1.616  0.0367 -0.1272  0.0660
 1485TIP3    H126090   4.836   5.242   1.659  0.8202 -1.0861 -1.4238
 1485TIP3    H226091   4.768   5.279   1.529 -1.5269  1.8854  0.5095
 1486TIP3   OH226092   4.104   2.866   1.962  0.7122 -0.0827 -0.2224
 1486TIP3    H126093   4.014   2.855   1.993  1.1234 -0.5447  0.8640
 1486TIP3    H226094   4.103   2.948   1.914  0.0324  0.7044  1.0765
 1487TIP3   OH226095   2.843   4.473   7.982  0.3098 -0.1062  0.6259
 1487TIP3    H126096   2.768   4.499   8.034 -0.1169  0.3487 -0.1939
 1487TIP3    H226097   2.866   4.552   7.932 -1.5427 -1.4149 -2.5648
 1488TIP3   OH226098   3.127   3.428   7.217  0.0091 -0.5821  0.3978
 1488TIP3    H126099   3.132   3.514   7.176 -0.8816 -0.8243 -0.2630
 1488TIP3    H226100   3.110   3.447   7.310 -2.5145 -0.0159 -0.1058
 1489TIP3   OH226101   5.599   0.035   1.531  0.5118  0.3152 -0.0345
 1489TIP3    H126102   5.562  -0.052   1.547  0.0871  0.7362  1.3961
 1489TIP3    H226103   5.691   0.026   1.552  0.6375  0.0058 -0.7065
 1490TIP3   OH226104   2.422   2.351   8.467 -0.3760  0.0212 -0.4806
 1490TIP3    H126105   2.469   2.430   8.495  0.9623 -1.0506  0.3982
 1490TIP3    H226106   2.399   2.369   8.375 -0.3727  1.5311 -0.2214
 1491TIP3   OH226107   3.039   2.313   7.481  0.4265  0.3414 -0.0059
 1491TIP3    H126108   2.980   2.382   7.450 -0.4356 -0.4447 -0.1442
 1491TIP3    H226109   3.070   2.346   7.566 -2.5469 -0.4749  1.5436
 1492TIP3   OH226110   2.002   4.686   0.268 -0.0834  0.2716 -0.3105
 1492TIP3    H126111   2.038   4.754   0.325  1.3382 -0.0286 -0.8184
 1492TIP3    H226112   1.916   4.720   0.243  0.1634  1.3908  0.2943
 1493TIP3   OH226113   1.533   6.677   7.890  0.4485  0.5670  0.0455
 1493TIP3    H126114   1.480   6.606   7.925  0.4887 -0.0255 -1.0618
 1493TIP3    H226115   1.615   6.673   7.940  1.3364 -1.5986 -1.4718
 1494TIP3   OH226116   2.213   1.068   1.271  0.0266 -0.1013 -0.1744
 1494TIP3    H126117   2.263   1.129   1.324 -0.1388 -0.5235  0.4808
 1494TIP3    H226118   2.276   1.001   1.244  0.1847  0.2886 -0.8058
 1495TIP3   OH226119   4.994   2.207   8.062 -0.5857  0.5626  0.1817
 1495TIP3    H126120   4.994   2.265   8.137  1.0358 -0.5666  1.1118
 1495TIP3    H226121   5.053   2.248   7.999 -0.4950  0.5920  0.2873
 1496TIP3   OH226122   2.613   0.207   8.179 -0.6391 -0.0165  0.3774
 1496TIP3    H126123   2.629   0.138   8.114  1.7158  0.2507  0.6113
 1496TIP3    H226124   2.629   0.289   8.131  1.5854  0.1702  1.3505
 1497TIP3   OH226125   4.159   0.008   0.129  0.6604 -0.2322 -0.3392
 1497TIP3    H126126   4.149   0.020   0.224 -1.0155 -3.1974 -0.0113
 1497TIP3    H226127   4.250   0.032   0.112  0.7556  1.2595  1.8181
 1498TIP3   OH226128   1.952   1.839   1.901 -0.3542  0.2400  0.0257
 1498TIP3    H126129   1.951   1.922   1.949  0.8113 -0.0529  0.5856
 1498TIP3    H226130   1.865   1.801   1.916 -1.4615  2.0164 -1.4556
 1499TIP3   OH226131   3.374   6.782   7.694 -0.9790  0.0185 -0.0512
 1499TIP3    H126132   3.464   6.814   7.700 -0.8875  0.7184 -3.3064
 1499TIP3    H226133   3.329   6.824   7.768  0.9772  1.0304  0.6374
 1500TIP3   OH226134   2.069   2.217   6.813 -0.4702  0.5826  0.2413
 1500TIP3    H126135   1.984   2.185   6.785 -0.5537  1.2388 -0.2978
 1500TIP3    H226136   2.111   2.247   6.732 -0.7020  2.5169  0.7832
 1501TIP3   OH226137   2.985   1.034   0.832 -0.4705 -0.6952 -0.0195
 1501TIP3    H126138   2.950   0.965   0.775 -1.4041 -1.1092  1.0063
 1501TIP3    H226139   2.967   1.115   0.786 -4.3076 -0.7259  1.0552
 1502TIP3   OH226140   6.013   0.217   8.638 -0.0628  0.0972 -0.2093
 1502TIP3    H126141   6.090   0.247   8.687 -0.4840 -1.2832  1.3862
 1502TIP3    H226142   5.947   0.199   8.705 -0.7186 -1.7398 -1.2659
 1503TIP3   OH226143   0.873   3.209   7.253 -0.3872 -0.5348 -0.0882
 1503TIP3    H126144   0.892   3.116   7.254 -1.3469 -0.7547  1.6704
 1503TIP3    H226145   0.781   3.214   7.225 -0.0436 -0.0263 -1.1770
 1504TIP3   OH226146   1.938   3.014   0.972 -0.1974  0.4291  0.1171
 1504TIP3    H126147   1.902   2.930   0.943 -0.5941 -0.2979  2.5299
 1504TIP3    H226148   2.033   3.004   0.962 -0.3285  0.4995 -1.5182
 1505TIP3   OH226149   4.932   4.397   0.102  0.5488  0.2748  0.3772
 1505TIP3    H126150   4.964   4.311   0.072  0.0506  0.2980 -0.2283
 1505TIP3    H226151   4.890   4.435   0.025 -0.9811  0.2384  1.1625
 1506TIP3   OH226152   0.925   1.109   7.415 -0.2588  0.2939 -0.1834
 1506TIP3    H126153   1.007   1.123   7.369 -1.7222 -0.0436 -3.1055
 1506TIP3    H226154   0.928   1.170   7.489  2.1174  1.0658 -0.8516
 1507TIP3   OH226155   0.178   2.935   0.851  0.6242 -0.3180  0.6870
 1507TIP3    H126156   0.100   2.943   0.906  0.8440  0.9269  0.8531
 1507TIP3    H226157   0.192   3.023   0.817  0.2993 -1.1098 -1.6706
 1508TIP3   OH226158   0.251   6.550   8.635 -0.2632  0.1799 -0.7134
 1508TIP3    H126159   0.179   6.571   8.577  0.1127  0.5414 -1.0606
 1508TIP3    H226160   0.313   6.623   8.623 -0.5558  0.7138  0.7753
 1509TIP3   OH226161   3.055   6.385   7.760  0.4089 -0.5368  0.2027
 1509TIP3    H126162   3.148   6.374   7.741  0.8550  2.2262  0.4231
 1509TIP3    H226163   3.022   6.440   7.689 -0.8814 -0.7466  0.6074
 1510TIP3   OH226164   2.632   5.217   1.483  0.6997  0.0041 -0.2659
 1510TIP3    H126165   2.714   5.206   1.434  0.5778 -1.8954 -0.1324
 1510TIP3    H226166   2.571   5.156   1.441 -0.3811  0.7047  0.2407
 1511TIP3   OH226167   6.447   5.129   6.989 -1.1139 -0.2058 -0.3984
 1511TIP3    H126168   6.429   5.038   6.962  1.5039 -0.6894 -0.7277
 1511TIP3    H226169   6.437   5.180   6.908  1.1142 -0.8244 -1.1454
 1512TIP3   OH226170   3.954   4.137   2.421 -0.5033 -0.0582  0.4194
 1512TIP3    H126171   4.002   4.055   2.406 -0.4655  0.0926 -0.3594
 1512TIP3    H226172   4.022   4.202   2.441 -0.5107 -0.1571  0.7695
 1513TIP3   OH226173   3.829   1.203   7.005 -0.0405 -0.1357  0.0015
 1513TIP3    H126174   3.803   1.295   7.004 -2.5022 -0.4763 -5.3715
 1513TIP3    H226175   3.925   1.204   6.999 -0.0230  2.0606  0.1092
 1514TIP3   OH226176   1.007   0.347   1.950 -0.0904 -0.5371 -0.4899
 1514TIP3    H126177   0.973   0.300   2.027 -1.2406  2.0180  0.6841
 1514TIP3    H226178   1.084   0.393   1.983 -0.5230  0.4785 -0.8649
 1515TIP3   OH226179   1.166   5.743   7.303  0.3388  0.2502  0.0439
 1515TIP3    H126180   1.084   5.697   7.320  0.7926 -0.5583  0.1408
 1515TIP3    H226181   1.204   5.696   7.228  1.1679 -0.0175  0.6194
 1516TIP3   OH226182   2.321   0.739   0.526 -0.3554  0.6270  0.8063
 1516TIP3    H126183   2.250   0.791   0.488  0.8090  1.1990 -0.6769
 1516TIP3    H226184   2.279   0.657   0.552 -1.4515  0.6697 -0.6936
 1517TIP3   OH226185   3.006   0.271   0.649 -0.5993  0.0102 -0.2773
 1517TIP3    H126186   2.984   0.259   0.557  0.4587 -3.2630 -0.2503
 1517TIP3    H226187   3.087   0.323   0.648  0.5539 -1.6834 -1.4058
 1518TIP3   OH226188   2.595   5.090   0.787  0.0875  0.1352 -0.0091
 1518TIP3    H126189   2.663   5.156   0.795  1.2453 -0.5870 -2.7927
 1518TIP3    H226190   2.642   5.010   0.761 -1.4960 -1.2726  1.1925
 1519TIP3   OH226191   2.662   6.390   8.489  0.0722  0.5932  0.5884
 1519TIP3    H126192   2.742   6.404   8.439 -0.4798  1.6123 -0.0536
 1519TIP3    H226193   2.609   6.333   8.433  0.5012 -0.4210  1.1963
 1520TIP3   OH226194   1.125   5.779   8.354  0.8637  0.0587 -0.2078
 1520TIP3    H126195   1.033   5.780   8.328  0.5756 -1.4831  0.5993
 1520TIP3    H226196   1.138   5.691   8.391  2.1692  0.8617  1.3775
 1521TIP3   OH226197   5.267   6.501   2.043 -0.0835 -0.3197  0.4675
 1521TIP3    H126198   5.296   6.410   2.040  1.1185  0.0370  0.7920
 1521TIP3    H226199   5.328   6.544   2.104  1.5166  1.4179 -2.1555
 1522TIP3   OH226200   2.767   2.475   7.538  0.1379 -0.4593  0.3685
 1522TIP3    H126201   2.800   2.563   7.559  1.8594 -1.1521  0.7142
 1522TIP3    H226202   2.744   2.481   7.445  2.8257 -0.3269 -0.3740
 1523TIP3   OH226203   4.537   1.270   6.947  0.4052  0.3653  0.4937
 1523TIP3    H126204   4.539   1.223   6.863  0.5370 -0.0672  0.7360
 1523TIP3    H226205   4.540   1.363   6.922 -1.7841  0.3328 -0.0763
 1524TIP3   OH226206   5.622   5.634   7.817  0.4016  0.0295 -0.3649
 1524TIP3    H126207   5.698   5.692   7.814  0.5151 -0.1697 -2.2650
 1524TIP3    H226208   5.554   5.688   7.858  0.8236  1.1535 -1.0733
 1525TIP3   OH226209   4.394   1.174   7.923  0.1135  0.4727  0.2769
 1525TIP3    H126210   4.395   1.260   7.966 -0.8513  0.1719  0.9392
 1525TIP3    H226211   4.328   1.183   7.853  2.4918  1.3284 -2.0279
 1526TIP3   OH226212   3.722   1.457   7.053  0.1796  0.3385 -0.3816
 1526TIP3    H126213   3.697   1.498   6.970  1.2298  0.8551 -0.4628
 1526TIP3    H226214   3.642   1.460   7.106 -0.9167 -1.2880 -1.8421
 1527TIP3   OH226215   0.641   6.560   0.848  0.6816  0.7136  0.4984
 1527TIP3    H126216   0.583   6.634   0.863  0.3072  0.2297  1.5536
 1527TIP3    H226217   0.725   6.599   0.823 -0.2349  1.4138 -1.7579
 1528TIP3   OH226218   1.473   0.002   2.053 -0.1019 -0.0293 -0.0189
 1528TIP3    H126219   1.506  -0.063   2.115 -0.2425 -0.8202 -0.7596
 1528TIP3    H226220   1.439   0.072   2.109 -1.3220 -1.2585  0.8562
 1529TIP3   OH226221   1.389   5.370   7.686 -0.1443  0.3102 -0.3047
 1529TIP3    H126222   1.376   5.281   7.718 -0.4691 -0.2016 -1.7435
 1529TIP3    H226223   1.300   5.407   7.683  0.0037  0.7346  0.4114
 1530TIP3   OH226224   5.749   5.067   0.481 -0.1111  0.1266 -0.5064
 1530TIP3    H126225   5.765   5.010   0.557  1.9544  1.9412  0.5433
 1530TIP3    H226226   5.664   5.107   0.499 -0.1000 -0.2225  0.3763
 1531TIP3   OH226227   6.362   4.430   0.428 -0.4788 -0.1958 -0.0986
 1531TIP3    H126228   6.415   4.368   0.478 -0.5080  0.0037  0.1834
 1531TIP3    H226229   6.341   4.499   0.490  1.2103  1.1320 -0.9236
 1532TIP3   OH226230   1.722   4.136   1.555  0.0226 -0.0915  0.2432
 1532TIP3    H126231   1.710   4.231   1.545 -0.1461 -0.1042  0.3432
 1532TIP3    H226232   1.634   4.100   1.547  0.1706 -0.3046 -0.5431
 1533TIP3   OH226233   2.069   4.967   2.205  1.2598 -0.0813 -0.2386
 1533TIP3    H126234   2.063   5.047   2.154 -0.0412  0.7367  1.1169
 1533TIP3    H226235   2.003   4.977   2.274  2.0004 -1.7230  0.7799
 1534TIP3   OH226236   3.901   3.941   2.146 -0.3755  0.1133 -0.0592
 1534TIP3    H126237   3.933   3.856   2.115  0.1233  1.3823 -3.4623
 1534TIP3    H226238   3.960   3.965   2.217  0.1489 -1.8635  0.2267
 1535TIP3   OH226239   0.101   3.237   0.336 -0.6704  0.1916  0.4101
 1535TIP3    H126240   0.086   3.209   0.246 -1.6356 -0.4103  0.7447
 1535TIP3    H226241   0.047   3.179   0.389  0.8061 -0.2823  1.4880
 1536TIP3   OH226242   4.070   4.935   1.954  0.2677 -0.1969 -0.2482
 1536TIP3    H126243   4.147   4.959   1.902 -0.1275  0.0325 -0.7333
 1536TIP3    H226244   4.057   5.009   2.013  0.8662 -0.5647  0.3694
 1537TIP3   OH226245   5.971   2.205   6.883  0.2815 -0.6572 -0.1614
 1537TIP3    H126246   6.000   2.270   6.819  1.8487 -1.5590 -0.4253
 1537TIP3    H226247   5.954   2.127   6.831 -1.3245 -0.5691  0.1866
 1538TIP3   OH226248   0.962   0.606   8.758  0.2468  0.4206 -0.3307
 1538TIP3    H126249   0.988   0.582   8.847  0.5111  0.7735 -0.3150
 1538TIP3    H226250   0.915   0.529   8.726  0.5260  0.1275 -0.0413
 1539TIP3   OH226251   2.568   1.162   1.147  0.0214 -0.1129  0.1036
 1539TIP3    H126252   2.606   1.109   1.077 -0.3610 -0.4214  0.1282
 1539TIP3    H226253   2.474   1.150   1.138 -0.0014 -1.0721  1.3701
 1540TIP3   OH226254   5.038   6.215   7.634 -0.4813 -0.3225 -0.4018
 1540TIP3    H126255   5.067   6.201   7.544 -0.6911 -0.1385 -0.4994
 1540TIP3    H226256   4.997   6.302   7.632 -1.2372 -0.6680 -0.3129
 1541TIP3   OH226257   0.323   0.331   0.176  0.5387 -0.0957  0.2391
 1541TIP3    H126258   0.257   0.393   0.143 -0.2400 -1.4789 -0.9451
 1541TIP3    H226259   0.312   0.333   0.271  1.4110  2.4897  0.3577
 1542TIP3   OH226260   0.930   5.601   7.341  0.2589 -0.3808 -0.0689
 1542TIP3    H126261   0.846   5.634   7.310 -0.3704 -1.9563 -0.1229
 1542TIP3    H226262   0.907   5.533   7.405  1.4927  1.8233  2.9556
 1543TIP3   OH226263   0.147   6.498   2.345  0.4737  0.3151  0.1404
 1543TIP3    H126264   0.069   6.554   2.346 -0.1977 -0.6065  0.4942
 1543TIP3    H226265   0.211   6.546   2.397 -0.4620  0.2632  1.4014
 1544TIP3   OH226266   4.520   5.228   1.821 -0.4810 -0.0364 -0.3822
 1544TIP3    H126267   4.592   5.202   1.878 -2.7285 -1.7861  1.9092
 1544TIP3    H226268   4.540   5.188   1.736  1.5229  0.1403 -0.0336
 1545TIP3   OH226269   2.870   4.918   7.386 -0.2844  0.5049  0.2531
 1545TIP3    H126270   2.920   4.999   7.395  0.8856 -0.0313 -1.1215
 1545TIP3    H226271   2.875   4.877   7.472  2.0069  0.2900  0.0727
 1546TIP3   OH226272   2.374   1.119   8.182  0.0857  0.6286  0.2404
 1546TIP3    H126273   2.424   1.122   8.264  0.6630  1.1532 -0.1195
 1546TIP3    H226274   2.322   1.200   8.183  1.1552  1.3606 -0.5471
 1547TIP3   OH226275   4.340   3.468   0.579 -0.2501  0.5943  0.6407
 1547TIP3    H126276   4.362   3.541   0.636  1.9380  0.5543 -0.0530
 1547TIP3    H226277   4.410   3.467   0.514 -2.0399 -0.0520 -1.3868
 1548TIP3   OH226278   4.214   3.571   0.989 -0.0873 -0.0717 -0.8378
 1548TIP3    H126279   4.281   3.563   1.056 -1.5127  0.9886  0.7813
 1548TIP3    H226280   4.260   3.608   0.914  0.9889  1.4919  0.5215
 1549TIP3   OH226281   1.858   4.895   1.451  0.1182  0.0950 -0.0392
 1549TIP3    H126282   1.826   4.811   1.483 -1.2977  0.8491  0.6021
 1549TIP3    H226283   1.793   4.922   1.386  0.8007  0.4925 -0.5652
 1550TIP3   OH226284   5.232   5.834   8.382  0.6059  0.3730  0.5919
 1550TIP3    H126285   5.207   5.837   8.290 -0.3745  1.4133  0.8704
 1550TIP3    H226286   5.179   5.764   8.420  1.3547 -0.3773  0.2877
 1551TIP3   OH226287   6.505   6.750   7.943  0.1246 -0.3825 -0.2906
 1551TIP3    H126288   6.455   6.680   7.900 -0.0676 -0.1899 -0.3833
 1551TIP3    H226289   6.586   6.756   7.893  0.5900 -1.2391  0.3459
 1552TIP3   OH226290   2.491   5.675   8.031  0.2757  0.1630 -0.4347
 1552TIP3    H126291   2.468   5.589   8.065  0.2341  0.3416 -0.0055
 1552TIP3    H226292   2.587   5.677   8.034  0.2401  1.0972  2.0339
 1553TIP3   OH226293   6.008   3.090   0.088  0.5282  0.0775  0.0404
 1553TIP3    H126294   5.946   3.068   0.157 -0.5543 -1.1280 -1.2632
 1553TIP3    H226295   6.090   3.109   0.134 -0.7015  1.4799  1.7774
 1554TIP3   OH226296   0.917   2.442   0.717 -0.6930  0.3663 -0.0878
 1554TIP3    H126297   0.843   2.463   0.774  0.0170 -0.4961  1.2301
 1554TIP3    H226298   0.890   2.364   0.669 -1.1511  0.8711 -0.6595
 1555TIP3   OH226299   0.333   6.278   1.810  0.3663 -0.0151 -0.1096
 1555TIP3    H126300   0.317   6.235   1.726  0.9892 -0.6033  0.0641
 1555TIP3    H226301   0.270   6.238   1.870 -0.2563  0.5913 -0.3456
 1556TIP3   OH226302   1.908   2.566   1.349 -0.2325 -0.2726  0.1258
 1556TIP3    H126303   1.887   2.632   1.416  0.3299  0.9959 -0.8988
 1556TIP3    H226304   1.850   2.492   1.369  1.2004 -0.7242  3.1384
 1557TIP3   OH226305   3.769   5.518   8.052 -0.3322  0.3408  0.2432
 1557TIP3    H126306   3.728   5.600   8.079 -0.4985  1.3325 -2.6142
 1557TIP3    H226307   3.859   5.542   8.031 -0.3392 -0.2118 -0.4767
 1558TIP3   OH226308   4.411   4.163   1.260 -0.3729 -0.1706 -0.3613
 1558TIP3    H126309   4.336   4.214   1.229  0.6336  1.4755 -0.2193
 1558TIP3    H226310   4.417   4.089   1.199 -2.0966 -0.3633 -0.3557
 1559TIP3   OH226311   2.351   0.283   0.530  0.0095 -0.4353 -0.0722
 1559TIP3    H126312   2.296   0.206   0.519 -0.2572 -0.3527  0.6404
 1559TIP3    H226313   2.425   0.268   0.472  0.7445 -1.9769  1.1724
 1560TIP3   OH226314   3.896   2.525   0.821  0.0636  0.1831 -0.1031
 1560TIP3    H126315   3.803   2.528   0.795  0.0332 -0.4078 -0.0688
 1560TIP3    H226316   3.916   2.432   0.829  1.2298  0.1933 -2.1615
 1561TIP3   OH226317   6.599   3.278   2.707 -0.5563  0.5548  0.2241
 1561TIP3    H126318   6.632   3.215   2.643 -0.8525 -0.8321  1.3929
 1561TIP3    H226319   6.673   3.338   2.721  0.8559 -1.3108  1.2969
 1562TIP3   OH226320   1.536   3.300   0.007 -0.1401  0.5218  0.7195
 1562TIP3    H126321   1.505   3.237  -0.058 -1.9702 -1.6290  3.4605
 1562TIP3    H226322   1.458   3.349   0.033  0.7248  1.9522  0.7912
 1563TIP3   OH226323   0.801   4.120   8.048  0.1227 -0.1602  0.2471
 1563TIP3    H126324   0.875   4.179   8.044 -0.2642  0.6452  2.7837
 1563TIP3    H226325   0.743   4.158   8.115 -1.9691 -1.4192 -0.7264
 1564TIP3   OH226326   5.675   3.761   0.991 -0.1703  0.0878  0.4397
 1564TIP3    H126327   5.651   3.672   1.017  0.2568  0.2393  1.3842
 1564TIP3    H226328   5.765   3.754   0.960 -0.8243 -0.1834 -1.5788
 1565TIP3   OH226329   2.332   1.931   0.364  0.3667 -0.1212 -0.4738
 1565TIP3    H126330   2.359   1.932   0.456 -1.0041  0.8572 -0.0572
 1565TIP3    H226331   2.394   1.991   0.321 -1.5660  2.9463  0.6581
 1566TIP3   OH226332   5.483   6.758   0.558 -0.1646 -0.6627  0.2210
 1566TIP3    H126333   5.400   6.710   0.558  0.0676 -1.0757  0.3074
 1566TIP3    H226334   5.489   6.798   0.645 -1.1796  0.9960 -0.4301
 1567TIP3   OH226335   4.042   3.854   0.811  0.3656  0.0443 -0.3507
 1567TIP3    H126336   4.001   3.925   0.861 -0.7207 -1.2351  0.6581
 1567TIP3    H226337   4.052   3.889   0.723 -0.4034  1.3471  0.0582
 1568TIP3   OH226338   6.718   5.509   2.231  0.1307  0.0866 -0.3162
 1568TIP3    H126339   6.728   5.476   2.320 -0.1764 -2.4848 -1.1254
 1568TIP3    H226340   6.806   5.504   2.194  0.1746  0.7181 -0.3105
 1569TIP3   OH226341   5.217   5.955   1.587  0.0374 -0.0092  0.5142
 1569TIP3    H126342   5.153   5.983   1.652 -1.3748 -1.3953 -0.2071
 1569TIP3    H226343   5.177   5.976   1.503  1.9072  1.8917  0.0397
 1570TIP3   OH226344   6.083   5.618   1.860 -0.5471  0.1912 -0.5623
 1570TIP3    H126345   6.019   5.569   1.912  0.8383  0.5952  1.6513
 1570TIP3    H226346   6.167   5.600   1.902  1.3944 -2.4501 -4.8619
 1571TIP3   OH226347   3.857   3.053   2.572 -0.1414  0.1316 -0.3511
 1571TIP3    H126348   3.849   2.990   2.501 -1.7623  0.7545 -0.7725
 1571TIP3    H226349   3.780   3.038   2.627  0.0162  1.0032  0.1347
 1572TIP3   OH226350   4.299   4.089   0.928  0.7596  0.0863 -0.4418
 1572TIP3    H126351   4.307   4.058   0.838 -0.7372 -1.3161 -0.1386
 1572TIP3    H226352   4.359   4.034   0.978 -0.4651 -1.0599 -0.1934
 1573TIP3   OH226353   5.493   3.077   7.572  0.2177  0.2057 -0.8359
 1573TIP3    H126354   5.417   3.119   7.612  1.2011  3.6189 -2.2075
 1573TIP3    H226355   5.471   3.070   7.480  1.0524 -0.0263 -1.0255
 1574TIP3   OH226356   3.103   6.247   1.587 -0.6758 -0.3106 -0.0324
 1574TIP3    H126357   3.077   6.174   1.643  0.1923 -0.0319  0.7649
 1574TIP3    H226358   3.161   6.207   1.521  0.5177 -0.2446  0.9272
 1575TIP3   OH226359   5.386   3.535   2.319  0.1315  0.1157 -0.6356
 1575TIP3    H126360   5.447   3.563   2.386 -0.5130 -1.0212  0.4656
 1575TIP3    H226361   5.315   3.599   2.322 -0.6946 -0.8130  0.9546
 1576TIP3   OH226362   1.653   5.905   7.084 -0.1778  0.3914  0.2775
 1576TIP3    H126363   1.575   5.865   7.044 -0.3641  1.1694 -0.1467
 1576TIP3    H226364   1.726   5.852   7.052 -0.2305  1.4940 -1.7968
 1577TIP3   OH226365   1.208   6.626   7.640  0.2582  0.3948  0.1674
 1577TIP3    H126366   1.212   6.658   7.731 -0.9887 -4.2391  2.1291
 1577TIP3    H226367   1.115   6.619   7.621  0.5095  0.3615 -1.1304
 1578TIP3   OH226368   0.633   5.152   1.845 -0.5355 -0.4128  0.1886
 1578TIP3    H126369   0.615   5.211   1.772  1.4122  0.9556  0.7313
 1578TIP3    H226370   0.579   5.185   1.916  0.4878  0.7290  0.4674
 1579TIP3   OH226371   0.195   5.655   2.229 -0.2851 -0.3645 -0.7231
 1579TIP3    H126372   0.167   5.568   2.257 -0.7368  0.0955  0.3151
 1579TIP3    H226373   0.276   5.640   2.181 -1.1138 -1.4976 -1.8262
 1580TIP3   OH226374   0.091   5.429   2.091 -0.3941 -0.1111  0.0306
 1580TIP3    H126375   0.080   5.348   2.041  1.7339 -0.5557  0.1942
 1580TIP3    H226376   0.148   5.483   2.036 -0.0825  0.4115  0.8439
 1581TIP3   OH226377   3.453   6.665   0.776 -0.2219 -0.0181  0.0254
 1581TIP3    H126378   3.539   6.645   0.815  0.0394 -0.1642 -0.6173
 1581TIP3    H226379   3.440   6.758   0.792 -1.0844 -0.4621  2.3475
 1582TIP3   OH226380   6.042   2.178   8.088 -0.2875 -1.0067  0.0039
 1582TIP3    H126381   6.028   2.110   8.022 -2.0725  0.3519 -1.0965
 1582TIP3    H226382   5.966   2.235   8.081  0.4996  0.3806  1.8241
 1583TIP3   OH226383   2.526   2.219   7.253  0.0724 -0.3361  0.2087
 1583TIP3    H126384   2.440   2.181   7.235  0.0560 -0.3991  0.4253
 1583TIP3    H226385   2.510   2.313   7.263  0.3877  0.0634 -2.3670
 1584TIP3   OH226386   5.690   6.695   0.272  0.2923 -0.6615  0.1105
 1584TIP3    H126387   5.663   6.768   0.328  2.9906  0.4502  0.1256
 1584TIP3    H226388   5.723   6.629   0.333  0.6731 -0.6041 -0.0300
 1585TIP3   OH226389   4.464   2.387   7.038  0.4078  0.0998  0.3457
 1585TIP3    H126390   4.381   2.413   7.079  1.6759  2.7196  1.4699
 1585TIP3    H226391   4.438   2.352   6.953 -1.7668  3.0626 -0.3722
 1586TIP3   OH226392   3.473   4.878   8.457 -0.5267  0.6936 -0.1695
 1586TIP3    H126393   3.386   4.914   8.437 -0.3996  0.9470 -0.2748
 1586TIP3    H226394   3.498   4.831   8.378 -0.6544  0.4483 -0.0637
 1587TIP3   OH226395   0.608   5.324   8.390  0.3221 -0.3481 -0.2089
 1587TIP3    H126396   0.609   5.410   8.347  3.5568 -0.6405 -0.9163
 1587TIP3    H226397   0.515   5.299   8.389 -0.4278  2.0680 -2.1227
 1588TIP3   OH226398   6.708   5.532   0.731  0.1917  0.1771 -0.2201
 1588TIP3    H126399   6.752   5.514   0.648 -0.9368 -0.0037 -0.8048
 1588TIP3    H226400   6.771   5.582   0.782  1.4339 -0.9433 -0.6209
 1589TIP3   OH226401   4.621   4.154   8.282 -0.1472 -0.2091 -0.7046
 1589TIP3    H126402   4.613   4.074   8.230 -0.4121 -1.0826  0.6542
 1589TIP3    H226403   4.618   4.224   8.217  2.7078 -1.3190 -2.2683
 1590TIP3   OH226404   3.630   0.260   7.288 -0.0328  0.4343 -0.2521
 1590TIP3    H126405   3.601   0.312   7.364  1.4510  2.3074 -0.9060
 1590TIP3    H226406   3.567   0.188   7.284  0.5541 -0.5462  3.5466
 1591TIP3   OH226407   0.787   3.251   7.664 -0.2820  0.0927 -1.0100
 1591TIP3    H126408   0.814   3.180   7.606 -2.7366  1.1844 -3.7603
 1591TIP3    H226409   0.868   3.300   7.682  0.8749 -1.4319 -1.8745
 1592TIP3   OH226410   3.880   5.169   8.552  0.2974 -0.6003  0.2475
 1592TIP3    H126411   3.788   5.145   8.568 -0.1652  0.1794 -1.0680
 1592TIP3    H226412   3.898   5.137   8.464  0.7739  0.7152 -0.1428
 1593TIP3   OH226413   6.208   2.184   7.842  0.4003  0.0934  0.6590
 1593TIP3    H126414   6.156   2.104   7.851  0.0807  0.2811  0.5141
 1593TIP3    H226415   6.287   2.168   7.893  0.7090 -0.6310 -0.0394
 1594TIP3   OH226416   3.771   2.695   1.762 -0.1884 -0.0507  0.3990
 1594TIP3    H126417   3.774   2.732   1.850 -0.9680  0.8193  0.0842
 1594TIP3    H226418   3.793   2.769   1.705  0.4967 -0.6552 -0.1275
 1595TIP3   OH226419   1.189   5.293   7.143  0.3527  0.3918 -0.3199
 1595TIP3    H126420   1.235   5.363   7.097  1.5396  0.6702  1.2215
 1595TIP3    H226421   1.194   5.218   7.083  3.1146  0.3106 -0.1129
 1596TIP3   OH226422   5.756   3.534   0.406 -0.6924 -0.0328  0.5296
 1596TIP3    H126423   5.721   3.622   0.421 -2.1995 -0.5992  0.4087
 1596TIP3    H226424   5.766   3.497   0.493 -0.5836  0.0434  0.5506
 1597TIP3   OH226425   1.299   4.438   6.761 -0.5072 -0.3996 -0.9696
 1597TIP3    H126426   1.222   4.387   6.736 -0.0020 -0.6263 -2.1258
 1597TIP3    H226427   1.266   4.527   6.775 -1.0597 -0.6062 -0.9317
 1598TIP3   OH226428   3.604   1.115   7.178 -0.2532  0.6119 -0.3591
 1598TIP3    H126429   3.522   1.094   7.134 -1.2544  0.3826  1.4952
 1598TIP3    H226430   3.671   1.104   7.111 -1.6078 -0.3928 -1.6201
 1599TIP3   OH226431   3.858   0.994   0.099 -0.4596 -0.2420  0.5497
 1599TIP3    H126432   3.942   0.966   0.063 -1.0902  0.0659 -1.2474
 1599TIP3    H226433   3.858   0.961   0.189  0.2846 -3.0259 -0.3736
 1600TIP3   OH226434   5.594   6.200   8.190  0.4247 -0.3600  0.4364
 1600TIP3    H126435   5.666   6.144   8.161  1.9671  1.3053  0.8632
 1600TIP3    H226436   5.619   6.227   8.279  0.2698  1.7679 -0.1065
 1601TIP3   OH226437   4.003   0.720   7.774 -0.2374 -0.6000  0.1728
 1601TIP3    H126438   3.907   0.712   7.775 -0.3051 -0.2880 -1.2434
 1601TIP3    H226439   4.022   0.763   7.691  0.9636  1.7738  1.5865
 1602TIP3   OH226440   2.385   0.885   1.154  0.1816 -0.4079  0.5452
 1602TIP3    H126441   2.377   0.871   1.059 -0.2813  0.4238  0.4484
 1602TIP3    H226442   2.465   0.840   1.179 -0.4197 -1.8102 -0.0026
 1603TIP3   OH226443   1.853   1.477   7.457  0.1733  0.3984 -0.0728
 1603TIP3    H126444   1.935   1.432   7.475  0.0728  0.0907 -0.3622
 1603TIP3    H226445   1.826   1.514   7.541  1.2191  1.5435 -0.2084
 1604TIP3   OH226446   3.727   1.373   0.323  0.2987  0.2555 -0.3088
 1604TIP3    H126447   3.677   1.320   0.262 -1.4219  0.0251  1.1997
 1604TIP3    H226448   3.769   1.309   0.381 -0.8927  0.4461  0.8323
 1605TIP3   OH226449   4.738   2.273   7.752  0.3934 -0.2394 -0.2921
 1605TIP3    H126450   4.829   2.268   7.723 -0.1388 -1.5302 -1.8632
 1605TIP3    H226451   4.713   2.183   7.768 -0.8568  0.0176 -0.6895
 1606TIP3   OH226452   4.458   6.125   1.553 -0.6851  0.3425  0.4212
 1606TIP3    H126453   4.451   6.030   1.538 -0.3880  0.5412 -1.0882
 1606TIP3    H226454   4.371   6.159   1.533 -0.7810  0.4087  0.9289
 1607TIP3   OH226455   2.877   4.271   0.455 -0.3164 -0.0668 -0.3998
 1607TIP3    H126456   2.961   4.226   0.460  0.6554  1.7511  1.3758
 1607TIP3    H226457   2.829   4.227   0.384  1.4018 -2.3030 -0.2651
 1608TIP3   OH226458   3.400   0.929   1.252  0.3358  0.1979 -0.0384
 1608TIP3    H126459   3.396   0.883   1.336  1.6388 -1.0052 -0.5906
 1608TIP3    H226460   3.389   0.860   1.187 -1.2388  1.1904 -0.8864
 1609TIP3   OH226461   6.441   1.738   2.342  0.1229 -0.0604 -0.0733
 1609TIP3    H126462   6.437   1.643   2.340 -0.9533 -0.0664  1.4194
 1609TIP3    H226463   6.369   1.767   2.286  0.9527 -0.0932 -1.1947
 1610TIP3   OH226464   5.467   3.737   7.195  0.2898 -0.3508 -0.2183
 1610TIP3    H126465   5.428   3.657   7.160 -0.4422  0.4235 -1.2003
 1610TIP3    H226466   5.405   3.767   7.262 -1.6169  1.5878 -2.6595
 1611TIP3   OH226467   4.110   0.361   7.943  0.3276 -0.1982  0.4452
 1611TIP3    H126468   4.191   0.310   7.946  1.1652  0.8916 -1.6642
 1611TIP3    H226469   4.041   0.297   7.930  1.1702 -0.9349 -0.5142
 1612TIP3   OH226470   2.055   5.716   8.424 -0.0069 -0.3385  0.1625
 1612TIP3    H126471   2.121   5.785   8.416 -0.2297  0.5125  3.9999
 1612TIP3    H226472   2.106   5.636   8.433  0.4437  0.0056  0.7757
 1613TIP3   OH226473   5.448   5.257   6.350 -0.0766 -0.2517 -0.6069
 1613TIP3    H126474   5.393   5.195   6.398 -0.7789  1.4180  0.8510
 1613TIP3    H226475   5.398   5.339   6.351  0.9444  0.4539 -2.2326
 1614TIP3   OH226476   1.591   0.320   2.060 -0.0669 -0.0576  0.0842
 1614TIP3    H126477   1.512   0.284   2.100 -2.4826 -0.5295 -4.5283
 1614TIP3    H226478   1.579   0.415   2.067  0.4170 -0.0722  1.7284
 1615TIP3   OH226479   4.322   2.943   7.735 -1.1570  0.2112  0.4973
 1615TIP3    H126480   4.290   3.017   7.685 -3.6175 -0.9650  0.1818
 1615TIP3    H226481   4.254   2.927   7.800 -1.1971 -2.3411 -0.0795
 1616TIP3   OH226482   2.854   5.205   1.349  0.0542  0.2130  0.1197
 1616TIP3    H126483   2.877   5.131   1.292 -1.5528  0.7582 -1.3163
 1616TIP3    H226484   2.871   5.283   1.295 -0.9557  0.7701  0.5781
 1617TIP3   OH226485   4.074   1.354   8.382  0.2616  0.0045  0.2246
 1617TIP3    H126486   4.064   1.262   8.355  2.2489  0.2174 -1.5836
 1617TIP3    H226487   4.001   1.400   8.341  0.1918 -0.5280 -0.2569
 1618TIP3   OH226488   2.968   0.285   1.735  0.6093 -0.2558  0.2001
 1618TIP3    H126489   2.931   0.369   1.762 -1.6067 -1.4295  1.0365
 1618TIP3    H226490   2.937   0.223   1.800  1.7619 -1.8484 -0.6960
 1619TIP3   OH226491   3.810   4.612   7.772  0.1358  0.0851 -0.5205
 1619TIP3    H126492   3.786   4.679   7.836 -2.3865 -2.0981  1.0172
 1619TIP3    H226493   3.746   4.621   7.703 -0.5728 -1.0457 -0.0312
 1620TIP3   OH226494   4.676   3.288   7.989 -0.5748  0.0930 -0.0519
 1620TIP3    H126495   4.607   3.243   8.038  0.3203  0.0481  1.1950
 1620TIP3    H226496   4.753   3.233   7.999 -0.1019  0.6201 -0.6539
 1621TIP3   OH226497   4.687   0.654   1.269  0.7001  1.0077  0.4916
 1621TIP3    H126498   4.627   0.626   1.337  1.8580 -2.2825  0.3465
 1621TIP3    H226499   4.771   0.666   1.314  0.8144  1.7175  0.0982
 1622TIP3   OH226500   5.205   2.874   7.503 -0.3547 -0.1977  0.7130
 1622TIP3    H126501   5.255   2.940   7.454 -0.5769 -0.4608  0.1226
 1622TIP3    H226502   5.220   2.896   7.595  1.6374 -0.8555  0.5917
 1623TIP3   OH226503   6.545   1.287   0.041  0.1472  0.4435 -0.1106
 1623TIP3    H126504   6.513   1.369   0.003 -0.3898 -0.4505 -1.6785
 1623TIP3    H226505   6.477   1.223   0.020  0.1453 -0.2562  1.8324
 1624TIP3   OH226506   0.982   6.315   1.380 -0.0500  0.0791  0.5048
 1624TIP3    H126507   0.936   6.298   1.298  0.2491  0.3328  0.2841
 1624TIP3    H226508   1.020   6.231   1.405  0.2185  0.0957  0.1590
 1625TIP3   OH226509   1.858   1.516   0.045 -0.4913 -0.4001 -0.0734
 1625TIP3    H126510   1.881   1.592  -0.009 -0.7121 -0.1744  0.1493
 1625TIP3    H226511   1.764   1.525   0.061 -0.8019 -1.4097 -1.1213
 1626TIP3   OH226512   3.070   6.289   6.646 -0.1110 -0.4557 -0.0175
 1626TIP3    H126513   3.007   6.353   6.614  0.9383  1.3780  1.3870
 1626TIP3    H226514   3.149   6.304   6.593  0.4254  0.0434  0.8986
 1627TIP3   OH226515   2.987   4.872   7.645 -0.5870 -0.1244 -0.2984
 1627TIP3    H126516   3.051   4.806   7.619 -0.8028 -0.7077  0.6082
 1627TIP3    H226517   3.038   4.935   7.698 -0.7750 -0.6693  0.5498
 1628TIP3   OH226518   6.444   4.123   8.458 -0.2723 -1.1110  0.0132
 1628TIP3    H126519   6.490   4.127   8.542  0.2478  0.1677 -0.3089
 1628TIP3    H226520   6.441   4.030   8.437  4.1600 -1.2093 -1.0297
 1629TIP3   OH226521   2.609   3.597   0.992  0.1486  0.1520 -0.7642
 1629TIP3    H126522   2.622   3.670   0.932 -1.4334  2.3232  1.3420
 1629TIP3    H226523   2.669   3.615   1.065 -2.7317  1.4982  1.4775
 1630TIP3   OH226524   4.824   2.301   1.122 -0.1357 -0.3405  0.3690
 1630TIP3    H126525   4.771   2.318   1.044 -0.4098 -1.7169  0.2189
 1630TIP3    H226526   4.914   2.299   1.091 -0.1683  0.0168  0.2530
 1631TIP3   OH226527   6.235   4.298   1.643 -0.4108  0.3223  0.2147
 1631TIP3    H126528   6.295   4.239   1.688 -1.1827 -0.5582  0.1166
 1631TIP3    H226529   6.288   4.338   1.573 -0.3825 -1.8838 -1.1086
 1632TIP3   OH226530   4.235   6.696   7.764 -0.5276 -0.2345 -0.1767
 1632TIP3    H126531   4.298   6.666   7.699 -1.4546  0.6114 -1.5237
 1632TIP3    H226532   4.261   6.787   7.782 -2.0396  0.5640 -1.7102
 1633TIP3   OH226533   0.914   4.556   7.184  0.0131  0.0035 -0.2550
 1633TIP3    H126534   0.824   4.586   7.172 -0.2715 -1.0738 -0.9641
 1633TIP3    H226535   0.934   4.507   7.104  1.1104 -0.0758  0.0438
 1634TIP3   OH226536   1.355   5.117   1.008  0.4161 -0.0062 -0.3525
 1634TIP3    H126537   1.365   5.026   1.036 -0.2736 -0.7219 -2.2407
 1634TIP3    H226538   1.283   5.150   1.061  1.2160 -0.2769  0.9404
 1635TIP3   OH226539   2.181   5.184   2.032  0.0222  0.2360  0.2196
 1635TIP3    H126540   2.163   5.193   1.939  1.9968  0.7694 -0.1777
 1635TIP3    H226541   2.154   5.268   2.070  1.3527  0.9531 -0.3231
 1636TIP3   OH226542   3.252   4.629   1.341  0.2388 -0.0537  0.3215
 1636TIP3    H126543   3.347   4.618   1.341  0.0848 -1.6587  0.3220
 1636TIP3    H226544   3.220   4.556   1.289 -1.0549 -0.1714  1.2521
 1637TIP3   OH226545   5.276   0.462   8.008  1.1171  0.0186 -0.0663
 1637TIP3    H126546   5.187   0.463   8.043  0.3899 -0.5359 -1.8175
 1637TIP3    H226547   5.291   0.371   7.980  1.3469  0.5856 -1.9024
 1638TIP3   OH226548   3.191   3.851   1.851  0.0248  0.1338  0.1725
 1638TIP3    H126549   3.271   3.903   1.847  0.0554  0.0408 -1.1965
 1638TIP3    H226550   3.125   3.910   1.888  0.5290  0.4880  0.5075
 1639TIP3   OH226551   0.422   5.688   1.054 -0.7847 -0.2529  0.4617
 1639TIP3    H126552   0.330   5.707   1.071 -1.9570 -5.4792  1.6487
 1639TIP3    H226553   0.469   5.763   1.089 -4.4780  1.4555  2.2822
 1640TIP3   OH226554   3.526   5.421   0.873 -0.0363  0.5075  0.3953
 1640TIP3    H126555   3.552   5.512   0.882  1.0827  0.1392  1.0628
 1640TIP3    H226556   3.453   5.423   0.811 -1.1260  2.0267  1.6411
 1641TIP3   OH226557   2.411   1.360   1.667  0.3369  0.2664  0.0824
 1641TIP3    H126558   2.457   1.373   1.750  0.3053 -1.4980  0.4241
 1641TIP3    H226559   2.318   1.365   1.690  0.3223 -0.5910  0.2429
 1642TIP3   OH226560   3.555   3.763   0.269 -0.1992  0.1466  0.8756
 1642TIP3    H126561   3.621   3.815   0.223 -0.9724  1.5486  1.2790
 1642TIP3    H226562   3.605   3.710   0.331  0.6183  0.4873  0.5256
 1643TIP3   OH226563   2.051   4.014   0.511 -0.3465 -0.0788 -0.1922
 1643TIP3    H126564   2.021   3.985   0.597 -2.3096 -0.2798 -0.8941
 1643TIP3    H226565   2.040   3.938   0.454  0.2667  0.2612 -0.7827
 1644TIP3   OH226566   3.427   2.986   1.543  0.5259  0.2541 -0.2910
 1644TIP3    H126567   3.398   3.036   1.466 -1.1009 -2.2149 -1.4064
 1644TIP3    H226568   3.511   2.949   1.518 -0.4999 -1.4514 -1.4234
 1645TIP3   OH226569   4.543   5.195   8.015 -0.1765 -0.3959  0.6327
 1645TIP3    H126570   4.620   5.149   7.982 -0.9086 -1.0506 -0.2271
 1645TIP3    H226571   4.534   5.271   7.956 -0.6801 -0.8007  0.1764
 1646TIP3   OH226572   5.777   5.023   6.728  0.0766 -0.1572 -0.5079
 1646TIP3    H126573   5.747   4.957   6.791 -0.9039  1.1062  0.3819
 1646TIP3    H226574   5.705   5.030   6.665  0.7035 -0.8037 -1.3302
 1647TIP3   OH226575   0.933   0.275   1.053  0.8592 -0.0187  0.0620
 1647TIP3    H126576   0.884   0.240   0.980  0.0190  0.3662  0.4228
 1647TIP3    H226577   0.942   0.369   1.033 -0.4336  0.3337  0.9985
 1648TIP3   OH226578   1.296   3.024   0.892 -0.4726  0.2925  0.2025
 1648TIP3    H126579   1.258   2.990   0.811 -0.1156 -0.4156  0.3289
 1648TIP3    H226580   1.233   3.002   0.960 -1.4671  2.1332 -0.0496
 1649TIP3   OH226581   1.813   4.250   6.814  0.2698  0.4507  0.0431
 1649TIP3    H126582   1.779   4.333   6.781 -0.8277  0.1892  0.4738
 1649TIP3    H226583   1.836   4.201   6.734  0.1658  0.8531 -0.2376
 1650TIP3   OH226584   4.740   2.483   8.060  0.3624  0.3700 -0.2601
 1650TIP3    H126585   4.778   2.417   8.002 -0.1040 -0.2252  0.1087
 1650TIP3    H226586   4.734   2.440   8.145  0.2305  0.9554  0.0299
 1651TIP3   OH226587   4.983   2.938   8.331 -0.7162  0.0109  0.3172
 1651TIP3    H126588   4.981   2.871   8.263  0.8004 -0.4968  0.7408
 1651TIP3    H226589   4.891   2.954   8.352 -1.1804 -0.2860 -1.3896
 1652TIP3   OH226590   2.146   2.841   2.532 -0.3205 -0.4836  0.1595
 1652TIP3    H126591   2.074   2.901   2.514 -1.2345 -0.7968  2.4684
 1652TIP3    H226592   2.105   2.755   2.540  0.1370 -0.5562  2.2554
 1653TIP3   OH226593   6.448   4.568   6.577  0.1352  0.2050  0.4861
 1653TIP3    H126594   6.454   4.621   6.657  0.5042  0.0062  0.5897
 1653TIP3    H226595   6.511   4.608   6.517  2.6925 -1.8968  1.5848
 1654TIP3   OH226596   3.772   6.560   7.730  0.3865  0.0227 -0.5213
 1654TIP3    H126597   3.769   6.620   7.656  0.6549  1.4075  0.5477
 1654TIP3    H226598   3.847   6.590   7.782  0.1152 -0.8223  0.3810
 1655TIP3   OH226599   6.687   0.770   8.066 -0.3466 -0.1672  0.1916
 1655TIP3    H126600   6.666   0.835   7.998 -1.7129  0.9017  1.5520
 1655TIP3    H226601   6.779   0.749   8.051  0.8075  3.6250  0.8379
 1656TIP3   OH226602   3.467   2.738   0.886  0.7209  0.0248  0.5675
 1656TIP3    H126603   3.539   2.683   0.916  1.6063 -0.0662 -1.5581
 1656TIP3    H226604   3.470   2.732   0.790 -0.1519  2.4667  0.3048
 1657TIP3   OH226605   6.769   0.647   1.924 -0.0652 -0.0555  0.4739
 1657TIP3    H126606   6.832   0.613   1.861 -0.4865 -0.3438  0.1984
 1657TIP3    H226607   6.780   0.592   2.001 -0.2147 -0.3334  0.3003
 1658TIP3   OH226608   6.691   5.302   7.532  0.1219  0.2770  0.2525
 1658TIP3    H126609   6.725   5.221   7.494 -0.4041  0.7391 -1.2725
 1658TIP3    H226610   6.619   5.327   7.475 -0.0619  1.5527  1.0011
 1659TIP3   OH226611   3.524   2.428   1.441  0.1303  0.4770  0.2028
 1659TIP3    H126612   3.438   2.469   1.428 -0.1133  0.2933  1.2094
 1659TIP3    H226613   3.505   2.343   1.481  0.6281 -0.7525 -2.0237
 1660TIP3   OH226614   5.688   1.680   0.686 -0.0230  0.1496  0.7771
 1660TIP3    H126615   5.704   1.596   0.729  1.4990 -1.1593 -2.0762
 1660TIP3    H226616   5.768   1.730   0.701  0.0305  0.1531  0.4800
 1661TIP3   OH226617   4.340   3.647   2.743  0.3438  0.0211  0.8737
 1661TIP3    H126618   4.379   3.566   2.711  2.2607  1.0451  0.4354
 1661TIP3    H226619   4.278   3.672   2.675  0.5762 -0.4842  0.4706
 1662TIP3   OH226620   6.068   3.197   0.982 -0.0371  0.5251 -0.6090
 1662TIP3    H126621   6.052   3.178   0.890  0.8865  1.3331 -0.9596
 1662TIP3    H226622   6.020   3.279   0.998  0.5617  0.8857 -0.6320
 1663TIP3   OH226623   5.534   0.477   8.386 -0.2124 -0.2832 -0.6824
 1663TIP3    H126624   5.459   0.529   8.355 -0.2905 -0.6800 -1.1759
 1663TIP3    H226625   5.498   0.423   8.456  0.1736  1.2883  0.7777
 1664TIP3   OH226626   0.906   6.766   1.611  0.1841 -0.2459  0.0487
 1664TIP3    H126627   0.827   6.819   1.621 -1.0772 -1.8864 -0.6998
 1664TIP3    H226628   0.886   6.708   1.537  1.7212 -1.3501  0.4542
 1665TIP3   OH226629   3.436   5.895   8.425 -0.0099  0.0247  0.2307
 1665TIP3    H126630   3.450   5.956   8.352 -1.2115 -1.0206 -0.9398
 1665TIP3    H226631   3.524   5.867   8.450  0.4243  0.2874 -0.9300
 1666TIP3   OH226632   0.254   5.579   1.572 -0.6562 -0.2350 -0.3186
 1666TIP3    H126633   0.245   5.521   1.647  0.0429 -1.5385 -1.1892
 1666TIP3    H226634   0.332   5.547   1.526  0.5079  2.1970 -0.1858
 1667TIP3   OH226635   4.101   5.829   0.770 -0.0425 -0.7348 -0.1466
 1667TIP3    H126636   4.074   5.903   0.716 -0.8093 -0.7457  0.2007
 1667TIP3    H226637   4.125   5.869   0.854 -1.4628 -0.9487  0.3948
 1668TIP3   OH226638   5.165   2.190   0.106 -0.2650 -0.4024  0.3000
 1668TIP3    H126639   5.254   2.226   0.108 -0.3597 -0.1496  0.0502
 1668TIP3    H226640   5.175   2.104   0.065 -0.4130  0.4582 -1.6319
 1669TIP3   OH226641   3.708   0.866   8.443  0.4706  0.0809 -0.2679
 1669TIP3    H126642   3.699   0.957   8.414  0.5140  0.4375  0.8187
 1669TIP3    H226643   3.711   0.870   8.538  1.0792 -1.0121 -0.2158
 1670TIP3   OH226644   6.596   1.133   7.369 -0.0967  0.1644 -0.6180
 1670TIP3    H126645   6.526   1.189   7.334 -0.0438  1.0418  0.6287
 1670TIP3    H226646   6.670   1.148   7.309  0.5365  2.9473  0.6614
 1671TIP3   OH226647   2.446   0.421   7.641 -0.3177 -0.1838  0.6068
 1671TIP3    H126648   2.518   0.359   7.653 -0.5180 -0.1933  1.9174
 1671TIP3    H226649   2.487   0.498   7.601  0.3545 -0.3182  1.0215
 1672TIP3   OH226650   2.207   3.623   0.579 -0.0804  0.3720 -1.0464
 1672TIP3    H126651   2.280   3.685   0.588 -0.7381  1.1169 -0.7123
 1672TIP3    H226652   2.159   3.631   0.662  0.7953 -1.9003 -0.2291
 1673TIP3   OH226653   2.398   5.755   7.797  0.3862  0.1757  0.2441
 1673TIP3    H126654   2.377   5.848   7.788 -1.1048 -0.1768 -0.3160
 1673TIP3    H226655   2.440   5.747   7.882  2.0584  1.5939 -0.4000
 1674TIP3   OH226656   6.464   0.766   8.422 -0.2860 -0.0221 -0.1631
 1674TIP3    H126657   6.439   0.706   8.492  0.9135  0.3793  0.6316
 1674TIP3    H226658   6.497   0.844   8.467  3.4544 -0.9159 -1.0037
 1675TIP3   OH226659   4.527   2.503   0.693  0.6400 -0.0332  0.3914
 1675TIP3    H126660   4.505   2.469   0.780 -0.9449 -1.2584 -0.4299
 1675TIP3    H226661   4.442   2.517   0.651  1.3724  0.6622 -0.9318
 1676TIP3   OH226662   3.755   5.133   7.770 -0.2615 -0.0494  0.5074
 1676TIP3    H126663   3.713   5.120   7.685  1.8539  1.2157 -0.8230
 1676TIP3    H226664   3.717   5.214   7.804 -1.6437 -0.9426  1.1555
 1677TIP3   OH226665   4.761   2.049   1.548  0.4349  0.4202 -0.4802
 1677TIP3    H126666   4.755   2.045   1.453  4.8312  0.5940 -1.0073
 1677TIP3    H226667   4.698   2.116   1.574 -1.5551 -0.2793 -3.0926
 1678TIP3   OH226668   2.818   3.673   7.898  0.0382  0.1772 -0.1728
 1678TIP3    H126669   2.816   3.656   7.803 -1.7879 -1.1483  0.0714
 1678TIP3    H226670   2.841   3.766   7.904  0.3185  0.2638 -1.8980
 1679TIP3   OH226671   4.616   6.212   6.923  0.0340  0.2185  0.6367
 1679TIP3    H126672   4.641   6.157   6.849 -1.2331 -0.1577  0.4784
 1679TIP3    H226673   4.695   6.265   6.940  1.3029 -1.6347  0.8202
 1680TIP3   OH226674   4.358   4.470   2.364 -0.1575  0.2497 -0.4525
 1680TIP3    H126675   4.453   4.468   2.375 -0.2032 -0.3338 -0.1489
 1680TIP3    H226676   4.335   4.562   2.373  0.0898  0.1280  2.0816
 1681TIP3   OH226677   1.483   2.129   1.199 -0.3896  0.3813  0.6028
 1681TIP3    H126678   1.404   2.124   1.253 -0.8773 -0.6442 -0.1652
 1681TIP3    H226679   1.479   2.216   1.160 -0.1307  1.0600  2.0391
 1682TIP3   OH226680   4.679   5.781   8.059 -0.1775  0.2400 -0.4108
 1682TIP3    H126681   4.744   5.736   8.007  1.3885  2.4589 -0.5269
 1682TIP3    H226682   4.613   5.809   7.996 -0.2333 -0.3079 -0.6003
 1683TIP3   OH226683   0.788   0.976   1.268 -0.4196 -0.0322 -0.1208
 1683TIP3    H126684   0.774   0.928   1.186  1.9178  1.4372 -1.4998
 1683TIP3    H226685   0.843   1.050   1.243 -0.3079  0.9415  2.6737
 1684TIP3   OH226686   6.694   5.230   6.893 -0.0583  0.3449 -0.2490
 1684TIP3    H126687   6.678   5.320   6.922  0.0187  0.4041 -0.3932
 1684TIP3    H226688   6.611   5.186   6.908 -0.3426  0.6375 -0.9323
 1685TIP3   OH226689   3.010   3.149   0.237 -0.0361  0.1191 -0.4014
 1685TIP3    H126690   3.039   3.070   0.282  0.1579  1.1747  1.4140
 1685TIP3    H226691   3.056   3.220   0.281 -0.6759  1.3118 -1.5836
 1686TIP3   OH226692   5.409   1.557   8.340  0.1815  0.5626  0.1589
 1686TIP3    H126693   5.433   1.643   8.375 -3.1420  1.4744  0.6073
 1686TIP3    H226694   5.315   1.551   8.356  0.1135 -2.7876 -0.7646
 1687TIP3   OH226695   1.311   1.773   8.212  0.3107 -0.5924  0.1994
 1687TIP3    H126696   1.297   1.730   8.297 -0.6248 -0.9046 -0.1058
 1687TIP3    H226697   1.323   1.866   8.234 -0.3174 -0.6101  0.6468
 1688TIP3   OH226698   6.360   5.443   2.463  0.0183 -0.3224 -0.2783
 1688TIP3    H126699   6.266   5.443   2.482 -0.0304 -0.4080 -0.5075
 1688TIP3    H226700   6.386   5.351   2.471  0.0674 -0.3091 -0.2847
 1689TIP3   OH226701   6.635   0.383   0.670 -0.0757  0.6160 -0.3483
 1689TIP3    H126702   6.684   0.390   0.589 -0.1809 -2.3833 -0.8141
 1689TIP3    H226703   6.552   0.341   0.645 -1.0417  1.6262  1.0122
 1690TIP3   OH226704   0.236   3.298   7.017  0.3587 -0.0081  0.4140
 1690TIP3    H126705   0.293   3.320   6.943 -0.4002 -0.6442 -0.3661
 1690TIP3    H226706   0.151   3.335   6.994  0.0107 -0.5763  0.7791
 1691TIP3   OH226707   2.897   4.958   1.242 -0.3161  0.1173  0.5557
 1691TIP3    H126708   2.930   4.872   1.269  0.7071  0.7699  1.4363
 1691TIP3    H226709   2.839   4.939   1.168  1.4391 -1.1606 -0.5537
 1692TIP3   OH226710   2.347   2.832   7.938  0.2329 -0.2431 -0.6559
 1692TIP3    H126711   2.436   2.799   7.947  0.0830 -0.6044 -0.4565
 1692TIP3    H226712   2.320   2.850   8.028 -0.1116 -0.7230 -0.6582
 1693TIP3   OH226713   1.158   2.726   7.450 -0.0071  0.1101  0.4118
 1693TIP3    H126714   1.145   2.813   7.488 -1.0926  1.1755 -2.1455
 1693TIP3    H226715   1.082   2.675   7.480  0.7719 -0.1156  2.1393
 1694TIP3   OH226716   6.604   2.629   7.791  0.2176  0.5595 -0.5791
 1694TIP3    H126717   6.514   2.610   7.766  0.8885 -1.4833 -1.6992
 1694TIP3    H226718   6.655   2.609   7.712  1.9093 -1.1205  0.8478
 1695TIP3   OH226719   5.912   1.827   0.637 -0.1626 -0.6356 -0.0885
 1695TIP3    H126720   6.007   1.832   0.638 -0.1415 -0.9952 -0.0010
 1695TIP3    H226721   5.893   1.748   0.586 -0.4412  0.0436 -1.0600
 1696TIP3   OH226722   4.086   4.380   8.410 -0.0350  0.4726  0.3950
 1696TIP3    H126723   4.027   4.439   8.364  0.0994 -0.3288 -0.8547
 1696TIP3    H226724   4.124   4.433   8.480 -0.1057  1.7946 -0.5346
 1697TIP3   OH226725   3.424   3.004   1.270  0.4239 -0.4973  0.0124
 1697TIP3    H126726   3.420   3.040   1.181 -0.1215 -2.8191 -1.0037
 1697TIP3    H226727   3.353   2.939   1.272  0.6675 -0.7564  2.0409
 1698TIP3   OH226728   0.787   1.221   0.128  0.0653 -0.1889 -0.0570
 1698TIP3    H126729   0.752   1.307   0.154 -1.1172 -0.7362  0.2496
 1698TIP3    H226730   0.760   1.211   0.037 -0.3238 -0.4817  0.0875
 1699TIP3   OH226731   5.124   1.493   2.509  0.8211 -0.2913  0.2879
 1699TIP3    H126732   5.049   1.539   2.472  1.7031  0.8429 -0.1501
 1699TIP3    H226733   5.189   1.494   2.439  1.8815  0.2966  1.2618
 1700TIP3   OH226734   2.379   3.084   8.225  0.0454  0.3870 -0.2455
 1700TIP3    H126735   2.363   2.997   8.189 -0.7099  0.6874 -0.6606
 1700TIP3    H226736   2.293   3.112   8.257  0.2393  1.0665 -0.3157
 1701TIP3   OH226737   4.977   1.339   8.427 -0.0300  0.1619  0.0501
 1701TIP3    H126738   4.946   1.426   8.399  0.5981  0.8666  1.4767
 1701TIP3    H226739   4.900   1.299   8.468  0.0191  0.5659  0.5505
 1702TIP3   OH226740   1.755   1.403   6.960  0.1383  0.2525  0.0536
 1702TIP3    H126741   1.766   1.420   7.053  0.9257 -0.1141  0.0398
 1702TIP3    H226742   1.681   1.457   6.934  0.7581  1.4080  0.6087
 1703TIP3   OH226743   5.570   4.085   8.466  0.4954  0.2788 -0.0523
 1703TIP3    H126744   5.517   4.110   8.541 -0.8842  0.8487 -1.1752
 1703TIP3    H226745   5.657   4.069   8.503 -0.2001  0.2901  1.6870
 1704TIP3   OH226746   4.040   6.395   6.819  0.6720  0.1667  0.1616
 1704TIP3    H126747   4.112   6.455   6.800  1.0118 -0.4609 -0.6122
 1704TIP3    H226748   3.988   6.394   6.738  0.9817 -0.9871 -0.0472
 1705TIP3   OH226749   4.091   1.413   7.083 -0.2001 -0.0360  0.0237
 1705TIP3    H126750   4.052   1.497   7.059 -0.2703 -0.3913 -1.1509
 1705TIP3    H226751   4.089   1.412   7.179 -1.9780  0.4748  0.0209
 1706TIP3   OH226752   2.943   2.885   7.977 -0.1950 -0.4870 -0.2448
 1706TIP3    H126753   3.022   2.921   8.017 -1.9469  2.1397  1.1260
 1706TIP3    H226754   2.875   2.897   8.043 -1.8427 -2.3646 -1.4985
 1707TIP3   OH226755   1.395   2.830   6.610 -0.1390 -0.1970  0.2127
 1707TIP3    H126756   1.345   2.803   6.532  0.2675 -1.4517  0.3615
 1707TIP3    H226757   1.349   2.787   6.683 -0.9698  1.5692  0.7906
 1708TIP3   OH226758   2.033   5.220   7.321  0.1496 -0.5810 -0.2575
 1708TIP3    H126759   2.091   5.174   7.261 -1.0375 -1.0725 -1.0765
 1708TIP3    H226760   2.026   5.309   7.286 -0.8623 -0.9758 -1.1381
 1709TIP3   OH226761   4.967   2.886   2.241 -0.2588 -0.1563 -0.0089
 1709TIP3    H126762   4.953   2.980   2.252 -2.7450 -0.4423 -0.1310
 1709TIP3    H226763   4.984   2.854   2.329 -3.4300 -0.0757  0.7543
 1710TIP3   OH226764   1.024   2.990   8.479  0.6107  0.1580 -0.0698
 1710TIP3    H126765   0.974   2.948   8.409 -1.1262  2.2944 -0.2288
 1710TIP3    H226766   1.054   2.917   8.534 -2.2811 -1.3333 -0.2654
 1711TIP3   OH226767   2.151   6.449   0.327  0.3244  0.4133 -0.0173
 1711TIP3    H126768   2.162   6.483   0.238 -0.3099  0.4899 -0.0678
 1711TIP3    H226769   2.161   6.354   0.318 -1.5810  0.2208 -0.4869
 1712TIP3   OH226770   2.864   0.098   7.406  0.0329 -0.1367 -0.1194
 1712TIP3    H126771   2.862   0.124   7.314  1.8471 -0.8441 -0.4045
 1712TIP3    H226772   2.844   0.005   7.405 -1.9341  0.2344  0.4476
 1713TIP3   OH226773   2.014   3.995   6.794  0.2645 -0.5051  0.2655
 1713TIP3    H126774   1.995   4.027   6.882  0.6556 -1.2349  0.6196
 1713TIP3    H226775   2.087   4.050   6.764  1.0377 -1.1552  0.9311
 1714TIP3   OH226776   0.524   6.505   2.159 -0.0131  0.5068  0.2365
 1714TIP3    H126777   0.569   6.474   2.081 -1.5755  0.0990 -0.5453
 1714TIP3    H226778   0.567   6.460   2.232 -0.3358 -1.2800 -0.6269
 1715TIP3   OH226779   5.308   2.559   7.722  0.3003 -0.1197 -0.1832
 1715TIP3    H126780   5.232   2.612   7.747  0.3012  0.4765 -1.3783
 1715TIP3    H226781   5.271   2.481   7.681  0.3122 -0.8091  1.0676
 1716TIP3   OH226782   2.912   3.277   8.148 -0.7365  0.4623  0.5487
 1716TIP3    H126783   3.001   3.263   8.179 -0.5498 -1.5534 -0.7102
 1716TIP3    H226784   2.858   3.218   8.200 -0.7584 -1.0897 -1.1165
 1717TIP3   OH226785   5.373   3.790   7.972 -0.1266  0.0411 -0.0016
 1717TIP3    H126786   5.461   3.767   8.000 -0.2939 -1.2346 -0.4370
 1717TIP3    H226787   5.385   3.859   7.906  0.5249  0.0243  0.1003
 1718TIP3   OH226788   5.346   0.242   1.647  0.3044  0.1008 -0.7686
 1718TIP3    H126789   5.352   0.201   1.560  1.8321 -1.6316  0.0827
 1718TIP3    H226790   5.359   0.335   1.630 -3.6168  0.5143 -2.8408
 1719TIP3   OH226791   5.757   5.172   1.840 -0.3277  0.0891 -0.1337
 1719TIP3    H126792   5.771   5.095   1.785  2.1464  2.0824 -2.6252
 1719TIP3    H226793   5.743   5.137   1.928  1.3609 -3.1935 -1.0031
 1720TIP3   OH226794   5.725   1.949   6.311  0.2122  0.1804  0.2342
 1720TIP3    H126795   5.799   1.948   6.250 -1.4048  2.1378 -1.9620
 1720TIP3    H226796   5.694   1.858   6.314  2.1151 -0.4908  0.4912
 1721TIP3   OH226797   5.783   3.618   7.767  0.0290 -0.7497  0.8598
 1721TIP3    H126798   5.734   3.648   7.691 -0.7228 -0.6866  1.3533
 1721TIP3    H226799   5.762   3.682   7.835  2.2927  0.3618  0.5902
 1722TIP3   OH226800   2.302   1.297   7.328  0.3344 -0.4630 -0.2946
 1722TIP3    H126801   2.229   1.331   7.380  1.0767  0.1498  0.3844
 1722TIP3    H226802   2.341   1.229   7.382  0.7571 -0.2229 -0.2867
 1723TIP3   OH226803   2.359   2.682   8.316 -0.3707  0.2495  0.4772
 1723TIP3    H126804   2.371   2.601   8.266  0.6615  0.0756  0.9667
 1723TIP3    H226805   2.427   2.678   8.383 -0.0500  1.7239  0.2624
 1724TIP3   OH226806   2.943   3.382   2.068  0.2647 -0.0796 -0.1322
 1724TIP3    H126807   2.904   3.304   2.028  0.5402  0.4915 -1.5468
 1724TIP3    H226808   3.034   3.382   2.038  0.4889  0.3470  0.5297
 1725TIP3   OH226809   6.629   0.365   8.107 -0.1260  0.2012  0.3047
 1725TIP3    H126810   6.647   0.447   8.154 -0.7721  0.1038  0.7432
 1725TIP3    H226811   6.599   0.394   8.020  2.1961  0.3622 -0.5168
 1726TIP3   OH226812   1.415   5.816   8.103  0.3454  0.6606  0.0426
 1726TIP3    H126813   1.427   5.907   8.131  0.3196  0.8725 -0.6236
 1726TIP3    H226814   1.504   5.785   8.085  0.1890  1.3182 -2.0633
 1727TIP3   OH226815   6.696   5.050   7.784 -0.2258 -0.1183  0.2101
 1727TIP3    H126816   6.776   5.040   7.836 -0.9327 -0.8743  1.1961
 1727TIP3    H226817   6.677   5.143   7.787  0.7466  0.1007 -0.2317
 1728TIP3   OH226818   3.652   1.999   1.286  0.1511  0.2009 -0.4933
 1728TIP3    H126819   3.677   2.088   1.261  0.5842  0.5825  1.1689
 1728TIP3    H226820   3.733   1.961   1.322 -0.6530  0.0573  1.2312
 1729TIP3   OH226821   2.878   0.726   8.661  0.0161  0.6698  0.9163
 1729TIP3    H126822   2.788   0.698   8.643  0.6721 -1.3170  0.5282
 1729TIP3    H226823   2.929   0.645   8.664  2.0945  1.8198 -0.4899
 1730TIP3   OH226824   5.752   4.915   7.619 -0.1782 -0.2661  0.6942
 1730TIP3    H126825   5.723   4.827   7.641 -0.6447 -0.3412 -0.1966
 1730TIP3    H226826   5.682   4.972   7.650 -2.3390 -0.5676 -3.1232
 1731TIP3   OH226827   5.953   0.356   1.589  0.0478  0.2689  0.1058
 1731TIP3    H126828   5.960   0.446   1.557 -1.0392  0.5040  0.4848
 1731TIP3    H226829   6.019   0.350   1.657  0.0489  0.8288  0.1647
 1732TIP3   OH226830   0.604   4.141   1.430  0.0659 -0.0389 -0.2633
 1732TIP3    H126831   0.612   4.135   1.525  0.1980  1.7857 -0.1297
 1732TIP3    H226832   0.672   4.204   1.404 -0.8977  0.5660 -1.3973
 1733TIP3   OH226833   2.336   5.942   7.567 -0.0435  0.5068 -0.0071
 1733TIP3    H126834   2.424   5.907   7.552 -0.3697  0.0462 -0.9205
 1733TIP3    H226835   2.335   5.968   7.659  0.3154 -1.5783  0.6308
 1734TIP3   OH226836   6.739   3.162   0.484 -0.5012  0.2106  0.2099
 1734TIP3    H126837   6.764   3.251   0.510  1.4573 -0.3915  0.5441
 1734TIP3    H226838   6.709   3.121   0.565 -1.5836  0.5826  0.0221
 1735TIP3   OH226839   4.120   2.267   0.574  0.1548 -0.2002  0.2591
 1735TIP3    H126840   4.080   2.282   0.488  0.3861  0.7133  0.3002
 1735TIP3    H226841   4.046   2.257   0.634 -0.0137  0.1013  0.1045
 1736TIP3   OH226842   4.798   3.914   8.366  0.7211  0.0113  0.2420
 1736TIP3    H126843   4.823   3.836   8.417  0.3825 -0.6932 -0.6343
 1736TIP3    H226844   4.718   3.946   8.409  1.8433  0.9778  1.7166
 1737TIP3   OH226845   1.305   2.424   6.644 -0.3895  0.4561 -0.1913
 1737TIP3    H126846   1.282   2.476   6.567 -1.2774 -0.2131 -0.3980
 1737TIP3    H226847   1.220   2.393   6.678  0.1618 -2.0716 -0.9268
 1738TIP3   OH226848   3.316   3.529   7.992 -0.8528  0.3206 -0.0143
 1738TIP3    H126849   3.234   3.484   7.970 -2.1681  2.4474  0.2664
 1738TIP3    H226850   3.288   3.613   8.028  1.4742  1.1065  0.0953
 1739TIP3   OH226851   5.818   5.598   1.127  0.2758 -0.7161 -0.3695
 1739TIP3    H126852   5.847   5.687   1.108  1.3317 -0.8075  0.6984
 1739TIP3    H226853   5.729   5.594   1.093  0.6533  0.3480 -1.5556
 1740TIP3   OH226854   0.346   0.155   8.745  0.3257  0.2200 -0.1401
 1740TIP3    H126855   0.336   0.207   8.824  1.9255  0.2210  0.0811
 1740TIP3    H226856   0.320   0.213   8.674 -2.8433 -0.3106  0.4380
 1741TIP3   OH226857   4.944   5.927   8.777 -0.2151  0.1191  0.5594
 1741TIP3    H126858   4.917   5.868   8.707  0.9204 -0.4237  0.5643
 1741TIP3    H226859   4.862   5.947   8.824 -0.8259 -0.3080 -0.2903
 1742TIP3   OH226860   2.828   6.224   2.432  1.0490  0.2889 -0.2265
 1742TIP3    H126861   2.809   6.144   2.480 -1.9018  0.7959 -0.3919
 1742TIP3    H226862   2.869   6.282   2.496 -3.3999  1.2237  2.1640
 1743TIP3   OH226863   1.692   3.500   7.542  0.4349  0.0793 -0.7636
 1743TIP3    H126864   1.725   3.448   7.469 -1.5187 -0.9731 -0.9746
 1743TIP3    H226865   1.669   3.435   7.609  0.8018  0.9280  0.2137
 1744TIP3   OH226866   5.862   4.898   2.757 -0.2733  0.0391 -0.0834
 1744TIP3    H126867   5.859   4.820   2.701 -0.3910  1.3085 -1.9605
 1744TIP3    H226868   5.954   4.924   2.757 -0.1174 -0.4473  1.0975
 1745TIP3   OH226869   1.652   3.049   7.833  0.0934 -0.0002  0.1283
 1745TIP3    H126870   1.565   3.015   7.854  0.2909 -1.0964 -0.7082
 1745TIP3    H226871   1.684   3.086   7.915 -1.4598  1.1414  0.2698
 1746TIP3   OH226872   1.503   1.162   7.225  0.1384 -0.0591 -0.3677
 1746TIP3    H126873   1.596   1.140   7.229  0.2203  0.3218 -0.0995
 1746TIP3    H226874   1.487   1.184   7.133 -0.3322 -2.8228 -1.0334
 1747TIP3   OH226875   2.145   2.233   0.303  0.0795  0.0019  0.2918
 1747TIP3    H126876   2.183   2.197   0.223 -0.2205 -2.0402  1.0009
 1747TIP3    H226877   2.064   2.184   0.316 -1.0666  1.8962  0.6521
 1748TIP3   OH226878   0.066   2.221   8.400 -0.1578 -0.0765 -0.0645
 1748TIP3    H126879   0.130   2.230   8.329 -0.6863 -2.7853 -1.0038
 1748TIP3    H226880   0.097   2.147   8.452 -1.5454 -0.2610  0.5635
 1749TIP3   OH226881   3.701   1.668   7.894 -0.2925  0.3607  0.2355
 1749TIP3    H126882   3.745   1.584   7.875 -1.0557  0.2718 -1.2962
 1749TIP3    H226883   3.627   1.644   7.949 -1.6822 -0.3181 -1.8050
 1750TIP3   OH226884   4.720   0.188   7.699  0.7437 -0.4696 -0.2933
 1750TIP3    H126885   4.787   0.244   7.658  1.2772  0.8624  2.1833
 1750TIP3    H226886   4.637   0.231   7.678  1.2398  2.9477  3.5028
 1751TIP3   OH226887   6.816   5.784   2.477 -0.1031  0.1784  0.6733
 1751TIP3    H126888   6.795   5.824   2.392  0.9355 -2.4314 -0.9455
 1751TIP3    H226889   6.740   5.729   2.497  0.0904 -0.0181  0.8821
 1752TIP3   OH226890   2.565   4.913   7.588 -0.0792  0.2877 -0.5691
 1752TIP3    H126891   2.618   4.842   7.624 -1.3294 -0.3253  0.1414
 1752TIP3    H226892   2.628   4.974   7.551  1.2004  0.1699  1.2860
 1753TIP3   OH226893   1.793   6.149   8.634 -0.5047 -0.1380 -0.6596
 1753TIP3    H126894   1.720   6.121   8.578  0.3026 -1.0647 -1.2886
 1753TIP3    H226895   1.864   6.088   8.612  0.3577  0.5505  0.1664
 1754TIP3   OH226896   2.546   0.046   7.909 -0.1524 -0.5862 -0.3969
 1754TIP3    H126897   2.498   0.065   7.828 -0.7708  0.7230  0.2447
 1754TIP3    H226898   2.636   0.073   7.890 -0.6442  1.4151 -0.1135
 1755TIP3   OH226899   6.131   2.352   2.175  0.2355 -0.0176  0.5966
 1755TIP3    H126900   6.108   2.439   2.144 -0.2149 -0.3666 -0.0786
 1755TIP3    H226901   6.217   2.362   2.215 -0.4855  1.0501  1.9623
 1756TIP3   OH226902   1.678   3.994   0.604 -0.5470 -0.0619 -0.9695
 1756TIP3    H126903   1.639   4.058   0.544 -1.2057 -0.5198 -1.0472
 1756TIP3    H226904   1.717   3.928   0.547  0.0827  0.2425 -0.8904
 1757TIP3   OH226905   1.232   2.470   0.528  0.3377 -0.0491 -0.3292
 1757TIP3    H126906   1.317   2.430   0.544  0.0324 -1.0480 -1.0694
 1757TIP3    H226907   1.251   2.543   0.469  0.9846  1.3854  1.5637
 1758TIP3   OH226908   2.369   4.022   8.036 -0.6906 -0.0042  0.6733
 1758TIP3    H126909   2.308   3.972   8.090 -2.0947  1.1247  0.2261
 1758TIP3    H226910   2.344   4.002   7.946 -0.1898  0.2312  0.4760
 1759TIP3   OH226911   2.680   6.372   1.716 -0.5503  0.0808  0.7176
 1759TIP3    H126912   2.732   6.311   1.768 -0.9484 -0.6307  0.3008
 1759TIP3    H226913   2.720   6.458   1.732  0.0271 -0.2868  1.2992
 1760TIP3   OH226914   1.731   2.137   7.270  0.0771 -0.0518 -0.2636
 1760TIP3    H126915   1.772   2.159   7.186  0.8093  0.8569  0.3172
 1760TIP3    H226916   1.755   2.046   7.286  0.3747 -0.0674 -0.7807
 1761TIP3   OH226917   4.811   0.311   0.760 -0.0045 -0.0040 -0.2509
 1761TIP3    H126918   4.889   0.363   0.777  1.2583 -1.9739  0.3694
 1761TIP3    H226919   4.742   0.351   0.813  0.1964  2.5203 -1.7478
 1762TIP3   OH226920   1.582   4.316   6.631 -0.5163 -0.6159  0.8208
 1762TIP3    H126921   1.517   4.360   6.686 -1.6303  0.9519 -1.6157
 1762TIP3    H226922   1.539   4.306   6.546  1.4725 -2.0631 -0.0797
 1763TIP3   OH226923   4.435   3.231   1.615  0.4230 -0.0257  0.1591
 1763TIP3    H126924   4.487   3.155   1.589  0.1323 -0.7022  1.4896
 1763TIP3    H226925   4.351   3.220   1.570  0.2718 -0.6499  0.5993
 1764TIP3   OH226926   4.569   5.979   0.441  0.0640  0.0349  0.2426
 1764TIP3    H126927   4.533   5.916   0.379 -0.4874  0.6121 -0.0248
 1764TIP3    H226928   4.607   6.048   0.387  2.5119 -1.0268  0.4709
 1765TIP3   OH226929   3.713   5.061   2.806  0.1277 -0.4561  0.2766
 1765TIP3    H126930   3.635   5.111   2.779 -0.8050 -2.0426 -0.1011
 1765TIP3    H226931   3.721   4.992   2.739  0.9828 -1.1928  1.1223
 1766TIP3   OH226932   1.791   4.916   2.359  0.1244  0.1780 -0.5318
 1766TIP3    H126933   1.790   4.957   2.272  0.5491 -0.2561 -0.7419
 1766TIP3    H226934   1.713   4.861   2.361  1.0865 -1.2759 -1.3534
 1767TIP3   OH226935   6.269   0.151   8.802  0.0126 -0.2838 -0.0665
 1767TIP3    H126936   6.298   0.100   8.878 -0.2001  1.4134  1.1998
 1767TIP3    H226937   6.195   0.102   8.768 -0.8671 -0.3258  1.7603
 1768TIP3   OH226938   0.427   0.281   1.874  0.1693 -0.0000  0.5976
 1768TIP3    H126939   0.520   0.269   1.889 -0.4532 -2.7120  3.2471
 1768TIP3    H226940   0.397   0.332   1.950 -0.8426 -1.3642  1.1630
 1769TIP3   OH226941   5.255   2.563   1.230 -0.5709 -0.0840 -0.6145
 1769TIP3    H126942   5.325   2.627   1.221  0.2284 -0.9908 -1.0423
 1769TIP3    H226943   5.229   2.568   1.322  0.3614 -0.0484 -0.3457
 1770TIP3   OH226944   5.130   1.419   1.189 -0.0133 -0.7496 -0.3231
 1770TIP3    H126945   5.107   1.471   1.266  0.9978  0.8328 -1.0409
 1770TIP3    H226946   5.078   1.456   1.118  2.2141  0.7354 -1.2760
 1771TIP3   OH226947   0.672   3.791   6.715 -0.3024  0.0061  0.2883
 1771TIP3    H126948   0.640   3.705   6.688  4.7903 -2.0787 -0.3552
 1771TIP3    H226949   0.673   3.843   6.635 -1.6781  0.0432  0.2827
 1772TIP3   OH226950   4.762   2.421   0.839  0.4251  0.0663 -0.0827
 1772TIP3    H126951   4.724   2.336   0.817 -0.7244  0.1224  1.4724
 1772TIP3    H226952   4.689   2.483   0.828  1.3495  0.9409 -1.5800
 1773TIP3   OH226953   5.815   0.318   0.743  0.3806 -0.5000  0.5854
 1773TIP3    H126954   5.851   0.233   0.715  1.0149 -0.0162 -0.1267
 1773TIP3    H226955   5.741   0.296   0.799 -1.0502 -1.5585 -1.6043
 1774TIP3   OH226956   0.745   4.573   1.095 -0.0184 -0.3222  0.5812
 1774TIP3    H126957   0.762   4.492   1.143  1.6379  0.0014  0.5818
 1774TIP3    H226958   0.706   4.543   1.012  1.7652 -1.2648  0.0201
 1775TIP3   OH226959   4.535   5.487   8.720 -0.4564  0.2948  0.7995
 1775TIP3    H126960   4.540   5.540   8.799  0.7033  0.1000  0.8719
 1775TIP3    H226961   4.575   5.403   8.744 -2.2858 -0.6573  0.6978
 1776TIP3   OH226962   3.666   1.236   0.076 -0.2680 -0.4728 -0.0257
 1776TIP3    H126963   3.593   1.175   0.065  0.8472 -1.5996 -1.5121
 1776TIP3    H226964   3.743   1.181   0.084  0.5610  0.7192  0.5014
 1777TIP3   OH226965   3.450   5.331   6.672 -0.2178 -0.8210  0.1710
 1777TIP3    H126966   3.385   5.274   6.630 -0.6372 -0.5111  0.3962
 1777TIP3    H226967   3.529   5.320   6.619 -0.7974 -0.2708 -0.8313
 1778TIP3   OH226968   4.982   6.825   1.141 -0.0502  0.2590  0.3387
 1778TIP3    H126969   5.058   6.869   1.103  1.3337  0.5192  3.1703
 1778TIP3    H226970   4.936   6.895   1.188 -1.2746 -0.2000 -0.1271
 1779TIP3   OH226971   5.310   4.431   8.619 -0.4165 -0.1801  0.3310
 1779TIP3    H126972   5.322   4.511   8.569 -1.4206 -0.3526 -0.2145
 1779TIP3    H226973   5.391   4.421   8.668 -0.1366  0.9807  0.1411
 1780TIP3   OH226974   3.040   5.635   6.512 -0.2009  0.2464 -0.2462
 1780TIP3    H126975   3.015   5.596   6.429  0.2797  0.5738 -0.5483
 1780TIP3    H226976   3.134   5.619   6.520 -0.4640 -0.9240  0.8527
 1781TIP3   OH226977   0.205   1.926   6.920 -0.0354 -0.2800 -0.1758
 1781TIP3    H126978   0.247   1.841   6.930  0.3414  0.1105  2.6417
 1781TIP3    H226979   0.112   1.910   6.940 -0.2416 -0.2670 -1.1072
 1782TIP3   OH226980   5.789   1.328   1.595 -0.1449 -0.3769 -0.5264
 1782TIP3    H126981   5.793   1.234   1.611 -1.4486 -0.5930 -1.3379
 1782TIP3    H226982   5.822   1.367   1.676  4.3312 -1.5000 -1.5226
 1783TIP3   OH226983   1.914   0.739   2.024 -0.5560 -0.1770 -0.1277
 1783TIP3    H126984   1.919   0.832   2.047 -0.5123  0.1048 -1.2128
 1783TIP3    H226985   2.003   0.707   2.037  0.6823  1.0584 -4.0680
 1784TIP3   OH226986   5.199   4.774   6.963  0.0837  0.1919 -0.2506
 1784TIP3    H126987   5.240   4.771   7.049  0.0137  2.3636 -0.0900
 1784TIP3    H226988   5.244   4.706   6.912  2.3441  0.9834  0.5761
 1785TIP3   OH226989   2.123   3.787   0.914  0.3981  0.4650  0.1885
 1785TIP3    H126990   2.209   3.827   0.914  0.6389 -0.0134  1.3777
 1785TIP3    H226991   2.133   3.706   0.964  0.1104 -1.5443 -2.7234
 1786TIP3   OH226992   6.130   0.302   1.828  0.4782  0.1875  0.3308
 1786TIP3    H126993   6.196   0.370   1.839  1.2813 -0.7686  1.7288
 1786TIP3    H226994   6.096   0.288   1.917 -0.8644 -0.0844 -0.1998
 1787TIP3   OH226995   3.021   3.187   7.755  0.2898  0.3139  0.0482
 1787TIP3    H126996   3.030   3.132   7.677 -2.9730  1.1209 -1.0808
 1787TIP3    H226997   2.974   3.132   7.818  1.2327  0.2993  0.7613
 1788TIP3   OH226998   5.602   3.258   0.435  0.0819  0.3008  0.8244
 1788TIP3    H126999   5.576   3.349   0.448 -0.1656  0.2441  0.7344
 1788TIP3    H227000   5.520   3.209   0.442 -0.3620  0.3837 -2.3446
 1789TIP3   OH227001   4.977   4.872   8.694 -0.2303  0.1499  0.2955
 1789TIP3    H127002   5.015   4.786   8.709 -0.5205  0.0626  0.5503
 1789TIP3    H227003   4.883   4.856   8.689 -0.3135  0.4988  0.6934
 1790TIP3   OH227004   5.320   4.814   1.566  0.4633  0.0706 -0.4448
 1790TIP3    H127005   5.313   4.807   1.471 -0.1224  0.1342 -0.4112
 1790TIP3    H227006   5.297   4.727   1.598 -0.1381  0.2588 -0.3336
 1791TIP3   OH227007   2.434   6.391   1.032  0.1185  0.0185  0.0639
 1791TIP3    H127008   2.401   6.473   1.069 -0.2026  0.2346 -0.6886
 1791TIP3    H227009   2.487   6.418   0.957  1.9618 -0.3137  1.1645
 1792TIP3   OH227010   4.554   5.694   1.462 -0.3158  0.7950 -0.6365
 1792TIP3    H127011   4.473   5.729   1.497 -1.3000 -1.0675 -0.9122
 1792TIP3    H227012   4.623   5.740   1.510 -1.5324  1.9965  0.0173
 1793TIP3   OH227013   1.355   0.236   7.199 -0.4512 -0.3884 -0.4618
 1793TIP3    H127014   1.401   0.299   7.143 -1.2557  0.5853 -0.0695
 1793TIP3    H227015   1.378   0.262   7.288 -0.5583 -0.8303 -0.3071
 1794TIP3   OH227016   0.666   6.355   2.354  0.1543  0.5805 -0.5207
 1794TIP3    H127017   0.684   6.304   2.433 -0.5500  0.0018 -0.7117
 1794TIP3    H227018   0.748   6.354   2.305  0.0078 -0.9254 -0.8009
 1795TIP3   OH227019   5.771   4.840   7.006  0.5694 -0.5124  0.8378
 1795TIP3    H127020   5.736   4.921   7.042  0.9987  1.2183 -2.2775
 1795TIP3    H227021   5.859   4.834   7.041  0.9148  0.9911  0.2833
 1796TIP3   OH227022   2.225   0.493   0.660  0.3884 -0.6671  0.5025
 1796TIP3    H127023   2.138   0.468   0.628  0.4770 -0.3338 -0.0164
 1796TIP3    H227024   2.282   0.421   0.633  0.2961 -0.8330  0.7451
 1797TIP3   OH227025   3.884   6.545   0.102 -0.5495 -0.1461 -0.3863
 1797TIP3    H127026   3.905   6.577   0.190 -2.0309 -1.8823  0.6586
 1797TIP3    H227027   3.970   6.526   0.064  0.3702  3.7997 -0.7024
 1798TIP3   OH227028   4.281   4.833   8.651 -0.4304 -0.1412 -0.4737
 1798TIP3    H127029   4.277   4.903   8.586 -1.9757  0.2733  0.0162
 1798TIP3    H227030   4.336   4.869   8.721  1.1135 -0.5339 -1.4418
 1799TIP3   OH227031   3.951   1.041   8.292  1.0455  0.3373  1.0433
 1799TIP3    H127032   3.975   0.980   8.361  0.8258 -0.2222  0.6262
 1799TIP3    H227033   4.034   1.064   8.250  1.5149  2.4247  2.8819
 1800TIP3   OH227034   1.046   6.795   8.772  0.2192 -0.4129 -0.0505
 1800TIP3    H127035   1.067   6.726   8.710 -1.2022 -0.0001 -1.0421
 1800TIP3    H227036   1.126   6.848   8.777  0.5613 -0.8135 -1.0463
 1801TIP3   OH227037   0.207   1.905   0.468  0.0203  0.0968  0.2453
 1801TIP3    H127038   0.246   1.842   0.407  0.5305 -0.2475  0.9220
 1801TIP3    H227039   0.255   1.893   0.549 -1.4669 -0.3181  1.1118
 1802TIP3   OH227040   2.727   4.524   1.359  0.8262  0.0993 -0.7001
 1802TIP3    H127041   2.755   4.536   1.450  1.4007 -1.1000 -0.7074
 1802TIP3    H227042   2.786   4.579   1.308 -0.2745  1.7704 -0.2879
 1803TIP3   OH227043   6.097   1.066   0.613 -0.2386 -0.5985 -0.2312
 1803TIP3    H127044   6.033   0.997   0.629 -0.0331 -0.7330  0.0253
 1803TIP3    H227045   6.182   1.026   0.634 -0.3699  0.8937  4.0047
 1804TIP3   OH227046   0.352   2.728   0.846  0.1821 -0.3353  0.2265
 1804TIP3    H127047   0.281   2.790   0.829 -1.5699 -2.2645  0.0231
 1804TIP3    H227048   0.389   2.709   0.759  0.4291  0.0872  0.2382
 1805TIP3   OH227049   3.846   5.744   0.102  0.3216  0.0349 -0.2651
 1805TIP3    H127050   3.891   5.697   0.172 -0.6156 -1.1282 -0.4168
 1805TIP3    H227051   3.877   5.704   0.021 -1.9807 -1.8387 -0.3447
 1806TIP3   OH227052   4.728   4.322   0.684 -0.4969 -0.0810  0.6479
 1806TIP3    H127053   4.750   4.265   0.611 -0.2675  0.2530  0.4517
 1806TIP3    H227054   4.664   4.384   0.648  0.0781  0.4738  0.5514
 1807TIP3   OH227055   2.831   6.839   8.608 -0.6128 -0.0680 -0.7136
 1807TIP3    H127056   2.762   6.892   8.568  0.1314  0.7589 -0.9163
 1807TIP3    H227057   2.786   6.789   8.676 -1.4345  0.3630 -0.9248
 1808TIP3   OH227058   1.920   3.879   7.296  0.1237 -0.1498  0.2080
 1808TIP3    H127059   1.921   3.800   7.351 -1.2225 -0.3384 -0.0007
 1808TIP3    H227060   1.941   3.950   7.356  1.9155 -0.7104  0.2887
 1809TIP3   OH227061   4.289   2.463   8.561  0.0947 -0.2952 -0.6177
 1809TIP3    H127062   4.235   2.525   8.512 -2.0089 -0.3683  1.4059
 1809TIP3    H227063   4.277   2.379   8.517  0.1593  0.0688 -1.3386
 1810TIP3   OH227064   1.771   3.791   8.040  0.4873 -0.3285 -0.5414
 1810TIP3    H127065   1.746   3.740   7.964  1.7011 -1.5720 -0.1448
 1810TIP3    H227066   1.767   3.729   8.113  0.4215  0.5621  0.2322
 1811TIP3   OH227067   0.419   4.491   1.208  0.3833  0.1949 -0.3407
 1811TIP3    H127068   0.437   4.398   1.213 -1.1672 -0.0735  2.3081
 1811TIP3    H227069   0.327   4.496   1.182  0.3705  0.9711 -0.1812
 1812TIP3   OH227070   1.634   4.545   0.106  0.4474  0.0874  0.1792
 1812TIP3    H127071   1.626   4.539   0.201  0.4706 -0.3034  0.1576
 1812TIP3    H227072   1.549   4.516   0.072  1.0199 -1.5466  0.0327
 1813TIP3   OH227073   5.171   4.419   1.934 -0.3252  0.2427 -0.3323
 1813TIP3    H127074   5.257   4.383   1.913 -0.9302 -1.0494 -0.6373
 1813TIP3    H227075   5.177   4.510   1.904  0.8581  0.1234 -0.5435
 1814TIP3   OH227076   5.920   2.637   8.648 -0.1614  0.2863  0.5351
 1814TIP3    H127077   5.944   2.553   8.686  1.0708 -0.4430 -1.6697
 1814TIP3    H227078   5.965   2.702   8.702  0.5575 -0.6180  1.0411
 1815TIP3   OH227079   4.098   4.325   1.458 -0.4490 -0.4671  0.1001
 1815TIP3    H127080   4.119   4.232   1.469 -0.4560 -0.7974 -2.2620
 1815TIP3    H227081   4.002   4.328   1.460 -0.4805 -0.6704 -0.8204
 1816TIP3   OH227082   5.866   6.755   8.292  0.5263 -0.6248 -0.2409
 1816TIP3    H127083   5.865   6.803   8.210 -0.0302  3.0770  1.6999
 1816TIP3    H227084   5.929   6.802   8.347 -2.6120  0.2320  2.9919
 1817TIP3   OH227085   4.048   0.105   7.439  1.0292 -0.0397 -0.2651
 1817TIP3    H127086   3.998   0.078   7.361 -1.8617  0.6747  1.1865
 1817TIP3    H227087   4.099   0.180   7.409  1.6309 -1.0538 -1.9536
 1818TIP3   OH227088   2.166   2.845   0.344 -0.3092 -0.3499 -0.1953
 1818TIP3    H127089   2.177   2.939   0.329 -2.4300 -0.0369 -0.1339
 1818TIP3    H227090   2.086   2.839   0.397 -0.0283 -2.1842  0.0881
 1819TIP3   OH227091   1.026   0.515   1.624  0.1806 -0.2950 -0.1949
 1819TIP3    H127092   0.936   0.520   1.656 -0.0769 -0.9774 -0.7866
 1819TIP3    H227093   1.076   0.570   1.685 -0.2725 -1.6183  1.4424
 1820TIP3   OH227094   1.584   6.711   1.201 -0.1025 -0.0010  0.4748
 1820TIP3    H127095   1.540   6.795   1.192 -0.5663 -0.0345  2.1133
 1820TIP3    H227096   1.652   6.712   1.133 -2.0550  0.3755 -1.5983
 1821TIP3   OH227097   2.599   2.874   8.400  0.8110 -0.2484  0.2963
 1821TIP3    H127098   2.632   2.908   8.483  0.3118 -1.0423  0.8277
 1821TIP3    H227099   2.505   2.864   8.413  0.5439  0.6296 -0.7301
 1822TIP3   OH227100   5.731   0.626   1.709 -0.5077 -0.3643  0.3230
 1822TIP3    H127101   5.726   0.716   1.679  1.6745 -0.7515 -1.4665
 1822TIP3    H227102   5.689   0.627   1.795  0.9784  2.7301  1.1529
 1823TIP3   OH227103   0.540   6.526   6.661 -0.0536 -0.2148 -0.1986
 1823TIP3    H127104   0.621   6.572   6.680 -0.8162  0.9142  0.4424
 1823TIP3    H227105   0.566   6.435   6.648  0.9683 -0.4517  2.8801
 1824TIP3   OH227106   1.883   4.987   7.387  0.0223 -0.0535 -0.6325
 1824TIP3    H127107   1.920   5.075   7.380 -0.8553  0.5404  1.2633
 1824TIP3    H227108   1.857   4.964   7.298  0.2853  1.6119 -1.1685
 1825TIP3   OH227109   1.381   6.189   1.116 -0.6149  0.5669 -0.0263
 1825TIP3    H127110   1.440   6.182   1.191 -1.5248 -0.8022  0.6132
 1825TIP3    H227111   1.313   6.251   1.144 -1.5518 -0.7630  0.7434
 1826TIP3   OH227112   5.492   6.819   0.821  0.2687 -0.3760 -0.0031
 1826TIP3    H127113   5.500   6.737   0.869 -0.9203 -0.6893 -0.3015
 1826TIP3    H227114   5.400   6.822   0.793  0.1217  1.3287  0.5141
 1827TIP3   OH227115   5.572   6.700   6.688  0.7781 -0.5278  0.1831
 1827TIP3    H127116   5.648   6.645   6.705  2.0726  0.7854 -1.0658
 1827TIP3    H227117   5.567   6.707   6.593  0.9948  1.8742  0.2718
 1828TIP3   OH227118   5.993   5.050   8.797  0.9547 -0.2085  0.4973
 1828TIP3    H127119   5.963   4.975   8.746 -2.0716  0.7509  0.6295
 1828TIP3    H227120   6.016   5.116   8.732  1.5826 -0.5393  0.3829
 1829TIP3   OH227121   5.373   1.601   1.485  0.3196 -0.0983  0.1173
 1829TIP3    H127122   5.433   1.542   1.439 -0.4963 -0.6550 -0.2635
 1829TIP3    H227123   5.409   1.610   1.573  3.6922  3.4120 -1.3271
 1830TIP3   OH227124   4.653   1.591   1.219 -0.0624 -0.4380  0.7718
 1830TIP3    H127125   4.711   1.662   1.245  0.4796 -0.5956  0.0112
 1830TIP3    H227126   4.712   1.520   1.193 -0.5119  0.1534 -2.2088
 1831TIP3   OH227127   4.621   4.451   2.451 -0.3484  0.2815 -0.3721
 1831TIP3    H127128   4.594   4.368   2.491 -0.7859  0.5241 -0.1614
 1831TIP3    H227129   4.716   4.454   2.466 -0.3869 -0.0018 -0.0465
 1832TIP3   OH227130   6.658   2.330   7.293 -0.1822 -0.3627 -0.4795
 1832TIP3    H127131   6.636   2.268   7.224 -0.3931 -0.5266 -0.2683
 1832TIP3    H227132   6.742   2.367   7.267 -0.6345  0.1504 -1.2179
 1833TIP3   OH227133   1.968   4.521   0.503 -0.1653  0.1224 -0.0014
 1833TIP3    H127134   2.011   4.437   0.486  0.3531  0.4118 -0.1428
 1833TIP3    H227135   1.989   4.575   0.427  0.6717  0.8363  0.7158
 1834TIP3   OH227136   3.780   2.653   7.078  0.0692  0.3983 -0.1111
 1834TIP3    H127137   3.705   2.700   7.042 -1.2865 -1.3895  0.2316
 1834TIP3    H227138   3.846   2.721   7.092 -1.1499  1.8968 -1.2505
 1835TIP3   OH227139   0.962   3.018   7.613 -0.1424  0.4243  0.1019
 1835TIP3    H127140   1.054   3.036   7.631 -0.5165  1.3237  1.3156
 1835TIP3    H227141   0.952   3.032   7.519  1.2136 -0.9786 -0.2878
 1836TIP3   OH227142   5.469   1.058   0.562  0.0974 -0.2300 -0.2324
 1836TIP3    H127143   5.542   0.998   0.551  0.1542 -0.3322  0.6461
 1836TIP3    H227144   5.454   1.094   0.475  1.4175  0.0579 -0.3643
 1837TIP3   OH227145   0.677   2.289   6.722  0.3821  0.0951  0.0035
 1837TIP3    H127146   0.765   2.323   6.733  0.4535 -0.1593  0.2429
 1837TIP3    H227147   0.668   2.272   6.628  0.6633 -0.0780  0.0079
 1838TIP3   OH227148   0.343   1.308   1.488  0.0014 -0.1740 -0.1176
 1838TIP3    H127149   0.332   1.317   1.583 -1.0546  2.0625 -0.3856
 1838TIP3    H227150   0.437   1.298   1.476  0.0589 -1.7826  1.2010
 1839TIP3   OH227151   3.202   1.276   7.457  0.3595 -0.0221  0.2054
 1839TIP3    H127152   3.211   1.348   7.519 -0.8553  0.4554 -0.1483
 1839TIP3    H227153   3.197   1.198   7.512 -1.4975  0.4644  0.7984
 1840TIP3   OH227154   3.603   2.112   0.832  0.2571  0.9294 -0.2424
 1840TIP3    H127155   3.581   2.201   0.861  0.5243  0.6939  0.7369
 1840TIP3    H227156   3.549   2.098   0.754  0.1815  1.9318 -0.3891
 1841TIP3   OH227157   6.333   1.843   7.972 -0.1359 -0.1502 -0.1589
 1841TIP3    H127158   6.283   1.815   7.896 -0.3347  0.5177 -0.2805
 1841TIP3    H227159   6.369   1.762   8.008 -1.1811 -0.6272 -0.1499
 1842TIP3   OH227160   1.185   6.161   8.446  0.2247  0.1723  0.7829
 1842TIP3    H127161   1.204   6.237   8.500  1.1343  0.3923  0.1792
 1842TIP3    H227162   1.090   6.163   8.434  0.0660  0.3850  1.9564
 1843TIP3   OH227163   4.693   4.382   2.134 -0.3096  0.9363 -0.0539
 1843TIP3    H127164   4.721   4.325   2.205  1.8367  1.2519 -0.5793
 1843TIP3    H227165   4.675   4.323   2.061  0.0938  0.7884 -0.0367
 1844TIP3   OH227166   3.108   0.446   1.421  0.2617 -0.0753  0.4456
 1844TIP3    H127167   3.015   0.427   1.424  0.3589 -0.9615 -1.0564
 1844TIP3    H227168   3.113   0.540   1.404 -0.3707 -0.1211 -0.0268
 1845TIP3   OH227169   0.006   2.806   1.471 -0.2382  0.4610  0.2737
 1845TIP3    H127170   0.039   2.758   1.395 -0.3997 -0.9996  1.0867
 1845TIP3    H227171   0.069   2.877   1.484  0.7335 -0.2876 -0.2105
 1846TIP3   OH227172   0.944   4.037   2.277  0.1341 -0.7544  0.9565
 1846TIP3    H127173   0.849   4.040   2.265 -0.2498 -1.1431  3.2665
 1846TIP3    H227174   0.956   4.002   2.366  2.4616 -1.2056  0.5443
 1847TIP3   OH227175   4.078   1.329   7.879 -0.9233 -0.3042  0.4035
 1847TIP3    H127176   4.135   1.391   7.924  1.5215 -1.9533 -0.1845
 1847TIP3    H227177   4.120   1.316   7.794 -2.1710 -1.6167 -0.0547
 1848TIP3   OH227178   5.420   2.945   2.055  0.3552 -0.1700 -0.3699
 1848TIP3    H127179   5.364   2.954   1.978  1.2530 -0.1415 -1.0349
 1848TIP3    H227180   5.496   3.000   2.036  1.0495 -0.9462  0.0994
 1849TIP3   OH227181   1.653   6.570   8.553  0.3351 -0.8621  0.4178
 1849TIP3    H127182   1.655   6.662   8.527  0.7028 -0.5111  1.6037
 1849TIP3    H227183   1.681   6.522   8.476  0.3981  0.0417 -0.1372
 1850TIP3   OH227184   2.693   1.415   2.592  0.7795  0.1136  0.0561
 1850TIP3    H127185   2.635   1.411   2.516 -0.3710  0.0139  0.8983
 1850TIP3    H227186   2.722   1.506   2.596 -2.4062  1.2097  1.7534
 1851TIP3   OH227187   5.671   1.375   0.514 -0.3923 -0.1982 -0.3667
 1851TIP3    H127188   5.733   1.447   0.528 -1.7250  1.2358 -1.4761
 1851TIP3    H227189   5.606   1.385   0.584 -0.8315 -0.0307 -0.7936
 1852TIP3   OH227190   5.753   6.073   0.559  0.1901  0.1920 -0.0675
 1852TIP3    H127191   5.779   6.056   0.650  0.8316  0.8760 -0.1090
 1852TIP3    H227192   5.660   6.095   0.564  0.3750  0.8988  0.5231
 1853TIP3   OH227193   6.742   3.560   0.411  0.5079 -0.1001  0.0984
 1853TIP3    H127194   6.783   3.632   0.362  1.2257  1.0145  2.1956
 1853TIP3    H227195   6.813   3.525   0.465 -0.5388 -0.2619  1.4268
 1854TIP3   OH227196   3.670   4.191   7.042  0.2249  0.3400 -0.6115
 1854TIP3    H127197   3.695   4.240   6.964  1.3525  0.0010 -0.4900
 1854TIP3    H227198   3.704   4.103   7.027  0.6175  0.3135  0.3214
 1855TIP3   OH227199   3.345   6.652   0.154  0.5587  0.4155  0.4824
 1855TIP3    H127200   3.313   6.581   0.209  0.1472  0.3634  0.1741
 1855TIP3    H227201   3.438   6.633   0.143  0.4572 -0.0566  0.4256
 1856TIP3   OH227202   6.669   5.491   7.023 -0.3447  0.4619 -0.0961
 1856TIP3    H127203   6.671   5.548   6.946  0.2254  1.0187  0.3165
 1856TIP3    H227204   6.756   5.500   7.062 -0.3207 -0.5257  0.1096
 1857TIP3   OH227205   5.596   4.759   8.283 -0.2516 -0.3074 -0.1520
 1857TIP3    H127206   5.580   4.794   8.371  1.5838  0.1486  0.0443
 1857TIP3    H227207   5.691   4.750   8.278 -0.2498  0.3880 -2.3631
 1858TIP3   OH227208   5.935   4.266   1.616  0.5379 -0.0654 -0.3563
 1858TIP3    H127209   5.922   4.172   1.627  0.3370 -0.0366 -0.3455
 1858TIP3    H227210   6.029   4.277   1.610  0.5468 -0.2982 -0.6418
 1859TIP3   OH227211   0.436   3.485   7.659 -0.4328  0.2293 -0.8311
 1859TIP3    H127212   0.465   3.411   7.605 -0.5662  0.2818 -0.9770
 1859TIP3    H227213   0.504   3.552   7.647  0.5887 -0.4742  0.6377
 1860TIP3   OH227214   1.731   1.479   1.935 -0.1679 -0.1672 -0.3787
 1860TIP3    H127215   1.648   1.449   1.972  0.3868 -0.0424  1.0533
 1860TIP3    H227216   1.783   1.399   1.925  1.3432  0.0854  3.5215
 1861TIP3   OH227217   2.594   6.525   2.171  0.0242  0.1189 -0.7463
 1861TIP3    H127218   2.525   6.459   2.173 -1.5619  1.6967 -1.3152
 1861TIP3    H227219   2.611   6.546   2.263  1.4374 -1.8812 -0.4715
 1862TIP3   OH227220   4.630   6.038   0.768  0.2084  0.2473  0.0420
 1862TIP3    H127221   4.617   5.984   0.690 -2.5126  0.0954  0.4704
 1862TIP3    H227222   4.625   6.128   0.737 -1.0268  0.1875 -0.0046
 1863TIP3   OH227223   0.367   2.098   7.619  0.2858  0.1033 -0.6572
 1863TIP3    H127224   0.422   2.173   7.595  1.7121  0.2979  2.5856
 1863TIP3    H227225   0.285   2.138   7.649 -0.2805  0.0659 -2.0808
 1864TIP3   OH227226   6.665   4.327   1.152  0.3857 -0.0061  0.2142
 1864TIP3    H127227   6.607   4.264   1.111  1.9887 -1.8781  0.6478
 1864TIP3    H227228   6.640   4.411   1.114 -1.2455 -0.9962 -1.0615
 1865TIP3   OH227229   4.403   1.892   2.145  0.3529 -0.8277  0.2006
 1865TIP3    H127230   4.332   1.834   2.119  0.0460 -0.3429 -0.0774
 1865TIP3    H227231   4.483   1.845   2.123  0.1057 -0.5686 -1.3541
 1866TIP3   OH227232   6.129   3.617   8.502 -0.1727 -0.8456  0.1694
 1866TIP3    H127233   6.200   3.584   8.448 -0.0009 -0.1196 -0.0596
 1866TIP3    H227234   6.135   3.712   8.494 -0.6995 -0.7565  0.7515
 1867TIP3   OH227235   4.169   3.130   7.573  0.2045 -0.1397 -0.7444
 1867TIP3    H127236   4.219   3.094   7.500  2.2831  0.9038  0.0930
 1867TIP3    H227237   4.188   3.224   7.571  1.8180 -0.2968  2.1901
 1868TIP3   OH227238   3.941   0.391   8.216  0.1545 -0.1620 -0.2592
 1868TIP3    H127239   3.958   0.459   8.152  2.0144 -1.5278 -1.3096
 1868TIP3    H227240   3.854   0.412   8.251  0.8865  3.0689 -0.0503
 1869TIP3   OH227241   2.875   5.408   8.445 -0.6162 -0.3749  0.1947
 1869TIP3    H127242   2.845   5.480   8.390  0.9562  0.5835  0.5244
 1869TIP3    H227243   2.884   5.334   8.385  0.9438  0.6106 -0.8610
 1870TIP3   OH227244   0.894   2.070   8.231 -0.2882 -0.3525  0.0851
 1870TIP3    H127245   0.829   2.122   8.279  0.1565  1.5243 -1.2561
 1870TIP3    H227246   0.867   1.979   8.246 -0.5358  0.1359  3.2999
 1871TIP3   OH227247   1.970   6.436   1.368 -0.2429 -0.4296 -0.2905
 1871TIP3    H127248   1.990   6.448   1.275  0.1708 -0.5877 -0.2217
 1871TIP3    H227249   1.957   6.342   1.378  1.7515 -0.6949  0.2038
 1872TIP3   OH227250   1.870   4.229   8.261  0.3772  0.2046  0.2290
 1872TIP3    H127251   1.901   4.139   8.259  0.2203  0.1545  0.0409
 1872TIP3    H227252   1.781   4.223   8.296  0.3235  0.2739  0.1037
 1873TIP3   OH227253   4.036   1.882   0.059  0.6821 -0.4424  0.3214
 1873TIP3    H127254   4.102   1.829   0.013  0.9868  0.5876 -0.4641
 1873TIP3    H227255   4.032   1.963   0.009 -1.3607 -0.5605  0.2254
 1874TIP3   OH227256   0.204   6.828   0.092  0.0786  0.1741  0.1030
 1874TIP3    H127257   0.225   6.831   0.185 -0.4611  4.3687  0.2785
 1874TIP3    H227258   0.280   6.866   0.049  0.2918 -1.6613 -1.2471
 1875TIP3   OH227259   6.452   5.124   1.709  0.1655  0.2648  0.3910
 1875TIP3    H127260   6.408   5.188   1.765 -0.3960  0.3455 -0.1374
 1875TIP3    H227261   6.472   5.171   1.629 -0.6276 -0.3109 -0.1697
 1876TIP3   OH227262   1.795   0.226   7.751  0.3735  0.1155 -0.3323
 1876TIP3    H127263   1.771   0.244   7.841  1.9081 -2.0532  0.5878
 1876TIP3    H227264   1.717   0.186   7.713 -0.0883  0.5077  0.1854
 1877TIP3   OH227265   1.504   4.296   2.871 -0.6923  0.4199 -0.0966
 1877TIP3    H127266   1.519   4.384   2.906 -0.8518 -0.5285  2.5829
 1877TIP3    H227267   1.409   4.291   2.858 -1.0499 -0.1579  2.3116
 1878TIP3   OH227268   5.615   6.597   1.320 -0.1301  0.1191  0.5190
 1878TIP3    H127269   5.598   6.578   1.413 -0.5677 -0.1055  0.3971
 1878TIP3    H227270   5.567   6.528   1.273 -0.3065  0.5173  0.1128
 1879TIP3   OH227271   3.186   3.059   8.056 -0.4084 -0.4549 -0.1409
 1879TIP3    H127272   3.171   3.111   7.977 -0.5555 -0.8589 -0.3847
 1879TIP3    H227273   3.150   3.112   8.127 -2.4282 -1.0816 -0.6284
 1880TIP3   OH227274   5.892   3.948   8.287  0.1822  0.2393 -0.8632
 1880TIP3    H127275   5.804   3.914   8.272 -0.2531  1.7569 -2.0135
 1880TIP3    H227276   5.889   3.983   8.376 -0.9839  1.8618 -1.4790
 1881TIP3   OH227277   3.510   5.842   0.320  0.1710 -0.4494  0.1366
 1881TIP3    H127278   3.451   5.773   0.350  2.5255 -1.6613  2.4018
 1881TIP3    H227279   3.460   5.890   0.254 -3.1736 -1.5663  1.6482
 1882TIP3   OH227280   3.035   5.924   0.748 -0.2577 -0.1242  0.9332
 1882TIP3    H127281   3.044   6.016   0.724 -0.0961 -0.6657 -1.2651
 1882TIP3    H227282   2.945   5.902   0.725  0.4250 -1.1197 -0.9643
 1883TIP3   OH227283   2.553   5.621   0.832 -0.1168 -0.2490 -0.5749
 1883TIP3    H127284   2.481   5.558   0.831  0.1056 -0.6005  1.4775
 1883TIP3    H227285   2.536   5.675   0.909  0.8747  0.8053 -1.0642
 1884TIP3   OH227286   4.910   4.975   8.183  0.2158 -0.0181 -0.1692
 1884TIP3    H127287   4.888   5.067   8.170  0.4077  0.0245 -0.1999
 1884TIP3    H227288   4.971   4.974   8.257  0.1810 -0.1244 -0.1408
 1885TIP3   OH227289   0.871   2.603   1.200 -0.0191 -0.2503 -0.5996
 1885TIP3    H127290   0.905   2.602   1.111  1.9333  0.8464  0.0657
 1885TIP3    H227291   0.937   2.651   1.250 -0.5538 -1.7157  1.6479
 1886TIP3   OH227292   4.060   2.230   1.396 -0.2212 -0.1412 -0.4663
 1886TIP3    H127293   4.118   2.238   1.472 -0.3276 -0.4125 -0.3558
 1886TIP3    H227294   4.119   2.238   1.321  0.1422 -1.5867 -0.3589
 1887TIP3   OH227295   6.301   2.313   6.694  0.0294  0.0183  0.3062
 1887TIP3    H127296   6.213   2.331   6.660  0.5113 -0.8113 -1.5375
 1887TIP3    H227297   6.359   2.363   6.637  0.8687 -1.0887  0.1590
 1888TIP3   OH227298   3.654   3.617   1.031 -0.6129 -0.9522  0.5425
 1888TIP3    H127299   3.639   3.592   0.940  1.3632 -0.3634  0.0190
 1888TIP3    H227300   3.592   3.689   1.046 -0.7526 -0.8481 -0.4367
 1889TIP3   OH227301   1.216   5.280   6.837  0.2818  0.4029 -0.0085
 1889TIP3    H127302   1.298   5.256   6.794 -1.2524 -1.7014 -2.0616
 1889TIP3    H227303   1.193   5.365   6.800 -0.0112 -0.4787 -2.0011
 1890TIP3   OH227304   0.241   5.238   7.270  0.4849  0.0222 -0.6056
 1890TIP3    H127305   0.152   5.249   7.236 -0.4717  2.8482  2.3183
 1890TIP3    H227306   0.267   5.326   7.299  3.1691 -1.2202  1.1606
 1891TIP3   OH227307   5.575   3.301   8.271  0.4108  0.0331 -0.2222
 1891TIP3    H127308   5.599   3.346   8.352 -0.1772 -0.3893  0.1884
 1891TIP3    H227309   5.642   3.329   8.208  1.0043  0.1917  0.4615
 1892TIP3   OH227310   6.469   0.881   1.186 -0.2148  0.2071 -0.7794
 1892TIP3    H127311   6.377   0.857   1.193  0.4693 -2.7255 -0.4636
 1892TIP3    H227312   6.493   0.859   1.096  0.3832  0.0474 -0.5915
 1893TIP3   OH227313   0.061   5.059   7.968  0.4568  0.1210  0.9431
 1893TIP3    H127314   0.090   4.974   7.936 -1.8633 -1.2823  2.2901
 1893TIP3    H227315   0.119   5.078   8.042  3.2648  1.5078 -1.4336
 1894TIP3   OH227316   6.238   5.257   0.349 -0.1372  0.9459 -0.4117
 1894TIP3    H127317   6.274   5.172   0.377 -1.5678  0.8933  1.4169
 1894TIP3    H227318   6.171   5.234   0.284  1.1095  0.8681 -1.7136
 1895TIP3   OH227319   5.739   0.467   7.477 -0.0886 -0.0853  0.2608
 1895TIP3    H127320   5.826   0.444   7.509  0.1898 -0.9588 -1.0183
 1895TIP3    H227321   5.727   0.558   7.502  1.1543  0.0152  0.5502
 1896TIP3   OH227322   2.046   0.330   7.741 -0.3793  0.0500 -0.0832
 1896TIP3    H127323   2.046   0.334   7.837 -0.9626 -1.3574 -0.0007
 1896TIP3    H227324   1.982   0.262   7.720  0.9698 -0.8761 -1.4111
 1897TIP3   OH227325   5.868   2.680   1.091  0.3272  0.7818  0.2379
 1897TIP3    H127326   5.918   2.747   1.044 -1.5415  0.5782 -2.2607
 1897TIP3    H227327   5.785   2.676   1.045 -0.8258 -1.0608  2.3081
 1898TIP3   OH227328   1.675   4.970   8.766 -0.0918 -0.0431  0.6316
 1898TIP3    H127329   1.769   4.984   8.753 -0.0633 -0.5330  0.2944
 1898TIP3    H227330   1.639   4.964   8.677 -0.1876 -1.5328  0.7429
 1899TIP3   OH227331   1.906   6.831   8.297  0.0461  0.2764 -0.6795
 1899TIP3    H127332   1.945   6.862   8.379 -0.4141 -0.1588 -0.2951
 1899TIP3    H227333   1.923   6.902   8.235  1.4136  0.1286 -0.5113
 1900TIP3   OH227334   0.064   2.885   1.920  0.2328 -0.9230  0.2207
 1900TIP3    H127335   0.123   2.958   1.940 -1.2304  0.8440 -1.4904
 1900TIP3    H227336   0.011   2.875   1.999 -0.3566  0.7397  0.0748
 1901TIP3   OH227337   1.850   3.221   7.067  0.0045  0.5844 -0.4389
 1901TIP3    H127338   1.867   3.132   7.035 -0.9075  0.5504 -0.8384
 1901TIP3    H227339   1.789   3.259   7.004  0.5502  1.5786 -0.3860
 1902TIP3   OH227340   4.546   0.588   7.467  0.4421 -0.3162  0.2105
 1902TIP3    H127341   4.465   0.577   7.517 -0.5876  0.4694 -1.2149
 1902TIP3    H227342   4.584   0.670   7.500  0.8325 -0.8298  1.0782
 1903TIP3   OH227343   2.669   0.747   0.702 -0.2618  0.4381  0.2947
 1903TIP3    H127344   2.621   0.758   0.620 -1.4210  3.0866  1.2300
 1903TIP3    H227345   2.758   0.776   0.682 -0.0242 -0.7479 -0.4595
 1904TIP3   OH227346   3.888   6.721   8.170  0.0785  0.5628 -0.0657
 1904TIP3    H127347   3.805   6.704   8.125 -0.0166 -0.6151  0.5321
 1904TIP3    H227348   3.867   6.716   8.263  1.2302 -2.1839  0.1422
 1905TIP3   OH227349   2.155   2.418   7.508 -0.1489  0.6909 -0.1640
 1905TIP3    H127350   2.244   2.452   7.500  0.9994 -2.1761 -0.5751
 1905TIP3    H227351   2.158   2.358   7.583 -1.5269 -0.0725 -0.6736
 1906TIP3   OH227352   3.830   4.532   2.766  0.6544 -0.4604 -0.1621
 1906TIP3    H127353   3.919   4.567   2.765 -0.3578  2.4839  0.6648
 1906TIP3    H227354   3.830   4.467   2.836  1.6163  1.2820  1.5545
 1907TIP3   OH227355   6.750   6.819   7.856  0.0415 -0.1463  0.0447
 1907TIP3    H127356   6.799   6.791   7.932  0.7524  0.1448 -0.2965
 1907TIP3    H227357   6.744   6.914   7.865 -0.1105 -0.1381 -0.1242
 1908TIP3   OH227358   0.738   5.212   2.332  0.5259 -0.6878  0.0536
 1908TIP3    H127359   0.677   5.139   2.343 -0.5788  0.4916  2.2538
 1908TIP3    H227360   0.808   5.195   2.395  0.0873  0.2885  0.8266
 1909TIP3   OH227361   2.190   0.578   1.180  0.7707  0.3125  0.0452
 1909TIP3    H127362   2.232   0.563   1.095 -1.2471  0.6385 -1.0661
 1909TIP3    H227363   2.183   0.491   1.219  2.0316  0.2017  0.0793
 1910TIP3   OH227364   2.431   2.575   0.028  0.2767  0.1064  0.0309
 1910TIP3    H127365   2.353   2.623   0.053  0.2646  0.3243 -0.4267
 1910TIP3    H227366   2.426   2.493   0.078 -0.1624  0.1860  0.1177
 1911TIP3   OH227367   4.065   5.337   1.002 -0.3836  0.2626 -0.1553
 1911TIP3    H127368   4.019   5.352   1.084 -1.9452 -0.3456 -0.8817
 1911TIP3    H227369   4.116   5.417   0.988 -1.8792  1.3396  0.2802
 1912TIP3   OH227370   3.896   3.555   6.842  0.2812  0.9737 -0.0989
 1912TIP3    H127371   3.863   3.478   6.888  0.9758 -0.1943 -1.5124
 1912TIP3    H227372   3.852   3.553   6.757  0.6723  1.8754 -0.3326
 1913TIP3   OH227373   1.045   5.804   8.647 -0.3783  0.1286  0.2760
 1913TIP3    H127374   1.117   5.838   8.593 -1.7772  1.3981 -0.8798
 1913TIP3    H227375   1.028   5.872   8.711 -1.2491  0.3433 -0.1620
 1914TIP3   OH227376   0.790   1.281   2.160 -0.0618 -1.2903 -0.3194
 1914TIP3    H127377   0.704   1.256   2.196  0.5908 -2.9734  0.1500
 1914TIP3    H227378   0.840   1.311   2.235  0.0079 -1.0013 -0.4788
 1915TIP3   OH227379   2.103   1.517   6.969  0.0916 -0.3660 -0.2609
 1915TIP3    H127380   2.073   1.486   6.884 -1.5689 -2.3152  0.9335
 1915TIP3    H227381   2.037   1.580   6.997  1.5343  1.6398 -1.0591
 1916TIP3   OH227382   6.683   3.437   8.050 -0.4029  0.0277  0.2775
 1916TIP3    H127383   6.721   3.401   7.969  0.9782  0.9581  0.4702
 1916TIP3    H227384   6.638   3.517   8.021  1.5647  1.3253  0.5950
 1917TIP3   OH227385   6.180   0.977   8.250  0.1473 -0.0601 -1.0086
 1917TIP3    H127386   6.192   0.928   8.332 -1.1700  0.7227 -0.3110
 1917TIP3    H227387   6.095   1.019   8.260 -0.7622 -1.1558 -3.4260
 1918TIP3   OH227388   6.654   4.705   7.012  0.4394 -0.1215  0.2434
 1918TIP3    H127389   6.596   4.676   6.941  0.1112 -0.0476  0.4819
 1918TIP3    H227390   6.686   4.623   7.051  0.9966 -0.1678 -0.2905
 1919TIP3   OH227391   2.998   5.757   1.938 -0.2843  0.2514  0.3772
 1919TIP3    H127392   3.010   5.747   2.032  0.6140  1.4263  0.4068
 1919TIP3    H227393   2.909   5.725   1.922  0.1353 -1.5748  1.3410
 1920TIP3   OH227394   1.187   3.745   1.022  0.3428  0.1545 -0.0354
 1920TIP3    H127395   1.145   3.674   0.974 -1.0266  0.1480  1.0985
 1920TIP3    H227396   1.137   3.823   0.996  0.1748  0.2848  0.6507
 1921TIP3   OH227397   6.811   4.375   1.835 -0.8287  0.1479 -0.2397
 1921TIP3    H127398   6.851   4.330   1.909  0.1159  1.1771 -0.0962
 1921TIP3    H227399   6.850   4.334   1.758  0.0821  0.7545 -0.1097
 1922TIP3   OH227400   3.582   2.409   0.291 -0.0472  0.6091 -0.2422
 1922TIP3    H127401   3.519   2.395   0.362  0.0283 -0.7082 -0.4151
 1922TIP3    H227402   3.529   2.449   0.221 -0.3703  0.8475  0.1312
 1923TIP3   OH227403   1.428   5.736   8.675 -0.2382 -0.0128 -0.2938
 1923TIP3    H127404   1.518   5.709   8.662  0.2582  1.2960  0.2547
 1923TIP3    H227405   1.413   5.804   8.610 -1.5536 -1.6606 -1.8297
 1924TIP3   OH227406   6.779   0.778   0.748 -0.3543  0.3100 -0.4406
 1924TIP3    H127407   6.790   0.825   0.830 -0.0033 -2.1729  1.0343
 1924TIP3    H227408   6.704   0.720   0.764  0.0486 -0.5897 -1.6758
 1925TIP3   OH227409   6.506   3.138   7.769  0.1912 -0.1399 -0.1502
 1925TIP3    H127410   6.563   3.075   7.725  0.0453 -0.0581 -0.4589
 1925TIP3    H227411   6.422   3.092   7.778  0.3698 -0.3448  0.5108
 1926TIP3   OH227412   2.695   1.596   1.198 -0.5019 -0.7053  0.5766
 1926TIP3    H127413   2.785   1.625   1.185 -0.9331  0.0170 -0.9439
 1926TIP3    H227414   2.661   1.655   1.266 -0.9971  1.7649 -1.6232
 1927TIP3   OH227415   3.063   1.219   1.516 -0.1069 -0.9134  0.1820
 1927TIP3    H127416   3.007   1.295   1.497  0.0889 -0.7512  0.2548
 1927TIP3    H227417   3.149   1.244   1.481  0.4783 -0.2704  1.9962
 1928TIP3   OH227418   3.035   0.532   7.466 -0.0519 -0.2249  0.2939
 1928TIP3    H127419   3.019   0.529   7.372  1.7431  1.5801 -0.1553
 1928TIP3    H227420   3.125   0.501   7.476 -0.5215 -1.2770  1.5554
 1929TIP3   OH227421   1.771   0.206   1.318  0.2478  0.2314 -0.8610
 1929TIP3    H127422   1.846   0.185   1.373 -0.3641  0.9509  0.2884
 1929TIP3    H227423   1.759   0.300   1.328  0.1681  0.3957 -2.3129
 1930TIP3   OH227424   2.672   0.745   0.122  0.6754  0.1735  0.6644
 1930TIP3    H127425   2.644   0.822   0.072  0.1768  1.0775  2.2785
 1930TIP3    H227426   2.614   0.675   0.091  1.2666  0.3681 -0.9630
 1931TIP3   OH227427   3.536   3.324   8.626  0.4513 -0.1274 -0.3275
 1931TIP3    H127428   3.483   3.352   8.701  1.0067 -0.6082  0.2570
 1931TIP3    H227429   3.604   3.268   8.664  0.9962 -0.0414 -1.1423
 1932TIP3   OH227430   4.962   0.522   1.309  0.4420  0.0345  0.1281
 1932TIP3    H127431   4.985   0.434   1.341  1.3540 -0.5750 -2.0398
 1932TIP3    H227432   5.002   0.582   1.372  1.0826 -1.0834  0.8213
 1933TIP3   OH227433   1.064   2.384   2.332  0.3024  0.1526  0.0908
 1933TIP3    H127434   1.033   2.452   2.391  0.5153 -1.5668  2.3553
 1933TIP3    H227435   0.985   2.334   2.311  0.2798  0.5790 -0.8498
 1934TIP3   OH227436   5.002   2.761   1.983 -0.1019  0.5665 -0.3326
 1934TIP3    H127437   4.978   2.669   1.973  1.7902  0.0523 -0.6214
 1934TIP3    H227438   4.996   2.777   2.077  1.1980 -0.3822 -0.0530
 1935TIP3   OH227439   3.683   3.098   1.080  1.1596 -0.3758  0.3687
 1935TIP3    H127440   3.604   3.148   1.100  0.4982 -2.0255  2.2670
 1935TIP3    H227441   3.657   3.036   1.012  0.9032 -0.6565  0.7181
 1936TIP3   OH227442   6.806   3.612   1.471 -0.0125 -0.4075  0.4488
 1936TIP3    H127443   6.809   3.708   1.463 -1.1854 -0.3204  0.9385
 1936TIP3    H227444   6.721   3.588   1.434  1.0660 -1.4810 -1.5347
 1937TIP3   OH227445   1.849   6.640   7.218  0.1113  0.5065  0.4604
 1937TIP3    H127446   1.826   6.662   7.308 -0.3187  2.2330 -0.0237
 1937TIP3    H227447   1.765   6.623   7.175  0.2611  0.2821  0.2569
 1938TIP3   OH227448   2.462   3.363   1.016 -0.2763  0.3790 -0.3347
 1938TIP3    H127449   2.519   3.317   1.078  0.0840  0.1289 -0.8488
 1938TIP3    H227450   2.513   3.439   0.988  0.0628 -0.1717 -1.2586
 1939TIP3   OH227451   5.388   0.791   8.504 -0.3986  0.4885  0.4454
 1939TIP3    H127452   5.386   0.740   8.423  1.3562  2.1755 -0.7604
 1939TIP3    H227453   5.296   0.800   8.529 -0.9610 -0.4260 -1.1280
 1940TIP3   OH227454   2.558   3.763   8.585 -0.6417 -0.5925 -0.3073
 1940TIP3    H127455   2.507   3.789   8.662 -2.0151 -0.4506 -1.2407
 1940TIP3    H227456   2.589   3.846   8.549 -0.1789 -0.6460 -0.0404
 1941TIP3   OH227457   4.253   2.656   7.555 -0.4051  0.6432 -0.5168
 1941TIP3    H127458   4.337   2.693   7.526 -0.2063  1.9648  1.4806
 1941TIP3    H227459   4.188   2.699   7.500  0.1578  0.4492 -1.3483
 1942TIP3   OH227460   0.567   6.018   7.474  0.1681  0.0047  0.1177
 1942TIP3    H127461   0.568   5.987   7.383 -2.9491  1.3368 -0.5085
 1942TIP3    H227462   0.657   6.007   7.504  0.9969 -1.8209 -2.6506
 1943TIP3   OH227463   0.667   1.293   1.577  0.4012 -0.6280 -0.2181
 1943TIP3    H127464   0.719   1.213   1.567  1.0834 -0.0949 -1.0668
 1943TIP3    H227465   0.668   1.311   1.671 -0.5180 -2.1026  0.0969
 1944TIP3   OH227466   0.828   5.497   7.830 -0.1411  0.4083  0.1506
 1944TIP3    H127467   0.889   5.545   7.773 -0.0673 -0.3893 -0.4648
 1944TIP3    H227468   0.881   5.426   7.866 -0.5375  0.1119  0.1482
 1945TIP3   OH227469   4.953   4.954   6.854 -0.0566 -0.0045 -0.7218
 1945TIP3    H127470   4.935   4.867   6.890  0.3955 -0.0622 -0.6254
 1945TIP3    H227471   4.979   5.006   6.930  0.8648 -0.1161 -0.9515
 1946TIP3   OH227472   5.234   6.089   7.092 -0.3473 -0.0219  0.1218
 1946TIP3    H127473   5.223   6.182   7.072 -2.2524 -0.2407  0.0486
 1946TIP3    H227474   5.296   6.058   7.026  0.5287  1.2174  0.3084
 1947TIP3   OH227475   3.350   3.182   8.467 -0.0318  0.3033  0.0301
 1947TIP3    H127476   3.309   3.144   8.545  1.3843 -1.8742 -0.1895
 1947TIP3    H227477   3.430   3.223   8.499 -0.0671  0.4981 -0.1293
 1948TIP3   OH227478   5.532   5.684   1.846  1.0100  0.2363 -0.1233
 1948TIP3    H127479   5.549   5.777   1.838  0.3241  0.2166 -2.6866
 1948TIP3    H227480   5.611   5.642   1.812  0.2778 -0.0182 -1.6053
 1949TIP3   OH227481   4.104   0.408   0.392  0.1040  0.6234  0.0636
 1949TIP3    H127482   4.181   0.351   0.388  0.9478  1.6373  1.0996
 1949TIP3    H227483   4.030   0.349   0.381  1.0061 -0.4579 -0.3930
 1950TIP3   OH227484   6.807   1.520   1.531  0.2704  0.2017 -0.2526
 1950TIP3    H127485   6.819   1.494   1.623 -1.2794  0.4832  0.0755
 1950TIP3    H227486   6.887   1.494   1.487  0.8266 -0.4340  1.0867
 1951TIP3   OH227487   2.614   5.907   1.748  0.1037 -0.4325 -0.1655
 1951TIP3    H127488   2.673   5.978   1.724 -0.1575 -0.1822 -0.0784
 1951TIP3    H227489   2.615   5.905   1.844 -1.3048  0.6851 -0.0938
 1952TIP3   OH227490   6.285   3.081   0.198  0.4985 -0.3923  0.1864
 1952TIP3    H127491   6.364   3.090   0.251  0.2232  1.0271  0.4074
 1952TIP3    H227492   6.312   3.109   0.110  0.4799 -0.8673  0.0271
 1953TIP3   OH227493   1.797   0.802   1.087 -0.1580  0.1884 -0.0745
 1953TIP3    H127494   1.773   0.887   1.049  1.8131  0.7123 -0.3007
 1953TIP3    H227495   1.891   0.809   1.103 -0.4091 -0.9952  2.4614
 1954TIP3   OH227496   1.602   5.104   6.560 -0.3568  0.0560 -0.4753
 1954TIP3    H127497   1.520   5.055   6.557 -0.9577  0.7610  2.2554
 1954TIP3    H227498   1.575   5.196   6.565  0.5608  0.2684  0.9099
 1955TIP3   OH227499   1.791   0.756   7.404  0.2395 -0.2879 -0.2167
 1955TIP3    H127500   1.817   0.676   7.359 -0.3899 -1.1050  0.8186
 1955TIP3    H227501   1.703   0.775   7.371  0.1903 -0.3025 -0.0937
 1956TIP3   OH227502   3.122   4.467   8.198 -0.5183  0.2141  0.0347
 1956TIP3    H127503   3.198   4.448   8.144 -1.0350 -1.8121 -0.0479
 1956TIP3    H227504   3.079   4.540   8.154  0.1225 -0.1389 -1.2052
 1957TIP3   OH227505   1.922   0.821   6.431  0.3737  0.2888  0.0465
 1957TIP3    H127506   1.989   0.822   6.362 -1.1319 -0.9830 -1.5422
 1957TIP3    H227507   1.966   0.783   6.507  2.5978  3.3532  0.4517
 1958TIP3   OH227508   5.774   2.862   8.354  1.0348  0.2570 -0.0984
 1958TIP3    H127509   5.832   2.816   8.414  1.0005  0.6780  0.2646
 1958TIP3    H227510   5.736   2.932   8.407  1.0039  0.6331 -0.6099
 1959TIP3   OH227511   1.731   5.854   8.771 -0.5080 -0.5450  0.2351
 1959TIP3    H127512   1.743   5.796   8.695  0.4242  0.0437 -0.0855
 1959TIP3    H227513   1.705   5.938   8.733  0.7291 -0.0183  0.4732
 1960TIP3   OH227514   0.053   4.407   8.454  0.3569 -0.6995  0.4514
 1960TIP3    H127515   0.022   4.364   8.375  0.2196 -1.1649  0.7556
 1960TIP3    H227516   0.015   4.357   8.526 -0.4093  0.3718  0.8136
 1961TIP3   OH227517   4.350   5.841   1.567 -0.3046  0.4110 -0.6276
 1961TIP3    H127518   4.339   5.853   1.662  0.7949 -0.6300 -0.3309
 1961TIP3    H227519   4.270   5.798   1.539  0.2042 -1.1890  0.2444
 1962TIP3   OH227520   5.361   2.663   7.972 -0.1198 -0.0106  0.6001
 1962TIP3    H127521   5.355   2.628   7.883 -1.3453  2.2214 -0.2791
 1962TIP3    H227522   5.454   2.658   7.994  0.2928 -0.0710 -1.0471
 1963TIP3   OH227523   3.148   2.864   6.612 -0.1504  0.3613 -0.2090
 1963TIP3    H127524   3.238   2.892   6.629  0.0254 -0.4731  0.3390
 1963TIP3    H227525   3.152   2.824   6.525 -0.4788  2.2834 -1.1397
 1964TIP3   OH227526   2.477   5.771   0.337 -0.5766 -0.2180  0.1673
 1964TIP3    H127527   2.540   5.743   0.271  1.5087  1.5246  1.2953
 1964TIP3    H227528   2.441   5.690   0.373  1.8522 -1.3416  0.2386
 1965TIP3   OH227529   4.025   1.164   7.288  0.6899  0.7991 -0.2168
 1965TIP3    H127530   3.943   1.151   7.337  1.2405 -0.5539  0.3999
 1965TIP3    H227531   4.058   1.248   7.319  0.8184  0.1745  1.4794
 1966TIP3   OH227532   2.176   2.437   7.893 -0.0237  0.2239  0.6049
 1966TIP3    H127533   2.178   2.344   7.871  0.5742  0.4000 -0.1070
 1966TIP3    H227534   2.083   2.461   7.887  0.0780  0.2484 -1.7400
 1967TIP3   OH227535   3.773   4.325   6.832  0.1797 -0.5275  0.1634
 1967TIP3    H127536   3.850   4.357   6.784  0.5769 -0.3432  0.9202
 1967TIP3    H227537   3.719   4.402   6.846  1.1424 -0.1409  1.9963
 1968TIP3   OH227538   0.890   3.772   0.716 -0.1179 -0.0867  0.0839
 1968TIP3    H127539   0.831   3.771   0.791  0.4822 -1.7937  0.5746
 1968TIP3    H227540   0.833   3.784   0.641 -0.7751  1.1533  0.7489
 1969TIP3   OH227541   5.514   6.154   1.408  0.0839  0.1989  0.3097
 1969TIP3    H127542   5.484   6.178   1.496  0.8549  0.5658  0.4802
 1969TIP3    H227543   5.610   6.156   1.414  0.1430  0.2910 -0.5636
 1970TIP3   OH227544   0.709   4.393   8.415 -0.1669 -0.3480  0.0590
 1970TIP3    H127545   0.776   4.460   8.402 -0.2730 -0.2263  0.1319
 1970TIP3    H227546   0.630   4.431   8.375  0.0284 -0.8761 -0.8629
 1971TIP3   OH227547   1.526   1.723   8.645  0.2804  0.0909  0.0083
 1971TIP3    H127548   1.450   1.667   8.662 -2.5104  3.5331 -0.1087
 1971TIP3    H227549   1.510   1.802   8.696  4.5264  0.5543  0.9660
 1972TIP3   OH227550   5.249   0.638   0.945  0.1042 -0.1953  0.3824
 1972TIP3    H127551   5.200   0.655   0.865 -1.9182 -1.9489  1.1559
 1972TIP3    H227552   5.321   0.581   0.918  0.5189  0.6669 -0.4204
 1973TIP3   OH227553   3.431   2.811   0.366  0.4254 -0.0042  0.2533
 1973TIP3    H127554   3.505   2.768   0.324  1.0712  0.7769  0.5547
 1973TIP3    H227555   3.459   2.903   0.376 -0.6972  0.3669  0.1056
 1974TIP3   OH227556   3.980   1.857   8.294  0.4006  0.2087  0.1728
 1974TIP3    H127557   3.885   1.865   8.299  0.2174 -1.8613  0.8728
 1974TIP3    H227558   4.009   1.853   8.385  1.3300  2.0404  0.0077
 1975TIP3   OH227559   0.488   6.352   0.957  0.4822 -0.5324  0.3706
 1975TIP3    H127560   0.559   6.405   0.921  0.9824 -1.0334  0.6023
 1975TIP3    H227561   0.532   6.272   0.989 -0.0909 -0.5498  1.1357
 1976TIP3   OH227562   4.157   3.257   2.301  0.6127  0.2597  0.1321
 1976TIP3    H127563   4.226   3.244   2.366 -0.1966 -2.1387  0.6121
 1976TIP3    H227564   4.082   3.287   2.353  0.4524  0.0128  0.0425
 1977TIP3   OH227565   4.034   5.874   8.167 -0.1442 -0.1187  0.2508
 1977TIP3    H127566   4.075   5.953   8.202  4.8293 -0.3151 -4.0566
 1977TIP3    H227567   4.060   5.805   8.228  0.7753  0.7114  0.8298
 1978TIP3   OH227568   5.911   1.121   1.769 -0.4608  0.6208  0.4312
 1978TIP3    H127569   5.877   1.145   1.855  0.7846 -0.7534  1.3492
 1978TIP3    H227570   5.981   1.184   1.752 -0.3536  0.5658  0.6670
 1979TIP3   OH227571   1.290   2.616   8.116 -0.0458  0.1588  0.1169
 1979TIP3    H127572   1.245   2.532   8.104  1.4449 -0.5741 -0.6574
 1979TIP3    H227573   1.377   2.591   8.149  0.0115  1.4813  1.0147
 1980TIP3   OH227574   5.204   4.767   0.877 -0.0705 -0.6445  0.0051
 1980TIP3    H127575   5.151   4.708   0.823 -0.0395 -0.9467  0.2994
 1980TIP3    H227576   5.170   4.854   0.858 -0.5518 -0.8198  0.0527
 1981TIP3   OH227577   0.669   5.045   0.860  0.3118  0.5666 -0.0141
 1981TIP3    H127578   0.614   4.981   0.816  1.7067 -0.1491 -0.7946
 1981TIP3    H227579   0.649   5.128   0.817  0.2235  0.2241 -0.6368
 1982TIP3   OH227580   5.093   4.609   0.671  0.4206  0.2187 -0.0985
 1982TIP3    H127581   5.159   4.554   0.629  0.5792 -0.5213  1.0972
 1982TIP3    H227582   5.036   4.548   0.718 -0.3831  0.9491 -0.0839
 1983TIP3   OH227583   3.640   4.607   8.798 -0.1228 -0.5168  0.6978
 1983TIP3    H127584   3.594   4.631   8.718  1.4323 -0.6576 -0.2800
 1983TIP3    H227585   3.727   4.645   8.788  1.3550 -3.6011  0.6131
 1984TIP3   OH227586   3.840   1.879   7.200  0.3207 -0.0377  0.5760
 1984TIP3    H127587   3.816   1.837   7.282 -2.1364 -0.7452 -0.4285
 1984TIP3    H227588   3.929   1.911   7.215  0.5063 -1.4430  2.9773
 1985TIP3   OH227589   2.613   2.865   2.835  0.2101  0.1273  0.2512
 1985TIP3    H127590   2.585   2.846   2.746  1.0100  0.5655 -0.1058
 1985TIP3    H227591   2.588   2.788   2.885  2.9391 -1.7756 -1.0522
 1986TIP3   OH227592   4.410   3.550   2.416  0.3416 -0.2911  0.3815
 1986TIP3    H127593   4.398   3.492   2.491 -0.3528 -0.5953  0.0531
 1986TIP3    H227594   4.353   3.625   2.434  0.5433 -0.1366  0.3813
 1987TIP3   OH227595   1.834   6.786   0.678 -0.3679  0.1808 -0.2099
 1987TIP3    H127596   1.915   6.740   0.701  0.1007 -0.6351 -3.0562
 1987TIP3    H227597   1.838   6.868   0.727 -0.0817 -1.6918  3.2048
 1988TIP3   OH227598   4.642   0.341   8.281  0.4386  0.1128 -0.5723
 1988TIP3    H127599   4.566   0.337   8.223  1.4390  1.5706 -2.0559
 1988TIP3    H227600   4.685   0.424   8.260  2.2079 -0.4591  0.5431
 1989TIP3   OH227601   1.191   2.477   7.260 -0.2250 -1.2153 -0.3354
 1989TIP3    H127602   1.128   2.548   7.275  1.0215 -0.3935  1.2863
 1989TIP3    H227603   1.212   2.484   7.167 -3.2335 -2.1683 -1.2119
 1990TIP3   OH227604   2.716   5.086   8.018  0.5696  0.2423  0.3705
 1990TIP3    H127605   2.670   5.131   7.948  1.6143  0.3901 -0.2387
 1990TIP3    H227606   2.661   5.010   8.037  1.1502 -0.8461 -1.9171
 1991TIP3   OH227607   3.306   0.428   8.129  0.0263 -0.1121  0.1905
 1991TIP3    H127608   3.264   0.505   8.168 -1.7370 -0.8743 -0.0935
 1991TIP3    H227609   3.360   0.392   8.200  0.1571  0.8612  0.6080
 1992TIP3   OH227610   6.060   5.139   1.216 -0.4905 -0.2781 -0.1468
 1992TIP3    H127611   5.994   5.134   1.285  0.3365 -2.5514  0.5690
 1992TIP3    H227612   6.130   5.081   1.246  1.1376  0.8499 -1.6136
 1993TIP3   OH227613   4.699   2.605   1.424 -0.3537 -0.2592  0.4696
 1993TIP3    H127614   4.680   2.649   1.508 -0.7817  2.6558 -1.0105
 1993TIP3    H227615   4.793   2.584   1.429  0.5840  3.2010  0.4359
 1994TIP3   OH227616   5.491   6.797   7.471  0.3014 -0.1845  0.7687
 1994TIP3    H127617   5.423   6.862   7.455  0.5023 -0.0218  0.5654
 1994TIP3    H227618   5.489   6.782   7.565 -1.2463 -1.5317  0.5489
 1995TIP3   OH227619   5.692   0.516   1.460  0.3235 -0.2939  0.4618
 1995TIP3    H127620   5.774   0.556   1.489  0.1317 -1.2624  2.5803
 1995TIP3    H227621   5.638   0.514   1.539 -1.1531 -1.0933 -0.5311
 1996TIP3   OH227622   0.577   1.139   8.493 -0.4417 -0.6572  0.3125
 1996TIP3    H127623   0.518   1.183   8.554  0.6891 -0.5034  1.3282
 1996TIP3    H227624   0.651   1.111   8.547  0.7374 -0.2564 -1.0309
 1997TIP3   OH227625   0.981   4.027   2.544  0.6000 -0.2482  0.4835
 1997TIP3    H127626   1.038   3.983   2.607  1.2529 -0.1830 -0.0417
 1997TIP3    H227627   0.929   4.088   2.595  1.6620  0.3602  0.8666
 1998TIP3   OH227628   5.866   2.070   7.364 -0.6286 -0.4425 -0.0578
 1998TIP3    H127629   5.816   2.151   7.374 -1.5918 -0.9619 -0.4657
 1998TIP3    H227630   5.898   2.072   7.274  0.7872  0.2538  0.4312
 1999TIP3   OH227631   4.279   5.003   1.740  0.0451 -0.0277  0.5875
 1999TIP3    H127632   4.343   5.040   1.800  1.4976  1.0950 -1.5405
 1999TIP3    H227633   4.314   4.917   1.718 -0.3081 -0.2946  1.0439
 2000TIP3   OH227634   4.021   5.221   1.298 -0.2106  0.3265  0.3097
 2000TIP3    H127635   4.045   5.312   1.287  0.6991  0.0814  0.1894
 2000TIP3    H227636   4.061   5.195   1.381 -2.2560  0.6041  1.4542
 2001TIP3   OH227637   4.394   3.501   1.690  0.0995 -0.2327  0.1403
 2001TIP3    H127638   4.298   3.498   1.693 -0.0848  1.4182 -1.8022
 2001TIP3    H227639   4.421   3.412   1.670 -0.8648 -1.0989  2.3220
 2002TIP3   OH227640   5.935   5.853   2.309 -0.1810  0.1982  0.5485
 2002TIP3    H127641   5.870   5.922   2.324  1.1277  1.4288  0.8072
 2002TIP3    H227642   5.972   5.836   2.396 -0.9939 -1.3967  0.6184
 2003TIP3   OH227643   3.011   6.154   6.855 -0.7222  0.3000  0.0540
 2003TIP3    H127644   3.042   6.205   6.780  0.0394 -0.8625 -0.4541
 2003TIP3    H227645   3.048   6.067   6.842 -0.7140  0.0132  1.6934
 2004TIP3   OH227646   4.193   2.590   1.890 -0.1753 -0.6213 -0.1927
 2004TIP3    H127647   4.285   2.569   1.907  0.5114  0.6251 -2.0217
 2004TIP3    H227648   4.176   2.669   1.941 -0.2758 -0.8966  0.2081
 2005TIP3   OH227649   3.169   6.837   8.471  0.2462 -0.4373  0.1605
 2005TIP3    H127650   3.232   6.888   8.420 -0.1307  1.4949  1.5176
 2005TIP3    H227651   3.217   6.759   8.499  1.4095  0.0485 -0.4468
 2006TIP3   OH227652   1.731   0.259   8.014  0.2407 -0.2764 -0.0252
 2006TIP3    H127653   1.708   0.343   8.053 -0.9487 -0.5352 -0.1357
 2006TIP3    H227654   1.649   0.209   8.014  0.4303 -0.6811 -1.8353
 2007TIP3   OH227655   0.337   1.410   7.182  0.0539 -0.0680  0.8184
 2007TIP3    H127656   0.395   1.483   7.204  1.0366 -0.2366 -1.0096
 2007TIP3    H227657   0.250   1.448   7.179  0.3657  0.7026  1.3400
 2008TIP3   OH227658   0.380   0.992   1.771  0.2467  0.1587 -0.0353
 2008TIP3    H127659   0.293   0.990   1.732 -1.0278  0.6389  2.5681
 2008TIP3    H227660   0.400   1.085   1.782  0.1248  0.0462  1.2916
 2009TIP3   OH227661   0.821   3.519   0.947 -0.0226  0.2516 -0.4983
 2009TIP3    H127662   0.745   3.468   0.975 -0.4141  0.9303 -0.3145
 2009TIP3    H227663   0.794   3.610   0.956  0.2278  0.5041 -2.0053
 2010TIP3   OH227664   2.874   5.280   0.685 -0.3351  0.4464 -0.1917
 2010TIP3    H127665   2.799   5.333   0.710 -0.6156  0.6094 -1.3474
 2010TIP3    H227666   2.881   5.214   0.754 -2.6617 -0.7093 -0.9595
 2011TIP3   OH227667   6.541   4.842   2.459  0.4429 -0.4880  0.4776
 2011TIP3    H127668   6.606   4.793   2.409  0.7005  1.0108 -0.7345
 2011TIP3    H227669   6.583   4.925   2.479 -0.7125  0.0964  0.5868
 2012TIP3   OH227670   6.588   1.440   6.983  0.3128  0.2147 -0.4915
 2012TIP3    H127671   6.664   1.496   6.967  1.1951  0.0818  2.6478
 2012TIP3    H227672   6.537   1.487   7.048 -0.9711 -0.9077 -0.6514
 2013TIP3   OH227673   6.002   4.291   2.529  0.3381 -0.1087 -0.1062
 2013TIP3    H127674   5.946   4.301   2.606  0.5387  0.5402 -0.0331
 2013TIP3    H227675   5.959   4.225   2.475 -0.4307  0.2837  0.0133
 2014TIP3   OH227676   0.288   5.294   0.828  0.0867 -0.0573  0.1994
 2014TIP3    H127677   0.303   5.356   0.899 -0.5732  0.2310  0.1012
 2014TIP3    H227678   0.375   5.267   0.799  0.3757 -0.8918  1.7328
 2015TIP3   OH227679   4.768   6.674   1.024 -0.0012  0.3461  0.1498
 2015TIP3    H127680   4.746   6.623   1.102 -1.3435  0.4365 -0.1484
 2015TIP3    H227681   4.839   6.732   1.052 -2.3749  2.4877  2.2181
 2016TIP3   OH227682   5.130   0.070   1.349  0.4337 -0.5892  0.4362
 2016TIP3    H127683   5.225   0.074   1.349  0.4234 -0.0976 -0.6083
 2016TIP3    H227684   5.109  -0.013   1.308  0.4076 -1.6377  2.4560
 2017TIP3   OH227685   0.218   1.577   1.771 -0.0639  0.0938  0.2072
 2017TIP3    H127686   0.142   1.521   1.789 -0.7326  0.8455 -0.1992
 2017TIP3    H227687   0.205   1.653   1.828 -1.2080  1.6081 -1.9098
 2018TIP3   OH227688   2.128   1.221   0.545 -0.1695 -0.4605 -0.4091
 2018TIP3    H127689   2.136   1.213   0.640  0.0503 -1.2699 -0.4870
 2018TIP3    H227690   2.184   1.296   0.523 -2.3196  1.4910  0.3690
 2019TIP3   OH227691   3.824   0.244   1.806 -0.3429 -0.1893  0.4769
 2019TIP3    H127692   3.748   0.285   1.847  0.6761  1.0016  1.2574
 2019TIP3    H227693   3.876   0.318   1.774  0.9342 -0.9315  0.7844
 2020TIP3   OH227694   1.156   1.429   0.699  0.0733  0.0946  0.2996
 2020TIP3    H127695   1.069   1.445   0.663 -0.5583 -1.6724  0.9280
 2020TIP3    H227696   1.207   1.506   0.673 -1.6726  1.2121 -0.0151
 2021TIP3   OH227697   5.298   1.505   2.317 -0.1581  0.0334 -0.5191
 2021TIP3    H127698   5.354   1.494   2.240  0.9483 -0.9054  0.3810
 2021TIP3    H227699   5.342   1.572   2.369  1.9099 -2.7572  1.6369
 2022TIP3   OH227700   4.289   6.238   0.040  0.2345 -1.0057 -0.1543
 2022TIP3    H127701   4.381   6.263   0.054  0.1094 -0.2633 -0.5798
 2022TIP3    H227702   4.286   6.145   0.060  1.3418 -1.3124 -1.3047
 2023TIP3   OH227703   0.729   2.027   7.427 -0.5455  0.1911 -0.3275
 2023TIP3    H127704   0.722   2.117   7.396 -0.7862 -0.1980 -1.4367
 2023TIP3    H227705   0.771   1.980   7.355 -0.2778 -0.5575  0.3029
 2024TIP3   OH227706   2.855   0.763   7.473  0.0530  0.5678 -0.2435
 2024TIP3    H127707   2.774   0.724   7.507 -0.6213  2.0401 -0.0996
 2024TIP3    H227708   2.917   0.690   7.471 -0.9996 -0.3909  0.5173
 2025TIP3   OH227709   3.632   5.385   7.805  0.4106 -0.1704  0.4683
 2025TIP3    H127710   3.696   5.441   7.850 -0.3824  0.5439  0.7298
 2025TIP3    H227711   3.615   5.430   7.722 -0.5144  0.1941  0.8415
 2026TIP3   OH227712   0.859   5.181   7.893 -0.3203 -0.1346  0.4347
 2026TIP3    H127713   0.768   5.202   7.872  0.5273  4.1594  0.1491
 2026TIP3    H227714   0.860   5.173   7.989 -0.8601  0.7536  0.5246
 2027TIP3   OH227715   4.398   6.127   1.826 -0.3276 -0.3862  0.1839
 2027TIP3    H127716   4.421   6.135   1.734  0.8004 -2.3800  0.2393
 2027TIP3    H227717   4.436   6.205   1.867 -0.5731  0.3647 -0.9565
 2028TIP3   OH227718   4.569   4.880   0.723 -0.4269 -0.3882 -0.0816
 2028TIP3    H127719   4.580   4.921   0.808  0.1383 -1.5019  0.3923
 2028TIP3    H227720   4.527   4.947   0.669  0.9696  1.0144  0.5073
 2029TIP3   OH227721   6.524   1.849   1.130 -0.5493 -0.4206  0.5656
 2029TIP3    H127722   6.513   1.873   1.038  2.3729 -0.0490  0.2185
 2029TIP3    H227723   6.502   1.756   1.134  0.3814 -0.7258 -0.8015
 2030TIP3   OH227724   4.251   0.451   2.004 -0.0942  0.1306  0.0337
 2030TIP3    H127725   4.225   0.414   2.088 -2.0161 -0.1400 -0.6464
 2030TIP3    H227726   4.245   0.546   2.016 -1.5297  0.0714 -0.1317
 2031TIP3   OH227727   6.304   6.162   2.181  0.0389  0.2343 -0.2768
 2031TIP3    H127728   6.303   6.178   2.276  0.7384 -2.7078  0.3349
 2031TIP3    H227729   6.397   6.163   2.157  0.2643 -3.1181  0.0104
 2032TIP3   OH227730   1.448   1.770   7.629 -0.7025  0.0584 -0.2306
 2032TIP3    H127731   1.403   1.851   7.653 -0.3950  0.4914 -1.0518
 2032TIP3    H227732   1.391   1.700   7.660  0.0984  0.5307  2.5397
 2033TIP3   OH227733   2.952   4.740   0.254  0.5751 -0.0719 -1.1020
 2033TIP3    H127734   2.966   4.689   0.334  0.0145  2.0211  0.4251
 2033TIP3    H227735   2.994   4.689   0.185  0.3231 -2.4005  0.3562
 2034TIP3   OH227736   5.217   2.492   2.886  0.0334  0.7681 -0.2926
 2034TIP3    H127737   5.311   2.478   2.893  0.1190  0.6965 -1.3583
 2034TIP3    H227738   5.180   2.455   2.966  0.8933  0.6160  0.0374
 2035TIP3   OH227739   5.563   1.391   0.006  0.1844 -0.1531  0.3622
 2035TIP3    H127740   5.518   1.415   0.087  0.3152  1.2283  0.0647
 2035TIP3    H227741   5.495   1.398  -0.061  0.8091  2.2812 -0.1433
 2036TIP3   OH227742   3.142   6.627   7.172  0.4745 -0.3321 -0.0900
 2036TIP3    H127743   3.152   6.561   7.103 -1.0704 -0.6571 -0.0394
 2036TIP3    H227744   3.191   6.703   7.140 -1.4081  0.0605 -2.2884
 2037TIP3   OH227745   3.928   4.890   2.430  0.0483 -0.3102 -0.6365
 2037TIP3    H127746   3.889   4.878   2.344 -2.5368 -0.2384  0.4213
 2037TIP3    H227747   3.994   4.957   2.418  0.1533 -0.7269 -2.6520
 2038TIP3   OH227748   0.981   5.037   1.098  0.1485  0.8072 -0.3248
 2038TIP3    H127749   0.938   4.996   1.173  2.6739 -0.9374  0.3114
 2038TIP3    H227750   1.035   5.106   1.137 -0.5705  1.7083 -0.8879
 2039TIP3   OH227751   5.720   4.510   6.973 -0.4037  0.4161 -0.7055
 2039TIP3    H127752   5.802   4.559   6.979 -0.5722  0.7428 -0.9918
 2039TIP3    H227753   5.652   4.578   6.973 -0.7365  0.1132  0.5517
 2040TIP3   OH227754   6.717   2.437   0.671  0.1925 -0.1593  0.6445
 2040TIP3    H127755   6.716   2.398   0.584 -3.7834 -0.6853  0.7418
 2040TIP3    H227756   6.659   2.513   0.664  0.3393  0.2028  2.6718
 2041TIP3   OH227757   2.577   1.474   7.371  0.3834 -0.2531 -0.7358
 2041TIP3    H127758   2.519   1.541   7.333 -0.5679  0.1241  1.2146
 2041TIP3    H227759   2.665   1.508   7.357 -0.0161  0.6904 -1.0800
 2042TIP3   OH227760   4.613   1.917   8.322 -0.3553 -0.2787  0.3648
 2042TIP3    H127761   4.696   1.961   8.305 -0.7370  0.5054  0.4966
 2042TIP3    H227762   4.611   1.906   8.417 -0.4601 -0.1882  0.3725
 2043TIP3   OH227763   0.360   1.907   6.490  0.2912 -0.3088  0.2252
 2043TIP3    H127764   0.366   1.963   6.412  1.5935 -1.1108 -0.2860
 2043TIP3    H227765   0.412   1.951   6.556 -0.7000  0.3014  0.6150
 2044TIP3   OH227766   3.713   5.806   8.232  0.1063 -0.2648 -0.3412
 2044TIP3    H127767   3.749   5.785   8.318  0.0052  0.4295 -0.1236
 2044TIP3    H227768   3.788   5.834   8.180  0.0415  0.2080 -0.1913
 2045TIP3   OH227769   6.043   2.320   0.279 -0.0354  0.0444 -0.1701
 2045TIP3    H127770   5.966   2.321   0.336 -2.0912 -1.5536 -2.6543
 2045TIP3    H227771   6.087   2.237   0.299  0.6107  0.5713  0.6642
 2046TIP3   OH227772   3.091   6.682   7.727  0.3583 -0.0225 -0.7497
 2046TIP3    H127773   2.997   6.696   7.740  0.2725 -1.6715  0.9069
 2046TIP3    H227774   3.132   6.744   7.788  0.1745 -1.9263  1.4392
 2047TIP3   OH227775   6.057   3.969   1.678 -0.7028 -0.4348  0.0707
 2047TIP3    H127776   6.079   3.907   1.748  3.3425 -0.5217 -1.0248
 2047TIP3    H227777   6.045   3.913   1.601  2.7185 -0.1313 -0.8669
 2048TIP3   OH227778   1.938   1.667   1.683 -0.2373  0.0951 -0.4816
 2048TIP3    H127779   1.966   1.708   1.765  0.5515 -1.5515  0.1231
 2048TIP3    H227780   1.862   1.717   1.656 -1.5115 -0.2356  2.1091
 2049TIP3   OH227781   0.323   3.250   0.992  0.6807 -0.7852 -0.0443
 2049TIP3    H127782   0.362   3.166   1.017  1.5029 -0.7976 -1.2816
 2049TIP3    H227783   0.235   3.247   1.029  0.7368 -2.1524  0.0440
 2050TIP3   OH227784   4.506   5.713   8.248  0.5568 -0.2297 -0.1618
 2050TIP3    H127785   4.586   5.707   8.196  0.9363  0.3243  0.3541
 2050TIP3    H227786   4.528   5.672   8.331  0.6632  0.9312  0.3963
 2051TIP3   OH227787   1.843   1.630   0.917  0.0164  0.7635 -0.2128
 2051TIP3    H127788   1.833   1.544   0.958  0.4360  0.3697 -0.9329
 2051TIP3    H227789   1.753   1.659   0.902 -0.1363 -0.1173 -1.1211
 2052TIP3   OH227790   4.903   6.598   7.112  0.3014  0.5024  0.4661
 2052TIP3    H127791   4.926   6.683   7.073  1.2409  0.4141  0.7871
 2052TIP3    H227792   4.978   6.577   7.168  0.7707 -1.2116 -0.7210
 2053TIP3   OH227793   6.721   4.594   2.063  0.2146 -0.1574 -0.3356
 2053TIP3    H127794   6.812   4.603   2.032  0.5583 -1.7011  0.0855
 2053TIP3    H227795   6.693   4.510   2.026 -0.3787 -0.6035  1.0822
 2054TIP3   OH227796   6.635   1.628   1.942  0.0243  0.0948 -0.4247
 2054TIP3    H127797   6.633   1.688   2.017  0.9457  0.6613 -0.8330
 2054TIP3    H227798   6.675   1.548   1.975  0.4669  0.3588 -0.3081
 2055TIP3   OH227799   0.686   4.203   7.801 -0.2884  0.1081 -0.1541
 2055TIP3    H127800   0.633   4.278   7.828  0.2118  0.4351 -0.0742
 2055TIP3    H227801   0.720   4.167   7.883 -1.0971 -0.6441 -0.1300
 2056TIP3   OH227802   2.953   2.140   1.662 -0.1084 -0.1260 -0.2941
 2056TIP3    H127803   2.920   2.177   1.580 -0.4188 -0.8980 -0.5233
 2056TIP3    H227804   2.893   2.174   1.729 -1.0416 -1.0588 -0.6359
 2057TIP3   OH227805   2.972   5.898   1.567 -0.3226 -0.1094  0.4711
 2057TIP3    H127806   2.881   5.923   1.583  0.2333  1.1602  1.9933
 2057TIP3    H227807   3.017   5.917   1.650  1.2001 -1.3854 -0.0008
 2058TIP3   OH227808   3.357   4.669   8.082 -0.0940 -0.5479 -0.1343
 2058TIP3    H127809   3.438   4.676   8.132 -0.9900 -0.3631  1.3672
 2058TIP3    H227810   3.356   4.580   8.048  0.7219 -0.5541 -0.1417
 2059TIP3   OH227811   4.919   6.244   0.495 -0.0399 -0.0077 -0.4460
 2059TIP3    H127812   4.899   6.152   0.474 -1.4058  0.5257 -1.7443
 2059TIP3    H227813   4.933   6.245   0.589 -0.5853 -1.4581 -0.3188
 2060TIP3   OH227814   0.847   3.885   6.487  0.2557  0.0836 -0.0236
 2060TIP3    H127815   0.850   3.799   6.530 -1.2830  0.6028  1.1923
 2060TIP3    H227816   0.924   3.931   6.520 -0.1521 -0.0310  1.1205
 2061TIP3   OH227817   2.401   6.392   7.157  0.4184 -0.4574  0.0236
 2061TIP3    H127818   2.470   6.427   7.101 -0.5817  1.9576  0.1553
 2061TIP3    H227819   2.447   6.339   7.222  2.0183  0.0683 -0.6323
 2062TIP3   OH227820   3.281   4.124   8.088  0.2391 -0.0329  0.4227
 2062TIP3    H127821   3.284   4.111   7.993  2.1328 -1.2503  0.5829
 2062TIP3    H227822   3.293   4.219   8.100 -1.3579  0.3214 -0.5518
 2063TIP3   OH227823   6.192   3.053   8.687  0.2284 -0.1132 -0.7512
 2063TIP3    H127824   6.254   3.124   8.704 -0.0195 -0.2019  0.6804
 2063TIP3    H227825   6.127   3.061   8.757 -0.3719 -1.1315 -1.1649
 2064TIP3   OH227826   1.074   0.706   1.185 -0.2109 -0.2167  0.5010
 2064TIP3    H127827   1.116   0.658   1.256 -0.8657 -1.2964  0.1840
 2064TIP3    H227828   0.982   0.714   1.213 -0.2660  0.1912  0.2075
 2065TIP3   OH227829   6.436   3.259   6.904  0.7078 -0.2501  0.0678
 2065TIP3    H127830   6.471   3.215   6.826 -2.0372 -0.4944 -1.1516
 2065TIP3    H227831   6.413   3.187   6.963  2.2420 -0.0877  0.9038
 2066TIP3   OH227832   1.742   1.863   7.346 -0.1703 -0.5688  0.0989
 2066TIP3    H127833   1.828   1.846   7.385 -0.4078 -0.8953  0.4774
 2066TIP3    H227834   1.688   1.789   7.372  0.0964 -1.6689 -2.2079
 2067TIP3   OH227835   6.054   0.054   7.945  0.1642  0.6088  0.0413
 2067TIP3    H127836   6.040   0.144   7.918 -1.0373  0.4647  0.1284
 2067TIP3    H227837   6.107   0.016   7.876  1.0470  1.4844  0.2141
 2068TIP3   OH227838   6.725   5.041   1.796 -0.1012 -0.3322  0.4791
 2068TIP3    H127839   6.700   4.949   1.799  1.4690 -0.7740  2.6797
 2068TIP3    H227840   6.645   5.087   1.770 -2.3158 -1.9435  3.7896
 2069TIP3   OH227841   1.161   3.393   7.936  0.0292 -0.1152  0.0539
 2069TIP3    H127842   1.201   3.329   7.994  0.1187 -0.0555  0.0589
 2069TIP3    H227843   1.226   3.462   7.928 -0.8757  0.9747  1.6795
 2070TIP3   OH227844   2.525   3.731   0.648  0.3081  0.7728 -0.1581
 2070TIP3    H127845   2.576   3.790   0.593  1.9657  0.1442  0.6276
 2070TIP3    H227846   2.542   3.643   0.613  0.4510  0.4735  0.6272
 2071TIP3   OH227847   0.548   5.760   8.142 -0.1280 -0.0938  0.4022
 2071TIP3    H127848   0.539   5.688   8.080 -2.0552  1.1332 -0.8285
 2071TIP3    H227849   0.461   5.798   8.148  0.6644  1.6669  1.6130
 2072TIP3   OH227850   3.270   6.617   7.480  1.1449  0.7893  0.1515
 2072TIP3    H127851   3.219   6.640   7.557 -0.5210  1.1449 -0.9847
 2072TIP3    H227852   3.211   6.563   7.427  2.0065  1.0533 -1.1537
 2073TIP3   OH227853   6.597   4.706   8.515 -0.0188 -0.1599  0.1692
 2073TIP3    H127854   6.592   4.801   8.516  0.8118 -0.1174  0.8521
 2073TIP3    H227855   6.666   4.684   8.578 -1.7715 -1.3143  1.8044
 2074TIP3   OH227856   4.492   1.814   1.797 -0.4560 -0.2064  0.3116
 2074TIP3    H127857   4.571   1.867   1.802  0.3889 -1.2733 -1.0627
 2074TIP3    H227858   4.505   1.745   1.863 -0.7595  0.2395  0.8521
 2075TIP3   OH227859   1.275   2.576   6.414  0.0049  0.4396  0.1368
 2075TIP3    H127860   1.186   2.611   6.411  0.0086  0.8514  2.6070
 2075TIP3    H227861   1.306   2.581   6.324 -2.7131 -0.4157 -0.9458
 2076TIP3   OH227862   4.147   4.603   8.611  0.4433 -0.0791 -0.1717
 2076TIP3    H127863   4.179   4.691   8.596  0.6151 -0.1357 -0.1361
 2076TIP3    H227864   4.207   4.566   8.675 -1.6109  0.9689  2.5505
 2077TIP3   OH227865   0.634   1.922   7.650  0.2425  0.1129 -0.1083
 2077TIP3    H127866   0.545   1.949   7.673  0.8633  1.6454  0.6362
 2077TIP3    H227867   0.648   1.959   7.563 -0.1281 -0.9009 -0.6260
 2078TIP3   OH227868   6.494   4.808   0.228 -0.8092 -0.4679  0.2096
 2078TIP3    H127869   6.486   4.848   0.315  0.2095 -0.1167  0.1567
 2078TIP3    H227870   6.414   4.833   0.183 -0.0831  1.8841  0.0498
 2079TIP3   OH227871   4.754   5.431   0.520 -0.3041  0.7822 -0.2755
 2079TIP3    H127872   4.766   5.508   0.575 -0.9746  1.7588 -1.4478
 2079TIP3    H227873   4.763   5.357   0.580 -0.5994  1.7855  1.0526
 2080TIP3   OH227874   0.844   2.655   7.430 -0.0946 -0.2169  0.0921
 2080TIP3    H127875   0.866   2.670   7.338 -0.7159 -1.0686 -0.2033
 2080TIP3    H227876   0.751   2.633   7.429 -0.8897  2.6304  1.2379
 2081TIP3   OH227877   5.863   0.781   7.780  0.1534  0.2396  0.3043
 2081TIP3    H127878   5.909   0.841   7.721  0.1762  2.6048  2.5103
 2081TIP3    H227879   5.928   0.761   7.847 -0.7083  0.0594  1.1052
 2082TIP3   OH227880   4.595   3.333   2.243 -0.1604 -0.0851  0.6251
 2082TIP3    H127881   4.536   3.402   2.213 -0.0531  0.8182  2.3578
 2082TIP3    H227882   4.682   3.372   2.242  0.8296 -1.8902 -3.4423
 2083TIP3   OH227883   1.553   1.340   8.532 -0.5127  0.2989  0.0260
 2083TIP3    H127884   1.465   1.333   8.568 -0.6092  2.0846  0.2268
 2083TIP3    H227885   1.587   1.250   8.533 -1.9129 -0.2476  0.9798
 2084TIP3   OH227886   0.601   5.374   0.461  0.8003 -0.0847 -0.0420
 2084TIP3    H127887   0.601   5.467   0.435  0.9702  0.4882  1.8268
 2084TIP3    H227888   0.624   5.327   0.382 -1.9108  1.2511 -1.7450
 2085TIP3   OH227889   1.559   1.559   8.039  0.1290  0.0239  0.1793
 2085TIP3    H127890   1.590   1.541   7.951  0.2325  0.6664  0.0787
 2085TIP3    H227891   1.525   1.649   8.035 -0.2119 -0.0720  0.6974
 2086TIP3   OH227892   0.361   2.842   0.390  0.0638  0.6060  0.6791
 2086TIP3    H127893   0.274   2.843   0.350 -0.1227 -0.0102  1.0593
 2086TIP3    H227894   0.391   2.933   0.384 -0.7156  0.8773  0.7895
 2087TIP3   OH227895   4.816   0.925   0.358 -0.7752  0.2474  1.1396
 2087TIP3    H127896   4.873   0.911   0.282 -1.9712 -1.4223  0.4646
 2087TIP3    H227897   4.860   0.992   0.410 -0.9092  3.1174 -2.0658
 2088TIP3   OH227898   2.204   3.784   7.678 -0.0274 -0.4394 -0.1511
 2088TIP3    H127899   2.136   3.755   7.738  0.5091 -1.2450  0.0924
 2088TIP3    H227900   2.164   3.855   7.627 -0.6292 -0.0526  0.8424
 2089TIP3   OH227901   1.443   5.239   2.984  0.1055 -0.5336 -0.2234
 2089TIP3    H127902   1.376   5.288   2.936 -0.2449  0.2338  1.0067
 2089TIP3    H227903   1.394   5.170   3.029  0.0252  0.3891  1.1501
 2090TIP3   OH227904   5.981   0.752   2.238 -0.0537 -0.0657  0.2416
 2090TIP3    H127905   6.075   0.758   2.227  0.0493  2.5314  1.6059
 2090TIP3    H227906   5.957   0.833   2.283 -2.7798 -1.1747  1.0237
 2091TIP3   OH227907   4.007   1.148   6.723 -0.6410  0.0241 -0.3264
 2091TIP3    H127908   4.050   1.092   6.658 -0.1818  0.9244 -0.8326
 2091TIP3    H227909   4.003   1.234   6.680 -2.7078  0.0382 -0.1851
 2092TIP3   OH227910   6.023   2.685   0.769  0.7139 -0.8364  0.9971
 2092TIP3    H127911   6.049   2.603   0.811  0.5124 -2.0642 -1.1449
 2092TIP3    H227912   6.022   2.665   0.676 -2.3496  0.7268  0.5754
 2093TIP3   OH227913   6.181   6.699   2.512 -0.1476 -0.2065  1.3228
 2093TIP3    H127914   6.160   6.778   2.563  4.1559  2.0924  0.0144
 2093TIP3    H227915   6.222   6.640   2.575  1.1751  0.7825  1.4236
 2094TIP3   OH227916   6.447   4.307   7.365  0.2216 -0.1871  0.3021
 2094TIP3    H127917   6.471   4.300   7.273  1.4043  0.1181  0.5750
 2094TIP3    H227918   6.471   4.396   7.389 -0.1504 -0.2398  0.8965
 2095TIP3   OH227919   3.599   3.358   2.775  0.3820 -0.3798 -0.3396
 2095TIP3    H127920   3.667   3.405   2.825  0.3052  0.9877 -1.4564
 2095TIP3    H227921   3.570   3.421   2.709 -1.4847 -1.1873 -0.3502
 2096TIP3   OH227922   4.951   5.973   0.468 -0.3510  0.3879  0.1028
 2096TIP3    H127923   4.955   5.933   0.555  3.1525  1.8262  0.8058
 2096TIP3    H227924   4.952   5.900   0.407 -1.7285 -0.6226  1.2218
 2097TIP3   OH227925   3.281   0.316   0.598 -0.5578  0.7744 -0.5948
 2097TIP3    H127926   3.343   0.302   0.526 -0.4319 -2.3436 -0.0126
 2097TIP3    H227927   3.300   0.246   0.660 -2.3135  1.8986  1.3372
 2098TIP3   OH227928   4.470   2.041   7.464  0.4281  0.3985 -0.1713
 2098TIP3    H127929   4.431   2.045   7.551  0.2362 -1.5142 -0.1302
 2098TIP3    H227930   4.488   2.132   7.441 -2.1902  1.2059  0.6536
 2099TIP3   OH227931   5.438   6.707   8.426 -0.0885 -0.5441  0.1790
 2099TIP3    H127932   5.483   6.668   8.351 -0.9567 -0.3386 -0.4661
 2099TIP3    H227933   5.507   6.749   8.477  0.3914  0.1651 -1.0296
 2100TIP3   OH227934   2.577   5.487   1.422 -0.6859 -0.2521  0.5358
 2100TIP3    H127935   2.530   5.531   1.493 -1.1880 -0.8265  0.5702
 2100TIP3    H227936   2.607   5.404   1.462 -0.4660 -0.3154  0.2423
 2101TIP3   OH227937   4.340   2.912   2.493  0.3706  0.5972  0.4667
 2101TIP3    H127938   4.296   2.949   2.570 -1.5168  0.6794 -0.5985
 2101TIP3    H227939   4.304   2.962   2.420 -0.0916 -1.4309 -0.7445
 2102TIP3   OH227940   4.020   2.010   6.979 -0.3327 -0.0895  0.5085
 2102TIP3    H127941   3.925   1.999   6.991 -0.8973  0.4562 -2.5389
 2102TIP3    H227942   4.037   2.100   7.008 -0.6788 -0.2927  1.3669
 2103TIP3   OH227943   4.402   2.395   2.130 -0.6020  0.6189  0.1354
 2103TIP3    H127944   4.420   2.482   2.095 -0.8588  1.0848  1.1514
 2103TIP3    H227945   4.327   2.407   2.188 -1.9219 -0.6365 -1.2025
 2104TIP3   OH227946   3.386   6.234   0.837 -0.1605  0.0143 -0.1423
 2104TIP3    H127947   3.323   6.167   0.862 -0.1022  0.2013  0.5408
 2104TIP3    H227948   3.353   6.269   0.754  0.3635 -1.5457 -1.0426
 2105TIP3   OH227949   0.529   0.216   1.588 -0.3020 -0.4507  0.0877
 2105TIP3    H127950   0.547   0.139   1.643 -0.2037 -1.4187 -1.2581
 2105TIP3    H227951   0.505   0.284   1.651  0.3995 -1.3397  1.3831
 2106TIP3   OH227952   1.093   3.490   6.964  0.0351 -0.2471 -0.0160
 2106TIP3    H127953   1.113   3.399   6.982  0.4755  0.1703  1.8035
 2106TIP3    H227954   0.997   3.493   6.960  0.0212 -0.7919 -0.1751
 2107TIP3   OH227955   1.211   0.626   6.986 -0.8990  0.1283  0.4216
 2107TIP3    H127956   1.179   0.596   6.901  1.7933  1.4532 -1.2267
 2107TIP3    H227957   1.203   0.721   6.982 -1.9107  0.1609  2.2376
 2108TIP3   OH227958   0.286   1.620   2.268  0.1193 -0.1857  0.1465
 2108TIP3    H127959   0.341   1.672   2.209 -0.9648 -0.8001 -1.4602
 2108TIP3    H227960   0.335   1.539   2.280  0.8640  0.3633  1.0492
 2109TIP3   OH227961   5.483   2.400   8.565  0.2040  0.2353 -0.2748
 2109TIP3    H127962   5.526   2.315   8.569 -2.0706 -1.0328 -1.1923
 2109TIP3    H227963   5.533   2.448   8.498  1.7788 -0.1540  0.5590
 2110TIP3   OH227964   1.007   0.470   0.216  0.0805 -0.7205  0.6563
 2110TIP3    H127965   1.006   0.563   0.239  0.4182 -0.5549  0.0374
 2110TIP3    H227966   0.933   0.433   0.263 -0.2756 -0.0649  0.6291
 2111TIP3   OH227967   1.846   2.143   1.782 -0.1512 -0.2736  0.2443
 2111TIP3    H127968   1.759   2.106   1.764  0.1192 -0.9376  0.2864
 2111TIP3    H227969   1.864   2.117   1.872 -1.4040  2.8248  1.5699
 2112TIP3   OH227970   1.822   0.839   8.346  0.2695  0.2693  0.1704
 2112TIP3    H127971   1.833   0.910   8.283  0.3974  0.1924  0.1066
 2112TIP3    H227972   1.901   0.786   8.336 -0.6079 -0.8864 -1.0459
 2113TIP3   OH227973   4.496   2.019   8.100  0.1392  0.4956 -0.0391
 2113TIP3    H127974   4.416   1.968   8.109  0.6278 -0.9827 -3.0327
 2113TIP3    H227975   4.552   1.987   8.171 -0.9174 -0.4038  0.4283
 2114TIP3   OH227976   5.797   5.529   0.764  0.0459  0.1492  0.2832
 2114TIP3    H127977   5.781   5.587   0.689  0.5971  0.4128  0.3672
 2114TIP3    H227978   5.850   5.581   0.824  0.5049 -0.4247  0.3852
 2115TIP3   OH227979   4.202   5.892   1.017  0.2874 -0.3366  0.0717
 2115TIP3    H127980   4.294   5.913   1.001 -0.0358  0.0414 -1.5493
 2115TIP3    H227981   4.177   5.945   1.093  0.7539  1.5957 -1.0368
 2116TIP3   OH227982   6.237   3.491   1.223  0.1653 -0.3509  0.1447
 2116TIP3    H127983   6.301   3.453   1.283  0.2265 -1.4091 -0.5552
 2116TIP3    H227984   6.152   3.465   1.259  0.1838 -0.4879  0.0889
 2117TIP3   OH227985   0.651   6.524   7.750 -0.1973 -1.1791 -0.7207
 2117TIP3    H127986   0.600   6.541   7.671 -0.3607  0.2530 -0.3419
 2117TIP3    H227987   0.648   6.607   7.798 -1.0496 -2.3279  1.3375
 2118TIP3   OH227988   3.815   0.994   2.551 -0.0582 -0.3842  0.6251
 2118TIP3    H127989   3.775   1.020   2.634 -1.1687  0.7199 -0.2136
 2118TIP3    H227990   3.743   0.964   2.497  0.5461 -0.4619 -0.1660
 2119TIP3   OH227991   4.202   1.744   8.538  0.0767  0.1837  0.3603
 2119TIP3    H127992   4.207   1.751   8.634  0.4192  0.2329  0.3383
 2119TIP3    H227993   4.254   1.667   8.517  0.9670  0.8481  0.1101
 2120TIP3   OH227994   0.816   1.775   1.841  0.3081 -0.5835  0.0240
 2120TIP3    H127995   0.786   1.710   1.905 -1.0919  0.1909  0.1751
 2120TIP3    H227996   0.744   1.836   1.832  1.0898  0.2189 -1.1349
 2121TIP3   OH227997   1.110   0.224   1.716 -0.0452 -0.1488 -0.0287
 2121TIP3    H127998   1.119   0.293   1.650 -0.1198 -1.3126 -1.3246
 2121TIP3    H227999   1.046   0.257   1.778 -0.1976  0.8768 -0.7127
 2122TIP3   OH228000   2.440   6.781   8.124 -0.2625  0.2996  0.0441
 2122TIP3    H128001   2.455   6.819   8.038  0.1233  0.4690  0.1811
 2122TIP3    H228002   2.527   6.752   8.153 -0.5231 -0.5509  0.0029
 2123TIP3   OH228003   5.212   4.984   2.521  0.0281  0.1596 -0.1639
 2123TIP3    H128004   5.292   5.006   2.475 -0.0888  1.7667  0.3579
 2123TIP3    H228005   5.239   4.969   2.612 -0.1334 -0.3139 -0.1869
 2124TIP3   OH228006   5.161   3.085   8.540  0.0442  0.3094  0.0736
 2124TIP3    H128007   5.135   3.034   8.462  1.1714 -0.3583  0.1146
 2124TIP3    H228008   5.108   3.048   8.611  0.3384 -0.3257 -0.0345
 2125TIP3   OH228009   4.673   1.192   8.341  0.0793  0.7701  0.0925
 2125TIP3    H128010   4.611   1.137   8.293 -0.8855  2.1797 -0.3165
 2125TIP3    H228011   4.627   1.215   8.422  1.1853 -0.4911  1.1216
 2126TIP3   OH228012   0.335   4.589   0.300 -0.7551 -0.2322  0.3668
 2126TIP3    H128013   0.408   4.547   0.254 -1.1670 -1.4696  0.7771
 2126TIP3    H228014   0.311   4.664   0.245  1.1879  0.5613  0.5369
 2127TIP3   OH228015   3.333   0.627   6.922  0.4359 -0.6848 -0.4351
 2127TIP3    H128016   3.272   0.555   6.907  1.1961 -1.8547  1.6817
 2127TIP3    H228017   3.416   0.584   6.942  0.6448  0.6968  2.0242
 2128TIP3   OH228018   6.829   2.688   8.011 -0.0631 -0.0720  0.1698
 2128TIP3    H128019   6.812   2.723   7.923  0.3278  0.5361  0.3292
 2128TIP3    H228020   6.899   2.624   7.998 -0.3886 -0.3905 -0.0395
 2129TIP3   OH228021   5.130   6.531   7.269 -0.2048 -0.5203 -0.7840
 2129TIP3    H128022   5.157   6.449   7.310  0.0492 -0.6849 -1.2709
 2129TIP3    H228023   5.123   6.593   7.342  1.6268 -0.4359 -0.6307
 2130TIP3   OH228024   1.251   2.921   1.307 -0.0587  0.3256  0.1514
 2130TIP3    H128025   1.300   2.983   1.360  1.7721 -0.7211 -0.2153
 2130TIP3    H228026   1.317   2.881   1.249 -1.5061 -0.5307 -0.9848
 2131TIP3   OH228027   5.922   2.890   7.870 -0.0847  0.1829  0.3106
 2131TIP3    H128028   5.943   2.890   7.777  3.0492 -0.6623  0.9101
 2131TIP3    H228029   6.006   2.887   7.914 -1.4791 -0.3625  3.1956
 2132TIP3   OH228030   0.633   1.456   0.234 -0.2998  0.0421 -0.1182
 2132TIP3    H128031   0.684   1.426   0.309 -1.7782  0.2301  1.0159
 2132TIP3    H228032   0.643   1.552   0.234  0.8018 -0.0558 -1.0178
 2133TIP3   OH228033   3.867   5.835   0.964 -0.9238  0.1059 -0.0986
 2133TIP3    H128034   3.931   5.821   0.895  0.1458 -0.7534  1.0363
 2133TIP3    H228035   3.907   5.899   1.022 -0.7310 -0.9662  1.0039
 2134TIP3   OH228036   0.560   0.407   0.062 -0.3947 -0.3307 -0.3106
 2134TIP3    H128037   0.473   0.381   0.090 -0.5092  0.9246  0.5679
 2134TIP3    H228038   0.615   0.331   0.082 -1.1430 -0.8435 -0.1637
 2135TIP3   OH228039   2.328   5.559   1.851 -0.2812 -0.1761  0.3135
 2135TIP3    H128040   2.312   5.581   1.943  0.2555  1.7823 -0.0072
 2135TIP3    H228041   2.383   5.481   1.854  0.7002  0.5251  1.7099
 2136TIP3   OH228042   3.809   3.900   1.204 -0.3076 -0.2450  0.3761
 2136TIP3    H128043   3.794   3.857   1.288  4.4141 -1.3011  0.9593
 2136TIP3    H228044   3.862   3.838   1.154 -0.1618  1.6754 -2.0789
 2137TIP3   OH228045   0.309   6.048   0.278  0.1661  0.0367 -0.0452
 2137TIP3    H128046   0.273   6.136   0.286 -1.4285 -0.6280  0.4708
 2137TIP3    H228047   0.384   6.048   0.338 -1.2639  0.3565  1.8453
 2138TIP3   OH228048   1.091   2.550   0.204 -0.1943 -0.2199 -0.0854
 2138TIP3    H128049   1.043   2.468   0.215  1.8821 -1.5585 -0.4032
 2138TIP3    H228050   1.098   2.559   0.109 -0.5749  0.4446 -0.0525
 2139TIP3   OH228051   6.706   4.236   0.427  0.3307 -0.1900 -0.3961
 2139TIP3    H128052   6.800   4.255   0.421 -0.0485  1.7486 -0.6810
 2139TIP3    H228053   6.665   4.320   0.445 -1.3451 -1.0670  0.1104
 2140TIP3   OH228054   0.600   5.179   7.908  0.4372 -0.1661  0.3308
 2140TIP3    H128055   0.556   5.238   7.846  1.4010  1.0181  0.7295
 2140TIP3    H228056   0.531   5.153   7.969 -0.0704  0.3240 -0.0257
 2141TIP3   OH228057   5.458   0.461   0.849  0.6887 -0.8398  0.4691
 2141TIP3    H128058   5.510   0.382   0.865  2.4154  0.2332  0.3939
 2141TIP3    H228059   5.521   0.532   0.853 -0.3876  0.3361 -1.9335
 2142TIP3   OH228060   0.068   6.818   8.632  0.3507  0.0372 -0.4459
 2142TIP3    H128061   0.125   6.789   8.703  0.1496 -2.2933 -1.1579
 2142TIP3    H228062  -0.018   6.783   8.654  0.0746  0.1099 -1.3616
 2143TIP3   OH228063   1.612   1.188   1.774 -0.1809 -0.2265 -0.2197
 2143TIP3    H128064   1.570   1.234   1.847 -2.5273 -1.9667 -0.3287
 2143TIP3    H228065   1.669   1.123   1.816  0.1970  0.2471  0.0030
 2144TIP3   OH228066   1.883   4.753   8.433 -0.2668 -0.1419 -0.0317
 2144TIP3    H128067   1.830   4.688   8.387  3.7122 -2.7628 -1.3755
 2144TIP3    H228068   1.913   4.708   8.512  1.4879  0.4775 -0.2977
 2145TIP3   OH228069   3.566   2.737   1.466 -0.2175  0.5009  0.0839
 2145TIP3    H128070   3.485   2.733   1.518 -1.2044 -0.5463 -1.4501
 2145TIP3    H228071   3.634   2.757   1.530 -1.5442  0.4383  1.5859
 2146TIP3   OH228072   6.402   6.580   1.004  0.7863 -0.1930 -0.2709
 2146TIP3    H128073   6.362   6.645   1.063  1.3031  0.0933 -0.2327
 2146TIP3    H228074   6.495   6.584   1.024  1.1556  0.8285 -1.9788
 2147TIP3   OH228075   6.657   3.854   1.295  0.4705  0.0550 -0.4550
 2147TIP3    H128076   6.657   3.856   1.390 -0.2771  0.1465 -0.4545
 2147TIP3    H228077   6.565   3.859   1.270  0.5337 -1.6176 -1.1536
 2148TIP3   OH228078   6.623   0.296   1.515  0.6285  0.1159  0.1689
 2148TIP3    H128079   6.534   0.317   1.541 -0.2831  0.1489 -2.6246
 2148TIP3    H228080   6.627   0.200   1.515  0.3297  0.1020 -0.4691
 2149TIP3   OH228081   4.080   2.052   0.876  0.5101  0.1069  0.8964
 2149TIP3    H128082   4.162   2.067   0.923  1.1226  0.6056 -0.2865
 2149TIP3    H228083   4.012   2.081   0.936  1.2251  0.0864  1.7282
 2150TIP3   OH228084   0.393   4.015   7.246  0.3594 -0.6776 -0.4963
 2150TIP3    H128085   0.446   4.038   7.322  1.2174 -2.5268 -0.4920
 2150TIP3    H228086   0.305   4.047   7.268  1.0109  0.5991  0.3753
 2151TIP3   OH228087   0.498   0.452   7.652 -0.4129  0.0329  0.3738
 2151TIP3    H128088   0.499   0.521   7.719  1.0434  0.0067  0.4010
 2151TIP3    H228089   0.579   0.405   7.664 -0.9869 -1.1544 -0.2316
 2152TIP3   OH228090   4.315   3.151   2.037  0.3108 -0.1366  0.2766
 2152TIP3    H128091   4.263   3.138   2.116 -1.3704 -0.4535 -0.8334
 2152TIP3    H228092   4.253   3.182   1.971  1.6319 -0.0157 -0.9826
 2153TIP3   OH228093   4.417   0.557   8.416  0.0841  0.6763 -1.0432
 2153TIP3    H128094   4.465   0.541   8.497 -0.6215 -1.3306 -0.9653
 2153TIP3    H228095   4.326   0.568   8.444 -0.0341  0.8593 -1.4928
 2154TIP3   OH228096   2.560   5.884   7.323  1.2870 -0.5145  0.2076
 2154TIP3    H128097   2.591   5.912   7.410  0.7478 -0.0839  0.2608
 2154TIP3    H228098   2.510   5.804   7.341 -0.4438  0.5877  0.5627
 2155TIP3   OH228099   3.270   2.514   8.731 -0.3734  0.4430 -0.2280
 2155TIP3    H128100   3.251   2.539   8.821  0.7720  1.4475 -0.2408
 2155TIP3    H228101   3.239   2.588   8.678 -0.8403 -0.0437 -0.6524
 2156TIP3   OH228102   6.844   2.026   0.799  0.1374  0.0743  0.5138
 2156TIP3    H128103   6.922   2.081   0.791  0.1372  0.2024  1.2851
 2156TIP3    H228104   6.811   2.045   0.887 -1.7023  1.2823 -0.3706
 2157TIP3   OH228105   4.646   0.894   7.583 -0.1237 -0.1520  0.2161
 2157TIP3    H128106   4.737   0.872   7.605 -0.3487  0.0322  1.4395
 2157TIP3    H228107   4.641   0.884   7.488  1.0998 -0.4396  0.1598
 2158TIP3   OH228108   3.227   6.274   7.120  0.1478  0.2137  0.3740
 2158TIP3    H128109   3.178   6.322   7.053 -0.0572  0.2929  0.5800
 2158TIP3    H228110   3.211   6.182   7.099 -4.1441  0.0073  3.1974
 2159TIP3   OH228111   3.232   3.886   0.748  0.3409  0.7378  0.0963
 2159TIP3    H128112   3.267   3.813   0.799  1.7829  1.2257 -0.1455
 2159TIP3    H228113   3.175   3.845   0.684 -0.2338 -0.0182  1.0566
 2160TIP3   OH228114   0.966   1.000   7.046 -0.1160  0.3583  0.1441
 2160TIP3    H128115   0.949   1.092   7.027 -0.4727  0.3268  0.3128
 2160TIP3    H228116   1.060   0.996   7.062 -0.4145  1.1349  2.4991
 2161TIP3   OH228117   0.715   0.074   1.413  0.0483 -0.1514 -0.0410
 2161TIP3    H128118   0.707   0.158   1.460 -0.1026 -0.1142 -0.1311
 2161TIP3    H228119   0.627   0.059   1.378 -0.1048 -0.6959  0.5610
 2162TIP3   OH228120   4.590   5.547   6.992  0.8240  0.2549  0.1395
 2162TIP3    H128121   4.548   5.461   6.985 -0.3341  0.9362 -2.2585
 2162TIP3    H228122   4.677   5.534   6.955  1.1313 -0.1235  0.9510
 2163TIP3   OH228123   1.881   1.115   1.293 -0.1845 -0.5022  0.4378
 2163TIP3    H128124   1.878   1.090   1.200  0.6100 -0.8881  0.5082
 2163TIP3    H228125   1.949   1.059   1.331  0.8582  0.9779  0.8456
 2164TIP3   OH228126   1.453   0.385   6.948  0.7411 -0.2991  0.3395
 2164TIP3    H128127   1.422   0.407   6.860 -1.5776  0.2387  1.2308
 2164TIP3    H228128   1.538   0.343   6.934 -0.5181 -2.1982 -2.3125
 2165TIP3   OH228129   4.963   1.573   1.369  0.6027 -0.5328 -0.6087
 2165TIP3    H128130   4.935   1.554   1.459  1.2535 -3.0448 -0.8499
 2165TIP3    H228131   5.017   1.651   1.376 -2.9593  2.0978  0.4583
 2166TIP3   OH228132   3.004   3.631   2.932  0.5038  0.6480  0.0767
 2166TIP3    H128133   3.078   3.599   2.983 -0.1423 -2.1945 -0.6284
 2166TIP3    H228134   3.038   3.641   2.843 -0.2390 -2.4617 -0.6831
 2167TIP3   OH228135   5.812   3.883   1.846 -0.1521 -0.1896 -0.1776
 2167TIP3    H128136   5.814   3.911   1.937 -1.9628  0.6549 -0.3480
 2167TIP3    H228137   5.877   3.813   1.840  1.6923  1.2867  1.1974
 2168TIP3   OH228138   3.732   0.466   0.973  0.3030  0.5949 -0.4632
 2168TIP3    H128139   3.730   0.376   1.006 -0.6386  0.8714  0.3072
 2168TIP3    H228140   3.699   0.519   1.046 -2.2859  1.2071 -1.9240
 2169TIP3   OH228141   2.719   6.733   0.041 -0.1751 -0.1840  0.0302
 2169TIP3    H128142   2.798   6.711   0.090  0.2693 -0.0035 -0.5878
 2169TIP3    H228143   2.647   6.718   0.102  0.2095 -1.9151  0.0897
 2170TIP3   OH228144   3.621   3.732   8.666  0.0428 -0.2658 -0.3998
 2170TIP3    H128145   3.546   3.782   8.697  0.7487 -0.2474  1.4301
 2170TIP3    H228146   3.609   3.726   8.571 -1.8744  0.3344 -0.2330
 2171TIP3   OH228147   2.941   1.590   2.122 -0.0889 -0.0554  0.0098
 2171TIP3    H128148   2.993   1.577   2.042  0.3429 -0.0323  0.2878
 2171TIP3    H228149   2.995   1.645   2.178 -0.8168  0.7844 -0.0900
 2172TIP3   OH228150   3.892   2.249   0.708 -0.1996  0.5650 -0.5899
 2172TIP3    H128151   3.812   2.260   0.658 -0.4624 -2.0267 -0.8848
 2172TIP3    H228152   3.869   2.188   0.778  1.0838  1.1752  0.4144
 2173TIP3   OH228153   6.190   3.231   6.197 -0.5932 -0.2903  0.4863
 2173TIP3    H128154   6.141   3.164   6.244 -1.1055 -0.5716 -0.4345
 2173TIP3    H228155   6.127   3.269   6.136  0.5258 -1.3232 -1.4047
 2174TIP3   OH228156   5.373   1.896   1.943  0.2278  0.3283  0.3088
 2174TIP3    H128157   5.294   1.927   1.898  0.4567  0.6621  0.1284
 2174TIP3    H228158   5.349   1.895   2.036  0.1676  0.9142  0.3044
 2175TIP3   OH228159   3.118   0.023   1.813  0.3760  0.0084 -0.0929
 2175TIP3    H128160   3.070   0.080   1.873  1.1974 -1.8262  2.4711
 2175TIP3    H228161   3.051  -0.031   1.773  0.0080 -0.7491  1.4728
 2176TIP3   OH228162   3.750   4.313   1.450 -0.1829  0.6099 -0.5653
 2176TIP3    H128163   3.813   4.254   1.492 -0.8562 -0.4174 -0.9734
 2176TIP3    H228164   3.716   4.367   1.522 -0.6813 -0.5365  0.0768
 2177TIP3   OH228165   4.957   1.647   7.416  0.1147  0.5870 -0.2759
 2177TIP3    H128166   4.914   1.724   7.453 -2.0581 -0.9829  0.6670
 2177TIP3    H228167   4.906   1.625   7.339  0.8752  0.2058 -0.6873
 2178TIP3   OH228168   0.152   0.294   0.763  0.2784  0.6725  0.2126
 2178TIP3    H128169   0.165   0.313   0.670  1.1025  0.1058  0.1983
 2178TIP3    H228170   0.233   0.321   0.805  0.1672  0.3160  0.6707
 2179TIP3   OH228171   2.918   1.458   6.619  0.1079  0.7059  0.1771
 2179TIP3    H128172   2.871   1.414   6.548 -0.9405  1.1395  0.5809
 2179TIP3    H228173   2.868   1.438   6.698 -0.2920  2.4271  0.4076
 2180TIP3   OH228174   5.609   2.153   8.534  0.1098  0.2834 -0.2278
 2180TIP3    H128175   5.681   2.198   8.491 -0.1796  2.5952  1.5449
 2180TIP3    H228176   5.649   2.076   8.574  1.7137  1.7342  1.0747
 2181TIP3   OH228177   1.727   5.565   7.570  0.0289 -0.7658  0.4869
 2181TIP3    H128178   1.764   5.652   7.584 -1.0156  0.0067 -1.2159
 2181TIP3    H228179   1.633   5.580   7.559  0.0591 -1.7570 -1.9709
 2182TIP3   OH228180   3.118   3.111   7.254 -0.6000 -0.1060  0.4670
 2182TIP3    H128181   3.072   3.156   7.184  0.8903 -0.1180 -0.5668
 2182TIP3    H228182   3.084   3.021   7.252 -0.1269 -0.2824 -0.6968
 2183TIP3   OH228183   4.509   0.424   6.936 -0.3185 -0.3859 -0.1992
 2183TIP3    H128184   4.600   0.400   6.956  0.4773  1.2334 -1.5897
 2183TIP3    H228185   4.511   0.450   6.844 -2.0080  0.5084 -0.0178
 2184TIP3   OH228186   6.287   1.307   0.878 -0.4386  0.0049  0.7392
 2184TIP3    H128187   6.369   1.354   0.895  0.4453 -0.9482 -0.7356
 2184TIP3    H228188   6.219   1.368   0.906  0.6795  1.9387 -0.5212
 2185TIP3   OH228189   0.876   5.643   6.451 -0.3118  0.5554  0.0014
 2185TIP3    H128190   0.929   5.590   6.392 -0.5222 -0.2886  0.5606
 2185TIP3    H228191   0.794   5.594   6.461  0.5404 -0.5194  2.7526
 2186TIP3   OH228192   5.011   0.649   2.557  0.6408  0.7750  0.0552
 2186TIP3    H128193   4.992   0.589   2.630  1.4538 -0.4928 -0.7462
 2186TIP3    H228194   5.048   0.727   2.600  3.0997 -0.7472  0.9574
 2187TIP3   OH228195   0.071   1.524   7.493  0.3742 -0.0186 -0.5130
 2187TIP3    H128196   0.021   1.483   7.564  0.9060 -0.0719 -0.1646
 2187TIP3    H228197   0.028   1.609   7.481  0.7335  0.3001  0.3824
 2188TIP3   OH228198   0.032   3.445   1.210 -0.1877  0.0226  0.2534
 2188TIP3    H128199   0.039   3.362   1.256  0.8283  0.0968  0.2497
 2188TIP3    H228200  -0.047   3.485   1.245  0.0446 -0.3515  1.2271
 2189TIP3   OH228201   5.040   2.481   1.078  0.2866 -0.7445 -0.3127
 2189TIP3    H128202   4.988   2.558   1.100 -2.6806 -2.3834 -1.1431
 2189TIP3    H228203   5.126   2.499   1.117 -1.7161  0.7328  4.0661
 2190TIP3   OH228204   5.096   6.427   0.425 -0.0429 -0.0043 -0.1777
 2190TIP3    H128205   5.032   6.359   0.446 -1.7636  1.3273 -0.8612
 2190TIP3    H228206   5.053   6.481   0.358  1.8975  0.8275 -0.8270
 2191TIP3   OH228207   5.098   5.984   1.809  0.0202  0.1075 -0.1090
 2191TIP3    H128208   5.044   5.916   1.850  1.4816 -1.5478 -0.7885
 2191TIP3    H228209   5.149   6.020   1.881 -1.2455  1.0097  0.3742
 2192TIP3   OH228210   0.180   6.135   7.522 -0.5635  0.1882 -0.0314
 2192TIP3    H128211   0.213   6.162   7.608  1.3028 -2.6638  0.2635
 2192TIP3    H228212   0.089   6.165   7.521 -0.2553  1.4610  2.3707
 2193TIP3   OH228213   6.289   2.793   8.411  0.6626 -0.2288 -0.5123
 2193TIP3    H128214   6.246   2.729   8.467  0.8267 -1.8144 -2.1305
 2193TIP3    H228215   6.220   2.825   8.353  1.2871 -1.7668 -2.1949
 2194TIP3   OH228216   1.501   1.882   1.955  0.3675 -0.5901  0.1355
 2194TIP3    H128217   1.562   1.826   1.908  1.5439  1.3116 -0.7039
 2194TIP3    H228218   1.415   1.843   1.939  1.2449 -3.1427  1.0731
 2195TIP3   OH228219   6.406   5.444   0.286  0.1790  0.3575 -0.0150
 2195TIP3    H128220   6.355   5.485   0.216  0.2687  0.8910  0.2327
 2195TIP3    H228221   6.345   5.381   0.324 -0.3811  1.1412  0.4190
 2196TIP3   OH228222   6.548   5.277   7.765 -0.1505  0.6934  0.1124
 2196TIP3    H128223   6.523   5.358   7.809  1.9146  0.8757  1.0522
 2196TIP3    H228224   6.591   5.306   7.684 -0.1069  0.4986  0.0653
 2197TIP3   OH228225   1.467   2.300   6.473 -0.1654 -0.1985 -0.6162
 2197TIP3    H128226   1.516   2.238   6.526 -1.3287 -1.0926 -0.5267
 2197TIP3    H228227   1.418   2.354   6.536  0.8520  0.8522 -0.6922
 2198TIP3   OH228228   6.102   1.102   1.326  0.2516  0.3793  0.3387
 2198TIP3    H128229   6.188   1.098   1.367  0.7197  2.5048 -0.2998
 2198TIP3    H228230   6.065   1.185   1.358 -2.5940 -1.5312  2.4728
 2199TIP3   OH228231   4.977   3.648   7.694 -0.2754  0.4044 -0.5736
 2199TIP3    H128232   4.992   3.679   7.783 -0.0437  2.6945 -1.3518
 2199TIP3    H228233   5.036   3.573   7.684 -0.5256 -0.0770  1.2671
 2200TIP3   OH228234   1.709   2.352   2.163 -0.7575 -0.3260  0.1723
 2200TIP3    H128235   1.801   2.338   2.142 -0.4433  1.7909 -0.1024
 2200TIP3    H228236   1.666   2.268   2.144  1.1558 -1.4794  0.7281
 2201TIP3   OH228237   1.911   5.937   1.689 -0.9072  0.0155  0.1696
 2201TIP3    H128238   1.910   5.859   1.744  0.6585  0.9547  1.6377
 2201TIP3    H228239   1.995   5.934   1.644 -0.3122  1.4022  1.1286
 2202TIP3   OH228240   4.510   6.016   8.496  0.7438  0.2551  0.2184
 2202TIP3    H128241   4.427   6.056   8.523  0.3852  0.2177 -0.7874
 2202TIP3    H228242   4.578   6.070   8.537  0.2331 -0.0544  1.5327
 2203TIP3   OH228243   2.378   0.349   7.949 -0.1441 -0.3408  0.4341
 2203TIP3    H128244   2.398   0.436   7.985 -1.0666  0.3752 -0.6911
 2203TIP3    H228245   2.376   0.363   7.855 -1.6827 -1.2715  0.2993
 2204TIP3   OH228246   6.615   4.852   7.585  0.0831  0.4258 -0.7913
 2204TIP3    H128247   6.540   4.900   7.550 -1.0986  1.4550  2.7495
 2204TIP3    H228248   6.675   4.920   7.616  1.2535 -0.4205 -1.1052
 2205TIP3   OH228249   6.625   2.990   1.614  0.3655  0.1852 -0.0868
 2205TIP3    H128250   6.666   2.916   1.660  0.6174  1.2476  1.5045
 2205TIP3    H228251   6.699   3.045   1.588  0.0965  1.4278  1.5831
 2206TIP3   OH228252   5.536   6.357   8.703  0.0383  0.4727  0.0328
 2206TIP3    H128253   5.605   6.296   8.675 -0.3651 -0.2120  0.4890
 2206TIP3    H228254   5.557   6.377   8.794 -0.5348 -0.0014  0.2788
 2207TIP3   OH228255   3.013   2.976   2.305 -0.2121  0.2399 -0.5461
 2207TIP3    H128256   2.936   2.951   2.355  0.7640 -0.1739  0.8082
 2207TIP3    H228257   3.069   2.898   2.305  1.0634  1.1009  0.2123
 2208TIP3   OH228258   4.570   1.128   0.385 -0.4122 -0.1270 -0.6980
 2208TIP3    H128259   4.529   1.057   0.434  0.7910  0.2869  1.0417
 2208TIP3    H228260   4.511   1.203   0.398 -0.4595 -0.2049 -0.4482
 2209TIP3   OH228261   1.405   2.706   0.925  0.1754  0.2880 -0.6303
 2209TIP3    H128262   1.407   2.763   0.848 -2.8187 -0.8493 -1.6807
 2209TIP3    H228263   1.412   2.617   0.889  0.9597 -0.2040  0.6519
 2210TIP3   OH228264   2.076   4.426   6.897 -0.8221 -0.1926  0.2459
 2210TIP3    H128265   2.088   4.345   6.847 -0.7698  0.5526 -0.9863
 2210TIP3    H228266   2.163   4.444   6.933 -1.0674 -1.2393  1.4518
 2211TIP3   OH228267   3.801   0.202   7.570 -0.1516  0.0623  0.5396
 2211TIP3    H128268   3.761   0.156   7.497  0.7990 -1.0624  0.7058
 2211TIP3    H228269   3.856   0.137   7.613  1.4293  1.4030  0.6555
 2212TIP3   OH228270   1.823   1.672   2.108  0.2580  0.1833  0.3192
 2212TIP3    H128271   1.908   1.641   2.137  0.3751  0.9319  0.8033
 2212TIP3    H228272   1.789   1.601   2.053  1.2149 -0.0933  0.0663
 2213TIP3   OH228273   5.963   3.447   7.879  0.3910 -0.0908  0.4891
 2213TIP3    H128274   6.051   3.482   7.894  0.4926  0.1267 -0.5970
 2213TIP3    H228275   5.918   3.513   7.826  0.3712 -1.2569 -1.0179
 2214TIP3   OH228276   6.181   5.177   2.300 -0.3544  0.0823  0.2189
 2214TIP3    H128277   6.093   5.140   2.288 -0.7140  0.1534  2.1952
 2214TIP3    H228278   6.224   5.116   2.360  0.7779  0.3200 -0.3329
 2215TIP3   OH228279   4.557   6.661   8.290 -0.0779 -0.3479  0.0831
 2215TIP3    H128280   4.624   6.712   8.244 -0.8145 -0.5664 -1.2705
 2215TIP3    H228281   4.485   6.723   8.305  0.4298 -0.0782  1.6446
 2216TIP3   OH228282   3.253   2.092   7.052 -0.1103  0.1608  0.7602
 2216TIP3    H128283   3.196   2.056   6.984 -0.2333 -0.3081  1.1087
 2216TIP3    H228284   3.333   2.116   7.006  0.5588 -1.9081  0.7505
 2217TIP3   OH228285   5.486   4.987   0.932 -0.0204 -0.3666  0.3855
 2217TIP3    H128286   5.567   5.037   0.925 -0.9790  1.0340 -1.7714
 2217TIP3    H228287   5.510   4.909   0.981  2.1221  1.0180  1.7031
 2218TIP3   OH228288   2.434   6.587   6.571 -0.1271  0.0981 -0.1724
 2218TIP3    H128289   2.487   6.667   6.579 -1.9550  1.2974  0.5460
 2218TIP3    H228290   2.486   6.520   6.615  0.7987  1.2293  0.5211
 2219TIP3   OH228291   4.859   6.835   0.012 -0.0324 -0.5368 -0.1033
 2219TIP3    H128292   4.914   6.857   0.087 -0.6085  1.0916 -0.1117
 2219TIP3    H228293   4.864   6.912  -0.044 -2.5162 -0.1792  0.0428
 2220TIP3   OH228294   0.433   0.354   1.345  0.1170  0.0913 -0.2371
 2220TIP3    H128295   0.442   0.330   1.437  0.0502  2.1494  0.3389
 2220TIP3    H228296   0.358   0.413   1.343 -0.2732 -0.4159 -1.7310
 2221TIP3   OH228297   3.894   4.868   0.830 -0.4792 -0.0946 -0.0804
 2221TIP3    H128298   3.901   4.831   0.742 -0.1230 -0.2948  0.0323
 2221TIP3    H228299   3.897   4.963   0.816  1.2516 -0.1329 -0.1590
 2222TIP3   OH228300   5.093   3.889   8.572  0.1191 -0.0126  0.5422
 2222TIP3    H128301   5.078   3.802   8.535  2.0104 -1.5306  3.0466
 2222TIP3    H228302   5.188   3.896   8.579 -0.0651  0.9186  3.2478
 2223TIP3   OH228303   6.449   3.204   0.811 -0.6654 -0.1137 -0.3899
 2223TIP3    H128304   6.381   3.188   0.745 -0.5328  0.7629 -0.7450
 2223TIP3    H228305   6.484   3.290   0.789  0.0189 -0.2169  0.2744
 2224TIP3   OH228306   3.039   2.836   0.702 -0.3380  0.3956  0.6033
 2224TIP3    H128307   2.979   2.808   0.634  0.0847  1.2574 -0.1419
 2224TIP3    H228308   2.994   2.908   0.747  1.1988  3.1551 -1.8855
 2225TIP3   OH228309   0.716   3.527   8.392 -0.2410  0.2889  0.5862
 2225TIP3    H128310   0.803   3.498   8.420 -0.5193 -0.0349  1.1269
 2225TIP3    H228311   0.733   3.589   8.321  0.5102  1.3781  1.6731
 2226TIP3   OH228312   5.272   0.263   2.609 -0.4352  0.3904 -0.2471
 2226TIP3    H128313   5.338   0.326   2.636 -0.2415 -0.4444  1.3509
 2226TIP3    H228314   5.321   0.187   2.580 -0.6919  0.2266 -0.2538
 2227TIP3   OH228315   2.971   5.446   8.071  0.2682  0.9887 -0.0731
 2227TIP3    H128316   3.053   5.403   8.049 -0.2431  1.0728 -2.4744
 2227TIP3    H228317   2.994   5.538   8.082  0.9312  0.6003  2.4267
 2228TIP3   OH228318   6.671   0.340   1.258 -0.3223  0.4414  0.1697
 2228TIP3    H128319   6.663   0.249   1.229  1.1247  0.1197  0.7327
 2228TIP3    H228320   6.681   0.335   1.353 -1.7249  1.2965  0.3994
 2229TIP3   OH228321   6.268   2.845   1.425 -0.2413  0.1414 -0.4250
 2229TIP3    H128322   6.216   2.841   1.345  0.2422  1.4429 -0.8390
 2229TIP3    H228323   6.321   2.766   1.423  0.9417  0.8959 -2.2678
 2230TIP3   OH228324   2.232   1.511   0.591 -0.4118  0.1131  0.3891
 2230TIP3    H128325   2.189   1.584   0.548 -0.9130  0.0371  0.7607
 2230TIP3    H228326   2.280   1.467   0.521 -2.2017 -0.7415 -0.3716
 2231TIP3   OH228327   3.419   5.491   1.812 -0.1889  0.0155 -0.0669
 2231TIP3    H128328   3.372   5.572   1.833  0.0134  0.5756 -1.6369
 2231TIP3    H228329   3.429   5.446   1.896 -1.6052  0.9135  0.6176
 2232TIP3   OH228330   0.242   4.993   0.575  0.0856  0.2021 -0.4404
 2232TIP3    H128331   0.291   5.071   0.552 -1.9223  0.8508 -3.0548
 2232TIP3    H228332   0.152   5.011   0.545 -1.7537 -1.0686  3.6014
 2233TIP3   OH228333   5.537   3.644   0.193  0.3928  0.6326  0.5173
 2233TIP3    H128334   5.510   3.610   0.278  0.6525  1.1390  0.8091
 2233TIP3    H228335   5.604   3.583   0.162 -2.5553 -2.0026 -1.2766
 2234TIP3   OH228336   1.044   5.318   0.282 -0.4662 -0.5327 -0.0874
 2234TIP3    H128337   1.105   5.377   0.237 -0.4493  1.6734  2.5591
 2234TIP3    H228338   1.096   5.280   0.353 -0.4691 -3.9797 -1.7289
 2235TIP3   OH228339   0.647   4.819   8.309 -0.5202  0.0195  0.1614
 2235TIP3    H128340   0.659   4.906   8.346 -1.0740 -0.7079  2.1884
 2235TIP3    H228341   0.724   4.770   8.338 -0.3434 -0.2498 -0.7339
 2236TIP3   OH228342   0.535   2.401   2.781 -0.5783  0.2019  0.3209
 2236TIP3    H128343   0.502   2.451   2.707 -3.4128 -1.4080  0.3757
 2236TIP3    H228344   0.503   2.447   2.858 -0.2412  0.1817  0.4779
 2237TIP3   OH228345   0.675   2.509   0.823 -0.3079  0.9550  0.3423
 2237TIP3    H128346   0.651   2.513   0.915 -0.8299 -3.0070  0.5222
 2237TIP3    H228347   0.592   2.504   0.776 -0.0647 -1.2031  0.0518
 2238TIP3   OH228348   5.653   4.376   7.438  0.2357 -0.0046 -0.1826
 2238TIP3    H128349   5.657   4.398   7.531 -1.7527 -0.0379 -0.0554
 2238TIP3    H228350   5.699   4.448   7.394  0.9871  0.1272  0.7965
 2239TIP3   OH228351   1.555   6.375   7.274 -0.5909  0.6417  0.4440
 2239TIP3    H128352   1.605   6.316   7.218 -1.3580 -0.0709  0.4867
 2239TIP3    H228353   1.496   6.318   7.323  1.0827  1.0661  3.1580
 2240TIP3   OH228354   2.080   3.543   1.605 -0.5040  0.2163  0.1304
 2240TIP3    H128355   2.090   3.614   1.669  0.1910 -0.4765  0.8175
 2240TIP3    H228356   1.989   3.550   1.576 -1.0829  0.0632  1.7861
 2241TIP3   OH228357   4.456   2.428   8.040  0.2630 -0.1137  0.0235
 2241TIP3    H128358   4.488   2.468   7.959  0.0317 -0.1411 -0.0829
 2241TIP3    H228359   4.458   2.498   8.104 -0.3272  0.1226 -0.2125
 2242TIP3   OH228360   2.250   6.789   8.505 -0.1268 -0.2859  0.1150
 2242TIP3    H128361   2.335   6.825   8.527  0.2068  0.3855 -1.9750
 2242TIP3    H228362   2.188   6.860   8.522  0.3731  0.9836 -2.7585
 2243TIP3   OH228363   6.394   4.197   7.060 -0.3494 -0.0495  0.2969
 2243TIP3    H128364   6.365   4.249   6.984  0.0048 -0.2907 -0.0080
 2243TIP3    H228365   6.316   4.147   7.085 -0.1156 -0.9992 -0.7726
 2244TIP3   OH228366   1.143   4.947   8.707 -0.0089  0.4783  0.3003
 2244TIP3    H128367   1.208   5.012   8.732  0.3067  0.4343 -0.3931
 2244TIP3    H228368   1.087   4.992   8.644 -0.3118  0.3431  0.4713
 2245TIP3   OH228369   5.291   6.496   6.501 -0.7970 -0.2971 -0.2056
 2245TIP3    H128370   5.272   6.574   6.449 -1.4330 -0.5144 -0.3154
 2245TIP3    H228371   5.208   6.447   6.501 -0.6092 -0.6208  0.4590
 2246TIP3   OH228372   3.010   4.399   1.277  0.0996 -0.4873 -0.3752
 2246TIP3    H128373   3.099   4.386   1.244  0.7425  2.6418 -0.1657
 2246TIP3    H228374   2.958   4.416   1.198 -0.1938 -1.6269 -0.4385
 2247TIP3   OH228375   3.851   2.362   8.700 -0.1815 -0.4693 -0.6074
 2247TIP3    H128376   3.915   2.363   8.771 -0.3750 -0.4342 -0.4311
 2247TIP3    H228377   3.870   2.441   8.649 -0.8417  0.1886  0.1267
 2248TIP3   OH228378   1.258   6.224   8.027  0.1269  0.2204  0.0375
 2248TIP3    H128379   1.313   6.164   8.079  0.4925  0.6867  0.1969
 2248TIP3    H228380   1.175   6.178   8.018  0.3238 -0.2134  0.3619
 2249TIP3   OH228381   1.243   5.949   0.734  0.5604  0.3631  0.5165
 2249TIP3    H128382   1.235   5.936   0.829  0.4987  1.0525  0.6094
 2249TIP3    H228383   1.221   6.041   0.720  0.2253  0.1782 -0.2144
 2250TIP3   OH228384   3.962   4.382   7.828  0.1322  0.1732 -0.0833
 2250TIP3    H128385   3.907   4.455   7.797  1.7484  0.5349 -2.3583
 2250TIP3    H228386   4.001   4.346   7.748  0.8727 -1.9951  1.1727
 2251TIP3   OH228387   4.600   5.161   6.530 -0.4689 -0.2878  0.1237
 2251TIP3    H128388   4.668   5.160   6.463  0.1007 -3.4845  0.6012
 2251TIP3    H228389   4.648   5.151   6.612 -1.1228  3.8719  1.2517
 2252TIP3   OH228390   3.625   5.701   0.967 -0.0506  0.3554  0.1187
 2252TIP3    H128391   3.585   5.693   1.053 -1.4739 -1.3754 -0.6419
 2252TIP3    H228392   3.700   5.759   0.981  0.0361 -0.2354  2.5910
 2253TIP3   OH228393   4.450   2.534   1.513  0.5160 -0.3203 -0.8880
 2253TIP3    H128394   4.534   2.537   1.469  2.4245  0.5322  2.5062
 2253TIP3    H228395   4.469   2.502   1.601 -3.0736 -2.2547 -0.5864
 2254TIP3   OH228396   6.200   4.520   8.084  0.0673  0.0052  0.3296
 2254TIP3    H128397   6.284   4.531   8.039 -0.3571  1.3253 -0.1908
 2254TIP3    H228398   6.165   4.437   8.050  0.5466  0.1269 -0.4902
 2255TIP3   OH228399   3.040   3.884   1.568  0.7495 -0.1298  0.9220
 2255TIP3    H128400   3.056   3.944   1.641  0.0266  0.4885  0.5813
 2255TIP3    H228401   3.095   3.917   1.497  1.2356 -0.5636  1.0922
 2256TIP3   OH228402   6.133   4.110   7.193  0.7029 -0.0108  0.6773
 2256TIP3    H128403   6.149   4.049   7.265  0.0672 -0.5928  0.3426
 2256TIP3    H228404   6.151   4.196   7.230  2.0815 -0.4239  1.0217
 2257TIP3   OH228405   3.149   2.457   2.073  0.5608 -0.3371  0.1148
 2257TIP3    H128406   3.123   2.366   2.057  0.8270 -0.8082  2.0732
 2257TIP3    H228407   3.122   2.504   1.995 -1.6446 -1.6966 -0.0086
 2258TIP3   OH228408   0.891   4.542   1.688  0.1525  0.8446  0.1295
 2258TIP3    H128409   0.959   4.557   1.623  0.2763  1.1232  0.3204
 2258TIP3    H228410   0.813   4.584   1.652 -0.0705  0.0366 -0.3515
 2259TIP3   OH228411   6.317   6.791   6.941  0.5534 -0.2541  0.1820
 2259TIP3    H128412   6.306   6.789   7.036 -1.8828 -0.9197 -0.0288
 2259TIP3    H228413   6.243   6.844   6.909  0.2949 -1.4743 -1.4027
 2260TIP3   OH228414   2.627   5.019   7.254  0.5813  0.3603  0.3672
 2260TIP3    H128415   2.697   4.972   7.299  0.4406 -0.4511 -0.2438
 2260TIP3    H228416   2.580   5.065   7.324  1.2853  0.3404  0.8595
 2261TIP3   OH228417   0.417   2.990   1.015 -0.2658  0.0950 -0.1817
 2261TIP3    H128418   0.379   2.904   0.995  0.0797 -0.2650  0.6869
 2261TIP3    H228419   0.501   2.991   0.969 -0.5618  0.2301 -0.7263
 2262TIP3   OH228420   3.215   1.655   0.668  0.5389 -0.1168  0.2447
 2262TIP3    H128421   3.255   1.697   0.744 -3.4732  1.3234  1.8365
 2262TIP3    H228422   3.260   1.692   0.593  1.5435  2.0768  1.8226
 2263TIP3   OH228423   0.649   3.200   0.060 -0.1394  0.0494 -0.1582
 2263TIP3    H128424   0.654   3.133   0.128  0.3913  0.1368 -0.1079
 2263TIP3    H228425   0.689   3.159  -0.017  1.6903  0.8283  0.3067
 2264TIP3   OH228426   5.366   4.785   1.284  0.2641  0.2488 -0.5403
 2264TIP3    H128427   5.430   4.738   1.337  0.4320  0.2141 -0.7738
 2264TIP3    H228428   5.284   4.737   1.297  0.3481  0.1277 -0.4640
 2265TIP3   OH228429   1.055   2.537   1.785  0.6902  0.6451 -0.3500
 2265TIP3    H128430   1.045   2.445   1.808 -3.1947  0.2533 -2.5662
 2265TIP3    H228431   0.975   2.579   1.819  1.4259  2.7762 -1.0778
 2266TIP3   OH228432   0.566   4.372   0.307 -0.2966  0.3133 -0.5523
 2266TIP3    H128433   0.522   4.310   0.249 -0.2485  0.7489 -1.0689
 2266TIP3    H228434   0.648   4.393   0.261  0.3944 -0.3976  0.3377
 2267TIP3   OH228435   4.226   6.421   0.493 -0.6045  0.4999 -0.4749
 2267TIP3    H128436   4.230   6.328   0.469  0.7848  0.0853  1.1294
 2267TIP3    H228437   4.167   6.423   0.568 -2.4362  1.3067 -1.8558
 2268TIP3   OH228438   2.134   1.475   1.152  0.5111  0.1697  0.3304
 2268TIP3    H128439   2.219   1.501   1.189 -0.2641  2.3682  0.7525
 2268TIP3    H228440   2.113   1.546   1.091 -1.6732  0.4413  1.3223
 2269TIP3   OH228441   5.475   5.382   2.399  0.0965 -0.4093 -0.8580
 2269TIP3    H128442   5.540   5.414   2.336  0.5248  0.2057 -0.1140
 2269TIP3    H228443   5.464   5.453   2.461 -1.7817 -0.2544 -1.3112
 2270TIP3   OH228444   6.489   3.417   7.649  0.3431  0.0276 -0.4775
 2270TIP3    H128445   6.400   3.382   7.647  0.5022 -0.3553 -1.3580
 2270TIP3    H228446   6.535   3.361   7.711 -0.0165  0.2142 -0.0331
 2271TIP3   OH228447   1.043   2.330   6.745 -0.0054 -0.4699  0.1288
 2271TIP3    H128448   1.005   2.303   6.661 -1.1103 -1.3179  0.8758
 2271TIP3    H228449   1.030   2.425   6.747 -1.8325 -0.6966  0.2164
 2272TIP3   OH228450   5.770   3.126   7.564  0.3512 -0.2150 -0.4169
 2272TIP3    H128451   5.812   3.096   7.483  1.0164 -1.9880  0.5327
 2272TIP3    H228452   5.684   3.085   7.563  0.4289 -0.3934 -0.1703
 2273TIP3   OH228453   2.240   4.140   0.683  0.2731 -0.5437  0.3283
 2273TIP3    H128454   2.322   4.178   0.654 -0.5011  0.3055 -0.8240
 2273TIP3    H228455   2.194   4.116   0.603 -0.9794 -0.1920  0.9144
 2274TIP3   OH228456   3.844   1.296   8.084 -0.0341  0.0065 -0.4209
 2274TIP3    H128457   3.917   1.276   8.027 -1.0507 -0.8668 -1.4617
 2274TIP3    H228458   3.766   1.279   8.031 -1.0106  1.3821  0.4752
 2275TIP3   OH228459   4.118   3.400   8.631 -0.1280  0.3763 -0.3467
 2275TIP3    H128460   4.023   3.404   8.622 -0.1144  0.8329 -0.3129
 2275TIP3    H228461   4.142   3.481   8.677 -0.0194 -1.0505  2.2915
 2276TIP3   OH228462   0.317   1.277   6.493 -0.4098 -0.5043  0.1495
 2276TIP3    H128463   0.271   1.203   6.454  1.6836 -1.7462 -0.1374
 2276TIP3    H228464   0.362   1.240   6.568 -0.9233  0.9510  1.2088
 2277TIP3   OH228465   2.403   0.638   6.884  0.5169 -0.4231 -0.0082
 2277TIP3    H128466   2.451   0.592   6.815  1.3325  0.0143  0.2551
 2277TIP3    H228467   2.316   0.598   6.884  0.7881 -1.0259 -0.6936
 2278TIP3   OH228468   2.757   2.649   0.862  0.5041  0.2638 -0.7609
 2278TIP3    H128469   2.791   2.733   0.895  0.4014  0.5066 -1.2632
 2278TIP3    H228470   2.675   2.672   0.819  0.8852  0.0324 -1.6298
 2279TIP3   OH228471   3.720   6.282   0.275  0.3500  0.1233 -0.2585
 2279TIP3    H128472   3.671   6.247   0.349  1.6946 -2.4552 -0.4703
 2279TIP3    H228473   3.810   6.292   0.307  0.1636  3.2898 -0.3259
 2280TIP3   OH228474   6.438   5.110   8.010  0.4940  0.3184  0.1380
 2280TIP3    H128475   6.463   5.124   7.918  0.5815  1.4548  0.3172
 2280TIP3    H228476   6.521   5.101   8.056  0.4314 -1.2331 -0.0214
 2281TIP3   OH228477   2.013   0.017   7.125  0.0360 -0.1590  0.0497
 2281TIP3    H128478   1.953   0.082   7.163 -1.8446 -1.4964 -0.4898
 2281TIP3    H228479   1.984  -0.066   7.163 -1.0913 -1.3854 -3.2115
 2282TIP3   OH228480   2.087   2.226   7.692 -0.0524 -0.0306 -0.1502
 2282TIP3    H128481   2.014   2.180   7.651 -0.4409 -1.0387  1.6013
 2282TIP3    H228482   2.160   2.163   7.688 -0.2699 -0.3886  1.2312
 2283TIP3   OH228483   6.402   1.842   1.479  0.8597  0.8786 -0.1237
 2283TIP3    H128484   6.321   1.812   1.520  1.1296  0.3358  0.0130
 2283TIP3    H228485   6.456   1.764   1.470  0.9003  1.0272 -1.3201
 2284TIP3   OH228486   0.612   4.501   2.062 -0.1081  0.1274  0.2774
 2284TIP3    H128487   0.676   4.430   2.068  0.4299  0.2109 -2.8068
 2284TIP3    H228488   0.661   4.580   2.086  0.5199 -0.0354 -0.4285
 2285TIP3   OH228489   5.225   1.058   0.955 -0.4774 -0.0214 -0.0456
 2285TIP3    H128490   5.317   1.034   0.944 -0.0499  1.0435  1.0189
 2285TIP3    H228491   5.184   1.034   0.872  0.2729 -2.6326  0.2584
 2286TIP3   OH228492   3.193   5.317   1.262 -1.1622 -0.0219 -0.3482
 2286TIP3    H128493   3.168   5.402   1.226  0.4178 -0.0324 -1.5677
 2286TIP3    H228494   3.285   5.308   1.240 -0.3576 -0.5544  2.7644
 2287TIP3   OH228495   1.896   6.297   0.027  0.5434 -0.4414  0.9284
 2287TIP3    H128496   1.830   6.367   0.037  0.3975 -0.3927 -0.2228
 2287TIP3    H228497   1.859   6.239  -0.039  1.0413 -1.1767  1.2840
 2288TIP3   OH228498   5.239   3.365   8.590  0.1071 -0.1844  0.2876
 2288TIP3    H128499   5.290   3.389   8.512  1.8584  1.0369  1.7217
 2288TIP3    H228500   5.193   3.286   8.564 -0.5517  0.9666 -2.4618
 2289TIP3   OH228501   6.479   6.524   7.378 -0.3049  0.2371  0.0539
 2289TIP3    H128502   6.531   6.444   7.372  0.6415  0.6743  1.8356
 2289TIP3    H228503   6.497   6.570   7.296 -2.4100 -2.1751 -1.9670
 2290TIP3   OH228504   5.846   3.191   8.682 -0.2932  0.1698 -0.7190
 2290TIP3    H128505   5.909   3.257   8.653 -1.2680  0.8729 -1.3057
 2290TIP3    H228506   5.893   3.139   8.747  1.2906 -0.1136 -2.0295
 2291TIP3   OH228507   1.273   1.496   7.445 -0.1289 -0.3131 -0.0482
 2291TIP3    H128508   1.217   1.561   7.489 -0.1047 -0.1720 -0.2251
 2291TIP3    H228509   1.273   1.522   7.353  0.3869 -0.1916 -0.0205
 2292TIP3   OH228510   2.172   0.319   8.320  0.5290 -0.0038 -0.1209
 2292TIP3    H128511   2.192   0.262   8.245  1.5476 -0.0663  0.1723
 2292TIP3    H228512   2.101   0.274   8.365  0.5777 -0.4859 -0.5059
 2293TIP3   OH228513   2.689   5.348   1.006  0.1515 -0.0566  0.4177
 2293TIP3    H128514   2.735   5.374   1.086 -0.0006  0.8301  0.2380
 2293TIP3    H228515   2.606   5.395   1.010  0.3148  0.3486 -0.4555
 2294TIP3   OH228516   2.005   4.192   8.536  0.5790 -0.6156  0.4570
 2294TIP3    H128517   2.090   4.151   8.518 -0.1828 -3.2318  2.2376
 2294TIP3    H228518   2.002   4.268   8.477  3.1036 -1.8059 -1.3987
 2295TIP3   OH228519   2.883   2.856   1.220  0.0220 -0.6394  0.2994
 2295TIP3    H128520   2.902   2.909   1.297 -1.6130 -1.0717  1.0640
 2295TIP3    H228521   2.840   2.777   1.255 -1.2069 -0.6240 -1.0467
 2296TIP3   OH228522   6.131   3.911   8.446 -0.0113  0.0639 -0.9141
 2296TIP3    H128523   6.087   3.936   8.365  0.8179 -2.4799 -2.2328
 2296TIP3    H228524   6.224   3.904   8.422  0.2017 -1.0843  0.1430
 2297TIP3   OH228525   1.557   2.983   1.925  0.4168  0.2369  0.3314
 2297TIP3    H128526   1.463   2.975   1.914  0.6278  0.4767 -2.4748
 2297TIP3    H228527   1.575   3.076   1.912  0.9582  0.4215  2.1366
 2298TIP3   OH228528   0.687   3.756   0.933 -0.2629 -0.0583 -0.1170
 2298TIP3    H128529   0.631   3.827   0.901 -2.9358 -1.8227  0.3394
 2298TIP3    H228530   0.687   3.767   1.028  0.7276  0.2784 -0.1430
 2299TIP3   OH228531   4.893   3.963   0.243  0.0190 -0.1226  0.1882
 2299TIP3    H128532   4.928   3.954   0.155 -0.6784 -0.2961 -0.0786
 2299TIP3    H228533   4.805   3.926   0.238 -0.2143  0.3174  0.8350
 2300TIP3   OH228534   1.854   4.524   7.316  0.4216  0.2950  0.4692
 2300TIP3    H128535   1.872   4.566   7.400  1.9805  2.6687 -0.9179
 2300TIP3    H228536   1.823   4.595   7.260 -0.3007 -1.1592 -1.0697
 2301TIP3   OH228537   3.630   1.681   1.151  0.3007  0.1365  0.4831
 2301TIP3    H128538   3.569   1.729   1.207 -0.6439  0.7767 -1.0250
 2301TIP3    H228539   3.671   1.748   1.097  1.3477 -0.4375  0.5467
 2302TIP3   OH228540   0.359   1.757   1.605  0.5058 -0.4237 -0.0007
 2302TIP3    H128541   0.431   1.695   1.596  0.1626 -0.8009 -0.1722
 2302TIP3    H228542   0.292   1.709   1.654  0.3661 -0.0795  0.1506
 2303TIP3   OH228543   4.085   1.486   1.767 -0.1693 -0.0184  0.2938
 2303TIP3    H128544   4.100   1.536   1.848 -2.5636  2.3758 -0.5612
 2303TIP3    H228545   4.006   1.435   1.786  0.5382 -1.1933  0.1486
 2304TIP3   OH228546   5.123   0.815   8.576  0.9015 -0.0316  0.4798
 2304TIP3    H128547   5.097   0.732   8.536 -1.4552  1.1859 -0.7252
 2304TIP3    H228548   5.094   0.808   8.667  0.9671 -0.6332  0.4561
 2305TIP3   OH228549   1.366   2.074   2.376  0.1100 -0.3819 -0.0313
 2305TIP3    H128550   1.452   2.074   2.419 -0.1107 -3.4176  0.6645
 2305TIP3    H228551   1.305   2.101   2.444  0.2561 -0.8685  0.3033
 2306TIP3   OH228552   1.952   4.982   8.741 -0.8498  0.0349 -0.0854
 2306TIP3    H128553   2.005   5.013   8.667 -0.5923  0.6499  0.3524
 2306TIP3    H228554   1.966   4.887   8.742  0.5982  0.2293  0.2712
 2307TIP3   OH228555   5.530   2.499   2.065  0.1279 -0.1015 -0.2561
 2307TIP3    H128556   5.572   2.457   2.141 -0.8977  2.1680  1.6856
 2307TIP3    H228557   5.475   2.430   2.028 -0.8926 -0.8158  2.3132
 2308TIP3   OH228558   2.767   2.194   7.991  0.2538  0.0284 -0.1572
 2308TIP3    H128559   2.850   2.148   7.976  0.7498  1.1400 -0.9628
 2308TIP3    H228560   2.732   2.208   7.903  0.6843  2.1737 -0.0297
 2309TIP3   OH228561   4.763   4.771   0.384 -0.1429 -0.3770  0.3072
 2309TIP3    H128562   4.827   4.779   0.313 -0.3586  0.4590  0.1901
 2309TIP3    H228563   4.683   4.810   0.348 -0.0710  0.6626  1.2268
 2310TIP3   OH228564   4.243   0.159   0.664  0.0515  0.4800  0.2629
 2310TIP3    H128565   4.267   0.247   0.693 -1.4769 -0.0859  3.7339
 2310TIP3    H228566   4.323   0.107   0.675 -0.0246  0.6786  1.8670
 2311TIP3   OH228567   2.616   5.862   7.602 -0.2486 -0.7221  0.0068
 2311TIP3    H128568   2.628   5.782   7.652 -0.5589 -0.7200  0.0856
 2311TIP3    H228569   2.661   5.929   7.653  1.1597 -1.0787 -0.7176
 2312TIP3   OH228570   4.046   2.327   7.970 -0.3685  0.0179  0.7130
 2312TIP3    H128571   3.983   2.285   7.911 -1.0948  0.0516  1.4433
 2312TIP3    H228572   4.123   2.271   7.967  0.4384  1.1063 -1.8796
 2313TIP3   OH228573   6.712   3.553   7.381  0.1056  0.4564 -0.3171
 2313TIP3    H128574   6.662   3.477   7.352  0.2080  0.3244 -0.1450
 2313TIP3    H228575   6.749   3.589   7.300  0.3357  0.1240 -0.3593
 2314TIP3   OH228576   0.693   0.024   7.249  0.0322  1.0379  0.6687
 2314TIP3    H128577   0.711   0.117   7.238 -0.3691  0.8254 -3.3603
 2314TIP3    H228578   0.612   0.009   7.200  0.9690 -1.6304 -0.2544
 2315TIP3   OH228579   0.655   2.283   7.303  0.0699 -0.8554  0.1166
 2315TIP3    H128580   0.669   2.377   7.292  0.0136 -1.0520 -2.0800
 2315TIP3    H228581   0.568   2.277   7.343  0.3684  0.0296  0.9450
 2316TIP3   OH228582   2.270   2.094   7.321 -0.4224  0.1249 -0.1326
 2316TIP3    H128583   2.283   2.077   7.415  0.0173 -0.1075 -0.2325
 2316TIP3    H228584   2.278   2.008   7.280  0.5952  0.3896 -0.5073
 2317TIP3   OH228585   3.362   0.162   2.514 -0.7527 -0.2433 -0.1413
 2317TIP3    H128586   3.281   0.141   2.469 -1.2887  0.8789  0.2730
 2317TIP3    H228587   3.353   0.253   2.539  1.6379  0.6913 -2.2252
 2318TIP3   OH228588   4.113   2.421   7.613 -0.0602 -0.2596  0.0625
 2318TIP3    H128589   4.180   2.482   7.581 -0.1019 -1.0668 -1.6815
 2318TIP3    H228590   4.161   2.339   7.627 -0.1789 -0.1009  1.5186
 2319TIP3   OH228591   5.582   1.176   8.251 -0.3495 -0.2964 -0.5351
 2319TIP3    H128592   5.560   1.241   8.184 -0.9068 -1.1381 -1.1828
 2319TIP3    H228593   5.615   1.228   8.324 -1.1192  0.7542 -0.9020
 2320TIP3   OH228594   0.642   2.738   0.033  0.6094 -0.0429 -0.4527
 2320TIP3    H128595   0.667   2.812  -0.023 -2.1030  0.3115 -1.3442
 2320TIP3    H228596   0.630   2.777   0.120 -0.1005  0.4511 -0.7638
 2321TIP3   OH228597   1.568   5.499   1.267  0.4235  0.0001 -0.1044
 2321TIP3    H128598   1.575   5.517   1.173 -0.0444  0.0887 -0.1264
 2321TIP3    H228599   1.546   5.406   1.273  1.3497 -0.2177 -0.0469
 2322TIP3   OH228600   1.134   5.330   8.757 -0.2053  0.3096 -0.5283
 2322TIP3    H128601   1.076   5.291   8.822  0.1586 -1.4187 -1.1837
 2322TIP3    H228602   1.203   5.372   8.809 -2.1407  2.7412  0.2712
 2323TIP3   OH228603   3.117   1.105   8.268 -0.0166  0.2195 -0.3541
 2323TIP3    H128604   3.040   1.119   8.323 -0.3827 -1.6011 -0.3354
 2323TIP3    H228605   3.145   1.193   8.243 -0.0787  1.1230  2.4020
 2324TIP3   OH228606   4.930   3.680   8.485  0.2716 -0.4906  0.5535
 2324TIP3    H128607   4.992   3.630   8.538  1.8413 -0.3656 -1.0655
 2324TIP3    H228608   4.933   3.639   8.399  0.8569  1.7294 -0.5630
 2325TIP3   OH228609   0.948   0.705   0.402 -0.8669 -0.2523  0.3055
 2325TIP3    H128610   0.881   0.758   0.358  2.0743  1.6510 -2.3642
 2325TIP3    H228611   0.972   0.757   0.479  0.2533  1.2156 -0.9518
 2326TIP3   OH228612   1.623   5.256   7.235 -0.3271 -0.4230  0.0363
 2326TIP3    H128613   1.679   5.179   7.229  0.0849 -0.1763  0.6462
 2326TIP3    H228614   1.606   5.281   7.144 -0.8748 -1.5197 -0.1806
 2327TIP3   OH228615   5.390   5.863   0.109 -0.1855  0.1502  0.3772
 2327TIP3    H128616   5.399   5.768   0.123  0.9330  0.4101  1.6845
 2327TIP3    H228617   5.315   5.887   0.163 -2.0663 -0.3178 -1.8755
 2328TIP3   OH228618   1.649   4.872   0.832  0.2202 -0.3938 -0.2229
 2328TIP3    H128619   1.695   4.926   0.768 -2.1182  0.8351 -0.9930
 2328TIP3    H228620   1.571   4.922   0.854 -2.0310 -3.3204 -0.8690
 2329TIP3   OH228621   6.220   0.720   2.133 -0.2791 -0.0870 -0.4183
 2329TIP3    H128622   6.223   0.720   2.037 -0.4776  0.0399 -0.4243
 2329TIP3    H228623   6.312   0.734   2.159 -0.0184 -1.4085 -0.5724
 2330TIP3   OH228624   1.758   2.240   0.783 -0.1324  0.3999 -0.2924
 2330TIP3    H128625   1.745   2.146   0.793 -0.4916  0.2480 -1.8941
 2330TIP3    H228626   1.843   2.258   0.824 -0.2416 -0.5433  0.3651
 2331TIP3   OH228627   0.226   0.935   0.844 -0.0469  0.2391  0.2784
 2331TIP3    H128628   0.259   1.013   0.800  0.2225  0.1156  0.2578
 2331TIP3    H228629   0.141   0.961   0.879 -0.4550  0.2183 -0.6663
 2332TIP3   OH228630   2.580   0.683   7.524 -0.4260 -0.2862 -0.3910
 2332TIP3    H128631   2.542   0.723   7.446  3.2796  1.4099 -1.5227
 2332TIP3    H228632   2.515   0.698   7.593 -2.3281  1.1855 -2.3921
 2333TIP3   OH228633   2.166   2.585   1.192 -0.8017 -0.6709 -0.3089
 2333TIP3    H128634   2.106   2.524   1.235  0.6518 -2.9284 -1.3421
 2333TIP3    H228635   2.231   2.605   1.259 -1.4529  0.0864  0.1312
 2334TIP3   OH228636   2.439   3.173   1.516 -0.5281  0.1622  0.4578
 2334TIP3    H128637   2.476   3.168   1.604 -1.2315 -0.0270  0.7503
 2334TIP3    H228638   2.385   3.251   1.517  0.9658  1.2739 -0.4152
 2335TIP3   OH228639   3.224   0.328   7.775  0.4098 -0.2159  0.3839
 2335TIP3    H128640   3.259   0.333   7.686  1.3754  1.1021  0.8026
 2335TIP3    H228641   3.198   0.418   7.796  0.3170 -0.4810  1.4693
 2336TIP3   OH228642   1.117   6.848   1.130 -0.3641 -0.3884  0.1905
 2336TIP3    H128643   1.107   6.928   1.079 -2.9557 -1.1267 -0.5979
 2336TIP3    H228644   1.111   6.877   1.221 -1.3811  0.3233 -0.0829
 2337TIP3   OH228645   5.002   0.280   1.470  0.8399  0.1270 -0.1358
 2337TIP3    H128646   5.049   0.313   1.547  0.2039 -0.5013  0.5376
 2337TIP3    H228647   5.041   0.194   1.453  1.7220  0.7118 -1.1991
 2338TIP3   OH228648   3.851   1.925   7.978 -0.2888  0.1898 -0.0421
 2338TIP3    H128649   3.837   1.846   7.925 -0.7967  0.0120  0.3508
 2338TIP3    H228650   3.859   1.892   8.068  1.6657  0.3721 -0.1017
 2339TIP3   OH228651   6.731   2.013   6.663 -0.2515  0.2267 -0.2469
 2339TIP3    H128652   6.815   2.022   6.619  0.1325  1.2595  0.6674
 2339TIP3    H228653   6.670   1.987   6.594  1.1872 -2.6640 -0.5740
 2340TIP3   OH228654   0.309   3.913   1.533  0.2504 -0.0835 -0.4030
 2340TIP3    H128655   0.388   3.881   1.489 -0.0052 -1.0490 -0.2026
 2340TIP3    H228656   0.276   3.836   1.581 -0.0845  0.6501  0.5812
 2341TIP3   OH228657   0.989   1.006   0.423 -0.6356  0.0160 -0.5086
 2341TIP3    H128658   0.964   1.023   0.513  0.1705 -0.6849 -0.1396
 2341TIP3    H228659   0.912   0.963   0.384  0.0557 -2.5314  0.7260
 2342TIP3   OH228660   3.285   4.665   6.651  0.1919 -0.0769 -0.7019
 2342TIP3    H128661   3.363   4.696   6.696  0.4366 -1.6917  0.0535
 2342TIP3    H228662   3.234   4.744   6.634  1.2883  0.8378  0.1289
 2343TIP3   OH228663   4.395   3.231   7.850  0.0117  0.2906 -0.2427
 2343TIP3    H128664   4.486   3.211   7.833 -0.0382  0.2552 -0.4609
 2343TIP3    H228665   4.388   3.326   7.839 -0.0059  0.2765 -0.3526
 2344TIP3   OH228666   0.177   1.605   0.304 -0.4222 -0.1407 -0.3379
 2344TIP3    H128667   0.239   1.534   0.284 -0.2322 -0.1967  0.4261
 2344TIP3    H228668   0.162   1.647   0.220  1.2585  0.3530 -0.4414
 2345TIP3   OH228669   3.542   6.497   2.105  0.1889 -0.0011 -0.2303
 2345TIP3    H128670   3.465   6.471   2.155 -0.6206  0.3385 -1.2706
 2345TIP3    H228671   3.579   6.414   2.074 -0.2631 -0.1264 -0.4459
 2346TIP3   OH228672   2.347   0.946   7.071  0.7069  0.1135 -0.1109
 2346TIP3    H128673   2.328   0.884   7.001  1.9220  0.0010 -0.3602
 2346TIP3    H228674   2.271   0.941   7.129 -0.8224  0.9556 -1.9313
 2347TIP3   OH228675   6.652   0.936   7.823 -0.1463  0.3595  0.4268
 2347TIP3    H128676   6.656   0.997   7.897 -2.5109  0.3460  0.6320
 2347TIP3    H228677   6.675   0.990   7.747 -2.4290  1.6457  0.5624
 2348TIP3   OH228678   4.935   2.732   8.149  0.0895 -0.1501 -0.0154
 2348TIP3    H128679   4.998   2.668   8.181 -1.4363 -0.6369  2.2478
 2348TIP3    H228680   4.868   2.679   8.105 -0.2823  0.0482  0.3065
 2349TIP3   OH228681   0.817   2.764   7.161  0.2130  0.1694  0.3420
 2349TIP3    H128682   0.859   2.708   7.097 -0.2340 -0.3001  0.4541
 2349TIP3    H228683   0.730   2.781   7.126  0.6988  1.6906 -0.2157
 2350TIP3   OH228684   5.690   6.246   6.781 -0.3123  0.0279  0.2868
 2350TIP3    H128685   5.620   6.182   6.767  0.6721 -0.8689 -0.6637
 2350TIP3    H228686   5.761   6.217   6.725  1.3933  0.1029  2.3047
 2351TIP3   OH228687   4.907   4.983   1.039  0.6794  0.1235 -0.1681
 2351TIP3    H128688   4.907   4.893   1.007 -2.0963 -0.5159  1.2401
 2351TIP3    H228689   4.940   4.976   1.128  0.3433  0.4559 -0.0145
 2352TIP3   OH228690   5.286   1.623   0.651 -0.3045 -0.5646  0.4349
 2352TIP3    H128691   5.316   1.654   0.737  1.2059 -0.3453 -0.1543
 2352TIP3    H228692   5.322   1.686   0.589 -1.0778 -0.9345 -0.4095
 2353TIP3   OH228693   4.709   3.054   0.645  0.1399 -0.5812 -0.5732
 2353TIP3    H128694   4.753   3.034   0.728 -2.2089 -0.6970  0.7228
 2353TIP3    H228695   4.645   2.984   0.635  0.1709 -0.3889 -2.3512
 2354TIP3   OH228696   4.543   0.943   0.167  0.0371  0.5711 -0.1102
 2354TIP3    H128697   4.450   0.932   0.184 -0.0809 -0.9506 -1.5300
 2354TIP3    H228698   4.572   1.006   0.233 -2.0243  1.2507  0.2093
 2355TIP3   OH228699   2.952   1.888   0.150 -0.1400  0.6861 -0.1445
 2355TIP3    H128700   2.962   1.799   0.184 -0.4461  0.9575  0.6687
 2355TIP3    H228701   3.033   1.903   0.101  0.2994  0.2638  0.4294
 2356TIP3   OH228702   3.727   6.037   6.656 -0.2741 -0.4539  0.0397
 2356TIP3    H128703   3.684   6.091   6.590  1.7957 -0.9632 -1.8860
 2356TIP3    H228704   3.675   5.956   6.658 -2.2503  0.7640  1.5226
 2357TIP3   OH228705   5.423   6.766   0.251  0.5962 -0.5718 -0.1351
 2357TIP3    H128706   5.498   6.711   0.230 -0.7993 -3.2565  1.2897
 2357TIP3    H228707   5.422   6.770   0.347 -0.7178 -0.0797 -0.1428
 2358TIP3   OH228708   1.236   1.647   0.999 -0.0658 -0.6873  0.5581
 2358TIP3    H128709   1.179   1.578   1.034 -1.9455  1.2102  1.4937
 2358TIP3    H228710   1.178   1.722   0.988  1.8169  0.6503 -0.8022
 2359TIP3   OH228711   3.263   0.380   7.503 -0.1552 -0.0433 -0.2705
 2359TIP3    H128712   3.356   0.404   7.508 -0.1827  0.1727 -0.7424
 2359TIP3    H228713   3.263   0.290   7.470 -0.0545 -0.6867  1.4154
 2360TIP3   OH228714   3.660   1.887   2.455 -0.0570  0.5268  0.7187
 2360TIP3    H128715   3.612   1.835   2.519 -0.0731  1.9798  1.9482
 2360TIP3    H228716   3.749   1.853   2.457 -0.7278 -1.5287 -0.8525
 2361TIP3   OH228717   4.873   4.368   8.399  0.2214 -0.2679 -0.3413
 2361TIP3    H128718   4.914   4.282   8.403 -0.7386 -0.7057  0.6154
 2361TIP3    H228719   4.848   4.379   8.307  1.4150 -0.4766 -0.7088
 2362TIP3   OH228720   4.320   0.926   1.669 -0.2129 -0.3643 -0.2102
 2362TIP3    H128721   4.329   1.021   1.663 -1.6795 -0.0204  1.9996
 2362TIP3    H228722   4.226   0.910   1.663 -0.1594 -1.4685  1.3891
 2363TIP3   OH228723   1.700   5.032   0.456  0.2887 -0.9239 -0.6894
 2363TIP3    H128724   1.611   5.004   0.435  0.1089 -0.8223 -0.0872
 2363TIP3    H228725   1.745   4.952   0.484 -0.1695 -0.6776  0.8446
 2364TIP3   OH228726   6.288   6.485   1.457 -0.3886 -0.4048 -0.2222
 2364TIP3    H128727   6.243   6.475   1.541 -0.6132 -2.5999 -0.5441
 2364TIP3    H228728   6.296   6.580   1.446  1.4686  0.0118  3.2103
 2365TIP3   OH228729   3.176   2.580   0.772 -0.3945  0.4264  0.0444
 2365TIP3    H128730   3.259   2.626   0.757 -0.2480  0.0435 -0.3684
 2365TIP3    H228731   3.111   2.629   0.722 -0.4984  0.9685  0.7039
 2366TIP3   OH228732   0.077   5.954   0.158 -0.1718  0.0635 -0.2510
 2366TIP3    H128733   0.155   5.976   0.208  0.1942 -0.4286 -0.5941
 2366TIP3    H228734   0.106   5.951   0.067 -0.5358 -0.3351 -0.3601
 2367TIP3   OH228735   4.437   2.150   2.002 -0.3013 -0.3423  0.5123
 2367TIP3    H128736   4.416   2.203   2.079 -0.5539 -1.5827  1.3128
 2367TIP3    H228737   4.379   2.074   2.009  1.3637 -1.6679  0.3919
 2368TIP3   OH228738   4.285   6.136   8.545  0.8992 -0.0841  0.5455
 2368TIP3    H128739   4.263   6.134   8.638 -1.2331 -0.8886  0.0783
 2368TIP3    H228740   4.287   6.229   8.523  0.8390  0.0904  1.2491
 2369TIP3   OH228741   1.075   2.726   1.341  0.3132 -0.4634 -0.0239
 2369TIP3    H128742   1.096   2.662   1.409  1.9334  0.1680  0.1187
 2369TIP3    H228743   1.142   2.794   1.350 -0.6856  0.6897 -0.9028
 2370TIP3   OH228744   0.883   6.193   8.179  0.5795 -0.6599  0.5726
 2370TIP3    H128745   0.928   6.111   8.157 -0.2500 -1.2655  1.0786
 2370TIP3    H228746   0.881   6.195   8.274  0.0799 -0.3324  0.5564
 2371TIP3   OH228747   5.754   4.804   0.024 -0.5698 -0.0731 -0.0836
 2371TIP3    H128748   5.842   4.781   0.054 -0.4503  2.1943  1.6317
 2371TIP3    H228749   5.765   4.829  -0.067  0.2082 -1.4633 -0.3988
 2372TIP3   OH228750   1.552   2.397   7.039 -0.2745 -0.1601  0.1889
 2372TIP3    H128751   1.635   2.403   6.992 -1.6792 -2.5667 -3.0044
 2372TIP3    H228752   1.570   2.340   7.113  0.9752 -0.5925 -0.4171
 2373TIP3   OH228753   4.601   1.867   6.607 -0.2471  0.4862 -0.3356
 2373TIP3    H128754   4.625   1.945   6.657  1.6370  0.6910 -1.4731
 2373TIP3    H228755   4.674   1.807   6.620 -2.1007 -1.6154  1.3898
 2374TIP3   OH228756   3.996   2.339   0.328 -0.0547  0.5779  0.4154
 2374TIP3    H128757   3.958   2.414   0.375  0.0613 -0.8625  3.0394
 2374TIP3    H228758   3.920   2.293   0.292 -0.1444  1.7395 -0.9860
 2375TIP3   OH228759   6.185   1.522   7.847 -0.0541 -0.2461 -0.1275
 2375TIP3    H128760   6.245   1.517   7.921 -1.4086  0.8001  1.1127
 2375TIP3    H228761   6.110   1.468   7.874 -1.9469  2.5613  0.7494
 2376TIP3   OH228762   2.970   2.768   2.014  0.0940  0.2552 -0.3537
 2376TIP3    H128763   3.012   2.757   2.100 -2.5142 -0.5032  0.9229
 2376TIP3    H228764   3.027   2.720   1.954  0.6265 -1.4918  1.4279
 2377TIP3   OH228765   1.342   5.917   8.465  0.5836 -0.3069  0.5226
 2377TIP3    H128766   1.291   5.997   8.474  2.1781  0.7503  0.4213
 2377TIP3    H228767   1.286   5.858   8.414 -1.2247  0.1600  1.8578
 2378TIP3   OH228768   0.725   0.281   7.150 -0.7545  0.1011  0.2872
 2378TIP3    H128769   0.786   0.350   7.178 -0.8153 -0.6989  2.6016
 2378TIP3    H228770   0.650   0.329   7.114 -0.8595  1.2914  1.9684
 2379TIP3   OH228771   2.889   5.429   1.216  0.0725 -0.7743  0.4596
 2379TIP3    H128772   2.827   5.501   1.207  1.5141  0.2963 -1.5866
 2379TIP3    H228773   2.975   5.469   1.209  0.9207 -2.7387 -1.6253
 2380TIP3   OH228774   4.388   1.499   7.453  0.7292 -0.1439 -0.4684
 2380TIP3    H128775   4.459   1.435   7.445  2.0286  1.0067  1.1293
 2380TIP3    H228776   4.430   1.583   7.434 -0.4521  0.4587 -0.4706
 2381TIP3   OH228777   3.405   5.621   6.881 -0.0588 -0.0298 -0.0613
 2381TIP3    H128778   3.400   5.656   6.792  2.6955  0.5335 -0.1034
 2381TIP3    H228779   3.397   5.698   6.937 -0.4253 -0.2112  0.1425
 2382TIP3   OH228780   4.909   0.779   7.378  0.2694  0.5131  0.2647
 2382TIP3    H128781   4.916   0.731   7.295 -0.2580 -1.0719  1.0892
 2382TIP3    H228782   4.885   0.712   7.442  2.2895  1.3437  2.0321
 2383TIP3   OH228783   2.525   4.221   0.695  0.0813  0.0876  0.7873
 2383TIP3    H128784   2.540   4.274   0.773  0.6877  1.9812 -0.5505
 2383TIP3    H228785   2.524   4.284   0.623  0.8286 -1.7396 -0.9006
 2384TIP3   OH228786   1.218   2.089   7.073  0.2067 -0.7612 -0.1907
 2384TIP3    H128787   1.260   2.104   6.989 -0.1066  1.7683  0.0212
 2384TIP3    H228788   1.290   2.077   7.135  0.4638 -1.2195 -0.5713
 2385TIP3   OH228789   6.537   4.804   0.851 -0.6506 -0.1196 -0.1196
 2385TIP3    H128790   6.578   4.735   0.799  1.1380 -1.2065  2.5188
 2385TIP3    H228791   6.584   4.884   0.826 -0.3737 -0.4828 -0.7757
 2386TIP3   OH228792   5.129   3.979   1.061  0.1184  0.2080 -0.1391
 2386TIP3    H128793   5.159   3.926   0.987 -0.6874  1.3763 -1.3585
 2386TIP3    H228794   5.159   4.068   1.041  1.7507  0.2551  2.0299
 2387TIP3   OH228795   1.670   1.692   1.543 -0.6108 -0.1680  0.1236
 2387TIP3    H128796   1.584   1.702   1.502 -1.8408 -1.0537  2.2931
 2387TIP3    H228797   1.711   1.620   1.495 -0.2655  1.4435 -2.1237
 2388TIP3   OH228798   1.054   6.502   6.264 -0.5564  0.3150  0.3136
 2388TIP3    H128799   0.972   6.495   6.312 -0.3865  2.0853  0.9371
 2388TIP3    H228800   1.050   6.587   6.220 -0.1158 -0.6550 -1.7607
 2389TIP3   OH228801   2.268   0.101   8.778 -0.0778 -0.5083  0.1706
 2389TIP3    H128802   2.263   0.135   8.867 -0.4903 -0.7613  0.2472
 2389TIP3    H228803   2.177   0.096   8.749 -0.2045 -3.0575  0.7490
 2390TIP3   OH228804   0.116   5.673   1.359  0.0711 -0.9421 -0.1109
 2390TIP3    H128805   0.157   5.642   1.440 -1.1926 -0.6880  0.6390
 2390TIP3    H228806   0.023   5.679   1.379 -0.1160  0.2831 -1.2267
 2391TIP3   OH228807   1.200   1.136   7.280 -0.2417  0.2145  0.0800
 2391TIP3    H128808   1.291   1.143   7.250 -0.6180  0.6007 -1.0037
 2391TIP3    H228809   1.208   1.114   7.373  0.9598  0.1588 -0.0139
 2392TIP3   OH228810   6.076   2.823   8.251  0.3223 -0.3807 -0.3209
 2392TIP3    H128811   5.986   2.856   8.256 -0.1963 -1.7045 -0.2954
 2392TIP3    H228812   6.075   2.763   8.176  1.1196 -0.5967 -0.1695
 2393TIP3   OH228813   1.571   6.306   0.317 -0.2749  0.4424  0.0253
 2393TIP3    H128814   1.602   6.219   0.291  2.6983  1.1282  0.8765
 2393TIP3    H228815   1.508   6.289   0.387 -0.5543 -1.0274 -0.5376
 2394TIP3   OH228816   6.292   6.088   0.375  0.0878 -0.1678 -0.2952
 2394TIP3    H128817   6.246   6.041   0.444 -1.4019  1.6967  0.0675
 2394TIP3    H228818   6.343   6.155   0.421  0.6491 -0.1786 -0.8868
 2395TIP3   OH228819   5.468   3.031   2.708 -0.0630  0.3474 -0.4084
 2395TIP3    H128820   5.547   3.077   2.737 -0.9665  1.6447  0.0708
 2395TIP3    H228821   5.419   3.097   2.659 -2.1245  0.4296  1.5999
 2396TIP3   OH228822   0.823   4.915   1.331 -0.1025  0.3763 -0.0045
 2396TIP3    H128823   0.735   4.924   1.294 -0.1705  1.2611  0.3365
 2396TIP3    H228824   0.808   4.912   1.426  0.0895 -1.5435  0.0011
 2397TIP3   OH228825   4.265   6.605   8.153  0.5565 -0.0487 -0.0211
 2397TIP3    H128826   4.210   6.623   8.229  3.2229  1.0702  1.7882
 2397TIP3    H228827   4.244   6.515   8.129 -3.0660  0.7751 -0.4437
 2398TIP3   OH228828   3.995   1.115   2.243  0.5487  0.8992 -0.1221
 2398TIP3    H128829   4.061   1.046   2.236 -0.4896  0.0004 -1.5060
 2398TIP3    H228830   3.915   1.070   2.270 -0.5323  1.2284 -2.4590
 2399TIP3   OH228831   5.289   0.104   7.399  0.5097  0.0977  0.0051
 2399TIP3    H128832   5.230   0.030   7.408 -0.2296  0.6994  0.2447
 2399TIP3    H228833   5.246   0.162   7.336  0.2975  1.0507  0.9882
 2400TIP3   OH228834   2.599   0.762   2.153 -0.4396  0.4630  0.6023
 2400TIP3    H128835   2.606   0.680   2.104 -0.7815  1.2773 -0.8643
 2400TIP3    H228836   2.533   0.744   2.221 -1.0647 -0.2424 -0.1687
 2401TIP3   OH228837   4.689   6.171   0.261 -0.0763 -0.1916 -0.0770
 2401TIP3    H128838   4.775   6.131   0.250 -0.4787 -0.8704 -0.8898
 2401TIP3    H228839   4.649   6.166   0.174 -1.3113 -0.7880  0.5033
 2402TIP3   OH228840   5.503   2.320   6.940  0.2797  0.0744  0.3835
 2402TIP3    H128841   5.513   2.308   6.846 -1.1848  1.4406  0.0037
 2402TIP3    H228842   5.409   2.308   6.957  0.0523  2.3241  1.1939
 2403TIP3   OH228843   4.021   3.809   1.749 -0.0070 -0.2819 -0.3147
 2403TIP3    H128844   4.022   3.734   1.691  0.8098 -0.3113 -0.2842
 2403TIP3    H228845   3.962   3.784   1.820 -0.7346 -0.3812 -0.9519
 2404TIP3   OH228846   2.366   4.271   0.461 -0.1436 -0.0047 -0.5635
 2404TIP3    H128847   2.377   4.196   0.401  0.6150  0.0565 -0.5172
 2404TIP3    H228848   2.424   4.338   0.425  0.5930 -0.0885  0.4319
 2405TIP3   OH228849   2.982   3.835   0.343  0.4705 -0.2854 -0.4766
 2405TIP3    H128850   2.886   3.837   0.336  0.2236 -1.3847  1.6735
 2405TIP3    H228851   3.007   3.926   0.358 -0.5285 -0.2267  1.1922
 2406TIP3   OH228852   0.548   4.192   0.102  0.2496  0.4269  0.6001
 2406TIP3    H128853   0.607   4.116   0.108 -1.4585 -1.2272 -1.7317
 2406TIP3    H228854   0.552   4.218   0.010 -1.1972  1.4738  0.8059
 2407TIP3   OH228855   3.165   0.571   8.346 -1.0118 -0.3307 -0.0432
 2407TIP3    H128856   3.171   0.663   8.320 -0.4504 -0.9563 -2.3779
 2407TIP3    H228857   3.125   0.573   8.433 -1.8076  2.0596 -0.3959
 2408TIP3   OH228858   2.497   4.810   1.836 -0.5237 -0.3125  0.1590
 2408TIP3    H128859   2.514   4.900   1.810  1.0191 -0.7007 -0.3009
 2408TIP3    H228860   2.416   4.786   1.790 -1.3429  1.0267  0.8317
 2409TIP3   OH228861   5.101   0.745   1.450 -0.6662 -0.1154 -0.5897
 2409TIP3    H128862   5.123   0.751   1.543 -1.6336  0.5149 -0.3896
 2409TIP3    H228863   5.182   0.770   1.405 -0.9040  2.1635  0.1223
 2410TIP3   OH228864   4.253   4.844   0.790 -0.3414  0.1540 -0.4764
 2410TIP3    H128865   4.269   4.878   0.702 -0.4233 -0.7671 -0.8608
 2410TIP3    H228866   4.272   4.918   0.848 -1.8420  1.2891 -1.3439
 2411TIP3   OH228867   0.947   3.404   0.676 -0.7556  0.2472 -0.3716
 2411TIP3    H128868   0.928   3.331   0.736 -1.3380  1.8912  1.5413
 2411TIP3    H228869   0.982   3.473   0.732  1.2264  0.9662 -2.3443
 2412TIP3   OH228870   6.267   4.372   6.475 -0.8107  0.1561 -0.2858
 2412TIP3    H128871   6.281   4.323   6.556 -0.4641 -0.9256 -0.9905
 2412TIP3    H228872   6.326   4.448   6.483 -0.1521 -0.3863  0.1129
 2413TIP3   OH228873   4.781   4.614   7.318  0.0673 -0.2220 -0.0717
 2413TIP3    H128874   4.839   4.671   7.267 -0.1377 -0.0157 -0.0776
 2413TIP3    H228875   4.708   4.671   7.342 -0.2423 -0.5389 -0.2618
 2414TIP3   OH228876   2.555   0.652   6.248 -0.0407  0.6354 -0.8616
 2414TIP3    H128877   2.565   0.680   6.339 -0.1317 -1.2529 -0.2223
 2414TIP3    H228878   2.592   0.724   6.197  2.3705  0.6757  0.7651
 2415TIP3   OH228879   5.419   4.137   0.620 -0.8842 -0.6574 -0.0389
 2415TIP3    H128880   5.358   4.115   0.691  0.3988  1.7282  1.9721
 2415TIP3    H228881   5.505   4.113   0.655 -0.1719  1.0424 -0.5359
 2416TIP3   OH228882   5.262   3.026   1.433 -0.4121  0.3457 -0.0040
 2416TIP3    H128883   5.197   3.022   1.503 -0.7076  0.0229 -0.2930
 2416TIP3    H228884   5.217   2.990   1.356 -0.2189  1.0379 -0.4563
 2417TIP3   OH228885   4.567   5.188   8.767  0.0982  0.1684 -0.1260
 2417TIP3    H128886   4.657   5.180   8.737 -0.1525 -0.3953 -0.7675
 2417TIP3    H228887   4.532   5.099   8.761 -0.6573  0.4729 -0.4088
 2418TIP3   OH228888   4.376   4.813   1.582  0.6157 -0.0801 -0.0629
 2418TIP3    H128889   4.433   4.870   1.530 -1.8104  1.2754 -1.3731
 2418TIP3    H228890   4.370   4.732   1.531 -0.0560  0.4483 -0.8355
 2419TIP3   OH228891   5.322   4.996   0.339  0.0426 -0.6014  0.0612
 2419TIP3    H128892   5.310   4.997   0.434 -1.3564 -0.8436 -0.0875
 2419TIP3    H228893   5.310   4.905   0.313  2.5898 -0.9570 -0.1518
 2420TIP3   OH228894   1.458   2.086   8.793  0.7505  0.1509  0.1854
 2420TIP3    H128895   1.511   2.099   8.872  0.8849 -0.4521  0.2045
 2420TIP3    H228896   1.371   2.064   8.826  1.2815 -2.1129  0.2289
 2421TIP3   OH228897   4.677   1.655   8.210  0.4919  0.6271 -0.3437
 2421TIP3    H128898   4.594   1.647   8.163 -1.6038 -1.4398  3.2876
 2421TIP3    H228899   4.668   1.737   8.259 -0.4606 -0.5985  1.6578
 2422TIP3   OH228900   3.828   0.569   2.511 -0.2732 -0.0682 -0.0354
 2422TIP3    H128901   3.912   0.525   2.524 -0.3520 -0.0881  0.4148
 2422TIP3    H228902   3.763   0.512   2.553 -0.5451 -0.1654 -0.5753
 2423TIP3   OH228903   5.534   6.388   8.016 -0.0139 -0.1025 -0.6862
 2423TIP3    H128904   5.623   6.402   7.983 -0.5083 -1.2889 -2.7289
 2423TIP3    H228905   5.546   6.347   8.101  1.3561  3.2722  0.9359
 2424TIP3   OH228906   4.520   2.721   7.415 -0.1851  0.3077 -0.2947
 2424TIP3    H128907   4.575   2.717   7.493 -0.3962  0.1818 -0.1506
 2424TIP3    H228908   4.546   2.646   7.363 -1.5010 -0.8465  0.6353
 2425TIP3   OH228909   1.304   6.644   1.039  0.1936 -0.1184 -0.1859
 2425TIP3    H128910   1.347   6.608   1.116  2.4042  1.3824 -0.6150
 2425TIP3    H228911   1.256   6.720   1.072  2.4672  1.5164 -0.4039
 2426TIP3   OH228912   5.550   6.470   0.150 -0.3379 -0.1300  0.1671
 2426TIP3    H128913   5.621   6.492   0.211  1.3603 -2.8257 -0.6963
 2426TIP3    H228914   5.473   6.461   0.206  0.3670  1.0427  1.3932
 2427TIP3   OH228915   5.450   2.723   8.280 -0.0553  0.2234 -0.0797
 2427TIP3    H128916   5.412   2.810   8.266 -1.0322  0.3355  2.7103
 2427TIP3    H228917   5.455   2.714   8.375 -0.4999 -3.0052 -0.2545
 2428TIP3   OH228918   1.112   0.509   8.483 -0.0345  0.3126  0.1106
 2428TIP3    H128919   1.130   0.451   8.557  0.9601  0.4050 -0.0341
 2428TIP3    H228920   1.193   0.559   8.473 -0.7020  1.3713 -0.0864
 2429TIP3   OH228921   2.355   3.970   7.769 -0.4785 -0.1282  0.0768
 2429TIP3    H128922   2.438   3.924   7.759  0.3282  0.7428  2.1751
 2429TIP3    H228923   2.288   3.903   7.752  0.6271 -1.0055 -0.9959
 2430TIP3   OH228924   5.574   2.471   1.480 -0.3595  0.0554 -0.0518
 2430TIP3    H128925   5.572   2.553   1.431  0.1041 -0.7330 -1.4389
 2430TIP3    H228926   5.665   2.441   1.473 -0.3546 -0.2312  1.0365
 2431TIP3   OH228927   3.101   1.956   7.232 -0.0925 -0.1196 -0.2817
 2431TIP3    H128928   3.134   1.991   7.150 -0.5734 -1.2728 -0.9889
 2431TIP3    H228929   3.174   1.905   7.268 -0.0915 -0.1435 -0.3175
 2432TIP3   OH228930   0.580   3.326   7.502 -0.7441 -0.2137  0.3958
 2432TIP3    H128931   0.646   3.281   7.556  0.3406  0.9602  0.0970
 2432TIP3    H228932   0.614   3.415   7.492 -1.4966 -0.0805 -1.2664
 2433TIP3   OH228933   1.965   5.287   7.663 -0.0812 -0.2447  0.5412
 2433TIP3    H128934   1.933   5.304   7.574 -0.2937  0.7353  0.7967
 2433TIP3    H228935   1.944   5.195   7.678  1.1020 -0.7829 -0.8919
 2434TIP3   OH228936   4.272   1.316   2.236  0.3598 -0.2531 -0.1270
 2434TIP3    H128937   4.272   1.224   2.262  1.8256 -0.0908  0.5542
 2434TIP3    H228938   4.207   1.357   2.292  0.0416 -0.7851 -0.0995
 2435TIP3   OH228939   3.961   3.394   7.929 -0.6054 -1.0566  0.0298
 2435TIP3    H128940   3.886   3.373   7.983  0.7958 -1.9897  1.6786
 2435TIP3    H228941   4.037   3.373   7.982  0.9567  2.9300 -0.2423
 2436TIP3   OH228942   6.482   1.389   1.327 -0.6208 -0.1084 -0.4256
 2436TIP3    H128943   6.437   1.444   1.263 -1.8707  0.0174  0.5146
 2436TIP3    H228944   6.490   1.304   1.284  0.4913  0.5306 -1.5359
 2437TIP3   OH228945   1.403   0.170   7.847  0.5882 -0.3303  0.9800
 2437TIP3    H128946   1.427   0.183   7.938 -1.4864 -0.6618  1.6413
 2437TIP3    H228947   1.331   0.106   7.850  0.4765 -0.3696 -0.8884
 2438TIP3   OH228948   5.064   4.904   2.291 -0.3380 -0.4357 -0.3978
 2438TIP3    H128949   5.006   4.965   2.246 -0.7170 -0.7714 -0.3736
 2438TIP3    H228950   5.089   4.949   2.372  1.0854  0.5492 -1.3545
 2439TIP3   OH228951   5.699   0.586   0.921 -0.0976 -0.0484 -0.1940
 2439TIP3    H128952   5.792   0.565   0.907  0.0226 -0.8338  1.4477
 2439TIP3    H228953   5.690   0.590   1.016 -1.5007  1.3073 -0.3474
 2440TIP3   OH228954   3.468   1.316   6.912  0.1908 -0.6680 -0.9459
 2440TIP3    H128955   3.373   1.304   6.919  0.3176 -1.5645 -0.5625
 2440TIP3    H228956   3.479   1.403   6.874 -0.7067  0.9673  2.2377
 2441TIP3   OH228957   2.058   2.680   7.432 -0.0839  0.1268  0.1022
 2441TIP3    H128958   2.101   2.685   7.518 -0.4297 -1.6244  0.4127
 2441TIP3    H228959   1.978   2.629   7.448 -0.8381  0.9185 -1.0150
 2442TIP3   OH228960   1.599   0.742   0.603 -0.8359  0.8085  0.0049
 2442TIP3    H128961   1.686   0.754   0.640 -0.0975 -0.8959 -1.0946
 2442TIP3    H228962   1.614   0.707   0.516 -2.6258 -0.5712  0.1931
 2443TIP3   OH228963   5.862   3.912   0.656  0.3506 -0.1197 -0.5866
 2443TIP3    H128964   5.902   3.996   0.677 -1.0014  0.5287 -0.5387
 2443TIP3    H228965   5.883   3.856   0.732 -1.6827  1.2287  1.0872
 2444TIP3   OH228966   0.725   4.892   1.859  0.1064  0.1681 -0.3943
 2444TIP3    H128967   0.649   4.834   1.860 -0.7459  1.1883  2.2530
 2444TIP3    H228968   0.689   4.980   1.863  1.4268  0.7967 -1.5200
 2445TIP3   OH228969   1.247   2.996   7.553 -0.2670 -0.4181 -0.1855
 2445TIP3    H128970   1.294   3.067   7.510  0.7397 -0.6309  0.5449
 2445TIP3    H228971   1.288   2.987   7.638 -0.5979 -1.6603 -0.1322
 2446TIP3   OH228972   4.410   5.752   7.098 -0.2428  0.1454 -0.3937
 2446TIP3    H128973   4.487   5.707   7.063 -0.1561  0.4058 -0.5411
 2446TIP3    H228974   4.342   5.685   7.099 -0.3686  0.2497 -1.4700
 2447TIP3   OH228975   0.128   3.075   1.217  0.2569 -0.0966 -0.0705
 2447TIP3    H128976   0.174   2.999   1.251  0.3698 -0.1319 -0.3015
 2447TIP3    H228977   0.063   3.039   1.157  1.1717  0.0491 -1.1932
 2448TIP3   OH228978   3.196   1.983   8.313 -0.2524  0.4806  0.0149
 2448TIP3    H128979   3.116   2.001   8.363  1.0511  1.3170  1.8920
 2448TIP3    H228980   3.252   2.059   8.329  0.8890 -0.0215 -1.3875
 2449TIP3   OH228981   3.960   0.581   8.011 -0.2237  0.2545 -0.0347
 2449TIP3    H128982   4.023   0.526   7.964 -0.2651  0.6533 -0.5665
 2449TIP3    H228983   3.977   0.669   7.978 -0.5163  0.4801  0.4204
 2450TIP3   OH228984   6.648   3.630   7.630  0.9008  0.0562  0.2125
 2450TIP3    H128985   6.606   3.550   7.663  0.8789 -0.3220 -0.7076
 2450TIP3    H228986   6.678   3.607   7.542  0.3077  1.2513 -0.3310
 2451TIP3   OH228987   1.898   4.003   0.999  0.0702 -0.2237 -0.2121
 2451TIP3    H128988   1.970   3.989   0.937 -0.0742 -3.8080  0.2641
 2451TIP3    H228989   1.927   3.961   1.080 -1.5701  0.4592  0.7815
 2452TIP3   OH228990   4.342   2.239   6.810  0.3101  0.4717  0.4828
 2452TIP3    H128991   4.260   2.244   6.761 -0.2616  3.6623  1.5572
 2452TIP3    H228992   4.328   2.168   6.872 -0.5887 -0.7588 -1.0391
 2453TIP3   OH228993   5.741   2.598   8.172 -0.1362  0.3215 -0.4007
 2453TIP3    H128994   5.663   2.549   8.200 -0.0333  0.9824  1.1222
 2453TIP3    H228995   5.724   2.688   8.199  0.3571  0.8619 -1.7720
 2454TIP3   OH228996   5.870   0.240   7.027 -0.1928 -0.2777 -0.0786
 2454TIP3    H128997   5.903   0.272   6.944  2.4608 -0.1113  0.9547
 2454TIP3    H228998   5.846   0.319   7.076 -1.2986 -0.3528 -0.4697
 2455TIP3   OH228999   4.977   2.117   0.817  0.7892  0.0496  0.1500
 2455TIP3    H129000   5.026   2.195   0.844 -0.5827  2.0018 -2.4688
 2455TIP3    H229001   4.887   2.148   0.806 -0.5672 -2.7717  2.1834
 2456TIP3   OH229002   4.201   3.779   1.310 -0.2967 -0.1539 -0.3200
 2456TIP3    H129003   4.172   3.849   1.252 -0.1445  0.7446  0.6563
 2456TIP3    H229004   4.132   3.713   1.305 -0.0389 -0.3420 -1.9111
 2457TIP3   OH229005   5.883   5.874   1.079 -0.1694 -0.3259  0.2868
 2457TIP3    H129006   5.820   5.944   1.099  0.5811  0.6088 -0.5202
 2457TIP3    H229007   5.967   5.909   1.108  0.0494 -1.4307  1.0337
 2458TIP3   OH229008   2.664   2.019   0.522 -0.4259  0.4859 -0.7178
 2458TIP3    H129009   2.572   1.994   0.532 -0.4584  0.9662  0.3282
 2458TIP3    H229010   2.710   1.937   0.506 -1.1903  0.3767 -2.7045
 2459TIP3   OH229011   1.737   4.493   8.076  0.1828  0.1090  0.1862
 2459TIP3    H129012   1.703   4.529   8.158  1.7029  2.2827 -0.0581
 2459TIP3    H229013   1.666   4.436   8.045 -0.9273  0.1646  2.3679
 2460TIP3   OH229014   5.221   6.262   7.863 -0.4924  0.0881  0.3711
 2460TIP3    H129015   5.178   6.342   7.893  1.3839  0.9756  0.8602
 2460TIP3    H229016   5.161   6.225   7.799 -1.0865  2.3015 -0.4451
 2461TIP3   OH229017   3.594   5.255   1.076 -0.7476  0.6324  0.0511
 2461TIP3    H129018   3.561   5.306   1.002  3.2179  2.7194 -0.5500
 2461TIP3    H229019   3.665   5.202   1.040 -0.4291 -0.3083  1.9103
 2462TIP3   OH229020   3.415   1.514   0.956  0.1233  0.1168 -1.0257
 2462TIP3    H129021   3.495   1.478   0.995 -0.6232 -1.0772 -0.5256
 2462TIP3    H229022   3.446   1.586   0.902  1.5025 -0.0596 -0.5369
 2463TIP3   OH229023   2.184   5.112   8.070  0.4914  0.2625 -0.5154
 2463TIP3    H129024   2.171   5.202   8.098 -1.8829  0.3972 -1.8369
 2463TIP3    H229025   2.122   5.061   8.121 -0.9599 -0.0357 -2.4575
 2464TIP3   OH229026   1.632   6.138   7.503  0.7178  0.3628 -0.0723
 2464TIP3    H129027   1.567   6.207   7.490  0.5848  0.3998  0.7598
 2464TIP3    H229028   1.655   6.111   7.414  2.0229  2.6239 -0.4956
 2465TIP3   OH229029   1.075   1.860   7.154  0.5307 -0.0091 -0.0704
 2465TIP3    H129030   1.129   1.787   7.186  1.5124 -0.0788 -1.7356
 2465TIP3    H229031   1.139   1.926   7.126 -0.3426  1.6984  1.7668
 2466TIP3   OH229032   2.303   5.428   8.002  0.1359 -0.1138  0.0729
 2466TIP3    H129033   2.398   5.424   7.993  0.1774  0.6071  0.1230
 2466TIP3    H229034   2.270   5.408   7.914  0.3873  1.2077 -0.3449
 2467TIP3   OH229035   0.015   1.169   7.274  0.1638  0.3634  0.1037
 2467TIP3    H129036   0.005   1.081   7.238 -2.1273  0.7002 -0.2230
 2467TIP3    H229037   0.056   1.219   7.205 -1.6697  0.3333 -1.0752
 2468TIP3   OH229038   3.951   1.557   0.764 -0.6646 -0.1222 -0.7209
 2468TIP3    H129039   3.917   1.584   0.679 -2.7211 -1.8353 -0.5456
 2468TIP3    H229040   4.045   1.544   0.751 -1.0176 -0.8462 -2.8785
 2469TIP3   OH229041   4.622   5.034   2.088  0.6548 -0.3507  0.1777
 2469TIP3    H129042   4.712   5.028   2.058  0.4307 -1.2893 -0.3745
 2469TIP3    H229043   4.600   4.944   2.115  0.3190  0.1377  1.5942
 2470TIP3   OH229044   3.160   0.929   2.611  0.6147  0.7065 -0.0021
 2470TIP3    H129045   3.166   1.008   2.558  0.6640  2.4101  2.3779
 2470TIP3    H229046   3.249   0.892   2.609  0.9309  1.4485 -0.0959
 2471TIP3   OH229047   4.714   0.619   1.880  0.6977 -0.0057  0.1693
 2471TIP3    H129048   4.657   0.625   1.957 -0.7806 -1.6640 -0.7304
 2471TIP3    H229049   4.713   0.707   1.842  0.5839  0.5551  1.4105
 2472TIP3   OH229050   4.911   3.602   0.492  0.7071 -0.4447  0.4659
 2472TIP3    H129051   4.927   3.648   0.575 -0.8140  0.2170  0.4280
 2472TIP3    H229052   4.989   3.620   0.439 -0.0737  2.7682  0.1858
 2473TIP3   OH229053   3.143   2.333   8.033 -0.0977 -0.2354  0.1180
 2473TIP3    H129054   3.238   2.337   8.029 -0.0697  0.1401  1.0181
 2473TIP3    H229055   3.114   2.396   7.968  0.2583 -0.7539 -0.5559
 2474TIP3   OH229056   0.047   0.035   6.773 -0.2457  0.6784  0.4566
 2474TIP3    H129057  -0.039   0.055   6.736 -0.1178 -1.6399 -1.3391
 2474TIP3    H229058   0.105   0.101   6.737 -1.2028  2.1786  1.5702
 2475TIP3   OH229059   6.641   6.788   8.663  0.4456 -0.1452  0.0197
 2475TIP3    H129060   6.596   6.703   8.658  0.1772 -0.0758  0.9913
 2475TIP3    H229061   6.596   6.843   8.599 -1.6009  0.2317  1.6599
 2476TIP3   OH229062   4.076   1.413   2.410  0.0206  0.0829  0.3190
 2476TIP3    H129063   4.011   1.360   2.456 -2.8279  0.9151 -2.3337
 2476TIP3    H229064   4.067   1.500   2.448 -1.8481  0.6110 -1.1390
 2477TIP3   OH229065   4.731   0.293   1.325 -1.1270 -0.3223 -0.4748
 2477TIP3    H129066   4.696   0.381   1.311  0.7804  0.6282  0.4125
 2477TIP3    H229067   4.810   0.306   1.378 -0.3878 -2.5006 -0.9305
 2478TIP3   OH229068   2.414   3.921   0.789  0.8905  0.1396  0.0203
 2478TIP3    H129069   2.372   3.969   0.717  0.3383 -0.4806 -0.0727
 2478TIP3    H229070   2.468   3.855   0.745  0.0940 -0.6323  0.1651
 2479TIP3   OH229071   2.455   1.119   0.288 -0.0989 -0.4541 -0.8632
 2479TIP3    H129072   2.501   1.094   0.207  1.8931 -0.8559  0.3093
 2479TIP3    H229073   2.489   1.058   0.353  0.0579  1.2810  0.7464
 2480TIP3   OH229074   2.465   4.998   8.583  0.2471  0.8442  0.1985
 2480TIP3    H129075   2.448   4.906   8.600 -0.3207  1.1335  1.2828
 2480TIP3    H229076   2.488   5.002   8.490 -0.4644 -0.2830 -0.0389
 2481TIP3   OH229077   6.579   1.138   1.588  0.7068  0.0324 -0.3485
 2481TIP3    H129078   6.656   1.188   1.561  0.4807  0.8324  0.4406
 2481TIP3    H229079   6.588   1.054   1.543  2.6936 -0.3721  0.6646
 2482TIP3   OH229080   3.408   5.924   1.677  0.6932 -0.0311  0.3278
 2482TIP3    H129081   3.445   5.983   1.743  0.7976  0.6112 -0.2863
 2482TIP3    H229082   3.393   5.981   1.601 -1.5213 -0.2723  0.5298
 2483TIP3   OH229083   1.432   4.606   8.489  0.1925  0.4213  0.4550
 2483TIP3    H129084   1.355   4.637   8.536  1.1100  1.1778  1.5275
 2483TIP3    H229085   1.398   4.567   8.409 -1.2421  1.3896  0.5612
 2484TIP3   OH229086   1.012   1.523   1.071 -0.4624 -0.2232 -0.6716
 2484TIP3    H129087   0.973   1.587   1.012  0.3813  2.3858  1.3992
 2484TIP3    H229088   0.957   1.524   1.149 -0.1327 -1.7021 -0.3784
 2485TIP3   OH229089   6.407   4.932   2.035  0.1189 -0.2270 -0.3587
 2485TIP3    H129090   6.435   4.847   2.068  1.0070  0.4227  0.5900
 2485TIP3    H229091   6.395   4.918   1.941 -2.0623 -1.9990  0.0869
 2486TIP3   OH229092   1.570   3.859   0.809  0.2785  0.5537 -0.0071
 2486TIP3    H129093   1.616   3.775   0.807 -2.1407 -0.8403  0.0912
 2486TIP3    H229094   1.611   3.909   0.738  2.6782 -0.1304  0.7771
 2487TIP3   OH229095   1.324   2.706   1.681 -0.4602 -0.4691 -0.0385
 2487TIP3    H129096   1.416   2.706   1.651 -0.2699  0.8314  0.4786
 2487TIP3    H229097   1.326   2.659   1.764 -0.2097 -0.1960  0.1122
 2488TIP3   OH229098   5.953   6.474   1.119  0.1411 -0.1732 -0.0369
 2488TIP3    H129099   6.000   6.557   1.120  0.9715 -0.5913 -1.5619
 2488TIP3    H229100   6.014   6.411   1.155  0.5440 -0.5925 -1.3908
 2489TIP3   OH229101   4.992   2.582   0.764  0.1247  0.1747  0.2054
 2489TIP3    H129102   4.927   2.534   0.816 -0.1854  0.5302  0.1477
 2489TIP3    H229103   4.948   2.599   0.681 -0.1589  1.4879  0.6062
 2490TIP3   OH229104   5.225   3.846   0.811  0.0351  0.7932 -0.4800
 2490TIP3    H129105   5.196   3.925   0.766 -1.6898  0.1299 -0.6317
 2490TIP3    H229106   5.168   3.776   0.776  0.7601 -0.3006  0.4484
 2491TIP3   OH229107   5.187   4.449   8.260 -0.5494 -0.2479 -0.2963
 2491TIP3    H129108   5.214   4.399   8.337 -0.1882  0.0416 -0.2324
 2491TIP3    H229109   5.236   4.411   8.188  0.1990  0.4095 -0.1475
 2492TIP3   OH229110   0.933   5.463   0.526  0.3771 -0.1113 -0.2845
 2492TIP3    H129111   0.935   5.396   0.458  0.5934 -0.2527 -0.1408
 2492TIP3    H229112   0.932   5.413   0.608 -1.4688  0.0158 -0.1802
 2493TIP3   OH229113   2.773   1.374   0.070  0.3494 -0.4841  0.2465
 2493TIP3    H129114   2.817   1.386  -0.014 -1.7154  2.2540 -0.5572
 2493TIP3    H229115   2.684   1.350   0.047 -0.3430  0.6519  1.6213
 2494TIP3   OH229116   2.523   4.706   1.391 -0.2257  0.1201  0.0974
 2494TIP3    H129117   2.604   4.656   1.383 -0.1531 -0.2000  2.3376
 2494TIP3    H229118   2.470   4.656   1.453 -2.7185 -0.3479 -2.1927
 2495TIP3   OH229119   5.146   5.286   8.315  0.2161 -0.3621 -0.0727
 2495TIP3    H129120   5.073   5.241   8.358 -0.2067 -0.1802 -0.5853
 2495TIP3    H229121   5.205   5.310   8.386 -0.6728  0.3078  0.4586
 2496TIP3   OH229122   4.271   5.308   7.157 -0.3269 -0.1741 -0.4316
 2496TIP3    H129123   4.309   5.353   7.232 -1.5696 -0.1917  0.2231
 2496TIP3    H229124   4.344   5.300   7.095  0.2529  1.6076 -0.0517
 2497TIP3   OH229125   3.673   4.687   1.554 -0.1528  0.4095  0.3898
 2497TIP3    H129126   3.700   4.659   1.641  0.8144  3.8590  1.3752
 2497TIP3    H229127   3.604   4.752   1.570 -0.4947  0.5657 -1.4502
 2498TIP3   OH229128   6.829   5.800   7.720 -0.3295 -0.3336 -0.7055
 2498TIP3    H129129   6.780   5.727   7.684  1.5727 -2.2333  0.3462
 2498TIP3    H229130   6.884   5.831   7.647 -1.5364  0.4925 -1.3089
 2499TIP3   OH229131   6.295   2.102   8.630  0.3975 -0.2686 -0.1167
 2499TIP3    H129132   6.305   2.179   8.685 -0.2254  1.1484 -1.8771
 2499TIP3    H229133   6.354   2.037   8.668  2.5965  1.7619  0.1898
 2500TIP3   OH229134   2.835   0.112   7.882  0.2996  0.3360  0.3887
 2500TIP3    H129135   2.866   0.143   7.797  0.9854 -0.0487  0.4893
 2500TIP3    H229136   2.868   0.177   7.944  2.1284 -0.7577  0.6531
 2501TIP3   OH229137   2.397   5.974   1.255 -0.1209 -0.4879 -0.0317
 2501TIP3    H129138   2.377   5.933   1.339 -2.0098 -1.1553 -0.7578
 2501TIP3    H229139   2.339   5.930   1.192 -0.8415  1.9500 -1.2045
 2502TIP3   OH229140   1.873   5.751   1.885  0.0218  0.7457  0.2576
 2502TIP3    H129141   1.830   5.666   1.891 -1.7977  1.5450 -0.9666
 2502TIP3    H229142   1.964   5.732   1.909 -0.2763 -1.5688 -0.1713
 2503TIP3   OH229143   5.401   2.972   0.697  0.5155  0.6589  0.2638
 2503TIP3    H129144   5.307   2.964   0.709  0.4585 -0.0012 -0.5442
 2503TIP3    H229145   5.426   3.049   0.749 -0.1959 -0.1296  1.8346
 2504TIP3   OH229146   6.731   1.718   7.733 -0.1179 -0.1258 -0.3001
 2504TIP3    H129147   6.781   1.721   7.814  0.4128  2.4539 -0.6487
 2504TIP3    H229148   6.787   1.761   7.668 -0.7615 -1.6178 -1.9205
 2505TIP3   OH229149   3.489   4.792   6.861  0.2673 -0.3459 -0.9915
 2505TIP3    H129150   3.527   4.836   6.786  1.0711 -0.7477 -0.8365
 2505TIP3    H229151   3.414   4.846   6.886  0.8899  0.6071 -1.1543
 2506TIP3   OH229152   0.250   0.483   1.061 -0.5918 -0.0742  0.1045
 2506TIP3    H129153   0.337   0.494   1.098 -0.5637 -0.0287  0.0260
 2506TIP3    H229154   0.213   0.571   1.060 -1.2335 -0.2951  1.5779
 2507TIP3   OH229155   6.240   0.778   7.105  0.2133 -0.0261 -0.3066
 2507TIP3    H129156   6.245   0.869   7.077  0.3697 -0.1563 -0.7175
 2507TIP3    H229157   6.186   0.735   7.038 -1.8443  0.2238  1.1169
 2508TIP3   OH229158   5.789   6.006   7.559  0.3415  0.3539 -0.5183
 2508TIP3    H129159   5.833   5.992   7.476  0.0978 -1.6761 -0.3504
 2508TIP3    H229160   5.703   6.039   7.535  1.1742  2.3764 -0.9217
 2509TIP3   OH229161   3.094   4.812   2.106  0.4601 -0.1476  0.2327
 2509TIP3    H129162   3.123   4.890   2.058 -0.5625  0.5528  0.7108
 2509TIP3    H229163   3.172   4.781   2.152  1.1500 -0.0938 -0.8907
 2510TIP3   OH229164   5.547   4.709   1.820 -0.8786 -0.0126 -0.0979
 2510TIP3    H129165   5.487   4.763   1.770  1.0811  0.6069 -1.9598
 2510TIP3    H229166   5.584   4.768   1.885 -0.2637  0.3932 -0.7912
 2511TIP3   OH229167   4.845   4.489   1.864 -0.4446 -0.1443  0.3744
 2511TIP3    H129168   4.782   4.422   1.886 -0.9669  0.6300  1.3046
 2511TIP3    H229169   4.899   4.499   1.942  1.9914 -1.9911 -0.9372
 2512TIP3   OH229170   1.910   4.599   7.878 -0.4624  0.3257  0.0103
 2512TIP3    H129171   1.850   4.552   7.936 -0.5564 -0.9505 -1.0811
 2512TIP3    H229172   1.974   4.638   7.938 -0.6072 -0.8741  0.9999
 2513TIP3   OH229173   2.210   6.519   0.069  0.2571 -0.5793  0.3556
 2513TIP3    H129174   2.290   6.559   0.036 -0.2155 -0.3923 -0.6074
 2513TIP3    H229175   2.208   6.432   0.029  0.1528 -0.7165  0.6523
 2514TIP3   OH229176   6.036   0.704   1.754  0.2710  0.2039  0.0183
 2514TIP3    H129177   5.999   0.671   1.836  0.2013  0.0436 -0.0762
 2514TIP3    H229178   5.962   0.703   1.693  0.0689  1.3204  0.2298
 2515TIP3   OH229179   6.395   3.351   1.446  0.1867 -0.4505 -0.4421
 2515TIP3    H129180   6.405   3.384   1.535  1.1977 -0.2068 -0.6298
 2515TIP3    H229181   6.376   3.258   1.457 -0.0496 -0.3520  0.0300
 2516TIP3   OH229182   3.038   3.437   7.873 -0.3676  0.0418  0.2162
 2516TIP3    H129183   3.060   3.520   7.831  1.2669 -0.4029  0.1114
 2516TIP3    H229184   3.037   3.374   7.802 -0.8463 -0.1522  0.3958
 2517TIP3   OH229185   1.835   3.268   2.523  0.3905  0.1558 -0.0063
 2517TIP3    H129186   1.788   3.216   2.588  0.3848  1.0465  0.7130
 2517TIP3    H229187   1.887   3.203   2.474 -0.0636 -0.5919  0.4842
 2518TIP3   OH229188   0.349   3.347   7.891  0.2629  0.0348  0.2442
 2518TIP3    H129189   0.414   3.407   7.855 -1.4682  0.9002 -1.5720
 2518TIP3    H229190   0.332   3.381   7.979  2.8085 -0.7088  1.1057
 2519TIP3   OH229191   3.444   4.584   7.421 -0.5185 -0.5983 -0.1865
 2519TIP3    H129192   3.529   4.612   7.455 -0.5282  0.4426 -0.9624
 2519TIP3    H229193   3.407   4.531   7.491 -0.2996  0.9941  1.2015
 2520TIP3   OH229194   3.724   1.178   8.394 -0.2181  0.2476 -0.1076
 2520TIP3    H129195   3.705   1.260   8.348 -2.3553 -0.3649 -0.4425
 2520TIP3    H229196   3.794   1.138   8.343 -0.7840  0.7737 -1.3401
 2521TIP3   OH229197   1.514   2.449   0.546 -0.4732 -0.2108 -0.3164
 2521TIP3    H129198   1.526   2.359   0.515 -0.4420  0.3325 -2.0289
 2521TIP3    H229199   1.559   2.502   0.479 -1.0301  1.1047  0.3340
 2522TIP3   OH229200   5.413   1.222   1.408 -0.0716  0.1299 -0.3283
 2522TIP3    H129201   5.359   1.224   1.488  0.5074 -0.5969  0.0970
 2522TIP3    H229202   5.350   1.216   1.337 -0.6166  1.2333  0.0397
 2523TIP3   OH229203   5.025   1.013   0.775  0.4075  0.1674  0.3349
 2523TIP3    H129204   4.955   0.951   0.757 -0.3500  0.5796  1.6964
 2523TIP3    H229205   5.101   0.979   0.728 -0.0707 -1.6190  0.7827
 2524TIP3   OH229206   3.513   3.271   0.157  0.3226  0.1027  0.3059
 2524TIP3    H129207   3.452   3.305   0.223 -0.0422  1.3240 -0.6381
 2524TIP3    H229208   3.543   3.348   0.109  3.4812 -0.2818  1.3957
 2525TIP3   OH229209   1.061   5.405   0.952  0.6003 -0.3994  0.2163
 2525TIP3    H129210   1.005   5.362   0.888  0.4722  0.0571  0.0214
 2525TIP3    H229211   1.059   5.497   0.928 -1.3925  0.1859  2.3064
 2526TIP3   OH229212   3.994   0.501   8.621  0.6269  0.5143 -0.1215
 2526TIP3    H129213   3.988   0.406   8.619  0.7052  0.5186 -0.6627
 2526TIP3    H229214   3.951   0.530   8.541 -0.8813  1.0199  0.8287
 2527TIP3   OH229215   4.372   1.542   0.164  0.3183  0.4941  0.0006
 2527TIP3    H129216   4.427   1.509   0.234 -0.2654 -1.2182 -0.3089
 2527TIP3    H229217   4.285   1.507   0.183 -0.1366  1.1070 -0.8612
 2528TIP3   OH229218   6.747   1.572   8.291  0.1630  0.1978  0.4803
 2528TIP3    H129219   6.690   1.642   8.324 -0.6874 -0.5364  0.6060
 2528TIP3    H229220   6.687   1.502   8.267  1.0705 -0.8960  1.3112
 2529TIP3   OH229221   1.322   5.666   7.078 -0.7863  0.2851 -0.0982
 2529TIP3    H129222   1.313   5.657   6.983 -0.8399  0.4224 -0.1059
 2529TIP3    H229223   1.409   5.630   7.097 -1.3487 -1.1150 -0.0087
 2530TIP3   OH229224   2.708   0.601   7.877  0.4889  0.8361  0.1332
 2530TIP3    H129225   2.781   0.567   7.825 -1.2367  0.2842 -2.0905
 2530TIP3    H229226   2.707   0.695   7.858 -0.1467  0.6332 -0.9077
 2531TIP3   OH229227   4.525   3.951   6.933  0.1620 -0.3301 -0.1318
 2531TIP3    H129228   4.530   3.869   6.982  0.1964 -1.1953 -1.5577
 2531TIP3    H229229   4.458   3.935   6.866 -0.6710  1.2037  0.2884
 2532TIP3   OH229230   0.319   0.197   7.506  0.5840  0.5286 -0.7740
 2532TIP3    H129231   0.275   0.176   7.588 -0.7759 -0.8270 -1.7816
 2532TIP3    H229232   0.341   0.111   7.468 -0.0870  1.0696 -2.4567
 2533TIP3   OH229233   2.878   5.903   7.325  0.1921  0.5346 -0.8227
 2533TIP3    H129234   2.840   5.815   7.330 -0.1858  0.5114 -3.0816
 2533TIP3    H229235   2.816   5.958   7.374 -0.2051 -0.2633 -0.4093
 2534TIP3   OH229236   6.538   2.958   7.261 -0.2821  0.0115  0.2728
 2534TIP3    H129237   6.518   2.990   7.350 -0.0144 -1.7548  1.0006
 2534TIP3    H229238   6.474   2.888   7.246  1.5621 -1.7641  0.3098
 2535TIP3   OH229239   6.080   2.121   1.700 -0.5475 -0.5174 -0.0977
 2535TIP3    H129240   5.991   2.088   1.691 -0.2283 -1.6704  0.6203
 2535TIP3    H229241   6.091   2.135   1.794 -0.5072  1.2531 -0.3406
 2536TIP3   OH229242   4.587   5.038   0.322  0.1185 -0.0572 -0.4300
 2536TIP3    H129243   4.571   5.103   0.391 -0.8559 -0.1062 -0.5896
 2536TIP3    H229244   4.681   5.044   0.304  0.1306  0.9632 -0.1001
 2537TIP3   OH229245   4.069   0.459   7.538 -0.2447  0.2495  0.3379
 2537TIP3    H129246   3.980   0.437   7.568 -0.4010  0.0431 -0.2769
 2537TIP3    H229247   4.111   0.375   7.524  0.0397  0.3489  0.5916
 2538TIP3   OH229248   2.673   0.285   1.645  0.2759 -0.1414  0.1496
 2538TIP3    H129249   2.639   0.225   1.579 -1.0571  0.3974  0.3249
 2538TIP3    H229250   2.649   0.372   1.614 -0.0742  0.1430  1.1683
 2539TIP3   OH229251   4.250   0.512   8.138  0.3699  0.0276  0.3740
 2539TIP3    H129252   4.187   0.451   8.098  1.1838 -1.2126  0.9437
 2539TIP3    H229253   4.215   0.598   8.117  0.5267 -0.5344 -2.7238
 2540TIP3   OH229254   5.411   6.353   0.843 -0.3826  0.0970  0.6266
 2540TIP3    H129255   5.441   6.298   0.915  1.3857  2.2965  1.7119
 2540TIP3    H229256   5.465   6.327   0.768  0.4744  0.3353  1.1429
 2541TIP3   OH229257   6.171   5.505   8.422  0.6854 -0.2731  0.0778
 2541TIP3    H129258   6.204   5.509   8.333  0.9819  1.3494  0.2344
 2541TIP3    H229259   6.213   5.579   8.467 -0.5012 -0.2438  1.2004
 2542TIP3   OH229260   5.820   5.478   8.171  0.2524 -0.1528  0.3301
 2542TIP3    H129261   5.889   5.420   8.200  0.7121 -0.2600 -0.8986
 2542TIP3    H229262   5.863   5.563   8.160 -0.5932  0.7172  2.9593
 2543TIP3   OH229263   2.980   5.989   0.179  0.3017 -0.5648 -0.0383
 2543TIP3    H129264   2.981   5.919   0.245  1.8706 -1.2213 -0.7027
 2543TIP3    H229265   3.057   6.041   0.198  0.0949 -0.0393 -0.6178
 2544TIP3   OH229266   2.506   4.313   0.171  0.4236 -0.2101  0.0638
 2544TIP3    H129267   2.498   4.221   0.145  2.4094 -0.2032 -0.7420
 2544TIP3    H229268   2.599   4.323   0.194  0.3278  1.6933 -0.2559
 2545TIP3   OH229269   1.905   5.536   1.174  0.1861  0.1311 -0.0302
 2545TIP3    H129270   1.949   5.548   1.090  0.7163  1.4797  0.4181
 2545TIP3    H229271   1.845   5.463   1.159  1.5131 -0.8056 -1.0726
 2546TIP3   OH229272   3.514   1.877   1.754 -0.1012 -0.3144 -0.0503
 2546TIP3    H129273   3.489   1.968   1.736 -0.3093  0.2191  2.5480
 2546TIP3    H229274   3.589   1.885   1.813 -1.1179 -1.7884  1.5068
 2547TIP3   OH229275   5.126   5.077   1.541 -1.0797 -0.5512 -0.5344
 2547TIP3    H129276   5.069   5.120   1.604 -1.0895  0.5974 -1.2983
 2547TIP3    H229277   5.213   5.113   1.558 -0.8019 -1.3654 -0.1935
 2548TIP3   OH229278   0.517   5.713   0.111 -0.4671  0.3108  0.0807
 2548TIP3    H129279   0.502   5.632   0.063  1.8545 -0.3136  0.3063
 2548TIP3    H229280   0.560   5.772   0.048  1.5206 -0.1062  0.9615
 2549TIP3   OH229281   3.779   3.426   0.200  0.4547 -0.5719 -0.3822
 2549TIP3    H129282   3.811   3.341   0.172 -1.2653 -0.8152 -1.8371
 2549TIP3    H229283   3.793   3.484   0.125 -2.0998 -0.6426 -1.0173
 2550TIP3   OH229284   3.004   3.205   7.028  0.0550  0.3697  0.1724
 2550TIP3    H129285   3.034   3.292   7.004 -1.0625  0.2178 -2.0907
 2550TIP3    H229286   2.909   3.208   7.018 -0.0585 -0.9399  0.5834
 2551TIP3   OH229287   4.526   6.592   0.020 -0.6191  0.1681 -0.4622
 2551TIP3    H129288   4.458   6.564  -0.042  0.1084 -1.0443 -0.7499
 2551TIP3    H229289   4.606   6.554  -0.015  0.8827  4.1118 -1.9227
 2552TIP3   OH229290   5.977   4.922   7.190  0.1082 -0.1480  0.3636
 2552TIP3    H129291   6.000   4.995   7.133 -0.2643  0.0883  0.5064
 2552TIP3    H229292   5.918   4.961   7.255 -1.4776 -0.9234 -0.5662
 2553TIP3   OH229293   2.007   4.177   1.374  0.1495 -0.2942 -0.3913
 2553TIP3    H129294   2.098   4.155   1.354 -0.0679  0.4152 -2.3937
 2553TIP3    H229295   2.003   4.272   1.370 -0.4947 -0.2623  0.6241
 2554TIP3   OH229296   6.155   1.539   8.153  0.5589 -0.2974  0.7850
 2554TIP3    H129297   6.074   1.490   8.141  0.6065 -0.0407 -0.8435
 2554TIP3    H229298   6.126   1.628   8.172  0.4433 -0.2455  0.3862
 2555TIP3   OH229299   5.024   3.182   2.045  0.1072  0.0153  0.5033
 2555TIP3    H129300   5.086   3.212   1.979  0.0789  0.8012  0.8231
 2555TIP3    H229301   4.938   3.208   2.010 -0.2067 -2.3214 -0.6205
 2556TIP3   OH229302   6.353   0.276   7.713 -0.2881  0.0055 -0.3023
 2556TIP3    H129303   6.278   0.309   7.663 -0.8961  0.0441  0.6194
 2556TIP3    H229304   6.425   0.275   7.649 -0.9511  0.4037 -1.0806
 2557TIP3   OH229305   6.268   4.855   8.264  0.1057  0.1479  0.1660
 2557TIP3    H129306   6.287   4.928   8.323 -0.0161  0.0435  0.3358
 2557TIP3    H229307   6.351   4.837   8.221  0.7463 -1.1156  1.8060
 2558TIP3   OH229308   3.120   5.999   7.414  0.0351 -0.2328  0.6921
 2558TIP3    H129309   3.105   6.087   7.447  1.4002  0.4791 -0.4875
 2558TIP3    H229310   3.032   5.968   7.390 -0.2023  2.2603 -2.3086
 2559TIP3   OH229311   6.118   5.598   1.586 -0.2696 -0.3736 -0.5050
 2559TIP3    H129312   6.119   5.565   1.676  1.5660 -1.3032 -0.8123
 2559TIP3    H229313   6.098   5.521   1.533 -1.6844  0.2432 -0.8967
 2560TIP3   OH229314   6.055   5.717   7.431 -0.0461  0.3650  0.0264
 2560TIP3    H129315   6.046   5.670   7.514 -0.9886  0.6140  0.0693
 2560TIP3    H229316   6.072   5.648   7.367 -0.5444  0.0497  0.2289
 2561TIP3   OH229317   5.780   4.873   0.947  0.3607 -0.0062  0.4563
 2561TIP3    H129318   5.769   4.855   0.854 -2.0791 -1.7037  0.9629
 2561TIP3    H229319   5.851   4.816   0.975  0.3401 -0.3275 -0.1454
 2562TIP3   OH229320   2.489   6.696   1.997 -0.6724 -0.4870  0.1430
 2562TIP3    H129321   2.541   6.650   2.063  0.0885  0.0489 -0.0723
 2562TIP3    H229322   2.478   6.784   2.033 -0.5331 -0.2905 -0.2873
 2563TIP3   OH229323   2.599   5.005   8.324 -0.2618 -0.3165 -0.3685
 2563TIP3    H129324   2.547   4.952   8.264 -0.7074  2.4716 -2.6358
 2563TIP3    H229325   2.579   5.096   8.300  0.6867  0.9656  3.0622
 2564TIP3   OH229326   1.661   3.037   1.069  0.3906  0.1606  0.1228
 2564TIP3    H129327   1.752   3.037   1.099  0.2652  0.5406  0.5250
 2564TIP3    H229328   1.666   3.061   0.977  0.7377 -0.3547  0.0033
 2565TIP3   OH229329   1.449   0.886   8.314  0.2428  0.3383 -0.4619
 2565TIP3    H129330   1.411   0.925   8.393 -3.3899 -0.3370 -1.7365
 2565TIP3    H229331   1.490   0.959   8.268  0.8136  1.0556  1.1176
 2566TIP3   OH229332   2.039   5.876   1.211 -0.3205  0.3829 -0.4148
 2566TIP3    H129333   2.069   5.844   1.296 -0.2790  0.9290 -0.2171
 2566TIP3    H229334   1.951   5.839   1.202  0.1096 -0.6019 -0.6554
 2567TIP3   OH229335   0.901   2.348   1.329  0.8253 -0.1193  0.0498
 2567TIP3    H129336   0.886   2.438   1.302  1.4762  0.3506  1.1592
 2567TIP3    H229337   0.933   2.355   1.420  0.1716 -1.5022  0.4178
 2568TIP3   OH229338   2.521   5.637   7.077  0.5224  0.1405 -0.3363
 2568TIP3    H129339   2.490   5.555   7.115  1.3296 -0.0331 -0.0335
 2568TIP3    H229340   2.551   5.613   6.989 -0.3108  0.3372 -0.6886
 2569TIP3   OH229341   1.705   6.506   8.799  0.5295 -0.3004  0.4829
 2569TIP3    H129342   1.697   6.529   8.706 -1.7746  0.6440  0.8583
 2569TIP3    H229343   1.772   6.566   8.832  0.0931  0.5873 -0.2064
 2570TIP3   OH229344   5.897   1.817   1.972  0.2587 -0.2314  0.4375
 2570TIP3    H129345   5.919   1.737   2.019  1.7669 -0.4789 -0.5992
 2570TIP3    H229346   5.847   1.870   2.035  0.4291 -1.3984  1.5897
 2571TIP3   OH229347   2.839   3.231   1.869 -0.0246  0.8856 -0.1610
 2571TIP3    H129348   2.796   3.247   1.786 -0.3841  1.2387  0.0934
 2571TIP3    H229349   2.915   3.178   1.847 -0.5882  0.2513 -0.6136
 2572TIP3   OH229350   1.063   1.968   0.070 -0.4270 -0.1343  0.3190
 2572TIP3    H129351   0.990   1.912   0.046  0.8020 -1.4252 -0.5177
 2572TIP3    H229352   1.121   1.967  -0.006  0.4580  0.8837  0.9476
 2573TIP3   OH229353   5.107   4.709   1.844  0.4220 -0.0956 -0.0099
 2573TIP3    H129354   5.134   4.783   1.897  1.9701 -0.3978 -0.3270
 2573TIP3    H229355   5.091   4.746   1.757 -0.1397  0.0742  0.1623
 2574TIP3   OH229356   6.009   4.800   7.524 -0.1212 -0.4033 -0.1259
 2574TIP3    H129357   6.026   4.871   7.462 -1.4855 -0.1639 -0.2543
 2574TIP3    H229358   5.923   4.819   7.560  0.6840 -0.4709  1.9789
 2575TIP3   OH229359   3.351   0.195   6.635 -0.1337  0.5751  0.0112
 2575TIP3    H129360   3.370   0.230   6.548 -0.9957 -1.6242 -1.1218
 2575TIP3    H229361   3.417   0.127   6.650 -0.6397  0.1974  0.6168
 2576TIP3   OH229362   1.527   1.490   1.250  0.0603 -0.9101 -0.1444
 2576TIP3    H129363   1.520   1.580   1.217  2.2532 -0.4758  0.4449
 2576TIP3    H229364   1.436   1.463   1.263 -0.6971  2.0345  1.7693
 2577TIP3   OH229365   4.617   4.388   0.131  0.1064 -0.4218  0.2366
 2577TIP3    H129366   4.670   4.405   0.209  0.3641 -0.6351  0.1101
 2577TIP3    H229367   4.541   4.339   0.164  0.1675 -0.4305  0.3673
 2578TIP3   OH229368   6.668   5.752   7.949  0.0327 -0.5479 -0.7505
 2578TIP3    H129369   6.666   5.821   8.015 -2.0410  0.1571 -1.4576
 2578TIP3    H229370   6.733   5.783   7.885 -1.3228  1.1640 -1.3981
 2579TIP3   OH229371   5.787   2.651   7.065  0.5258 -0.2989  0.0372
 2579TIP3    H129372   5.816   2.559   7.060 -0.7947 -0.6938 -0.9408
 2579TIP3    H229373   5.814   2.688   6.981 -0.8063 -0.3922 -0.4565
 2580TIP3   OH229374   6.036   5.271   1.925  0.3755 -0.1969 -0.7987
 2580TIP3    H129375   6.000   5.335   1.986  4.0279  0.5722  0.8041
 2580TIP3    H229376   5.960   5.242   1.874 -2.1504  2.2793  1.1940
 2581TIP3   OH229377   5.625   4.643   1.336 -0.2231  0.3809  0.3720
 2581TIP3    H129378   5.648   4.626   1.245 -0.1698  1.1000  0.2459
 2581TIP3    H229379   5.687   4.591   1.387 -0.1219  0.1376  0.0055
 2582TIP3   OH229380   3.850   4.305   8.583  0.6184 -0.1134  0.2573
 2582TIP3    H129381   3.837   4.253   8.662  0.5121 -1.3214 -0.5388
 2582TIP3    H229382   3.932   4.274   8.546  0.2809 -0.0889 -0.5201
 2583TIP3   OH229383   3.128   6.402   0.466  0.1012  0.4479  0.5792
 2583TIP3    H129384   3.127   6.492   0.497  3.1307  0.9015 -0.3130
 2583TIP3    H229385   3.098   6.350   0.540 -1.1914  2.1157  1.2736
 2584TIP3   OH229386   3.389   0.839   7.090  0.0621  0.0403  0.3091
 2584TIP3    H129387   3.484   0.842   7.094  0.1477 -0.7457 -0.7129
 2584TIP3    H229388   3.369   0.765   7.033 -1.1636  0.2443  0.4309
 2585TIP3   OH229389   4.968   4.225   1.984 -0.1550  0.1137 -0.3539
 2585TIP3    H129390   5.025   4.301   1.972  1.0869 -1.1841 -4.1235
 2585TIP3    H229391   4.890   4.245   1.933 -1.3544  0.1270  1.3830
 2586TIP3   OH229392   4.962   4.258   7.712  0.6035 -0.1645 -0.1646
 2586TIP3    H129393   5.005   4.191   7.765 -1.0859 -2.1426 -1.1588
 2586TIP3    H229394   4.980   4.340   7.758  3.8299 -1.0620  0.4254
 2587TIP3   OH229395   0.181   0.855   8.482  0.1667  0.3238  0.1842
 2587TIP3    H129396   0.256   0.883   8.430 -0.7357 -1.4390 -2.3027
 2587TIP3    H229397   0.123   0.931   8.484 -0.1981  0.2200 -2.4050
 2588TIP3   OH229398   3.447   5.156   0.059  0.9344  0.4743  0.0273
 2588TIP3    H129399   3.423   5.248   0.065  1.9870  0.9079 -1.5052
 2588TIP3    H229400   3.490   5.137   0.142 -0.4149  0.9907  0.8665
 2589TIP3   OH229401   6.739   5.558   7.600  0.2358 -0.3440  0.3222
 2589TIP3    H129402   6.720   5.465   7.592 -0.8858 -0.6023  4.1648
 2589TIP3    H229403   6.663   5.602   7.561  1.0637 -0.8791 -2.1106
 2590TIP3   OH229404   2.072   3.721   6.957  0.0982  0.8207 -0.7076
 2590TIP3    H129405   2.074   3.794   6.895  0.1371  0.3381 -1.2821
 2590TIP3    H229406   1.979   3.713   6.980  0.0271  0.7422 -1.0171
 2591TIP3   OH229407   5.411   5.214   0.179  0.0521 -0.4285 -0.5634
 2591TIP3    H129408   5.478   5.170   0.128 -0.8540 -1.6429 -0.7660
 2591TIP3    H229409   5.393   5.154   0.252 -0.8031 -0.1328 -0.5150
 2592TIP3   OH229410   2.782   4.197   8.540  0.5288 -0.0245  0.3557
 2592TIP3    H129411   2.716   4.133   8.515  0.4632  0.1485  0.0802
 2592TIP3    H229412   2.819   4.227   8.457  1.5931 -0.7900  0.5370
 2593TIP3   OH229413   1.482   6.838   7.092  0.3069 -0.7567 -0.3713
 2593TIP3    H129414   1.508   6.849   7.001  3.0427  0.4471  0.4445
 2593TIP3    H229415   1.425   6.913   7.110  1.1243 -0.0347 -0.6833
 2594TIP3   OH229416   4.833   1.249   0.114  0.2536  0.6302 -0.1813
 2594TIP3    H129417   4.838   1.156   0.090 -0.9142  0.5859 -0.3437
 2594TIP3    H229418   4.877   1.295   0.042  2.3662  0.1289  0.7187
 2595TIP3   OH229419   5.668   0.904   8.299 -0.6236 -0.6104 -0.3413
 2595TIP3    H129420   5.650   0.995   8.273 -1.7848 -1.2269 -1.8443
 2595TIP3    H229421   5.720   0.869   8.227 -0.4200 -1.2275  0.1004
 2596TIP3   OH229422   6.501   2.147   0.926  0.3621 -0.1990  0.0974
 2596TIP3    H129423   6.528   2.151   0.834  0.1624 -2.2035 -0.0892
 2596TIP3    H229424   6.583   2.133   0.974  0.3123 -0.5672  0.0788
 2597TIP3   OH229425   0.050   2.965   8.728 -0.7649  0.1090  0.1055
 2597TIP3    H129426   0.137   2.930   8.714 -0.7603 -0.2920  1.0350
 2597TIP3    H229427  -0.003   2.931   8.656 -0.2066  0.1758 -0.3345
 2598TIP3   OH229428   2.793   2.895   8.216  0.1865 -0.0930 -0.7458
 2598TIP3    H129429   2.722   2.884   8.279 -0.9093  0.4866 -1.8418
 2598TIP3    H229430   2.867   2.848   8.255 -0.5934 -0.1534  0.7273
 2599TIP3   OH229431   5.744   5.083   7.306 -0.6479  0.5219  0.0478
 2599TIP3    H129432   5.786   5.138   7.372  1.5191  0.2802 -1.0527
 2599TIP3    H229433   5.718   5.144   7.237 -1.2378  0.5489  0.2892
 2600TIP3   OH229434   4.913   1.795   1.566  0.4366 -0.0910  0.1622
 2600TIP3    H129435   4.995   1.789   1.616 -0.9906 -1.2159  2.5537
 2600TIP3    H229436   4.888   1.887   1.573  1.3936  0.2298 -0.4476
 2601TIP3   OH229437   3.391   2.885   8.067 -0.0777  0.7073  0.1564
 2601TIP3    H129438   3.362   2.813   8.124 -0.7561  0.6342 -0.2787
 2601TIP3    H229439   3.312   2.935   8.049  0.3504  1.4243  0.2502
 2602TIP3   OH229440   4.109   5.093   0.227  0.7827 -0.3723 -0.7931
 2602TIP3    H129441   4.086   5.158   0.161 -2.5787 -1.2703 -0.6826
 2602TIP3    H229442   4.105   5.140   0.310  0.0241 -0.3481 -0.8440
 2603TIP3   OH229443   0.278   5.467   0.319  0.7935 -0.2123 -0.2385
 2603TIP3    H129444   0.240   5.476   0.406  0.5723  0.3740 -0.3929
 2603TIP3    H229445   0.285   5.557   0.286  0.6485 -0.4429 -0.9182
 2604TIP3   OH229446   6.792   1.478   6.686  0.6645  0.1482 -0.0534
 2604TIP3    H129447   6.818   1.506   6.598 -1.6354 -1.7649 -1.4682
 2604TIP3    H229448   6.816   1.386   6.690 -0.0850 -0.0146  0.9711
 2605TIP3   OH229449   6.825   1.740   8.005 -0.3171 -0.1772 -1.4428
 2605TIP3    H129450   6.914   1.769   8.024  0.5387 -2.3797 -1.8092
 2605TIP3    H229451   6.769   1.797   8.058  1.1846  2.0686 -2.1636
 2606TIP3   OH229452   6.359   1.137   7.677  0.5043  0.6039  0.1528
 2606TIP3    H129453   6.301   1.193   7.625  0.9142  0.4878 -0.4335
 2606TIP3    H229454   6.447   1.165   7.655  0.6857  0.5478  0.7880
 2607TIP3   OH229455   2.886   3.982   8.346 -0.2135 -0.3178  0.4437
 2607TIP3    H129456   2.923   4.059   8.301 -1.2012  0.5739  1.1027
 2607TIP3    H229457   2.864   3.921   8.276  0.3405  0.1084 -0.1143
 2608TIP3   OH229458   1.476   0.987   0.274 -0.0167  0.3816  0.2234
 2608TIP3    H129459   1.440   1.068   0.237 -0.1317  0.7889  1.1924
 2608TIP3    H229460   1.571   0.999   0.267  0.0537  1.7586  2.6652
 2609TIP3   OH229461   3.339   4.683   2.192  0.1530 -0.0947 -0.2642
 2609TIP3    H129462   3.345   4.775   2.218  0.1330 -0.0102 -0.5660
 2609TIP3    H229463   3.415   4.642   2.235 -0.1873 -0.0633  0.3839
 2610TIP3   OH229464   0.457   2.768   7.386 -0.2902 -0.1024  0.8294
 2610TIP3    H129465   0.370   2.800   7.362 -0.4874  0.1943  1.8833
 2610TIP3    H229466   0.441   2.713   7.463  0.4135 -0.3505  0.8011
 2611TIP3   OH229467   3.773   6.644   1.562 -0.5199  0.3869 -0.3100
 2611TIP3    H129468   3.807   6.717   1.614  0.5051 -0.7905  0.7612
 2611TIP3    H229469   3.684   6.630   1.594  0.1385 -0.3927  1.2604
 2612TIP3   OH229470   0.663   4.686   7.658  0.2168 -0.1930  0.3277
 2612TIP3    H129471   0.731   4.662   7.595 -0.5749 -0.6931 -0.3518
 2612TIP3    H229472   0.703   4.755   7.711  1.5620 -1.0964  0.5304
 2613TIP3   OH229473   6.344   6.194   1.046 -0.0870 -0.0448 -0.1126
 2613TIP3    H129474   6.267   6.154   1.005 -1.6692  1.5885  1.0747
 2613TIP3    H229475   6.309   6.242   1.121  2.1002  0.8343  0.4345
 2614TIP3   OH229476   4.811   2.192   2.212  0.1028 -0.2955  0.0234
 2614TIP3    H129477   4.812   2.272   2.265  0.0436  0.1487 -0.6316
 2614TIP3    H229478   4.733   2.145   2.243  0.4863 -0.4101  0.8482
 2615TIP3   OH229479   1.729   3.979   7.040 -0.1904 -0.1172  0.9584
 2615TIP3    H129480   1.707   3.889   7.061  0.5494 -1.2386 -2.4880
 2615TIP3    H229481   1.819   3.990   7.070 -0.1049 -0.7219  0.9199
 2616TIP3   OH229482   2.238   5.191   0.599 -0.4508  0.3393 -0.4180
 2616TIP3    H129483   2.284   5.112   0.571 -0.4912  0.6687 -1.4638
 2616TIP3    H229484   2.215   5.235   0.517  0.4073  1.9168  0.1542
 2617TIP3   OH229485   3.402   4.054   7.023 -0.2087 -0.0370 -0.0577
 2617TIP3    H129486   3.430   3.979   7.075  1.5532 -0.4647 -1.5028
 2617TIP3    H229487   3.477   4.114   7.025 -1.4102  1.5174  0.6912
 2618TIP3   OH229488   3.134   2.657   1.829  0.2396  0.5518  0.0385
 2618TIP3    H129489   3.092   2.584   1.782 -1.3701  2.0126 -0.9329
 2618TIP3    H229490   3.175   2.709   1.761  1.0942  0.7568  0.6903
 2619TIP3   OH229491   4.730   3.867   1.185 -0.3884 -0.2992 -0.5375
 2619TIP3    H129492   4.747   3.940   1.245  0.4136 -0.5708 -0.4300
 2619TIP3    H229493   4.713   3.792   1.242 -0.2319 -0.4168 -0.6433
 2620TIP3   OH229494   2.718   4.417   8.705  0.0639 -0.3159 -0.5408
 2620TIP3    H129495   2.735   4.394   8.797  1.6033  0.5149 -0.5823
 2620TIP3    H229496   2.737   4.337   8.656 -1.2344 -0.9115 -0.1219
 2621TIP3   OH229497   2.138   0.780   8.255  0.5547  0.0329 -0.1923
 2621TIP3    H129498   2.174   0.695   8.234 -0.1749 -0.4376  0.4128
 2621TIP3    H229499   2.174   0.802   8.341 -0.2291 -0.2414  0.2145
 2622TIP3   OH229500   0.533   2.074   7.099 -0.6289  0.2892  0.4178
 2622TIP3    H129501   0.521   2.157   7.053 -0.4384 -0.9129 -1.9705
 2622TIP3    H229502   0.582   2.020   7.037 -2.6868 -2.3586  0.9441
 2623TIP3   OH229503   4.335   4.606   2.636  0.4787  0.1643 -0.3490
 2623TIP3    H129504   4.402   4.632   2.699 -1.6288  1.6292  1.4430
 2623TIP3    H229505   4.362   4.647   2.554  2.2834 -0.1532  0.0531
 2624TIP3   OH229506   4.939   1.590   8.670  0.2457  0.5367  0.9005
 2624TIP3    H129507   4.875   1.594   8.741 -2.2321 -2.8037 -0.8817
 2624TIP3    H229508   4.999   1.520   8.697 -0.5510 -0.5612 -0.0830
 2625TIP3   OH229509   5.728   3.413   8.030 -0.3745  0.0876 -0.3270
 2625TIP3    H129510   5.809   3.455   8.000 -1.3471  2.0303 -0.4048
 2625TIP3    H229511   5.720   3.334   7.977  0.5108  0.8421 -1.6384
 2626TIP3   OH229512   3.233   1.099   2.375 -0.7735  0.7319 -0.2408
 2626TIP3    H129513   3.277   1.020   2.343 -0.6116 -0.0723  1.8366
 2626TIP3    H229514   3.285   1.171   2.341  2.1686 -0.1570  1.9653
 2627TIP3   OH229515   1.113   1.402   6.885 -0.6576  0.2081  0.1402
 2627TIP3    H129516   1.136   1.336   6.820 -1.7641  0.0333 -0.0896
 2627TIP3    H229517   1.173   1.475   6.867 -2.4113  1.1150 -2.6227
 2628TIP3   OH229518   5.691   2.780   2.028  0.3160 -0.3229  0.0840
 2628TIP3    H129519   5.681   2.831   1.948 -0.4383  0.0931  0.4331
 2628TIP3    H229520   5.785   2.778   2.043  0.3544  1.2636  0.2458
 2629TIP3   OH229521   3.662   3.423   8.344  0.3486 -0.4553  0.1665
 2629TIP3    H129522   3.619   3.433   8.259 -0.0924 -0.0532  0.4350
 2629TIP3    H229523   3.598   3.453   8.408  1.6428  1.9840  0.4431
 2630TIP3   OH229524   4.415   2.225   8.579 -0.7148 -0.7337 -0.0345
 2630TIP3    H129525   4.472   2.225   8.503  0.0858 -1.2506  0.5426
 2630TIP3    H229526   4.441   2.302   8.629 -2.3918  0.5877 -1.0782
 2631TIP3   OH229527   1.069   3.978   7.772  0.0397 -0.3877  0.1728
 2631TIP3    H129528   1.075   4.067   7.737 -0.7866 -0.3109  0.2147
 2631TIP3    H229529   1.105   3.923   7.702  0.7115 -0.0181  0.2114
 2632TIP3   OH229530   5.153   3.823   8.220  0.6144  0.5746  0.0983
 2632TIP3    H129531   5.193   3.906   8.196  1.0368  0.2346 -0.3982
 2632TIP3    H229532   5.216   3.783   8.280  1.4520 -0.3318 -1.3252
 2633TIP3   OH229533   2.765   4.890   0.626  0.2349 -0.5704  0.4536
 2633TIP3    H129534   2.782   4.796   0.623 -0.6551 -0.7822 -3.1531
 2633TIP3    H229535   2.849   4.930   0.606  0.8142 -0.4635  2.8314
 2634TIP3   OH229536   4.538   4.177   7.110 -0.2167  0.1353 -0.0007
 2634TIP3    H129537   4.530   4.093   7.066  0.5371 -0.8483  1.6417
 2634TIP3    H229538   4.592   4.159   7.187 -1.8371  1.6593  1.5903
 2635TIP3   OH229539   0.485   6.356   0.623  0.0687  0.1844  0.2223
 2635TIP3    H129540   0.418   6.425   0.616 -1.4751 -1.2786 -0.2239
 2635TIP3    H229541   0.568   6.401   0.611 -0.8251  2.1096  0.8880
 2636TIP3   OH229542   2.640   0.558   0.898  0.5692 -0.2866  0.0276
 2636TIP3    H129543   2.705   0.511   0.846  1.1680  0.3146  0.2301
 2636TIP3    H229544   2.621   0.637   0.847  0.2912 -0.2681  0.1589
 2637TIP3   OH229545   3.131   4.586   7.646  0.2016 -0.7993  0.3793
 2637TIP3    H129546   3.107   4.570   7.738  0.5424  0.7245  0.7650
 2637TIP3    H229547   3.194   4.516   7.626  0.6581 -0.7524  1.5326
 2638TIP3   OH229548   0.405   6.156   0.790  0.4963 -0.4725  0.6498
 2638TIP3    H129549   0.386   6.189   0.878 -2.5338  0.8024 -0.3301
 2638TIP3    H229550   0.454   6.226   0.748 -0.2612  0.0205  0.5705
 2639TIP3   OH229551   3.667   2.682   2.285 -0.3760 -0.0473 -0.3175
 2639TIP3    H129552   3.721   2.671   2.206 -1.3286 -0.3205 -0.9420
 2639TIP3    H229553   3.715   2.635   2.353  0.2692 -0.1300 -0.8189
 2640TIP3   OH229554   0.034   5.384   8.776  0.0663  0.1611  0.2228
 2640TIP3    H129555   0.126   5.380   8.805  0.4093 -0.1567 -0.8719
 2640TIP3    H229556   0.033   5.449   8.706 -0.5560  0.1816  0.2432
 2641TIP3   OH229557   3.675   1.705   0.566  0.9196 -0.2155  0.3964
 2641TIP3    H129558   3.757   1.739   0.530  0.6493  0.3160  0.2815
 2641TIP3    H229559   3.607   1.743   0.511  0.6337 -1.4040 -0.1189
 2642TIP3   OH229560   2.479   6.230   7.354 -0.1201  0.2273  0.4105
 2642TIP3    H129561   2.453   6.280   7.431 -0.2418  1.4574 -0.3954
 2642TIP3    H229562   2.568   6.200   7.374 -0.6909 -0.7612  1.6214
 2643TIP3   OH229563   0.130   5.765   2.867  0.2829 -0.2578  0.1981
 2643TIP3    H129564   0.056   5.708   2.890  1.1065 -1.2086  0.5879
 2643TIP3    H229565   0.186   5.764   2.945  1.0292 -0.0868 -0.3284
 2644TIP3   OH229566   4.206   5.599   7.031 -0.5493 -0.5643 -0.9066
 2644TIP3    H129567   4.221   5.553   6.948 -1.4360 -0.6247 -1.0456
 2644TIP3    H229568   4.118   5.571   7.057 -0.5010 -0.0946 -0.2371
 2645TIP3   OH229569   2.454   1.671   1.615 -0.6937 -0.1843  0.1629
 2645TIP3    H129570   2.540   1.628   1.619 -1.9048 -2.6992  1.7977
 2645TIP3    H229571   2.424   1.675   1.706 -2.8813 -0.6507 -0.4695
 2646TIP3   OH229572   1.220   0.129   0.452 -0.0764  0.3714  1.1867
 2646TIP3    H129573   1.217   0.059   0.386 -1.2152  0.9655  0.5710
 2646TIP3    H229574   1.301   0.176   0.433  0.0076  0.0486  0.7156
 2647TIP3   OH229575   3.228   3.639   0.874  0.0633 -0.4060  0.2138
 2647TIP3    H129576   3.182   3.611   0.953  3.7288 -2.1746  1.9716
 2647TIP3    H229577   3.235   3.559   0.821  0.3466  0.0264 -0.4080
 2648TIP3   OH229578   5.751   0.079   7.525  0.1876  0.1812 -0.0827
 2648TIP3    H129579   5.675   0.025   7.544  0.9789 -0.7132  0.6129
 2648TIP3    H229580   5.756   0.080   7.429 -0.0317 -0.7120 -0.1124
 2649TIP3   OH229581   1.646   3.112   0.736  0.1840 -0.1093 -0.4470
 2649TIP3    H129582   1.716   3.169   0.767 -0.9220  0.0858  1.9499
 2649TIP3    H229583   1.566   3.162   0.754 -0.7570 -1.9027  0.6024
 2650TIP3   OH229584   4.707   3.837   2.870  1.0722  0.0761  0.4101
 2650TIP3    H129585   4.698   3.759   2.925  1.5065  0.2210  0.6860
 2650TIP3    H229586   4.641   3.898   2.903  1.4742  0.2429  0.9077
 2651TIP3   OH229587   0.552   4.091   6.530 -0.6761  0.5021  0.8598
 2651TIP3    H129588   0.596   4.035   6.466 -0.7457  1.6333 -0.2316
 2651TIP3    H229589   0.478   4.039   6.561  0.5639 -0.8711  1.6410
 2652TIP3   OH229590   5.167   1.376   7.923  0.1205 -0.0813  0.0314
 2652TIP3    H129591   5.151   1.284   7.940 -0.8361  0.2750  1.1370
 2652TIP3    H229592   5.111   1.423   7.985 -0.5231  1.2604 -1.4926
 2653TIP3   OH229593   0.814   3.668   1.183 -0.0042  0.0935  0.3262
 2653TIP3    H129594   0.896   3.627   1.153 -0.7694  0.0149 -1.8594
 2653TIP3    H229595   0.777   3.606   1.245  2.2399  0.7809  2.5039
 2654TIP3   OH229596   1.148   5.556   7.932 -0.0331 -0.2389 -0.5876
 2654TIP3    H129597   1.130   5.596   7.847  0.0300  1.6330  0.2273
 2654TIP3    H229598   1.216   5.491   7.914 -1.5753 -1.4841 -2.3117
 2655TIP3   OH229599   0.725   5.380   7.356 -0.3876  0.0012 -0.3694
 2655TIP3    H129600   0.710   5.346   7.268  0.1136 -0.8595 -0.1298
 2655TIP3    H229601   0.804   5.335   7.386 -1.1944 -0.5744  0.9641
 2656TIP3   OH229602   3.363   4.999   1.292 -0.2034  0.1061  0.3856
 2656TIP3    H129603   3.352   5.038   1.206  1.4074  0.2805  0.2257
 2656TIP3    H229604   3.274   4.994   1.328 -0.7583  1.2115 -0.7538
 2657TIP3   OH229605   0.725   3.579   7.536  0.0883 -0.1665 -0.1819
 2657TIP3    H129606   0.799   3.574   7.596  0.0071  2.7132  0.3035
 2657TIP3    H229607   0.756   3.539   7.455  1.6128 -0.4494  0.5276
 2658TIP3   OH229608   2.939   5.178   7.375  0.0437  0.4548 -0.0239
 2658TIP3    H129609   3.007   5.239   7.404  1.1343  0.2000 -1.8327
 2658TIP3    H229610   2.900   5.221   7.299  1.3236 -1.3127 -1.7754
 2659TIP3   OH229611   5.909   0.125   1.015  0.5448 -0.1617 -0.6419
 2659TIP3    H129612   5.903   0.221   1.019  0.5697 -0.1674 -0.4385
 2659TIP3    H229613   5.846   0.095   1.080  0.3481 -0.2888 -0.8911
 2660TIP3   OH229614   0.756   4.258   7.175 -0.4911 -0.3921  0.2612
 2660TIP3    H129615   0.722   4.239   7.087 -2.0723 -1.2701  1.0009
 2660TIP3    H229616   0.843   4.219   7.175 -1.4199 -2.6994 -0.1708
 2661TIP3   OH229617   1.172   0.938   8.105  0.7159 -0.4600 -0.0045
 2661TIP3    H129618   1.095   0.915   8.053  1.5684 -2.4251 -0.4976
 2661TIP3    H229619   1.140   0.941   8.195 -0.6719  2.4872 -0.4798
 2662TIP3   OH229620   5.360   5.531   0.355  0.2789  0.9727  0.6907
 2662TIP3    H129621   5.436   5.587   0.337  0.6747  0.1568 -0.1957
 2662TIP3    H229622   5.301   5.547   0.282  0.2733  0.4533  0.5779
 2663TIP3   OH229623   5.966   3.799   1.489  0.2023  0.7589  0.3618
 2663TIP3    H129624   6.005   3.714   1.469 -0.1080  0.1216  2.3233
 2663TIP3    H229625   5.872   3.787   1.475  0.1376  0.7170  0.8143
 2664TIP3   OH229626   3.863   3.857   7.704 -0.3846 -0.2176  0.1610
 2664TIP3    H129627   3.862   3.880   7.611 -1.8139 -1.6712 -0.2418
 2664TIP3    H229628   3.798   3.787   7.711  0.1965 -0.6071  2.1405
 2665TIP3   OH229629   3.731   6.508   0.858 -0.6874  0.9101  0.2018
 2665TIP3    H129630   3.730   6.412   0.857  3.0287  0.6985  1.8102
 2665TIP3    H229631   3.752   6.533   0.768  1.2593 -0.0124  0.3500
 2666TIP3   OH229632   3.008   1.664   1.310 -0.3944  0.0389  0.2395
 2666TIP3    H129633   3.072   1.696   1.245  1.4996 -0.3584  1.8026
 2666TIP3    H229634   3.025   1.716   1.388 -0.9450 -1.1366  1.1715
 2667TIP3   OH229635   5.472   0.192   0.227  0.0485  0.5876 -0.6230
 2667TIP3    H129636   5.415   0.208   0.152 -0.8653 -0.0911 -0.0891
 2667TIP3    H229637   5.516   0.109   0.207  0.9430  1.1502 -1.0716
 2668TIP3   OH229638   4.466   5.989   0.970 -0.1998 -0.0479  0.1341
 2668TIP3    H129639   4.410   6.067   0.976 -0.8876 -0.5293  0.1380
 2668TIP3    H229640   4.536   6.014   0.910 -0.6602  0.4332 -0.2129
 2669TIP3   OH229641   0.925   4.279   1.819  0.3125 -0.6251  0.3838
 2669TIP3    H129642   0.909   4.365   1.780  0.4897 -0.7169  0.1073
 2669TIP3    H229643   0.990   4.238   1.762  0.9318 -0.5744  1.0409
 2670TIP3   OH229644   2.542   0.188   0.362  0.2939  0.4816  0.3019
 2670TIP3    H129645   2.574   0.120   0.420  0.4378  0.1990 -0.1004
 2670TIP3    H229646   2.603   0.186   0.288 -1.0465 -0.5568 -0.8311
 2671TIP3   OH229647   5.593   5.169   8.244  0.5855  0.4826  0.1370
 2671TIP3    H129648   5.526   5.110   8.280  0.7326  0.5132  0.4708
 2671TIP3    H229649   5.582   5.250   8.293 -0.8863  1.4143 -1.6338
 2672TIP3   OH229650   5.873   6.773   8.668  0.3862  0.1239 -0.1750
 2672TIP3    H129651   5.897   6.810   8.753  1.7434  1.2869 -1.0203
 2672TIP3    H229652   5.779   6.756   8.675  0.6834 -0.9969  1.9741
 2673TIP3   OH229653   6.793   4.392   8.083 -0.5674  0.1062 -0.4989
 2673TIP3    H129654   6.739   4.333   8.136  0.4169 -1.1122 -0.7896
 2673TIP3    H229655   6.767   4.374   7.993 -0.4481  0.2976 -0.5710
 2674TIP3   OH229656   6.484   2.759   8.005 -0.0733 -0.0157  0.4195
 2674TIP3    H129657   6.533   2.840   8.018  0.1808  0.2614 -1.7896
 2674TIP3    H229658   6.541   2.705   7.949 -1.1678 -0.7693 -0.0113
 2675TIP3   OH229659   5.344   4.369   0.216  0.0566 -0.0484 -0.1447
 2675TIP3    H129660   5.325   4.339   0.127  2.0837 -2.3790  0.1080
 2675TIP3    H229661   5.383   4.293   0.260  1.3498  1.7107  1.9895
 2676TIP3   OH229662   6.777   3.767   1.025  0.1558  0.1237  0.0940
 2676TIP3    H129663   6.691   3.738   0.995  0.3087 -1.3131  0.9293
 2676TIP3    H229664   6.763   3.795   1.115  0.7829 -1.5785  0.7694
 2677TIP3   OH229665   2.635   3.101   7.164 -0.8575  0.2707  0.2305
 2677TIP3    H129666   2.622   3.027   7.106 -1.4081 -0.8318  1.7071
 2677TIP3    H229667   2.624   3.178   7.107 -0.8313 -0.7524 -1.2134
 2678TIP3   OH229668   5.288   3.204   1.721 -0.2692 -0.1064  0.1392
 2678TIP3    H129669   5.244   3.129   1.760 -0.4424  0.9394  2.0527
 2678TIP3    H229670   5.381   3.189   1.738 -0.3654  0.4984  1.3221
 2679TIP3   OH229671   5.835   4.636   2.401  0.4054  0.7522  0.2448
 2679TIP3    H129672   5.769   4.605   2.462 -0.1680  0.4108 -0.5280
 2679TIP3    H229673   5.907   4.667   2.456 -0.2205  0.7311  1.0842
 2680TIP3   OH229674   0.254   6.124   1.089 -0.2118  0.1765  0.1698
 2680TIP3    H129675   0.207   6.056   1.138  0.4164 -1.4046 -1.2980
 2680TIP3    H229676   0.188   6.189   1.068 -1.2819 -0.9171  0.0303
 2681TIP3   OH229677   2.230   5.913   8.359 -0.3145 -0.4261 -0.3722
 2681TIP3    H129678   2.273   5.963   8.429  0.3115 -3.4811  1.5978
 2681TIP3    H229679   2.295   5.910   8.289  1.2336 -1.6530  1.0238
 2682TIP3   OH229680   2.539   1.119   0.654 -0.2718  0.3699 -0.0282
 2682TIP3    H129681   2.468   1.139   0.714  0.3856 -0.0244  0.9091
 2682TIP3    H229682   2.535   1.188   0.588 -1.8103  0.0892 -0.2741
 2683TIP3   OH229683   3.842   0.865   6.239 -0.2224 -0.3337  0.2952
 2683TIP3    H129684   3.868   0.902   6.155  0.4421 -2.7357 -0.6339
 2683TIP3    H229685   3.805   0.939   6.287 -2.0616  0.8396 -2.6485
 2684TIP3   OH229686   6.300   1.123   1.522  0.1233  0.6233  0.0734
 2684TIP3    H129687   6.263   1.069   1.592  0.7663 -0.1354 -0.1434
 2684TIP3    H229688   6.386   1.083   1.504 -0.3464  0.2972 -1.6848
 2685TIP3   OH229689   2.376   0.786   6.603  0.1881  0.0870  0.1337
 2685TIP3    H129690   2.365   0.701   6.646  1.1450 -0.2521 -0.2813
 2685TIP3    H229691   2.453   0.776   6.548 -1.3138  0.3218 -2.1435
 2686TIP3   OH229692   1.910   2.998   2.492  0.0921 -0.0594  0.0114
 2686TIP3    H129693   1.927   2.985   2.398  0.3899  0.5890 -0.0299
 2686TIP3    H229694   1.860   2.921   2.518  0.7077 -0.6463 -0.4998
 2687TIP3   OH229695   5.306   4.642   8.464  0.1440  0.3982  0.1514
 2687TIP3    H129696   5.310   4.735   8.442 -1.8335  0.3601 -0.5789
 2687TIP3    H229697   5.273   4.599   8.385 -0.2556 -0.7336  0.9020
 2688TIP3   OH229698   1.605   4.145   8.305 -0.1481  0.3974 -0.0041
 2688TIP3    H129699   1.607   4.101   8.390 -1.1089 -0.9645 -0.6512
 2688TIP3    H229700   1.513   4.151   8.283  0.1186 -0.1624 -1.3753
 2689TIP3   OH229701   4.151   1.384   0.073 -0.0142  0.5600 -0.2655
 2689TIP3    H129702   4.210   1.414   0.005 -0.3416 -0.4484 -1.0147
 2689TIP3    H229703   4.107   1.308   0.035  0.2862 -0.4376  1.3106
 2690TIP3   OH229704   2.013   4.913   6.983 -0.5864 -0.4441  0.1859
 2690TIP3    H129705   1.930   4.877   6.952 -0.4182 -0.2504 -0.4969
 2690TIP3    H229706   2.076   4.889   6.916  0.0703 -1.2497  1.0740
 2691TIP3   OH229707   4.456   3.775   8.242 -0.4724 -0.0027 -0.0514
 2691TIP3    H129708   4.505   3.692   8.239  1.0425  0.8557 -1.7200
 2691TIP3    H229709   4.415   3.776   8.328  1.1557 -1.5522  0.8184
 2692TIP3   OH229710   2.344   2.000   6.646 -0.6703  0.4616  0.0444
 2692TIP3    H129711   2.370   2.070   6.586  1.2670 -1.9837 -2.2058
 2692TIP3    H229712   2.391   2.019   6.727  0.3972  1.3689 -0.7548
 2693TIP3   OH229713   3.892   1.885   1.350 -0.4126  0.1223  0.6114
 2693TIP3    H129714   3.923   1.927   1.430  0.6030  0.2869  0.1559
 2693TIP3    H229715   3.969   1.883   1.293 -0.6917 -1.4451  0.2428
 2694TIP3   OH229716   4.157   3.802   7.961  0.1935 -0.0522 -0.0296
 2694TIP3    H129717   4.177   3.811   7.868  1.2418 -0.0741  0.1877
 2694TIP3    H229718   4.189   3.883   8.000 -0.9198  0.2895  0.2199
 2695TIP3   OH229719   4.628   5.900   1.970 -0.0255 -0.3650 -0.3184
 2695TIP3    H129720   4.547   5.857   1.944  0.1885 -0.1087 -1.4628
 2695TIP3    H229721   4.621   5.989   1.934  1.2338 -0.6839 -1.4262
 2696TIP3   OH229722   0.753   6.210   2.559 -0.0799  0.0040  0.1804
 2696TIP3    H129723   0.679   6.220   2.619 -0.7519  1.3894 -0.8044
 2696TIP3    H229724   0.830   6.224   2.613 -0.5106 -1.4607  1.2317
 2697TIP3   OH229725   6.101   0.346   0.144  0.0253 -0.1122 -0.5038
 2697TIP3    H129726   6.071   0.434   0.119  0.5906 -0.0908 -1.1431
 2697TIP3    H229727   6.185   0.336   0.099 -0.0859 -1.0262 -0.5311
 2698TIP3   OH229728   0.887   2.524   8.564  0.4471  0.5699 -0.2367
 2698TIP3    H129729   0.842   2.546   8.481 -0.3999  0.5184  0.1941
 2698TIP3    H229730   0.896   2.429   8.562  1.2823  0.6529 -0.6894
 2699TIP3   OH229731   3.359   5.991   0.153  0.0049 -0.1705 -0.3604
 2699TIP3    H129732   3.404   6.066   0.115 -0.5256 -0.3861 -1.4638
 2699TIP3    H229733   3.335   5.937   0.078 -3.6898  0.8044 -0.0979
 2700TIP3   OH229734   5.788   6.346   7.902  0.2386  0.3913 -0.0816
 2700TIP3    H129735   5.851   6.417   7.897  0.7802  0.0212  1.1172
 2700TIP3    H229736   5.842   6.266   7.900 -0.4340 -0.1702 -3.7401
 2701TIP3   OH229737   2.876   6.699   7.898  0.2660 -0.2330  0.2325
 2701TIP3    H129738   2.914   6.718   7.983  2.1454 -0.0696 -0.5892
 2701TIP3    H229739   2.825   6.777   7.876  1.1986  0.4437  0.4513
 2702TIP3   OH229740   4.505   3.957   7.485  0.0398  0.2261  0.2229
 2702TIP3    H129741   4.419   3.915   7.490  0.9569 -1.8025 -0.0936
 2702TIP3    H229742   4.532   3.946   7.394  1.4676 -0.9734  0.7603
 2703TIP3   OH229743   3.098   1.491   1.934  0.2158 -0.6039  0.3094
 2703TIP3    H129744   3.112   1.558   1.867 -0.8531 -0.4737  0.1845
 2703TIP3    H229745   3.185   1.463   1.960  0.6511 -0.1586 -0.6438
 2704TIP3   OH229746   3.087   4.339   7.905  0.6107  0.4214  0.1066
 2704TIP3    H129747   3.089   4.286   7.826 -0.7876 -1.4136  1.1988
 2704TIP3    H229748   2.995   4.361   7.917  1.0690  2.5732  0.0797
 2705TIP3   OH229749   5.041   4.928   1.317 -0.4914 -0.1929 -0.2896
 2705TIP3    H129750   5.075   4.839   1.323 -2.5162 -1.0903 -1.2752
 2705TIP3    H229751   5.074   4.972   1.395 -0.3656 -2.1274  0.7967
 2706TIP3   OH229752   4.926   3.964   1.540 -0.0893 -0.3889 -0.0752
 2706TIP3    H129753   4.944   4.054   1.569  0.3155 -0.5960  0.3207
 2706TIP3    H229754   4.994   3.945   1.476 -0.6659 -0.1239 -0.7783
 2707TIP3   OH229755   3.278   5.840   1.242 -0.2331  0.1824 -0.7167
 2707TIP3    H129756   3.341   5.908   1.218 -0.4237  0.2412 -1.0560
 2707TIP3    H229757   3.212   5.885   1.294  1.2648 -0.3204  1.7669
 2708TIP3   OH229758   5.508   6.371   0.572 -0.3329 -0.1983 -0.2552
 2708TIP3    H129759   5.473   6.352   0.485 -1.5207 -1.2839  0.4283
 2708TIP3    H229760   5.486   6.463   0.587 -0.7171 -0.1890 -0.8363
 2709TIP3   OH229761   3.065   3.784   8.418 -0.0354 -0.5938 -0.1491
 2709TIP3    H129762   3.150   3.822   8.397 -0.3150  0.1890  0.0938
 2709TIP3    H229763   3.004   3.857   8.411 -0.7860 -1.2796 -0.9195
 2710TIP3   OH229764   2.514   2.474   7.291  0.3007  0.0470  0.1724
 2710TIP3    H129765   2.506   2.498   7.383 -2.0985 -0.5917  0.2123
 2710TIP3    H229766   2.505   2.557   7.243 -0.2438  0.1806  0.4953
 2711TIP3   OH229767   4.628   1.545   0.514  0.5764 -0.0216  0.6335
 2711TIP3    H129768   4.623   1.541   0.418  0.5095  1.1074  0.5794
 2711TIP3    H229769   4.546   1.505   0.544  0.1484  0.5210  0.1948
 2712TIP3   OH229770   1.841   3.748   1.981 -0.0285  0.1970 -0.3892
 2712TIP3    H129771   1.807   3.809   2.046 -0.1946 -1.8099  1.5208
 2712TIP3    H229772   1.811   3.784   1.897 -2.4420  1.2873  0.8214
 2713TIP3   OH229773   6.120   2.442   0.541 -0.1163  0.0711 -0.2667
 2713TIP3    H129774   6.190   2.419   0.480 -0.5450  0.6901 -1.0156
 2713TIP3    H229775   6.093   2.359   0.580  0.8085 -0.2110 -0.2113
 2714TIP3   OH229776   0.212   4.098   8.311 -0.3232 -0.5357 -0.6890
 2714TIP3    H129777   0.226   4.004   8.326  0.8166 -0.2056  0.3969
 2714TIP3    H229778   0.253   4.141   8.385 -0.7514  0.8469 -1.2246
 2715TIP3   OH229779   3.606   2.460   0.876 -0.0012  0.3953  0.2265
 2715TIP3    H129780   3.606   2.408   0.956 -0.0135 -0.7204 -0.4765
 2715TIP3    H229781   3.532   2.426   0.825  0.1537  0.9201 -0.3657
 2716TIP3   OH229782   2.036   3.173   2.238  0.3627 -0.0828  0.0209
 2716TIP3    H129783   1.978   3.103   2.208 -1.6559  0.7804  1.6167
 2716TIP3    H229784   1.992   3.254   2.212  1.4901  0.6141  0.1894
 2717TIP3   OH229785   2.277   6.792   7.429  0.2369  0.3628 -0.4010
 2717TIP3    H129786   2.340   6.859   7.454  1.5286 -0.9662  0.0670
 2717TIP3    H229787   2.245   6.757   7.513  0.2829 -0.2378 -0.6277
 2718TIP3   OH229788   6.588   2.138   0.663  0.3751 -0.3887  0.2080
 2718TIP3    H129789   6.682   2.158   0.665  0.6938 -1.4936 -1.5368
 2718TIP3    H229790   6.584   2.043   0.654 -0.9367 -0.3512  0.2052
 2719TIP3   OH229791   0.467   0.682   7.506 -0.2626 -0.6642  0.2812
 2719TIP3    H129792   0.536   0.738   7.470 -0.6442 -0.0724  0.4563
 2719TIP3    H229793   0.500   0.658   7.593  0.3752 -1.5859 -0.1906
 2720TIP3   OH229794   6.491   1.326   0.362 -0.1642  0.8282 -0.1658
 2720TIP3    H129795   6.467   1.233   0.366 -0.1883  0.8679  2.0731
 2720TIP3    H229796   6.575   1.328   0.317 -0.6428 -0.1464 -1.1518
 2721TIP3   OH229797   5.939   1.286   8.669  0.1673  0.0735  1.3754
 2721TIP3    H129798   5.877   1.354   8.694 -0.0845  0.2627  0.2822
 2721TIP3    H229799   5.894   1.204   8.687 -0.6979  0.2058 -0.0297
 2722TIP3   OH229800   4.208   6.700   0.402  0.0314 -0.3059  0.0595
 2722TIP3    H129801   4.241   6.646   0.474  2.4391  2.1543  0.9568
 2722TIP3    H229802   4.226   6.648   0.323  1.9823 -0.9987  0.8980
 2723TIP3   OH229803   3.866   2.457   6.862 -0.2686  0.1553 -0.2778
 2723TIP3    H129804   3.951   2.485   6.830  0.6847  0.8372  2.5528
 2723TIP3    H229805   3.831   2.533   6.910 -1.0172 -1.0632  1.2189
 2724TIP3   OH229806   4.402   2.797   0.792 -0.0034 -0.0459  0.1272
 2724TIP3    H129807   4.470   2.775   0.856  0.7146  2.3147  0.2790
 2724TIP3    H229808   4.320   2.779   0.837  0.4964 -0.9466  0.7157
 2725TIP3   OH229809   2.594   3.997   8.459 -0.7752 -0.1689  0.7826
 2725TIP3    H129810   2.501   4.016   8.444 -1.1080 -2.1718 -0.0328
 2725TIP3    H229811   2.628   3.973   8.373  0.4503  0.2584  1.1210
 2726TIP3   OH229812   1.174   1.715   2.103  0.0639  0.2771 -0.4183
 2726TIP3    H129813   1.094   1.767   2.109  0.2310  1.1316 -3.8152
 2726TIP3    H229814   1.242   1.771   2.141 -0.3194  1.2614 -1.1366
 2727TIP3   OH229815   3.017   1.371   0.306 -0.0169  0.5593 -0.1651
 2727TIP3    H129816   2.964   1.448   0.326  0.1831  0.3894  1.0663
 2727TIP3    H229817   3.090   1.375   0.367 -0.4803 -1.0824  0.5477
 2728TIP3   OH229818   4.003   5.811   6.353  0.3513 -0.2423  0.2759
 2728TIP3    H129819   4.061   5.737   6.334  1.7869  1.2915 -1.6886
 2728TIP3    H229820   3.916   5.778   6.330  1.0449 -1.1414 -1.2254
 2729TIP3   OH229821   4.818   2.831   1.133 -0.1098  0.0324 -1.1595
 2729TIP3    H129822   4.852   2.801   1.217 -1.6140 -0.3425 -0.6701
 2729TIP3    H229823   4.894   2.828   1.075  0.8459 -0.1531  0.0533
 2730TIP3   OH229824   5.765   3.293   0.807  0.5481  0.0844  0.1173
 2730TIP3    H129825   5.724   3.369   0.766 -0.5870 -0.1584  0.7491
 2730TIP3    H229826   5.859   3.308   0.799  0.3430  1.0028 -0.7625
 2731TIP3   OH229827   1.119   3.903   1.787 -0.1993 -0.4288  0.2673
 2731TIP3    H129828   1.192   3.958   1.816  1.6653 -1.7086 -1.6641
 2731TIP3    H229829   1.093   3.854   1.866  1.1260 -0.0461  0.9696
 2732TIP3   OH229830   1.153   2.102   2.195 -0.6704  0.2692  0.0803
 2732TIP3    H129831   1.092   2.039   2.157  1.0311 -1.3287 -0.1679
 2732TIP3    H229832   1.230   2.050   2.218  1.3694  2.4325 -1.3172
 2733TIP3   OH229833   5.602   5.075   0.026  0.0308 -0.0608 -0.0340
 2733TIP3    H129834   5.620   5.064  -0.067 -0.4371  1.4330 -0.3253
 2733TIP3    H229835   5.688   5.080   0.067  0.2374 -0.5630 -0.4013
 2734TIP3   OH229836   5.016   0.592   8.474  0.2054  0.4281 -0.1216
 2734TIP3    H129837   4.956   0.545   8.531  0.1060  0.9238  0.1861
 2734TIP3    H229838   5.057   0.523   8.421 -0.8284  0.1118 -0.5361
 2735TIP3   OH229839   4.435   6.214   1.187  0.1858  0.3899  0.2679
 2735TIP3    H129840   4.517   6.244   1.147  1.1084  1.4715  2.7630
 2735TIP3    H229841   4.459   6.193   1.277 -2.1853  0.1592  0.9098
 2736TIP3   OH229842   0.930   3.682   7.779 -0.6667 -0.0611  0.7683
 2736TIP3    H129843   0.859   3.737   7.812 -1.6884  0.6810 -2.3239
 2736TIP3    H229844   1.006   3.741   7.774 -1.2925  0.6512 -0.8763
 2737TIP3   OH229845   4.438   3.851   0.602 -0.6581  0.2647 -0.2044
 2737TIP3    H129846   4.512   3.857   0.540  2.5855 -1.2158  3.1091
 2737TIP3    H229847   4.417   3.942   0.623  0.6574  0.7438 -0.8128
 2738TIP3   OH229848   4.019   1.240   0.944 -0.7367 -0.1067  0.2251
 2738TIP3    H129849   4.034   1.323   0.991  1.7816 -0.7971  0.7584
 2738TIP3    H229850   3.952   1.196   0.996 -0.4157  0.5874  1.2651
 2739TIP3   OH229851   3.983   2.637   1.241 -0.4576 -0.2709 -0.6697
 2739TIP3    H129852   4.034   2.561   1.210  1.2847  0.2047  0.8827
 2739TIP3    H229853   3.896   2.602   1.258  0.3875 -2.0359  0.3089
 2740TIP3   OH229854   5.920   4.077   6.386  0.0536  0.1349  0.5410
 2740TIP3    H129855   5.899   4.153   6.440 -0.0868  1.4363 -1.2351
 2740TIP3    H229856   6.015   4.069   6.392  0.0494  0.3179  0.9012
 2741TIP3   OH229857   2.087   0.678   0.862 -0.0265 -0.0143 -0.7427
 2741TIP3    H129858   2.114   0.626   0.786  0.9725 -1.2869  0.4190
 2741TIP3    H229859   2.047   0.614   0.920 -0.5171  0.8895 -0.0700
 2742TIP3   OH229860   2.033   4.485   8.129  0.0761  0.6171 -0.5576
 2742TIP3    H129861   1.943   4.453   8.137 -0.2201  1.5709  0.2129
 2742TIP3    H229862   2.023   4.580   8.117  0.8937  0.4609 -3.1289
 2743TIP3   OH229863   0.965   2.890   1.978 -0.4685  0.4527 -0.1855
 2743TIP3    H129864   0.942   2.798   1.985 -1.3918  0.7378  0.9733
 2743TIP3    H229865   1.043   2.892   1.922 -0.5471 -0.9974 -0.3750
 2744TIP3   OH229866   1.761   0.753   0.384 -0.2711  0.0453 -0.0769
 2744TIP3    H129867   1.723   0.709   0.308 -0.0543  0.0905 -0.2118
 2744TIP3    H229868   1.753   0.846   0.364 -1.1133  0.0889  0.3936
 2745TIP3   OH229869   6.131   2.103   0.389 -0.0838 -0.0063  0.0105
 2745TIP3    H129870   6.173   2.164   0.450 -1.8944  1.4845 -0.1552
 2745TIP3    H229871   6.204   2.056   0.349  1.2354  0.2130  2.0351
 2746TIP3   OH229872   1.672   5.389   8.622  0.2406 -0.2494  0.2538
 2746TIP3    H129873   1.688   5.312   8.567 -0.8408 -1.5932  1.7397
 2746TIP3    H229874   1.577   5.392   8.633  0.4017  0.2298  1.6856
 2747TIP3   OH229875   2.956   5.840   8.745  0.2219  0.4097 -0.3790
 2747TIP3    H129876   2.961   5.905   8.816 -1.8324 -0.2225  0.4198
 2747TIP3    H229877   3.010   5.767   8.775 -1.3656 -0.2469  1.0514
 2748TIP3   OH229878   4.914   0.203   7.957 -0.3570 -0.2624  0.5633
 2748TIP3    H129879   4.824   0.170   7.959 -1.2549  1.7766 -1.7533
 2748TIP3    H229880   4.961   0.140   7.902  0.2942 -2.4546  3.3420
 2749TIP3   OH229881   1.663   2.178   0.222 -0.5252  0.2677  0.0690
 2749TIP3    H129882   1.639   2.225   0.301  0.6025 -0.3413  0.8091
 2749TIP3    H229883   1.735   2.228   0.185 -1.7377  1.1413 -1.1878
 2750TIP3   OH229884   1.496   1.406   0.310 -0.2741  0.3043  0.5137
 2750TIP3    H129885   1.584   1.376   0.333  0.0620  1.3333  0.5946
 2750TIP3    H229886   1.509   1.474   0.245 -1.1166 -0.7643 -0.8380
 2751TIP3   OH229887   4.790   4.798   1.325 -0.2826 -0.5587  0.2258
 2751TIP3    H129888   4.786   4.782   1.231 -2.0357  1.1735 -0.0862
 2751TIP3    H229889   4.870   4.850   1.337 -0.7802  0.4482 -0.5799
 2752TIP3   OH229890   0.449   4.555   0.036  0.3694  0.2718  0.5319
 2752TIP3    H129891   0.491   4.618   0.094 -0.5809  2.3014 -0.8899
 2752TIP3    H229892   0.512   4.540  -0.034  0.4442 -0.1107  0.6741
 2753TIP3   OH229893   1.630   3.920   1.327  0.3030  0.1435 -0.4295
 2753TIP3    H129894   1.543   3.893   1.358 -0.0145  0.2337 -1.2062
 2753TIP3    H229895   1.635   3.885   1.238  1.0998  0.0746 -0.3588
 2754TIP3   OH229896   5.601   0.363   6.990 -0.0327  0.3289 -0.3734
 2754TIP3    H129897   5.628   0.276   6.963 -1.2091 -0.6243  1.3460
 2754TIP3    H229898   5.678   0.400   7.034  1.0455  0.9075 -2.6008
 2755TIP3   OH229899   5.279   3.883   0.432 -0.5657 -0.0855  0.3194
 2755TIP3    H129900   5.315   3.947   0.494  0.9318  0.1771 -0.7565
 2755TIP3    H229901   5.300   3.919   0.346  0.9185 -2.3198 -0.3392
 2756TIP3   OH229902   1.965   6.307   8.426 -0.0867 -0.1871  0.3453
 2756TIP3    H129903   1.990   6.343   8.511 -1.2693 -0.8620  1.0087
 2756TIP3    H229904   1.872   6.329   8.417  0.4037  1.4360 -1.6102
 2757TIP3   OH229905   1.279   6.755   0.296 -0.3137 -0.0007  0.1999
 2757TIP3    H129906   1.267   6.787   0.207 -0.9076  2.6046  1.1138
 2757TIP3    H229907   1.372   6.739   0.304  0.0603  1.6703 -0.3481
 2758TIP3   OH229908   5.713   2.579   2.363  0.1241  0.4110  0.0872
 2758TIP3    H129909   5.699   2.542   2.450 -1.9513  1.0219  0.0600
 2758TIP3    H229910   5.740   2.504   2.310  1.0908 -0.0295  1.1376
 2759TIP3   OH229911   5.602   2.552   0.095  0.0376 -0.2623  0.0898
 2759TIP3    H129912   5.575   2.585   0.181  0.0742 -1.5985  0.6404
 2759TIP3    H229913   5.621   2.630   0.044  0.3106  0.5602  1.4006
 2760TIP3   OH229914   5.774   5.778   6.763  0.3062 -0.2726  0.1072
 2760TIP3    H129915   5.811   5.697   6.796 -0.1479 -1.5024 -2.2227
 2760TIP3    H229916   5.681   5.774   6.786  0.3656 -0.2087  0.3593
 2761TIP3   OH229917   3.490   1.019   0.384  0.2787 -0.9524 -0.5320
 2761TIP3    H129918   3.428   0.980   0.446 -0.2427 -1.7852 -1.5448
 2761TIP3    H229919   3.454   1.105   0.364 -0.6580 -1.4847 -1.2173
 2762TIP3   OH229920   4.939   0.955   0.071  0.0271 -0.1749  0.2588
 2762TIP3    H129921   4.974   0.867   0.067  0.5720 -0.0761  1.9874
 2762TIP3    H229922   4.914   0.976  -0.019  2.0492 -1.2011 -0.5825
 2763TIP3   OH229923   6.443   0.571   0.497 -0.2665 -0.4132 -0.3535
 2763TIP3    H129924   6.393   0.610   0.569  0.4293  1.6356 -0.9143
 2763TIP3    H229925   6.384   0.575   0.422 -0.3583 -0.9219 -0.3151
 2764TIP3   OH229926   3.635   4.222   2.221  0.0042 -0.0507 -0.0845
 2764TIP3    H129927   3.634   4.128   2.240 -0.3920  0.0654  0.4950
 2764TIP3    H229928   3.549   4.240   2.185 -1.0484  0.5991  2.4989
 2765TIP3   OH229929   3.355   4.407   2.155  0.2516  0.5314 -0.5588
 2765TIP3    H129930   3.435   4.431   2.108  0.2001  0.4469 -0.6930
 2765TIP3    H229931   3.309   4.489   2.167  1.2687  0.8979  1.2768
 2766TIP3   OH229932   1.563   0.821   7.240  0.0730  1.0684 -0.1443
 2766TIP3    H129933   1.523   0.767   7.171 -0.6034  1.0295  0.2659
 2766TIP3    H229934   1.613   0.887   7.194  0.7046  0.2432 -0.6651
 2767TIP3   OH229935   3.130   4.186   8.515 -0.5401  0.7168  0.1286
 2767TIP3    H129936   3.195   4.183   8.585 -0.6802 -0.0708  0.2379
 2767TIP3    H229937   3.054   4.229   8.554 -0.9692 -0.5744  0.7861
 2768TIP3   OH229938   4.397   0.588   0.459 -0.3294  0.2801  0.3190
 2768TIP3    H129939   4.359   0.505   0.488 -0.1665 -0.1248 -0.5948
 2768TIP3    H229940   4.457   0.564   0.389  1.9446  0.8549  1.9414
 2769TIP3   OH229941   5.186   6.710   8.196 -0.1252  0.5508 -0.4991
 2769TIP3    H129942   5.254   6.702   8.129  0.3655  1.2631 -0.0979
 2769TIP3    H229943   5.104   6.714   8.147  0.1170 -0.2936 -0.9901
 2770TIP3   OH229944   6.550   4.604   7.430 -0.0438  0.0430 -0.0835
 2770TIP3    H129945   6.524   4.696   7.432 -0.2356 -0.0166  0.2887
 2770TIP3    H229946   6.635   4.604   7.386 -0.8104  0.2021 -1.6073
 2771TIP3   OH229947   5.811   4.359   8.258  0.3811 -0.3186  0.3908
 2771TIP3    H129948   5.877   4.295   8.284  2.8490  1.4529 -1.1419
 2771TIP3    H229949   5.831   4.437   8.310 -1.0843  0.0266  0.4956
 2772TIP3   OH229950   0.116   5.023   7.415  0.8352  0.2760  0.0536
 2772TIP3    H129951   0.174   5.095   7.393  1.5435 -0.0500  0.8013
 2772TIP3    H229952   0.137   5.001   7.506  0.0404 -0.3170  0.1122
 2773TIP3   OH229953   1.045   4.612   1.462  0.2013  0.1008  0.1583
 2773TIP3    H129954   1.102   4.680   1.498 -0.9386  0.8418  0.6434
 2773TIP3    H229955   1.009   4.651   1.383 -0.1109 -0.1075  0.1975
 2774TIP3   OH229956   0.123   1.408   1.326  0.1567  0.7365  0.0763
 2774TIP3    H129957   0.133   1.470   1.255  1.1685 -0.9528 -1.3293
 2774TIP3    H229958   0.208   1.408   1.371 -0.6434  2.2174  1.7323
 2775TIP3   OH229959   0.138   5.040   1.695 -0.2932  0.1619 -0.2636
 2775TIP3    H129960   0.048   5.044   1.727  0.6401  1.3399  2.4757
 2775TIP3    H229961   0.189   5.008   1.770  1.9546  2.3586 -0.7359
 2776TIP3   OH229962   5.473   2.064   8.058 -0.4836  0.3408  0.2838
 2776TIP3    H129963   5.458   2.038   8.148 -1.6547 -1.7745 -0.4545
 2776TIP3    H229964   5.405   2.129   8.039 -0.6994  0.2346  0.7014
 2777TIP3   OH229965   3.940   6.015   0.181  0.0089  0.1967  0.0309
 2777TIP3    H129966   3.951   5.926   0.147  0.9435  0.6491 -0.8917
 2777TIP3    H229967   3.926   6.004   0.275 -0.1824 -0.9394 -0.1237
 2778TIP3   OH229968   0.351   4.374   7.627  0.1524  0.4803 -0.2356
 2778TIP3    H129969   0.280   4.395   7.687 -0.5634  2.8029 -1.7737
 2778TIP3    H229970   0.365   4.280   7.639  0.4162  0.8648  3.8700
 2779TIP3   OH229971   1.114   1.753   7.904 -0.1951 -1.3811 -0.1702
 2779TIP3    H129972   1.032   1.798   7.886 -0.2027 -1.1698  0.3883
 2779TIP3    H229973   1.093   1.688   7.970  0.0065 -1.5876 -0.3070
 2780TIP3   OH229974   5.387   3.037   7.315  0.3507  0.4322  0.6530
 2780TIP3    H129975   5.385   3.125   7.276 -1.3869 -0.5952 -1.8318
 2780TIP3    H229976   5.400   2.979   7.240  1.0305 -1.5073  2.1949
 2781TIP3   OH229977   3.728   2.920   0.657 -0.5482 -0.0673  0.2792
 2781TIP3    H129978   3.806   2.909   0.712  1.0779 -0.4882 -1.9528
 2781TIP3    H229979   3.749   2.993   0.600 -1.1340 -1.1524 -1.3873
 2782TIP3   OH229980   5.201   2.590   8.201 -0.1608  0.1778 -0.1721
 2782TIP3    H129981   5.216   2.578   8.107  0.1522 -0.8895 -0.0036
 2782TIP3    H229982   5.277   2.640   8.231  1.0541 -1.5953 -0.0757
 2783TIP3   OH229983   2.930   0.440   8.274  0.1058  0.2255  0.0604
 2783TIP3    H129984   3.011   0.479   8.306  0.1382  0.2545 -0.0553
 2783TIP3    H229985   2.944   0.430   8.180  0.1970 -0.3026  0.1284
 2784TIP3   OH229986   2.133   6.811   7.929 -0.1961 -0.8540  0.1324
 2784TIP3    H129987   2.164   6.886   7.980 -1.8996 -0.1037  0.1251
 2784TIP3    H229988   2.128   6.740   7.993  0.6997 -0.7734  0.3069
 2785TIP3   OH229989   4.468   3.098   0.119  0.4573  0.8662 -0.1956
 2785TIP3    H129990   4.528   3.123   0.190 -0.9913 -0.5646  1.6179
 2785TIP3    H229991   4.397   3.162   0.124 -0.7886 -0.5769  1.2014
 2786TIP3   OH229992   6.433   5.193   2.139 -0.3352 -0.0858  0.0075
 2786TIP3    H129993   6.432   5.107   2.098 -2.0726  0.1240 -0.4948
 2786TIP3    H229994   6.384   5.180   2.221 -1.0417  0.5103 -0.3105
 2787TIP3   OH229995   0.421   5.218   8.100 -0.5366  1.0417  0.0675
 2787TIP3    H129996   0.326   5.230   8.104 -0.7813 -0.8498  0.8631
 2787TIP3    H229997   0.447   5.208   8.192  0.1339 -0.3627 -0.2530
 2788TIP3   OH229998   6.342   0.501   1.795 -0.2303  0.3999  0.2024
 2788TIP3    H129999   6.402   0.576   1.789 -0.3759  0.4838 -0.2144
 2788TIP3    H230000   6.337   0.467   1.706 -1.3433  0.8087  0.1010
 2789TIP3   OH230001   5.465   1.400   7.518 -0.4071 -0.0001  0.0633
 2789TIP3    H130002   5.509   1.481   7.494 -0.0012  0.0276  0.8845
 2789TIP3    H230003   5.510   1.333   7.467 -0.4797  0.2316 -0.3131
 2790TIP3   OH230004   3.435   0.504   8.467  0.6953  0.3286  0.8033
 2790TIP3    H130005   3.433   0.600   8.469 -1.1576  0.4392 -1.7394
 2790TIP3    H230006   3.440   0.478   8.559 -0.0680  2.8742  1.6356
 2791TIP3   OH230007   2.682   0.167   1.895 -0.0368  0.0899  0.1813
 2791TIP3    H130008   2.688   0.193   1.803 -2.7532 -1.0486 -0.4017
 2791TIP3    H230009   2.645   0.243   1.939  1.4554  0.7098  0.4154
 2792TIP3   OH230010   5.687   5.962   7.176  0.1000  0.1938  0.1400
 2792TIP3    H130011   5.672   6.057   7.183  3.3411  1.0316 -1.8510
 2792TIP3    H230012   5.672   5.942   7.083 -1.4441 -1.4828  0.7100
 2793TIP3   OH230013   0.382   4.641   0.569 -0.0906  0.8276  0.4044
 2793TIP3    H130014   0.401   4.609   0.481 -0.9982 -2.2055  1.2167
 2793TIP3    H230015   0.461   4.621   0.620 -0.2765  0.8736  0.7126
 2794TIP3   OH230016   1.765   3.669   0.289 -0.3093  0.0492  0.0273
 2794TIP3    H130017   1.858   3.687   0.281  0.0593 -1.7563 -0.3652
 2794TIP3    H230018   1.754   3.584   0.245 -2.0215 -0.0709  0.6287
 2795TIP3   OH230019   3.107   4.555   0.942 -0.5782 -0.4692 -0.0126
 2795TIP3    H130020   3.084   4.523   0.854  0.4024 -0.1316 -0.4042
 2795TIP3    H230021   3.199   4.533   0.951 -0.4077  0.4436  0.5180
 2796TIP3   OH230022   5.662   1.665   0.148  0.5611 -0.1638  0.4149
 2796TIP3    H130023   5.753   1.693   0.162  0.2300  0.8881  0.5140
 2796TIP3    H230024   5.656   1.581   0.195  1.5068 -0.3077  0.3069
 2797TIP3   OH230025   3.125   5.359   6.629  0.0463  0.3313 -0.6028
 2797TIP3    H130026   3.107   5.324   6.541 -0.5120  1.0834 -0.7984
 2797TIP3    H230027   3.132   5.281   6.684 -1.1543 -0.1095 -1.0286
 2798TIP3   OH230028   1.147   2.546   2.082 -0.1927  0.0131  0.1472
 2798TIP3    H130029   1.051   2.544   2.088 -0.3098  0.2972 -1.2593
 2798TIP3    H230030   1.166   2.529   1.990  1.2021 -1.7524  0.6997
 2799TIP3   OH230031   2.340   5.257   8.476  0.3354 -0.3737 -0.0848
 2799TIP3    H130032   2.392   5.254   8.556  1.9537 -0.9817 -1.1074
 2799TIP3    H230033   2.402   5.285   8.408 -0.4264 -1.9296 -1.5017
 2800TIP3   OH230034   2.796   5.106   7.597  0.2329  0.7494 -0.1378
 2800TIP3    H130035   2.874   5.084   7.648 -0.5466  0.8815  1.1482
 2800TIP3    H230036   2.830   5.136   7.513  1.5167 -0.3298 -0.0304
 2801TIP3   OH230037   0.614   0.003   0.770 -0.0062 -0.3141 -0.4658
 2801TIP3    H130038   0.628   0.008   0.865  1.9606  0.6724 -0.7464
 2801TIP3    H230039   0.557   0.078   0.751  0.9199  0.4749 -0.2345
 2802TIP3   OH230040   3.965   0.564   0.648 -0.7712 -0.3868 -0.1167
 2802TIP3    H130041   3.989   0.560   0.741 -1.2214 -0.6924 -0.0075
 2802TIP3    H230042   4.029   0.508   0.605  0.2093  0.7476 -0.1662
 2803TIP3   OH230043   1.893   5.814   0.206  0.6192  0.1100 -0.0605
 2803TIP3    H130044   1.843   5.841   0.129 -0.3733 -0.1230  0.4797
 2803TIP3    H230045   1.834   5.831   0.280  0.4159 -2.3039  0.4306
 2804TIP3   OH230046   4.407   5.649   2.022 -0.3065  0.5036 -0.1628
 2804TIP3    H130047   4.376   5.724   1.971 -2.3104 -0.5297 -0.5887
 2804TIP3    H230048   4.466   5.603   1.964 -0.0299  1.0807 -0.3482
 2805TIP3   OH230049   3.473   2.473   7.863 -0.2349 -0.4493  0.7813
 2805TIP3    H130050   3.508   2.541   7.806 -0.5003 -1.2392 -0.3623
 2805TIP3    H230051   3.465   2.396   7.806  2.1358 -2.1223  2.5326
 2806TIP3   OH230052   0.733   0.455   0.712 -0.6191  0.7281 -0.3324
 2806TIP3    H130053   0.753   0.546   0.690  1.0129  0.0975 -1.6960
 2806TIP3    H230054   0.683   0.423   0.637 -1.6275  0.6099  0.3677
 2807TIP3   OH230055   6.052   2.191   8.368 -0.1257 -0.0048  0.3437
 2807TIP3    H130056   6.040   2.176   8.275 -1.0937  0.2992  0.4156
 2807TIP3    H230057   6.109   2.268   8.373  0.6230 -0.5258  0.0102
 2808TIP3   OH230058   0.179   5.168   1.435  0.0592 -0.2848 -0.3267
 2808TIP3    H130059   0.145   5.160   1.523 -1.1753 -0.2200 -0.7832
 2808TIP3    H230060   0.200   5.078   1.409  0.3056 -0.3168 -0.0217
 2809TIP3   OH230061   6.140   5.436   7.886 -0.5176 -0.3671  0.1453
 2809TIP3    H130062   6.111   5.345   7.882 -0.2559 -0.4820  0.7720
 2809TIP3    H230063   6.147   5.456   7.979 -1.6752  0.6660  0.0338
 2810TIP3   OH230064   4.098   4.934   1.307  0.5635  0.1683  0.2971
 2810TIP3    H130065   4.086   5.026   1.330  1.7990  0.4519 -0.1618
 2810TIP3    H230066   4.065   4.886   1.383  0.5058  1.0028  0.8069
 2811TIP3   OH230067   3.185   5.508   2.447 -0.1979 -0.0082 -0.3765
 2811TIP3    H130068   3.102   5.555   2.456 -1.1365 -1.8451  1.3871
 2811TIP3    H230069   3.194   5.494   2.353 -3.1499 -1.7682 -0.5411
 2812TIP3   OH230070   1.651   3.555   1.979  0.3067  0.2210  0.2413
 2812TIP3    H130071   1.685   3.644   1.970 -1.3959  0.9576  0.8512
 2812TIP3    H230072   1.630   3.546   2.071  1.2960 -1.1560  0.3617
 2813TIP3   OH230073   6.399   3.791   1.389 -0.2646  0.8048 -0.5209
 2813TIP3    H130074   6.330   3.726   1.405  0.8477  0.1051  1.8659
 2813TIP3    H230075   6.410   3.835   1.473  1.8708  1.2055 -0.9477
 2814TIP3   OH230076   5.909   1.935   0.348 -0.7496  0.4090  0.2052
 2814TIP3    H130077   5.980   1.988   0.383  1.6276 -0.0179 -3.4238
 2814TIP3    H230078   5.830   1.989   0.361  0.7091  2.3486  1.5124
 2815TIP3   OH230079   0.190   1.532   1.048 -0.3287 -0.5159  0.1292
 2815TIP3    H130080   0.264   1.592   1.055 -1.8436  1.3627  0.8308
 2815TIP3    H230081   0.229   1.450   1.019  1.9932  0.4532  0.2751
 2816TIP3   OH230082   4.878   2.435   0.192 -0.0916 -0.1170  0.1202
 2816TIP3    H130083   4.953   2.438   0.252  0.8222  2.3724 -1.0070
 2816TIP3    H230084   4.807   2.477   0.240  0.3994  1.1066 -0.1800
 2817TIP3   OH230085   0.800   5.725   7.995 -0.2776 -0.1435 -0.2336
 2817TIP3    H130086   0.761   5.791   7.938 -0.7399  0.7385  1.0605
 2817TIP3    H230087   0.795   5.644   7.945  0.6119  0.8351 -2.0034
 2818TIP3   OH230088   3.984   1.676   8.103  0.0042 -0.3835  0.3733
 2818TIP3    H130089   3.949   1.603   8.153 -1.1167  0.3769  0.7213
 2818TIP3    H230090   4.003   1.744   8.168  0.2858 -0.0638 -0.0316
 2819TIP3   OH230091   5.995   4.463   1.796 -0.1660 -0.0978 -0.4877
 2819TIP3    H130092   5.990   4.379   1.751  0.2320 -0.5927  0.3740
 2819TIP3    H230093   5.905   4.482   1.822 -0.2751 -0.1913 -0.7938
 2820TIP3   OH230094   6.280   4.438   7.569  0.4356  0.0072  0.0389
 2820TIP3    H130095   6.228   4.388   7.633 -0.4665  0.5322 -0.2773
 2820TIP3    H230096   6.295   4.376   7.497 -0.1226 -0.0120 -0.0627
 2821TIP3   OH230097   0.902   1.668   0.592  0.1048  0.1189 -0.2859
 2821TIP3    H130098   0.819   1.677   0.638 -0.4638 -0.7801 -1.0769
 2821TIP3    H230099   0.955   1.741   0.622 -0.3797 -0.2137  1.4633
 2822TIP3   OH230100   6.001   4.122   0.860 -0.6250  0.4815  0.2503
 2822TIP3    H130101   5.926   4.182   0.858 -2.0726 -1.2710 -0.3149
 2822TIP3    H230102   6.004   4.092   0.951  0.1617  1.4541  0.5567
 2823TIP3   OH230103   5.669   3.746   7.530 -0.1485 -0.0063 -0.2189
 2823TIP3    H130104   5.596   3.689   7.503 -2.2845  2.0090  0.8846
 2823TIP3    H230105   5.642   3.833   7.502  1.4007  0.9475  1.1031
 2824TIP3   OH230106   6.443   5.166   1.273 -0.3161  0.5067 -0.1385
 2824TIP3    H130107   6.373   5.196   1.216 -0.1180 -0.1278 -0.7212
 2824TIP3    H230108   6.404   5.096   1.325 -0.1560  0.2524 -0.3602
 2825TIP3   OH230109   1.590   4.388   8.565 -0.4281 -0.2147  0.8897
 2825TIP3    H130110   1.539   4.465   8.540  0.3833  0.7318  1.9912
 2825TIP3    H230111   1.526   4.319   8.576 -1.3319  0.6257  1.0532
 2826TIP3   OH230112   4.470   6.407   7.361  0.4586 -0.4416  1.1929
 2826TIP3    H130113   4.454   6.467   7.287  1.5920  0.4340  1.6344
 2826TIP3    H230114   4.546   6.356   7.334  0.0089 -1.1256  1.1808
 2827TIP3   OH230115   3.725   6.445   8.326 -0.0822  0.1368  0.2218
 2827TIP3    H130116   3.732   6.373   8.388 -2.1293  0.5887  1.0551
 2827TIP3    H230117   3.662   6.415   8.261  0.6935  0.3580 -0.6551
 2828TIP3   OH230118   5.369   4.478   7.306 -0.1985  0.2816 -0.8554
 2828TIP3    H130119   5.451   4.446   7.343  0.0009  2.1642  0.4349
 2828TIP3    H230120   5.324   4.399   7.276  0.5822 -1.1593  1.5011
 2829TIP3   OH230121   1.968   2.043   1.548  0.0579 -0.4899 -0.4400
 2829TIP3    H130122   1.991   2.121   1.499  0.7237 -0.3734  0.0434
 2829TIP3    H230123   1.914   2.076   1.620 -0.3234 -0.5731 -0.6873
 2830TIP3   OH230124   5.297   3.634   1.606  0.1402  0.2553  0.3613
 2830TIP3    H130125   5.342   3.717   1.590 -0.5323  0.5568 -0.0197
 2830TIP3    H230126   5.204   3.655   1.594 -0.1616 -0.2012  1.7495
 2831TIP3   OH230127   4.004   5.570   8.607  0.3143 -0.2347  0.4308
 2831TIP3    H130128   3.969   5.653   8.572 -0.2585 -0.5003  0.3649
 2831TIP3    H230129   4.071   5.597   8.670  0.6366  0.2689 -0.1166
 2832TIP3   OH230130   0.783   2.047   2.686  0.9739 -0.3126  0.1771
 2832TIP3    H130131   0.846   2.042   2.614  1.7250 -1.8515  0.8880
 2832TIP3    H230132   0.825   2.102   2.752  1.8021 -1.6321  0.8044
 2833TIP3   OH230133   1.136   3.353   1.991 -0.1152  0.2449  0.2226
 2833TIP3    H130134   1.079   3.276   1.994 -1.0381  0.9234  0.6514
 2833TIP3    H230135   1.084   3.423   2.030  1.5141  0.5758  1.9271
 2834TIP3   OH230136   2.298   3.559   7.971  0.9648  0.0163 -0.4894
 2834TIP3    H130137   2.383   3.602   7.964  1.0596 -0.3114 -1.7166
 2834TIP3    H230138   2.305   3.483   7.912  0.3931 -0.9848  0.6880
 2835TIP3   OH230139   5.494   1.635   7.390  0.1380 -0.4656  0.0219
 2835TIP3    H130140   5.408   1.613   7.353 -0.6330  1.0124  0.8579
 2835TIP3    H230141   5.476   1.707   7.450  2.1093  0.4469 -0.4250
 2836TIP3   OH230142   3.500   5.176   1.732 -0.4475 -0.1782 -0.2941
 2836TIP3    H130143   3.583   5.213   1.702  0.1323 -1.3375 -0.1739
 2836TIP3    H230144   3.491   5.207   1.822  0.0713 -0.4012 -0.1664
 2837TIP3   OH230145   5.390   6.467   7.573  0.2670 -0.7380 -0.2389
 2837TIP3    H130146   5.427   6.419   7.648  0.2739 -0.8921 -0.3407
 2837TIP3    H230147   5.461   6.525   7.545  0.1519 -0.4337  0.0847
 2838TIP3   OH230148   1.541   6.127   2.616 -0.2165  0.4965  0.9655
 2838TIP3    H130149   1.624   6.124   2.567 -0.6271  1.4651  0.1801
 2838TIP3    H230150   1.527   6.220   2.633  0.3704  0.1521  3.7837
 2839TIP3   OH230151   3.965   6.589   1.362 -0.1330 -0.3287  0.0773
 2839TIP3    H130152   3.908   6.593   1.439 -0.9417  0.2020 -0.5337
 2839TIP3    H230153   3.912   6.626   1.291  1.1243  0.5900 -0.4226
 2840TIP3   OH230154   1.716   4.619   2.001 -0.2572  0.0983 -0.1439
 2840TIP3    H130155   1.647   4.595   1.940 -0.5050 -0.8750  0.4967
 2840TIP3    H230156   1.772   4.541   2.006  0.9955  0.9077 -0.7679
 2841TIP3   OH230157   3.956   3.658   1.544  0.0745  0.3365 -0.3940
 2841TIP3    H130158   3.971   3.666   1.449  0.2143 -1.2055 -0.5296
 2841TIP3    H230159   3.883   3.597   1.551  0.0588  0.4533  0.5015
 2842TIP3   OH230160   3.229   3.985   8.366 -0.4660 -0.6322  0.3169
 2842TIP3    H130161   3.206   4.045   8.438  2.9162 -0.9513  1.8285
 2842TIP3    H230162   3.263   4.042   8.298  1.9708 -0.6068  1.4360
 2843TIP3   OH230163   2.804   1.310   1.155 -0.5367  0.5685  0.1740
 2843TIP3    H130164   2.715   1.274   1.152 -0.3613  0.0982  0.4667
 2843TIP3    H230165   2.822   1.338   1.065 -1.4177  1.7641  0.3385
 2844TIP3   OH230166   5.564   4.247   8.234 -0.8281  0.0453  0.5617
 2844TIP3    H130167   5.656   4.270   8.247 -0.2455 -0.5234 -2.0198
 2844TIP3    H230168   5.557   4.157   8.266  0.2618 -0.9296 -1.7558
 2845TIP3   OH230169   1.889   6.829   2.156 -0.5767 -0.2848  0.3067
 2845TIP3    H130170   1.859   6.919   2.146 -1.3839 -0.5351  0.4317
 2845TIP3    H230171   1.853   6.800   2.239  3.7353  0.8520  2.8961
 2846TIP3   OH230172   3.437   2.533   2.001 -0.7418  0.6188  0.0173
 2846TIP3    H130173   3.477   2.494   2.079 -1.8654 -2.9348 -1.0093
 2846TIP3    H230174   3.343   2.524   2.015 -1.0069  1.4000 -1.1028
 2847TIP3   OH230175   2.709   4.220   1.038  0.0872  0.4285  0.2448
 2847TIP3    H130176   2.706   4.204   1.133 -2.0597  0.1430  0.1859
 2847TIP3    H230177   2.772   4.291   1.028  1.0994 -0.1872  1.7659
 2848TIP3   OH230178   2.018   1.939   8.010  0.2959  0.1240 -0.4408
 2848TIP3    H130179   1.979   2.009   7.958  0.3975  1.0788  0.7376
 2848TIP3    H230180   1.972   1.943   8.094  1.8710  0.2965  0.4486
 2849TIP3   OH230181   3.896   3.232   7.502  0.0201  0.0822 -0.2949
 2849TIP3    H130182   3.846   3.313   7.504  1.7690  1.2190  0.8616
 2849TIP3    H230183   3.955   3.239   7.578  1.3988 -1.4945 -1.1542
 2850TIP3   OH230184   1.807   1.734   8.689  0.1032 -0.0501 -0.1797
 2850TIP3    H130185   1.723   1.780   8.687 -0.1699 -0.5547 -1.1911
 2850TIP3    H230186   1.804   1.677   8.612  1.6170  0.3491 -0.5533
 2851TIP3   OH230187   2.628   1.667   7.658 -0.2436  0.0677 -0.0460
 2851TIP3    H130188   2.575   1.653   7.580 -0.2682  0.4988 -0.1077
 2851TIP3    H230189   2.695   1.730   7.632 -0.3149  0.2943  0.3075
 2852TIP3   OH230190   6.223   4.044   1.334  0.1292  0.2617  0.2080
 2852TIP3    H130191   6.165   4.062   1.408 -0.1099 -1.0986  0.3744
 2852TIP3    H230192   6.296   3.996   1.373  0.7711  0.8669 -0.2107
 2853TIP3   OH230193   4.187   2.443   8.227 -0.2083 -0.0737 -0.0996
 2853TIP3    H130194   4.195   2.528   8.270 -0.4412  1.6229 -3.1096
 2853TIP3    H230195   4.267   2.435   8.175  0.0179 -1.9514  0.4704
 2854TIP3   OH230196   3.237   0.311   1.614  0.6330 -0.4992 -0.0990
 2854TIP3    H130197   3.164   0.314   1.676  1.4434  2.1295  0.8922
 2854TIP3    H230198   3.198   0.337   1.530 -0.0514 -1.9014 -0.2478
 2855TIP3   OH230199   3.974   2.368   7.225 -0.0961 -0.1602  0.2533
 2855TIP3    H130200   3.902   2.343   7.167 -1.2622 -0.9149  1.9546
 2855TIP3    H230201   3.959   2.318   7.305  0.9131  1.5623  1.5852
 2856TIP3   OH230202   4.705   2.171   0.773  0.1595 -0.2409  0.2981
 2856TIP3    H130203   4.717   2.079   0.749  0.6651 -0.9573  2.9618
 2856TIP3    H230204   4.611   2.178   0.790  0.2713 -0.5673  1.0997
 2857TIP3   OH230205   1.882   4.832   1.936 -0.2104  0.2755  0.2437
 2857TIP3    H130206   1.856   4.905   1.993 -1.6081  0.1996 -0.2635
 2857TIP3    H230207   1.837   4.756   1.972 -1.4689  0.3036 -1.1693
 2858TIP3   OH230208   3.401   5.045   7.543 -0.3607  0.1757  0.1455
 2858TIP3    H130209   3.357   5.076   7.464 -1.7295  0.4865  1.0022
 2858TIP3    H230210   3.481   5.004   7.511  0.3019  2.3600 -1.2212
 2859TIP3   OH230211   2.003   5.825   0.862 -0.5611 -0.0229  0.3317
 2859TIP3    H130212   2.007   5.743   0.813  2.1434  0.9166 -1.2481
 2859TIP3    H230213   1.925   5.869   0.828 -0.9709 -1.1028 -0.1929
 2860TIP3   OH230214   3.770   6.132   1.169  0.1084 -0.4219 -0.5640
 2860TIP3    H130215   3.806   6.194   1.233  0.0889  0.3306 -1.2772
 2860TIP3    H230216   3.839   6.065   1.160  1.0377  0.6126 -1.3585
 2861TIP3   OH230217   1.650   3.367   8.277  0.0415  0.4812 -0.1591
 2861TIP3    H130218   1.571   3.312   8.277  0.3628 -0.0380  1.6617
 2861TIP3    H230219   1.689   3.353   8.363  2.0795  0.8193 -0.9822
 2862TIP3   OH230220   1.417   5.467   8.544 -0.3579  0.2101  0.1098
 2862TIP3    H130221   1.348   5.509   8.595  0.4785  1.0647  0.5614
 2862TIP3    H230222   1.442   5.533   8.478  0.2503  0.0478  0.1678
 2863TIP3   OH230223   0.516   2.559   0.488 -0.1547  0.0309 -1.0461
 2863TIP3    H130224   0.492   2.633   0.431 -0.9456 -1.2899 -2.5006
 2863TIP3    H230225   0.611   2.564   0.494 -0.2617  1.8549 -0.1120
 2864TIP3   OH230226   1.046   4.092   2.036 -0.5887  0.5186 -0.4259
 2864TIP3    H130227   0.973   4.078   1.976  0.4196  0.5646 -1.6877
 2864TIP3    H230228   1.010   4.070   2.122 -1.4291 -1.7810 -1.2795
 2865TIP3   OH230229   6.074   1.320   0.588  0.0650 -0.3337  0.1186
 2865TIP3    H130230   6.081   1.225   0.582 -0.2582 -0.5298  2.2174
 2865TIP3    H230231   6.038   1.337   0.675 -1.9253  1.6293 -0.9573
 2866TIP3   OH230232   2.157   5.762   7.268  0.5046 -0.5432  0.4001
 2866TIP3    H130233   2.126   5.788   7.355  1.5625  1.3840  0.2733
 2866TIP3    H230234   2.209   5.837   7.239  0.9254 -1.5321 -1.5222
 2867TIP3   OH230235   2.809   3.426   7.225  0.1235  0.1020 -0.2953
 2867TIP3    H130236   2.850   3.513   7.226  0.4152  0.0267 -2.2622
 2867TIP3    H230237   2.789   3.410   7.133 -1.0912 -1.3949  0.1853
 2868TIP3   OH230238   0.794   2.666   1.590 -0.1754 -0.4688 -0.0531
 2868TIP3    H130239   0.876   2.680   1.637  2.2881  0.5678 -4.1440
 2868TIP3    H230240   0.761   2.582   1.623  1.8919 -0.3858  2.4971
 2869TIP3   OH230241   0.816   3.246   1.123 -0.2652  0.3013  0.6113
 2869TIP3    H130242   0.754   3.188   1.166 -0.4731 -2.5615 -3.0578
 2869TIP3    H230243   0.769   3.330   1.115 -2.0104 -0.5292  1.6133
 2870TIP3   OH230244   5.924   0.275   7.604 -0.5000 -0.4973 -0.7289
 2870TIP3    H130245   5.880   0.207   7.553  2.1921 -1.7798 -1.5386
 2870TIP3    H230246   6.014   0.277   7.569  0.0180  2.2767  0.4614
 2871TIP3   OH230247   0.081   2.903   0.286  0.0924  0.1176  0.0595
 2871TIP3    H130248   0.039   2.980   0.246 -1.4367 -0.2847  0.8191
 2871TIP3    H230249   0.051   2.904   0.376 -0.8715 -1.9790 -0.1830
 2872TIP3   OH230250   0.269   5.229   2.615  0.0040  0.4477  0.7847
 2872TIP3    H130251   0.261   5.314   2.573  0.9659  0.9447  1.5775
 2872TIP3    H230252   0.327   5.179   2.558  0.5340  0.7915  1.0172
 2873TIP3   OH230253   6.212   4.226   8.769 -0.0195  0.1823 -0.9230
 2873TIP3    H130254   6.176   4.149   8.725 -0.5868 -0.5995  0.8420
 2873TIP3    H230255   6.185   4.217   8.860  1.0245  1.8103 -0.4078
 2874TIP3   OH230256   1.281   5.888   0.227 -0.2520 -0.0326  0.4705
 2874TIP3    H130257   1.238   5.808   0.197 -0.8306 -0.1004  1.4309
 2874TIP3    H230258   1.374   5.873   0.212 -0.1422 -1.7225  2.4301
 2875TIP3   OH230259   6.684   1.787   1.711 -0.4321 -0.2490  0.4325
 2875TIP3    H130260   6.659   1.712   1.656 -0.2161 -0.9057  1.2190
 2875TIP3    H230261   6.684   1.752   1.800  0.9325  0.3533  0.6889
 2876TIP3   OH230262   6.535   1.421   7.503 -0.4539  0.7314 -0.0343
 2876TIP3    H130263   6.570   1.474   7.431 -0.1294  1.1313  0.4087
 2876TIP3    H230264   6.609   1.409   7.563 -0.0237 -1.7427 -0.9529
 2877TIP3   OH230265   4.123   6.783   8.623 -0.7155 -0.1602  0.0312
 2877TIP3    H130266   4.183   6.795   8.549 -1.4217 -1.1786 -0.7302
 2877TIP3    H230267   4.178   6.795   8.701  0.5099 -1.1670 -0.6523
 2878TIP3   OH230268   1.234   1.458   1.263  0.0892 -0.0092  0.3997
 2878TIP3    H130269   1.157   1.465   1.207  0.9162  2.5510 -0.5573
 2878TIP3    H230270   1.205   1.488   1.349  0.1125  1.5404 -0.1073
 2879TIP3   OH230271   3.290   2.248   1.231 -0.1737  0.7019 -0.0452
 2879TIP3    H130272   3.199   2.268   1.207 -0.6524  0.6733  1.5950
 2879TIP3    H230273   3.282   2.188   1.306  1.2044  0.4061 -0.1095
 2880TIP3   OH230274   2.848   1.339   8.609  1.1453 -0.9122  0.0101
 2880TIP3    H130275   2.774   1.369   8.556  0.6309 -1.9596  0.1152
 2880TIP3    H230276   2.919   1.400   8.588  0.4745 -0.3418 -0.6513
 2881TIP3   OH230277   1.688   5.407   8.314 -0.3227  0.1900 -0.3262
 2881TIP3    H130278   1.674   5.333   8.373 -0.3900 -0.8191 -1.5667
 2881TIP3    H230279   1.617   5.400   8.250  0.4575  0.5282 -1.2468
 2882TIP3   OH230280   0.741   2.423   1.695  0.4507 -0.2223  0.6726
 2882TIP3    H130281   0.665   2.390   1.647 -0.5756 -0.4269  2.3563
 2882TIP3    H230282   0.815   2.376   1.657 -0.5549 -1.8659  0.6460
 2883TIP3   OH230283   5.658   4.254   1.738 -0.3901  0.1419  0.5123
 2883TIP3    H130284   5.727   4.284   1.797  0.9484  0.1100 -0.9539
 2883TIP3    H230285   5.689   4.170   1.706 -2.1595 -0.9085  1.4421
 2884TIP3   OH230286   1.312   1.223   0.198  0.5597 -0.1626  0.2659
 2884TIP3    H130287   1.375   1.290   0.225 -0.0907  1.4260 -1.8516
 2884TIP3    H230288   1.228   1.268   0.197 -0.3487 -1.7585  1.2943
 2885TIP3   OH230289   6.059   0.430   7.106  0.3842  0.0233  0.2884
 2885TIP3    H130290   6.067   0.490   7.031 -3.4125  2.0162  1.2134
 2885TIP3    H230291   6.110   0.473   7.175 -0.2908  0.9338  0.2446
 2886TIP3   OH230292   5.188   0.614   7.745 -0.3828  0.3151 -0.7149
 2886TIP3    H130293   5.207   0.643   7.834  1.3706 -2.0513 -0.2089
 2886TIP3    H230294   5.145   0.689   7.704 -1.6185  1.3631  2.2056
 2887TIP3   OH230295   5.509   3.961   7.827  0.5457  0.1621  0.2902
 2887TIP3    H130296   5.531   4.045   7.868 -1.7463  0.7198  0.4978
 2887TIP3    H230297   5.518   3.978   7.733  4.6074 -0.7731  0.3295
 2888TIP3   OH230298   3.114   0.669   0.506  0.1955 -0.2290  0.1424
 2888TIP3    H130299   3.135   0.637   0.594 -0.6261  0.0432  0.4476
 2888TIP3    H230300   3.189   0.645   0.453  0.7478 -0.3095  0.9457
 2889TIP3   OH230301   3.943   4.118   7.696 -0.2214 -0.1921 -0.0966
 2889TIP3    H130302   3.896   4.052   7.747 -0.5972  0.6409  0.6754
 2889TIP3    H230303   3.908   4.110   7.607 -2.4774  0.9444  0.6188
 2890TIP3   OH230304   5.428   5.007   1.703  0.4514 -0.2292  0.0592
 2890TIP3    H130305   5.371   4.953   1.649 -0.3377  0.6195  0.0212
 2890TIP3    H230306   5.505   5.023   1.648  0.1960 -0.3876 -0.3466
 2891TIP3   OH230307   2.453   3.498   0.529  0.3356  0.3659  0.6329
 2891TIP3    H130308   2.412   3.454   0.603  0.1577 -0.8495 -0.1548
 2891TIP3    H230309   2.386   3.557   0.496 -0.1846 -0.3252  0.4231
 2892TIP3   OH230310   3.657   6.239   0.926 -0.1251  0.2374  0.7833
 2892TIP3    H130311   3.563   6.242   0.911 -0.0930 -0.3042  0.4337
 2892TIP3    H230312   3.667   6.219   1.019 -0.4397 -3.9192  0.1195
 2893TIP3   OH230313   0.711   4.495   8.709  0.2889 -0.3447  0.3282
 2893TIP3    H130314   0.746   4.583   8.698 -1.3084  0.2995  0.0917
 2893TIP3    H230315   0.729   4.450   8.627  1.6074 -0.4548  0.6503
 2894TIP3   OH230316   5.917   2.889   7.601  0.0736  0.1209 -0.3853
 2894TIP3    H130317   5.922   2.971   7.553 -1.0294  0.9649  0.8649
 2894TIP3    H230318   5.834   2.850   7.574 -0.4246  0.4708  0.5678
 2895TIP3   OH230319   2.794   1.667   7.067  0.2621 -0.0879  0.1604
 2895TIP3    H130320   2.813   1.663   7.161  0.8570 -2.1236 -0.0010
 2895TIP3    H230321   2.699   1.673   7.061  0.2879  1.9785  0.8724
 2896TIP3   OH230322   6.306   4.909   7.188 -0.5536 -0.2553  0.4418
 2896TIP3    H130323   6.325   4.910   7.095 -0.2831 -0.6366  0.4873
 2896TIP3    H230324   6.215   4.937   7.195 -1.6140 -3.1641 -0.2139
 2897TIP3   OH230325   3.056   4.615   0.522  0.5315  0.2213  0.2374
 2897TIP3    H130326   3.149   4.596   0.510  0.4747 -0.7299  1.1269
 2897TIP3    H230327   3.054   4.691   0.580  0.7592 -0.2724  0.8981
 2898TIP3   OH230328   5.458   4.181   0.364 -0.0805  0.1455  0.7442
 2898TIP3    H130329   5.459   4.156   0.456  0.5091 -0.2895  0.6302
 2898TIP3    H230330   5.476   4.100   0.317 -1.0252  0.2364  0.2038
 2899TIP3   OH230331   2.075   0.827   1.133  0.8103  0.6184  0.1657
 2899TIP3    H130332   2.145   0.874   1.087  1.0506  0.0918 -0.0175
 2899TIP3    H230333   2.105   0.736   1.135 -0.8199 -0.0402 -1.8220
 2900TIP3   OH230334   4.124   0.804   0.743  0.0774 -0.1876  0.1395
 2900TIP3    H130335   4.037   0.844   0.740  0.4995  0.7912  0.5133
 2900TIP3    H230336   4.135   0.777   0.834  0.5248  0.5269  0.3005
 2901TIP3   OH230337   2.720   3.497   7.701  0.1903  0.3679  0.1890
 2901TIP3    H130338   2.724   3.427   7.767  0.4618  0.5445  0.3644
 2901TIP3    H230339   2.682   3.455   7.624  0.2336  0.0567  0.3337
 2902TIP3   OH230340   4.974   4.639   2.065  0.2390 -0.2382  0.1320
 2902TIP3    H130341   5.052   4.667   2.112 -0.1286  0.7279  0.1891
 2902TIP3    H230342   4.999   4.637   1.973  1.0309 -2.3605  0.3283
 2903TIP3   OH230343   0.879   6.738   8.521 -0.4709  0.3579 -0.1829
 2903TIP3    H130344   0.952   6.679   8.501 -2.6149 -3.3342  1.7832
 2903TIP3    H230345   0.892   6.761   8.613 -1.6321 -0.2589  0.1574
 2904TIP3   OH230346   5.943   2.039   7.096 -0.2972 -0.6017  0.5749
 2904TIP3    H130347   5.972   1.954   7.064  0.1066 -0.1435 -0.3184
 2904TIP3    H230348   5.975   2.101   7.030  1.4471  0.5047  2.3543
 2905TIP3   OH230349   5.472   0.364   0.005 -0.1284  0.0436 -0.6542
 2905TIP3    H130350   5.543   0.391  -0.053  1.2043 -0.8637  0.4984
 2905TIP3    H230351   5.426   0.445   0.026  1.0990  0.7750 -0.7264
 2906TIP3   OH230352   2.812   1.872   0.891 -0.2776 -0.1835  0.7299
 2906TIP3    H130353   2.718   1.885   0.879  0.0122  1.6862  0.1393
 2906TIP3    H230354   2.827   1.779   0.873 -1.8603 -0.2931 -0.1490
 2907TIP3   OH230355   5.975   5.134   6.487 -0.4354  0.2583  0.3357
 2907TIP3    H130356   6.063   5.104   6.464 -0.6421  1.1001 -1.7586
 2907TIP3    H230357   5.921   5.055   6.479 -0.0924  0.0251  0.2901
 2908TIP3   OH230358   6.725   6.762   7.586 -0.0692  0.2528 -0.1734
 2908TIP3    H130359   6.757   6.816   7.659  1.4209  0.4083 -0.8966
 2908TIP3    H230360   6.640   6.730   7.615 -0.4172  1.9444  0.8103
 2909TIP3   OH230361   6.391   2.482   7.104  0.2823 -0.5435 -0.6494
 2909TIP3    H130362   6.468   2.435   7.070  0.4967 -1.1886  0.6623
 2909TIP3    H230363   6.413   2.500   7.195 -0.0471  1.6162 -0.9605
 2910TIP3   OH230364   3.635   5.064   6.720 -0.1212 -0.3675  0.7040
 2910TIP3    H130365   3.651   5.137   6.660  0.0743  0.7168  2.0178
 2910TIP3    H230366   3.574   5.100   6.785  0.3349 -1.2205  1.6283
 2911TIP3   OH230367   4.189   2.668   0.985  0.0666  0.2741  0.4034
 2911TIP3    H130368   4.115   2.725   1.005 -1.6037 -2.2268  1.8776
 2911TIP3    H230369   4.253   2.688   1.053  0.5385  1.9987 -0.5011
 2912TIP3   OH230370   0.088   0.842   7.206 -0.6326 -0.0007  1.0339
 2912TIP3    H130371   0.107   0.771   7.145 -0.5774  0.3198  0.6733
 2912TIP3    H230372   0.118   0.809   7.291 -2.1971 -1.1032  1.2139
 2913TIP3   OH230373   1.387   6.405   1.712 -0.2017 -0.0032 -0.0947
 2913TIP3    H130374   1.309   6.351   1.703 -0.6384 -0.3014  3.9538
 2913TIP3    H230375   1.360   6.492   1.682 -1.5148 -0.5095 -0.4310
 2914TIP3   OH230376   3.672   0.410   8.791 -0.6611  0.1254 -0.4423
 2914TIP3    H130377   3.736   0.480   8.805 -0.9361 -0.0344  1.9760
 2914TIP3    H230378   3.590   0.456   8.770 -0.2498  0.3908 -1.5539
 2915TIP3   OH230379   2.486   5.348   1.871  0.1811  0.4027 -0.3219
 2915TIP3    H130380   2.573   5.390   1.876 -0.8220  2.5890  0.1686
 2915TIP3    H230381   2.502   5.257   1.894  2.1726  1.0395  1.1134
 2916TIP3   OH230382   1.594   3.024   8.231 -0.1989  0.2978  0.0507
 2916TIP3    H130383   1.579   2.949   8.173 -0.5865  2.0636 -2.2693
 2916TIP3    H230384   1.519   3.024   8.291 -0.8531 -0.4300 -0.7429
 2917TIP3   OH230385   5.890   4.866   0.659 -0.1469  0.2492 -0.0059
 2917TIP3    H130386   5.949   4.926   0.705  0.4212 -0.9680  0.9037
 2917TIP3    H230387   5.947   4.794   0.631 -0.7187  0.3565 -1.5577
 2918TIP3   OH230388   0.881   5.217   8.168  0.3081 -0.1003 -0.4136
 2918TIP3    H130389   0.937   5.294   8.175 -1.3761  1.1441  0.0540
 2918TIP3    H230390   0.913   5.157   8.235  1.1205  0.5610 -0.1991
 2919TIP3   OH230391   6.172   3.922   1.938  0.2419  0.1924 -0.0033
 2919TIP3    H130392   6.132   3.923   2.024 -0.3240 -1.2130 -0.2238
 2919TIP3    H230393   6.168   3.830   1.910  1.4455  0.4231 -1.0421
 2920TIP3   OH230394   4.425   1.779   1.325 -0.4472 -0.3502  0.1216
 2920TIP3    H130395   4.501   1.761   1.381  0.7208  2.2329 -0.4820
 2920TIP3    H230396   4.422   1.706   1.264  1.9064 -0.2670 -0.1733
 2921TIP3   OH230397   1.610   0.008   7.689  0.8303  0.2654  0.6847
 2921TIP3    H130398   1.606  -0.070   7.744 -0.4659  1.3333  2.1883
 2921TIP3    H230399   1.522   0.045   7.692  1.1721  1.3192 -0.7472
 2922TIP3   OH230400   3.142   2.192   1.984  0.0944  0.4828 -0.3990
 2922TIP3    H130401   3.075   2.235   1.932 -0.3261 -1.4527 -1.5922
 2922TIP3    H230402   3.093   2.136   2.045  0.5598 -0.7911 -1.1439
 2923TIP3   OH230403   1.862   3.344   0.394  0.4400  0.5716  0.0398
 2923TIP3    H130404   1.873   3.385   0.308 -2.6411 -0.0192 -0.7646
 2923TIP3    H230405   1.899   3.256   0.383  1.5194  1.0343 -0.1459
 2924TIP3   OH230406   2.652   6.715   6.694 -0.5884  0.0249  0.3821
 2924TIP3    H130407   2.700   6.668   6.762 -0.3799  1.4672  1.2759
 2924TIP3    H230408   2.705   6.792   6.676 -1.6408  0.7033  0.0631
 2925TIP3   OH230409   5.166   0.573   0.236  0.3890 -0.5687 -0.0928
 2925TIP3    H130410   5.222   0.505   0.274  1.2529 -0.3896 -0.9939
 2925TIP3    H230411   5.219   0.652   0.238 -0.1324 -0.2117 -0.2263
 2926TIP3   OH230412   2.895   1.615   0.836 -0.1650  0.7337 -0.3408
 2926TIP3    H130413   2.953   1.606   0.761  0.3480  0.5999  0.0652
 2926TIP3    H230414   2.832   1.543   0.826  0.1888  0.4286 -0.3901
 2927TIP3   OH230415   2.131   0.700   7.400 -0.3006  0.0828 -0.3893
 2927TIP3    H130416   2.070   0.696   7.326 -2.2278  1.2217  1.0630
 2927TIP3    H230417   2.140   0.609   7.428 -1.3830 -0.1101 -0.6180
 2928TIP3   OH230418   1.713   5.615   0.430 -0.1164 -0.3517 -0.2510
 2928TIP3    H130419   1.658   5.573   0.496  3.1466  0.8345  3.5956
 2928TIP3    H230420   1.679   5.705   0.424  0.3704 -0.0891  0.8462
 2929TIP3   OH230421   2.071   2.984   1.674 -0.1264 -1.0344 -0.1989
 2929TIP3    H130422   2.008   3.056   1.671  1.8673  0.7919 -1.3865
 2929TIP3    H230423   2.065   2.950   1.763 -0.4542  1.2913  0.7317
 2930TIP3   OH230424   4.245   0.047   7.116  0.1074  0.5737  0.0877
 2930TIP3    H130425   4.298   0.123   7.092  1.0704 -0.4917 -1.3032
 2930TIP3    H230426   4.168   0.052   7.060 -0.4138  1.1359  0.8309
 2931TIP3   OH230427   5.614   2.292   7.502 -0.0915  0.5934  0.1043
 2931TIP3    H130428   5.665   2.244   7.568 -0.3587  1.1248  0.7100
 2931TIP3    H230429   5.526   2.256   7.510  0.6442 -2.3477 -2.8570
 2932TIP3   OH230430   3.630   0.482   0.287  0.0578 -0.1628  0.0166
 2932TIP3    H130431   3.673   0.554   0.333  0.2434 -0.1376 -0.1925
 2932TIP3    H230432   3.694   0.455   0.221 -0.8884  0.9663 -1.4221
 2933TIP3   OH230433   0.765   5.871   6.644 -0.2704 -0.1637  0.2918
 2933TIP3    H130434   0.704   5.924   6.695 -0.6349 -0.4503  0.1649
 2933TIP3    H230435   0.723   5.785   6.640  0.0046 -0.2833 -0.0453
 2934TIP3   OH230436   3.292   4.110   7.814  0.4109 -0.2668 -0.7773
 2934TIP3    H130437   3.296   4.032   7.758 -0.5491  0.2362 -1.5917
 2934TIP3    H230438   3.309   4.183   7.754 -2.0456  0.3978 -0.7844
 2935TIP3   OH230439   5.815   2.009   8.710  0.0898 -0.1526  0.0169
 2935TIP3    H130440   5.900   2.022   8.752  0.7854  3.0323 -1.9705
 2935TIP3    H230441   5.751   2.044   8.773  0.6443  0.6299  0.1577
 2936TIP3   OH230442   3.450   5.441   7.164 -0.4846 -0.1752 -0.2114
 2936TIP3    H130443   3.517   5.403   7.220 -0.4308 -2.1974 -1.5227
 2936TIP3    H230444   3.405   5.505   7.220 -0.0957 -1.6786  1.9558
 2937TIP3   OH230445   1.358   6.789   8.133 -0.4260 -0.2455  0.6374
 2937TIP3    H130446   1.303   6.738   8.194  0.6812 -3.3283 -0.7298
 2937TIP3    H230447   1.445   6.789   8.173 -0.0355 -0.9762 -0.1741
 2938TIP3   OH230448   6.001   2.932   0.982 -0.7073  0.9121  0.0576
 2938TIP3    H130449   6.010   3.026   0.998 -2.3049  1.0436  0.3655
 2938TIP3    H230450   5.975   2.926   0.890  1.0144  0.6329 -0.4489
 2939TIP3   OH230451   1.443   5.652   7.461  0.3030 -0.4828  0.8404
 2939TIP3    H130452   1.370   5.670   7.401  2.1077  1.0328 -1.0393
 2939TIP3    H230453   1.450   5.731   7.514  1.5811  0.0804 -0.1318
 2940TIP3   OH230454   3.080   1.279   2.140 -0.3504  0.2723  0.2137
 2940TIP3    H130455   3.145   1.218   2.106 -0.4804  1.0381 -1.5491
 2940TIP3    H230456   3.092   1.358   2.087 -0.3644  1.6956  2.2371
 2941TIP3   OH230457   2.046   4.319   8.796  0.4976 -0.5884  0.4393
 2941TIP3    H130458   2.084   4.372   8.726 -1.4072 -2.2963 -2.0587
 2941TIP3    H230459   1.954   4.345   8.799  1.0237  1.7640  4.7191
 2942TIP3   OH230460   5.410   4.885   8.766 -0.0400  0.6017  0.0338
 2942TIP3    H130461   5.376   4.829   8.836  2.5637  2.2339  2.8141
 2942TIP3    H230462   5.471   4.944   8.809 -1.4659  4.6782 -2.9102
 2943TIP3   OH230463   0.527   6.107   0.458  1.1535 -0.7493 -0.7265
 2943TIP3    H130464   0.518   6.194   0.496 -1.2929 -1.9200  1.7392
 2943TIP3    H230465   0.595   6.064   0.510 -0.3086 -1.4769  0.6586
 2944TIP3   OH230466   6.795   4.151   0.067  0.1784 -0.0427 -0.9312
 2944TIP3    H130467   6.869   4.203   0.099 -0.4875 -0.3664  1.3506
 2944TIP3    H230468   6.722   4.213   0.061 -0.2379 -0.3752  0.3453
 2945TIP3   OH230469   1.712   5.862   1.486  0.5143 -0.1737 -0.3638
 2945TIP3    H130470   1.783   5.926   1.495  1.9553 -1.8476  1.0131
 2945TIP3    H230471   1.706   5.821   1.572 -1.9287 -0.3557 -0.5527
 2946TIP3   OH230472   1.833   3.708   0.962 -0.0038 -0.6330 -0.5400
 2946TIP3    H130473   1.894   3.717   1.036  0.0731 -0.3982 -0.6304
 2946TIP3    H230474   1.880   3.745   0.888  0.2704 -1.6708 -0.9081
 2947TIP3   OH230475   3.857   5.688   1.717  0.1791  0.8514 -0.1480
 2947TIP3    H130476   3.864   5.733   1.802  0.6369  2.6582 -1.0930
 2947TIP3    H230477   3.764   5.695   1.695 -0.6314 -2.4876  1.6196
 2948TIP3   OH230478   6.527   0.721   1.823  0.1187  0.2349  0.8554
 2948TIP3    H130479   6.613   0.710   1.865  0.2309  1.8415  1.1379
 2948TIP3    H230480   6.491   0.800   1.864 -0.7887  0.5111 -0.4170
 2949TIP3   OH230481   5.319   5.340   7.606  0.4985  0.2635 -0.7107
 2949TIP3    H130482   5.315   5.274   7.536 -1.2403 -0.5570  0.0977
 2949TIP3    H230483   5.330   5.290   7.686  0.7269  1.0815 -0.2168
 2950TIP3   OH230484   3.954   5.537   7.052 -0.1924 -0.1349  0.0434
 2950TIP3    H130485   3.923   5.451   7.023  2.6573 -0.8659 -1.2314
 2950TIP3    H230486   3.955   5.591   6.973  1.7895 -0.2386 -0.0682
 2951TIP3   OH230487   4.475   4.662   7.694  0.1871 -0.7068  0.5892
 2951TIP3    H130488   4.413   4.594   7.671  0.4150 -2.1951  3.7985
 2951TIP3    H230489   4.426   4.722   7.750  0.7347  0.1423  0.1807
 2952TIP3   OH230490   0.245   3.820   8.529  0.0331  0.7864  0.2782
 2952TIP3    H130491   0.272   3.732   8.554  0.8970  1.5249  2.1002
 2952TIP3    H230492   0.243   3.818   8.433 -0.9918 -1.4766  0.2918
 2953TIP3   OH230493   4.791   6.417   6.947  0.3368  0.0650  0.3940
 2953TIP3    H130494   4.727   6.474   6.905 -2.0091 -1.0061  2.2429
 2953TIP3    H230495   4.821   6.467   7.024  1.2354  0.2800 -0.0805
 2954TIP3   OH230496   6.122   4.368   7.277  0.4605 -0.1598  0.3498
 2954TIP3    H130497   6.061   4.440   7.295 -0.3866 -0.2424 -1.8718
 2954TIP3    H230498   6.207   4.400   7.308  0.1281  1.8676 -0.6689
 2955TIP3   OH230499   3.969   5.953   1.216  0.5585 -0.1035 -0.6241
 2955TIP3    H130500   4.054   5.976   1.253  1.7331 -2.3585 -1.7746
 2955TIP3    H230501   3.933   5.887   1.275  0.5769 -0.7049 -1.2734
 2956TIP3   OH230502   3.711   6.453   7.455  0.2138  0.2750  0.2286
 2956TIP3    H130503   3.685   6.536   7.414  0.5865  0.8890  1.2073
 2956TIP3    H230504   3.800   6.437   7.422 -0.4234 -0.5778 -1.2015
 2957TIP3   OH230505   1.884   2.496   7.518  1.3063 -0.8482 -0.1199
 2957TIP3    H130506   1.831   2.431   7.473  1.8414 -1.9555  0.7827
 2957TIP3    H230507   1.968   2.452   7.533  1.7159  0.0853  0.4329
 2958TIP3   OH230508   3.712   3.698   8.177  0.0060 -0.1664  0.2176
 2958TIP3    H130509   3.792   3.680   8.227  0.6416 -1.6932 -1.2917
 2958TIP3    H230510   3.742   3.742   8.098 -0.8560  0.8318  0.4126
 2959TIP3   OH230511   2.312   5.397   1.411 -0.2825 -0.5681 -0.1671
 2959TIP3    H130512   2.405   5.411   1.395 -0.2946 -1.4581 -1.1447
 2959TIP3    H230513   2.307   5.311   1.452 -0.3597  1.1973  3.9887
 2960TIP3   OH230514   5.774   6.292   7.441  0.2485  0.2618  0.0676
 2960TIP3    H130515   5.852   6.244   7.470 -0.0888  0.5314  1.5238
 2960TIP3    H230516   5.737   6.326   7.522 -0.8387  0.9717 -0.7175
 2961TIP3   OH230517   1.279   5.725   0.551 -0.0180  0.3700 -0.7750
 2961TIP3    H130518   1.185   5.723   0.536 -0.4334  1.7551  1.2438
 2961TIP3    H230519   1.292   5.796   0.615  2.0965 -1.4000  0.9372
 2962TIP3   OH230520   1.538   5.892   7.594 -0.1197  0.0542 -0.6056
 2962TIP3    H130521   1.630   5.870   7.576 -0.1083  1.7717 -3.3341
 2962TIP3    H230522   1.535   5.988   7.586 -1.7708  0.2647  1.6866
 2963TIP3   OH230523   1.157   5.015   7.015 -0.4824 -0.4149  0.4144
 2963TIP3    H130524   1.106   4.960   7.075 -0.6685 -0.4190  0.2561
 2963TIP3    H230525   1.099   5.027   6.939  0.5584 -2.1677 -0.7063
 2964TIP3   OH230526   3.601   2.043   7.124  0.3013 -0.0390 -0.1519
 2964TIP3    H130527   3.511   2.017   7.105  0.3771  0.8762 -1.9192
 2964TIP3    H230528   3.646   1.961   7.145 -0.6640 -0.6458 -0.4181
 2965TIP3   OH230529   5.140   5.482   1.628 -0.5212  0.3678  0.1581
 2965TIP3    H130530   5.167   5.572   1.610  1.8896  0.0393  1.6099
 2965TIP3    H230531   5.209   5.428   1.590 -0.8702 -0.7588  1.0394
 2966TIP3   OH230532   0.182   1.703   7.728 -0.1817  0.1385  0.0759
 2966TIP3    H130533   0.219   1.733   7.645 -0.1325  0.2687  0.1447
 2966TIP3    H230534   0.194   1.777   7.788 -0.4663  0.1475  0.1235
 2967TIP3   OH230535   3.666   1.401   6.400 -0.0805 -0.1567 -0.3946
 2967TIP3    H130536   3.761   1.396   6.396 -0.0308  0.0971  0.4069
 2967TIP3    H230537   3.637   1.381   6.310  0.7937  1.4952 -1.0851
 2968TIP3   OH230538   6.303   3.485   0.957  0.6835 -0.0257  0.3599
 2968TIP3    H130539   6.388   3.448   0.983  0.7156 -0.0436  0.2336
 2968TIP3    H230540   6.252   3.489   1.038  0.3855 -1.1131  0.2384
 2969TIP3   OH230541   4.284   3.725   7.716  0.0152 -0.0323 -0.1282
 2969TIP3    H130542   4.357   3.715   7.654  0.0525 -0.7058  0.0148
 2969TIP3    H230543   4.207   3.701   7.665  0.1237 -1.3172  0.2644
 2970TIP3   OH230544   3.682   6.049   0.084 -0.4225 -0.1801  0.2754
 2970TIP3    H130545   3.762   6.014   0.123  0.6977  0.6535 -1.1681
 2970TIP3    H230546   3.672   6.135   0.123 -1.8221 -1.0599  2.0011
 2971TIP3   OH230547   6.506   4.795   7.864 -0.2338  0.0023  0.1776
 2971TIP3    H130548   6.444   4.816   7.794  0.2261  0.9764  0.0556
 2971TIP3    H230549   6.592   4.807   7.824  0.0337 -0.4723  0.6077
 2972TIP3   OH230550   6.475   0.055   1.573 -0.7050  0.8805  0.5261
 2972TIP3    H130551   6.409   0.057   1.504 -0.7381 -0.0539  0.5197
 2972TIP3    H230552   6.534  -0.016   1.548 -0.0330  1.3178  0.8390
 2973TIP3   OH230553   0.212   0.769   7.448  0.3348 -0.5887 -0.4710
 2973TIP3    H130554   0.154   0.777   7.523 -2.5343 -1.0276 -2.4579
 2973TIP3    H230555   0.299   0.753   7.485 -1.2832 -3.0099  2.7331
 2974TIP3   OH230556   0.201   2.879   7.382 -0.0983 -0.4672  0.1673
 2974TIP3    H130557   0.236   2.951   7.435  1.8627 -0.2499 -1.3400
 2974TIP3    H230558   0.106   2.887   7.391  0.1307  0.8544  1.9013
 2975TIP3   OH230559   2.364   4.409   1.815 -0.4230 -0.0642  0.0261
 2975TIP3    H130560   2.309   4.439   1.888 -0.9769 -1.0083  0.0203
 2975TIP3    H230561   2.429   4.352   1.855  0.2041  0.5982 -0.0409
 2976TIP3   OH230562   0.176   3.498   0.281 -0.4684  0.0126 -0.0886
 2976TIP3    H130563   0.190   3.408   0.309 -0.2533 -0.2212 -0.9247
 2976TIP3    H230564   0.254   3.520   0.231 -0.5177  0.6700  0.1116
 2977TIP3   OH230565   3.854   1.853   8.615  0.1914  0.2353 -0.3871
 2977TIP3    H130566   3.927   1.911   8.639  0.4982 -0.9175  1.7461
 2977TIP3    H230567   3.894   1.766   8.608 -0.9713 -0.4474  0.9879
 2978TIP3   OH230568   3.692   2.567   0.016 -0.1103 -0.2988 -0.7596
 2978TIP3    H130569   3.651   2.493  -0.028  1.3428 -1.6249 -0.0084
 2978TIP3    H230570   3.783   2.566  -0.015  0.0832  0.8275 -0.3016
 2979TIP3   OH230571   6.358   3.945   1.623 -0.3801  0.0106 -0.2826
 2979TIP3    H130572   6.268   3.954   1.655  0.2874 -0.4884  1.9138
 2979TIP3    H230573   6.407   4.013   1.670  0.6544 -0.6958 -0.2912
 2980TIP3   OH230574   4.525   0.114   7.923 -0.5552 -0.0211  0.7349
 2980TIP3    H130575   4.592   0.129   7.856  1.0467 -0.6977  2.1328
 2980TIP3    H230576   4.502   0.021   7.913 -1.0359  0.1158  0.5111
 2981TIP3   OH230577   6.825   0.963   0.538 -0.1542  0.2170  0.3328
 2981TIP3    H130578   6.817   0.944   0.631  0.8603 -1.6181  0.0938
 2981TIP3    H230579   6.762   1.033   0.522  0.6886  1.6220  2.6733
 2982TIP3   OH230580   2.608   2.889   2.301  1.0503  0.1445 -0.2217
 2982TIP3    H130581   2.673   2.897   2.232  0.3821  4.0436 -0.6488
 2982TIP3    H230582   2.525   2.879   2.256  0.7866  1.0425  0.0378
 2983TIP3   OH230583   1.832   5.556   0.075 -0.1059 -0.1013  0.1918
 2983TIP3    H130584   1.864   5.633   0.121  0.8614 -0.1849 -0.3111
 2983TIP3    H230585   1.841   5.578  -0.018 -1.0140 -0.3500  0.0269
 2984TIP3   OH230586   0.605   3.804   7.648  0.2441  0.7113 -0.2329
 2984TIP3    H130587   0.650   3.744   7.589  0.0937  0.6043 -0.2384
 2984TIP3    H230588   0.664   3.813   7.723 -0.2811 -0.4035  0.3312
 2985TIP3   OH230589   3.739   2.709   0.987  0.2609  0.0801  0.3428
 2985TIP3    H130590   3.800   2.636   0.973  0.7254  0.4866  0.1949
 2985TIP3    H230591   3.693   2.687   1.068  0.6879 -0.1838  0.5164
 2986TIP3   OH230592   2.390   4.598   0.296  0.1682  0.3540 -0.1363
 2986TIP3    H130593   2.423   4.628   0.211 -0.0899  1.9481  0.2880
 2986TIP3    H230594   2.312   4.547   0.275  0.7642 -0.2640 -0.9161
 2987TIP3   OH230595   6.838   1.996   8.762 -0.7121  0.0287 -0.4355
 2987TIP3    H130596   6.798   1.997   8.675 -0.6443  0.4380 -0.4667
 2987TIP3    H230597   6.769   2.030   8.820 -1.6500 -2.5289  0.0918
 2988TIP3   OH230598   4.082   4.385   1.760 -0.2010  0.1695  0.3197
 2988TIP3    H130599   4.062   4.476   1.740 -0.7571  0.3927  1.8311
 2988TIP3    H230600   4.177   4.381   1.764 -0.2088  1.0843  1.9508
 2989TIP3   OH230601   0.322   6.319   0.288  0.1456  0.0574  0.4139
 2989TIP3    H130602   0.255   6.368   0.241 -0.3287 -0.3239  0.6817
 2989TIP3    H230603   0.403   6.367   0.272  0.3227 -0.9424 -2.1653
 2990TIP3   OH230604   4.586   2.798   0.591  0.1763 -0.1749  0.4075
 2990TIP3    H130605   4.610   2.706   0.597 -0.1580 -0.3036 -0.1828
 2990TIP3    H230606   4.522   2.811   0.662 -0.8737 -0.7537 -0.4019
 2991TIP3   OH230607   3.561   0.358   7.536  0.4989  0.3967  0.1873
 2991TIP3    H130608   3.553   0.417   7.611  0.5039 -0.2011  0.6624
 2991TIP3    H230609   3.640   0.307   7.553  0.7934  0.6220 -0.4843
 2992TIP3   OH230610   2.666   3.053   7.846  0.4832  0.2933 -0.2648
 2992TIP3    H130611   2.694   3.045   7.755  2.6035  0.1782  0.3316
 2992TIP3    H230612   2.641   2.964   7.871  0.5387  0.1933 -0.5637
 2993TIP3   OH230613   0.773   5.052   8.751  0.0890  0.2036 -0.4676
 2993TIP3    H130614   0.786   4.966   8.792  0.6781  1.0281  1.1603
 2993TIP3    H230615   0.830   5.051   8.675 -0.8622 -1.3039 -1.2132
 2994TIP3   OH230616   0.959   4.731   1.210 -0.7041 -0.4547  0.0574
 2994TIP3    H130617   0.915   4.809   1.241  0.5593  0.1466  0.4174
 2994TIP3    H230618   0.891   4.680   1.166 -1.4139  1.1399 -0.7516
 2995TIP3   OH230619   1.975   5.574   0.371  0.4283 -0.0874 -0.3641
 2995TIP3    H130620   1.915   5.560   0.443  0.6862 -0.4961 -0.2241
 2995TIP3    H230621   1.935   5.643   0.318 -0.2504 -0.4869 -0.3744
 2996TIP3   OH230622   1.108   2.129   1.762  0.2999 -0.3535  0.4952
 2996TIP3    H130623   1.194   2.147   1.724 -1.2034  0.4283 -2.9101
 2996TIP3    H230624   1.108   2.034   1.778  1.8614 -0.3240  0.8253
 2997TIP3   OH230625   4.054   0.909   1.552 -0.6115  0.1219  0.3420
 2997TIP3    H130626   4.024   0.955   1.630 -0.1598 -0.3868  0.8173
 2997TIP3    H230627   4.003   0.828   1.551  0.4163 -0.5408  0.9081
 2998TIP3   OH230628   5.390   4.107   7.287  0.0898  0.3849  0.2990
 2998TIP3    H130629   5.357   4.151   7.365  0.8948  1.1724  0.2177
 2998TIP3    H230630   5.374   4.014   7.303 -1.3446  0.6655  0.6229
 2999TIP3   OH230631   0.313   0.040   0.752  0.1605  0.7123 -0.1647
 2999TIP3    H130632   0.232   0.091   0.762 -0.5544 -0.3106 -0.6477
 2999TIP3    H230633   0.332   0.044   0.658 -0.8195 -1.2418 -0.4928
 3000TIP3   OH230634   6.430   6.013   8.723 -0.7661 -0.1227  0.1365
 3000TIP3    H130635   6.465   6.100   8.743  2.9386 -1.5025  0.4486
 3000TIP3    H230636   6.362   6.000   8.789  0.4977  1.4937  1.9072
 3001TIP3   OH230637   3.026   2.230   8.716 -0.1333  0.3152 -0.4680
 3001TIP3    H130638   2.989   2.312   8.749  0.2648 -0.4462  2.0574
 3001TIP3    H230639   3.066   2.189   8.792 -1.3257 -2.8080 -1.3791
 3002TIP3   OH230640   3.185   6.304   8.709 -0.9362  0.0286  0.5404
 3002TIP3    H130641   3.236   6.309   8.790 -1.1257 -1.1963  0.7572
 3002TIP3    H230642   3.244   6.336   8.641 -0.3266 -0.1483  0.9801
 3003TIP3   OH230643   4.347   5.847   1.844 -0.0872  0.2329 -0.6962
 3003TIP3    H130644   4.253   5.842   1.858  0.2033  0.1896  1.5462
 3003TIP3    H230645   4.369   5.939   1.861  0.4854 -0.1106  0.5535
 3004TIP3   OH230646   2.748   2.464   8.032 -0.4660  0.0668 -0.7335
 3004TIP3    H130647   2.696   2.465   7.951 -0.6618 -0.4588 -0.6151
 3004TIP3    H230648   2.750   2.372   8.058 -0.2575  0.2130 -0.2312
 3005TIP3   OH230649   2.304   2.808   1.131 -0.0536  0.3184 -0.1285
 3005TIP3    H130650   2.244   2.733   1.131  0.5523 -0.1938 -1.0205
 3005TIP3    H230651   2.287   2.853   1.214  0.5076 -1.5902  1.1138
 3006TIP3   OH230652   3.682   1.960   6.862  0.2184  0.5792 -0.1087
 3006TIP3    H130653   3.640   2.010   6.932 -1.1835 -1.1406  0.3501
 3006TIP3    H230654   3.612   1.942   6.800  0.7770 -0.4562 -0.4548
 3007TIP3   OH230655   6.756   4.147   2.415 -0.7233  0.1622 -0.0720
 3007TIP3    H130656   6.739   4.180   2.326  0.4590 -0.4890 -0.5616
 3007TIP3    H230657   6.669   4.144   2.456 -1.2712  0.6346 -1.1486
 3008TIP3   OH230658   1.774   5.542   2.067 -0.7028 -0.1212 -0.5607
 3008TIP3    H130659   1.867   5.544   2.047 -0.8811  2.1299 -1.4386
 3008TIP3    H230660   1.768   5.491   2.148  1.1908 -0.8206 -0.8054
 3009TIP3   OH230661   2.007   5.541   1.642  0.2376  0.1747 -0.7676
 3009TIP3    H130662   2.037   5.624   1.678 -1.9360  1.0235 -0.7472
 3009TIP3    H230663   2.019   5.550   1.547  2.1847 -0.4610 -0.6182
 3010TIP3   OH230664   6.382   2.460   2.257 -0.3013 -0.3264 -0.0128
 3010TIP3    H130665   6.450   2.433   2.195  0.0332  0.0560  0.1778
 3010TIP3    H230666   6.366   2.552   2.235  0.3120  0.0161  0.9052
 3011TIP3   OH230667   5.321   0.911   1.816 -0.4527 -0.0712 -0.5250
 3011TIP3    H130668   5.385   0.895   1.884 -1.0493  1.2688  0.3951
 3011TIP3    H230669   5.373   0.931   1.738  0.2840  1.9947  0.4471
 3012TIP3   OH230670   4.697   6.667   7.562  0.2553 -0.0129  0.3069
 3012TIP3    H130671   4.603   6.661   7.578  0.5728 -0.2373  2.3909
 3012TIP3    H230672   4.724   6.577   7.542 -0.0087  0.1062 -0.6157
 3013TIP3   OH230673   2.611   3.380   7.458 -0.4715  0.0237  0.2433
 3013TIP3    H130674   2.606   3.453   7.396 -0.0046 -0.0366  0.1351
 3013TIP3    H230675   2.694   3.337   7.438 -1.0699 -0.9723 -0.1704
 3014TIP3   OH230676   5.086   5.817   7.819  0.1716 -0.4045 -0.3250
 3014TIP3    H130677   5.082   5.783   7.729  0.6246  2.1682 -1.4149
 3014TIP3    H230678   5.044   5.903   7.814 -1.9275 -1.1087  2.4991
 3015TIP3   OH230679   1.504   4.339   1.004 -0.3772  0.2235 -0.2176
 3015TIP3    H130680   1.504   4.390   0.923  0.6479 -0.7882 -0.8814
 3015TIP3    H230681   1.586   4.362   1.047 -0.2642 -0.2726 -0.1547
 3016TIP3   OH230682   2.749   6.445   7.249 -0.8099  0.4757  0.1093
 3016TIP3    H130683   2.726   6.514   7.312 -2.5988  1.7539 -1.8144
 3016TIP3    H230684   2.747   6.489   7.164 -1.1217 -1.7590 -1.1003
 3017TIP3   OH230685   3.703   2.067   8.707 -0.1199  0.7739  0.0369
 3017TIP3    H130686   3.762   2.136   8.678 -0.4847  0.8583 -0.5101
 3017TIP3    H230687   3.752   1.986   8.691  0.3112  0.8967  0.6883
 3018TIP3   OH230688   1.457   5.025   1.698  0.5885 -0.0561 -0.0211
 3018TIP3    H130689   1.404   5.083   1.644  1.3104  1.6186  0.9969
 3018TIP3    H230690   1.484   4.954   1.639 -2.3915 -0.7792 -0.6684
 3019TIP3   OH230691   4.262   4.295   6.249  0.3647  0.4123  0.2855
 3019TIP3    H130692   4.254   4.304   6.344 -0.1729  0.3606  0.2502
 3019TIP3    H230693   4.181   4.333   6.214  0.3386  0.0005 -0.1224
 3020TIP3   OH230694   2.692   0.213   8.478 -0.6491  0.5490  0.1547
 3020TIP3    H130695   2.658   0.198   8.390  0.6575 -1.1626 -0.0973
 3020TIP3    H230696   2.614   0.231   8.531 -1.6303 -0.2109 -0.9904
 3021TIP3   OH230697   0.647   5.242   1.342 -0.1064 -0.4178 -0.5661
 3021TIP3    H130698   0.686   5.295   1.273 -1.4534 -0.4940 -1.4264
 3021TIP3    H230699   0.628   5.158   1.301 -0.9989 -0.4377 -0.1549
 3022TIP3   OH230700   4.230   3.973   7.491  0.4377  0.1809  0.3345
 3022TIP3    H130701   4.218   4.047   7.431 -0.0710  0.5676  0.9001
 3022TIP3    H230702   4.191   4.002   7.573  0.0216 -0.8131  0.5015
 3023TIP3   OH230703   6.763   0.113   2.076 -0.1483 -0.7434 -0.0255
 3023TIP3    H130704   6.806   0.188   2.035 -2.2392  0.7423  0.2974
 3023TIP3    H230705   6.709   0.075   2.006 -0.3243 -0.9571  0.2248
 3024TIP3   OH230706   3.634   4.566   6.801  0.3731  0.0548  0.5572
 3024TIP3    H130707   3.581   4.635   6.841  2.4334  2.3204 -0.3535
 3024TIP3    H230708   3.718   4.608   6.782  1.3379 -2.3947 -1.1757
 3025TIP3   OH230709   5.893   4.617   8.343 -0.0786  0.0916 -0.0903
 3025TIP3    H130710   5.960   4.610   8.411  0.8178 -0.5357 -1.0119
 3025TIP3    H230711   5.939   4.652   8.267 -0.0397 -2.9424 -1.6462
 3026TIP3   OH230712   4.515   6.009   7.138  0.1913 -0.0243  0.1284
 3026TIP3    H130713   4.495   6.064   7.062  1.5098  0.7427  0.3046
 3026TIP3    H230714   4.486   5.921   7.113 -1.5512  0.6623 -0.3233
 3027TIP3   OH230715   3.211   5.095   1.655  0.7851  0.5463  0.1827
 3027TIP3    H130716   3.171   5.095   1.568 -0.1184  0.0432  0.5746
 3027TIP3    H230717   3.304   5.077   1.639  0.2232 -2.1592 -0.5529
 3028TIP3   OH230718   3.886   5.023   7.086 -0.6369 -0.1892  0.1436
 3028TIP3    H130719   3.941   4.965   7.139 -0.8054 -1.2165 -0.7488
 3028TIP3    H230720   3.909   5.000   6.996 -0.1889  1.6683 -0.2373
 3029TIP3   OH230721   2.547   0.460   0.121  0.4858  0.4412 -0.4645
 3029TIP3    H130722   2.606   0.395   0.159  0.1080  0.3737  0.0154
 3029TIP3    H230723   2.508   0.504   0.197 -1.3892 -0.6800 -0.6910
 3030TIP3   OH230724   2.790   1.415   0.563  0.5616  0.1526 -0.0697
 3030TIP3    H130725   2.784   1.460   0.478  1.9428  0.5096 -0.0011
 3030TIP3    H230726   2.867   1.358   0.555  1.8036  1.5142  1.5268
 3031TIP3   OH230727   3.013   0.488   8.686 -0.0331 -0.2150  1.0673
 3031TIP3    H130728   3.098   0.495   8.729 -0.7840 -1.5814  2.8687
 3031TIP3    H230729   3.023   0.415   8.625 -0.0435 -0.6730  1.6097
 3032TIP3   OH230730   5.882   3.199   6.866  0.1293  0.5038  0.3729
 3032TIP3    H130731   5.844   3.279   6.830  0.8719  0.9832  0.6199
 3032TIP3    H230732   5.816   3.131   6.851  0.4573  0.6338 -2.0559
 3033TIP3   OH230733   3.595   4.709   8.255  0.0118  0.6975 -0.1198
 3033TIP3    H130734   3.627   4.649   8.323 -1.6925 -0.5545 -0.3406
 3033TIP3    H230735   3.674   4.753   8.222  1.1895 -0.6154  0.8290
 3034TIP3   OH230736   5.549   6.377   2.194  0.0352 -0.2740  0.3238
 3034TIP3    H130737   5.587   6.396   2.108 -0.9839  1.1303  0.1396
 3034TIP3    H230738   5.456   6.363   2.176 -0.4767  1.5001  1.3260
 3035TIP3   OH230739   3.822   2.990   7.580 -0.4698  0.1455  0.3347
 3035TIP3    H130740   3.851   3.074   7.544  0.0932 -0.7581 -1.4314
 3035TIP3    H230741   3.897   2.957   7.628 -0.0692 -0.1509 -0.4814
 3036TIP3   OH230742   2.065   6.281   1.100 -1.2299 -0.0250  0.8936
 3036TIP3    H130743   2.073   6.200   1.049  3.2288  0.2844  0.6416
 3036TIP3    H230744   2.057   6.350   1.034  1.2611  0.1009  0.6078
 3037TIP3   OH230745   3.760   2.439   7.862  0.6110  0.0201 -0.9826
 3037TIP3    H130746   3.671   2.425   7.895 -0.5245  0.3778 -3.6073
 3037TIP3    H230747   3.779   2.359   7.813  1.6525  0.0466 -0.6271
 3038TIP3   OH230748   3.943   5.144   0.798 -0.0977  0.3630  0.0992
 3038TIP3    H130749   3.990   5.194   0.864  1.4832  0.7057 -1.2050
 3038TIP3    H230750   3.864   5.194   0.781  0.1096  0.9438  0.8053
 3039TIP3   OH230751   3.202   6.564   1.261 -0.2368 -0.2518  0.6937
 3039TIP3    H130752   3.240   6.607   1.338 -1.3033 -0.7674  1.5365
 3039TIP3    H230753   3.271   6.505   1.230  0.3109  0.1774  1.0666
 3040TIP3   OH230754   3.866   6.398   8.056 -0.0320  0.0109 -0.8333
 3040TIP3    H130755   3.806   6.472   8.064 -0.7636 -0.6742  0.2169
 3040TIP3    H230756   3.942   6.434   8.009 -0.3395  1.4302 -0.2943
 3041TIP3   OH230757   5.183   4.474   2.842 -0.3023 -0.1113  0.4514
 3041TIP3    H130758   5.133   4.505   2.766  0.6576  0.4204  0.0332
 3041TIP3    H230759   5.164   4.380   2.846 -2.3979  0.2829  1.1058
 3042TIP3   OH230760   5.015   6.478   6.513 -0.3656 -0.6759 -0.1358
 3042TIP3    H130761   5.048   6.454   6.599 -0.1761 -0.9602 -0.2865
 3042TIP3    H230762   4.946   6.542   6.531  2.4382  2.5966  0.0655
 3043TIP3   OH230763   4.552   1.019   7.327 -0.4555 -0.2668  0.2321
 3043TIP3    H130764   4.526   1.007   7.235  1.7354 -1.9370 -0.2785
 3043TIP3    H230765   4.472   1.045   7.372 -1.6470  0.4070 -2.1102
 3044TIP3   OH230766   6.724   5.959   8.717  0.7611 -0.0344 -0.1687
 3044TIP3    H130767   6.632   5.984   8.708  0.5930 -0.6895 -0.3219
 3044TIP3    H230768   6.726   5.904   8.795  0.9200 -0.5014 -0.5000
 3045TIP3   OH230769   1.254   0.968   6.548 -0.3131  0.5789  0.3060
 3045TIP3    H130770   1.296   0.994   6.466  0.0168 -1.5872 -0.2723
 3045TIP3    H230771   1.321   0.984   6.615  0.2814  0.1552 -0.1779
 3046TIP3   OH230772   4.757   0.995   0.902  0.2774 -0.3034  0.2875
 3046TIP3    H130773   4.783   0.993   0.994  0.6062 -0.2902  0.1942
 3046TIP3    H230774   4.685   0.932   0.896  1.1317 -1.2904  0.2843
 3047TIP3   OH230775   2.904   2.178   0.511 -0.2824  0.3128  0.2942
 3047TIP3    H130776   2.946   2.196   0.595 -0.7562 -0.1148  0.6327
 3047TIP3    H230777   2.822   2.133   0.534 -1.1641  1.5221 -0.3200
 3048TIP3   OH230778   5.834   1.448   1.845  0.0777  0.3482  0.3101
 3048TIP3    H130779   5.889   1.414   1.915  0.0537  1.3872  0.8407
 3048TIP3    H230780   5.764   1.496   1.889 -0.2502  0.5524 -0.4082
 3049TIP3   OH230781   2.133   6.727   7.667 -0.1713  0.1203 -0.4125
 3049TIP3    H130782   2.114   6.722   7.761 -0.3917  0.9796 -0.4094
 3049TIP3    H230783   2.053   6.763   7.629 -0.2653 -0.6768 -1.0042
 3050TIP3   OH230784   3.506   4.920   1.982 -0.2353  0.0959 -0.6901
 3050TIP3    H130785   3.580   4.978   2.000 -0.0967 -0.1870 -0.3493
 3050TIP3    H230786   3.530   4.837   2.023 -0.0123 -0.5029 -2.0002
 3051TIP3   OH230787   5.190   2.944   1.855  0.3941 -0.4973 -0.0737
 3051TIP3    H130788   5.144   2.876   1.904  0.5442 -2.6026 -2.6317
 3051TIP3    H230789   5.135   2.959   1.778  1.8953  0.0349 -1.0892
 3052TIP3   OH230790   4.819   2.915   7.790 -0.1309 -0.0749  0.7595
 3052TIP3    H130791   4.736   2.960   7.772  0.3616  0.7719  0.5684
 3052TIP3    H230792   4.796   2.822   7.789 -0.5298 -0.0777 -2.5497
 3053TIP3   OH230793   3.794   1.149   0.454 -0.0199  0.2943 -0.0256
 3053TIP3    H130794   3.738   1.072   0.457 -0.5273  0.6350 -0.5851
 3053TIP3    H230795   3.815   1.167   0.546 -0.9052  0.2183  0.1962
 3054TIP3   OH230796   5.534   5.330   6.829 -0.3919  0.1712 -0.0094
 3054TIP3    H130797   5.540   5.374   6.744  0.2028  1.5506  0.7304
 3054TIP3    H230798   5.622   5.336   6.866  0.1367 -2.9068 -0.4468
 3055TIP3   OH230799   6.782   0.937   0.032  0.2793  0.3050 -0.0699
 3055TIP3    H130800   6.713   0.873   0.047  2.0495 -1.8503 -0.4167
 3055TIP3    H230801   6.846   0.889  -0.022  1.7554  2.3693 -0.2567
 3056TIP3   OH230802   1.366   3.135   2.358  0.1512 -0.4738 -0.0834
 3056TIP3    H130803   1.365   3.194   2.282  0.5833 -2.0891 -1.3955
 3056TIP3    H230804   1.435   3.072   2.339  1.1393 -0.2046  2.2704
 3057TIP3   OH230805   3.850   1.906   2.200  0.1874 -0.4184 -0.2589
 3057TIP3    H130806   3.855   1.870   2.288 -0.0147 -0.8694 -0.4304
 3057TIP3    H230807   3.938   1.941   2.183 -0.2743  1.4691  0.8666
 3058TIP3   OH230808   3.289   4.441   8.425 -0.0512  0.2945 -0.1175
 3058TIP3    H130809   3.214   4.448   8.367 -0.7233 -1.5818  0.4316
 3058TIP3    H230810   3.286   4.351   8.457 -0.9709  1.6800  4.4594
 3059TIP3   OH230811   3.644   3.827   0.648  0.0754  0.1993 -0.3595
 3059TIP3    H130812   3.699   3.766   0.598  1.8644  1.8198 -0.4877
 3059TIP3    H230813   3.646   3.908   0.597  0.2759  1.2743  1.2842
 3060TIP3   OH230814   0.648   0.860   7.886  0.7593  0.2135  0.8820
 3060TIP3    H130815   0.574   0.873   7.825  1.8814 -0.5948 -0.7311
 3060TIP3    H230816   0.661   0.765   7.888  2.2444  0.3845  0.4969
 3061TIP3   OH230817   0.042   5.476   6.632 -0.1065  0.0647  0.2171
 3061TIP3    H130818   0.099   5.406   6.600 -0.8251 -0.5162  0.1961
 3061TIP3    H230819   0.078   5.556   6.593  0.5294 -0.3293 -0.0119
 3062TIP3   OH230820   2.047   0.105   0.295 -0.4967  0.2168 -0.5158
 3062TIP3    H130821   2.011   0.064   0.216 -1.2062 -0.7598  0.2830
 3062TIP3    H230822   2.120   0.157   0.264 -0.5596 -0.4093 -1.7810
 3063TIP3   OH230823   6.268   6.817   7.209  0.0412  0.0838 -0.7203
 3063TIP3    H130824   6.228   6.730   7.218  1.7341 -0.6237  0.7670
 3063TIP3    H230825   6.264   6.855   7.296 -0.5953  1.4990 -1.3350
 3064TIP3   OH230826   5.580   2.951   8.104  0.2915 -0.7235  0.6395
 3064TIP3    H130827   5.494   2.976   8.137  0.8008  1.9275  0.2262
 3064TIP3    H230828   5.629   2.925   8.182 -0.4408 -0.8702  1.0615
 3065TIP3   OH230829   1.092   3.701   0.195 -0.2802 -0.6354 -0.5372
 3065TIP3    H130830   1.018   3.738   0.244 -0.3766 -1.8836  0.2975
 3065TIP3    H230831   1.134   3.777   0.155 -1.3909  0.2093 -0.1616
 3066TIP3   OH230832   5.397   3.084   1.142  0.4386  0.0490  0.5805
 3066TIP3    H130833   5.447   3.114   1.218  2.0408  0.7714 -0.6964
 3066TIP3    H230834   5.461   3.079   1.071 -0.9033 -1.1001 -0.6206
 3067TIP3   OH230835   1.388   3.250   0.758 -0.0639  0.9656 -0.0089
 3067TIP3    H130836   1.343   3.190   0.818  1.6515 -0.4922 -0.1095
 3067TIP3    H230837   1.373   3.337   0.797 -1.9587  0.4347  0.5588
 3068TIP3   OH230838   5.489   2.524   0.920  0.1149  0.2664 -0.5997
 3068TIP3    H130839   5.479   2.431   0.900  0.7460  0.1423 -0.3763
 3068TIP3    H230840   5.582   2.542   0.906  0.2804  0.5404  0.6670
 3069TIP3   OH230841   0.274   5.778   6.946  0.1470 -0.0784  0.2085
 3069TIP3    H130842   0.267   5.793   6.852  0.3812 -4.1278 -0.6076
 3069TIP3    H230843   0.366   5.795   6.966  0.1139  0.7216 -0.2606
 3070TIP3   OH230844   5.803   2.352   7.285  0.1956  0.1489 -0.5309
 3070TIP3    H130845   5.820   2.365   7.192 -0.8859  0.4124 -0.7123
 3070TIP3    H230846   5.708   2.345   7.291  0.0823  2.0246  0.7650
 3071TIP3   OH230847   3.932   5.831   7.293 -0.7939  0.5187 -0.4802
 3071TIP3    H130848   4.003   5.813   7.355  0.7353 -1.9795 -2.7536
 3071TIP3    H230849   3.872   5.757   7.302  0.3931 -0.8865 -3.0817
 3072TIP3   OH230850   0.554   1.308   8.105 -0.2624  0.0006  0.4271
 3072TIP3    H130851   0.618   1.237   8.102 -0.6564 -0.4091 -3.1423
 3072TIP3    H230852   0.491   1.281   8.172  1.3678 -1.3583  1.4635
 3073TIP3   OH230853   3.153   1.745   8.462  0.0838  0.2628 -0.7689
 3073TIP3    H130854   3.128   1.834   8.487  2.2873  0.9363 -0.7914
 3073TIP3    H230855   3.166   1.749   8.367 -3.7857 -1.1732 -1.5459
 3074TIP3   OH230856   6.202   0.006   7.709  0.0739 -0.1977 -0.4324
 3074TIP3    H130857   6.166   0.033   7.624  0.2401  1.5067 -0.0058
 3074TIP3    H230858   6.291   0.041   7.708  1.0533 -2.5245 -0.6160
 3075TIP3   OH230859   3.623   5.714   1.961 -0.3470  0.3446 -0.2282
 3075TIP3    H130860   3.608   5.674   1.875 -0.8248  0.5589 -0.2467
 3075TIP3    H230861   3.717   5.732   1.962  0.0357 -1.4584  0.0748
 3076TIP3   OH230862   2.412   6.246   1.756 -0.7030 -0.0996 -0.2558
 3076TIP3    H130863   2.493   6.256   1.806  0.0342  1.4099 -1.6360
 3076TIP3    H230864   2.441   6.206   1.673 -0.9418  2.4553 -1.6557
 3077TIP3   OH230865   6.039   1.503   6.857  0.2780 -0.1351  0.0026
 3077TIP3    H130866   6.108   1.488   6.792  0.9903  0.2258  0.6637
 3077TIP3    H230867   6.020   1.597   6.851  1.3665  0.1862  1.3007
 3078TIP3   OH230868   3.036   1.802   1.878  0.3803  0.1134 -0.5836
 3078TIP3    H130869   2.981   1.874   1.910  1.0087  0.4006 -0.1259
 3078TIP3    H230870   2.991   1.770   1.800  0.1578  1.0802 -0.8599
 3079TIP3   OH230871   1.729   4.187   1.222  0.2879 -0.2415 -0.3156
 3079TIP3    H130872   1.764   4.265   1.179  1.2183 -1.8509 -2.7188
 3079TIP3    H230873   1.728   4.120   1.153 -0.4363 -2.3846  1.6343
 3080TIP3   OH230874   5.194   2.873   8.048 -0.1050  0.2020  0.0389
 3080TIP3    H130875   5.121   2.822   8.083 -0.4014 -0.3909 -1.3884
 3080TIP3    H230876   5.241   2.812   7.991  3.3114 -0.3775  3.1171
 3081TIP3   OH230877   3.240   1.346   8.223 -0.1121  0.3865 -0.2264
 3081TIP3    H130878   3.284   1.376   8.302 -0.3564  1.5853 -0.5146
 3081TIP3    H230879   3.231   1.425   8.169 -0.0592 -0.3813 -1.3985
 3082TIP3   OH230880   4.454   2.256   8.298 -0.1810  0.3443  0.1392
 3082TIP3    H130881   4.393   2.192   8.261  0.6763 -0.1155 -0.5147
 3082TIP3    H230882   4.472   2.316   8.225  1.6166 -0.6412 -0.2771
 3083TIP3   OH230883   3.313   6.286   7.960  0.3230  0.2651 -0.2992
 3083TIP3    H130884   3.273   6.371   7.982 -1.6408 -1.4428  3.7056
 3083TIP3    H230885   3.250   6.246   7.900 -1.5119 -0.2342  1.7876
 3084TIP3   OH230886   2.760   6.726   1.285 -0.1996 -1.2112 -0.0145
 3084TIP3    H130887   2.786   6.709   1.376  0.7751  1.3907  0.2800
 3084TIP3    H230888   2.842   6.738   1.238 -0.6993  0.2074 -0.5951
 3085TIP3   OH230889   3.143   3.548   8.503 -0.0918  0.3158 -0.3200
 3085TIP3    H130890   3.074   3.511   8.557  0.3462 -2.7156 -1.6164
 3085TIP3    H230891   3.111   3.635   8.479 -2.5960 -0.2841  0.5907
 3086TIP3   OH230892   5.978   0.747   8.250  0.1202  0.2137  0.1958
 3086TIP3    H130893   5.919   0.689   8.296 -0.4027  1.3407  0.9900
 3086TIP3    H230894   6.037   0.780   8.317  1.3523 -0.5053 -0.5013
 3087TIP3   OH230895   1.888   2.378   8.275 -0.1547  0.5353  0.0432
 3087TIP3    H130896   1.820   2.336   8.223 -0.7200  1.0176  0.3654
 3087TIP3    H230897   1.892   2.467   8.241  0.2412  0.5377  0.0967
 3088TIP3   OH230898   0.248   2.959   7.832 -0.2343  0.2640  0.0524
 3088TIP3    H130899   0.160   2.937   7.863 -0.3933  0.1159 -0.4921
 3088TIP3    H230900   0.290   3.002   7.907 -1.6634  2.8070 -0.4956
 3089TIP3   OH230901   6.637   2.149   8.315 -0.3413 -0.3488  0.2937
 3089TIP3    H130902   6.700   2.221   8.312  0.1808 -0.8002  0.1754
 3089TIP3    H230903   6.552   2.192   8.317 -0.0214  0.2882  0.9568
 3090TIP3   OH230904   3.042   6.425   7.394  0.3780  0.0052  0.1481
 3090TIP3    H130905   2.961   6.391   7.433  0.0082  1.5668  0.8054
 3090TIP3    H230906   3.019   6.443   7.303 -0.1149  0.6801  0.3933
 3091TIP3   OH230907   0.581   0.370   0.495  0.3217  0.4688 -0.2588
 3091TIP3    H130908   0.624   0.384   0.410  0.0277  0.5897 -0.3857
 3091TIP3    H230909   0.488   0.386   0.478  0.1811 -0.1194 -0.0593
 3092TIP3   OH230910   2.660   0.143   0.102 -0.8299 -0.0385 -0.3376
 3092TIP3    H130911   2.608   0.145   0.021  1.0598  0.0440 -1.6205
 3092TIP3    H230912   2.700   0.056   0.102  1.5471  0.9926 -1.1267
 3093TIP3   OH230913   6.636   2.461   6.961  0.3221  0.5062 -0.1237
 3093TIP3    H130914   6.593   2.519   6.898 -1.0321 -1.3565 -1.0161
 3093TIP3    H230915   6.678   2.394   6.907  0.2158 -0.4223  0.9015
 3094TIP3   OH230916   6.699   4.131   7.054 -0.2159  0.4054 -0.0326
 3094TIP3    H130917   6.633   4.088   7.107 -2.1770  1.1912 -1.7133
 3094TIP3    H230918   6.771   4.067   7.049 -0.3122 -0.0390  2.6930
 3095TIP3   OH230919   2.675   4.974   1.040 -0.7726  0.6513  0.4205
 3095TIP3    H130920   2.724   5.002   0.963  0.0914 -1.1075  0.2625
 3095TIP3    H230921   2.596   5.028   1.040 -1.1931  0.1631 -2.1491
 3096TIP3   OH230922   1.010   2.456   7.937 -0.1280  0.5787  0.2186
 3096TIP3    H130923   1.025   2.548   7.919 -0.9825  1.1546  2.1858
 3096TIP3    H230924   1.071   2.436   8.009  0.9052 -0.7290 -0.9701
 3097TIP3   OH230925   4.589   0.141   2.681  0.3751  0.2922 -0.1270
 3097TIP3    H130926   4.496   0.120   2.690  0.6142 -0.2136  1.6238
 3097TIP3    H230927   4.627   0.064   2.637  0.3101 -0.5360  1.2051
 3098TIP3   OH230928   4.282   6.549   0.185 -0.2190 -0.3844  0.4052
 3098TIP3    H130929   4.210   6.524   0.127 -2.1338 -0.2936  2.5842
 3098TIP3    H230930   4.360   6.545   0.129 -1.5669 -2.6102 -1.5348
 3099TIP3   OH230931   5.350   3.045   8.245  0.5644  0.2620  0.6474
 3099TIP3    H130932   5.286   3.099   8.291  0.0068 -0.4635  0.7337
 3099TIP3    H230933   5.299   2.999   8.178  0.8204 -0.9779  1.2681
 3100TIP3   OH230934   2.367   3.019   8.761  0.5008  0.2588  0.4131
 3100TIP3    H130935   2.333   2.969   8.835 -0.6616  1.2949  0.6228
 3100TIP3    H230936   2.425   3.084   8.801  0.5398  0.2679  0.3405
 3101TIP3   OH230937   0.017   5.248   0.801 -0.4275 -0.3157  0.4316
 3101TIP3    H130938   0.110   5.237   0.820 -0.3268 -0.4403 -0.0926
 3101TIP3    H230939   0.014   5.317   0.734 -0.7125 -0.2797  0.4796
 3102TIP3   OH230940   3.637   2.232   1.985 -0.6724  0.4024 -0.1150
 3102TIP3    H130941   3.704   2.292   1.951  0.1196  0.0813  0.8404
 3102TIP3    H230942   3.615   2.267   2.071 -1.2794  0.1372 -0.1580
 3103TIP3   OH230943   2.417   5.413   0.698  0.4012  1.0419 -0.4441
 3103TIP3    H130944   2.475   5.466   0.642 -0.3660  0.7664 -1.5265
 3103TIP3    H230945   2.373   5.353   0.637  0.3345 -0.0016  0.6083
 3104TIP3   OH230946   6.666   4.272   2.166 -0.0580 -0.4296 -0.1196
 3104TIP3    H130947   6.737   4.230   2.117  0.5019 -3.2025  2.7657
 3104TIP3    H230948   6.621   4.325   2.101  2.0032 -2.0070 -3.0762
 3105TIP3   OH230949   0.584   5.996   7.193  0.7475  0.2189  1.0135
 3105TIP3    H130950   0.631   5.966   7.115 -2.9469 -1.4218 -0.8175
 3105TIP3    H230951   0.559   6.086   7.172 -3.0256 -1.1695 -1.4438
 3106TIP3   OH230952   3.124   0.032   6.741 -0.2142  0.1603 -0.5032
 3106TIP3    H130953   3.107  -0.049   6.693  0.8899 -1.0889  1.1042
 3106TIP3    H230954   3.168   0.088   6.677  0.5860 -1.1855 -1.1873
 3107TIP3   OH230955   2.732   3.060   1.485 -0.4784  0.1154  0.1183
 3107TIP3    H130956   2.711   3.153   1.501  0.8081  0.3623  0.5463
 3107TIP3    H230957   2.815   3.062   1.438 -0.1883 -0.8306  0.5626
 3108TIP3   OH230958   1.040   2.110   7.311 -0.2932  0.1577 -0.0713
 3108TIP3    H130959   1.126   2.114   7.351  0.2052 -0.7248 -1.0256
 3108TIP3    H230960   1.053   2.064   7.228 -2.0510 -2.0232  0.7631
 3109TIP3   OH230961   4.586   3.918   0.375  0.8008  0.4648 -0.7262
 3109TIP3    H130962   4.609   3.862   0.301 -1.4149 -0.2871 -0.9239
 3109TIP3    H230963   4.527   3.983   0.338 -0.7373 -0.2204  0.4119
 3110TIP3   OH230964   1.372   2.931   8.393  0.3317 -0.2941  0.0521
 3110TIP3    H130965   1.313   2.928   8.317  0.1098  0.4251  0.1851
 3110TIP3    H230966   1.399   2.841   8.406 -1.3833 -0.7863  0.4863
 3111TIP3   OH230967   6.333   1.669   2.031  0.6862 -0.0357  0.8510
 3111TIP3    H130968   6.395   1.723   1.980  0.2659 -0.5519 -0.2439
 3111TIP3    H230969   6.338   1.583   1.990 -1.0016 -0.0025  0.5015
 3112TIP3   OH230970   1.467   0.500   7.993  0.7044  0.2224  0.3323
 3112TIP3    H130971   1.518   0.444   8.052  0.2710 -0.9726 -0.3750
 3112TIP3    H230972   1.397   0.536   8.047  0.0738 -1.1766  0.5072
 3113TIP3   OH230973   3.929   0.495   6.636  0.2600  0.4758  0.1208
 3113TIP3    H130974   3.866   0.446   6.689  0.2755  1.1830  0.8213
 3113TIP3    H230975   3.893   0.583   6.631  0.8203  0.6986 -0.1116
 3114TIP3   OH230976   3.270   1.160   1.158  0.1271 -0.5136  0.0031
 3114TIP3    H130977   3.332   1.096   1.194 -0.1648 -0.7445  0.0988
 3114TIP3    H230978   3.246   1.123   1.073 -0.5651 -0.8775  0.3505
 3115TIP3   OH230979   4.368   1.889   6.787  0.1789 -0.8215  0.4522
 3115TIP3    H130980   4.459   1.907   6.761  0.0463  1.2152  1.2405
 3115TIP3    H230981   4.317   1.907   6.708  0.2231  0.6936  0.7529
 3116TIP3   OH230982   6.629   2.213   1.525 -0.0123 -0.0366 -0.3473
 3116TIP3    H130983   6.599   2.174   1.607  2.3762 -1.3799 -0.0265
 3116TIP3    H230984   6.622   2.142   1.461 -2.3360  1.1353 -1.5175
 3117TIP3   OH230985   2.641   2.860   0.615  0.3957  0.6531  0.0747
 3117TIP3    H130986   2.600   2.886   0.532 -2.3024 -1.0635  0.7269
 3117TIP3    H230987   2.663   2.943   0.658 -0.9413  1.6649 -1.0849
 3118TIP3   OH230988   5.591   4.860   8.547  0.0454 -0.5118 -0.2303
 3118TIP3    H130989   5.522   4.870   8.613  0.8445 -1.4625  0.7691
 3118TIP3    H230990   5.629   4.948   8.538 -0.3396 -0.2905  0.2675
 3119TIP3   OH230991   3.209   1.909   7.873  0.5403  0.1416 -0.2363
 3119TIP3    H130992   3.288   1.958   7.897  1.0687 -1.0478  0.5281
 3119TIP3    H230993   3.239   1.842   7.812  0.0384 -0.0112 -0.3192
 3120TIP3   OH230994   6.141   2.470   6.971 -0.4273 -0.1826 -0.0526
 3120TIP3    H130995   6.222   2.479   7.021 -0.4884  0.1535 -0.0122
 3120TIP3    H230996   6.126   2.376   6.966 -0.3033 -0.2276  0.3735
 3121TIP3   OH230997   6.510   2.683   7.412 -0.0903  0.5650 -0.2216
 3121TIP3    H130998   6.474   2.630   7.483  1.9211 -1.5787 -0.6622
 3121TIP3    H230999   6.437   2.694   7.351 -0.8111 -1.0968  0.2746
 3122TIP3   OH231000   4.346   5.011   2.021 -0.0021 -0.5386 -0.1864
 3122TIP3    H131001   4.439   5.027   2.036  0.7079 -2.3038 -2.2514
 3122TIP3    H231002   4.324   4.942   2.083 -0.4545  1.0356  1.5100
 3123TIP3   OH231003   6.745   2.995   2.155  0.2968 -0.1827  0.5197
 3123TIP3    H131004   6.661   3.040   2.146  0.3775 -0.1726 -0.2637
 3123TIP3    H231005   6.809   3.065   2.170  0.2133 -0.1656  0.8041
 3124TIP3   OH231006   4.405   1.094   1.956  0.3155  0.4578 -0.1358
 3124TIP3    H131007   4.496   1.089   1.929  0.3653 -0.2219  0.1477
 3124TIP3    H231008   4.355   1.074   1.877  0.4473 -0.6922  0.0519
 3125TIP3   OH231009   5.252   1.375   0.722  0.2016  0.6367 -0.5693
 3125TIP3    H131010   5.249   1.469   0.704  0.3238  0.9055  0.7123
 3125TIP3    H231011   5.209   1.366   0.807 -1.0305 -0.6447 -1.2835
 3126TIP3   OH231012   1.191   5.246   2.831 -0.6224 -0.1584 -0.1722
 3126TIP3    H131013   1.170   5.328   2.786 -0.7759 -0.7403 -1.1892
 3126TIP3    H231014   1.107   5.206   2.850 -0.5298 -0.6087 -0.6885
 3127TIP3   OH231015   4.704   2.687   7.863  0.3289 -0.3919  0.0345
 3127TIP3    H131016   4.743   2.623   7.922 -0.1888  1.1542  2.2246
 3127TIP3    H231017   4.613   2.658   7.853  0.2809 -0.3913  0.4491
 3128TIP3   OH231018   0.738   4.752   8.671  0.3369  0.6182 -0.6766
 3128TIP3    H131019   0.792   4.751   8.592  1.5020 -0.7893  0.0823
 3128TIP3    H231020   0.801   4.757   8.743 -0.4358 -1.6847  0.2638
 3129TIP3   OH231021   1.710   4.067   8.006 -0.1534  0.4300 -0.2398
 3129TIP3    H131022   1.714   4.101   8.096  0.1540  1.1670 -0.5221
 3129TIP3    H231023   1.730   3.974   8.015 -0.0745  0.5045  0.4548
 3130TIP3   OH231024   6.795   5.680   0.374  0.0140  0.5303  0.3735
 3130TIP3    H131025   6.788   5.585   0.371 -0.4078  0.5581  0.4094
 3130TIP3    H231026   6.859   5.698   0.443 -0.0903  0.2819  0.5340
 3131TIP3   OH231027   4.744   3.190   0.005 -0.5642  0.0833  0.2617
 3131TIP3    H131028   4.712   3.253  -0.060 -1.3899 -0.0979  0.4807
 3131TIP3    H231029   4.724   3.231   0.089  0.6466  0.3920  0.4209
 3132TIP3   OH231030   5.343   0.448   7.044 -0.4450  0.1072 -0.1458
 3132TIP3    H131031   5.419   0.427   6.990  0.1140 -2.0801  1.3319
 3132TIP3    H231032   5.380   0.475   7.128 -1.2796 -0.1005  0.3011
 3133TIP3   OH231033   5.853   4.664   1.624 -0.2203 -0.2477  0.5169
 3133TIP3    H131034   5.787   4.599   1.600  0.4588 -0.1510 -1.7929
 3133TIP3    H231035   5.933   4.613   1.637  0.0198 -0.0058 -0.0121
 3134TIP3   OH231036   0.154   5.010   1.021  0.0663  0.2366  0.1813
 3134TIP3    H131037   0.164   5.007   1.116 -0.0750 -1.6269  0.1649
 3134TIP3    H231038   0.226   5.066   0.991 -1.2047  2.7338  1.5103
 3135TIP3   OH231039   4.045   5.144   7.737  0.2830  0.1756  0.1510
 3135TIP3    H131040   3.991   5.163   7.813  0.4640 -1.8023  0.8257
 3135TIP3    H231041   3.984   5.140   7.664  0.0005  1.3106  0.3213
 3136TIP3   OH231042   2.695   6.680   8.169 -0.0710  0.7692  0.0070
 3136TIP3    H131043   2.700   6.591   8.134 -1.8542  0.2300  1.0147
 3136TIP3    H231044   2.756   6.679   8.244 -0.0023  0.4364 -0.0506
 3137TIP3   OH231045   0.172   4.038   0.518 -0.1845  0.3223 -0.0640
 3137TIP3    H131046   0.235   4.072   0.455 -1.1175  1.6276 -0.3373
 3137TIP3    H231047   0.154   4.112   0.576 -1.3133 -0.0848  0.1295
 3138TIP3   OH231048   0.213   4.396   1.469 -0.6078 -0.3965 -0.4497
 3138TIP3    H131049   0.209   4.466   1.534  1.4861  0.5143 -1.2140
 3138TIP3    H231050   0.137   4.412   1.412 -1.2199  0.0901  0.4731
 3139TIP3   OH231051   2.368   5.954   6.548 -0.6820 -0.1724 -0.5626
 3139TIP3    H131052   2.341   6.022   6.610 -1.2279  0.1463 -1.1465
 3139TIP3    H231053   2.354   5.993   6.462  1.3221 -0.1148 -0.9092
 3140TIP3   OH231054   1.314   5.925   2.705  0.4262 -0.3141 -0.0171
 3140TIP3    H131055   1.378   5.980   2.660  0.4500 -0.6993 -0.4618
 3140TIP3    H231056   1.267   5.985   2.763 -0.6490  0.4974 -1.6618
 3141TIP3   OH231057   1.477   3.801   1.797  0.1687  0.0990 -0.2010
 3141TIP3    H131058   1.441   3.713   1.780  0.7298  0.3290 -2.9780
 3141TIP3    H231059   1.569   3.794   1.773  0.8951  0.8393  2.0817
 3142TIP3   OH231060   0.185   5.191   0.266 -0.1609 -0.3616  0.9900
 3142TIP3    H131061   0.178   5.286   0.266 -0.8745 -0.2808 -2.4388
 3142TIP3    H231062   0.098   5.161   0.294 -0.6037  0.0631  0.1184
 3143TIP3   OH231063   2.420   2.328   0.587 -0.0991  0.0191 -0.2361
 3143TIP3    H131064   2.487   2.387   0.622 -1.4209  0.2066  2.2144
 3143TIP3    H231065   2.418   2.255   0.649  1.0282 -2.3951 -2.8229
 3144TIP3   OH231066   4.947   1.424   7.600 -0.2461 -0.8738  0.1149
 3144TIP3    H131067   5.027   1.437   7.651 -1.5547  1.8788  1.6693
 3144TIP3    H231068   4.939   1.505   7.548 -2.8484 -0.2746  1.3062
 3145TIP3   OH231069   5.896   6.027   8.374  0.1638 -0.2863  0.3449
 3145TIP3    H131070   5.945   6.108   8.382 -0.7153  0.1935  1.0957
 3145TIP3    H231071   5.861   6.029   8.285  0.5590 -0.0822  0.1947
 3146TIP3   OH231072   5.878   4.231   0.062  0.0607  0.1193 -0.7528
 3146TIP3    H131073   5.878   4.266  -0.027 -0.2765  1.4996 -0.2385
 3146TIP3    H231074   5.971   4.224   0.084  0.1703 -1.1515 -1.5394
 3147TIP3   OH231075   5.002   3.258   1.115 -0.0871 -0.0955  0.1406
 3147TIP3    H131076   4.983   3.168   1.141 -1.9275  0.6770  1.7136
 3147TIP3    H231077   4.959   3.312   1.181  0.5365  1.9621 -1.0291
 3148TIP3   OH231078   2.418   0.104   1.773 -0.4814 -0.1235 -0.2660
 3148TIP3    H131079   2.385   0.121   1.862 -0.6099  0.6830 -0.4563
 3148TIP3    H231080   2.510   0.083   1.786 -0.5622 -0.2836  0.0820
 3149TIP3   OH231081   6.753   2.772   1.725 -0.2900 -0.2055 -0.2153
 3149TIP3    H131082   6.801   2.778   1.643 -0.2677 -0.1939 -0.2014
 3149TIP3    H231083   6.809   2.815   1.789 -0.7723  0.7132 -0.3932
 3150TIP3   OH231084   2.472   2.195   1.443  0.4369 -0.3374 -0.0126
 3150TIP3    H131085   2.395   2.179   1.498  0.7960 -3.4315 -0.2250
 3150TIP3    H231086   2.436   2.213   1.357 -0.0672  2.2521  0.6548
 3151TIP3   OH231087   1.999   3.353   1.040 -0.2891 -0.5282  0.3868
 3151TIP3    H131088   2.080   3.304   1.025  0.2977 -0.0132  1.7303
 3151TIP3    H231089   1.966   3.321   1.124 -0.3480  0.7603  0.8799
 3152TIP3   OH231090   2.169   5.434   7.755 -0.1021 -0.0465 -0.8406
 3152TIP3    H131091   2.146   5.526   7.766  0.5605  0.0221  0.0457
 3152TIP3    H231092   2.088   5.393   7.725 -0.4940  0.7611 -0.9149
 3153TIP3   OH231093   5.417   3.122   8.639  0.1183 -0.3998 -0.4173
 3153TIP3    H131094   5.328   3.108   8.609 -0.3138 -0.2512  0.7533
 3153TIP3    H231095   5.414   3.107   8.733  1.4494 -0.9529 -0.4348
 3154TIP3   OH231096   2.746   6.204   1.389  0.3861 -0.4055  0.1251
 3154TIP3    H131097   2.831   6.236   1.358  0.2128 -0.2624 -0.1954
 3154TIP3    H231098   2.703   6.169   1.311  0.4062 -1.0515  0.3972
 3155TIP3   OH231099   3.012   3.063   1.366  0.0147  0.5553  0.3011
 3155TIP3    H131100   3.052   3.031   1.447  0.3652  0.9063  0.2666
 3155TIP3    H231101   3.005   3.157   1.377  0.4451  0.6585 -0.2388
 3156TIP3   OH231102   0.077   0.385   6.762  0.1654 -0.0509 -0.1909
 3156TIP3    H131103   0.002   0.373   6.703 -0.0070 -1.5303  0.2956
 3156TIP3    H231104   0.118   0.299   6.767  0.3458  0.0987  1.6064
 3157TIP3   OH231105   6.592   4.016   6.808 -0.2473  0.2719 -0.1443
 3157TIP3    H131106   6.607   4.079   6.878 -1.4528  1.5740 -0.9991
 3157TIP3    H231107   6.524   3.957   6.842  1.9380 -1.5921  1.2357
 3158TIP3   OH231108   1.332   0.139   1.361  0.3952  0.3003  0.2377
 3158TIP3    H131109   1.258   0.082   1.381  0.5815  0.6363  2.0008
 3158TIP3    H231110   1.294   0.212   1.313 -0.1736 -0.2486 -0.1577
 3159TIP3   OH231111   5.131   1.807   1.248  0.0696  0.0340  0.0815
 3159TIP3    H131112   5.216   1.824   1.287  0.3937 -1.3386  0.0411
 3159TIP3    H231113   5.144   1.818   1.154  0.4100 -0.8570  0.0099
 3160TIP3   OH231114   6.160   1.175   7.425 -0.1704  0.0676  0.1373
 3160TIP3    H131115   6.149   1.239   7.355 -1.6499 -0.1310  0.1563
 3160TIP3    H231116   6.209   1.104   7.385 -0.1644  0.3788 -0.4231
 3161TIP3   OH231117   5.333   5.828   0.505 -0.2436 -0.0408 -0.5268
 3161TIP3    H131118   5.394   5.779   0.450  1.9200 -0.4323  2.0330
 3161TIP3    H231119   5.320   5.773   0.582 -1.3542  1.4463  0.4112
 3162TIP3   OH231120   6.367   0.335   0.987  0.0650  0.0352 -1.1541
 3162TIP3    H131121   6.360   0.347   0.893  1.5085 -0.4507 -1.3358
 3162TIP3    H231122   6.396   0.421   1.020 -1.3614  0.4937 -1.0085
 3163TIP3   OH231123   1.550   4.684   7.967 -0.5909 -0.4013 -0.1277
 3163TIP3    H131124   1.626   4.629   7.950 -0.8425 -0.7450 -0.1317
 3163TIP3    H231125   1.475   4.631   7.942 -0.7318  1.0330 -3.2597
 3164TIP3   OH231126   3.605   5.951   7.851  0.1110  0.0182  0.3401
 3164TIP3    H131127   3.698   5.937   7.867  0.5321  1.2870 -0.8411
 3164TIP3    H231128   3.583   5.889   7.781  0.2556  0.2020  0.1276
 3165TIP3   OH231129   4.180   5.598   0.909  0.5023 -0.0863  0.1060
 3165TIP3    H131130   4.189   5.691   0.930  0.0592 -0.0225  0.0157
 3165TIP3    H231131   4.142   5.597   0.821  0.9033 -0.3542 -0.0672
 3166TIP3   OH231132   3.663   2.120   0.385 -0.1460  0.1270  0.5162
 3166TIP3    H131133   3.719   2.143   0.311  0.2758 -1.8574  0.1793
 3166TIP3    H231134   3.667   2.197   0.442  0.7600  1.0837 -0.7778
 3167TIP3   OH231135   1.844   0.438   8.418 -0.8754  0.4970  0.4913
 3167TIP3    H131136   1.844   0.358   8.471 -0.3470 -0.4930 -0.9666
 3167TIP3    H231137   1.919   0.488   8.451 -0.4965 -0.1460  0.6268
 3168TIP3   OH231138   6.593   5.194   0.584 -0.9289  0.0360  0.0125
 3168TIP3    H131139   6.557   5.280   0.605  1.6820  1.1954  0.0672
 3168TIP3    H231140   6.618   5.157   0.669 -0.1705  0.1249 -0.1654
 3169TIP3   OH231141   5.950   4.464   1.260  0.9468 -0.0966  0.3525
 3169TIP3    H131142   6.009   4.393   1.237  2.2783  0.9057  0.5620
 3169TIP3    H231143   5.911   4.437   1.343 -0.4333 -1.6518 -0.7331
 3170TIP3   OH231144   5.414   4.389   8.052 -0.1312 -0.3855 -0.2034
 3170TIP3    H131145   5.455   4.349   8.129 -1.3833 -0.9776  0.1755
 3170TIP3    H231146   5.458   4.474   8.043  0.5310 -0.6097  0.7318
 3171TIP3   OH231147   4.266   6.096   6.980 -0.3642 -0.1354 -0.6423
 3171TIP3    H131148   4.201   6.160   6.951  0.1856  1.1014  0.7365
 3171TIP3    H231149   4.215   6.028   7.023 -0.7502  2.2220  3.0891
 3172TIP3   OH231150   3.192   1.862   8.742  0.1453 -0.0520 -0.9105
 3172TIP3    H131151   3.277   1.906   8.752 -0.6507  1.3418  0.0501
 3172TIP3    H231152   3.150   1.908   8.669 -0.5812  0.6354 -0.0792
 3173TIP3   OH231153   1.207   0.866   6.833 -0.0091  0.3580 -0.1117
 3173TIP3    H131154   1.145   0.918   6.782 -0.2429 -1.0495 -1.3326
 3173TIP3    H231155   1.219   0.787   6.782  2.3719  0.3323  0.3749
 3174TIP3   OH231156   4.581   4.421   8.114 -0.0901  0.4501  0.1698
 3174TIP3    H131157   4.583   4.448   8.023 -2.7058  0.3821  0.0367
 3174TIP3    H231158   4.488   4.416   8.137  0.4168 -1.5174  2.2395
 3175TIP3   OH231159   6.275   2.996   7.477  0.0714  0.3085  0.0168
 3175TIP3    H131160   6.256   3.011   7.569 -0.0917 -0.3540  0.0998
 3175TIP3    H231161   6.239   2.909   7.459  1.1449 -0.0762 -0.3674
 3176TIP3   OH231162   1.394   2.554   1.908  0.2983  0.2325 -0.5520
 3176TIP3    H131163   1.463   2.576   1.970 -0.5198 -0.9243  0.8146
 3176TIP3    H231164   1.403   2.460   1.894 -0.8938  0.0977 -0.4937
 3177TIP3   OH231165   6.407   3.475   8.672  0.2913 -0.2019  0.1867
 3177TIP3    H131166   6.445   3.550   8.718 -1.9297  1.5473 -0.6135
 3177TIP3    H231167   6.373   3.512   8.590  1.8361 -2.7191 -1.7451
 3178TIP3   OH231168   1.680   6.288   6.936  0.4591  0.5591 -0.4012
 3178TIP3    H131169   1.695   6.381   6.955  0.0031  0.3496  1.1022
 3178TIP3    H231170   1.654   6.287   6.844 -2.9302  2.3342  0.3742
 3179TIP3   OH231171   6.580   5.568   2.584 -0.2077 -0.1495  0.0357
 3179TIP3    H131172   6.508   5.540   2.527 -0.4432  0.1406  0.1902
 3179TIP3    H231173   6.632   5.489   2.596  0.1963 -0.0845 -1.0913
 3180TIP3   OH231174   1.703   1.042   1.024 -0.2766 -0.2111  0.5648
 3180TIP3    H131175   1.640   1.056   0.953 -2.0736  0.5495  2.1972
 3180TIP3    H231176   1.661   1.081   1.101  2.2389  0.3320  1.7616
 3181TIP3   OH231177   4.806   0.162   6.750  0.7682 -0.8859 -0.1691
 3181TIP3    H131178   4.751   0.089   6.722  1.5936 -0.9072 -1.8978
 3181TIP3    H231179   4.895   0.133   6.731  1.0895  0.6968 -1.3078
 3182TIP3   OH231180   4.203   6.342   8.103 -1.0799 -0.0631  0.5822
 3182TIP3    H131181   4.254   6.264   8.124  0.3652  0.9066  0.9072
 3182TIP3    H231182   4.176   6.331   8.012  1.2463  0.1200 -0.2012
 3183TIP3   OH231183   5.297   2.237   2.066  0.8659  0.0302 -0.1662
 3183TIP3    H131184   5.247   2.165   2.027  0.9164 -0.1762  0.1438
 3183TIP3    H231185   5.362   2.194   2.121 -0.5573  0.3046  1.8548
 3184TIP3   OH231186   1.979   5.287   8.227  0.6445 -0.4456 -0.7659
 3184TIP3    H131187   2.014   5.229   8.295 -0.9124  1.6939  2.0568
 3184TIP3    H231188   1.886   5.295   8.247  0.1666  0.5059 -3.0347
 3185TIP3   OH231189   3.654   4.856   7.215 -0.3771 -0.3046 -0.2330
 3185TIP3    H131190   3.733   4.893   7.177 -0.2896  0.5885  0.7642
 3185TIP3    H231191   3.683   4.773   7.253  0.4061  0.5674  1.2016
 3186TIP3   OH231192   4.595   2.531   7.222 -0.3686  0.4404  0.4914
 3186TIP3    H131193   4.560   2.468   7.158 -1.1507  0.6955  0.6719
 3186TIP3    H231194   4.690   2.514   7.221 -0.5118 -0.4145  0.1828
 3187TIP3   OH231195   3.766   1.337   8.639 -0.3626 -0.3536 -0.0340
 3187TIP3    H131196   3.714   1.294   8.571 -0.2990 -2.2415  1.0584
 3187TIP3    H231197   3.715   1.326   8.719  1.0225 -0.9395  0.7961
 3188TIP3   OH231198   4.191   0.031   8.079 -0.3297 -0.0949  0.5600
 3188TIP3    H131199   4.107   0.057   8.117 -0.1137  0.5812  0.5758
 3188TIP3    H231200   4.190  -0.065   8.083 -0.3367 -0.0452  2.2082
 3189TIP3   OH231201   6.524   4.824   8.156  0.0092 -0.2100  0.1094
 3189TIP3    H131202   6.493   4.865   8.075 -0.3285  1.3393  0.9746
 3189TIP3    H231203   6.610   4.788   8.134  0.9639  2.2053 -0.3881
 3190TIP3   OH231204   5.929   1.918   1.476  0.2041  0.4567 -0.4968
 3190TIP3    H131205   5.857   1.968   1.438 -0.8656 -0.7028 -0.0525
 3190TIP3    H231206   5.899   1.895   1.564 -0.1297 -2.4184 -1.2709
 3191TIP3   OH231207   3.120   5.331   7.525 -0.2336 -0.2438 -0.6442
 3191TIP3    H131208   3.070   5.400   7.481 -1.3315  0.6376  1.7877
 3191TIP3    H231209   3.183   5.300   7.459 -0.7156  2.0380 -2.2837
 3192TIP3   OH231210   5.959   0.090   0.098 -0.2803  0.2594  0.4344
 3192TIP3    H131211   5.965   0.017   0.160 -1.0710 -0.4065 -0.2640
 3192TIP3    H231212   6.018   0.156   0.134  1.2231 -1.0954  0.5562
 3193TIP3   OH231213   6.167   2.483   1.172  0.1924 -0.2057  0.1997
 3193TIP3    H131214   6.237   2.443   1.120 -1.1027  0.8968 -2.5937
 3193TIP3    H231215   6.133   2.412   1.226  3.1933 -0.8402  1.4504
 3194TIP3   OH231216   5.012   0.411   7.327 -0.7837  0.8489 -0.2065
 3194TIP3    H131217   5.085   0.352   7.308 -0.4248  1.6757 -1.5950
 3194TIP3    H231218   4.961   0.412   7.245 -1.6006  1.3197  0.2941
 3195TIP3   OH231219   5.699   5.462   2.284 -0.1468 -0.4036  0.2535
 3195TIP3    H131220   5.739   5.523   2.346 -0.7993  1.1018 -0.7428
 3195TIP3    H231221   5.746   5.380   2.297  1.7153  0.6733  0.6904
 3196TIP3   OH231222   0.333   0.100   8.365  0.5153  0.4353 -0.6728
 3196TIP3    H131223   0.386   0.174   8.336 -1.0751  1.6956 -0.4908
 3196TIP3    H231224   0.245   0.136   8.375 -0.3408 -1.5199 -0.7199
 3197TIP3   OH231225   2.298   4.034   1.065  0.4166  0.0448 -0.3859
 3197TIP3    H131226   2.385   4.034   1.024  1.2463  1.1481  1.2496
 3197TIP3    H231227   2.243   4.083   1.004  1.8535  2.5300  0.1306
 3198TIP3   OH231228   3.668   2.329   6.727  0.0318  0.1416 -0.2754
 3198TIP3    H131229   3.629   2.376   6.653 -2.0523  0.4499  0.9268
 3198TIP3    H231230   3.733   2.389   6.762 -1.0332  1.2638 -0.1206
 3199TIP3   OH231231   5.321   4.162   7.552  1.1561 -0.5197 -0.0739
 3199TIP3    H131232   5.228   4.143   7.556  0.8836  0.5412 -0.9201
 3199TIP3    H231233   5.343   4.195   7.639  0.7568 -0.8379  0.1493
 3200TIP3   OH231234   6.811   0.187   2.552  0.4111 -0.0617 -0.2537
 3200TIP3    H131235   6.751   0.112   2.562 -0.7352  0.8015 -0.4123
 3200TIP3    H231236   6.757   0.263   2.572  1.0522  0.8597 -1.8265
 3201TIP3   OH231237   2.338   0.475   7.313 -0.1048  0.2081 -0.0995
 3201TIP3    H131238   2.327   0.397   7.260 -0.4942  0.5947 -0.5938
 3201TIP3    H231239   2.290   0.456   7.394 -1.7152  0.6001 -0.9170
 3202TIP3   OH231240   5.491   5.060   6.873 -0.1321 -0.3145  0.3270
 3202TIP3    H131241   5.400   5.034   6.884  0.2678 -0.9945  2.3390
 3202TIP3    H231242   5.487   5.142   6.823 -2.0055  0.9878  2.4616
 3203TIP3   OH231243   4.659   5.038   0.924  0.3593  0.3733 -0.2900
 3203TIP3    H131244   4.664   5.128   0.957 -0.4041  0.0092  0.8817
 3203TIP3    H231245   4.744   5.022   0.884 -0.0797  2.2121 -2.1603
 3204TIP3   OH231246   6.205   2.923   7.946  0.7313 -0.2041 -0.2778
 3204TIP3    H131247   6.193   2.852   8.009  0.2685 -0.3129 -0.4824
 3204TIP3    H231248   6.241   2.995   7.997  1.8203 -0.7910 -0.1833
 3205TIP3   OH231249   4.803   6.059   1.461  0.2397  0.4280  0.1755
 3205TIP3    H131250   4.715   6.076   1.427  1.5239  1.9784 -2.8313
 3205TIP3    H231251   4.843   6.002   1.395  1.4056 -0.5467  1.6660
 3206TIP3   OH231252   2.411   3.178   7.929  0.1175  0.1654  0.3483
 3206TIP3    H131253   2.338   3.156   7.987  0.0627  0.0837  0.2490
 3206TIP3    H231254   2.467   3.100   7.929 -1.4471 -1.1000 -2.1323
 3207TIP3   OH231255   5.599   6.645   6.414 -0.3771 -0.3298  0.0824
 3207TIP3    H131256   5.564   6.719   6.363 -0.3609 -0.0399  0.4912
 3207TIP3    H231257   5.560   6.568   6.373 -0.1219 -0.1185 -0.5697
 3208TIP3   OH231258   1.823   0.238   2.153 -0.4047 -0.1426 -0.4339
 3208TIP3    H131259   1.735   0.259   2.124  0.4554  2.5808 -1.4567
 3208TIP3    H231260   1.880   0.272   2.084  1.5197  0.9986  1.5602
 3209TIP3   OH231261   0.041   1.652   8.555  0.6241  0.3525 -0.0601
 3209TIP3    H131262   0.034   1.683   8.465  3.1153 -0.2174 -0.5226
 3209TIP3    H231263  -0.041   1.605   8.571  0.7836 -0.9079 -2.5933
 3210TIP3   OH231264   0.906   5.594   1.293  0.1131 -0.0493  1.3968
 3210TIP3    H131265   0.944   5.671   1.252 -1.0126  0.4268  1.2047
 3210TIP3    H231266   0.876   5.540   1.219 -0.3598 -0.0048  1.5539
 3211TIP3   OH231267   0.743   0.071   0.406  0.0174 -0.6588 -0.1095
 3211TIP3    H131268   0.675   0.123   0.451 -0.9875 -0.3877 -1.8607
 3211TIP3    H231269   0.826   0.109   0.436 -0.5458 -0.9790  2.0649
 3212TIP3   OH231270   1.601   1.475   7.749 -0.0853 -0.4369 -0.1029
 3212TIP3    H131271   1.543   1.453   7.676 -1.6575  0.7490  0.7253
 3212TIP3    H231272   1.675   1.519   7.708  0.3855 -2.1304 -1.2004
 3213TIP3   OH231273   0.677   2.800   1.357 -0.3450 -0.0776 -0.3631
 3213TIP3    H131274   0.717   2.751   1.429 -0.6207 -0.4874 -0.4849
 3213TIP3    H231275   0.682   2.740   1.282 -0.4869  0.1652 -0.5675
 3214TIP3   OH231276   0.254   6.148   2.059  0.1290 -0.5270  0.0955
 3214TIP3    H131277   0.345   6.173   2.072 -0.0422  0.0010  0.3119
 3214TIP3    H231278   0.257   6.054   2.042  0.6823 -0.5753  0.4405
 3215TIP3   OH231279   6.728   1.020   1.227 -0.7782 -0.3284 -0.0836
 3215TIP3    H131280   6.634   0.999   1.234 -1.2405  0.6323 -2.5303
 3215TIP3    H231281   6.737   1.103   1.273 -0.7994 -1.1102  1.4003
 3216TIP3   OH231282   6.397   5.476   1.040 -0.2821 -0.3076 -0.1600
 3216TIP3    H131283   6.353   5.396   1.011  0.7696 -0.6107 -0.9925
 3216TIP3    H231284   6.491   5.454   1.037  0.0254  0.9705 -0.4716
 3217TIP3   OH231285   6.156   2.656   7.959  0.0765  0.4229  0.0769
 3217TIP3    H131286   6.243   2.677   7.925  0.7596  1.0934  2.0715
 3217TIP3    H231287   6.136   2.570   7.922  1.9583 -0.1217  0.2036
 3218TIP3   OH231288   3.707   5.053   8.309 -0.2127 -0.4134 -0.0200
 3218TIP3    H131289   3.629   5.016   8.350 -1.3556  0.7735 -1.0202
 3218TIP3    H231290   3.737   4.986   8.248 -1.3062 -0.3503 -0.6511
 3219TIP3   OH231291   6.105   6.704   2.236  0.1371 -0.2406 -0.1423
 3219TIP3    H131292   6.118   6.703   2.331 -2.5732 -2.0743  0.3158
 3219TIP3    H231293   6.090   6.796   2.215  2.3486  0.4290  0.8625
 3220TIP3   OH231294   5.626   4.236   7.164  0.6204 -0.5241  0.0132
 3220TIP3    H131295   5.633   4.296   7.239 -0.1119  0.8935 -1.0114
 3220TIP3    H231296   5.541   4.193   7.175  0.0464  0.4445 -0.5242
 3221TIP3   OH231297   6.127   0.954   1.646  0.2466  0.8441 -0.1335
 3221TIP3    H131298   6.078   0.874   1.665 -0.1611  1.1194 -0.0139
 3221TIP3    H231299   6.082   1.022   1.695  1.8033  0.8105  1.4567
 3222TIP3   OH231300   0.809   2.183   7.085 -0.7969  0.4839  0.2277
 3222TIP3    H131301   0.757   2.214   7.158 -0.4219  1.4576  0.0897
 3222TIP3    H231302   0.867   2.255   7.063 -0.8539  0.1960 -0.9879
 3223TIP3   OH231303   6.460   0.571   1.200  0.2406  0.3829 -0.2427
 3223TIP3    H131304   6.508   0.493   1.227 -0.8600  0.3312  1.7905
 3223TIP3    H231305   6.527   0.633   1.173  1.2014 -0.8363 -0.7369
 3224TIP3   OH231306   5.322   4.752   0.246  0.0187  0.4649  0.7614
 3224TIP3    H131307   5.409   4.736   0.212 -0.1342  1.1589  0.0269
 3224TIP3    H231308   5.294   4.667   0.282  1.0365  0.2757  1.1223
 3225TIP3   OH231309   5.109   1.194   8.248 -0.2865 -0.0926 -0.2264
 3225TIP3    H131310   5.189   1.155   8.282 -0.7594 -0.8614  0.0358
 3225TIP3    H231311   5.074   1.246   8.321 -0.7919 -0.9559  0.1597
 3226TIP3   OH231312   4.394   4.645   1.820  0.7779 -0.1761 -0.0932
 3226TIP3    H131313   4.405   4.701   1.744  0.5089 -0.0831 -0.0624
 3226TIP3    H231314   4.300   4.634   1.830  0.8347 -1.1184 -0.4479
 3227TIP3   OH231315   1.328   4.556   8.189  0.6498 -0.0075 -0.3197
 3227TIP3    H131316   1.345   4.515   8.104  0.1911  0.4505 -0.6340
 3227TIP3    H231317   1.267   4.496   8.233  0.4844  0.0168 -0.5170
 3228TIP3   OH231318   3.673   3.263   2.399  0.4183 -0.5668 -0.5501
 3228TIP3    H131319   3.676   3.358   2.405  0.6650 -0.6328  0.7343
 3228TIP3    H231320   3.746   3.233   2.454 -1.9092 -1.5331  2.2840
 3229TIP3   OH231321   4.221   5.102   1.112  0.2352 -0.5125  0.1337
 3229TIP3    H131322   4.158   5.173   1.095 -0.5135 -1.1291  0.2684
 3229TIP3    H231323   4.174   5.041   1.169  0.8184 -1.1948 -0.1005
 3230TIP3   OH231324   2.062   6.086   6.277 -0.0405  0.0501  0.5381
 3230TIP3    H131325   1.998   6.021   6.248 -0.3778  0.6624 -0.1163
 3230TIP3    H231326   2.009   6.161   6.304  0.2749 -0.3201  2.3677
 3231TIP3   OH231327   3.757   0.649   0.463  0.1867  0.6973  0.1610
 3231TIP3    H131328   3.710   0.685   0.539  0.8882  0.9438  0.4881
 3231TIP3    H231329   3.833   0.605   0.501 -1.7107 -3.1183 -0.0119
 3232TIP3   OH231330   3.451   2.336   8.129 -0.3171 -0.0018  0.4297
 3232TIP3    H131331   3.471   2.408   8.190 -0.0130  0.6349 -0.3987
 3232TIP3    H231332   3.481   2.368   8.044 -0.9951 -0.7631 -0.1102
 3233TIP3   OH231333   2.343   6.347   1.335  0.0230  0.0239  0.2935
 3233TIP3    H131334   2.339   6.440   1.315  0.6802 -0.2175 -1.1043
 3233TIP3    H231335   2.352   6.305   1.250  1.3515 -1.2017  0.9980
 3234TIP3   OH231336   3.348   6.129   1.442  0.5154  0.2178  0.8443
 3234TIP3    H131337   3.398   6.085   1.372 -0.1180  0.3940  0.2618
 3234TIP3    H231338   3.387   6.216   1.449 -0.6443  0.9192 -0.6901
 3235TIP3   OH231339   6.313   0.007   2.049 -0.0407 -0.1369  0.1220
 3235TIP3    H131340   6.225   0.038   2.069  0.4670  0.7656  1.0314
 3235TIP3    H231341   6.355  -0.003   2.134  0.1620 -2.4370 -0.1617
 3236TIP3   OH231342   5.170   5.734   6.495  0.4284 -0.2336  0.1431
 3236TIP3    H131343   5.113   5.704   6.567  1.9117 -1.5252  0.8482
 3236TIP3    H231344   5.120   5.804   6.453 -1.6799 -1.2958  0.7041
 3237TIP3   OH231345   2.222   4.863   8.243 -0.3487  0.4235 -0.1399
 3237TIP3    H131346   2.311   4.833   8.225 -1.1835 -2.6795  0.3507
 3237TIP3    H231347   2.221   4.878   8.338 -0.6712 -0.9961  0.1089
 3238TIP3   OH231348   0.861   2.611   1.927  0.5018 -0.1724  0.1573
 3238TIP3    H131349   0.785   2.624   1.871  0.6370  0.0895  0.0300
 3238TIP3    H231350   0.825   2.606   2.016  0.1460 -1.9828 -0.0532
 3239TIP3   OH231351   4.965   6.219   6.474  0.4461 -0.4881 -0.0523
 3239TIP3    H131352   4.870   6.210   6.476  0.5411 -2.0920 -1.0682
 3239TIP3    H231353   4.981   6.313   6.484 -1.2867 -0.0766 -0.8737
 3240TIP3   OH231354   4.258   4.268   0.022 -0.3776  0.1866  0.0797
 3240TIP3    H131355   4.222   4.348   0.061 -1.0031  0.7781 -1.5989
 3240TIP3    H231356   4.312   4.230   0.090 -2.2224  0.5940  1.8659
 3241TIP3   OH231357   5.205   5.609   0.141 -0.3236 -0.4298  0.4779
 3241TIP3    H131358   5.194   5.704   0.143 -0.3393 -0.2686 -2.7902
 3241TIP3    H231359   5.157   5.581   0.064  1.7946 -2.7596 -0.0981
 3242TIP3   OH231360   6.372   4.558   7.119 -0.0364  0.6776  0.5428
 3242TIP3    H131361   6.458   4.522   7.141 -0.2717  0.7188  1.5847
 3242TIP3    H231362   6.383   4.594   7.031  0.9107  0.3620  0.5168
 3243TIP3   OH231363   5.218   2.275   7.015 -0.3868  0.0119  0.0501
 3243TIP3    H131364   5.173   2.192   6.998  0.0640 -0.3089  0.4138
 3243TIP3    H231365   5.164   2.319   7.081 -1.8413  1.0109 -1.7010
 3244TIP3   OH231366   2.604   0.305   6.883 -0.0819 -0.6540  0.6857
 3244TIP3    H131367   2.625   0.279   6.793  1.7650  0.1163  0.8594
 3244TIP3    H231368   2.638   0.394   6.891 -0.4712 -0.6110  2.0742
 3245TIP3   OH231369   1.949   1.255   6.832 -0.1492  0.1062 -0.4272
 3245TIP3    H131370   1.876   1.306   6.867 -1.0555 -0.7663 -1.0082
 3245TIP3    H231371   1.988   1.312   6.766 -1.3315 -0.0204 -1.2724
 3246TIP3   OH231372   4.762   3.602   7.487  0.0999 -0.1046 -0.5438
 3246TIP3    H131373   4.788   3.609   7.579 -1.3235 -0.3345 -0.1132
 3246TIP3    H231374   4.834   3.644   7.440 -0.4941  2.7194  0.8605
 3247TIP3   OH231375   6.157   5.103   6.901 -0.1991 -0.3406 -0.0318
 3247TIP3    H131376   6.243   5.062   6.913 -0.3464 -0.9703 -1.0388
 3247TIP3    H231377   6.135   5.137   6.988  1.1363 -0.0235  0.2122
 3248TIP3   OH231378   0.109   1.953   1.728  0.1857  0.3192  0.2733
 3248TIP3    H131379   0.177   1.903   1.772  1.3838 -0.0195 -1.8072
 3248TIP3    H231380   0.028   1.905   1.745  1.1079 -1.6810 -0.6244
 3249TIP3   OH231381   2.970   6.592   1.105  0.0827  0.5136  0.1546
 3249TIP3    H131382   2.993   6.531   1.036 -0.7563  1.0389 -0.6078
 3249TIP3    H231383   3.039   6.581   1.171 -1.1832 -2.7904  1.0665
 3250TIP3   OH231384   3.269   1.013   0.845  0.1420 -0.0268  0.0322
 3250TIP3    H131385   3.301   1.098   0.816  1.5477 -0.9891 -1.4124
 3250TIP3    H231386   3.174   1.022   0.848  0.2402  1.4335 -0.5592
 3251TIP3   OH231387   1.591   3.281   7.365 -1.0075 -0.8874 -0.2042
 3251TIP3    H131388   1.628   3.195   7.384 -2.2816 -2.0538 -2.5025
 3251TIP3    H231389   1.498   3.272   7.383 -1.0481  0.2572  0.2474
 3252TIP3   OH231390   6.099   5.452   2.525  0.1252  0.6863  0.5565
 3252TIP3    H131391   6.060   5.487   2.444 -1.1493 -1.1932  0.3123
 3252TIP3    H231392   6.031   5.398   2.563  0.3565  2.2550  3.4481
 3253TIP3   OH231393   3.816   0.948   7.998  0.1024 -0.6221  0.4195
 3253TIP3    H131394   3.829   0.975   8.089  1.4546 -0.6336  0.2409
 3253TIP3    H231395   3.898   0.968   7.955 -1.1218  1.1499 -1.2689
 3254TIP3   OH231396   5.880   2.263   0.927  0.7908  0.3015  0.7741
 3254TIP3    H131397   5.846   2.255   0.838  1.0420 -2.5073  0.8192
 3254TIP3    H231398   5.804   2.288   0.980 -0.3342 -1.7709  0.2635
 3255TIP3   OH231399   4.769   0.570   8.204 -0.2831 -0.3978  0.5421
 3255TIP3    H131400   4.768   0.639   8.137 -0.1318 -2.5550 -1.8401
 3255TIP3    H231401   4.786   0.617   8.286  0.0255  2.3523 -0.9555
 3256TIP3   OH231402   1.084   5.036   1.502 -0.3303 -0.1634  0.1428
 3256TIP3    H131403   0.997   5.075   1.491 -0.5429  0.6669  3.6316
 3256TIP3    H231404   1.068   4.958   1.555  0.9903 -0.4257  0.1731
 3257TIP3   OH231405   5.010   3.685   1.557 -0.1323  0.1556 -0.6582
 3257TIP3    H131406   4.988   3.773   1.589 -0.6482 -0.1828 -0.0484
 3257TIP3    H231407   4.945   3.628   1.598  1.2260 -0.7439  0.3437
 3258TIP3   OH231408   0.925   5.855   1.168 -0.0566  0.8700  0.4388
 3258TIP3    H131409   0.980   5.928   1.140  0.2120 -0.0711 -1.6861
 3258TIP3    H231410   0.888   5.820   1.087 -1.3092 -0.4861  1.5304
 3259TIP3   OH231411   5.308   2.047   0.769 -0.4646 -0.4611 -0.3959
 3259TIP3    H131412   5.263   2.131   0.758  0.5149  0.0334 -0.6651
 3259TIP3    H231413   5.239   1.982   0.756 -1.1352  0.2862 -0.6656
 3260TIP3   OH231414   4.541   3.719   1.560  0.0170  0.1285  0.2172
 3260TIP3    H131415   4.529   3.774   1.637  0.5238 -0.5709  0.8071
 3260TIP3    H231416   4.502   3.635   1.583  1.2040 -0.4599  0.1684
 3261TIP3   OH231417   5.633   5.329   0.696 -0.4541 -0.3626 -0.6106
 3261TIP3    H131418   5.584   5.314   0.777 -1.7048  0.6726 -1.1367
 3261TIP3    H231419   5.694   5.400   0.717 -0.9441  0.0683 -0.6330
 3262TIP3   OH231420   3.027   3.498   1.111 -0.2518 -0.9693  0.8278
 3262TIP3    H131421   2.979   3.579   1.126  0.2417 -0.1177 -1.6527
 3262TIP3    H231422   2.960   3.431   1.105 -0.6045 -1.0330  4.0210
 3263TIP3   OH231423   3.879   6.002   7.968 -0.3372  0.0452  0.1415
 3263TIP3    H131424   3.889   5.962   7.882 -0.5814  1.5356 -0.6191
 3263TIP3    H231425   3.940   5.955   8.024  1.0025  0.0845 -1.2196
 3264TIP3   OH231426   4.600   6.646   0.283  0.2091  0.0177 -0.3597
 3264TIP3    H131427   4.577   6.635   0.191  0.3868 -0.9246 -0.3025
 3264TIP3    H231428   4.605   6.556   0.317  0.3914  0.3488  0.5032
 3265TIP3   OH231429   4.088   5.214   0.488 -0.7362  0.6909 -0.1206
 3265TIP3    H131430   4.035   5.143   0.524 -0.7390  0.1200 -1.2130
 3265TIP3    H231431   4.117   5.263   0.565 -0.9315 -0.3465  0.6423
 3266TIP3   OH231432   3.785   2.503   1.380  0.4469  0.4342 -0.2580
 3266TIP3    H131433   3.793   2.538   1.469  1.1364 -2.5787  0.9942
 3266TIP3    H231434   3.691   2.496   1.365  0.3138  1.6641 -0.1186
 3267TIP3   OH231435   2.410   2.053   2.047 -0.6573 -0.2516 -0.7904
 3267TIP3    H131436   2.428   2.093   2.132 -0.0276 -0.1347 -0.9734
 3267TIP3    H231437   2.315   2.061   2.036 -0.6836  0.1409 -0.3022
 3268TIP3   OH231438   4.208   6.048   1.262  0.0094  0.0014  0.0762
 3268TIP3    H131439   4.201   6.057   1.357  1.0544 -0.7211  0.2452
 3268TIP3    H231440   4.270   6.116   1.236  0.6883 -0.5902  0.0996
 3269TIP3   OH231441   1.458   2.815   1.162 -0.0420  0.5332  0.2542
 3269TIP3    H131442   1.541   2.858   1.140 -0.1448  0.7499  0.2936
 3269TIP3    H231443   1.428   2.777   1.079 -0.0815  0.7569  0.1670
 3270TIP3   OH231444   4.976   2.583   1.404  0.7021 -0.8283 -0.2607
 3270TIP3    H131445   5.064   2.564   1.435 -0.0349 -0.1942  2.5083
 3270TIP3    H231446   4.966   2.677   1.415 -0.1663 -0.8119 -1.0169
 3271TIP3   OH231447   1.669   4.929   1.258  0.2827 -0.1006  0.7497
 3271TIP3    H131448   1.608   4.984   1.209  1.2886  0.6062  0.2478
 3271TIP3    H231449   1.613   4.875   1.314 -0.8881 -0.7264 -0.9364
 3272TIP3   OH231450   1.674   3.336   1.277 -0.1702 -0.0381  0.3616
 3272TIP3    H131451   1.636   3.337   1.189  0.3300  2.0980  0.0949
 3272TIP3    H231452   1.657   3.425   1.311 -0.0745 -0.7151  2.3064
 3273TIP3   OH231453   1.629   3.990   8.531  0.2901  0.4299  0.1691
 3273TIP3    H131454   1.701   3.992   8.594  0.7415  1.5281 -0.3342
 3273TIP3    H231455   1.587   3.906   8.544  0.9687  0.2409  1.2653
 3274TIP3   OH231456   5.667   1.131   0.080  0.1844 -0.2908 -0.6835
 3274TIP3    H131457   5.709   1.141   0.165  1.2969  0.8974 -1.3308
 3274TIP3    H231458   5.608   1.206   0.074  1.4198  0.6439 -1.6500
 3275TIP3   OH231459   2.014   0.918   1.458  0.4803 -0.0832  0.5468
 3275TIP3    H131460   2.080   0.946   1.394  0.1381 -0.5109 -0.0096
 3275TIP3    H231461   1.973   0.841   1.417 -1.7835  1.3636 -0.0853
 3276TIP3   OH231462   5.289   4.081   8.173  0.0628 -0.0088  0.3963
 3276TIP3    H131463   5.293   4.146   8.243  0.3641  1.2105 -0.7215
 3276TIP3    H231464   5.378   4.046   8.168  0.0225 -0.1528  0.6669
 3277TIP3   OH231465   3.215   3.535   2.094 -0.0290 -0.1754  0.1674
 3277TIP3    H131466   3.221   3.486   2.013  0.9050 -1.6888  1.1078
 3277TIP3    H231467   3.303   3.532   2.131 -0.3612  0.7452  1.1020
 3278TIP3   OH231468   2.216   2.262   1.551 -0.2650  0.4867 -0.4431
 3278TIP3    H131469   2.202   2.250   1.645 -0.4569 -1.8760 -0.7100
 3278TIP3    H231470   2.272   2.340   1.545 -0.6322  0.9685  1.5756
 3279TIP3   OH231471   5.981   3.173   8.175  0.0112 -1.0004 -0.3905
 3279TIP3    H131472   5.918   3.172   8.103  1.0390  2.4816 -1.5370
 3279TIP3    H231473   6.067   3.179   8.131  0.7545 -0.2004  1.1037
 3280TIP3   OH231474   2.022   2.256   1.372  0.2617  0.4062 -0.4903
 3280TIP3    H131475   1.966   2.297   1.438  0.8475  1.7421 -0.7872
 3280TIP3    H231476   2.111   2.269   1.405  0.4568 -1.4397 -0.1602
 3281TIP3   OH231477   0.842   0.219   7.551  0.2331  0.1130 -0.5185
 3281TIP3    H131478   0.914   0.156   7.546 -0.7402 -1.1517  0.6907
 3281TIP3    H231479   0.767   0.167   7.581 -0.3369  2.0574  1.6683
 3282TIP3   OH231480   1.613   1.072   8.499 -0.3650  0.5598 -0.3977
 3282TIP3    H131481   1.605   1.096   8.407  0.7376  2.5868 -0.0155
 3282TIP3    H231482   1.707   1.078   8.517 -0.1825 -2.4683  0.2296
 3283TIP3   OH231483   6.388   2.362   7.393 -0.1641 -0.1078  0.2212
 3283TIP3    H131484   6.369   2.317   7.475 -0.2842  0.4207  0.4895
 3283TIP3    H231485   6.481   2.348   7.378 -0.3719 -1.1641 -0.1449
 3284TIP3   OH231486   1.532   5.805   0.161  0.6400  0.1555 -0.2417
 3284TIP3    H131487   1.584   5.808   0.081  2.4415 -1.6811  0.7671
 3284TIP3    H231488   1.551   5.719   0.198 -1.7084  0.1666  1.1665
 3285TIP3   OH231489   2.197   0.459   7.549 -0.2953 -0.3011 -0.2493
 3285TIP3    H131490   2.283   0.456   7.590 -0.8072 -1.9026  0.8219
 3285TIP3    H231491   2.144   0.397   7.601 -2.0239  0.4851 -1.0022
 3286TIP3   OH231492   0.330   0.561   8.111  0.4507 -0.2347 -0.0175
 3286TIP3    H131493   0.405   0.593   8.161  0.5270 -1.7927  0.9299
 3286TIP3    H231494   0.350   0.469   8.094 -0.4840 -0.2327 -1.2431
 3287TIP3   OH231495   0.790   6.474   8.392 -0.0930  0.0196  0.2186
 3287TIP3    H131496   0.774   6.393   8.441  0.5055  0.0056  0.3966
 3287TIP3    H231497   0.745   6.542   8.442 -1.2528 -0.3062 -0.3368
 3288TIP3   OH231498   1.669   5.124   7.911  0.1635 -0.1140 -0.1931
 3288TIP3    H131499   1.687   5.099   7.821  1.0697 -0.6454  0.1235
 3288TIP3    H231500   1.734   5.192   7.931  0.4146 -0.4901  0.2756
 3289TIP3   OH231501   6.726   2.525   0.333 -0.0586 -0.8241 -0.4935
 3289TIP3    H131502   6.649   2.494   0.286 -0.6819  0.1366 -0.1480
 3289TIP3    H231503   6.691   2.571   0.409  0.8042  0.3103 -0.7433
 3290TIP3   OH231504   4.984   2.393   8.281 -0.1233 -0.3144 -0.1541
 3290TIP3    H131505   4.893   2.396   8.310 -0.8398  1.2186 -2.3248
 3290TIP3    H231506   5.032   2.444   8.346 -0.5439 -2.1253  1.6705
 3291TIP3   OH231507   0.379   6.694   1.249  0.0008  0.6088  0.1302
 3291TIP3    H131508   0.338   6.767   1.202  0.0545  0.4662 -0.1380
 3291TIP3    H231509   0.320   6.620   1.235  0.2484  0.4534 -0.0865
 3292TIP3   OH231510   2.539   3.601   1.400  0.1084  0.0928 -0.3347
 3292TIP3    H131511   2.570   3.688   1.375 -0.0766  0.6517  1.2246
 3292TIP3    H231512   2.446   3.602   1.375  0.4147 -0.1681 -1.5317
 3293TIP3   OH231513   1.346   3.620   2.430  0.7425 -0.1741 -0.3326
 3293TIP3    H131514   1.284   3.610   2.502  0.6712  1.0062 -0.2225
 3293TIP3    H231515   1.316   3.558   2.364 -1.6013  1.5515 -0.9967
 3294TIP3   OH231516   1.320   1.053   7.921 -0.3202  0.5530  0.0290
 3294TIP3    H131517   1.309   0.987   7.852  1.3006 -0.2136  0.4492
 3294TIP3    H231518   1.277   1.015   7.997  0.1969  0.1687  0.1393
 3295TIP3   OH231519   1.849   5.047   0.711  0.3431  0.2124  0.2133
 3295TIP3    H131520   1.883   5.060   0.799  3.8582 -1.0988 -0.7535
 3295TIP3    H231521   1.852   5.134   0.671  2.6600  0.2068  0.2436
 3296TIP3   OH231522   1.630   5.254   7.555  0.2609  0.1718  0.0263
 3296TIP3    H131523   1.548   5.290   7.589 -1.0353 -2.8500  0.3968
 3296TIP3    H231524   1.630   5.278   7.462 -1.4161 -0.3788 -0.1356
 3297TIP3   OH231525   1.530   0.626   6.570  0.4293  0.4365  0.1034
 3297TIP3    H131526   1.455   0.599   6.517  1.6110 -0.3643 -1.2362
 3297TIP3    H231527   1.564   0.704   6.526  1.6493 -0.4536 -0.5811
 3298TIP3   OH231528   5.427   2.718   7.537 -0.1925  0.0666 -0.0414
 3298TIP3    H131529   5.387   2.666   7.606  2.0113  2.0973  3.0210
 3298TIP3    H231530   5.356   2.774   7.504 -1.3712 -1.1902  0.2984
 3299TIP3   OH231531   0.376   2.096   0.352  0.7115 -0.5429 -0.1212
 3299TIP3    H131532   0.327   2.117   0.272  0.4113 -0.8799 -0.0295
 3299TIP3    H231533   0.321   2.032   0.397  0.9106 -0.4012  0.3267
 3300TIP3   OH231534   5.471   2.228   0.865  0.4784 -0.0972 -0.1754
 3300TIP3    H131535   5.449   2.268   0.781 -2.3689 -0.7339  0.1833
 3300TIP3    H231536   5.421   2.147   0.867  3.9046 -2.3853  0.3310
 3301TIP3   OH231537   3.179   0.072   7.848 -0.1023  0.2087  0.1115
 3301TIP3    H131538   3.176   0.168   7.847 -1.6344  0.1909 -0.6365
 3301TIP3    H231539   3.118   0.047   7.917  0.8090 -0.2422  0.7719
 3302TIP3   OH231540   2.139   6.240   8.773 -0.4076  0.1836 -0.3532
 3302TIP3    H131541   2.198   6.218   8.845  1.1573 -1.1336 -1.9529
 3302TIP3    H231542   2.055   6.257   8.816  1.2654  3.2913  2.1507
 3303TIP3   OH231543   4.470   3.644   7.540 -0.0303 -0.0186  0.1231
 3303TIP3    H131544   4.555   3.603   7.523  0.4854  1.1166 -0.1702
 3303TIP3    H231545   4.445   3.683   7.456 -0.6796 -0.0642  0.2937
 3304TIP3   OH231546   6.377   2.087   8.044 -0.4824  0.4072  0.7020
 3304TIP3    H131547   6.328   2.098   8.126 -1.8661  0.1964 -0.0751
 3304TIP3    H231548   6.381   1.993   8.030  1.9162  0.2662  1.7459
 3305TIP3   OH231549   6.736   4.668   2.365  0.1321  0.3508 -0.2015
 3305TIP3    H131550   6.820   4.636   2.397  1.0473  1.3718 -1.4561
 3305TIP3    H231551   6.726   4.626   2.279  0.0094  1.2479 -0.6366
 3306TIP3   OH231552   6.784   3.501   6.721  0.4156  0.4377  0.3609
 3306TIP3    H131553   6.750   3.418   6.685  1.2820 -0.5151  1.6375
 3306TIP3    H231554   6.705   3.549   6.745 -0.1009 -0.2657  0.1454
 3307TIP3   OH231555   0.592   1.391   7.057  0.4305 -0.2899 -0.0775
 3307TIP3    H131556   0.508   1.360   7.091 -0.3394  1.1695 -0.5953
 3307TIP3    H231557   0.572   1.429   6.972  1.6683 -0.1948 -0.3536
 3308TIP3   OH231558   0.330   5.755   0.292  0.1290  0.3201 -0.4472
 3308TIP3    H131559   0.345   5.848   0.308 -0.7590  0.7132 -1.7091
 3308TIP3    H231560   0.399   5.729   0.231  1.3566 -0.2911  1.1163
 3309TIP3   OH231561   5.793   5.998   8.131 -0.3008  0.0537 -0.0014
 3309TIP3    H131562   5.855   6.021   8.062  0.3282  0.8373  0.7918
 3309TIP3    H231563   5.721   5.955   8.086  0.4821 -0.1981 -1.0346
 3310TIP3   OH231564   6.280   5.188   0.696 -0.2145 -0.3506  0.0338
 3310TIP3    H131565   6.218   5.259   0.678 -0.9862 -0.7339  1.0783
 3310TIP3    H231566   6.357   5.231   0.733 -0.0206  0.0891 -0.8611
 3311TIP3   OH231567   5.828   4.703   8.015 -0.4171  0.0169  0.7129
 3311TIP3    H131568   5.905   4.731   8.064  1.1167 -1.5357 -0.6862
 3311TIP3    H231569   5.862   4.674   7.930 -2.5342 -0.7307  0.0502
 3312TIP3   OH231570   4.631   0.627   0.642  0.1565 -0.9634  0.0266
 3312TIP3    H131571   4.536   0.630   0.648 -0.0233 -1.9537 -1.6409
 3312TIP3    H231572   4.649   0.544   0.597  1.8511 -1.2177  1.0952
 3313TIP3   OH231573   5.236   0.014   0.712  0.0609 -0.2910 -0.5959
 3313TIP3    H131574   5.170   0.026   0.780  1.3215 -0.1730  0.6704
 3313TIP3    H231575   5.265   0.102   0.690  0.0833 -0.3619 -0.8521
 3314TIP3   OH231576   5.722   2.351   0.729 -0.5965 -0.6879  0.6589
 3314TIP3    H131577   5.743   2.444   0.741  0.4263 -0.6699 -0.9742
 3314TIP3    H231578   5.629   2.345   0.750 -1.2841  1.1941 -1.3899
 3315TIP3   OH231579   6.711   6.304   8.348  0.2190 -0.6035 -0.1746
 3315TIP3    H131580   6.653   6.232   8.325 -0.3175 -0.1509 -0.2547
 3315TIP3    H231581   6.778   6.265   8.404  2.3102 -2.0411 -3.3806
 3316TIP3   OH231582   3.137   6.519   8.268 -0.0583  0.1854  0.1641
 3316TIP3    H131583   3.085   6.582   8.319 -0.3047 -0.1649  0.3532
 3316TIP3    H231584   3.102   6.433   8.293  1.3646 -0.1357  1.1673
 3317TIP3   OH231585   3.840   2.939   1.586 -0.1412  0.1827 -0.5663
 3317TIP3    H131586   3.890   2.867   1.549 -1.4318 -0.4742 -1.1223
 3317TIP3    H231587   3.795   2.979   1.511 -4.3763 -2.3902  0.2346
 3318TIP3   OH231588   4.818   6.082   7.477  0.6620 -0.1698  0.2339
 3318TIP3    H131589   4.759   6.123   7.414 -0.2453  0.0802  1.2289
 3318TIP3    H231590   4.825   6.145   7.549  0.8945 -0.8620  0.8351
 3319TIP3   OH231591   6.478   4.695   2.107 -0.1796 -0.5210  0.2220
 3319TIP3    H131592   6.451   4.650   2.187  0.2228  0.4770  0.9390
 3319TIP3    H231593   6.565   4.660   2.087 -0.4346 -1.0449 -0.0118
 3320TIP3   OH231594   1.013   5.705   0.467  0.0404 -0.3870 -0.0095
 3320TIP3    H131595   0.969   5.743   0.391  2.1737  0.3452 -0.9877
 3320TIP3    H231596   0.962   5.628   0.490 -1.2492 -0.0269 -1.5361
 3321TIP3   OH231597   1.881   5.273   0.476  0.1980  0.0455  0.5812
 3321TIP3    H131598   1.852   5.186   0.451  0.4734  0.2413 -0.4507
 3321TIP3    H231599   1.896   5.319   0.393  0.2748  1.0015  1.1024
 3322TIP3   OH231600   3.400   6.586   0.425  0.2639 -0.1621 -0.0651
 3322TIP3    H131601   3.388   6.680   0.439 -1.1904 -0.3960  0.4777
 3322TIP3    H231602   3.489   6.577   0.393  0.4112  1.4079 -0.1511
 3323TIP3   OH231603   6.395   1.495   8.707 -0.1969 -0.1072  0.0511
 3323TIP3    H131604   6.326   1.472   8.645 -1.8333  0.9110  1.4087
 3323TIP3    H231605   6.351   1.548   8.773  1.9359  0.6841  0.9159
 3324TIP3   OH231606   5.175   2.588   2.617  0.2516  0.1796 -0.2877
 3324TIP3    H131607   5.169   2.560   2.708 -2.3469  0.8500 -0.1729
 3324TIP3    H231608   5.095   2.556   2.576 -0.0149  2.3266 -1.6076
 3325TIP3   OH231609   1.448   2.245   8.031  0.1611  0.3324  0.1508
 3325TIP3    H131610   1.497   2.320   7.996  0.5967  0.6793  1.4375
 3325TIP3    H231611   1.512   2.195   8.080 -0.5733  0.2856  1.0889
 3326TIP3   OH231612   1.986   6.482   7.020  0.2281  0.0685 -0.0599
 3326TIP3    H131613   1.952   6.496   6.931  1.4199  0.2945 -0.5041
 3326TIP3    H231614   1.938   6.544   7.075 -0.3946  0.0539 -0.5711
 3327TIP3   OH231615   6.365   6.471   6.610 -0.6669  0.4553 -0.2607
 3327TIP3    H131616   6.277   6.433   6.607 -0.4658 -0.4545  2.4689
 3327TIP3    H231617   6.424   6.396   6.617 -0.0649  1.0562  2.3872
 3328TIP3   OH231618   2.890   1.002   1.555  0.4337  0.1124  0.3666
 3328TIP3    H131619   2.953   1.069   1.529 -1.4628  2.8614  2.3550
 3328TIP3    H231620   2.813   1.018   1.500  0.7945 -2.1620 -0.9146
 3329TIP3   OH231621   5.722   2.381   0.415  0.6293 -0.1757 -0.3503
 3329TIP3    H131622   5.747   2.363   0.505  1.4047  0.6745 -0.3803
 3329TIP3    H231623   5.648   2.322   0.398  0.6565 -0.5420  0.7397
 3330TIP3   OH231624   5.702   5.572   0.167  0.2196  0.5417  0.6426
 3330TIP3    H131625   5.741   5.487   0.191 -0.7664 -0.0971  0.0781
 3330TIP3    H231626   5.628   5.549   0.111 -0.9344  1.7048  1.6319
 3331TIP3   OH231627   0.127   1.812   6.602 -0.2856  0.2893  0.5508
 3331TIP3    H131628   0.200   1.856   6.559  0.3316 -0.9256  0.2956
 3331TIP3    H231629   0.115   1.859   6.685  1.7253 -0.3249  1.2438
 3332TIP3   OH231630   3.600   5.353   0.302 -0.4292  0.3049  0.0440
 3332TIP3    H131631   3.588   5.447   0.287 -1.8736  0.1517  0.0665
 3332TIP3    H231632   3.691   5.337   0.279 -0.2736  1.6327 -0.3845
 3333TIP3   OH231633   2.089   5.870   7.982 -0.4516 -0.0790  0.0926
 3333TIP3    H131634   2.128   5.793   8.023  1.4974  0.6512 -0.2474
 3333TIP3    H231635   2.059   5.924   8.055  0.3306 -0.1199  0.4572
 3334TIP3   OH231636   1.520   5.219   2.725 -0.4569 -0.0126 -0.0141
 3334TIP3    H131637   1.493   5.128   2.727 -1.4181  0.2700  1.1408
 3334TIP3    H231638   1.523   5.245   2.817  1.5298  0.6466 -0.2086
 3335TIP3   OH231639   2.267   2.649   7.743  0.1442  0.0480  0.0507
 3335TIP3    H131640   2.222   2.572   7.778  0.6986 -0.4445 -0.3045
 3335TIP3    H231641   2.288   2.702   7.819 -0.7673  0.1380  0.2473
 3336TIP3   OH231642   2.892   6.528   8.621 -0.2169  0.3851 -0.6686
 3336TIP3    H131643   2.809   6.566   8.649  0.7630  0.8837  1.6988
 3336TIP3    H231644   2.895   6.443   8.665 -0.2180 -0.4217 -2.1445
 3337TIP3   OH231645   1.360   5.254   7.407  0.2715 -0.0912  0.2412
 3337TIP3    H131646   1.424   5.263   7.336 -0.8196 -1.0202 -0.8967
 3337TIP3    H231647   1.391   5.179   7.457  1.2893  0.8345  1.0497
 3338TIP3   OH231648   4.700   5.004   8.592 -0.1069 -0.6984 -0.2184
 3338TIP3    H131649   4.669   4.953   8.516  0.8125  0.4823 -1.4364
 3338TIP3    H231650   4.705   4.940   8.663 -1.0700 -1.8324 -1.1273
 3339TIP3   OH231651   3.793   3.968   8.568  0.3506  0.1947 -0.4601
 3339TIP3    H131652   3.774   3.887   8.614 -1.0587  1.1955  0.8234
 3339TIP3    H231653   3.709   3.995   8.531  0.9393  0.7409 -1.4540
 3340TIP3   OH231654   1.818   5.409   7.370  0.1264 -0.2075  0.4961
 3340TIP3    H131655   1.777   5.448   7.447 -1.0228 -4.5161  2.4141
 3340TIP3    H231656   1.744   5.373   7.320  1.0692  0.0646 -1.1671
 3341TIP3   OH231657   2.471   0.595   8.075 -0.6005  0.3237 -0.4937
 3341TIP3    H131658   2.462   0.690   8.076  0.2871  0.4223 -0.8187
 3341TIP3    H231659   2.547   0.579   8.018  0.2271 -0.4885  0.7967
 3342TIP3   OH231660   1.856   6.178   1.850 -0.0668 -0.3934 -0.2080
 3342TIP3    H131661   1.804   6.105   1.886  0.8009 -0.5097  0.8715
 3342TIP3    H231662   1.914   6.137   1.786  0.3764 -0.6437  0.3527
 3343TIP3   OH231663   4.093   5.881   7.050  0.3751  0.0666 -0.3021
 3343TIP3    H131664   4.107   5.787   7.038 -1.2747 -0.2689  0.1540
 3343TIP3    H231665   4.028   5.887   7.121 -1.0747  1.4651 -1.6691
 3344TIP3   OH231666   4.967   6.393   7.932  0.0350  0.4449  0.4387
 3344TIP3    H131667   4.961   6.310   7.980  0.7452 -0.2803 -0.6869
 3344TIP3    H231668   4.879   6.431   7.940 -0.5764 -0.8536  0.2418
 3345TIP3   OH231669   6.073   5.992   7.661  0.2278 -0.1467  0.6800
 3345TIP3    H131670   6.035   5.948   7.585  0.0733 -2.0550  1.8022
 3345TIP3    H231671   6.166   5.970   7.657  0.0136 -1.3388  1.7000
 3346TIP3   OH231672   4.034   5.000   8.336  0.7086  0.5844 -0.4655
 3346TIP3    H131673   4.090   4.922   8.340  0.7868  0.5909 -1.2943
 3346TIP3    H231674   3.957   4.972   8.287  0.3668  0.8186 -0.0758
 3347TIP3   OH231675   4.170   3.988   6.587  0.8936 -0.2607  0.1205
 3347TIP3    H131676   4.094   3.933   6.572  0.1437  0.1935  1.9472
 3347TIP3    H231677   4.138   4.077   6.574  1.6741 -0.1396 -1.1638
 3348TIP3   OH231678   4.360   4.566   0.541  0.5176  0.2297 -0.3435
 3348TIP3    H131679   4.367   4.583   0.635 -0.6042  1.5237 -0.4690
 3348TIP3    H231680   4.425   4.497   0.525 -0.1288 -0.9136  1.5931
 3349TIP3   OH231681   2.526   2.627   2.146 -0.6481  0.0333  0.0870
 3349TIP3    H131682   2.465   2.701   2.144  0.3392  0.8717 -2.2138
 3349TIP3    H231683   2.469   2.550   2.151 -1.7972  0.8731  0.3884
 3350TIP3   OH231684   5.502   1.344   8.049 -0.2946  0.0415  0.0401
 3350TIP3    H131685   5.520   1.435   8.072 -1.3212  0.4631 -0.7579
 3350TIP3    H231686   5.407   1.340   8.040 -0.2960 -1.2186  0.4842
 3351TIP3   OH231687   3.663   4.638   0.932 -0.0215  0.4799 -0.0034
 3351TIP3    H131688   3.750   4.672   0.910  1.3569 -2.0048  1.2240
 3351TIP3    H231689   3.639   4.684   1.013  0.7321  0.3003  0.3331
 3352TIP3   OH231690   0.353   4.585   1.853  0.1908  0.3286 -0.1826
 3352TIP3    H131691   0.423   4.521   1.844 -0.3777 -0.1489 -1.6450
 3352TIP3    H231692   0.396   4.670   1.841  0.8569  0.2090  1.2134
 3353TIP3   OH231693   1.924   6.513   6.748 -0.4495 -0.1117  0.4342
 3353TIP3    H131694   1.940   6.604   6.724 -1.3721  0.5911  2.2458
 3353TIP3    H231695   1.833   6.497   6.722 -0.0317 -0.8165 -0.6564
 3354TIP3   OH231696   6.386   2.007   0.320  0.1985 -0.8275  0.2614
 3354TIP3    H131697   6.447   2.014   0.247 -1.6182  0.3437 -1.2676
 3354TIP3    H231698   6.418   1.935   0.373  2.0820 -1.1367 -1.2290
 3355TIP3   OH231699   5.378   4.926   0.657  0.0500  0.4589 -0.1038
 3355TIP3    H131700   5.287   4.894   0.660  0.6264 -1.2872  2.1693
 3355TIP3    H231701   5.408   4.921   0.748  3.3488 -2.0509 -1.1105
 3356TIP3   OH231702   1.846   0.245   7.436  0.2544  0.4194 -0.2720
 3356TIP3    H131703   1.826   0.237   7.530  0.4078 -0.4286 -0.3011
 3356TIP3    H231704   1.769   0.209   7.392  0.6292 -0.1867 -0.4438
 3357TIP3   OH231705   4.993   5.246   1.710  0.2894  0.1408  0.0450
 3357TIP3    H131706   4.963   5.246   1.801 -0.3894  1.7190 -0.1338
 3357TIP3    H231707   5.047   5.325   1.703 -1.6645  1.4358 -1.4665
 3358TIP3   OH231708   1.171   0.276   7.466  0.3198 -0.0860 -0.0825
 3358TIP3    H131709   1.092   0.311   7.508  0.2941  0.4825 -0.5991
 3358TIP3    H231710   1.231   0.350   7.462  1.0361 -0.6084  0.6549
 3359TIP3   OH231711   5.475   0.977   1.605  0.4550  0.2548 -0.1436
 3359TIP3    H131712   5.469   1.070   1.583  1.6272 -0.3117 -3.3387
 3359TIP3    H231713   5.569   0.960   1.612  0.2310 -0.5486  1.3578
 3360TIP3   OH231714   6.338   3.378   7.392 -0.6547 -0.1618  0.0897
 3360TIP3    H131715   6.430   3.354   7.407 -0.9457 -0.7766  1.0043
 3360TIP3    H231716   6.305   3.312   7.331 -0.1802  0.7677 -1.2016
 3361TIP3   OH231717   2.959   2.500   7.869 -0.2331 -0.1862 -0.3190
 3361TIP3    H131718   2.903   2.491   7.945  1.6167 -0.8156  1.0353
 3361TIP3    H231719   2.936   2.585   7.832 -0.7404  0.4281  1.3293
 3362TIP3   OH231720   6.349   4.067   1.099 -0.9136  0.0960 -0.9037
 3362TIP3    H131721   6.336   3.975   1.075 -0.3542  0.0787 -1.1506
 3362TIP3    H231722   6.322   4.072   1.191  1.0077 -0.7651 -0.2479
 3363TIP3   OH231723   0.691   5.288   0.008  0.4505 -0.0841 -0.1504
 3363TIP3    H131724   0.735   5.208  -0.022  0.5415  0.0911 -0.4896
 3363TIP3    H231725   0.598   5.271  -0.007  0.3764 -0.5430  0.7788
 3364TIP3   OH231726   6.082   1.299   7.690 -0.8930  0.0375  0.2561
 3364TIP3    H131727   6.164   1.337   7.661 -2.0574  1.1073 -1.8630
 3364TIP3    H231728   6.021   1.314   7.618 -2.8462 -1.1212  1.5509
 3365TIP3   OH231729   4.055   2.377   0.066 -0.2029  0.0002  0.1876
 3365TIP3    H131730   4.027   2.363   0.156 -0.2128  0.6583  0.2881
 3365TIP3    H231731   4.148   2.398   0.072  0.2380 -1.6944 -0.1072
 3366TIP3   OH231732   2.595   4.512   8.091 -0.1641 -0.4320 -0.4377
 3366TIP3    H131733   2.568   4.421   8.104 -1.7654  0.0825  0.0492
 3366TIP3    H231734   2.585   4.528   7.997  1.0227 -1.0034 -0.6820
 3367TIP3   OH231735   2.738   2.418   8.660  0.5934  0.3654 -0.1012
 3367TIP3    H131736   2.808   2.455   8.713  2.1782 -0.5688 -1.4601
 3367TIP3    H231737   2.707   2.343   8.711  0.8146  0.5697  0.3403
 3368TIP3   OH231738   4.884   1.920   0.186 -0.4454 -0.0067  0.1719
 3368TIP3    H131739   4.933   1.839   0.171 -0.1765 -0.5567  3.3174
 3368TIP3    H231740   4.812   1.894   0.244 -0.5868  1.9565  0.9531
 3369TIP3   OH231741   1.275   6.444   0.824 -0.3552  0.4189  0.1831
 3369TIP3    H131742   1.235   6.527   0.851  0.8132  0.6355  1.3402
 3369TIP3    H231743   1.369   6.463   0.818 -0.0773 -0.7945  0.3627
 3370TIP3   OH231744   4.514   4.716   7.150  0.3490  0.3443  0.0021
 3370TIP3    H131745   4.545   4.716   7.240  1.6854  0.6946 -0.4373
 3370TIP3    H231746   4.501   4.623   7.129 -4.0711  0.3101  1.8362
 3371TIP3   OH231747   1.644   0.953   2.048  0.1158 -0.1486  0.1710
 3371TIP3    H131748   1.556   0.984   2.067 -0.3831 -0.8255 -0.9950
 3371TIP3    H231749   1.643   0.931   1.955  1.3733 -0.6231  0.2510
 3372TIP3   OH231750   2.599   2.033   7.633  0.3710 -0.4326 -0.5010
 3372TIP3    H131751   2.504   2.034   7.633  0.3544 -1.2069  0.0530
 3372TIP3    H231752   2.623   1.971   7.701  1.3430  2.7252  2.2954
 3373TIP3   OH231753   3.015   4.707   7.255 -0.2228  0.1519  0.1700
 3373TIP3    H131754   2.971   4.789   7.279  0.1624  0.2766  0.4499
 3373TIP3    H231755   2.958   4.639   7.291 -0.5063  0.2958  0.0003
 3374TIP3   OH231756   5.136   3.295   8.084 -0.4858  0.1249 -0.4741
 3374TIP3    H131757   5.133   3.218   8.027  0.8387  1.5963 -2.6870
 3374TIP3    H231758   5.188   3.359   8.035 -0.4741  2.0043  1.8223
 3375TIP3   OH231759   4.189   6.171   0.452 -0.4914 -0.1346 -0.8444
 3375TIP3    H131760   4.198   6.087   0.406  1.0670 -0.1052 -0.6557
 3375TIP3    H231761   4.163   6.147   0.541  0.8494 -0.5189 -0.5258
 3376TIP3   OH231762   5.075   6.287   8.205 -0.2449  0.1797 -0.8165
 3376TIP3    H131763   5.156   6.244   8.178  1.0924  2.7874 -1.2132
 3376TIP3    H231764   5.032   6.223   8.263  2.7513 -0.7802  0.5342
 3377TIP3   OH231765   2.639   4.281   8.254 -0.0255 -0.0278  0.3157
 3377TIP3    H131766   2.571   4.327   8.303 -0.0543  2.1723 -1.5935
 3377TIP3    H231767   2.721   4.325   8.278  0.2710 -0.4795  0.1527
 3378TIP3   OH231768   5.065   3.713   2.672  0.5524  0.0781 -0.1156
 3378TIP3    H131769   5.008   3.641   2.643 -1.8905  0.7715  2.5596
 3378TIP3    H231770   5.132   3.670   2.725  0.2388 -0.4118 -0.1076
 3379TIP3   OH231771   1.738   4.778   7.232  0.4549 -0.1210 -0.0108
 3379TIP3    H131772   1.761   4.788   7.325  0.8614  1.2877 -0.2358
 3379TIP3    H231773   1.642   4.777   7.232  0.4174  1.1884  0.3413
 3380TIP3   OH231774   0.516   4.374   2.502 -0.4800  0.2657  0.2497
 3380TIP3    H131775   0.481   4.441   2.443  2.6110  1.9540  0.1092
 3380TIP3    H231776   0.524   4.419   2.586  2.0738  0.3266  0.0344
 3381TIP3   OH231777   3.684   0.677   7.992  0.1463 -0.5995  0.0134
 3381TIP3    H131778   3.692   0.772   7.998 -1.1498 -0.1969 -2.8938
 3381TIP3    H231779   3.775   0.645   7.995  0.6119  0.7197  0.7168
 3382TIP3   OH231780   2.730   4.209   7.673 -0.0633 -0.4612 -0.4853
 3382TIP3    H131781   2.742   4.189   7.765 -0.1190  2.0287  0.1389
 3382TIP3    H231782   2.813   4.185   7.632  0.5536 -0.1072  0.5164
 3383TIP3   OH231783   0.540   2.460   2.384  0.4005  0.4572  0.5081
 3383TIP3    H131784   0.445   2.468   2.380  0.2909 -0.8754 -0.0135
 3383TIP3    H231785   0.568   2.530   2.444 -0.9135  0.7141  0.8410
 3384TIP3   OH231786   2.496   1.982   6.309 -0.3931  0.0839  0.2422
 3384TIP3    H131787   2.483   1.904   6.363  0.4152 -0.3539 -0.1699
 3384TIP3    H231788   2.588   1.979   6.285 -0.0198  1.8635  1.2659
 3385TIP3   OH231789   2.899   6.325   0.624  0.6056  0.2048  0.1395
 3385TIP3    H131790   2.920   6.233   0.641  0.9298  0.4522  1.1213
 3385TIP3    H231791   2.823   6.322   0.566 -1.0731 -0.6957  2.2691
 3386TIP3   OH231792   3.188   0.946   7.294  0.1962 -0.8257  0.2340
 3386TIP3    H131793   3.211   0.931   7.386 -0.1003 -2.0065  0.1225
 3386TIP3    H231794   3.256   0.900   7.245  1.2639  1.1074 -0.1835
 3387TIP3   OH231795   4.727   1.931   1.871 -0.2811 -0.5243 -0.4968
 3387TIP3    H131796   4.702   2.011   1.917 -0.0698 -2.0025  2.4302
 3387TIP3    H231797   4.823   1.931   1.875 -0.2865 -0.9803 -0.3747
 3388TIP3   OH231798   4.817   4.978   7.921 -0.4841 -0.3950  0.2434
 3388TIP3    H131799   4.797   4.888   7.897  1.1266 -0.9245  0.7477
 3388TIP3    H231800   4.876   4.970   7.996 -0.9431  1.1029  0.7929
 3389TIP3   OH231801   1.661   0.110   7.306 -0.2322 -0.0498 -0.3952
 3389TIP3    H131802   1.603   0.105   7.382 -0.8981 -1.2917 -0.9422
 3389TIP3    H231803   1.619   0.053   7.241  2.9928 -3.4358  0.1504
 3390TIP3   OH231804   1.869   6.289   7.488 -0.1612  0.3321  0.3236
 3390TIP3    H131805   1.792   6.236   7.505 -0.7242  1.5374  1.6934
 3390TIP3    H231806   1.834   6.375   7.465  0.7550  1.0263  1.4196
 3391TIP3   OH231807   4.440   2.876   8.673  0.3792  0.0655  0.1451
 3391TIP3    H131808   4.415   2.855   8.583 -2.1128 -1.3711  1.0490
 3391TIP3    H231809   4.404   2.964   8.688  0.0026 -0.0627  0.0038
 3392TIP3   OH231810   0.409   3.230   8.506 -0.1135  0.7646 -0.1138
 3392TIP3    H131811   0.472   3.222   8.435  0.1649 -2.0725  0.3173
 3392TIP3    H231812   0.335   3.177   8.478  0.1543 -0.7322  1.7990
 3393TIP3   OH231813   1.109   0.267   8.632 -0.0836  0.1675  0.5091
 3393TIP3    H131814   1.176   0.217   8.586 -1.2641 -3.1074  2.0886
 3393TIP3    H231815   1.137   0.268   8.723 -1.9259 -0.9697  1.1458
 3394TIP3   OH231816   2.548   2.721   6.692 -0.1254 -0.0283  0.5219
 3394TIP3    H131817   2.499   2.799   6.664  0.4188  0.4596  0.9027
 3394TIP3    H231818   2.493   2.680   6.758 -0.1708  0.3380  0.7132
 3395TIP3   OH231819   6.850   4.788   6.659  0.3996  0.8833  0.6940
 3395TIP3    H131820   6.816   4.861   6.608  2.0685  0.7329 -0.7119
 3395TIP3    H231821   6.836   4.711   6.604  0.2898  0.4070  1.3792
 3396TIP3   OH231822   1.189   4.888   7.970 -0.1755  0.1276  0.0906
 3396TIP3    H131823   1.180   4.794   7.953 -0.2921  0.2214 -0.3868
 3396TIP3    H231824   1.184   4.896   8.065  1.5271 -0.5320  0.2697
 3397TIP3   OH231825   4.564   6.370   1.475 -0.7492 -0.2343 -0.0851
 3397TIP3    H131826   4.539   6.291   1.523 -0.5461  0.9628  2.1336
 3397TIP3    H231827   4.658   6.361   1.460 -1.1118 -1.4369 -1.9763
 3398TIP3   OH231828   6.150   5.552   7.222 -0.2796  0.7429 -0.4788
 3398TIP3    H131829   6.220   5.502   7.179 -0.4203 -1.0965  1.2773
 3398TIP3    H231830   6.070   5.502   7.203 -0.6480  1.0944  0.1196
 3399TIP3   OH231831   3.645   5.904   8.632  0.0417 -0.0563  0.5981
 3399TIP3    H131832   3.731   5.865   8.617 -0.0601 -0.2382  0.4699
 3399TIP3    H231833   3.651   5.944   8.719  0.5966  0.8947  0.1336
 3400TIP3   OH231834   1.149   2.885   0.019  0.1715  0.1309 -0.4910
 3400TIP3    H131835   1.097   2.841  -0.049  1.1534  2.4108 -2.8689
 3400TIP3    H231836   1.235   2.843   0.014 -0.2068 -0.7838  0.4956
 3401TIP3   OH231837   4.765   3.218   1.993 -0.0683 -0.4044 -0.4245
 3401TIP3    H131838   4.682   3.207   2.040  0.2463  3.2922  1.3624
 3401TIP3    H231839   4.742   3.263   1.912  0.0746 -0.7114 -0.6395
 3402TIP3   OH231840   2.161   2.172   0.984 -0.0642  0.3251  0.5118
 3402TIP3    H131841   2.077   2.210   1.006  0.5075  1.5221  0.7012
 3402TIP3    H231842   2.143   2.079   0.971 -1.3802  0.5475  0.6596
 3403TIP3   OH231843   0.277   0.061   1.758  1.0118  0.0768  0.1394
 3403TIP3    H131844   0.310   0.045   1.670  0.0313  0.6124 -0.3409
 3403TIP3    H231845   0.332   0.133   1.791  1.5665 -0.3136  0.0862
 3404TIP3   OH231846   0.907   5.299   2.535 -0.5430  0.3110 -0.0736
 3404TIP3    H131847   0.827   5.349   2.550  0.3369  1.6370  0.3255
 3404TIP3    H231848   0.961   5.315   2.613  0.4554  0.1330 -0.7029
 3405TIP3   OH231849   1.180   0.934   1.425 -0.2591  0.2694 -0.3174
 3405TIP3    H131850   1.220   0.847   1.427  0.3839  0.5723  0.5938
 3405TIP3    H231851   1.138   0.939   1.339 -2.4614 -1.8935  0.5091
 3406TIP3   OH231852   2.493   1.296   8.796  0.0341  0.5385  0.3319
 3406TIP3    H131853   2.486   1.201   8.783  1.7642  0.3476  0.4990
 3406TIP3    H231854   2.412   1.320   8.841 -1.3397 -0.5090 -1.4375
 3407TIP3   OH231855   4.589   0.532   1.481 -0.9252 -0.3002  0.1620
 3407TIP3    H131856   4.514   0.502   1.533 -0.2742 -0.6783  0.8970
 3407TIP3    H231857   4.661   0.540   1.544 -0.3811  0.2146 -0.5041
 3408TIP3   OH231858   3.062   4.583   0.062 -0.1296 -0.1119 -0.2820
 3408TIP3    H131859   3.092   4.607  -0.026  1.5121  1.9676  0.7471
 3408TIP3    H231860   3.089   4.492   0.073  0.0493 -0.2610 -1.7515
 3409TIP3   OH231861   5.384   5.024   8.385  0.2202 -0.2959 -0.0546
 3409TIP3    H131862   5.328   4.986   8.317  1.7593 -0.7005 -1.1401
 3409TIP3    H231863   5.323   5.046   8.456 -1.2679 -0.9770 -1.0609
 3410TIP3   OH231864   5.730   0.328   0.165  0.2762  0.4850 -0.2228
 3410TIP3    H131865   5.635   0.320   0.157  0.1149  2.3561 -0.5757
 3410TIP3    H231866   5.762   0.335   0.075  0.5263  1.8198 -0.0509
 3411TIP3   OH231867   4.079   5.730   1.548 -0.2513  0.0032 -0.3405
 3411TIP3    H131868   3.989   5.735   1.581  0.0436 -0.8181  0.6406
 3411TIP3    H231869   4.110   5.644   1.576  1.5754  1.1048  1.2978
 3412TIP3   OH231870   0.989   4.282   7.947  0.8943 -0.2277  0.5302
 3412TIP3    H131871   0.978   4.271   7.853 -0.8066  0.4938  0.6155
 3412TIP3    H231872   1.058   4.348   7.954  0.8347 -0.0705 -0.2167
 3413TIP3   OH231873   6.694   4.672   0.088  0.3592 -0.4742 -0.4450
 3413TIP3    H131874   6.615   4.649   0.040 -0.5711  1.2579  0.1867
 3413TIP3    H231875   6.664   4.729   0.158  1.8551 -1.7859  1.3865
 3414TIP3   OH231876   6.345   2.516   0.713  0.4490 -0.2099  0.2231
 3414TIP3    H131877   6.251   2.499   0.714  0.2742  0.6364 -0.6029
 3414TIP3    H231878   6.355   2.600   0.758  0.9412 -0.8535  1.3396
 3415TIP3   OH231879   3.827   1.936   6.442 -0.7785 -0.0734 -0.3021
 3415TIP3    H131880   3.748   1.881   6.444 -0.0167 -1.2507  2.0921
 3415TIP3    H231881   3.806   2.010   6.498 -0.5335  0.1413 -0.4926
 3416TIP3   OH231882   2.551   2.044   8.115 -0.0227  0.4121  0.5493
 3416TIP3    H131883   2.640   2.077   8.126 -0.3949  1.2586  1.1366
 3416TIP3    H231884   2.554   1.995   8.033  1.2070 -0.3806  1.0410
 3417TIP3   OH231885   0.049   4.668   8.296  0.3924 -0.1913  0.3391
 3417TIP3    H131886   0.033   4.598   8.358  1.8856  0.0727  1.0619
 3417TIP3    H231887   0.143   4.666   8.280  0.2435  0.6438 -0.8504
 3418TIP3   OH231888   6.619   2.445   8.362 -0.4868  0.2880  0.2216
 3418TIP3    H131889   6.588   2.534   8.351  0.0332  0.5364  0.6888
 3418TIP3    H231890   6.548   2.400   8.408 -0.6448  0.5320  0.2138
 3419TIP3   OH231891   2.283   1.817   1.214 -0.2401 -0.3837  0.0421
 3419TIP3    H131892   2.377   1.832   1.200  0.4787 -2.6706  1.9104
 3419TIP3    H231893   2.273   1.814   1.309 -2.0811 -0.9166 -0.1394
 3420TIP3   OH231894   4.555   5.031   6.183  0.4786 -0.0019  0.1848
 3420TIP3    H131895   4.607   5.095   6.134  0.0895  1.0743  1.1350
 3420TIP3    H231896   4.465   5.061   6.174  0.4399  0.5499  1.9728
 3421TIP3   OH231897   0.151   5.772   1.107  0.2036 -0.4204  0.2882
 3421TIP3    H131898   0.156   5.729   1.193 -0.8899 -0.4229  0.3676
 3421TIP3    H231899   0.088   5.842   1.119  0.8037  0.2251 -0.2594
 3422TIP3   OH231900   5.495   1.282   0.726 -0.8776  0.2049  0.2039
 3422TIP3    H131901   5.409   1.319   0.748 -0.1241  1.1247  1.8091
 3422TIP3    H231902   5.475   1.200   0.682 -2.5911  0.5149  0.3330
 3423TIP3   OH231903   5.580   5.442   8.331  0.0885 -0.0683 -0.0629
 3423TIP3    H131904   5.648   5.473   8.272 -0.8893  0.8931 -0.7048
 3423TIP3    H231905   5.511   5.507   8.326 -1.3144 -1.4933 -0.1638
 3424TIP3   OH231906   6.523   0.735   7.134  0.2154 -0.1608  0.3924
 3424TIP3    H131907   6.433   0.759   7.109  0.5394  0.5685 -0.1246
 3424TIP3    H231908   6.567   0.719   7.050  1.3700  2.4487  0.4126
 3425TIP3   OH231909   0.376   0.080   0.487  0.4876 -0.5515  0.6062
 3425TIP3    H131910   0.300   0.043   0.443  2.0680 -0.9959 -1.9664
 3425TIP3    H231911   0.368   0.175   0.474  0.4605 -0.6129  0.1540
 3426TIP3   OH231912   0.764   6.389   7.078  0.5408  0.0150 -0.4968
 3426TIP3    H131913   0.683   6.377   7.126  0.5250 -0.4965 -0.6430
 3426TIP3    H231914   0.757   6.329   7.003  1.0134  0.0266 -0.5557
 3427TIP3   OH231915   0.118   5.847   6.736  0.3328  0.0653 -0.6105
 3427TIP3    H131916   0.042   5.889   6.697  0.2910 -0.5628 -1.2265
 3427TIP3    H231917   0.147   5.784   6.670  0.3271 -0.9492  0.3268
 3428TIP3   OH231918   0.410   3.781   6.941 -0.0566  0.0544  0.5248
 3428TIP3    H131919   0.387   3.736   7.023  0.7631  0.2716  0.8817
 3428TIP3    H231920   0.477   3.725   6.902 -0.4188 -0.0287  0.0092
 3429TIP3   OH231921   4.232   2.110   0.326 -0.6481  0.1164 -0.1202
 3429TIP3    H131922   4.210   2.174   0.258 -0.7611 -0.8910 -1.0650
 3429TIP3    H231923   4.257   2.163   0.401  0.2233  1.2719 -1.1770
 3430TIP3   OH231924   2.494   3.454   0.142  0.0981  0.0650  0.6651
 3430TIP3    H131925   2.583   3.433   0.171 -0.4202 -0.7001  1.8007
 3430TIP3    H231926   2.471   3.531   0.193  0.9793  1.8332 -1.4613
 3431TIP3   OH231927   2.873   6.667   8.375  0.0195 -0.6261 -0.6005
 3431TIP3    H131928   2.902   6.757   8.388  1.6582 -1.0582 -1.0524
 3431TIP3    H231929   2.871   6.630   8.463  0.5107 -0.4810 -0.5242
 3432TIP3   OH231930   5.443   0.344   2.327  0.5354  0.0889 -0.1992
 3432TIP3    H131931   5.452   0.257   2.365  0.2267 -0.4196 -1.2652
 3432TIP3    H231932   5.373   0.385   2.378 -0.2909 -0.7986 -0.5988
 3433TIP3   OH231933   4.272   6.292   7.617  0.3025  0.1310 -0.2278
 3433TIP3    H131934   4.335   6.306   7.546  0.2978  2.3918  0.1372
 3433TIP3    H231935   4.302   6.350   7.687 -1.4155  0.2279  0.4629
 3434TIP3   OH231936   5.093   3.822   7.024  0.1197  0.0258  0.1590
 3434TIP3    H131937   5.134   3.907   7.011  0.1152  0.0819  0.5080
 3434TIP3    H231938   5.165   3.759   7.019  0.5951  0.2728  2.7692
 3435TIP3   OH231939   6.080   4.173   6.748 -0.3419 -0.2136 -0.0325
 3435TIP3    H131940   6.028   4.093   6.742 -0.2867 -0.1766 -1.1603
 3435TIP3    H231941   6.166   4.149   6.716 -0.5687  0.4958 -1.2277
 3436TIP3   OH231942   0.080   4.900   0.789  0.7135  0.0521 -0.2284
 3436TIP3    H131943   0.101   4.923   0.880  0.3565  2.5770 -0.7254
 3436TIP3    H231944   0.000   4.949   0.770 -0.6902 -2.4135 -1.1760
 3437TIP3   OH231945   0.416   2.287   7.870 -0.0754  0.0709  0.8862
 3437TIP3    H131946   0.473   2.259   7.798  0.0424  1.0472  0.5893
 3437TIP3    H231947   0.420   2.382   7.868  0.0393  0.1134  2.2887
 3438TIP3   OH231948   5.519   1.060   0.922  0.0230 -0.1526  0.3596
 3438TIP3    H131949   5.556   1.115   0.991  1.7633  1.4402 -1.7179
 3438TIP3    H231950   5.518   1.115   0.845  0.4904 -2.5865 -1.5247
 3439TIP3   OH231951   5.531   1.726   8.736  0.5345  0.0882  0.3909
 3439TIP3    H131952   5.566   1.700   8.821 -0.4909  1.8512  1.4327
 3439TIP3    H231953   5.605   1.767   8.691  0.7912  0.2327  0.9329
 3440TIP3   OH231954   4.307   1.790   7.037  0.2391 -0.4997 -0.2145
 3440TIP3    H131955   4.330   1.837   6.957 -1.0716 -1.3847 -1.1727
 3440TIP3    H231956   4.388   1.746   7.063  0.9927  0.7612 -0.3455
 3441TIP3   OH231957   2.816   0.554   1.759 -0.1527 -0.4409 -0.6862
 3441TIP3    H131958   2.738   0.531   1.709  0.5084  0.5411 -2.2524
 3441TIP3    H231959   2.841   0.640   1.726  1.0314 -0.3017  0.4916
 3442TIP3   OH231960   0.144   0.063   6.264  0.2302 -0.2885  0.1709
 3442TIP3    H131961   0.156   0.101   6.176  1.0190  0.2834  0.5081
 3442TIP3    H231962   0.206  -0.010   6.267 -0.6543 -1.0761 -0.1607
 3443TIP3   OH231963   2.361   1.726   1.869 -0.4422  0.0814 -0.4102
 3443TIP3    H131964   2.450   1.719   1.905  0.1486  0.0401 -1.7936
 3443TIP3    H231965   2.310   1.664   1.920  0.8338 -1.5100 -0.9627
 3444TIP3   OH231966   6.757   6.496   7.697 -0.3539 -0.0090  0.4224
 3444TIP3    H131967   6.663   6.490   7.716 -0.2556 -0.2111  0.8668
 3444TIP3    H231968   6.799   6.451   7.771  0.0971  0.1719  0.2784
 3445TIP3   OH231969   6.727   3.068   2.565  0.2163  0.3150 -0.0987
 3445TIP3    H131970   6.820   3.054   2.550  0.1943  0.7805 -0.7409
 3445TIP3    H231971   6.683   3.003   2.510  0.1616 -0.0009  0.3157
 3446TIP3   OH231972   5.828   6.527   8.470  0.5852  0.0435  0.0540
 3446TIP3    H131973   5.824   6.609   8.420  0.6842 -0.4905 -0.8508
 3446TIP3    H231974   5.780   6.546   8.551 -0.3110  0.6722 -0.6044
 3447TIP3   OH231975   4.732   0.624   7.039 -0.0532  0.1868 -0.2552
 3447TIP3    H131976   4.699   0.671   6.962 -0.7698  3.5175  1.8913
 3447TIP3    H231977   4.817   0.663   7.057  0.6537 -1.3890  0.0582
 3448TIP3   OH231978   3.940   3.514   8.265  0.0370  0.4306  0.2689
 3448TIP3    H131979   3.976   3.502   8.352 -2.2762  0.9887  1.3730
 3448TIP3    H231980   3.854   3.473   8.268  0.6727 -1.3652 -2.4086
 3449TIP3   OH231981   2.851   4.503   7.569 -0.0068 -0.2838  0.2398
 3449TIP3    H131982   2.934   4.544   7.592 -0.6024  0.7740  0.5956
 3449TIP3    H231983   2.861   4.412   7.594  0.8137 -0.0282  0.8874
 3450TIP3   OH231984   6.498   3.621   0.530 -0.1174  0.6326 -0.4992
 3450TIP3    H131985   6.453   3.614   0.446 -0.2225 -1.7971 -0.3270
 3450TIP3    H231986   6.591   3.631   0.507 -0.3935  2.8687 -0.8462
 3451TIP3   OH231987   2.122   3.244   1.971 -0.0294  0.3214 -0.8610
 3451TIP3    H131988   2.192   3.228   1.908  0.0355 -0.4975 -0.5863
 3451TIP3    H231989   2.163   3.234   2.057  0.4033  3.5198 -0.5799
 3452TIP3   OH231990   1.055   0.984   1.705 -0.2893  0.2297 -0.3511
 3452TIP3    H131991   1.106   0.970   1.625  0.8816  0.8215  0.2745
 3452TIP3    H231992   0.967   1.005   1.673  0.4104  1.5646 -1.5387
 3453TIP3   OH231993   6.561   1.622   1.463 -0.4476  0.6420 -0.5445
 3453TIP3    H131994   6.527   1.533   1.458 -0.8153  0.5880  1.9576
 3453TIP3    H231995   6.656   1.612   1.463 -0.4562  0.0062  1.9177
 3454TIP3   OH231996   2.205   5.551   0.818  0.4258 -0.0915  0.2722
 3454TIP3    H131997   2.272   5.508   0.764  1.0029  2.4437 -1.2145
 3454TIP3    H231998   2.178   5.627   0.766 -1.9748  0.2497  1.8569
 3455TIP3   OH231999   0.880   0.689   7.394  0.1335  0.9033 -0.3773
 3455TIP3    H132000   0.905   0.639   7.472  1.2541  1.6240 -0.2439
 3455TIP3    H232001   0.960   0.693   7.342 -0.5221  0.7113 -1.4150
 3456TIP3   OH232002   2.478   4.425   8.425  0.2875 -0.1024 -0.7527
 3456TIP3    H132003   2.393   4.419   8.380 -0.2119 -1.3872  0.3057
 3456TIP3    H232004   2.461   4.484   8.499  0.7894  1.0214 -1.5087
 3457TIP3   OH232005   2.813   1.409   6.858 -0.3110  0.5455  0.5722
 3457TIP3    H132006   2.742   1.413   6.921 -0.4444  0.9435  0.4024
 3457TIP3    H232007   2.888   1.377   6.908 -0.5922  0.1874  0.7653
 3458TIP3   OH232008   5.125   1.537   0.921 -0.4714 -0.3572 -0.7615
 3458TIP3    H132009   5.079   1.621   0.930 -1.4066 -0.9863  0.6812
 3458TIP3    H232010   5.218   1.560   0.926 -0.7149  0.5815 -0.2426
 3459TIP3   OH232011   5.198   6.147   6.572 -0.2586 -0.3412  0.2425
 3459TIP3    H132012   5.245   6.151   6.488 -0.3991  0.4763  0.1959
 3459TIP3    H232013   5.115   6.191   6.555 -0.4140 -0.4390  0.7336
 3460TIP3   OH232014   1.168   5.815   8.000 -0.0255 -0.0026 -0.2776
 3460TIP3    H132015   1.260   5.824   8.024 -0.0193 -0.0962 -0.2692
 3460TIP3    H232016   1.155   5.722   7.986 -0.2579 -0.0572  0.2834
 3461TIP3   OH232017   4.355   0.577   7.656 -0.1584  0.0669  0.1323
 3461TIP3    H132018   4.273   0.528   7.658  0.4317 -0.9193  1.4103
 3461TIP3    H232019   4.354   0.629   7.736  1.5102 -1.8220  1.4989
 3462TIP3   OH232020   5.116   0.032   7.827  0.0412 -0.1237  1.1404
 3462TIP3    H132021   5.098  -0.041   7.886 -1.4371 -1.9008 -1.3099
 3462TIP3    H232022   5.113  -0.007   7.740  1.4158  2.4998 -0.1814
 3463TIP3   OH232023   3.490   0.523   7.754 -0.4603 -0.0751 -0.2663
 3463TIP3    H132024   3.404   0.559   7.776 -0.6310  1.3597 -2.9039
 3463TIP3    H232025   3.511   0.464   7.827 -3.0012  0.6412  1.1508
 3464TIP3   OH232026   3.345   6.446   1.850  0.2184 -0.0421  0.6111
 3464TIP3    H132027   3.416   6.438   1.786 -0.1588 -1.6556  0.3472
 3464TIP3    H232028   3.353   6.535   1.884  0.4389  0.8825 -1.6777
 3465TIP3   OH232029   3.898   2.895   0.867  0.2731  0.3702 -0.6769
 3465TIP3    H132030   3.829   2.846   0.912  0.7939  0.0065 -0.2774
 3465TIP3    H232031   3.970   2.900   0.929  1.6330 -1.5202 -1.9801
 3466TIP3   OH232032   2.339   2.485   1.640 -0.0725  0.3557  0.3440
 3466TIP3    H132033   2.348   2.574   1.674  1.1434  0.1999  0.4631
 3466TIP3    H232034   2.403   2.434   1.690  0.4190 -0.2483 -0.8793
 3467TIP3   OH232035   0.153   5.951   0.867  0.4321 -0.6025 -0.2459
 3467TIP3    H132036   0.166   6.024   0.928  0.4216 -1.6514  1.0541
 3467TIP3    H232037   0.181   5.874   0.916 -0.9956 -1.6718 -1.0393
 3468TIP3   OH232038   4.477   5.697   0.865  0.0205 -0.2890  0.3609
 3468TIP3    H132039   4.486   5.780   0.912 -2.4633 -0.5860  1.5618
 3468TIP3    H232040   4.465   5.632   0.934 -2.4403 -0.9406 -0.5843
 3469TIP3   OH232041   0.971   4.592   8.058  0.3389 -0.4308  0.0770
 3469TIP3    H132042   1.026   4.665   8.087  1.7285 -1.8769  1.2155
 3469TIP3    H232043   0.884   4.631   8.048  1.3382  1.7255 -0.9055
 3470TIP3   OH232044   6.007   1.999   7.888  0.0375 -0.2511 -0.2577
 3470TIP3    H132045   5.972   2.009   7.799 -0.4408 -0.9528 -0.1523
 3470TIP3    H232046   6.032   1.907   7.895  2.3840  0.2928 -0.4835
 3471TIP3   OH232047   2.662   3.444   8.174 -0.3599  0.2375  0.4701
 3471TIP3    H132048   2.621   3.364   8.207  0.8064 -0.1228  1.0885
 3471TIP3    H232049   2.664   3.503   8.249  1.5753 -0.2983  0.9056
 3472TIP3   OH232050   3.887   4.235   2.098  0.1162  0.1427  0.5229
 3472TIP3    H132051   3.926   4.160   2.143 -1.1441 -1.3070 -0.6776
 3472TIP3    H232052   3.810   4.258   2.150  0.8136  1.0137  1.2041
 3473TIP3   OH232053   0.545   0.993   7.649 -0.4369 -0.0594 -0.4996
 3473TIP3    H132054   0.620   0.984   7.591  0.4507  0.1219  0.5841
 3473TIP3    H232055   0.563   1.073   7.699 -0.1992 -1.2133  1.3515
 3474TIP3   OH232056   3.260   2.487   1.404 -0.2078 -0.1038 -0.2081
 3474TIP3    H132057   3.312   2.494   1.324 -1.8309 -0.8175 -1.3615
 3474TIP3    H232058   3.235   2.395   1.409 -0.9156  0.1205  0.6182
 3475TIP3   OH232059   5.309   0.601   8.284 -0.2638  0.1033 -0.7702
 3475TIP3    H132060   5.307   0.600   8.188  0.6756 -2.1659 -0.8157
 3475TIP3    H232061   5.262   0.522   8.310  0.1012  0.3227  0.6243
 3476TIP3   OH232062   3.581   1.317   8.188 -0.1233 -0.3719 -0.1634
 3476TIP3    H132063   3.596   1.254   8.118  1.4033 -0.4266  0.1857
 3476TIP3    H232064   3.547   1.395   8.144 -0.9452 -1.0316 -0.7297
 3477TIP3   OH232065   1.384   3.165   0.506  0.4190 -0.6686  0.0451
 3477TIP3    H132066   1.457   3.206   0.459 -0.1643 -0.3791 -0.6330
 3477TIP3    H232067   1.375   3.216   0.587 -0.2099  0.4959 -0.7263
 3478TIP3   OH232068   5.558   0.299   0.510  0.0263  0.2568  0.1411
 3478TIP3    H132069   5.514   0.344   0.437  0.4673  1.9022  0.8281
 3478TIP3    H232070   5.602   0.225   0.470  0.3410  1.1895 -1.2923
 3479TIP3   OH232071   3.082   3.729   0.564  0.3598  0.5540 -0.1919
 3479TIP3    H132072   3.047   3.762   0.482  1.2369 -0.4583 -0.9941
 3479TIP3    H232073   3.171   3.700   0.543  1.5869  2.5907  1.6524
 3480TIP3   OH232074   5.689   6.484   7.658  0.0557  0.1142  0.3648
 3480TIP3    H132075   5.708   6.436   7.738  1.2668  1.6031  1.0194
 3480TIP3    H232076   5.647   6.565   7.687  0.1466  0.4923 -0.5100
 3481TIP3   OH232077   5.920   5.853   1.860 -0.7554 -0.1916 -0.9784
 3481TIP3    H132078   5.863   5.827   1.933  0.6291  0.5358  0.4081
 3481TIP3    H232079   5.964   5.773   1.834 -1.0392 -0.4018 -0.8186
 3482TIP3   OH232080   3.416   2.028   0.639  0.4112  0.4428  0.1011
 3482TIP3    H132081   3.359   1.998   0.710  0.7358  1.2096  0.6982
 3482TIP3    H232082   3.456   1.947   0.606  0.4012  0.0935  0.9114
 3483TIP3   OH232083   1.311   2.553   7.037  0.9498  0.0707  0.2345
 3483TIP3    H132084   1.397   2.522   7.011  1.8178  2.1784  0.3551
 3483TIP3    H232085   1.279   2.601   6.960 -0.8512 -1.9510 -0.3791
 3484TIP3   OH232086   1.980   1.648   7.220 -0.7936 -0.1094 -0.4472
 3484TIP3    H132087   1.938   1.692   7.294 -0.6248 -1.5879  0.5685
 3484TIP3    H232088   1.982   1.556   7.244 -0.8300 -0.6598 -2.3626
 3485TIP3   OH232089   1.389   2.346   8.648 -0.2955 -0.0825 -0.4971
 3485TIP3    H132090   1.395   2.260   8.690 -0.0092 -0.9222 -2.2052
 3485TIP3    H232091   1.438   2.337   8.566  0.8355  2.0918 -0.1387
 3486TIP3   OH232092   2.672   2.603   1.767  0.7497 -0.6501  0.0066
 3486TIP3    H132093   2.695   2.694   1.752  2.0174 -0.9848 -0.1383
 3486TIP3    H232094   2.577   2.605   1.783  0.8652  0.7694  0.6893
 3487TIP3   OH232095   1.697   2.387   1.240  0.2070 -0.5118 -0.4098
 3487TIP3    H132096   1.658   2.309   1.203  0.2183  0.1263 -1.8236
 3487TIP3    H232097   1.623   2.438   1.274 -0.1759  0.3568 -2.4283
 3488TIP3   OH232098   5.382   0.857   7.487  0.2083 -0.6671  0.0264
 3488TIP3    H132099   5.400   0.778   7.538 -1.0691 -0.4183  0.8986
 3488TIP3    H232100   5.342   0.918   7.549  3.9401  1.9493  0.2517
 3489TIP3   OH232101   5.773   0.988   7.481  0.3584  0.4997 -0.2644
 3489TIP3    H132102   5.865   0.984   7.505  0.3435  2.1695  0.1834
 3489TIP3    H232103   5.738   0.903   7.506  1.8593 -0.3369 -0.8603
 3490TIP3   OH232104   0.472   5.000   6.751 -0.0427 -0.7031  0.1962
 3490TIP3    H132105   0.496   4.949   6.829  0.3621 -2.3409 -0.9433
 3490TIP3    H232106   0.400   4.951   6.711 -1.2956  0.9419  0.3179
 3491TIP3   OH232107   4.146   2.907   1.336  0.3078  0.3190 -0.5717
 3491TIP3    H132108   4.165   2.831   1.390  1.5426  0.4788 -0.7604
 3491TIP3    H232109   4.058   2.890   1.302  0.7395 -1.2584 -1.0034
 3492TIP3   OH232110   0.228   5.303   2.872 -0.2210 -0.5940  0.5828
 3492TIP3    H132111   0.249   5.256   2.791 -2.2071 -2.2454  0.9671
 3492TIP3    H232112   0.141   5.340   2.856  0.3601  1.1206  1.1371
 3493TIP3   OH232113   2.428   2.478   0.966 -0.3829  0.3336  0.0329
 3493TIP3    H132114   2.345   2.511   0.933 -0.7605 -0.4554  0.1808
 3493TIP3    H232115   2.494   2.519   0.910 -0.8998  0.5696 -0.4084
 3494TIP3   OH232116   5.483   4.453   2.033  0.9393 -0.0064 -0.3876
 3494TIP3    H132117   5.469   4.542   2.000  2.9590  0.4840 -0.0491
 3494TIP3    H232118   5.557   4.461   2.094 -0.3061 -1.5333  1.4402
 3495TIP3   OH232119   1.631   1.902   6.987 -0.5329  0.2581 -0.1105
 3495TIP3    H132120   1.634   1.976   6.926  0.0644  0.8099  0.5690
 3495TIP3    H232121   1.723   1.884   7.006 -0.6719 -0.7166 -0.3304
 3496TIP3   OH232122   3.833   3.520   7.210 -0.1256  0.2174  0.0862
 3496TIP3    H132123   3.774   3.589   7.180 -1.5218  0.0210  2.1907
 3496TIP3    H232124   3.805   3.442   7.162 -1.0056  0.3199  0.4177
 3497TIP3   OH232125   1.690   0.593   2.004 -0.3361  0.0606 -0.1191
 3497TIP3    H132126   1.635   0.672   1.998  0.2221  0.4543 -0.1803
 3497TIP3    H232127   1.776   0.627   2.028  0.0681 -0.4694 -0.7818
 3498TIP3   OH232128   0.103   4.344   0.435 -0.0211  0.7138  0.2179
 3498TIP3    H132129   0.192   4.346   0.472 -0.0645  2.0294  0.3051
 3498TIP3    H232130   0.117   4.339   0.340  0.1309  0.3850  0.2547
 3499TIP3   OH232131   0.258   1.866   7.503  0.2786  0.3356 -1.4525
 3499TIP3    H132132   0.296   1.929   7.565 -0.2107 -0.8271  0.0987
 3499TIP3    H232133   0.310   1.877   7.423  1.2624  1.5405 -0.6958
 3500TIP3   OH232134   3.237   2.904   0.155  0.0135  0.4480  0.0280
 3500TIP3    H132135   3.233   2.903   0.251  0.2923  0.3884  0.0407
 3500TIP3    H232136   3.294   2.979   0.135 -1.2960  1.4325 -0.1462
 3501TIP3   OH232137   4.044   2.783   2.529  0.3234  0.2213 -0.1630
 3501TIP3    H132138   4.087   2.858   2.569 -0.0627  0.2654  0.1783
 3501TIP3    H232139   4.059   2.794   2.435  0.4350  0.6199 -0.1000
 3502TIP3   OH232140   3.519   2.095   1.516  0.5358 -0.7231 -0.1204
 3502TIP3    H132141   3.534   2.077   1.424  0.2018 -0.5630 -0.2062
 3502TIP3    H232142   3.581   2.165   1.538  0.3172 -0.4634 -0.3294
 3503TIP3   OH232143   4.834   1.827   1.227  0.2454 -0.1158 -0.5869
 3503TIP3    H132144   4.921   1.802   1.259 -0.7512 -1.3855  1.2962
 3503TIP3    H232145   4.813   1.907   1.276 -0.1374 -0.4929 -0.1306
 3504TIP3   OH232146   1.295   1.913   6.354  0.2149 -0.0411 -0.1488
 3504TIP3    H132147   1.364   1.846   6.349  1.4714  1.1908  0.0960
 3504TIP3    H232148   1.308   1.967   6.277 -1.0247 -0.2559 -0.5360
 3505TIP3   OH232149   4.232   1.943   8.151 -0.4129 -0.1854 -0.2369
 3505TIP3    H132150   4.168   1.872   8.148 -0.2633 -0.3114 -0.4507
 3505TIP3    H232151   4.190   2.011   8.204  0.1769 -1.1527  1.5621
 3506TIP3   OH232152   3.472   5.285   1.315 -0.6453  0.0558  0.2223
 3506TIP3    H132153   3.400   5.221   1.311 -1.2637  0.7747 -1.4968
 3506TIP3    H232154   3.532   5.257   1.247  1.1260 -0.9323  2.0998
 3507TIP3   OH232155   3.364   3.513   7.437  0.4518  0.1964 -0.3674
 3507TIP3    H132156   3.284   3.517   7.384  0.5077 -0.5439 -0.5167
 3507TIP3    H232157   3.360   3.592   7.491  0.0194  0.5812 -0.9419
 3508TIP3   OH232158   3.133   5.533   7.784  0.3251  0.0822 -0.5230
 3508TIP3    H132159   3.118   5.611   7.730  0.3399 -0.5243 -1.4172
 3508TIP3    H232160   3.173   5.567   7.864  1.5144  0.8696 -1.4175
 3509TIP3   OH232161   5.502   0.901   0.054  0.0139 -0.3464 -0.5083
 3509TIP3    H132162   5.563   0.971   0.079 -0.4406  0.1879 -0.8885
 3509TIP3    H232163   5.456   0.935  -0.023  0.5728 -1.5035 -1.3838
 3510TIP3   OH232164   6.454   6.235   0.576 -0.8708 -0.1610 -0.7318
 3510TIP3    H132165   6.473   6.154   0.624  1.3286 -0.2120 -1.5805
 3510TIP3    H232166   6.471   6.304   0.640  1.8008 -0.2418 -1.2287
 3511TIP3   OH232167   6.786   6.297   0.613 -0.4628  0.1779  0.1659
 3511TIP3    H132168   6.758   6.241   0.685 -1.3761 -0.6352 -0.7768
 3511TIP3    H232169   6.837   6.239   0.556  0.5145  0.8832  0.3024
 3512TIP3   OH232170   2.407   1.596   7.813  0.6506  0.2102 -0.8775
 3512TIP3    H132171   2.488   1.610   7.764  0.2647  0.6647 -1.4080
 3512TIP3    H232172   2.345   1.564   7.747  0.3359  0.0918 -0.5250
 3513TIP3   OH232173   0.426   6.636   0.568 -0.0876 -0.6217  0.5471
 3513TIP3    H132174   0.438   6.634   0.473 -2.9989 -0.1263  0.0704
 3513TIP3    H232175   0.465   6.719   0.596  2.5695 -1.6671  0.1491
 3514TIP3   OH232176   3.562   5.683   1.243 -0.7455 -0.0927  0.1337
 3514TIP3    H132177   3.611   5.602   1.253 -0.1360 -0.3857 -3.5914
 3514TIP3    H232178   3.472   5.660   1.268 -0.3212 -1.5154  0.4343
 3515TIP3   OH232179   3.489   2.245   6.920  0.9638  0.1501 -0.2897
 3515TIP3    H132180   3.542   2.265   6.844  0.3114  0.5675 -0.6487
 3515TIP3    H232181   3.464   2.331   6.955  2.5262 -0.0039  1.3224
 3516TIP3   OH232182   6.417   3.613   0.269 -0.0295  0.2044  0.1451
 3516TIP3    H132183   6.452   3.645   0.185 -1.1271  0.6414 -0.1659
 3516TIP3    H232184   6.325   3.641   0.269 -0.0772  0.1163  1.4550
 3517TIP3   OH232185   5.245   2.327   1.549 -0.0554 -0.1705 -0.0970
 3517TIP3    H132186   5.228   2.363   1.636  0.4502 -1.0985  0.4034
 3517TIP3    H232187   5.298   2.249   1.565 -1.7592 -1.6223 -1.0386
 3518TIP3   OH232188   0.615   5.590   8.333 -0.1534 -0.1218  0.4707
 3518TIP3    H132189   0.706   5.615   8.352 -0.0018 -1.1240  1.0991
 3518TIP3    H232190   0.594   5.638   8.252  1.7441 -1.6849 -1.0469
 3519TIP3   OH232191   0.149   6.511   6.876 -0.4539  0.2252 -0.5325
 3519TIP3    H132192   0.085   6.581   6.893 -0.2153  0.7627 -1.7595
 3519TIP3    H232193   0.224   6.535   6.931 -0.6768  0.5033 -0.3430
 3520TIP3   OH232194   1.850   0.360   1.884 -0.2625  0.1325  0.2596
 3520TIP3    H132195   1.792   0.361   1.808  0.1018  1.5498 -0.0258
 3520TIP3    H232196   1.815   0.427   1.942  0.1725 -0.1082  0.8160
 3521TIP3   OH232197   1.734   1.049   8.788  0.3618 -0.2462 -0.8295
 3521TIP3    H132198   1.642   1.077   8.787  0.2975 -0.4449 -0.5322
 3521TIP3    H232199   1.782   1.129   8.766  0.1652  0.0587 -0.1861
 3522TIP3   OH232200   6.148   1.073   6.697 -0.5015 -0.0632  0.2095
 3522TIP3    H132201   6.114   0.987   6.721 -1.3651  0.2561  0.1736
 3522TIP3    H232202   6.084   1.108   6.635  0.1182  0.3891 -0.1998
 3523TIP3   OH232203   5.290   0.920   1.271  0.1396  0.9589  0.3776
 3523TIP3    H132204   5.217   0.977   1.295 -0.4708 -0.3778  1.8668
 3523TIP3    H232205   5.302   0.934   1.177 -3.6066 -0.4386 -0.4939
 3524TIP3   OH232206   0.496   1.426   8.617 -0.2541  0.8235  0.3710
 3524TIP3    H132207   0.422   1.439   8.558 -0.8041 -1.5203  0.4482
 3524TIP3    H232208   0.469   1.466   8.699 -0.8362  1.2514 -0.0216
 3525TIP3   OH232209   4.853   2.856   2.831  0.0721 -0.4233  0.5072
 3525TIP3    H132210   4.865   2.895   2.918 -1.8610  0.4258  0.4561
 3525TIP3    H232211   4.938   2.865   2.788  0.0923  2.6777  0.9716
 3526TIP3   OH232212   0.062   0.952   1.565 -0.0331  0.0659 -0.4806
 3526TIP3    H132213   0.106   0.919   1.487  0.6781 -1.0447  0.3634
 3526TIP3    H232214  -0.005   0.886   1.584  0.1522  0.0516  0.1407
 3527TIP3   OH232215   0.189   4.977   7.664 -0.1639 -0.0879  0.0679
 3527TIP3    H132216   0.161   4.910   7.726  1.2938 -0.8428 -0.0440
 3527TIP3    H232217   0.281   4.993   7.686 -0.7332  2.7353  0.8370
 3528TIP3   OH232218   2.399   2.155   8.653 -0.2694  0.1174 -0.4420
 3528TIP3    H132219   2.421   2.220   8.587  0.0796  0.5617  0.1045
 3528TIP3    H232220   2.476   2.098   8.658  0.7795  1.5609  1.3341
 3529TIP3   OH232221   3.485   1.437   7.228  0.1516 -0.6782  0.1961
 3529TIP3    H132222   3.412   1.382   7.199 -1.0168  0.8795  0.0539
 3529TIP3    H232223   3.447   1.524   7.236  2.1138  0.2693 -0.3304
 3530TIP3   OH232224   3.245   5.211   7.326  0.3492  0.2853  0.2768
 3530TIP3    H132225   3.185   5.250   7.262  0.6938 -1.0796 -0.9502
 3530TIP3    H232226   3.332   5.227   7.290  0.6434  0.8492  1.2181
 3531TIP3   OH232227   0.068   1.229   6.637  0.2581  0.1889 -0.1250
 3531TIP3    H132228   0.122   1.163   6.680  0.9277  0.4724 -0.5136
 3531TIP3    H232229   0.105   1.236   6.549 -1.1090 -0.4147 -0.7767
 3532TIP3   OH232230   0.228   6.528   2.859 -0.6875 -0.6679 -0.0646
 3532TIP3    H132231   0.220   6.622   2.871  0.4097 -0.4311 -0.9660
 3532TIP3    H232232   0.216   6.491   2.947 -1.6052  0.2575  0.2177
 3533TIP3   OH232233   6.306   6.566   2.739 -0.2025 -0.2760  0.2022
 3533TIP3    H132234   6.353   6.577   2.822 -1.4315 -1.3480  1.0835
 3533TIP3    H232235   6.355   6.497   2.694 -0.6083 -1.0560  0.9088
 3534TIP3   OH232236   0.846   0.297   2.453  0.2009 -0.7012  0.6671
 3534TIP3    H132237   0.756   0.264   2.456 -0.8315  1.7385 -0.5072
 3534TIP3    H232238   0.860   0.320   2.361  2.3477 -1.7082  0.6713
 3535TIP3   OH232239   0.963   5.014   7.217  0.0593 -0.8772  0.0046
 3535TIP3    H132240   0.976   5.098   7.261 -1.5102 -0.5855 -0.0533
 3535TIP3    H232241   0.870   5.011   7.198  0.2240 -2.3129 -0.6721
 3536TIP3   OH232242   0.130   3.744   1.857  0.6422  0.1553  0.0136
 3536TIP3    H132243   0.155   3.739   1.764 -0.7637 -1.1073 -0.3502
 3536TIP3    H232244   0.213   3.747   1.904  1.4769 -1.8653 -1.1837
 3537TIP3   OH232245   6.412   5.928   1.011  0.5095  0.4416 -0.0258
 3537TIP3    H132246   6.392   6.021   1.023  0.0815  0.4754 -0.9598
 3537TIP3    H232247   6.460   5.904   1.091 -0.5056  1.1406  0.8303
 3538TIP3   OH232248   4.762   2.090   1.299 -0.3875  0.2363 -0.1846
 3538TIP3    H132249   4.798   2.156   1.240  0.2978 -0.1506 -0.1975
 3538TIP3    H232250   4.667   2.107   1.298 -0.5112 -0.3639 -2.1285
 3539TIP3   OH232251   1.797   5.424   0.914  0.2993 -0.1578  0.0997
 3539TIP3    H132252   1.761   5.349   0.962  1.6672  0.6197  2.4970
 3539TIP3    H232253   1.869   5.388   0.863  1.9019 -0.3732  2.3570
 3540TIP3   OH232254   4.434   0.794   1.403  0.0183  0.4350  0.1208
 3540TIP3    H132255   4.393   0.844   1.473  1.6509 -0.7738  2.0285
 3540TIP3    H232256   4.395   0.707   1.409  1.1066 -0.0450  0.4075
 3541TIP3   OH232257   4.883   5.513   1.205  0.1160 -0.4405 -0.3419
 3541TIP3    H132258   4.883   5.509   1.109 -1.3435 -0.9556 -0.3414
 3541TIP3    H232259   4.976   5.508   1.229  0.5274  0.0970 -1.7309
 3542TIP3   OH232260   4.530   4.240   6.332  0.0690  0.0066 -0.5864
 3542TIP3    H132261   4.517   4.229   6.426 -0.2276 -0.0526 -0.6310
 3542TIP3    H232262   4.442   4.260   6.298  0.1238 -0.2513 -0.8855
 3543TIP3   OH232263   3.443   2.968   1.819 -0.1713 -0.1312  0.4445
 3543TIP3    H132264   3.449   2.985   1.725 -0.2339 -1.7757  0.1062
 3543TIP3    H232265   3.368   2.909   1.828 -1.2661  1.3745  1.7602
 3544TIP3   OH232266   3.220   6.230   8.338  0.0240  0.7062 -0.1894
 3544TIP3    H132267   3.175   6.183   8.407 -1.4511  3.5354  0.9393
 3544TIP3    H232268   3.200   6.182   8.258  0.3912 -1.6937  1.0795
 3545TIP3   OH232269   0.317   6.602   7.940 -0.0482 -0.4111  0.0383
 3545TIP3    H132270   0.340   6.690   7.970  0.5192 -0.5901  0.1293
 3545TIP3    H232271   0.303   6.611   7.846  1.1001 -0.4420 -0.1414
 3546TIP3   OH232272   4.954   3.961   2.781 -0.2713  0.1213  0.5270
 3546TIP3    H132273   4.875   3.922   2.817 -0.7474  0.2447 -0.3628
 3546TIP3    H232274   4.988   3.895   2.721 -0.8064  0.8453 -0.6055
 3547TIP3   OH232275   2.243   6.170   0.217  0.2634 -0.9572  0.1554
 3547TIP3    H132276   2.280   6.167   0.305 -1.5612 -0.2659  0.9854
 3547TIP3    H232277   2.179   6.099   0.214  0.4465 -1.1040 -0.6891
 3548TIP3   OH232278   4.330   3.153   0.917  0.3423  0.0221  0.0075
 3548TIP3    H132279   4.412   3.195   0.891  1.4098 -0.8277  1.7627
 3548TIP3    H232280   4.322   3.171   1.011 -1.1449 -0.4689  0.0054
 3549TIP3   OH232281   5.180   0.290   2.196 -0.3750  0.1914 -0.0178
 3549TIP3    H132282   5.186   0.351   2.270  0.6858 -1.0030  0.9227
 3549TIP3    H232283   5.243   0.221   2.216 -1.4322 -1.1578 -1.1119
 3550TIP3   OH232284   4.883   2.621   0.517 -0.1940 -0.2445  0.0259
 3550TIP3    H132285   4.868   2.527   0.509 -6.0956  0.4816 -2.7264
 3550TIP3    H232286   4.907   2.649   0.429  0.4274  1.0009  0.5691
 3551TIP3   OH232287   5.433   4.158   8.696  0.0447  0.1572  0.4518
 3551TIP3    H132288   5.346   4.142   8.731 -0.5909 -0.8179 -1.4181
 3551TIP3    H232289   5.493   4.136   8.768 -1.2147  0.0820  1.5060
 3552TIP3   OH232290   2.893   0.980   7.647 -0.1771 -0.1847 -0.2461
 3552TIP3    H132291   2.988   0.967   7.652 -0.0266  1.1614  0.8619
 3552TIP3    H232292   2.864   0.916   7.582  1.6181  0.0426 -1.3403
 3553TIP3   OH232293   4.724   5.788   1.679 -0.0811  0.3095 -0.0846
 3553TIP3    H132294   4.803   5.795   1.734  1.1374  1.7593 -1.9131
 3553TIP3    H232295   4.679   5.871   1.691 -1.4682 -0.5644  1.0495
 3554TIP3   OH232296   4.893   5.813   8.518  0.5023  0.1188 -0.0753
 3554TIP3    H132297   4.832   5.743   8.540 -0.3180  0.6530 -0.5717
 3554TIP3    H232298   4.870   5.837   8.428  0.4679  1.3168  0.2377
 3555TIP3   OH232299   6.610   1.997   1.361 -0.3214  0.4197 -0.0529
 3555TIP3    H132300   6.583   1.972   1.273 -0.0324 -0.2103  0.0363
 3555TIP3    H232301   6.553   1.946   1.419 -1.7365  2.1080  0.1619
 3556TIP3   OH232302   1.246   1.100   7.556 -0.0024  0.4978  0.1456
 3556TIP3    H132303   1.305   1.168   7.587  0.2107  0.1733  0.4568
 3556TIP3    H232304   1.222   1.052   7.635  0.0092  0.0862 -0.1000
 3557TIP3   OH232305   0.468   1.121   1.169 -0.8602  0.0247 -0.3396
 3557TIP3    H132306   0.465   1.037   1.123  0.6533  0.6588 -1.7188
 3557TIP3    H232307   0.377   1.138   1.193 -1.7272 -0.5188 -2.8755
 3558TIP3   OH232308   0.507   1.549   1.799  0.2255  0.0663 -0.5204
 3558TIP3    H132309   0.517   1.525   1.891 -1.1969 -1.5411 -0.7250
 3558TIP3    H232310   0.413   1.538   1.782  0.0854  2.3979 -1.6565
 3559TIP3   OH232311   4.756   1.031   2.374  0.2087  0.1598  0.3776
 3559TIP3    H132312   4.704   1.101   2.415 -1.3917  0.3177 -1.7553
 3559TIP3    H232313   4.691   0.964   2.353  1.0984 -0.2598 -1.1008
 3560TIP3   OH232314   3.152   5.815   0.442 -0.4244 -0.9190  0.4460
 3560TIP3    H132315   3.116   5.779   0.361  0.2955  1.0640 -0.8214
 3560TIP3    H232316   3.246   5.802   0.435  0.0106  2.0861 -0.6282
 3561TIP3   OH232317   4.392   0.403   0.680 -1.0068  0.9626 -0.0162
 3561TIP3    H132318   4.393   0.463   0.754 -2.3895  0.8955  0.0799
 3561TIP3    H232319   4.484   0.380   0.666 -0.7312  0.8922  1.7349
 3562TIP3   OH232320   1.649   3.314   7.763 -0.8792  0.2645  0.2211
 3562TIP3    H132321   1.684   3.292   7.850 -0.8184 -1.0133 -0.1085
 3562TIP3    H232322   1.617   3.230   7.728 -2.8881  1.1096 -0.1216
 3563TIP3   OH232323   0.131   4.329   0.165  0.4417 -0.3364  0.6522
 3563TIP3    H132324   0.196   4.260   0.148  1.2217  0.1551  1.5325
 3563TIP3    H232325   0.170   4.408   0.126  0.5130  0.0156  1.4146
 3564TIP3   OH232326   2.870   4.157   2.137 -0.0818 -0.1676  0.0082
 3564TIP3    H132327   2.855   4.182   2.228 -0.1864  0.3602 -0.1518
 3564TIP3    H232328   2.845   4.234   2.086 -1.9911 -1.1469 -0.6074
 3565TIP3   OH232329   0.213   2.166   8.657  0.4045  0.0745  0.0383
 3565TIP3    H132330   0.174   2.252   8.671 -0.0512 -0.3875  1.9682
 3565TIP3    H232331   0.149   2.105   8.693  2.7320 -0.7257  3.3405
 3566TIP3   OH232332   1.424   1.764   1.413  0.7163 -0.3674  0.5156
 3566TIP3    H132333   1.333   1.742   1.435  0.1925  1.0755 -0.1309
 3566TIP3    H232334   1.440   1.717   1.331 -0.0118  0.6947 -0.2519
 3567TIP3   OH232335   3.130   3.091   2.066  0.2967 -0.5299  0.7677
 3567TIP3    H132336   3.202   3.137   2.109 -0.2906 -1.7350  3.2220
 3567TIP3    H232337   3.070   3.070   2.137 -1.1998 -1.8987 -0.8251
 3568TIP3   OH232338   0.987   3.953   8.192  0.3560 -0.4405 -0.0415
 3568TIP3    H132339   0.920   3.966   8.258  0.9403 -0.1966  0.5123
 3568TIP3    H232340   0.946   3.981   8.110  0.5664  2.1144  0.6522
 3569TIP3   OH232341   2.194   2.078   0.051 -0.8886 -0.3150 -0.4784
 3569TIP3    H132342   2.276   2.033   0.028 -2.0067 -1.4268 -2.5600
 3569TIP3    H232343   2.185   2.147  -0.015 -0.2887  1.6762  1.4134
 3570TIP3   OH232344   3.847   5.381   0.495 -0.3065 -0.3494  0.2883
 3570TIP3    H132345   3.869   5.377   0.402 -2.2231  1.0168 -0.2968
 3570TIP3    H232346   3.774   5.320   0.505 -1.5775  1.1295  0.3755
 3571TIP3   OH232347   5.189   6.519   0.829  0.6068  1.2141 -0.2228
 3571TIP3    H132348   5.175   6.562   0.913  0.6186  1.4371 -0.3336
 3571TIP3    H232349   5.265   6.463   0.842  1.3648  2.1646 -0.4209
 3572TIP3   OH232350   6.317   3.780   8.161  0.3140  0.1046  0.7455
 3572TIP3    H132351   6.235   3.794   8.114  0.4175  1.0417  0.8306
 3572TIP3    H232352   6.384   3.816   8.104  0.5313  0.4695  1.2236
 3573TIP3   OH232353   3.511   6.653   7.342 -0.1416 -0.3129  0.1673
 3573TIP3    H132354   3.439   6.636   7.402  1.0539 -1.8451  1.2662
 3573TIP3    H232355   3.489   6.603   7.263 -2.0447  2.2439 -1.0636
 3574TIP3   OH232356   2.619   0.729   1.097 -0.6305  0.2762  0.1863
 3574TIP3    H132357   2.633   0.645   1.053  1.4477  0.7914 -0.2578
 3574TIP3    H232358   2.658   0.716   1.184  0.9463  1.1315 -0.3439
 3575TIP3   OH232359   2.000   1.165   0.309  0.2462  0.8458  0.6264
 3575TIP3    H132360   1.939   1.239   0.306 -0.2289  0.5190  1.6275
 3575TIP3    H232361   2.029   1.163   0.400  0.2546 -0.1942  0.6076
 3576TIP3   OH232362   6.534   5.204   8.468  0.2229  0.1547 -0.4454
 3576TIP3    H132363   6.603   5.262   8.436  1.8220 -1.0730  0.6597
 3576TIP3    H232364   6.514   5.238   8.556  2.8843 -2.2229  1.2485
 3577TIP3   OH232365   6.621   5.796   0.623 -0.2234 -0.1495 -0.1829
 3577TIP3    H132366   6.577   5.712   0.632 -0.6585  0.0897 -0.0874
 3577TIP3    H232367   6.705   5.775   0.582 -0.9470 -0.4646 -1.5580
 3578TIP3   OH232368   0.423   5.123   1.032  0.6049 -0.3464 -0.0447
 3578TIP3    H132369   0.481   5.105   0.958  1.3830  0.5067  0.3410
 3578TIP3    H232370   0.434   5.217   1.049 -0.0820 -0.3948  0.7205
 3579TIP3   OH232371   0.514   6.173   2.134  0.3291 -0.0462 -0.5316
 3579TIP3    H132372   0.526   6.202   2.225  1.9695 -1.5528 -0.2024
 3579TIP3    H232373   0.567   6.233   2.083  1.7587 -0.8906 -0.1194
 3580TIP3   OH232374   1.886   2.888   8.465 -0.8492 -0.0183  0.3611
 3580TIP3    H132375   1.857   2.890   8.556 -0.4917 -2.7470  0.6156
 3580TIP3    H232376   1.954   2.821   8.463 -1.6340 -0.8552 -2.1024
 3581TIP3   OH232377   0.172   3.094   7.157 -0.1838  0.2372  0.2430
 3581TIP3    H132378   0.145   3.137   7.238 -0.1907 -0.7810  0.8034
 3581TIP3    H232379   0.193   3.165   7.097  0.1414  1.0107  1.2507
 3582TIP3   OH232380   4.609   2.024   2.278  0.2243  0.1900 -0.6756
 3582TIP3    H132381   4.535   1.972   2.245  0.0340  0.8033 -1.2251
 3582TIP3    H232382   4.657   1.963   2.334 -1.0768 -0.0370  0.2702
 3583TIP3   OH232383   1.113   2.831   8.144 -0.0324  0.2107 -0.5440
 3583TIP3    H132384   1.143   2.740   8.147  0.3314  0.3234 -0.6490
 3583TIP3    H232385   1.188   2.880   8.109  0.0041  0.6501  0.1305
 3584TIP3   OH232386   2.534   6.647   1.146  0.8151 -0.3344 -0.0139
 3584TIP3    H132387   2.602   6.690   1.196 -1.1759  1.3723  1.3851
 3584TIP3    H232388   2.545   6.679   1.056  2.5458 -1.0725 -0.1082
 3585TIP3   OH232389   4.523   4.012   1.065  0.2175 -0.3907  0.1480
 3585TIP3    H132390   4.582   4.068   1.015 -0.3557 -0.6280 -0.8263
 3585TIP3    H232391   4.579   3.941   1.097  0.9488  0.7036  1.4080
 3586TIP3   OH232392   6.059   6.366   7.164  0.5021 -0.6386  0.1543
 3586TIP3    H132393   6.128   6.430   7.147 -0.0132  0.4271  1.7722
 3586TIP3    H232394   5.978   6.416   7.160  0.0752 -1.1915  1.3628
 3587TIP3   OH232395   3.839   0.714   1.600 -0.4393  0.2000 -0.2053
 3587TIP3    H132396   3.794   0.760   1.671  0.6309  1.1848 -0.1337
 3587TIP3    H232397   3.811   0.623   1.608 -1.1239  0.4874  0.8448
 3588TIP3   OH232398   3.226   6.532   8.021 -0.0546  0.2532  0.3256
 3588TIP3    H132399   3.155   6.546   7.959 -0.1048  2.4628  0.8011
 3588TIP3    H232400   3.182   6.532   8.107  0.3399  0.0319  0.5280
 3589TIP3   OH232401   4.233   0.124   7.753 -0.1236  0.2990 -0.9344
 3589TIP3    H132402   4.283   0.197   7.791 -1.9939  0.9447  0.4213
 3589TIP3    H232403   4.190   0.163   7.677  0.1201  0.1725 -1.1396
 3590TIP3   OH232404   6.267   1.844   0.081 -0.3973 -0.2590  0.1071
 3590TIP3    H132405   6.351   1.805   0.061 -0.8336 -1.3876  0.4217
 3590TIP3    H232406   6.210   1.816   0.010 -0.4052  0.9068 -0.3729
 3591TIP3   OH232407   3.305   4.710   0.232 -0.7074  0.2871  0.2641
 3591TIP3    H132408   3.267   4.637   0.184  0.1213 -1.6762  2.4436
 3591TIP3    H232409   3.229   4.758   0.265 -1.2887 -0.9089  0.7122
 3592TIP3   OH232410   3.228   1.596   8.107 -0.3880 -0.2784  0.2858
 3592TIP3    H132411   3.231   1.691   8.115 -1.0651 -0.3880  3.7422
 3592TIP3    H232412   3.135   1.576   8.098 -0.5033 -0.6101  1.8358
 3593TIP3   OH232413   1.090   1.857   1.799  0.1048  0.3905 -0.7494
 3593TIP3    H132414   1.004   1.816   1.788 -0.6286  0.8771  2.2132
 3593TIP3    H232415   1.148   1.785   1.824 -0.1047  0.4520 -0.0679
 3594TIP3   OH232416   5.342   6.551   7.895 -0.4097 -0.3693 -0.6336
 3594TIP3    H132417   5.411   6.611   7.867 -0.2667 -0.1500  0.1416
 3594TIP3    H232418   5.381   6.502   7.967 -1.6777  1.2305  1.2715
 3595TIP3   OH232419   6.067   5.352   0.538 -0.0463  0.3308 -0.4936
 3595TIP3    H132420   6.144   5.334   0.483  0.6054 -0.5799  0.6486
 3595TIP3    H232421   6.034   5.265   0.560 -0.9248  0.7096 -0.3103
 3596TIP3   OH232422   2.843   3.578   0.130  0.0240 -0.3351 -0.0165
 3596TIP3    H132423   2.795   3.542   0.204  0.7835  2.2286  1.8724
 3596TIP3    H232424   2.934   3.583   0.161  0.6499 -0.5934 -1.7101
 3597TIP3   OH232425   1.819   0.553   7.730  0.4493 -0.0658  0.4508
 3597TIP3    H132426   1.893   0.551   7.669  1.4173  1.5790  1.4972
 3597TIP3    H232427   1.837   0.484   7.793 -1.4758 -3.0817 -1.9664
 3598TIP3   OH232428   0.574   0.316   7.424  0.6589  0.1590  0.1559
 3598TIP3    H132429   0.637   0.311   7.352  0.8873  0.2627  0.3482
 3598TIP3    H232430   0.598   0.243   7.481 -0.0173 -0.4143 -0.2670
 3599TIP3   OH232431   0.575   0.505   2.142  0.1486 -0.3909  0.3527
 3599TIP3    H132432   0.594   0.412   2.139 -0.9203 -0.7042  2.0942
 3599TIP3    H232433   0.487   0.513   2.105  1.0160  0.2536 -1.7621
 3600TIP3   OH232434   0.340   2.234   1.354  0.2421  0.2699 -0.3051
 3600TIP3    H132435   0.277   2.171   1.389  1.4956 -1.3111 -0.7802
 3600TIP3    H232436   0.356   2.205   1.264  0.8456  1.2774 -0.5393
 3601TIP3   OH232437   2.466   3.162   0.586 -0.3613 -0.6885  0.1165
 3601TIP3    H132438   2.417   3.185   0.507  0.8221 -1.8684 -1.0085
 3601TIP3    H232439   2.423   3.211   0.656 -2.5454 -0.9447 -0.9497
 3602TIP3   OH232440   6.177   3.174   8.400  0.7776  0.5433 -0.6274
 3602TIP3    H132441   6.097   3.127   8.374 -0.7996  2.5408  0.3349
 3602TIP3    H232442   6.203   3.135   8.483  0.4671  0.2446 -0.6712
 3603TIP3   OH232443   1.179   4.394   0.130  0.0411  0.5315 -0.1550
 3603TIP3    H132444   1.184   4.485   0.160  0.9161 -0.1615  1.9470
 3603TIP3    H232445   1.242   4.347   0.184 -1.4910 -1.6256 -0.1042
 3604TIP3   OH232446   2.379   4.525   1.547 -0.6787 -1.1441 -0.0237
 3604TIP3    H132447   2.383   4.514   1.642 -1.0609  1.0005  0.2835
 3604TIP3    H232448   2.286   4.542   1.529 -0.1481  2.1163 -0.2492
 3605TIP3   OH232449   0.098   1.250   7.010  0.9039 -0.8151 -0.1845
 3605TIP3    H132450   0.163   1.319   6.997  0.1068  0.1823  0.9115
 3605TIP3    H232451   0.119   1.185   6.943  1.8083  0.3937 -1.1374
 3606TIP3   OH232452   3.980   1.591   1.541  0.2435  0.5926 -0.2400
 3606TIP3    H132453   4.042   1.616   1.474 -0.9918  0.5708 -1.4329
 3606TIP3    H232454   4.034   1.568   1.617  1.5731  3.5821 -0.1564
 3607TIP3   OH232455   4.919   6.204   7.060  0.1925  0.4330  0.5012
 3607TIP3    H132456   5.013   6.225   7.054  0.3508  0.0266  1.4547
 3607TIP3    H232457   4.876   6.279   7.018  0.9938 -0.0908 -1.3953
 3608TIP3   OH232458   3.314   1.095   7.037 -0.4530  0.1571  0.6567
 3608TIP3    H132459   3.305   1.093   6.942 -0.0602  2.8171  0.5056
 3608TIP3    H232460   3.317   1.002   7.062 -2.5611 -0.6535 -1.6777
 3609TIP3   OH232461   4.762   4.486   0.332 -0.5045 -0.0860 -0.0232
 3609TIP3    H132462   4.837   4.440   0.294  0.2587 -0.4123  1.7437
 3609TIP3    H232463   4.795   4.573   0.354 -0.3774 -0.4754  1.4541
 3610TIP3   OH232464   4.058   0.214   0.849 -0.0054 -0.0005  0.0939
 3610TIP3    H132465   4.097   0.166   0.922 -1.3975 -0.4184  0.5898
 3610TIP3    H232466   4.086   0.167   0.771  2.0976  0.8566  0.2496
 3611TIP3   OH232467   0.186   4.880   1.395  0.1088  0.5051 -0.3426
 3611TIP3    H132468   0.265   4.840   1.430 -0.2205  0.8470  0.8244
 3611TIP3    H232469   0.117   4.858   1.458 -1.1853 -1.4350 -2.2966
 3612TIP3   OH232470   6.709   2.535   7.559 -0.1921 -0.6543  0.1526
 3612TIP3    H132471   6.804   2.528   7.547  0.0072  1.0027  0.6115
 3612TIP3    H232472   6.673   2.540   7.470  0.0941 -1.6100 -0.0335
 3613TIP3   OH232473   2.326   0.727   1.405  0.0954  0.1222  0.1407
 3613TIP3    H132474   2.284   0.726   1.319  0.8879  0.6871 -0.2680
 3613TIP3    H232475   2.419   0.721   1.386  0.2134 -1.6928  1.0572
 3614TIP3   OH232476   0.481   4.040   6.988 -0.1426  0.0442 -0.6677
 3614TIP3    H132477   0.501   3.948   6.968 -0.7392  0.1752 -2.0152
 3614TIP3    H232478   0.436   4.037   7.072  3.8882 -0.4045  1.7434
 3615TIP3   OH232479   4.038   1.151   0.279 -0.5190  0.8595 -0.0297
 3615TIP3    H132480   4.008   1.118   0.194  1.0332 -0.5928 -0.0439
 3615TIP3    H232481   3.967   1.129   0.339 -0.0476 -1.4948 -0.2666
 3616TIP3   OH232482   6.848   3.769   7.801 -0.2284 -0.2213  0.8387
 3616TIP3    H132483   6.814   3.728   7.722 -1.3290  1.1254  0.5729
 3616TIP3    H232484   6.943   3.757   7.796 -0.3127 -0.4919 -0.4817
 3617TIP3   OH232485   5.551   4.038   7.524  0.1063 -0.0040 -0.1877
 3617TIP3    H132486   5.630   4.088   7.503  0.3227 -0.3327 -0.1611
 3617TIP3    H232487   5.481   4.104   7.525  0.4804  0.3971  0.4362
 3618TIP3   OH232488   1.174   0.324   7.009  0.3531  0.0478 -0.2286
 3618TIP3    H132489   1.222   0.406   7.001  1.1719 -0.3649  0.3398
 3618TIP3    H232490   1.204   0.286   7.091 -1.9044  0.3649  0.8305
 3619TIP3   OH232491   0.171   5.538   0.608  0.0001 -0.0077  0.0552
 3619TIP3    H132492   0.156   5.626   0.642 -1.0276  1.0231 -2.7523
 3619TIP3    H232493   0.238   5.501   0.665  0.4230  2.5507  1.3721
 3620TIP3   OH232494   0.836   2.287   2.208  0.0741  0.0301 -0.2870
 3620TIP3    H132495   0.788   2.367   2.188 -2.2952 -1.2900 -0.3665
 3620TIP3    H232496   0.845   2.242   2.124 -0.6349 -0.7655  0.0368
 3621TIP3   OH232497   0.434   5.037   7.330 -0.2161  0.0212  0.2062
 3621TIP3    H132498   0.500   5.056   7.397  0.8883  0.4606 -0.9630
 3621TIP3    H232499   0.399   5.123   7.306 -0.4172 -0.1079  0.0320
 3622TIP3   OH232500   0.707   4.938   1.580 -0.0718 -0.3174  0.2395
 3622TIP3    H132501   0.777   4.955   1.643  0.4003  0.6053 -0.5011
 3622TIP3    H232502   0.651   5.016   1.583  0.0834 -0.1592 -0.6168
 3623TIP3   OH232503   3.974   3.153   0.789 -0.3318  0.5275 -0.3613
 3623TIP3    H132504   4.047   3.173   0.848  0.7003  1.0758 -1.7514
 3623TIP3    H232505   3.942   3.068   0.817 -2.1132  2.1625  3.1265
 3624TIP3   OH232506   6.268   4.617   1.131  0.2900  0.9896 -0.0599
 3624TIP3    H132507   6.209   4.583   1.199 -0.0528 -0.8169 -1.1769
 3624TIP3    H232508   6.341   4.655   1.179 -0.5193  0.8737  1.3243
 3625TIP3   OH232509   1.664   3.580   2.273  1.0147  0.2568 -0.0793
 3625TIP3    H132510   1.653   3.500   2.324  0.5255 -1.0724 -2.1103
 3625TIP3    H232511   1.676   3.650   2.338 -2.9802 -0.7003  2.0249
 3626TIP3   OH232512   4.695   3.830   0.927 -0.5863 -0.1194  0.0740
 3626TIP3    H132513   4.674   3.923   0.915  0.7637  0.1118 -0.6576
 3626TIP3    H232514   4.741   3.827   1.011  0.3657  0.0565 -0.4322
 3627TIP3   OH232515   4.751   6.533   7.830  0.8279  0.2164  0.2453
 3627TIP3    H132516   4.771   6.601   7.766  0.5905  0.1137  0.0626
 3627TIP3    H232517   4.672   6.565   7.875  0.0026 -0.4973 -0.6565
 3628TIP3   OH232518   2.505   0.525   1.322 -0.4726  0.1214  0.3649
 3628TIP3    H132519   2.564   0.572   1.263 -0.7477 -1.3774 -1.1767
 3628TIP3    H232520   2.418   0.539   1.285 -0.4854 -2.2101 -0.6288
 3629TIP3   OH232521   3.437   0.061   7.255 -0.1666  0.0764 -0.0577
 3629TIP3    H132522   3.469  -0.021   7.294  0.1053  0.4032  0.4171
 3629TIP3    H232523   3.342   0.054   7.259 -0.1880 -0.9123 -1.4932
 3630TIP3   OH232524   0.936   1.148   1.104  0.1050  0.6610 -0.4301
 3630TIP3    H132525   1.023   1.129   1.140 -0.9004 -0.6670  1.4985
 3630TIP3    H232526   0.947   1.141   1.009  1.9151 -0.3365 -0.1909
 3631TIP3   OH232527   0.980   4.385   0.454  0.0816 -0.5258  0.0819
 3631TIP3    H132528   0.949   4.446   0.387 -0.0706 -0.4413  0.2283
 3631TIP3    H232529   1.075   4.396   0.455  0.2267 -1.4553 -1.0270
 3632TIP3   OH232530   4.151   3.660   8.749  0.1275  0.5183 -0.2610
 3632TIP3    H132531   4.211   3.713   8.697  0.2351  0.4331 -0.2248
 3632TIP3    H232532   4.129   3.716   8.824  1.1110  0.1025  0.3540
 3633TIP3   OH232533   6.051   1.740   8.703 -0.2823  0.2405  0.5657
 3633TIP3    H132534   6.060   1.800   8.629  1.3757  0.9339  1.2696
 3633TIP3    H232535   6.002   1.791   8.768 -2.8856 -0.8091 -0.4300
 3634TIP3   OH232536   0.116   0.530   0.114 -0.1173  0.0244 -0.2415
 3634TIP3    H132537   0.107   0.580   0.032  0.0855  1.9329  0.8436
 3634TIP3    H232538   0.026   0.504   0.135 -0.6906  2.3976  0.5834
 3635TIP3   OH232539   3.466   0.091   8.615  0.2174  0.0687  0.4114
 3635TIP3    H132540   3.421   0.094   8.699  1.5461  0.7595  1.1341
 3635TIP3    H232541   3.476  -0.002   8.596  0.3590 -0.1061  1.2870
 3636TIP3   OH232542   1.021   1.332   7.218  0.1259  0.7236  0.7264
 3636TIP3    H132543   1.078   1.255   7.212 -2.3352 -1.0877 -1.3468
 3636TIP3    H232544   1.072   1.395   7.269  4.3445 -0.4197 -1.5696
 3637TIP3   OH232545   0.470   2.339   0.103 -0.1097  0.8737  0.1895
 3637TIP3    H132546   0.439   2.428   0.122  0.2906  0.9083  0.6911
 3637TIP3    H232547   0.393   2.284   0.117 -0.5186  1.2027 -0.6984
 3638TIP3   OH232548   1.780   5.662   8.034  0.4796 -1.2047  0.2523
 3638TIP3    H132549   1.790   5.674   8.128  0.0831 -1.6665  0.3600
 3638TIP3    H232550   1.863   5.627   8.005  0.5389 -1.2413  0.4637
 3639TIP3   OH232551   6.835   6.554   1.346 -0.1756  0.1472 -0.1785
 3639TIP3    H132552   6.778   6.619   1.385  2.2957  1.9075  0.7186
 3639TIP3    H232553   6.868   6.595   1.266 -0.3728 -0.9581 -0.8513
 3640TIP3   OH232554   1.409   6.302   8.559 -0.3560 -0.6756  0.3076
 3640TIP3    H132555   1.358   6.253   8.623 -0.8580 -1.3135 -0.5478
 3640TIP3    H232556   1.449   6.374   8.609  0.3042 -1.8715  1.5554
 3641TIP3   OH232557   6.556   3.937   7.193 -0.0565 -0.1928  0.4076
 3641TIP3    H132558   6.501   3.893   7.258 -1.1280 -0.7841 -0.8482
 3641TIP3    H232559   6.519   3.911   7.108  0.1781  1.9865 -0.4172
 3642TIP3   OH232560   6.805   0.129   0.046 -0.0961  0.5266 -0.5079
 3642TIP3    H132561   6.896   0.110   0.068  0.0140  0.9108 -0.6116
 3642TIP3    H232562   6.776   0.054  -0.005  0.8638  1.3643 -2.4341
 3643TIP3   OH232563   3.135   6.034   7.131 -0.0224 -0.1261 -0.2437
 3643TIP3    H132564   3.130   5.980   7.209 -1.7492 -0.4298 -0.5302
 3643TIP3    H232565   3.082   5.989   7.066 -0.2877  1.1412 -0.9541
 3644TIP3   OH232566   1.082   4.209   0.860  0.3508  0.7831 -0.6051
 3644TIP3    H132567   1.094   4.115   0.845  0.8548  0.8596 -0.7100
 3644TIP3    H232568   0.987   4.220   0.867  0.3511  0.0151  1.0975
 3645TIP3   OH232569   5.500   6.400   6.351  0.2542 -0.3613 -0.2166
 3645TIP3    H132570   5.486   6.309   6.322  0.2266 -0.2252 -0.6342
 3645TIP3    H232571   5.428   6.417   6.412  0.1440 -0.5589 -0.2890
 3646TIP3   OH232572   2.733   2.916   0.305  0.1617 -0.2225 -0.5315
 3646TIP3    H132573   2.741   2.989   0.365 -2.0493  1.0407 -1.6504
 3646TIP3    H232574   2.783   2.845   0.346 -0.8988  0.6840  2.5822
 3647TIP3   OH232575   6.447   4.335   0.667 -0.3270  0.1540 -0.7390
 3647TIP3    H132576   6.533   4.379   0.666 -0.2890  0.1068 -2.7543
 3647TIP3    H232577   6.460   4.259   0.723  0.0412  1.7939  1.5504
 3648TIP3   OH232578   6.779   4.917   0.533 -0.1098  0.2411  0.4135
 3648TIP3    H132579   6.727   4.978   0.481 -1.9360 -1.8063 -0.3163
 3648TIP3    H232580   6.812   4.854   0.469  1.4932  0.2398  1.1848
 3649TIP3   OH232581   0.836   0.073   6.984  0.3993  0.3788  0.1840
 3649TIP3    H132582   0.808   0.153   7.028 -1.0136  0.3764 -0.6481
 3649TIP3    H232583   0.795   0.002   7.033 -0.3782  0.3235 -0.5243
 3650TIP3   OH232584   4.184   4.190   7.772  0.3862  0.1583 -0.7953
 3650TIP3    H132585   4.197   4.174   7.865 -1.2548  1.6274 -0.2573
 3650TIP3    H232586   4.094   4.162   7.755  0.3700  0.7380 -1.7358
 3651TIP3   OH232587   4.365   0.287   0.421 -0.4894 -0.0736  0.0361
 3651TIP3    H132588   4.406   0.201   0.426 -0.6327 -0.1351  0.1804
 3651TIP3    H232589   4.374   0.323   0.509 -1.8908 -0.6227  0.4381
 3652TIP3   OH232590   4.366   1.903   0.188 -0.6294 -0.3140  0.0542
 3652TIP3    H132591   4.341   1.988   0.153  0.7529 -0.1038 -0.5038
 3652TIP3    H232592   4.365   1.915   0.283  0.4839  0.6476 -0.0241
 3653TIP3   OH232593   3.468   6.506   7.701  0.0565 -0.6461 -0.1178
 3653TIP3    H132594   3.451   6.553   7.782  1.5814  1.8342 -1.1084
 3653TIP3    H232595   3.437   6.565   7.632  1.5210 -1.3282 -1.4147
 3654TIP3   OH232596   4.583   4.501   0.887 -0.2467  0.1829 -0.5101
 3654TIP3    H132597   4.597   4.541   0.801 -0.8424  0.4809 -0.4735
 3654TIP3    H232598   4.540   4.418   0.869  0.7955 -0.3636 -0.5719
 3655TIP3   OH232599   4.284   1.190   1.687  0.2260  0.0156 -0.0486
 3655TIP3    H132600   4.255   1.230   1.769 -0.7030 -1.3305  0.3153
 3655TIP3    H232601   4.254   1.250   1.619 -2.2810 -0.6233  0.4108
 3656TIP3   OH232602   2.559   6.787   0.904 -0.3982  0.1609  0.3532
 3656TIP3    H132603   2.477   6.796   0.856 -0.0613  0.1264 -0.2406
 3656TIP3    H232604   2.591   6.877   0.914  0.3783  0.0752 -1.0125
 3657TIP3   OH232605   6.813   3.964   8.186  0.6414  0.2074  0.2528
 3657TIP3    H132606   6.803   4.001   8.098  0.2428 -0.1986  0.1273
 3657TIP3    H232607   6.857   4.033   8.236 -0.5903  1.0940  0.1665
 3658TIP3   OH232608   1.593   2.246   6.238 -0.2528  0.4500 -0.2002
 3658TIP3    H132609   1.561   2.285   6.320 -0.6840  1.4753 -0.8432
 3658TIP3    H232610   1.671   2.298   6.216 -0.1858  0.2309 -0.4844
 3659TIP3   OH232611   1.787   4.187   0.816 -0.1676 -0.1364 -0.1331
 3659TIP3    H132612   1.817   4.124   0.881  1.0180 -0.0895 -0.5951
 3659TIP3    H232613   1.786   4.138   0.734  0.6948  0.4054 -0.4836
 3660TIP3   OH232614   2.163   0.635   2.035 -0.2954 -0.2729  0.4567
 3660TIP3    H132615   2.137   0.547   2.061 -0.9587  0.0379  0.8928
 3660TIP3    H232616   2.232   0.622   1.970  1.1462 -1.0724  2.0836
 3661TIP3   OH232617   6.243   4.403   2.014 -0.1343  0.4271  0.6395
 3661TIP3    H132618   6.222   4.320   2.057  1.4779 -0.4110 -0.1360
 3661TIP3    H232619   6.161   4.429   1.971 -0.3785 -1.3073 -0.0023
 3662TIP3   OH232620   0.839   1.928   1.535 -0.7996 -0.7445  0.0926
 3662TIP3    H132621   0.808   1.857   1.479 -1.5625  0.4332 -1.0354
 3662TIP3    H232622   0.759   1.965   1.574 -0.3695 -0.8107  1.0693
 3663TIP3   OH232623   5.673   3.765   0.503 -0.4798 -0.1370  0.4137
 3663TIP3    H132624   5.760   3.780   0.538  1.2583 -2.0097 -2.6148
 3663TIP3    H232625   5.613   3.793   0.572  2.4825  1.0855  2.6755
 3664TIP3   OH232626   3.167   2.433   0.438  0.8785 -0.1539 -0.0960
 3664TIP3    H132627   3.158   2.375   0.513  0.5936  1.1556  0.9325
 3664TIP3    H232628   3.078   2.442   0.404  0.5470  1.2804  1.0438
 3665TIP3   OH232629   1.933   5.993   6.028  0.6890 -0.3582  0.6584
 3665TIP3    H132630   1.987   5.915   6.038  0.1016 -0.7072  1.1676
 3665TIP3    H232631   1.995   6.066   6.033  1.1721 -0.7714  0.7646
 3666TIP3   OH232632   0.276   5.412   7.907  0.1808  0.5697 -0.2065
 3666TIP3    H132633   0.224   5.459   7.842 -0.4931 -1.5801 -1.3411
 3666TIP3    H232634   0.221   5.411   7.985  0.6387  2.4547  0.1765
 3667TIP3   OH232635   4.015   4.570   2.419  0.4238  0.5805  0.1145
 3667TIP3    H132636   4.012   4.643   2.482  2.2456  0.6940  0.1248
 3667TIP3    H232637   4.009   4.612   2.333  0.5176  0.6505  0.1423
 3668TIP3   OH232638   1.856   3.244   0.858 -0.1566 -0.0087  0.2223
 3668TIP3    H132639   1.884   3.304   0.926  4.1352 -0.2168 -1.0404
 3668TIP3    H232640   1.872   3.157   0.895  2.2463 -0.1233 -0.8789
 3669TIP3   OH232641   5.338   0.391   0.333  0.9437 -0.2423  0.5012
 3669TIP3    H132642   5.395   0.324   0.295  1.8359  0.3179  0.7954
 3669TIP3    H232643   5.283   0.344   0.395  1.6339 -0.6950  0.7893
 3670TIP3   OH232644   6.675   5.486   1.323 -0.4067 -0.4111  0.6188
 3670TIP3    H132645   6.744   5.424   1.348 -0.3945  0.3720  2.8063
 3670TIP3    H232646   6.609   5.476   1.393 -1.4632  0.4373 -0.2310
 3671TIP3   OH232647   3.782   6.807   0.558  0.0600 -0.0863  0.2812
 3671TIP3    H132648   3.769   6.837   0.648 -0.3422 -0.8257  0.4791
 3671TIP3    H232649   3.743   6.720   0.556  1.6935 -0.8490 -0.1328
 3672TIP3   OH232650   3.557   4.014   0.089 -0.3195  0.4115  0.3292
 3672TIP3    H132651   3.630   3.957   0.112 -0.7484  0.2768  1.4415
 3672TIP3    H232652   3.595   4.102   0.086  0.0746  0.2306 -0.0675
 3673TIP3   OH232653   5.958   2.345   7.580  0.3552  0.3535 -0.0337
 3673TIP3    H132654   5.919   2.402   7.513  0.7922  0.4470 -0.2133
 3673TIP3    H232655   5.888   2.286   7.605 -0.7474  2.2079  1.5788
 3674TIP3   OH232656   5.953   6.637   6.987 -0.3322 -0.3464  0.3049
 3674TIP3    H132657   5.893   6.580   6.940  0.1595 -0.8648  0.2951
 3674TIP3    H232658   6.031   6.643   6.931  0.1762 -0.8063  0.9442
 3675TIP3   OH232659   4.037   2.854   7.761 -0.1947 -0.1325  0.0947
 3675TIP3    H132660   3.950   2.814   7.769 -0.1259  0.0795  3.4764
 3675TIP3    H232661   4.096   2.780   7.748 -0.8049 -0.2993 -2.0040
 3676TIP3   OH232662   5.781   3.685   2.180 -0.9928  0.1042  0.1270
 3676TIP3    H132663   5.761   3.636   2.100 -2.9185  0.5381  0.2914
 3676TIP3    H232664   5.777   3.619   2.250  0.0770 -0.1597 -0.0479
 3677TIP3   OH232665   0.635   2.684   6.798  0.4010 -0.4517  0.4362
 3677TIP3    H132666   0.694   2.657   6.728 -1.4904 -0.6859 -1.1554
 3677TIP3    H232667   0.577   2.748   6.757 -0.4144 -0.1775  1.9399
 3678TIP3   OH232668   6.846   6.301   6.780  0.2499  0.0267 -0.1076
 3678TIP3    H132669   6.872   6.298   6.687  1.9778  0.2208  0.3181
 3678TIP3    H232670   6.890   6.380   6.813  1.3565 -1.1431  1.3277
 3679TIP3   OH232671   0.214   4.432   8.086  0.2493 -0.0665  0.1291
 3679TIP3    H132672   0.124   4.438   8.118  0.6938  0.1838  1.3550
 3679TIP3    H232673   0.208   4.370   8.012 -1.4147  2.1416 -1.7527
 3680TIP3   OH232674   4.644   1.814   1.498  0.2510 -0.1800 -0.3087
 3680TIP3    H132675   4.732   1.783   1.480  0.3975  0.7211 -1.2120
 3680TIP3    H232676   4.656   1.894   1.549 -0.1194 -1.3003  1.6747
 3681TIP3   OH232677   1.903   6.032   8.387  0.0904 -0.1604 -0.4860
 3681TIP3    H132678   1.934   6.111   8.433 -1.2107 -0.4767  1.0214
 3681TIP3    H232679   1.954   5.961   8.426 -1.3879 -0.4983  0.9709
 3682TIP3   OH232680   0.293   5.030   8.667 -0.3270 -0.2226 -0.3049
 3682TIP3    H132681   0.357   4.973   8.709  0.3597 -0.0431 -1.0948
 3682TIP3    H232682   0.209   5.002   8.704  0.0832 -1.1990 -0.0762
 3683TIP3   OH232683   2.090   4.502   1.533  0.2075  0.1720 -0.7181
 3683TIP3    H132684   2.055   4.582   1.574 -1.4330 -0.2123 -1.2655
 3683TIP3    H232685   2.038   4.491   1.453  0.4354 -1.3995 -0.6919
 3684TIP3   OH232686   5.770   3.583   0.701 -0.2124 -0.2157 -0.2044
 3684TIP3    H132687   5.839   3.628   0.750  0.1705  0.7738 -1.6075
 3684TIP3    H232688   5.689   3.629   0.725  0.2779  1.9355 -2.2960
 3685TIP3   OH232689   3.364   1.663   6.831 -0.4852 -0.5875  0.7957
 3685TIP3    H132690   3.387   1.732   6.769 -0.2414  0.2061  1.7354
 3685TIP3    H232691   3.284   1.624   6.796  0.8706 -1.7221 -1.2202
 3686TIP3   OH232692   3.087   0.347   0.980  0.0253  0.2564 -0.3826
 3686TIP3    H132693   3.025   0.419   0.984  0.3113  0.4666  0.8829
 3686TIP3    H232694   3.070   0.297   1.060  2.4692  1.1957  0.8300
 3687TIP3   OH232695   0.416   5.800   1.876 -0.6106 -0.3959 -0.1793
 3687TIP3    H132696   0.472   5.747   1.819 -0.2715 -0.2419  0.0080
 3687TIP3    H232697   0.459   5.796   1.961  0.6396  1.9395 -0.6143
 3688TIP3   OH232698   6.794   3.900   1.558 -0.1495  0.6286 -0.1122
 3688TIP3    H132699   6.840   3.963   1.614 -0.9284  0.9341  0.2021
 3688TIP3    H232700   6.736   3.853   1.618 -0.7794  0.7592 -0.6148
 3689TIP3   OH232701   3.031   4.803   0.741 -0.4289 -0.1326  0.0815
 3689TIP3    H132702   3.110   4.855   0.726 -1.3599  1.3591  0.1309
 3689TIP3    H232703   3.043   4.765   0.828  0.5864 -0.6301 -0.2550
 3690TIP3   OH232704   1.754   1.022   0.312  0.0803 -0.2665  0.6368
 3690TIP3    H132705   1.709   1.067   0.384  0.0110  0.1419  0.3423
 3690TIP3    H232706   1.809   1.089   0.272  0.7013 -0.6862  0.7831
 3691TIP3   OH232707   1.503   4.805   7.687 -0.1026  0.9865 -0.2113
 3691TIP3    H132708   1.460   4.721   7.675 -0.8490  1.3229  0.0927
 3691TIP3    H232709   1.551   4.797   7.769  1.0750  0.3502 -0.9203
 3692TIP3   OH232710   3.595   4.483   0.464  0.2405  0.0462  0.0830
 3692TIP3    H132711   3.585   4.569   0.423 -0.4478 -0.1027 -0.0711
 3692TIP3    H232712   3.687   4.479   0.488 -0.0192  1.4440  1.4952
 3693TIP3   OH232713   2.157   5.913   0.269 -0.7891 -0.1163  0.1623
 3693TIP3    H132714   2.160   5.857   0.346 -0.0051 -0.4928 -0.1356
 3693TIP3    H232715   2.084   5.879   0.217  0.2230 -1.4423 -0.4442
 3694TIP3   OH232716   5.097   0.787   7.971  0.0864  0.1083 -0.3323
 3694TIP3    H132717   5.068   0.878   7.986  0.6971  0.2573  0.0172
 3694TIP3    H232718   5.017   0.740   7.949 -0.6032  0.3168  1.4658
 3695TIP3   OH232719   3.580   4.506   2.017  0.1333  0.0780 -0.5697
 3695TIP3    H132720   3.656   4.476   2.068 -0.2791  2.3655  1.5745
 3695TIP3    H232721   3.594   4.600   2.006 -1.3987  0.1729 -1.9513
 3696TIP3   OH232722   6.752   2.143   1.023  0.0321 -0.1100 -0.1733
 3696TIP3    H132723   6.765   2.227   0.978 -0.9319  0.4077  0.4763
 3696TIP3    H232724   6.773   2.162   1.115 -1.0573 -0.3396  0.1347
 3697TIP3   OH232725   6.659   2.504   1.484 -0.1975  0.2728  0.3842
 3697TIP3    H132726   6.579   2.550   1.511 -0.4342  1.2676 -1.7983
 3697TIP3    H232727   6.637   2.411   1.492 -2.3269  0.4788 -1.9484
 3698TIP3   OH232728   1.791   2.427   0.322 -0.4732 -0.3909 -0.2259
 3698TIP3    H132729   1.707   2.464   0.295 -1.5067 -2.0420  0.5337
 3698TIP3    H232730   1.854   2.458   0.257 -1.3177  2.2464  0.1098
 3699TIP3   OH232731   5.733   2.222   8.094 -0.6843 -0.0424 -0.3336
 3699TIP3    H132732   5.740   2.233   8.189 -0.7276  1.9164 -0.5263
 3699TIP3    H232733   5.669   2.152   8.083 -0.2546 -0.7112  1.0707
 3700TIP3   OH232734   1.623   1.355   0.734  0.1567  0.2809 -0.2535
 3700TIP3    H132735   1.708   1.315   0.753 -0.9370 -1.4810  1.2968
 3700TIP3    H232736   1.563   1.312   0.794 -1.7744  1.8124 -0.9948
 3701TIP3   OH232737   6.602   0.585   8.257  0.1395  0.4319 -0.1703
 3701TIP3    H132738   6.559   0.653   8.310  0.4756 -0.3908  1.1909
 3701TIP3    H232739   6.659   0.634   8.197  0.5852  1.3667  0.9771
 3702TIP3   OH232740   6.812   6.330   1.844 -0.4708 -0.0051 -0.2741
 3702TIP3    H132741   6.844   6.351   1.932 -0.5530 -0.8694 -0.0255
 3702TIP3    H232742   6.864   6.255   1.817 -1.8543 -1.0753 -0.0979
 3703TIP3   OH232743   2.462   1.517   8.054  0.6896 -0.3561  0.8035
 3703TIP3    H132744   2.448   1.583   8.122 -0.3133 -0.7719  1.0227
 3703TIP3    H232745   2.431   1.559   7.973  0.8336 -0.2599  0.7990
 3704TIP3   OH232746   1.168   6.309   0.166 -0.4271  0.0693 -0.1667
 3704TIP3    H132747   1.133   6.382   0.217  1.0516 -0.8934  2.4025
 3704TIP3    H232748   1.213   6.351   0.093  0.0150  1.7452  1.0030
 3705TIP3   OH232749   0.094   0.193   8.467  0.0199  0.3820 -0.0228
 3705TIP3    H132750   0.064   0.128   8.531 -0.2200 -1.5171 -1.9504
 3705TIP3    H232751   0.020   0.204   8.408  0.9202  0.4950 -1.1689
 3706TIP3   OH232752   4.783   5.269   1.321  0.1495 -0.8623  0.0126
 3706TIP3    H132753   4.755   5.358   1.297 -0.5813 -0.9026  0.6683
 3706TIP3    H232754   4.714   5.213   1.286  0.0250 -1.0732  0.5970
 3707TIP3   OH232755   0.242   6.418   0.820 -0.1218  0.4146 -0.6985
 3707TIP3    H132756   0.326   6.388   0.856 -0.3499  1.1580  0.5110
 3707TIP3    H232757   0.250   6.405   0.726 -0.3297 -3.8098 -0.3402
 3708TIP3   OH232758   3.722   1.064   1.938  0.5879 -0.1905 -0.9166
 3708TIP3    H132759   3.668   0.986   1.922 -1.0391  0.7088  0.0088
 3708TIP3    H232760   3.708   1.084   2.031 -1.7723  3.1393 -1.8023
 3709TIP3   OH232761   5.230   0.754   7.190  0.2282  0.6029 -0.0886
 3709TIP3    H132762   5.197   0.740   7.279 -1.4566  1.2479 -0.5840
 3709TIP3    H232763   5.316   0.711   7.190 -1.1395 -2.4300  0.8746
 3710TIP3   OH232764   0.497   4.162   8.148 -0.0886 -0.6168 -0.3601
 3710TIP3    H132765   0.465   4.223   8.082  1.0144 -0.5550 -0.8567
 3710TIP3    H232766   0.478   4.204   8.232 -1.9284 -0.9073 -0.5922
 3711TIP3   OH232767   6.722   5.711   1.551 -0.0129  0.0539 -0.1740
 3711TIP3    H132768   6.664   5.671   1.616  0.4396  0.2302  0.3438
 3711TIP3    H232769   6.675   5.702   1.468 -1.0571  0.7312  0.3208
 3712TIP3   OH232770   3.863   0.628   6.891 -0.0617  0.0846  0.0610
 3712TIP3    H132771   3.937   0.684   6.866 -1.2074  2.0940  0.9098
 3712TIP3    H232772   3.790   0.659   6.837 -0.8808 -0.1439  0.9997
 3713TIP3   OH232773   0.114   5.562   6.913  0.5201 -0.0640 -0.1526
 3713TIP3    H132774   0.161   5.642   6.936  0.8016 -0.2461 -0.0922
 3713TIP3    H232775   0.055   5.588   6.842 -0.1844  0.4574  0.5967
 3714TIP3   OH232776   3.997   3.749   0.293  0.2157 -0.1761  0.4950
 3714TIP3    H132777   4.057   3.678   0.318 -0.3990 -0.4537  1.2216
 3714TIP3    H232778   3.910   3.716   0.315 -0.2515  0.1044 -0.8137
 3715TIP3   OH232779   5.325   2.837   0.073 -0.3370 -0.0690 -0.1458
 3715TIP3    H132780   5.343   2.869   0.161 -2.6592 -4.6951  2.3182
 3715TIP3    H232781   5.412   2.829   0.033  0.7617  2.4761  1.4310
 3716TIP3   OH232782   2.657   1.725   8.460  0.5717 -0.0884 -0.0410
 3716TIP3    H132783   2.565   1.745   8.476  0.7785  0.7080  0.2223
 3716TIP3    H232784   2.694   1.710   8.548  1.1118  1.5790  0.0578
 3717TIP3   OH232785   5.161   4.842   7.638 -0.7052  0.0462 -0.5476
 3717TIP3    H132786   5.211   4.763   7.659  0.3834  0.5894 -1.0127
 3717TIP3    H232787   5.120   4.823   7.553 -1.2296 -0.3631 -0.2111
 3718TIP3   OH232788   5.824   1.419   6.993 -0.0569 -0.1975 -0.4850
 3718TIP3    H132789   5.825   1.473   7.072  1.4553 -0.8413 -0.0389
 3718TIP3    H232790   5.896   1.452   6.940 -0.4408 -0.4147 -1.1521
 3719TIP3   OH232791   6.537   6.226   0.069 -0.0498 -0.8991 -0.0060
 3719TIP3    H132792   6.489   6.305   0.095  0.6809 -0.3210 -0.3498
 3719TIP3    H232793   6.566   6.188   0.152 -0.5543 -0.9017  0.1722
 3720TIP3   OH232794   3.830   1.135   6.305  0.0309 -0.2711 -0.2567
 3720TIP3    H132795   3.798   1.191   6.234  0.3962 -0.7532 -0.8053
 3720TIP3    H232796   3.886   1.192   6.357  0.0532 -0.0108 -0.5609
 3721TIP3   OH232797   3.991   4.954   0.557 -0.2618  0.1701  0.1972
 3721TIP3    H132798   3.903   4.917   0.556 -0.2857  0.2053  0.6726
 3721TIP3    H232799   4.048   4.881   0.580 -0.2810  0.3709  0.8875
 3722TIP3   OH232800   6.308   0.774   1.530  0.0852 -1.0113 -0.0340
 3722TIP3    H132801   6.244   0.814   1.589 -0.0574 -0.5544 -0.4969
 3722TIP3    H232802   6.257   0.718   1.473  0.0898 -0.6203 -0.4257
 3723TIP3   OH232803   5.582   3.673   8.099 -0.4220 -0.1365  0.1636
 3723TIP3    H132804   5.651   3.677   8.165  0.4191 -1.5949 -0.5508
 3723TIP3    H232805   5.603   3.593   8.049 -2.2627 -0.2499 -0.4831
 3724TIP3   OH232806   2.056   0.434   8.733 -0.2788  0.3832 -1.0179
 3724TIP3    H132807   2.037   0.355   8.683 -1.1582  0.9109 -1.5363
 3724TIP3    H232808   2.060   0.503   8.667  1.4066  0.6459 -0.6836
 3725TIP3   OH232809   5.768   5.719   7.387 -0.1741  0.0384  0.7784
 3725TIP3    H132810   5.790   5.689   7.299 -0.8404  0.7336  0.3673
 3725TIP3    H232811   5.843   5.773   7.413  0.1879 -0.4664  0.7848
 3726TIP3   OH232812   0.614   2.547   7.308 -0.1922 -0.6419 -0.2491
 3726TIP3    H132813   0.570   2.549   7.223  0.6980 -1.5962 -0.7534
 3726TIP3    H232814   0.564   2.607   7.362 -0.8739 -0.1361 -1.4033
 3727TIP3   OH232815   5.664   4.867   2.016 -0.7096  0.1854 -0.6050
 3727TIP3    H132816   5.697   4.956   2.028 -0.2545 -0.2685  2.3795
 3727TIP3    H232817   5.603   4.855   2.089 -0.4592 -2.0533 -0.7059
 3728TIP3   OH232818   1.796   0.675   0.821  0.8136 -0.1339  0.0466
 3728TIP3    H132819   1.828   0.682   0.911  1.0611 -1.2967  0.0681
 3728TIP3    H232820   1.874   0.693   0.767  1.1259 -1.2333  0.0938
 3729TIP3   OH232821   1.430   2.694   7.796  0.0772 -0.0689 -0.2701
 3729TIP3    H132822   1.413   2.702   7.702 -0.5292 -1.6480 -0.3308
 3729TIP3    H232823   1.418   2.783   7.830 -1.8550  0.1580 -1.3681
 3730TIP3   OH232824   2.769   5.557   8.233 -0.4169 -0.7282  0.0311
 3730TIP3    H132825   2.798   5.645   8.210 -1.4701  0.0897  1.6490
 3730TIP3    H232826   2.813   5.500   8.169  1.1027  0.8456 -0.4136
 3731TIP3   OH232827   1.586   1.723   0.831 -0.4547 -0.2568 -0.2078
 3731TIP3    H132828   1.502   1.684   0.810 -0.7696  1.0082 -1.4502
 3731TIP3    H232829   1.565   1.808   0.869  0.2330 -0.8609  1.6193
 3732TIP3   OH232830   0.345   4.689   8.343  0.2020 -0.0934 -0.8279
 3732TIP3    H132831   0.368   4.764   8.288  0.6978  0.8263  0.5697
 3732TIP3    H232832   0.395   4.702   8.424  2.0820 -3.1497 -1.3561
 3733TIP3   OH232833   4.009   6.353   8.575  0.3945  0.7466  0.6258
 3733TIP3    H132834   3.996   6.338   8.482 -0.9234  2.5408  0.4549
 3733TIP3    H232835   3.971   6.276   8.618 -0.2215  0.5242 -0.2969
 3734TIP3   OH232836   3.917   6.423   1.656  0.2196 -0.6333  0.4580
 3734TIP3    H132837   3.970   6.502   1.668  0.1048 -0.4977  0.0863
 3734TIP3    H232838   3.829   6.456   1.640  0.1411 -0.8423  0.4633
 3735TIP3   OH232839   3.964   3.796   6.983 -1.0474  0.4349 -0.7070
 3735TIP3    H132840   3.955   3.714   6.934 -0.6573  0.0191 -0.1063
 3735TIP3    H232841   3.876   3.831   6.988 -1.1264  0.3631 -1.4969
 3736TIP3   OH232842   2.583   6.172   1.175  0.0384 -0.7614 -0.2218
 3736TIP3    H132843   2.515   6.112   1.207 -1.0253  0.9844  0.9664
 3736TIP3    H232844   2.535   6.242   1.133  1.0954  0.3959  0.4191
 3737TIP3   OH232845   5.996   0.314   7.887 -0.3759 -0.3518 -0.3003
 3737TIP3    H132846   5.950   0.311   7.804  0.2750 -0.0770 -0.6809
 3737TIP3    H232847   6.054   0.390   7.879 -0.8295  0.1222  0.6807
 3738TIP3   OH232848   3.525   4.240   0.356 -0.1265 -0.0327 -0.4767
 3738TIP3    H132849   3.539   4.309   0.421  0.0788  0.1719 -0.7373
 3738TIP3    H232850   3.570   4.271   0.278  3.3829 -2.1877  0.4822
 3739TIP3   OH232851   4.023   2.740   0.341 -0.9098  0.0681  0.3059
 3739TIP3    H132852   4.079   2.724   0.265 -0.2447 -0.6125  0.9211
 3739TIP3    H232853   4.069   2.807   0.392 -0.4331 -0.7848  1.0186
 3740TIP3   OH232854   0.497   4.035   7.509  0.3587 -0.3783  0.4768
 3740TIP3    H132855   0.541   3.958   7.544  0.4289  0.0441  1.3310
 3740TIP3    H232856   0.422   4.050   7.567 -0.7810 -0.9174 -0.7989
 3741TIP3   OH232857   0.785   3.913   7.860  0.1049 -0.2754  0.4398
 3741TIP3    H132858   0.820   3.980   7.801 -0.4964  0.4290  0.8697
 3741TIP3    H232859   0.748   3.962   7.934  0.4084 -1.1179  1.1739
 3742TIP3   OH232860   3.040   5.970   1.314 -0.0218  0.1821 -0.0966
 3742TIP3    H132861   2.970   5.939   1.257  0.4594 -0.5473 -0.3032
 3742TIP3    H232862   3.022   5.930   1.399 -0.8591  1.4405  0.3334
 3743TIP3   OH232863   6.518   3.156   2.148 -0.5173 -0.3868 -0.3384
 3743TIP3    H132864   6.445   3.217   2.138  0.3583  0.2917 -4.0770
 3743TIP3    H232865   6.571   3.193   2.219 -0.9182  2.3492 -1.3390
 3744TIP3   OH232866   0.629   1.985   0.897 -0.2875 -0.2276  0.6075
 3744TIP3    H132867   0.707   1.983   0.952 -0.4119 -0.4142  0.7791
 3744TIP3    H232868   0.606   2.078   0.891  0.4716 -0.0819 -0.1964
 3745TIP3   OH232869   3.898   6.835   0.007  0.7520 -0.7223 -0.3275
 3745TIP3    H132870   3.959   6.867   0.073 -0.1841  1.6429 -0.5172
 3745TIP3    H232871   3.952   6.781  -0.051  2.1057 -0.7671  0.9149
 3746TIP3   OH232872   5.050   4.999   6.585  0.4998 -0.3053  0.0858
 3746TIP3    H132873   5.008   4.922   6.546  0.7360  0.2222 -1.2552
 3746TIP3    H232874   5.013   5.004   6.674  0.0877 -1.6440  0.0102
 3747TIP3   OH232875   3.809   2.915   2.345 -0.1391 -0.3713  0.0008
 3747TIP3    H132876   3.781   2.982   2.283  1.0383 -0.5461 -0.7464
 3747TIP3    H232877   3.754   2.839   2.324 -1.7460  0.4347  1.1068
 3748TIP3   OH232878   0.789   6.165   8.735 -0.1490 -0.0951  0.1249
 3748TIP3    H132879   0.858   6.232   8.728  0.7617 -1.1126 -1.2276
 3748TIP3    H232880   0.707   6.215   8.735  0.4133  1.0055 -2.6979
 3749TIP3   OH232881   5.111   6.000   6.789  0.2644 -0.4557 -0.0310
 3749TIP3    H132882   5.112   6.056   6.712 -0.5604 -0.8293 -0.3287
 3749TIP3    H232883   5.199   6.007   6.825  0.1190  1.2286  0.0839
 3750TIP3   OH232884   5.774   3.045   0.502 -0.5705 -0.2411 -0.3444
 3750TIP3    H132885   5.726   3.128   0.495  2.0365  1.5566  1.4537
 3750TIP3    H232886   5.813   3.033   0.415 -0.0076  1.0813 -0.2953
 3751TIP3   OH232887   1.657   2.430   0.000 -0.1157 -0.0446  0.1040
 3751TIP3    H132888   1.729   2.367  -0.003  0.3875  0.5514 -0.4771
 3751TIP3    H232889   1.598   2.402  -0.070  0.0439  0.0585 -0.0706
 3752TIP3   OH232890   3.233   0.281   6.060  0.1354  0.0290 -0.4833
 3752TIP3    H132891   3.312   0.253   6.106 -0.9198 -2.1687  0.1215
 3752TIP3    H232892   3.257   0.277   5.967  0.9194 -0.0231 -0.2874
 3753TIP3   OH232893   3.552   6.022   8.222 -0.3453 -0.1106  0.1350
 3753TIP3    H132894   3.617   6.078   8.182  0.3162 -0.1768  1.0807
 3753TIP3    H232895   3.594   5.936   8.228 -0.1803  0.0343  1.4938
 3754TIP3   OH232896   1.372   6.526   1.261 -0.5579 -0.7690 -0.0973
 3754TIP3    H132897   1.396   6.443   1.301  0.7695  0.6861  2.4083
 3754TIP3    H232898   1.453   6.578   1.264 -1.9377  1.4924  0.9347
 3755TIP3   OH232899   4.386   5.216   0.921  0.6693  0.3034 -0.0055
 3755TIP3    H132900   4.326   5.174   0.983  0.4918  0.3061 -0.1723
 3755TIP3    H232901   4.463   5.238   0.973 -0.0859  1.7145  0.5739
 3756TIP3   OH232902   3.496   6.192   6.995 -0.4525 -0.3473 -0.4507
 3756TIP3    H132903   3.425   6.169   6.934 -0.7158 -0.1152 -0.2378
 3756TIP3    H232904   3.486   6.129   7.067 -1.1641  0.3994  0.1250
 3757TIP3   OH232905   0.490   2.702   1.078 -0.7143 -0.1437  0.0560
 3757TIP3    H132906   0.444   2.691   0.994 -1.1548 -1.6033  0.4623
 3757TIP3    H232907   0.443   2.645   1.139 -0.4849  1.0076  1.3520
 3758TIP3   OH232908   3.225   3.414   0.075 -0.5396  0.0956  0.4177
 3758TIP3    H132909   3.260   3.487   0.026 -2.5063 -0.1442 -1.4949
 3758TIP3    H232910   3.165   3.453   0.138  0.4264  0.2624  1.2610
 3759TIP3   OH232911   5.012   2.027   7.516 -0.0392  0.1872  0.0389
 3759TIP3    H132912   4.989   2.071   7.597  0.2216 -0.3640  0.4213
 3759TIP3    H232913   5.017   2.097   7.451  1.1393  0.8275  0.7879
 3760TIP3   OH232914   6.398   4.350   1.365  0.0406 -0.3846  0.0987
 3760TIP3    H132915   6.397   4.440   1.333  1.0969 -0.8489 -1.2947
 3760TIP3    H232916   6.415   4.297   1.288  1.8133 -1.6204  1.2834
 3761TIP3   OH232917   2.486   2.669   0.371  0.3881  0.2444  0.1077
 3761TIP3    H132918   2.543   2.731   0.325 -1.0084  0.8529 -0.8735
 3761TIP3    H232919   2.510   2.583   0.335  0.5052  0.5169 -0.4716
 3762TIP3   OH232920   0.079   3.186   7.403 -0.4560 -0.4941  0.2906
 3762TIP3    H132921   0.144   3.143   7.458 -2.5042 -1.4767  2.0579
 3762TIP3    H232922   0.087   3.279   7.425 -0.6067 -0.7708  1.5814
 3763TIP3   OH232923   1.888   3.113   0.137 -0.2819  0.1522 -0.7596
 3763TIP3    H132924   1.950   3.181   0.109 -1.2110  0.5015 -2.0440
 3763TIP3    H232925   1.921   3.085   0.223  0.9357  1.2040 -0.8478
 3764TIP3   OH232926   2.779   2.657   7.146  0.0638  0.3487 -0.4949
 3764TIP3    H132927   2.795   2.574   7.101 -1.3154 -1.2442  1.7737
 3764TIP3    H232928   2.710   2.699   7.095 -0.2406 -0.5700 -0.8562
 3765TIP3   OH232929   6.626   1.734   6.513  0.0195  0.1681 -0.0546
 3765TIP3    H132930   6.639   1.810   6.457  0.5543  0.8333  0.9565
 3765TIP3    H232931   6.709   1.686   6.509  1.2765  1.8675  2.5670
 3766TIP3   OH232932   3.360   4.945   2.265 -0.2285 -0.1901 -0.1849
 3766TIP3    H132933   3.416   4.972   2.338  1.3702 -2.7084 -0.3866
 3766TIP3    H232934   3.351   5.025   2.212  0.7142  1.0276  1.3778
 3767TIP3   OH232935   4.717   3.190   6.531  0.6416  0.1652 -0.4429
 3767TIP3    H132936   4.706   3.127   6.460  0.8542  1.0467 -1.2839
 3767TIP3    H232937   4.674   3.270   6.500 -1.9281 -0.2795  1.6736
 3768TIP3   OH232938   6.006   1.222   6.475  0.7838  0.4658 -0.5066
 3768TIP3    H132939   6.051   1.295   6.432  1.8172  1.0166  1.3818
 3768TIP3    H232940   5.956   1.264   6.545  1.2722 -0.6084  0.5154
 3769TIP3   OH232941   0.806   3.791   1.738  0.1914 -0.0756  0.5996
 3769TIP3    H132942   0.849   3.787   1.823 -1.1195 -0.0102  1.2931
 3769TIP3    H232943   0.840   3.871   1.698 -0.0499  0.5366  1.5685
 3770TIP3   OH232944   4.413   5.859   0.253  0.3981 -0.4896 -0.4410
 3770TIP3    H132945   4.338   5.871   0.311  2.0376  0.3722  1.5851
 3770TIP3    H232946   4.409   5.766   0.228 -0.0719 -1.0341  1.4930
 3771TIP3   OH232947   4.171   5.575   7.723  0.1543  0.3819  0.2892
 3771TIP3    H132948   4.266   5.590   7.730  0.3576 -1.0750  1.0961
 3771TIP3    H232949   4.134   5.617   7.801  0.2097  0.4392  0.2849
 3772TIP3   OH232950   5.187   4.147   8.789 -0.5387  0.0608  0.3689
 3772TIP3    H132951   5.107   4.113   8.748 -0.4782 -1.6165  1.5162
 3772TIP3    H232952   5.159   4.172   8.877 -0.1676  1.2569  0.1572
 3773TIP3   OH232953   3.125   2.686   2.245 -0.1969 -0.0417 -0.5460
 3773TIP3    H132954   3.211   2.701   2.286  0.5184 -1.4498 -1.4491
 3773TIP3    H232955   3.140   2.615   2.183 -1.6695  0.7729 -1.9139
 3774TIP3   OH232956   1.928   5.332   0.190 -0.2617  0.3210 -0.0861
 3774TIP3    H132957   1.927   5.421   0.226  0.1234 -0.5135  2.1430
 3774TIP3    H232958   1.852   5.329   0.131 -1.0733  1.7200  0.8285
 3775TIP3   OH232959   4.036   0.210   8.627 -0.0705 -0.5511 -0.0187
 3775TIP3    H132960   3.951   0.170   8.646 -0.7404 -0.0276 -1.6493
 3775TIP3    H232961   4.095   0.136   8.611 -1.1282 -0.9914 -2.3473
 3776TIP3   OH232962   6.730   3.236   1.528  0.1928  0.0629 -0.0736
 3776TIP3    H132963   6.700   3.286   1.603 -1.1572  0.9646 -1.1604
 3776TIP3    H232964   6.818   3.270   1.510  0.3304  0.1820  0.7768
 3777TIP3   OH232965   3.104   5.482   0.911 -0.0729  0.6009  0.4374
 3777TIP3    H132966   3.175   5.468   0.848  1.0302  1.9666  1.3176
 3777TIP3    H232967   3.042   5.539   0.865  0.7385  1.6105  0.5643
 3778TIP3   OH232968   3.532   3.920   7.923  0.5133  0.2291  0.1539
 3778TIP3    H132969   3.569   3.871   7.849  0.5827 -1.2036  1.0858
 3778TIP3    H232970   3.598   3.912   7.992 -0.6119 -0.6239  1.1753
 3779TIP3   OH232971   3.359   5.903   0.667 -0.2975 -0.5269 -0.0592
 3779TIP3    H132972   3.324   5.882   0.753 -1.9939 -0.2641 -0.6464
 3779TIP3    H232973   3.296   5.965   0.630  2.0770  1.9984 -0.2124
 3780TIP3   OH232974   5.466   3.539   6.971 -0.0476 -0.0128 -0.7219
 3780TIP3    H132975   5.381   3.541   6.925 -0.2641  0.2949 -0.3073
 3780TIP3    H232976   5.509   3.461   6.935 -0.6573 -0.3871 -0.6759
 3781TIP3   OH232977   6.034   6.484   7.787  0.5593  0.7064  0.5066
 3781TIP3    H132978   6.011   6.564   7.740 -0.8936 -0.3799 -0.7096
 3781TIP3    H232979   6.037   6.416   7.720 -1.8030 -0.9541  1.9287
 3782TIP3   OH232980   6.325   0.216   2.526  0.0146  0.9776 -0.1301
 3782TIP3    H132981   6.246   0.169   2.553 -0.8975  0.2986 -3.4695
 3782TIP3    H232982   6.307   0.307   2.549 -0.7798  0.5273  1.1296
 3783TIP3   OH232983   5.473   3.509   0.501 -0.4426 -0.5673  0.1919
 3783TIP3    H132984   5.380   3.488   0.516 -0.4345 -0.8301 -0.1149
 3783TIP3    H232985   5.481   3.600   0.529 -1.2539  0.1220 -1.6480
 3784TIP3   OH232986   2.815   4.117   2.893 -0.4416  0.6362  0.1150
 3784TIP3    H132987   2.823   4.046   2.830  0.8803 -1.9462  2.9167
 3784TIP3    H232988   2.897   4.165   2.886  0.7398 -1.1006  1.3758
 3785TIP3   OH232989   0.159   1.052   0.196 -0.2961 -0.1406 -0.7248
 3785TIP3    H132990   0.192   0.994   0.265 -2.3887 -0.6263 -0.0618
 3785TIP3    H232991   0.078   1.011   0.167 -0.4991  1.1367 -2.0774
 3786TIP3   OH232992   0.525   3.134   0.583 -0.1708 -0.2312 -0.4647
 3786TIP3    H132993   0.449   3.115   0.527  0.3875  0.1686 -1.3744
 3786TIP3    H232994   0.508   3.221   0.618  0.4377  0.3938 -1.6682
 3787TIP3   OH232995   1.248   1.572   7.138  0.2594  0.1867  0.6071
 3787TIP3    H132996   1.334   1.613   7.130 -0.7104  2.2284  0.0736
 3787TIP3    H232997   1.204   1.592   7.056 -0.7414 -0.8764  0.8543
 3788TIP3   OH232998   4.800   0.790   8.063  0.5228  0.0032 -0.6095
 3788TIP3    H132999   4.849   0.864   8.027  0.6438 -0.4544 -1.4159
 3788TIP3    H233000   4.727   0.830   8.110  1.0571  0.6557 -0.3270
 3789TIP3   OH233001   4.788   3.489   1.621  0.3995  0.4933 -0.4792
 3789TIP3    H133002   4.704   3.470   1.664 -0.1072  1.7971 -0.8392
 3789TIP3    H233003   4.852   3.486   1.691  0.0881 -0.6683 -0.2194
 3790TIP3   OH233004   3.937   4.258   2.902  0.3984 -0.0558  0.5968
 3790TIP3    H133005   3.972   4.179   2.860  0.8716  0.4999 -0.0821
 3790TIP3    H233006   4.002   4.326   2.884  0.1737  0.4144  1.4807
 3791TIP3   OH233007   0.438   3.174   7.278 -0.0988  0.6292 -0.2308
 3791TIP3    H133008   0.490   3.233   7.332  2.1631  0.6125 -2.2323
 3791TIP3    H233009   0.359   3.224   7.257  0.2157  1.6206  0.8495
 3792TIP3   OH233010   6.153   6.260   0.123  0.5055 -0.0239  0.2278
 3792TIP3    H133011   6.187   6.330   0.068  1.7019  0.6841  1.7679
 3792TIP3    H233012   6.228   6.201   0.135  0.5681  0.3094  1.7538
 3793TIP3   OH233013   6.333   1.230   8.025 -0.6477 -0.1863 -0.0356
 3793TIP3    H133014   6.301   1.235   8.116 -0.4571 -1.9474  0.1541
 3793TIP3    H233015   6.268   1.175   7.980 -0.8508  0.8314 -1.0441
 3794TIP3   OH233016   6.081   2.168   0.712 -0.4966  0.3611  0.2490
 3794TIP3    H133017   6.163   2.122   0.696  0.8113  2.7775 -0.6131
 3794TIP3    H233018   6.067   2.162   0.806  1.1161  0.5329  0.5282
 3795TIP3   OH233019   4.961   4.802   0.189 -0.4936 -0.2236  0.2098
 3795TIP3    H133020   5.023   4.738   0.224  1.2181  0.9318 -0.5176
 3795TIP3    H233021   5.000   4.830   0.106 -1.8205  0.8355 -0.0965
 3796TIP3   OH233022   6.461   0.293   0.302  0.6535 -0.1737 -0.7116
 3796TIP3    H133023   6.547   0.312   0.341  0.8325 -0.4984 -0.9398
 3796TIP3    H233024   6.453   0.355   0.230  0.2227  0.5809 -0.0240
 3797TIP3   OH233025   0.848   1.706   0.948  0.6075  0.2658 -0.3378
 3797TIP3    H133026   0.851   1.793   0.987 -0.1572 -0.2580  0.9596
 3797TIP3    H233027   0.784   1.714   0.876 -1.4146  0.2111  1.3657
 3798TIP3   OH233028   1.940   6.294   6.405  0.3519  0.1189 -0.1351
 3798TIP3    H133029   2.012   6.322   6.462 -0.1415  1.7003 -0.2273
 3798TIP3    H233030   1.899   6.376   6.378  1.1626 -0.4736 -3.5689
 3799TIP3   OH233031   2.893   4.045   1.757  0.2438 -0.2594  0.7004
 3799TIP3    H133032   2.870   4.064   1.848  0.0428  0.5367  0.4919
 3799TIP3    H233033   2.923   4.129   1.722  2.0603 -0.9290  0.5359
 3800TIP3   OH233034   5.790   6.249   0.092 -0.3383 -0.2737  0.1178
 3800TIP3    H133035   5.837   6.206   0.164 -0.1473 -0.4489 -0.1135
 3800TIP3    H233036   5.833   6.335   0.084  0.0475 -0.4924 -0.1952
 3801TIP3   OH233037   4.831   0.522   1.067 -0.3985  0.3505 -0.2025
 3801TIP3    H133038   4.875   0.521   1.151 -0.7920  0.7819  0.0143
 3801TIP3    H233039   4.767   0.593   1.074  0.3864  1.2025 -1.2830
 3802TIP3   OH233040   4.326   2.269   7.711  0.0708  0.3825  0.4192
 3802TIP3    H133041   4.326   2.239   7.802  0.9383 -0.9523  0.0047
 3802TIP3    H233042   4.392   2.339   7.709  1.0062 -0.4747  0.5587
 3803TIP3   OH233043   3.275   3.786   8.134 -0.4039  0.2615  0.5420
 3803TIP3    H133044   3.315   3.848   8.074 -0.6226 -1.7422 -1.8653
 3803TIP3    H233045   3.255   3.837   8.212  1.9866  2.5028 -0.1719
 3804TIP3   OH233046   3.856   2.298   2.521  0.2099 -0.1616 -0.3635
 3804TIP3    H133047   3.807   2.241   2.461 -0.1354  0.9317 -1.1636
 3804TIP3    H233048   3.813   2.287   2.605 -0.9074  0.1688 -0.8784
 3805TIP3   OH233049   2.652   3.309   1.659 -0.4174  0.4823  0.2271
 3805TIP3    H133050   2.608   3.353   1.731 -0.0855  1.4197 -0.1373
 3805TIP3    H233051   2.705   3.376   1.617  0.9250 -0.4902  0.2956
 3806TIP3   OH233052   0.446   4.814   0.884  0.0651 -0.1481 -0.1526
 3806TIP3    H133053   0.408   4.789   0.969  1.0352  2.0510  1.0148
 3806TIP3    H233054   0.513   4.748   0.867  0.7900  0.1104  1.5125
 3807TIP3   OH233055   5.754   1.770   8.586  0.1401 -0.4215 -0.7707
 3807TIP3    H133056   5.746   1.769   8.491  0.7880  0.5700 -0.8543
 3807TIP3    H233057   5.783   1.858   8.607 -2.3105  0.1717  0.5686
 3808TIP3   OH233058   4.642   0.913   2.048 -0.6778 -0.4229  0.0439
 3808TIP3    H133059   4.568   0.973   2.048 -0.0460  0.3885  0.7486
 3808TIP3    H233060   4.603   0.826   2.048 -1.6379 -0.0050  0.8379
 3809TIP3   OH233061   4.305   2.201   7.979  0.0965 -0.2627  0.3581
 3809TIP3    H133062   4.361   2.278   7.983 -0.1825  0.0057 -0.6687
 3809TIP3    H233063   4.342   2.140   8.043  0.1537  0.8280  1.3885
 3810TIP3   OH233064   2.028   6.668   0.826 -0.6774 -0.5842  0.1788
 3810TIP3    H133065   2.087   6.739   0.851 -1.9552  0.6806 -0.3339
 3810TIP3    H233066   2.000   6.630   0.909 -0.3388 -0.2113  0.4703
 3811TIP3   OH233067   1.357   3.463   6.925  0.7292  0.8181 -0.3877
 3811TIP3    H133068   1.359   3.371   6.899  0.8228  0.4981  0.6945
 3811TIP3    H233069   1.265   3.487   6.921  0.5702  0.3577  0.3734
 3812TIP3   OH233070   0.399   1.689   1.041 -0.2608 -0.1403 -0.2368
 3812TIP3    H133071   0.378   1.775   1.006  1.4497 -0.1453 -1.4235
 3812TIP3    H233072   0.406   1.702   1.136 -2.9073  0.3320 -0.0482
 3813TIP3   OH233073   3.424   2.398   0.536  0.4286 -0.5123  0.0528
 3813TIP3    H133074   3.421   2.329   0.603 -1.1744 -1.2796 -0.7687
 3813TIP3    H233075   3.334   2.427   0.527  1.0685  1.6705  0.3039
 3814TIP3   OH233076   4.333   1.858   6.522 -0.3344  0.0704 -0.2066
 3814TIP3    H133077   4.323   1.775   6.477  0.0893  0.1037 -0.3670
 3814TIP3    H233078   4.428   1.872   6.527 -0.4016  1.1206 -1.2785
 3815TIP3   OH233079   3.812   4.415   1.104  0.0676  0.1352 -0.0948
 3815TIP3    H133080   3.898   4.390   1.139 -0.3557 -0.6256  0.4379
 3815TIP3    H233081   3.777   4.477   1.168  1.0086  2.0002 -1.2865
 3816TIP3   OH233082   6.608   1.840   2.116 -0.4237 -0.2881  0.5104
 3816TIP3    H133083   6.578   1.829   2.207 -0.3316  1.2218  0.7587
 3816TIP3    H233084   6.558   1.915   2.084 -0.0596 -0.4714 -0.5226
 3817TIP3   OH233085   0.768   2.995   0.527  0.3625  0.0271 -0.2524
 3817TIP3    H133086   0.694   3.055   0.531  0.4716  0.2574 -1.4767
 3817TIP3    H233087   0.734   2.913   0.563 -1.1026 -0.4442 -2.4921
 3818TIP3   OH233088   5.601   2.786   0.608  0.1706  0.9038  0.4126
 3818TIP3    H133089   5.542   2.833   0.667 -0.5987  0.5428 -0.0631
 3818TIP3    H233090   5.618   2.848   0.537 -1.2243  0.3306 -0.4605
 3819TIP3   OH233091   6.153   6.633   0.799  0.2317 -0.0644 -0.8051
 3819TIP3    H133092   6.227   6.681   0.762  0.4603  1.1652  1.1392
 3819TIP3    H233093   6.081   6.651   0.738  0.6267  1.7635 -0.7930
 3820TIP3   OH233094   1.705   5.164   8.441 -0.0522  0.0418  0.0606
 3820TIP3    H133095   1.624   5.113   8.446  0.1368 -0.1236  2.0913
 3820TIP3    H233096   1.768   5.105   8.401 -0.1575 -0.9001  1.2560
 3821TIP3   OH233097   4.836   2.941   8.667 -0.6778 -0.2838  0.1403
 3821TIP3    H133098   4.911   2.950   8.725 -0.8172  0.9583  0.1433
 3821TIP3    H233099   4.831   2.847   8.649  0.9039 -0.3794  0.0925
 3822TIP3   OH233100   3.422   4.011   1.874 -0.6310 -0.7859  0.3526
 3822TIP3    H133101   3.492   3.972   1.821 -0.4429 -1.9190  1.3769
 3822TIP3    H233102   3.450   4.101   1.887  1.3114 -1.5125  1.7475
 3823TIP3   OH233103   1.160   0.793   8.614  0.5257  0.6715  0.1384
 3823TIP3    H133104   1.109   0.722   8.652  2.0011  0.7598  2.4960
 3823TIP3    H233105   1.243   0.752   8.588  1.0493  1.3099  0.7220
 3824TIP3   OH233106   2.440   1.912   0.621 -0.1427  0.1441 -0.1369
 3824TIP3    H133107   2.367   1.910   0.683 -1.1562 -0.7853 -1.2895
 3824TIP3    H233108   2.497   1.840   0.647 -0.8641 -0.6111 -0.6051
 3825TIP3   OH233109   4.164   0.630   0.214  0.0592 -0.7762 -0.2934
 3825TIP3    H133110   4.221   0.580   0.155  3.6682  2.2020  0.2353
 3825TIP3    H233111   4.121   0.564   0.267  0.5781 -3.3998 -2.8729
 3826TIP3   OH233112   4.906   5.168   8.471  0.7563 -0.3278  0.0644
 3826TIP3    H133113   4.941   5.080   8.457  1.5549 -0.3581  1.9465
 3826TIP3    H233114   4.859   5.162   8.554 -0.3037  0.7249 -0.4330
 3827TIP3   OH233115   4.934   3.788   0.734 -0.4099 -0.6341 -0.2864
 3827TIP3    H133116   4.856   3.791   0.791  0.6710 -1.8780  1.3825
 3827TIP3    H233117   4.926   3.864   0.678 -1.3414  0.9759  1.8766
 3828TIP3   OH233118   1.601   4.390   1.592 -0.6376  0.0411  0.4591
 3828TIP3    H133119   1.671   4.434   1.640 -1.3941  0.9610  0.7329
 3828TIP3    H233120   1.527   4.387   1.653 -1.4518  0.7745 -0.4562
 3829TIP3   OH233121   2.276   4.895   0.160  0.3411  0.0098  0.1711
 3829TIP3    H133122   2.189   4.868   0.132 -0.2224  0.8370  1.0804
 3829TIP3    H233123   2.335   4.838   0.112 -0.7110 -0.8013 -0.1925
 3830TIP3   OH233124   2.804   5.707   0.495 -0.4820 -0.1141 -0.2143
 3830TIP3    H133125   2.865   5.779   0.480  1.2464 -1.3762  0.4575
 3830TIP3    H233126   2.788   5.671   0.407 -0.8262  0.6391 -0.4706
 3831TIP3   OH233127   2.024   0.786   7.856 -0.0296  0.6638  0.8501
 3831TIP3    H133128   2.074   0.867   7.866  0.7123  0.4172 -0.5562
 3831TIP3    H233129   1.971   0.800   7.777  1.2226 -0.7175 -0.3143
 3832TIP3   OH233130   3.049   1.593   7.010 -0.3833  0.0211 -0.3160
 3832TIP3    H133131   2.959   1.582   7.040 -0.4921 -0.2201 -0.7316
 3832TIP3    H233132   3.047   1.571   6.917  0.1212 -0.0768 -0.3079
 3833TIP3   OH233133   3.995   6.792   1.972 -0.2483 -0.5410 -0.5723
 3833TIP3    H133134   4.077   6.779   2.021 -0.7315 -0.5766  0.2388
 3833TIP3    H233135   4.016   6.860   1.908  0.5802 -0.9577 -0.7648
 3834TIP3   OH233136   2.340   5.003   2.199  0.2663 -0.2805 -0.0323
 3834TIP3    H133137   2.291   5.021   2.279  0.0305  3.0855 -0.7895
 3834TIP3    H233138   2.273   4.994   2.132  0.5414 -0.6795 -0.2534
 3835TIP3   OH233139   1.845   3.392   1.869  0.6785  0.3125 -0.0034
 3835TIP3    H133140   1.783   3.463   1.883  0.8212  0.2058  1.2809
 3835TIP3    H233141   1.893   3.385   1.951  2.4160  0.3966 -0.9477
 3836TIP3   OH233142   0.819   5.365   1.141 -0.6631  0.6072 -0.1284
 3836TIP3    H133143   0.761   5.402   1.075 -1.0346  0.6641  0.2214
 3836TIP3    H233144   0.900   5.346   1.095 -0.5606  1.6019 -0.3750
 3837TIP3   OH233145   2.196   0.332   1.311  0.4600  0.0675  0.6193
 3837TIP3    H133146   2.142   0.274   1.365 -2.6412  0.3379 -1.8908
 3837TIP3    H233147   2.263   0.274   1.274  0.2074 -0.9397  1.6821
 3838TIP3   OH233148   6.215   3.538   7.583 -0.3168 -0.1711  0.1466
 3838TIP3    H133149   6.262   3.473   7.530  0.4928 -0.2077  0.9022
 3838TIP3    H233150   6.186   3.490   7.660 -1.3978 -0.0857 -0.1917
 3839TIP3   OH233151   2.359   2.648   1.383  0.1802  0.0351 -0.7727
 3839TIP3    H133152   2.350   2.603   1.467  1.2237  0.0887 -0.6218
 3839TIP3    H233153   2.425   2.716   1.398  0.9766 -0.4711 -1.8320
 3840TIP3   OH233154   6.284   0.367   8.537 -0.1030 -0.0671  0.5299
 3840TIP3    H133155   6.203   0.402   8.574 -1.1675 -1.1774 -0.6503
 3840TIP3    H233156   6.289   0.407   8.450  0.4754 -0.2298  0.4854
 3841TIP3   OH233157   1.140   4.255   1.646  0.0404 -0.2459  0.5607
 3841TIP3    H133158   1.179   4.312   1.580 -1.3810  1.0245  0.7691
 3841TIP3    H233159   1.190   4.271   1.726 -0.3849  0.7643  0.6294
 3842TIP3   OH233160   0.195   5.607   7.402  0.4573  0.6570 -0.3931
 3842TIP3    H133161   0.120   5.568   7.358 -0.2650  1.2654  0.2616
 3842TIP3    H233162   0.167   5.697   7.422  1.5506  1.0655 -0.6028
 3843TIP3   OH233163   4.924   3.019   0.836 -0.4159  0.1627 -0.2079
 3843TIP3    H133164   4.961   2.969   0.910  0.8670 -1.7031 -1.9990
 3843TIP3    H233165   4.995   3.023   0.772 -0.7424  3.6722 -0.5470
 3844TIP3   OH233166   6.850   1.817   1.413  0.2850  0.0938  0.1687
 3844TIP3    H133167   6.833   1.736   1.463  0.5035  1.2524  2.2322
 3844TIP3    H233168   6.764   1.858   1.404  0.0609 -0.6363 -1.4967
 3845TIP3   OH233169   3.902   5.386   7.573  0.3518  0.1627 -0.1898
 3845TIP3    H133170   3.948   5.419   7.496 -1.2385  1.4617 -0.6502
 3845TIP3    H233171   3.842   5.320   7.538 -0.4070  0.7882 -0.0870
 3846TIP3   OH233172   2.013   6.552   8.563 -0.2309  0.1507  0.1360
 3846TIP3    H133173   1.978   6.549   8.652 -0.0635 -0.5314  0.1848
 3846TIP3    H233174   2.058   6.636   8.558  0.9468 -0.3953  1.1611
 3847TIP3   OH233175   3.300   3.339   7.043 -0.1749 -0.6270  0.4073
 3847TIP3    H133176   3.224   3.334   7.100  0.2994  0.2481  1.1356
 3847TIP3    H233177   3.283   3.415   6.986  0.6667  0.3218  1.3764
 3848TIP3   OH233178   6.025   4.237   8.336  0.1402  0.0914  0.2290
 3848TIP3    H133179   6.108   4.219   8.293 -0.4223  0.7139 -1.1862
 3848TIP3    H233180   6.018   4.170   8.404  1.5160 -0.3164  0.0005
 3849TIP3   OH233181   1.760   4.646   8.691  0.1938 -0.2709  0.3374
 3849TIP3    H133182   1.718   4.633   8.776 -0.9759 -2.5543 -0.5058
 3849TIP3    H233183   1.693   4.621   8.628  1.8390 -1.0472 -1.1703
 3850TIP3   OH233184   0.218   0.634   6.719 -0.3548 -0.0385 -0.3473
 3850TIP3    H133185   0.294   0.627   6.777 -0.5244 -2.1483 -0.3055
 3850TIP3    H233186   0.177   0.547   6.722 -2.4859  0.8719 -0.7763
 3851TIP3   OH233187   6.269   6.373   8.683  0.6461  0.0227  0.0997
 3851TIP3    H133188   6.302   6.289   8.649 -0.4440 -0.0168 -0.9110
 3851TIP3    H233189   6.212   6.406   8.614 -2.7669 -0.7005  2.3609
 3852TIP3   OH233190   0.182   3.290   7.702  0.1367  0.6615  0.3857
 3852TIP3    H133191   0.238   3.314   7.776  0.1604 -0.0645  0.6136
 3852TIP3    H233192   0.226   3.215   7.662 -0.2607  0.5831  0.0875
 3853TIP3   OH233193   0.843   3.941   6.862  0.0008  0.5645 -0.7675
 3853TIP3    H133194   0.837   3.992   6.781 -1.1271  0.0503 -1.0255
 3853TIP3    H233195   0.780   3.870   6.850 -0.2015  0.5020  0.5728
 3854TIP3   OH233196   2.412   2.212   0.892  0.0949 -0.5778 -0.1962
 3854TIP3    H133197   2.422   2.304   0.915 -1.4667 -0.0243 -1.5727
 3854TIP3    H233198   2.323   2.190   0.920  1.0297 -2.2147  1.7320
 3855TIP3   OH233199   3.195   0.973   7.774  0.6232  0.1188 -0.0443
 3855TIP3    H133200   3.191   1.068   7.761 -1.9750  0.0243 -0.5519
 3855TIP3    H233201   3.179   0.962   7.868  1.4628  0.1972  0.1099
 3856TIP3   OH233202   5.869   5.798   0.152 -0.2896  0.1942 -0.0448
 3856TIP3    H133203   5.832   5.871   0.202 -1.9570 -0.6443 -0.0010
 3856TIP3    H233204   5.831   5.720   0.192 -2.3296 -0.5010 -3.0420
 3857TIP3   OH233205   6.774   6.285   1.382  0.0157  0.1114  0.3696
 3857TIP3    H133206   6.787   6.256   1.292 -0.5151 -0.2062  0.3897
 3857TIP3    H233207   6.813   6.373   1.386 -0.3427  0.2968 -0.2738
 3858TIP3   OH233208   6.841   6.357   7.914  0.1727  0.3785 -0.7033
 3858TIP3    H133209   6.754   6.319   7.928 -0.3625  1.4055 -1.0966
 3858TIP3    H233210   6.851   6.421   7.985  0.5738  0.3218 -0.7071
 3859TIP3   OH233211   5.709   3.847   1.382 -0.4871 -0.0967  0.1210
 3859TIP3    H133212   5.635   3.812   1.333 -0.7954  1.0665 -0.2518
 3859TIP3    H233213   5.780   3.852   1.319 -0.2791 -0.5670  0.3126
 3860TIP3   OH233214   1.063   1.301   1.455 -0.4820 -0.2738  0.0459
 3860TIP3    H133215   1.064   1.319   1.550  0.0957 -0.8162  0.1502
 3860TIP3    H233216   1.148   1.335   1.425 -0.5719 -0.3092 -0.2396
 3861TIP3   OH233217   0.540   1.516   2.079  0.1966  0.6119  0.4192
 3861TIP3    H133218   0.479   1.474   2.140  0.0049  0.9733  0.4768
 3861TIP3    H233219   0.522   1.610   2.087  0.6868  0.7161  0.3625
 3862TIP3   OH233220   2.947   1.281   1.764 -0.8723 -0.0510  0.5584
 3862TIP3    H133221   2.941   1.345   1.693  2.5959 -1.3202 -1.0879
 3862TIP3    H233222   3.026   1.307   1.812 -1.0120 -1.4620  1.5971
 3863TIP3   OH233223   6.743   0.556   8.645 -0.1693  0.2113  0.3021
 3863TIP3    H133224   6.713   0.474   8.606  1.7355 -0.4534  0.1314
 3863TIP3    H233225   6.663   0.607   8.658 -1.3794 -1.5671  0.2067
 3864TIP3   OH233226   6.355   1.014   0.483 -0.0854 -0.5252 -0.2017
 3864TIP3    H133227   6.298   0.943   0.453  1.5618 -1.3146 -1.6514
 3864TIP3    H233228   6.440   0.996   0.441  1.5573  0.0091  2.6612
 3865TIP3   OH233229   3.934   1.436   7.562  0.3257  0.2838  0.1826
 3865TIP3    H133230   3.858   1.477   7.519  0.6529  1.3885  0.6030
 3865TIP3    H233231   3.909   1.344   7.573 -0.8694  0.5782  0.1135
 3866TIP3   OH233232   4.184   4.315   1.208  0.1330 -0.0060 -0.5752
 3866TIP3    H133233   4.162   4.341   1.297  1.9810  0.3261 -0.1823
 3866TIP3    H233234   4.142   4.381   1.153  0.3126  0.7089  0.1367
 3867TIP3   OH233235   0.256   2.078   8.249 -0.7275 -0.3410 -0.1524
 3867TIP3    H133236   0.309   2.156   8.264  0.9570 -1.4323 -0.1114
 3867TIP3    H233237   0.245   2.074   8.154  0.3477 -0.7382 -0.2790
 3868TIP3   OH233238   3.739   0.420   6.217  0.1004 -0.0572 -0.2604
 3868TIP3    H133239   3.651   0.458   6.211 -0.4494 -1.3436 -0.7453
 3868TIP3    H233240   3.789   0.484   6.267 -1.4640  0.1027  1.2139
 3869TIP3   OH233241   2.036   6.584   1.092 -0.3859 -0.0974  0.1097
 3869TIP3    H133242   2.054   6.678   1.094 -0.4497  0.0004 -1.9528
 3869TIP3    H233243   2.107   6.546   1.144  0.7513  0.9572 -0.6089
 3870TIP3   OH233244   2.948   3.592   8.215 -0.1539  0.5510  0.3466
 3870TIP3    H133245   2.908   3.635   8.291  0.9409  2.1433  0.0819
 3870TIP3    H233246   3.041   3.613   8.222  0.0701  0.1332 -1.0571
 3871TIP3   OH233247   1.059   6.043   0.973  0.3212  0.2008 -0.1942
 3871TIP3    H133248   1.065   6.095   0.894  1.1970  1.0228  0.3949
 3871TIP3    H233249   1.064   6.106   1.045 -1.7446 -0.3857  0.5344
 3872TIP3   OH233250   1.072   5.399   6.396 -0.4699 -1.0618 -0.2224
 3872TIP3    H133251   1.041   5.325   6.447  0.2446 -0.7474  0.7088
 3872TIP3    H233252   1.167   5.401   6.412 -0.7626  1.5448  1.9066
 3873TIP3   OH233253   0.236   5.802   2.593 -0.1926  0.0678  0.7203
 3873TIP3    H133254   0.211   5.816   2.684 -2.3781 -1.6211  0.4620
 3873TIP3    H233255   0.154   5.808   2.544  0.9668  1.2564 -1.2374
 3874TIP3   OH233256   5.369   6.817   1.773  0.1573  0.8336 -0.1240
 3874TIP3    H133257   5.356   6.911   1.767 -2.8582  0.6650  1.7170
 3874TIP3    H233258   5.397   6.802   1.863  0.2566 -0.0457 -0.2893
 3875TIP3   OH233259   3.919   5.842   8.616  0.4195  0.0694 -0.0501
 3875TIP3    H133260   3.976   5.871   8.687  0.7554  0.3696 -0.4340
 3875TIP3    H233261   3.909   5.920   8.560 -1.1082  0.2822  0.4858
 3876TIP3   OH233262   1.468   0.495   1.810  0.2007  0.0410 -0.0116
 3876TIP3    H133263   1.524   0.436   1.759  0.6461 -0.4067  0.9854
 3876TIP3    H233264   1.529   0.548   1.861 -0.2224  0.9201 -0.4036
 3877TIP3   OH233265   3.144   0.817   8.231  0.0301 -0.0121  0.3835
 3877TIP3    H133266   3.157   0.911   8.242  0.5963 -0.0129 -0.2502
 3877TIP3    H233267   3.174   0.798   8.143  3.0746 -1.3165  1.5724
 3878TIP3   OH233268   4.536   3.537   8.487 -0.0438  0.0737 -0.0992
 3878TIP3    H133269   4.444   3.531   8.460  0.0671 -0.3741 -0.3895
 3878TIP3    H233270   4.583   3.557   8.406  0.2839 -1.2052 -0.2451
 3879TIP3   OH233271   6.089   3.159   1.473  0.6090  0.0810  0.3627
 3879TIP3    H133272   6.089   3.140   1.379 -0.0968 -0.2669  0.4304
 3879TIP3    H233273   6.118   3.079   1.515 -0.5899 -0.2875  0.5302
 3880TIP3   OH233274   1.893   5.038   8.040  0.1606 -0.6076 -0.0300
 3880TIP3    H133275   1.800   5.027   8.023  0.0534 -0.2272  0.2954
 3880TIP3    H233276   1.899   5.118   8.092  0.8860  0.7830 -2.1045
 3881TIP3   OH233277   3.560   3.490   8.103 -0.2040  0.3689 -0.5390
 3881TIP3    H133278   3.471   3.495   8.068 -0.7154 -0.3849  0.5926
 3881TIP3    H233279   3.592   3.580   8.098 -0.9085  0.5932 -1.2500
 3882TIP3   OH233280   3.501   1.740   0.766 -0.7071  0.2437  0.1446
 3882TIP3    H133281   3.542   1.738   0.853  0.9777  0.5760 -0.5998
 3882TIP3    H233282   3.573   1.721   0.706 -1.7354  0.5741 -1.2158
 3883TIP3   OH233283   1.989   0.318   7.222  0.5464  0.0634 -0.3915
 3883TIP3    H133284   2.082   0.300   7.231  0.5746 -0.4126 -1.4322
 3883TIP3    H233285   1.948   0.277   7.298  1.1692  0.1812  0.0101
 3884TIP3   OH233286   0.014   5.635   0.912 -0.0663 -0.0687  0.5341
 3884TIP3    H133287   0.089   5.662   0.965 -0.2050  1.6626 -0.1018
 3884TIP3    H233288  -0.026   5.563   0.962  1.7753 -0.7953  1.0542
 3885TIP3   OH233289   3.778   0.471   1.510  0.5443 -0.0334 -0.0359
 3885TIP3    H133290   3.750   0.510   1.427 -1.8313  1.5250  1.3987
 3885TIP3    H233291   3.701   0.425   1.543  0.7598  1.0766  2.2158
 3886TIP3   OH233292   5.129   2.369   7.876 -0.3254  0.0475  0.8416
 3886TIP3    H133293   5.207   2.358   7.822  0.1666  0.8992  1.3551
 3886TIP3    H233294   5.060   2.392   7.814  0.3036  1.3292  0.5945
 3887TIP3   OH233295   3.889   2.625   8.595 -0.9624  0.3991 -0.5494
 3887TIP3    H133296   3.952   2.627   8.523 -0.5047  0.6014 -0.1486
 3887TIP3    H233297   3.820   2.686   8.568 -1.6896 -0.8309 -1.6003
 3888TIP3   OH233298   2.326   3.251   7.155  0.5563 -0.0864  0.2340
 3888TIP3    H133299   2.314   3.343   7.130  2.8912  0.5414  1.1966
 3888TIP3    H233300   2.408   3.225   7.113  2.2026 -0.3615  3.3295
 3889TIP3   OH233301   4.099   2.219   6.703  0.0947  0.5516  0.0708
 3889TIP3    H133302   4.118   2.151   6.638 -0.0794 -0.5940  1.1765
 3889TIP3    H233303   4.004   2.226   6.702  0.0637  0.2410  0.4667
 3890TIP3   OH233304   4.880   5.859   1.934  0.4460 -0.1424  0.4882
 3890TIP3    H133305   4.893   5.776   1.980  0.6299 -0.7993 -0.7064
 3890TIP3    H233306   4.785   5.874   1.938  0.3361 -0.7360  0.1714
 3891TIP3   OH233307   2.563   3.512   1.818 -0.2131 -0.0478  1.0433
 3891TIP3    H133308   2.548   3.519   1.912  0.9700 -0.9816  1.3290
 3891TIP3    H233309   2.651   3.547   1.805 -0.1540 -0.4255  0.3723
 3892TIP3   OH233310   6.273   5.240   1.019 -1.1107 -0.0062 -0.4084
 3892TIP3    H133311   6.292   5.148   1.000  2.3396  0.2004  1.3335
 3892TIP3    H233312   6.183   5.240   1.051 -2.1609 -2.2901 -2.9509
 3893TIP3   OH233313   3.309   0.733   1.068 -0.4841 -0.5389 -0.3676
 3893TIP3    H133314   3.345   0.722   0.980 -0.7695  0.7561 -0.6722
 3893TIP3    H233315   3.242   0.801   1.058 -1.8746 -1.7183  0.4935
 3894TIP3   OH233316   5.644   0.112   6.819  0.3958 -0.0808 -0.1988
 3894TIP3    H133317   5.730   0.071   6.808  1.5352  1.7969  1.0488
 3894TIP3    H233318   5.583   0.039   6.821  2.1147 -1.5956  0.3048
 3895TIP3   OH233319   5.836   4.086   8.543 -0.1991  0.4371  0.2251
 3895TIP3    H133320   5.820   4.176   8.571  1.4412  0.2339  2.0681
 3895TIP3    H233321   5.897   4.051   8.609 -0.5004 -1.9052 -0.6421
 3896TIP3   OH233322   5.389   4.469   0.491 -0.1554  0.0978 -0.4780
 3896TIP3    H133323   5.408   4.438   0.402  1.1703 -0.6886  0.0508
 3896TIP3    H233324   5.424   4.557   0.494  3.3216 -1.1497  0.3276
 3897TIP3   OH233325   1.851   1.280   8.700 -0.4113  0.0780  0.2946
 3897TIP3    H133326   1.873   1.282   8.607  0.2420 -1.2970  0.4021
 3897TIP3    H233327   1.876   1.368   8.732  1.4560 -0.1654 -0.3891
 3898TIP3   OH233328   2.871   3.352   0.486 -0.2639 -0.1862  0.0038
 3898TIP3    H133329   2.957   3.347   0.445 -0.2240 -1.6572  0.2171
 3898TIP3    H233330   2.888   3.379   0.576 -0.3076  2.5088 -0.7118
 3899TIP3   OH233331   1.317   3.904   7.872 -0.2483 -0.1260 -0.2549
 3899TIP3    H133332   1.236   3.931   7.829 -0.8762 -0.7866  0.4961
 3899TIP3    H233333   1.302   3.919   7.965 -0.5204 -2.6775  0.1826
 3900TIP3   OH233334   1.991   6.152   7.095 -0.1896 -0.2849  0.8845
 3900TIP3    H133335   2.052   6.173   7.166  0.6508  0.0766  0.0739
 3900TIP3    H233336   1.947   6.235   7.075  0.6378 -0.0452  0.0056
 3901TIP3   OH233337   4.750   4.949   1.665 -0.4021 -0.7020 -0.0868
 3901TIP3    H133338   4.781   4.931   1.753 -1.9179 -0.0461  0.6241
 3901TIP3    H233339   4.777   5.039   1.647  1.4328 -1.3898 -1.0275
 3902TIP3   OH233340   4.168   6.084   8.278  0.1891  0.0015  0.2536
 3902TIP3    H133341   4.190   6.129   8.360 -0.5028 -1.4111  1.2692
 3902TIP3    H233342   4.243   6.028   8.260  0.4069  0.4292 -0.1619
 3903TIP3   OH233343   5.902   6.743   7.711  0.5644  0.0070  1.0554
 3903TIP3    H133344   5.815   6.729   7.748  1.0744 -0.8765  1.9511
 3903TIP3    H233345   5.888   6.808   7.642 -0.4851  1.4661  2.5505
 3904TIP3   OH233346   2.095   3.245   0.045 -0.2888 -0.3963 -0.3250
 3904TIP3    H133347   2.158   3.184   0.007  1.3857  1.6458 -1.0150
 3904TIP3    H233348   2.148   3.304   0.098 -1.5455  1.6231 -1.2125
 3905TIP3   OH233349   2.365   0.128   7.699 -0.1693  0.3176  0.1445
 3905TIP3    H133350   2.289   0.104   7.752 -0.9763  0.8288 -0.7456
 3905TIP3    H233351   2.353   0.221   7.680 -0.1202  0.0785 -1.2256
 3906TIP3   OH233352   4.305   5.428   6.819  0.9430 -0.2317  0.2367
 3906TIP3    H133353   4.376   5.410   6.758  0.1845  2.1993 -1.5241
 3906TIP3    H233354   4.235   5.368   6.793  0.8366  0.3822 -0.9335
 3907TIP3   OH233355   4.153   5.794   8.760 -0.1879 -0.4233  0.5820
 3907TIP3    H133356   4.203   5.740   8.821 -1.0860  1.4810  3.1986
 3907TIP3    H233357   4.214   5.863   8.734 -0.5559  0.2337  1.4316
 3908TIP3   OH233358   4.913   6.045   1.024  0.4631  0.2301 -0.3574
 3908TIP3    H133359   4.885   6.122   0.974 -3.3161 -0.4450  0.4263
 3908TIP3    H233360   4.931   6.078   1.112 -0.7740  0.3390 -0.1248
 3909TIP3   OH233361   4.295   3.183   0.623 -0.1646  0.0541 -0.3282
 3909TIP3    H133362   4.267   3.170   0.714  0.2355 -0.9665 -0.3437
 3909TIP3    H233363   4.283   3.277   0.608 -1.7585 -0.0218  0.2667
 3910TIP3   OH233364   0.889   3.840   0.304  0.4025 -0.2542  0.1860
 3910TIP3    H133365   0.828   3.822   0.375 -0.7049  0.2899 -0.5922
 3910TIP3    H233366   0.921   3.928   0.322 -1.1726  0.5899 -0.8245
 3911TIP3   OH233367   0.720   0.537   1.330  0.0361 -0.0914 -0.2136
 3911TIP3    H133368   0.774   0.458   1.343 -0.3615 -0.4807 -0.8827
 3911TIP3    H233369   0.648   0.508   1.275 -0.4182  0.6226 -0.0068
 3912TIP3   OH233370   4.305   4.979   0.565 -0.0787 -0.3343 -0.3965
 3912TIP3    H133371   4.229   4.970   0.508 -1.3420 -0.0561  1.1524
 3912TIP3    H233372   4.332   5.070   0.555  1.0416 -0.8119 -2.0877
 3913TIP3   OH233373   2.824   3.938   8.648  0.2629 -0.3283  0.0888
 3913TIP3    H133374   2.891   3.889   8.600  1.2363  0.7753  0.2728
 3913TIP3    H233375   2.797   4.007   8.587 -0.3059 -0.4198  0.2325
 3914TIP3   OH233376   2.072   6.746   6.890  0.5225 -0.1491  0.4130
 3914TIP3    H133377   2.134   6.674   6.907 -0.0352 -0.8816 -0.5307
 3914TIP3    H233378   2.073   6.798   6.970  0.1912 -1.7821  1.5216
 3915TIP3   OH233379   2.761   6.634   7.045  0.1311 -0.3316 -0.2951
 3915TIP3    H133380   2.835   6.685   7.011 -1.4434  1.1346 -1.7201
 3915TIP3    H233381   2.733   6.580   6.971  0.2548 -1.4742  0.4737
 3916TIP3   OH233382   0.923   3.642   1.487 -0.3715  0.0900  0.1430
 3916TIP3    H133383   0.844   3.696   1.485 -1.9050 -2.0093  0.6937
 3916TIP3    H233384   0.974   3.676   1.561 -1.2880  0.7816  0.4661
 3917TIP3   OH233385   0.815   3.484   7.309  0.5278  0.5922  0.2721
 3917TIP3    H133386   0.771   3.540   7.245  2.3366  1.5687 -0.1811
 3917TIP3    H233387   0.793   3.395   7.281 -1.1756  1.0254  0.1143
 3918TIP3   OH233388   0.032   3.774   7.498 -0.0392  0.3820  0.4909
 3918TIP3    H133389  -0.004   3.688   7.477  0.9442  0.0106  0.2920
 3918TIP3    H233390   0.127   3.761   7.500  0.0667  1.1671  1.7416
 3919TIP3   OH233391   1.600   3.574   1.386  0.3765 -0.4903 -0.5737
 3919TIP3    H133392   1.593   3.660   1.427  1.2209 -0.1842 -1.0309
 3919TIP3    H233393   1.519   3.564   1.336 -0.1123 -0.3418  0.1765
 3920TIP3   OH233394   0.092   3.366   8.321  0.2258  0.4845 -0.3123
 3920TIP3    H133395   0.140   3.394   8.400  0.7330 -2.2432  0.4623
 3920TIP3    H233396   0.116   3.429   8.254  3.7244  0.1830  0.4820
 3921TIP3   OH233397   1.047   6.398   0.541 -0.0919 -0.0891  0.1064
 3921TIP3    H133398   0.976   6.439   0.591 -1.1614 -0.7314 -0.8220
 3921TIP3    H233399   1.010   6.316   0.510  0.8792 -0.1832 -0.8615
 3922TIP3   OH233400   4.814   5.412   7.885 -0.1871  0.9905 -0.2881
 3922TIP3    H133401   4.719   5.423   7.874 -0.6602 -0.8627  1.2103
 3922TIP3    H233402   4.836   5.336   7.831  0.1148  0.4441  0.5782
 3923TIP3   OH233403   6.532   2.658   1.708 -0.4198  0.0704 -0.7530
 3923TIP3    H133404   6.501   2.715   1.779  1.2103 -0.7220  0.6840
 3923TIP3    H233405   6.624   2.684   1.695 -0.2416 -0.8652 -1.4781
 3924TIP3   OH233406   5.928   0.270   8.154 -0.0226 -0.2935  0.3431
 3924TIP3    H133407   5.950   0.289   8.063  2.2866 -0.9639  0.6876
 3924TIP3    H233408   5.853   0.211   8.149 -1.0787  1.1005 -1.0245
 3925TIP3   OH233409   1.123   1.139   2.446 -0.0934 -0.0815  0.3219
 3925TIP3    H133410   1.181   1.085   2.499  1.3239 -0.2171 -1.2686
 3925TIP3    H233411   1.046   1.084   2.431  0.7778 -1.2114 -0.2094
 3926TIP3   OH233412   6.725   4.292   7.849  0.2819 -0.1404  0.4922
 3926TIP3    H133413   6.645   4.252   7.883  0.2290 -0.5841 -0.1469
 3926TIP3    H233414   6.695   4.346   7.776  0.5762 -0.3469  0.2220
 3927TIP3   OH233415   4.649   1.322   7.187  0.3875  0.0707 -0.0895
 3927TIP3    H133416   4.679   1.407   7.155 -3.1105  1.7988  0.6596
 3927TIP3    H233417   4.616   1.277   7.109  1.9386 -0.5338 -0.4353
 3928TIP3   OH233418   4.098   4.864   7.134 -0.4403 -0.2240 -0.3798
 3928TIP3    H133419   4.162   4.912   7.188  0.7219 -0.1799 -1.7504
 3928TIP3    H233420   4.131   4.774   7.133 -0.5112 -0.2422 -0.9435
 3929TIP3   OH233421   3.743   3.164   8.706  0.0905 -0.9768 -0.1257
 3929TIP3    H133422   3.765   3.117   8.626  0.3746 -1.3723  0.1806
 3929TIP3    H233423   3.818   3.149   8.763 -0.8642 -2.1489  0.8664
 3930TIP3   OH233424   2.537   2.860   1.440 -0.4048  0.1508  0.4777
 3930TIP3    H133425   2.551   2.955   1.443 -1.4868  0.3293  0.2766
 3930TIP3    H233426   2.603   2.824   1.499  0.5349  0.9675 -0.0562
 3931TIP3   OH233427   5.176   5.566   1.303  0.2435  0.1041  0.1802
 3931TIP3    H133428   5.216   5.572   1.389 -1.5544  1.7287  0.9771
 3931TIP3    H233429   5.172   5.472   1.284  1.7536 -0.2166  1.2981
 3932TIP3   OH233430   6.570   1.761   8.410 -0.0939 -0.3563  0.1897
 3932TIP3    H133431   6.490   1.803   8.378  0.9155  0.4785 -1.3638
 3932TIP3    H233432   6.618   1.832   8.453  1.0070 -0.1713 -1.2577
 3933TIP3   OH233433   6.776   2.611   2.063 -0.1059  0.4743  0.1512
 3933TIP3    H133434   6.808   2.620   1.973 -0.1687 -0.8644 -0.0295
 3933TIP3    H233435   6.852   2.579   2.112 -1.0233 -2.6676 -0.2648
 3934TIP3   OH233436   6.210   5.507   0.730  0.6888 -0.1051  0.2290
 3934TIP3    H133437   6.131   5.522   0.782  1.8839 -0.7033  2.3266
 3934TIP3    H233438   6.177   5.471   0.647 -1.2762  0.6945  0.6008
 3935TIP3   OH233439   6.236   2.522   0.306  0.1861  0.6071 -0.0077
 3935TIP3    H133440   6.240   2.594   0.243  0.7527 -0.6728 -1.5159
 3935TIP3    H233441   6.167   2.465   0.272  0.7015 -0.2571  0.3726
 3936TIP3   OH233442   3.628   6.739   7.080  0.8098  0.2139 -0.5867
 3936TIP3    H133443   3.566   6.774   7.145  0.0542 -3.1332  0.7081
 3936TIP3    H233444   3.670   6.817   7.044 -1.6377  2.4867  0.9909
 3937TIP3   OH233445   1.885   5.161   1.635 -0.3545 -0.7070  0.5464
 3937TIP3    H133446   1.878   5.067   1.619 -0.2406 -0.4785 -0.9664
 3937TIP3    H233447   1.964   5.170   1.689 -0.6152 -1.5097  1.0731
 3938TIP3   OH233448   5.440   4.686   1.019 -0.4860  0.4152 -0.0869
 3938TIP3    H133449   5.435   4.706   1.113  0.3667  0.3039 -0.0089
 3938TIP3    H233450   5.366   4.732   0.981  0.0957  1.8315  0.4114
 3939TIP3   OH233451   2.581   6.204   8.320  0.0457 -0.4225  0.3772
 3939TIP3    H133452   2.654   6.171   8.268  0.3694  0.8446 -0.0017
 3939TIP3    H233453   2.515   6.230   8.254 -0.8592 -1.7528  0.7154
 3940TIP3   OH233454   0.945   2.596   6.995  0.0080  0.3726 -0.9815
 3940TIP3    H133455   0.983   2.511   7.017  1.3730  0.9828 -0.8370
 3940TIP3    H233456   0.949   2.601   6.900  0.9119  0.6869 -0.9362
 3941TIP3   OH233457   2.664   0.918   2.590  0.1745  0.5985  0.1045
 3941TIP3    H133458   2.576   0.887   2.611  1.1270 -0.8105  2.3992
 3941TIP3    H233459   2.668   1.006   2.628  0.0942  0.2255  0.9990
 3942TIP3   OH233460   4.102   1.193   6.120 -0.5660  0.0797  0.2728
 3942TIP3    H133461   4.105   1.201   6.215  1.8570 -1.7419  0.4473
 3942TIP3    H233462   4.012   1.166   6.101 -1.1881  0.8292  1.9780
 3943TIP3   OH233463   6.609   0.594   0.842  0.0627  0.2323 -0.4147
 3943TIP3    H133464   6.654   0.568   0.923  1.4073  1.6909 -0.6420
 3943TIP3    H233465   6.606   0.514   0.789  1.5701 -0.1335  0.0030
 3944TIP3   OH233466   0.362   1.203   0.090  0.2043  0.1989  0.3989
 3944TIP3    H133467   0.296   1.134   0.092 -1.8629  2.0925  0.3761
 3944TIP3    H233468   0.376   1.220  -0.003 -0.2444  0.6663  0.4135
 3945TIP3   OH233469   3.349   6.722   1.860 -0.1636 -0.8666  0.2990
 3945TIP3    H133470   3.283   6.776   1.816 -0.0649 -1.4586 -0.6007
 3945TIP3    H233471   3.371   6.771   1.940 -1.2612 -0.3780  0.3220
 3946TIP3   OH233472   4.038   6.148   0.664 -0.2486 -0.4603  0.3101
 3946TIP3    H133473   3.943   6.148   0.678 -0.2093 -1.1673  0.6266
 3946TIP3    H233474   4.067   6.233   0.698 -0.5279 -0.9962  1.9864
 3947TIP3   OH233475   0.079   0.867   6.692 -0.3494 -0.0985  0.3039
 3947TIP3    H133476  -0.011   0.846   6.717 -0.6092  0.5323 -0.0786
 3947TIP3    H233477   0.118   0.783   6.668 -0.7806 -0.3962  0.6366
 3948TIP3   OH233478   0.534   0.915   1.380  0.5603 -0.1256  0.2149
 3948TIP3    H133479   0.609   0.966   1.350  1.3183 -1.2750  0.0624
 3948TIP3    H233480   0.458   0.971   1.363  1.3179  0.7782 -0.2934
 3949TIP3   OH233481   5.074   4.080   7.895 -0.2748 -0.2539  0.0945
 3949TIP3    H133482   5.065   3.985   7.885 -1.4280 -0.2004  0.5434
 3949TIP3    H233483   5.087   4.094   7.989 -0.9497  0.0830  0.1456
 3950TIP3   OH233484   6.025   6.578   0.030 -0.3291 -0.7689 -0.2050
 3950TIP3    H133485   6.002   6.632  -0.046  4.0945  0.0163 -1.2652
 3950TIP3    H233486   6.064   6.499  -0.008 -0.7333 -1.7519  1.3251
 3951TIP3   OH233487   5.041   1.436   1.859  0.5096 -0.0776  0.4266
 3951TIP3    H133488   4.961   1.488   1.870 -0.2084 -1.3711  1.5351
 3951TIP3    H233489   5.079   1.469   1.778 -1.6424 -0.0708 -0.6444
 3952TIP3   OH233490   1.384   4.193   7.488 -0.5178 -0.2128  0.1581
 3952TIP3    H133491   1.388   4.109   7.443  1.0726 -0.3789  0.5413
 3952TIP3    H233492   1.434   4.253   7.433  0.5393 -0.1632  1.1198
 3953TIP3   OH233493   3.317   2.339   0.221 -0.5514 -0.4527 -0.0040
 3953TIP3    H133494   3.351   2.264   0.270 -0.9486 -1.0980 -0.6942
 3953TIP3    H233495   3.247   2.373   0.276 -0.3715 -0.5947  0.3143
 3954TIP3   OH233496   1.448   6.770   8.465  0.3252 -0.3112  0.1251
 3954TIP3    H133497   1.473   6.765   8.557  0.9502 -0.7129 -0.0616
 3954TIP3    H233498   1.530   6.789   8.419  0.3373 -1.8259 -0.5226
 3955TIP3   OH233499   1.352   4.029   1.836  0.1563 -0.2462  0.4558
 3955TIP3    H133500   1.405   4.077   1.900  0.9363 -0.6739  0.1460
 3955TIP3    H233501   1.411   3.962   1.802 -0.6714 -0.8977  0.2839
 3956TIP3   OH233502   4.010   3.478   7.659  0.6487  0.4535 -0.0491
 3956TIP3    H133503   3.940   3.529   7.620  0.1609 -0.4511 -0.3896
 3956TIP3    H233504   3.979   3.456   7.747  1.0517  1.1171  0.2645
 3957TIP3   OH233505   3.092   1.820   6.558 -0.5872 -0.1235  0.3529
 3957TIP3    H133506   3.067   1.757   6.490 -0.2418 -0.8853  0.9179
 3957TIP3    H233507   3.041   1.794   6.634  1.7513 -1.6696  1.5153
 3958TIP3   OH233508   0.247   2.126   7.182  0.0573 -0.1518  0.1446
 3958TIP3    H133509   0.316   2.065   7.156  0.0710  0.7547 -2.1828
 3958TIP3    H233510   0.185   2.125   7.109  0.5526  3.2564 -0.5301
 3959TIP3   OH233511   5.440   0.087   2.483  0.4670 -0.6536  0.5721
 3959TIP3    H133512   5.416   0.056   2.395  0.4322  2.6904 -0.7607
 3959TIP3    H233513   5.526   0.050   2.499  0.0164 -2.2169 -0.3624
 3960TIP3   OH233514   4.032   0.366   6.915 -0.5126 -1.0923  0.1692
 3960TIP3    H133515   3.952   0.404   6.952  1.0135 -0.0550  2.6564
 3960TIP3    H233516   4.019   0.372   6.821 -2.3820  1.2771  0.4624
 3961TIP3   OH233517   2.651   2.020   1.570 -1.0177 -0.1153 -0.3867
 3961TIP3    H133518   2.627   2.010   1.662  0.1237  0.7125  0.0229
 3961TIP3    H233519   2.587   2.081   1.535 -1.3510 -0.2966 -0.0935
 3962TIP3   OH233520   5.205   0.252   7.193 -0.1936 -0.0825 -0.1128
 3962TIP3    H133521   5.176   0.212   7.111  0.2224 -2.1607  0.6982
 3962TIP3    H233522   5.259   0.326   7.166  0.4184 -1.0761 -1.7315
 3963TIP3   OH233523   5.807   6.686   1.771 -0.0971  0.6035 -0.5576
 3963TIP3    H133524   5.870   6.708   1.839  1.2355 -0.6201 -1.3365
 3963TIP3    H233525   5.824   6.593   1.753 -0.6099  0.8291 -2.3460
 3964TIP3   OH233526   6.631   2.044   1.742 -0.0282  0.1334 -0.6802
 3964TIP3    H133527   6.712   2.088   1.713  0.4971  0.2627  0.8775
 3964TIP3    H233528   6.642   1.953   1.715  1.8187 -0.4229  1.6564
 3965TIP3   OH233529   1.065   3.015   1.750  0.2434  0.6165 -0.0758
 3965TIP3    H133530   1.015   2.992   1.672  2.0056 -3.3291 -0.2901
 3965TIP3    H233531   1.068   3.110   1.750 -3.4848  0.9400 -2.3572
 3966TIP3   OH233532   2.566   5.080   1.732  0.0315  0.2717  0.7301
 3966TIP3    H133533   2.642   5.094   1.789  0.1550  0.4456  0.5232
 3966TIP3    H233534   2.597   5.102   1.644 -0.0353 -0.3969  0.5309
 3967TIP3   OH233535   5.854   4.259   0.566 -0.4323 -0.0743 -0.1459
 3967TIP3    H133536   5.768   4.302   0.575 -0.5796  0.2091 -2.2325
 3967TIP3    H233537   5.911   4.306   0.627 -1.0471  1.8707 -0.9797
 3968TIP3   OH233538   2.162   6.398   6.528  0.8468  0.0599  0.2984
 3968TIP3    H133539   2.246   6.396   6.482  0.2617 -1.2488 -0.7755
 3968TIP3    H233540   2.186   6.396   6.621  2.0036  0.5772  0.0328
 3969TIP3   OH233541   0.877   0.320   1.337  0.0890  0.1872  0.0747
 3969TIP3    H133542   0.894   0.258   1.266 -1.6348  0.2015 -0.3775
 3969TIP3    H233543   0.903   0.273   1.416 -0.9198 -1.0307 -0.2814
 3970TIP3   OH233544   5.357   6.314   6.787  0.5013 -0.1224 -0.4488
 3970TIP3    H133545   5.320   6.344   6.704 -0.9350 -1.0164 -0.1549
 3970TIP3    H233546   5.339   6.220   6.789 -1.1467  0.1655  1.6675
 3971TIP3   OH233547   6.371   5.823   7.807 -0.0661  0.3886 -0.1242
 3971TIP3    H133548   6.446   5.787   7.855  0.6396  1.3276 -0.4729
 3971TIP3    H233549   6.392   5.806   7.715 -0.5355  0.2062 -0.1977
 3972TIP3   OH233550   2.006   4.748   8.098 -0.1644  0.1801  0.1036
 3972TIP3    H133551   2.088   4.782   8.134  0.4817  0.6480 -1.7319
 3972TIP3    H233552   1.952   4.825   8.082 -0.2712  0.0120 -0.3575
 3973TIP3   OH233553   5.371   0.232   7.876  0.7028  0.0938  0.8567
 3973TIP3    H133554   5.428   0.160   7.848 -1.6013 -1.2313 -0.7297
 3973TIP3    H233555   5.432   0.300   7.907  3.0265 -1.9228  1.0078
 3974TIP3   OH233556   4.372   1.660   1.609 -0.3991  0.2736 -0.0622
 3974TIP3    H133557   4.436   1.712   1.658 -0.7362  1.2008 -0.5829
 3974TIP3    H233558   4.425   1.594   1.564  0.1331  0.6481 -0.0057
 3975TIP3   OH233559   6.570   0.483   7.864 -0.0206  0.4288 -0.6341
 3975TIP3    H133560   6.506   0.471   7.793 -1.0013  1.0226  0.1310
 3975TIP3    H233561   6.526   0.540   7.927  0.4800 -0.8543  0.9199
 3976TIP3   OH233562   4.152   1.856   1.221  0.3390 -0.3654 -0.1941
 3976TIP3    H133563   4.243   1.883   1.229  0.0375  0.3958  0.8847
 3976TIP3    H233564   4.131   1.871   1.128  0.7442  1.3658 -0.0333
 3977TIP3   OH233565   3.525   1.330   7.766  1.1922 -0.2776 -0.4092
 3977TIP3    H133566   3.469   1.308   7.840  1.3964 -0.2847 -0.2532
 3977TIP3    H233567   3.608   1.355   7.807  0.8166  1.3002 -0.5357
 3978TIP3   OH233568   3.018   2.691   1.042 -0.0017  0.1750 -0.7411
 3978TIP3    H133569   3.057   2.737   0.968 -0.6429  1.4310 -0.3266
 3978TIP3    H233570   2.987   2.760   1.100 -0.0421 -0.7822  0.4322
 3979TIP3   OH233571   0.069   6.425   2.663 -0.0744 -0.5049 -0.4477
 3979TIP3    H133572   0.001   6.486   2.634  1.7583 -0.2741 -5.0237
 3979TIP3    H233573   0.108   6.468   2.739 -2.7120  0.9753  0.2244
 3980TIP3   OH233574   0.659   0.639   7.194  0.1686 -0.4800 -0.4106
 3980TIP3    H133575   0.729   0.624   7.256  1.5990  2.2871 -1.1595
 3980TIP3    H233576   0.625   0.552   7.172  1.2369 -1.6684  2.3198
 3981TIP3   OH233577   2.067   1.299   1.433 -0.4528 -0.0533 -0.4102
 3981TIP3    H133578   2.006   1.265   1.367  0.3906  1.5986 -2.1183
 3981TIP3    H233579   2.147   1.319   1.385  0.5112  0.4203  1.2856
 3982TIP3   OH233580   4.992   0.450   8.068 -0.0787  0.3590 -0.2002
 3982TIP3    H133581   4.921   0.498   8.111  0.9004  1.3693  0.3260
 3982TIP3    H233582   4.956   0.362   8.056 -1.1911  0.6638  0.6565
 3983TIP3   OH233583   2.179   0.860   2.204  0.0721 -0.1388 -0.4051
 3983TIP3    H133584   2.192   0.779   2.154  3.9790  1.6816 -2.9442
 3983TIP3    H233585   2.122   0.914   2.149 -1.5623 -0.6621  0.7172
 3984TIP3   OH233586   3.839   0.874   7.556 -0.3367  0.3480 -0.0910
 3984TIP3    H133587   3.839   0.855   7.462  1.6981 -0.5072  0.0364
 3984TIP3    H233588   3.773   0.815   7.593 -0.9569  0.4959 -0.9456
 3985TIP3   OH233589   5.553   3.520   7.473  0.2924  0.2969 -0.1984
 3985TIP3    H133590   5.613   3.462   7.520  0.8449  1.6210  0.8000
 3985TIP3    H233591   5.469   3.474   7.475  0.1382  0.5069  2.6468
 3986TIP3   OH233592   1.878   3.966   8.250 -0.4816  0.1225 -0.1949
 3986TIP3    H133593   1.831   3.906   8.193 -2.5665  0.1857  1.3336
 3986TIP3    H233594   1.836   3.955   8.336  1.0063  1.6694  0.7989
 3987TIP3   OH233595   0.853   6.727   0.763  0.1234 -0.4755  0.0261
 3987TIP3    H133596   0.888   6.699   0.678 -1.0814  1.7586 -1.3049
 3987TIP3    H233597   0.784   6.789   0.741 -0.3842  0.0049  2.6720
 3988TIP3   OH233598   3.370   6.399   8.484  0.5065 -0.4591 -0.3032
 3988TIP3    H133599   3.328   6.334   8.428  0.4715 -0.4963 -0.2349
 3988TIP3    H233600   3.451   6.357   8.512  0.6344 -0.3500 -0.5118
 3989TIP3   OH233601   2.403   2.570   7.534 -0.7891 -0.4975  0.0449
 3989TIP3    H133602   2.412   2.483   7.574 -2.5664  0.4098  2.5745
 3989TIP3    H233603   2.352   2.621   7.596  3.4825  3.6927  0.6622
 3990TIP3   OH233604   5.324   4.581   6.788 -0.3141 -0.2135 -0.0627
 3990TIP3    H133605   5.351   4.566   6.879 -1.9617  1.2759  0.7350
 3990TIP3    H233606   5.300   4.495   6.755  1.0517 -0.8942  0.6288
 3991TIP3   OH233607   4.816   0.525   1.623  0.3085 -0.6150 -0.0854
 3991TIP3    H133608   4.779   0.572   1.698 -1.4101 -1.2789 -0.4747
 3991TIP3    H233609   4.895   0.483   1.657  0.4381  0.4008  0.9203
 3992TIP3   OH233610   6.099   2.148   1.974  0.4763 -0.4460  0.0470
 3992TIP3    H133611   6.184   2.183   2.001  1.0995 -2.0036  0.1887
 3992TIP3    H233612   6.052   2.132   2.056 -1.1291  2.9506 -0.0190
 3993TIP3   OH233613   6.104   5.190   8.583  0.6554  0.0256 -0.7544
 3993TIP3    H133614   6.086   5.138   8.505 -1.6200 -0.7563  0.2037
 3993TIP3    H233615   6.045   5.265   8.575 -0.1830 -0.4681  0.5639
 3994TIP3   OH233616   6.837   1.636   2.311  0.3269 -0.1171  0.9600
 3994TIP3    H133617   6.927   1.618   2.286 -0.2293 -1.6699 -0.0368
 3994TIP3    H233618   6.790   1.554   2.295 -1.6273  1.1557 -0.2572
 3995TIP3   OH233619   1.798   1.146   8.036 -0.0677  0.4104 -0.3820
 3995TIP3    H133620   1.754   1.111   7.959  1.8407  0.0052 -1.3507
 3995TIP3    H233621   1.866   1.081   8.056  0.5184  1.3025  0.6415
 3996TIP3   OH233622   5.730   2.531   8.457  0.0605 -0.2524  0.3400
 3996TIP3    H133623   5.768   2.544   8.370 -1.0012 -1.4976 -0.3406
 3996TIP3    H233624   5.795   2.568   8.517  1.8504 -1.3488 -0.8302
 3997TIP3   OH233625   4.854   3.663   7.091 -0.0502 -0.2188  0.3192
 3997TIP3    H133626   4.915   3.656   7.164 -0.4811 -1.0734  0.6046
 3997TIP3    H233627   4.865   3.582   7.042  0.5695  0.5416 -0.8389
 3998TIP3   OH233628   6.400   1.604   8.062  0.3032  0.1540 -0.8084
 3998TIP3    H133629   6.449   1.532   8.102  1.8643  2.3336  1.5701
 3998TIP3    H233630   6.312   1.598   8.099  0.7803  0.1519  0.3568
 3999TIP3   OH233631   5.485   6.826   8.066 -0.0302 -0.2099 -0.4661
 3999TIP3    H133632   5.488   6.795   7.975  0.1386 -0.8277 -0.2545
 3999TIP3    H233633   5.534   6.760   8.115 -2.1847 -1.2155  0.4528
 4000TIP3   OH233634   4.929   4.424   0.805 -0.5028  0.1973 -0.4574
 4000TIP3    H133635   4.852   4.394   0.757 -0.9364  2.2377 -1.1800
 4000TIP3    H233636   4.897   4.441   0.893 -0.7205  0.3494 -0.5638
 4001TIP3   OH233637   6.242   5.480   8.152 -0.1906  0.2967 -0.4677
 4001TIP3    H133638   6.302   5.552   8.132  1.2973 -0.9964 -0.8174
 4001TIP3    H233639   6.298   5.403   8.162 -1.5541 -0.5445  1.5762
 4002TIP3   OH233640   5.464   4.407   1.206  0.1470 -0.0902 -0.3479
 4002TIP3    H133641   5.545   4.453   1.185 -0.1157  0.8467  0.6345
 4002TIP3    H233642   5.488   4.346   1.276  0.3078 -0.8858 -1.0712
 4003TIP3   OH233643   3.976   6.543   7.412  0.1837  0.2464 -0.7946
 4003TIP3    H133644   4.015   6.619   7.368 -0.0257 -0.1852 -1.7405
 4003TIP3    H233645   4.043   6.475   7.406 -0.2306 -0.1189 -1.3346
 4004TIP3   OH233646   1.767   4.449   8.369 -0.1722 -0.5493  1.0698
 4004TIP3    H133647   1.814   4.381   8.322  2.2308  0.0181  2.4981
 4004TIP3    H233648   1.709   4.402   8.429 -1.0292 -1.2611 -0.2569
 4005TIP3   OH233649   6.172   5.527   8.713 -0.0171  0.5004 -0.8730
 4005TIP3    H133650   6.151   5.498   8.625  0.6019  1.9980 -1.5576
 4005TIP3    H233651   6.122   5.607   8.724 -2.7458 -1.3455  1.4572
 4006TIP3   OH233652   0.444   2.435   0.701 -0.8127  0.2691  0.2372
 4006TIP3    H133653   0.427   2.489   0.624 -2.3169  2.0438  1.7257
 4006TIP3    H233654   0.357   2.405   0.729 -0.2449 -0.7761  0.9691
 4007TIP3   OH233655   0.059   1.175   7.774 -0.0943 -0.3697 -0.2250
 4007TIP3    H133656   0.140   1.142   7.735 -0.4503 -0.5790 -0.8058
 4007TIP3    H233657   0.082   1.262   7.808  0.0932  0.0989 -1.4637
 4008TIP3   OH233658   2.403   3.777   1.159  0.6250 -0.1809 -0.0361
 4008TIP3    H133659   2.355   3.847   1.202  2.4397  0.2234  1.4331
 4008TIP3    H233660   2.432   3.815   1.076 -0.4675 -0.0212 -0.3579
 4009TIP3   OH233661   2.466   1.108   8.431  0.6764  0.2584  0.0867
 4009TIP3    H133662   2.464   1.195   8.473  4.2561  0.3091  0.4607
 4009TIP3    H233663   2.526   1.057   8.485 -2.9426 -3.3574  1.1845
 4010TIP3   OH233664   0.346   2.090   6.281  0.0935  0.1644  0.4917
 4010TIP3    H133665   0.406   2.149   6.235 -0.4652 -2.3142 -3.9156
 4010TIP3    H233666   0.259   2.123   6.259 -0.1937 -0.5038  0.6126
 4011TIP3   OH233667   1.218   6.759   7.883 -0.6455 -0.1376 -0.1152
 4011TIP3    H133668   1.292   6.760   7.943 -0.1590 -0.8883 -0.6852
 4011TIP3    H233669   1.148   6.714   7.931 -0.8309  0.7798  0.5096
 4012TIP3   OH233670   4.356   0.011   8.419 -0.1455  0.8909 -0.2899
 4012TIP3    H133671   4.375   0.030   8.328 -0.7852  0.3920 -0.5393
 4012TIP3    H233672   4.332   0.096   8.457 -0.3961  1.0166 -0.7228
 4013TIP3   OH233673   0.140   0.467   7.442  0.0440 -0.5906 -0.5074
 4013TIP3    H133674   0.098   0.553   7.438 -1.0482 -1.1440 -1.4337
 4013TIP3    H233675   0.069   0.404   7.427  0.9944 -1.6064 -0.9136
 4014TIP3   OH233676   6.615   2.211   6.796 -0.1005  0.2431 -0.4728
 4014TIP3    H133677   6.687   2.179   6.742 -0.3133 -4.4876  1.5241
 4014TIP3    H233678   6.536   2.181   6.752 -0.3396 -1.9571  1.2452
 4015TIP3   OH233679   0.400   3.235   8.773 -0.2678  0.0215  0.1936
 4015TIP3    H133680   0.491   3.223   8.800 -0.4755 -0.3283  0.7412
 4015TIP3    H233681   0.401   3.222   8.679  0.1524 -0.5532  0.2742
 4016TIP3   OH233682   0.630   4.647   1.609 -0.1404 -0.0963 -0.2044
 4016TIP3    H133683   0.652   4.740   1.603  1.1528 -0.2892  0.9032
 4016TIP3    H233684   0.544   4.640   1.568  0.6438  1.2207 -2.2541
 4017TIP3   OH233685   0.168   3.091   8.447 -0.1041  0.2934 -0.4050
 4017TIP3    H133686   0.118   3.162   8.406  0.0054  0.8733  0.4535
 4017TIP3    H233687   0.103   3.042   8.497 -0.0530  0.2017 -0.4276
 4018TIP3   OH233688   1.983   2.674   0.473  0.2561  0.2367  0.6384
 4018TIP3    H133689   2.062   2.649   0.427 -0.4428  0.7375 -0.9003
 4018TIP3    H233690   1.961   2.598   0.527  1.0447 -0.4084  0.0666
 4019TIP3   OH233691   1.742   0.890   7.020  0.2827  0.3591  0.4141
 4019TIP3    H133692   1.670   0.864   6.963  0.4949 -0.5167  0.5188
 4019TIP3    H233693   1.816   0.904   6.960  0.0042  1.3718  0.2960
 4020TIP3   OH233694   1.693   1.737   1.797  0.2515 -0.2517 -0.3176
 4020TIP3    H133695   1.704   1.650   1.837 -0.8588 -0.5801 -0.6984
 4020TIP3    H233696   1.672   1.718   1.706  0.7933  0.4546 -0.5983
 4021TIP3   OH233697   1.255   6.300   7.735 -0.4337  0.3157  0.2689
 4021TIP3    H133698   1.259   6.232   7.801 -1.3122 -0.6923 -0.6839
 4021TIP3    H233699   1.197   6.367   7.773  0.5644  0.6394  1.2722
 4022TIP3   OH233700   5.225   3.054   7.718 -0.7566  0.1286 -0.3412
 4022TIP3    H133701   5.280   3.045   7.796  2.3903  2.0799 -2.1004
 4022TIP3    H233702   5.137   3.069   7.752  0.1731 -0.6735  2.7494
 4023TIP3   OH233703   6.569   6.185   1.748  0.4731 -0.1030 -0.3941
 4023TIP3    H133704   6.648   6.223   1.785 -0.3355 -0.6966  2.1757
 4023TIP3    H233705   6.532   6.254   1.693  0.6447  1.7173  1.6597
 4024TIP3   OH233706   4.746   1.391   2.045 -0.1172  0.2888 -0.1177
 4024TIP3    H133707   4.705   1.409   1.961  0.8851 -0.6913 -0.8479
 4024TIP3    H233708   4.674   1.391   2.108 -1.6568 -3.3513 -1.6069
 4025TIP3   OH233709   0.748   4.186   7.440  0.1619 -0.6121 -0.6746
 4025TIP3    H133710   0.728   4.182   7.346 -0.0073  1.3807 -0.7738
 4025TIP3    H233711   0.665   4.163   7.483 -0.4688  0.8290 -1.0609
 4026TIP3   OH233712   4.927   6.021   7.835 -0.3561 -0.7395 -0.1209
 4026TIP3    H133713   4.941   6.091   7.770 -1.7900 -0.2449  0.0821
 4026TIP3    H233714   4.855   6.052   7.889  0.3303 -1.4841  1.2765
 4027TIP3   OH233715   2.368   1.438   0.815 -0.2713 -0.2234  0.2750
 4027TIP3    H133716   2.382   1.522   0.858 -1.3932  0.3640 -0.4538
 4027TIP3    H233717   2.307   1.457   0.743 -1.3408 -1.8180  0.6868
 4028TIP3   OH233718   2.796   0.853   0.330  0.4665  0.4812  0.4522
 4028TIP3    H133719   2.759   0.809   0.254  0.8780 -0.5845  0.8476
 4028TIP3    H233720   2.724   0.903   0.367  0.2295  0.9148 -0.5555
 4029TIP3   OH233721   1.062   6.074   7.820 -0.0306  0.3993 -0.2734
 4029TIP3    H133722   1.017   5.992   7.842 -0.3861  0.7427  0.3355
 4029TIP3    H233723   0.991   6.138   7.811  0.2915  0.8085  0.0493
 4030TIP3   OH233724   2.477   5.499   7.694  0.0176  0.3438 -0.2914
 4030TIP3    H133725   2.461   5.575   7.749 -0.7533  2.0580 -2.6962
 4030TIP3    H233726   2.447   5.526   7.607  0.2526 -2.5270 -1.3777
 4031TIP3   OH233727   6.140   1.958   8.466  0.1132  0.3612 -0.1081
 4031TIP3    H133728   6.198   1.994   8.533  0.3778  0.9505 -0.6402
 4031TIP3    H233729   6.087   2.032   8.438 -0.0123  0.1154 -0.5316
 4032TIP3   OH233730   1.818   3.594   2.602 -0.8380 -0.0015 -0.6335
 4032TIP3    H133731   1.893   3.535   2.605  0.2281  1.3471  1.0062
 4032TIP3    H233732   1.742   3.536   2.601  0.1865 -1.3918 -1.1092
 4033TIP3   OH233733   5.140   5.870   0.180  0.1501  0.7781 -0.0240
 4033TIP3    H133734   5.081   5.849   0.253 -0.4250  1.9151 -0.1251
 4033TIP3    H233735   5.082   5.880   0.105  0.8617 -1.7503 -1.0175
 4034TIP3   OH233736   5.223   0.953   0.601 -0.4117  0.6082 -0.4779
 4034TIP3    H133737   5.226   0.864   0.635  1.5107  1.8432  3.1918
 4034TIP3    H233738   5.314   0.972   0.576 -0.6739  1.7049 -0.6647
 4035TIP3   OH233739   1.678   5.894   0.473 -1.1535 -0.1985 -0.1330
 4035TIP3    H133740   1.669   5.989   0.483 -0.4317  0.1370 -2.1355
 4035TIP3    H233741   1.647   5.858   0.556 -2.7868  1.7103  0.1663
 4036TIP3   OH233742   4.189   6.593   6.737  0.2878  0.4747  0.2257
 4036TIP3    H133743   4.205   6.585   6.643 -0.5563  0.4925  0.0724
 4036TIP3    H233744   4.260   6.650   6.768 -0.0980  1.4539 -0.6165
 4037TIP3   OH233745   4.130   6.306   7.385 -0.3888  0.2990  0.7957
 4037TIP3    H133746   4.183   6.243   7.335 -0.3095  0.9236  0.0777
 4037TIP3    H233747   4.174   6.311   7.470  1.1833  1.3662 -0.0303
 4038TIP3   OH233748   6.434   4.375   6.850 -0.3740  0.5028  0.3412
 4038TIP3    H133749   6.523   4.369   6.816 -0.8002  2.1892 -1.2498
 4038TIP3    H233750   6.417   4.469   6.855 -2.3847  0.2039 -0.2734
 4039TIP3   OH233751   4.529   2.445   7.731  0.6409  0.0455 -0.2292
 4039TIP3    H133752   4.579   2.365   7.744 -0.1895 -0.2565  1.3575
 4039TIP3    H233753   4.581   2.496   7.668  2.4878 -0.6118  0.7006
 4040TIP3   OH233754   3.910   4.110   0.638  0.0145  0.3725  0.2092
 4040TIP3    H133755   3.863   4.152   0.710 -0.6706  0.0626 -0.0393
 4040TIP3    H233756   3.841   4.090   0.574  0.4927 -0.0870 -0.1709
 4041TIP3   OH233757   5.788   4.942   1.678  0.5061  0.0867  0.2459
 4041TIP3    H133758   5.788   4.847   1.685 -0.1841  0.0637  0.0053
 4041TIP3    H233759   5.748   4.960   1.593 -0.0501  0.6087  0.6075
 4042TIP3   OH233760   4.362   6.616   7.164 -0.0101  0.2978 -0.1974
 4042TIP3    H133761   4.381   6.702   7.126 -0.2618  0.1613 -0.6389
 4042TIP3    H233762   4.387   6.553   7.095 -0.9082  0.0652 -0.3256
 4043TIP3   OH233763   6.591   4.307   8.774 -0.5311 -0.2057 -0.7233
 4043TIP3    H133764   6.647   4.368   8.724 -0.5979  0.0491 -0.4920
 4043TIP3    H233765   6.522   4.363   8.810  0.0926 -0.1942  0.5112
 4044TIP3   OH233766   5.276   5.617   1.922 -0.4042  0.0059  0.4033
 4044TIP3    H133767   5.352   5.647   1.872 -0.2733  1.5178  1.4389
 4044TIP3    H233768   5.202   5.629   1.863  0.1452 -1.8426 -0.7596
 4045TIP3   OH233769   1.748   0.601   6.719 -0.1431  0.4965  0.3909
 4045TIP3    H133770   1.672   0.589   6.661  0.7431  1.2021 -0.9620
 4045TIP3    H233771   1.824   0.587   6.663  0.7897  2.8359  0.9550
 4046TIP3   OH233772   1.549   0.336   6.543 -0.7373 -0.5100  0.1616
 4046TIP3    H133773   1.521   0.418   6.503  0.3257 -0.2275 -0.0401
 4046TIP3    H233774   1.499   0.330   6.624  1.1693  1.7974  1.6444
 4047TIP3   OH233775   2.166   6.369   6.796  0.0137 -0.3849 -0.1796
 4047TIP3    H133776   2.080   6.403   6.820  0.0427 -2.4332  3.6524
 4047TIP3    H233777   2.227   6.420   6.849  1.2722  0.8185 -2.6072
 4048TIP3   OH233778   0.886   3.250   8.423 -0.8352 -0.1308  0.2373
 4048TIP3    H133779   0.883   3.273   8.330  1.0847 -0.9683 -0.0917
 4048TIP3    H233780   0.972   3.208   8.434 -1.1441 -0.3106  2.3334
 4049TIP3   OH233781   0.909   0.923   8.412  0.3410  0.1389  0.0063
 4049TIP3    H133782   0.983   0.862   8.403  0.7596  0.3543  1.7309
 4049TIP3    H233783   0.848   0.878   8.470 -0.5958  0.2515 -0.8716
 4050TIP3   OH233784   0.974   1.532   7.714  0.4505 -0.1701 -0.2057
 4050TIP3    H133785   0.894   1.575   7.682 -0.3517 -2.3869 -1.4052
 4050TIP3    H233786   1.042   1.598   7.701 -0.9129  1.2456 -0.6356
 4051TIP3   OH233787   2.470   2.865   2.585  0.1492 -0.6483 -0.8173
 4051TIP3    H133788   2.493   2.920   2.510  0.1417  0.9165  0.2824
 4051TIP3    H233789   2.378   2.842   2.571  0.4204 -1.2132 -1.7674
 4052TIP3   OH233790   4.520   3.232   8.226 -0.1719 -0.0379 -0.7030
 4052TIP3    H133791   4.481   3.156   8.181 -0.1379  0.3165 -1.3430
 4052TIP3    H233792   4.490   3.224   8.316 -1.5980  0.1214 -1.1363
 4053TIP3   OH233793   0.944   3.166   2.023  0.1768  0.0246 -0.0555
 4053TIP3    H133794   0.975   3.075   2.019 -1.6750 -0.6160 -0.9759
 4053TIP3    H233795   0.881   3.167   2.094 -0.3120  0.4094 -0.4830
 4054TIP3   OH233796   6.048   6.268   7.606 -0.3165  0.0394  0.4436
 4054TIP3    H133797   6.054   6.175   7.627  4.0755  0.0481  0.2467
 4054TIP3    H233798   6.093   6.276   7.522 -1.1450  2.2864  0.1472
 4055TIP3   OH233799   0.379   4.289   0.482 -0.4135  0.1028 -0.1364
 4055TIP3    H133800   0.443   4.342   0.434  0.4812 -1.2954 -0.5473
 4055TIP3    H233801   0.409   4.293   0.573  0.2315 -0.4453 -0.3087
 4056TIP3   OH233802   1.713   6.112   7.225  0.3914  0.5626  0.3265
 4056TIP3    H133803   1.807   6.095   7.229  0.1523 -1.5038 -1.0575
 4056TIP3    H233804   1.689   6.090   7.135 -1.9583 -2.4442  1.5207
 4057TIP3   OH233805   0.430   2.268   8.283  0.1413  0.4130  0.0383
 4057TIP3    H133806   0.454   2.329   8.352  0.0927  1.4035 -0.8080
 4057TIP3    H233807   0.497   2.280   8.216 -0.6518  0.5551 -0.7428
 4058TIP3   OH233808   2.810   3.051   7.591 -0.2188  0.1500  0.2524
 4058TIP3    H133809   2.838   3.116   7.526  1.4475  1.6476  2.3630
 4058TIP3    H233810   2.836   2.967   7.553  1.6337  1.0580 -0.6208
 4059TIP3   OH233811   2.250   0.151   8.070  0.1388 -0.4390 -1.1066
 4059TIP3    H133812   2.284   0.222   8.016  1.6303  0.8747  1.3519
 4059TIP3    H233813   2.326   0.097   8.090 -0.0525 -0.0715  0.7859
 4060TIP3   OH233814   6.149   0.262   0.437  0.4015 -0.1656  0.2995
 4060TIP3    H133815   6.053   0.255   0.438  0.3861  0.0828  0.8466
 4060TIP3    H233816   6.168   0.318   0.362  0.0646  0.5238  0.7222
 4061TIP3   OH233817   3.722   2.821   8.472  0.1687  0.3563 -0.6342
 4061TIP3    H133818   3.646   2.775   8.508  0.2550  0.8346  0.1851
 4061TIP3    H233819   3.692   2.856   8.389 -0.5604  0.6427 -0.2614
 4062TIP3   OH233820   0.233   3.814   1.170 -0.2136  0.0610 -0.2587
 4062TIP3    H133821   0.192   3.875   1.231 -0.5586 -0.4088 -0.0121
 4062TIP3    H233822   0.237   3.731   1.219 -0.0082 -0.1806 -0.6852
 4063TIP3   OH233823   3.008   6.116   8.508 -0.7664  0.3220  0.0298
 4063TIP3    H133824   3.002   6.182   8.577 -1.0427 -0.0279  0.3511
 4063TIP3    H233825   2.917   6.088   8.494 -0.6919  0.2641 -0.3542
 4064TIP3   OH233826   1.391   1.455   1.714 -0.1051 -0.3730  0.2030
 4064TIP3    H133827   1.472   1.409   1.734 -0.3192 -1.3182 -1.0369
 4064TIP3    H233828   1.322   1.389   1.725 -0.4450 -0.2815 -1.2756
 4065TIP3   OH233829   2.992   5.053   7.969  0.3524 -0.0141 -0.8932
 4065TIP3    H133830   3.023   5.131   7.923  0.5241  0.2878 -0.2634
 4065TIP3    H233831   2.900   5.071   7.988  1.0977  1.3677  1.9472
 4066TIP3   OH233832   0.366   1.796   1.314  0.5585  0.3275 -0.6067
 4066TIP3    H133833   0.402   1.885   1.310  1.8669  0.1226  3.1003
 4066TIP3    H233834   0.314   1.795   1.394  0.8072 -2.3316 -0.4148
 4067TIP3   OH233835   3.900   1.572   8.650 -0.4080  0.5758 -0.1336
 4067TIP3    H133836   3.844   1.504   8.615  0.8007  1.1057 -3.4127
 4067TIP3    H233837   3.978   1.525   8.681 -0.7977  0.2456  0.3657
 4068TIP3   OH233838   2.372   0.494   8.733 -0.6900 -0.5306 -0.3635
 4068TIP3    H133839   2.289   0.505   8.780 -0.6697  2.1923 -0.8510
 4068TIP3    H233840   2.438   0.490   8.801 -0.9805 -0.0351 -0.0498
 4069TIP3   OH233841   5.327   5.519   6.465 -0.0513  0.3888 -0.2424
 4069TIP3    H133842   5.272   5.596   6.458  0.0407  0.5026  0.2275
 4069TIP3    H233843   5.268   5.449   6.493  0.0294  0.5015  0.2221
 4070TIP3   OH233844   0.413   5.587   0.771  0.2982 -0.4693  0.0654
 4070TIP3    H133845   0.438   5.639   0.695  0.2219 -0.6588 -0.0921
 4070TIP3    H233846   0.413   5.648   0.844  0.6596 -0.3485 -0.0366
 4071TIP3   OH233847   1.958   4.403   0.865 -1.3113  0.3254 -0.3194
 4071TIP3    H133848   1.891   4.337   0.844  0.4700 -0.8972 -2.6903
 4071TIP3    H233849   2.040   4.354   0.867 -0.1646  2.1643 -0.0504
 4072TIP3   OH233850   1.639   1.217   6.467 -0.0040  0.1719  0.3090
 4072TIP3    H133851   1.720   1.232   6.417 -0.3155 -1.6287 -0.8513
 4072TIP3    H233852   1.669   1.176   6.548  0.3593  1.2796  0.7573
 4073TIP3   OH233853   2.164   5.038   1.203 -0.1351 -0.4894 -0.1904
 4073TIP3    H133854   2.117   5.036   1.286 -0.8413 -0.2611 -0.5807
 4073TIP3    H233855   2.123   4.969   1.151  1.1180 -1.4650  0.0759
 4074TIP3   OH233856   0.423   2.594   7.605  0.1266  0.1365 -0.4654
 4074TIP3    H133857   0.509   2.596   7.646 -0.3681 -0.9405  0.6776
 4074TIP3    H233858   0.363   2.628   7.671 -0.9479 -3.2504  0.5377
 4075TIP3   OH233859   2.002   4.484   1.927 -0.9858 -0.0583  0.7260
 4075TIP3    H133860   2.095   4.481   1.949 -0.7466  0.4173 -0.1344
 4075TIP3    H233861   1.957   4.469   2.009 -0.1430 -0.7567  1.0728
 4076TIP3   OH233862   5.371   0.743   7.950  0.1653  0.3388 -0.8174
 4076TIP3    H133863   5.291   0.784   7.983  0.1455  0.6873 -1.2874
 4076TIP3    H233864   5.373   0.657   7.992 -1.4490 -0.4378 -2.2211
 4077TIP3   OH233865   3.746   2.775   7.827 -0.1646  0.3156 -0.0727
 4077TIP3    H133866   3.685   2.839   7.864 -0.2390 -0.3979  1.1064
 4077TIP3    H233867   3.723   2.692   7.870 -0.4041 -0.6364 -1.9472
 4078TIP3   OH233868   0.690   5.054   8.431 -0.0663  0.0504 -0.4910
 4078TIP3    H133869   0.652   5.070   8.517  0.3465 -0.8455 -0.1367
 4078TIP3    H233870   0.689   5.140   8.388 -0.2004  0.5207  0.4341
 4079TIP3   OH233871   4.974   5.211   7.463  0.4486 -0.3459 -0.5737
 4079TIP3    H133872   4.903   5.147   7.469  2.0761 -2.0730  2.4897
 4079TIP3    H233873   4.957   5.272   7.535  0.2659  1.3743 -1.9791
 4080TIP3   OH233874   3.961   4.433   0.034  0.1900 -0.1487  0.0532
 4080TIP3    H133875   3.962   4.471   0.122  0.4670 -1.8995  0.8381
 4080TIP3    H233876   3.984   4.506  -0.023 -1.2248  1.3477  1.2836
 4081TIP3   OH233877   0.434   0.638   7.827 -0.0570 -0.5617 -0.4782
 4081TIP3    H133878   0.395   0.594   7.902 -0.6742  1.0402  0.1784
 4081TIP3    H233879   0.397   0.726   7.828  1.2961  0.0682 -1.6114
 4082TIP3   OH233880   5.383   4.051   1.650 -0.4488  0.0369  0.4419
 4082TIP3    H133881   5.404   4.129   1.702 -0.0220 -1.0206  1.9077
 4082TIP3    H233882   5.298   4.023   1.683 -0.2147 -0.6038  0.5025
 4083TIP3   OH233883   0.670   6.342   1.989  0.2420 -0.2323 -0.7875
 4083TIP3    H133884   0.692   6.409   1.923 -0.0874 -0.3245 -0.9929
 4083TIP3    H233885   0.752   6.328   2.036  0.2059  0.6544 -0.4360
 4084TIP3   OH233886   2.926   0.462   7.717  0.5104 -0.0282 -0.3971
 4084TIP3    H133887   2.937   0.526   7.648 -1.9949 -0.3528 -1.2106
 4084TIP3    H233888   2.957   0.379   7.679 -3.5580 -0.8482 -2.4469
 4085TIP3   OH233889   1.190   5.004   1.909 -0.0210 -0.3438 -0.2785
 4085TIP3    H133890   1.239   5.062   1.968 -0.1263 -1.2494  0.7345
 4085TIP3    H233891   1.195   5.047   1.824  3.3891 -0.8398 -0.4742
 4086TIP3   OH233892   0.436   4.202   0.998  0.4229 -0.2085 -0.1242
 4086TIP3    H133893   0.385   4.195   1.079  1.1266 -0.5151  0.3056
 4086TIP3    H233894   0.527   4.195   1.027  0.6759 -0.5204 -0.9669
 4087TIP3   OH233895   6.748   1.529   0.181  0.6806 -0.1259 -0.3909
 4087TIP3    H133896   6.827   1.503   0.134  1.0877  0.2087  0.0983
 4087TIP3    H233897   6.779   1.586   0.252 -0.1267  1.2456 -1.0890
 4088TIP3   OH233898   0.060   2.399   1.489 -0.3385 -0.4343 -0.2653
 4088TIP3    H133899   0.117   2.474   1.509 -1.5639  0.2410  0.8453
 4088TIP3    H233900  -0.025   2.439   1.470 -1.5800 -1.6073  2.4079
 4089TIP3   OH233901   6.000   4.636   0.538  0.1830  0.1767  0.1896
 4089TIP3    H133902   6.025   4.552   0.576  2.1986  0.2131 -0.9322
 4089TIP3    H233903   5.947   4.613   0.462  1.8944 -0.1709 -0.9318
 4090TIP3   OH233904   5.672   3.374   2.098  0.1485 -0.3515  0.1242
 4090TIP3    H133905   5.729   3.331   2.161 -0.4800 -0.2265  0.7988
 4090TIP3    H233906   5.584   3.345   2.122 -0.1320  0.0057 -0.4535
 4091TIP3   OH233907   2.891   3.841   2.801  0.0948  0.3052 -0.0369
 4091TIP3    H133908   2.949   3.827   2.726  0.4134  0.4546  0.1807
 4091TIP3    H233909   2.927   3.784   2.869 -1.4178 -1.4583 -0.6313
 4092TIP3   OH233910   2.771   3.365   1.085 -0.1209  0.2233 -0.0552
 4092TIP3    H133911   2.727   3.450   1.073 -2.6642 -1.1490 -1.3357
 4092TIP3    H233912   2.728   3.327   1.161  2.9052  1.0803  2.2614
 4093TIP3   OH233913   4.368   4.093   1.676 -0.1451  0.5343 -0.0789
 4093TIP3    H133914   4.307   4.083   1.602  0.6211  1.1424 -0.8125
 4093TIP3    H233915   4.419   4.171   1.655  3.0035 -1.5794 -1.0337
 4094TIP3   OH233916   2.650   1.254   1.589  0.2951 -0.2512 -0.3137
 4094TIP3    H133917   2.717   1.319   1.614 -0.7897 -0.2787  3.3532
 4094TIP3    H233918   2.567   1.294   1.615 -0.6079 -2.1978 -0.0354
 4095TIP3   OH233919   0.157   2.419   0.712 -0.2551  0.2744  0.2230
 4095TIP3    H133920   0.067   2.436   0.740  1.0145  0.8286  4.9106
 4095TIP3    H233921   0.190   2.504   0.683 -0.8733  0.3107 -0.4049
 4096TIP3   OH233922   2.596   0.354   7.321  0.1957  0.5702  0.0706
 4096TIP3    H133923   2.551   0.399   7.392 -1.3623  0.3598 -0.7433
 4096TIP3    H233924   2.553   0.385   7.241  0.2343 -1.0340 -0.6262
 4097TIP3   OH233925   2.440   5.126   7.425  0.0888  0.6387 -0.5890
 4097TIP3    H133926   2.396   5.210   7.442 -2.3236 -0.5729 -0.3114
 4097TIP3    H233927   2.413   5.071   7.499 -0.0618 -0.9530 -1.7913
 4098TIP3   OH233928   3.737   6.532   0.508 -0.2895 -0.4025 -0.0551
 4098TIP3    H133929   3.713   6.441   0.487  1.0886 -0.8228  0.1023
 4098TIP3    H233930   3.793   6.559   0.435  0.1666 -0.0400  0.4239
 4099TIP3   OH233931   2.937   4.190   1.438  0.0222  0.2907 -0.3576
 4099TIP3    H133932   2.952   4.272   1.390  0.1198  0.2200 -0.4492
 4099TIP3    H233933   2.940   4.215   1.530  3.5643 -0.1463 -0.2097
 4100TIP3   OH233934   3.176   4.129   7.214 -0.3974 -0.4809  0.4294
 4100TIP3    H133935   3.202   4.141   7.123 -0.1589 -0.6426  0.4776
 4100TIP3    H233936   3.128   4.046   7.214  0.4132 -0.9600  0.6214
 4101TIP3   OH233937   3.246   5.713   1.869 -0.1204 -0.4211  0.7466
 4101TIP3    H133938   3.287   5.795   1.843  1.8948 -1.6541 -0.1811
 4101TIP3    H233939   3.160   5.739   1.902 -0.0420  1.9365 -0.6613
 4102TIP3   OH233940   2.917   1.789   6.780  0.3443 -0.2553  0.0057
 4102TIP3    H133941   2.888   1.750   6.862 -0.6469  1.8718  0.7318
 4102TIP3    H233942   2.841   1.782   6.722  0.6969 -0.7995 -0.4057
 4103TIP3   OH233943   6.777   3.671   8.599  0.8095 -0.0508 -0.2169
 4103TIP3    H133944   6.783   3.763   8.624  2.1851  0.0047 -0.6826
 4103TIP3    H233945   6.844   3.627   8.652 -0.3215 -0.9265  0.5400
 4104TIP3   OH233946   5.720   5.775   0.623  0.2465  0.5080 -0.3414
 4104TIP3    H133947   5.665   5.839   0.580 -1.4128 -0.4562  0.2466
 4104TIP3    H233948   5.763   5.728   0.551 -0.2160  0.8404 -0.8427
 4105TIP3   OH233949   0.110   5.831   1.657 -0.9517 -0.1993  0.8956
 4105TIP3    H133950   0.038   5.805   1.599 -1.9352 -0.6270  2.2421
 4105TIP3    H233951   0.182   5.773   1.634 -1.8188 -1.4139  1.1251
 4106TIP3   OH233952   4.983   2.111   7.771  0.1270 -0.1643 -0.0355
 4106TIP3    H133953   5.068   2.099   7.812 -0.3861 -1.3503  0.7490
 4106TIP3    H233954   4.922   2.062   7.827 -0.6202 -1.8753 -2.1992
 4107TIP3   OH233955   5.509   0.051   8.698 -0.0589 -0.2728 -0.1021
 4107TIP3    H133956   5.587   0.048   8.754 -0.0268 -0.6566 -0.1660
 4107TIP3    H233957   5.541   0.083   8.614 -0.1605  0.6122  0.1770
 4108TIP3   OH233958   4.377   3.764   6.682  0.4254  1.0946  0.4168
 4108TIP3    H133959   4.387   3.676   6.719  0.6152  1.4582  1.2498
 4108TIP3    H233960   4.298   3.758   6.628  0.6278  0.3240  0.1806
 4109TIP3   OH233961   1.003   1.202   8.249 -0.3782  0.3710 -0.1049
 4109TIP3    H133962   0.932   1.257   8.282  0.8952  0.5978  2.5628
 4109TIP3    H233963   0.964   1.115   8.240 -1.1154  0.5715  0.9614
 4110TIP3   OH233964   0.417   4.346   0.752 -0.6327  0.5106 -0.5251
 4110TIP3    H133965   0.468   4.427   0.762 -0.7034  0.2513  2.9991
 4110TIP3    H233966   0.437   4.295   0.830 -0.3860 -3.1148 -2.7327
 4111TIP3   OH233967   4.361   2.715   1.192  0.4515  0.2185 -0.0449
 4111TIP3    H133968   4.391   2.697   1.282 -0.3588  2.2622  0.7150
 4111TIP3    H233969   4.441   2.737   1.145  0.5845  3.3747  1.3700
 4112TIP3   OH233970   2.000   2.154   8.371  0.2009  0.1359  0.2220
 4112TIP3    H133971   1.977   2.233   8.323  2.8312 -0.3502 -2.0833
 4112TIP3    H233972   2.076   2.179   8.424  1.1279 -0.8063 -0.6086
 4113TIP3   OH233973   6.517   3.921   8.046 -0.6054 -0.3649  0.2499
 4113TIP3    H133974   6.490   3.987   7.982 -0.7747 -0.0930  0.6004
 4113TIP3    H233975   6.567   3.970   8.112 -1.6532 -0.4006  1.0916
 4114TIP3   OH233976   5.655   4.817   7.337  0.1543  0.1898  0.9285
 4114TIP3    H133977   5.671   4.912   7.332  2.1399 -0.1399 -0.3168
 4114TIP3    H233978   5.624   4.802   7.426  1.0381  1.8569  1.5591
 4115TIP3   OH233979   0.086   2.003   7.734 -0.2031 -0.9945 -0.4370
 4115TIP3    H133980   0.095   2.071   7.668  0.6586 -3.3722 -2.9553
 4115TIP3    H233981  -0.001   2.016   7.771 -0.7111  0.4421 -2.0359
 4116TIP3   OH233982   2.479   2.628   8.569 -0.1662 -0.8527 -0.2307
 4116TIP3    H133983   2.434   2.598   8.648  0.3167  2.2973  1.3927
 4116TIP3    H233984   2.572   2.623   8.591  0.0026 -0.5090 -0.8269
 4117TIP3   OH233985   4.007   2.100   8.667 -0.1760  0.1302 -0.2408
 4117TIP3    H133986   4.093   2.081   8.630 -0.1079 -0.6755  0.2924
 4117TIP3    H233987   4.007   2.195   8.680 -0.0849  0.3896 -1.9563
 4118TIP3   OH233988   3.310   0.899   7.540  0.0269  0.2394 -0.2467
 4118TIP3    H133989   3.363   0.978   7.549  0.3699  0.0285 -0.4160
 4118TIP3    H233990   3.259   0.895   7.621 -0.1522  0.7490 -0.3296
 4119TIP3   OH233991   6.686   3.399   0.183 -0.8322 -0.2399  0.4372
 4119TIP3    H133992   6.609   3.454   0.178 -1.3527 -0.6616  2.5420
 4119TIP3    H233993   6.740   3.440   0.251  0.6323 -0.1630 -0.7273
 4120TIP3   OH233994   1.547   4.327   0.689  0.8428  0.4570  0.0989
 4120TIP3    H133995   1.479   4.260   0.686  0.7807  0.5437 -0.3959
 4120TIP3    H233996   1.623   4.282   0.725  0.3366  0.5284  1.3368
 4121TIP3   OH233997   6.667   0.100   8.417  0.1354  0.2429  0.2708
 4121TIP3    H133998   6.737   0.040   8.393 -1.7177 -1.5583 -1.0510
 4121TIP3    H233999   6.594   0.076   8.359 -1.2617  2.6816  0.8586
 4122TIP3   OH234000   5.053   2.789   0.969  0.1422 -0.0558 -0.0056
 4122TIP3    H134001   5.147   2.796   0.953  0.3500 -1.2297  0.6751
 4122TIP3    H234002   5.027   2.708   0.927 -0.6435  0.4125 -0.4559
 4123TIP3   OH234003   6.683   0.962   8.286 -0.1751 -0.0691 -1.1571
 4123TIP3    H134004   6.647   1.039   8.243 -2.1593 -0.9339 -1.1249
 4123TIP3    H234005   6.662   0.890   8.228  0.5749 -0.7557 -0.5942
 4124TIP3   OH234006   2.490   1.338   0.467 -0.6017 -0.1806 -0.0922
 4124TIP3    H134007   2.579   1.373   0.471 -0.2617 -1.0330  0.1368
 4124TIP3    H234008   2.493   1.274   0.396 -0.4453 -1.7348  1.2460
 4125TIP3   OH234009   1.760   0.308   0.408 -0.5142 -0.6010  0.3580
 4125TIP3    H134010   1.738   0.327   0.317 -1.5712  0.4557  0.8092
 4125TIP3    H234011   1.781   0.214   0.408 -0.5049 -0.6177 -0.9635
 4126TIP3   OH234012   1.741   3.751   1.704 -0.0415  0.5542 -0.4086
 4126TIP3    H134013   1.731   3.658   1.682 -1.1802  0.9385 -1.6650
 4126TIP3    H234014   1.796   3.787   1.634 -0.4556  1.0117 -0.5088
 4127TIP3   OH234015   5.200   5.187   8.072 -0.7609  0.0632 -0.0947
 4127TIP3    H134016   5.204   5.220   8.161  0.8308  0.5838 -0.3211
 4127TIP3    H234017   5.126   5.233   8.032 -0.0135  1.6528  0.2772
 4128TIP3   OH234018   0.691   4.103   1.087  0.4043  0.2306  0.1693
 4128TIP3    H134019   0.755   4.171   1.064  1.5270 -0.8695 -0.0409
 4128TIP3    H234020   0.743   4.027   1.111 -0.8058 -0.0275  2.2091
 4129TIP3   OH234021   1.302   3.239   8.094  0.2598 -0.0851 -0.0746
 4129TIP3    H134022   1.328   3.225   8.185  0.7531  1.3545  0.0208
 4129TIP3    H234023   1.327   3.157   8.050 -0.5420 -1.0384  1.1750
 4130TIP3   OH234024   2.627   3.800   2.078  0.8524 -0.5257  0.4659
 4130TIP3    H134025   2.602   3.869   2.139  0.5249  0.2435 -0.5227
 4130TIP3    H234026   2.544   3.758   2.054  0.1724  2.3163 -3.1657
 4131TIP3   OH234027   6.510   4.383   1.977 -0.3873 -0.1331 -0.2332
 4131TIP3    H134028   6.505   4.303   1.924  1.1438 -0.3741 -0.0569
 4131TIP3    H234029   6.419   4.402   2.000 -0.9045 -1.0394 -1.4341
 4132TIP3   OH234030   5.094   1.767   8.545 -0.2184 -0.3652  1.0770
 4132TIP3    H134031   5.038   1.702   8.589 -0.4091 -0.5718  0.5339
 4132TIP3    H234032   5.051   1.851   8.562  0.4232 -0.2762  2.4148
 4133TIP3   OH234033   3.949   6.824   7.682 -0.0626  0.2112 -0.2381
 4133TIP3    H134034   4.040   6.812   7.710 -0.8386 -1.9241  1.7369
 4133TIP3    H234035   3.955   6.852   7.591  2.5887 -2.2010 -0.9375
 4134TIP3   OH234036   2.418   2.165   2.629  0.0416 -0.3018 -0.0244
 4134TIP3    H134037   2.458   2.239   2.583  1.5635 -1.4863 -0.6531
 4134TIP3    H234038   2.349   2.135   2.570 -0.8794  0.8381  0.4216
 4135TIP3   OH234039   2.816   1.788   0.443  0.1179  0.2647  0.3252
 4135TIP3    H134040   2.912   1.790   0.440  0.0687  2.0258 -1.2119
 4135TIP3    H234041   2.792   1.717   0.383  0.4301  0.3829  0.0590
 4136TIP3   OH234042   5.951   3.389   8.352 -0.2210  0.2249  0.5889
 4136TIP3    H134043   5.987   3.374   8.440  0.8109  1.0878  0.3335
 4136TIP3    H234044   5.959   3.304   8.308  0.2150  0.0488  0.9973
 4137TIP3   OH234045   4.873   5.097   2.374  0.2626  0.6369  0.1902
 4137TIP3    H134046   4.880   5.169   2.311  0.7549 -1.1578 -1.9596
 4137TIP3    H234047   4.819   5.132   2.445  0.4714  3.0890 -0.7564
 4138TIP3   OH234048   4.310   5.290   8.771  0.0243 -0.2461 -0.1457
 4138TIP3    H134049   4.331   5.351   8.842 -0.2285 -1.2140  0.7815
 4138TIP3    H234050   4.393   5.278   8.725  0.1428  0.5569 -0.1623
 4139TIP3   OH234051   2.711   4.692   1.069 -0.2689  0.6307  0.5485
 4139TIP3    H134052   2.705   4.784   1.042  0.9875  0.7240  0.5107
 4139TIP3    H234053   2.621   4.663   1.078 -0.6957  1.5554 -0.5291
 4140TIP3   OH234054   6.646   4.489   0.310  0.0376  0.1260  0.1411
 4140TIP3    H134055   6.666   4.535   0.228 -0.7294 -0.2711 -0.2793
 4140TIP3    H234056   6.554   4.509   0.327 -0.1807 -0.8487  0.1974
 4141TIP3   OH234057   4.370   1.106   6.224 -0.0613 -0.6580  0.1684
 4141TIP3    H134058   4.342   1.072   6.309  0.8157 -0.9457  0.3465
 4141TIP3    H234059   4.288   1.125   6.178 -0.5445 -0.8870  0.9182
 4142TIP3   OH234060   4.096   1.017   8.801  0.3551 -0.3924  0.1191
 4142TIP3    H134061   4.111   1.091   8.742  0.5945 -1.4693 -1.2063
 4142TIP3    H234062   4.183   0.993   8.832  0.5615 -1.6245 -1.3494
 4143TIP3   OH234063   5.867   0.967   1.146 -0.1037 -0.5004 -0.0929
 4143TIP3    H134064   5.913   0.995   1.067 -1.5183  2.6360  0.0487
 4143TIP3    H234065   5.783   1.013   1.143 -1.5362 -2.7650  1.7107
 4144TIP3   OH234066   5.121   2.981   1.204  0.3558  0.0427 -0.2656
 4144TIP3    H134067   5.102   2.893   1.171 -0.5928 -0.4211  1.3981
 4144TIP3    H234068   5.189   3.014   1.145  1.2959 -2.0956 -0.4908
 4145TIP3   OH234069   5.219   1.859   7.549  0.3802 -0.4908 -0.2344
 4145TIP3    H134070   5.146   1.917   7.524  0.8792  1.4579  2.3382
 4145TIP3    H234071   5.249   1.821   7.467 -0.4860  2.3683 -2.0430
 4146TIP3   OH234072   6.747   1.223   0.208 -0.6884  0.2429 -0.0306
 4146TIP3    H134073   6.671   1.260   0.164 -1.3647 -1.3698 -0.2821
 4146TIP3    H234074   6.816   1.222   0.142 -0.8433  0.4883 -0.1950
 4147TIP3   OH234075   3.178   1.424   0.523  0.7643  0.1409  0.6496
 4147TIP3    H134076   3.148   1.388   0.606 -1.3349  0.6683  0.1853
 4147TIP3    H234077   3.199   1.516   0.543 -0.7799  0.5681  0.4204
 4148TIP3   OH234078   1.112   0.184   2.293  0.4188  0.2293  0.7225
 4148TIP3    H134079   1.032   0.206   2.244  1.5757  0.6906 -1.0505
 4148TIP3    H234080   1.095   0.097   2.329 -0.4945 -0.1354 -0.5185
 4149TIP3   OH234081   4.550   5.901   6.294  0.2896  0.3354  0.0869
 4149TIP3    H134082   4.558   5.990   6.260  0.3024 -0.0197 -0.8471
 4149TIP3    H234083   4.626   5.892   6.353  0.2099  0.9837  0.2995
 4150TIP3   OH234084   3.810   4.170   7.973 -0.3344 -0.2330  0.2799
 4150TIP3    H134085   3.867   4.203   7.904 -1.1719  0.7951  0.0662
 4150TIP3    H234086   3.854   4.195   8.055 -0.1010 -0.1401  0.1279
 4151TIP3   OH234087   2.669   3.153   8.198 -0.1961  0.5847 -0.2123
 4151TIP3    H134088   2.701   3.071   8.159 -1.8204 -0.1871 -0.0122
 4151TIP3    H234089   2.574   3.144   8.198 -0.3734  2.0863  0.6994
 4152TIP3   OH234090   2.431   4.344   0.970 -0.1427 -0.5037  0.4183
 4152TIP3    H134091   2.480   4.280   1.023  1.4276  0.7258  0.5137
 4152TIP3    H234092   2.498   4.405   0.938 -1.6769  1.5674  0.9742
 4153TIP3   OH234093   3.458   0.917   7.832 -0.3229 -0.6961 -0.4637
 4153TIP3    H134094   3.483   0.825   7.840  0.7907 -0.3119  0.8556
 4153TIP3    H234095   3.374   0.916   7.786 -0.6373 -2.4068  0.1045
 4154TIP3   OH234096   4.264   5.376   0.725  0.1125  0.0451  0.1415
 4154TIP3    H134097   4.263   5.303   0.786  2.7409  0.3849  0.7021
 4154TIP3    H234098   4.292   5.451   0.777  2.9685  0.2310 -1.4450
 4155TIP3   OH234099   0.696   0.058   8.378  0.1300  0.4740  0.0464
 4155TIP3    H134100   0.756  -0.014   8.397 -1.8455 -0.8796  1.6015
 4155TIP3    H234101   0.689   0.106   8.461 -0.0739  1.3087 -0.4397
 4156TIP3   OH234102   3.493   0.663   8.706 -0.5187  0.0544  0.3824
 4156TIP3    H134103   3.453   0.716   8.775 -0.5517  0.1996  0.2532
 4156TIP3    H234104   3.579   0.703   8.693 -0.0906 -0.6094  1.0645
 4157TIP3   OH234105   5.236   2.041   7.855 -0.1046 -0.1046  0.6688
 4157TIP3    H134106   5.270   2.111   7.911 -2.3326  1.1178  0.6098
 4157TIP3    H234107   5.254   1.961   7.905  1.0894  0.6211  1.4704
 4158TIP3   OH234108   6.523   5.300   1.506 -0.8863 -0.4959  0.8148
 4158TIP3    H134109   6.528   5.254   1.422 -0.6666 -0.1558  0.6364
 4158TIP3    H234110   6.440   5.346   1.504  0.6868  2.6324 -0.8972
 4159TIP3   OH234111   4.303   5.093   7.830 -0.4540 -0.2140  0.8195
 4159TIP3    H134112   4.287   5.135   7.915 -1.3947 -1.2576  1.1745
 4159TIP3    H234113   4.216   5.070   7.798  0.0479 -2.6786  1.0526
 4160TIP3   OH234114   6.618   2.811   8.800  0.5457  0.4807  0.2577
 4160TIP3    H134115   6.675   2.872   8.845 -0.5028  0.5143  1.5985
 4160TIP3    H234116   6.578   2.863   8.730  1.5758  0.6357 -0.2308
 4161TIP3   OH234117   6.262   3.824   1.055  0.1843  0.1836 -0.4325
 4161TIP3    H134118   6.198   3.788   0.993 -0.1264  1.1748 -0.7003
 4161TIP3    H234119   6.223   3.809   1.141  0.4039 -0.7784 -0.4805
 4162TIP3   OH234120   1.985   4.871   7.745  0.5089  0.0795  0.1034
 4162TIP3    H134121   1.964   4.787   7.786  0.5879 -0.9874 -1.9460
 4162TIP3    H234122   1.900   4.911   7.727  0.4523  0.0543  0.3134
 4163TIP3   OH234123   5.625   6.637   8.236 -0.1403  0.3124  0.1283
 4163TIP3    H134124   5.708   6.685   8.238 -0.2533  0.4960  1.9226
 4163TIP3    H234125   5.651   6.546   8.222  0.4143  0.3044  1.1107
 4164TIP3   OH234126   6.431   6.445   0.771  0.6732  0.5262 -0.9912
 4164TIP3    H134127   6.342   6.466   0.741 -0.1140 -0.6243  0.4395
 4164TIP3    H234128   6.438   6.488   0.856  1.1814 -0.1102 -0.7107
 4165TIP3   OH234129   2.971   4.861   8.633  0.0238 -0.0823 -0.0722
 4165TIP3    H134130   2.952   4.943   8.588  0.2906  0.1416  0.2174
 4165TIP3    H234131   3.023   4.887   8.709 -0.2413 -0.4762  0.2499
 4166TIP3   OH234132   0.923   6.355   1.711 -0.0255  0.0530 -0.2483
 4166TIP3    H134133   0.844   6.302   1.715 -0.0301 -0.1350 -1.9881
 4166TIP3    H234134   0.901   6.429   1.654  0.9055  0.2300 -0.4092
 4167TIP3   OH234135   4.176   2.186   2.877 -0.4472  0.0001  0.0433
 4167TIP3    H134136   4.252   2.194   2.935 -1.2004  0.0086  1.0635
 4167TIP3    H234137   4.101   2.201   2.935 -1.1901  1.1030 -1.1584
 4168TIP3   OH234138   0.410   6.251   1.537  0.6737  0.2533  0.1078
 4168TIP3    H134139   0.373   6.163   1.532  0.4308  0.2050  1.9151
 4168TIP3    H234140   0.504   6.238   1.522  0.3131  0.1246 -2.5445
 4169TIP3   OH234141   3.861   5.744   0.555 -0.1161 -0.1271  0.3085
 4169TIP3    H134142   3.910   5.692   0.619 -0.6228 -0.7819  0.1870
 4169TIP3    H234143   3.770   5.739   0.586 -0.1238  1.0343  0.5169
 4170TIP3   OH234144   6.177   4.307   1.124  0.0651 -0.1390  0.3003
 4170TIP3    H134145   6.197   4.350   1.041  2.7764 -1.2968  0.2674
 4170TIP3    H234146   6.231   4.228   1.124  0.3645 -0.0410  3.2888
 4171TIP3   OH234147   3.373   3.240   2.194 -0.1865 -0.6587 -0.3269
 4171TIP3    H134148   3.347   3.226   2.285  1.9297 -1.6551  0.1753
 4171TIP3    H234149   3.420   3.323   2.195  0.1291 -0.8338 -0.4330
 4172TIP3   OH234150   5.239   1.731   7.326 -0.3328  0.6979  0.7919
 4172TIP3    H134151   5.231   1.742   7.231 -0.8892  0.5657  0.8246
 4172TIP3    H234152   5.159   1.687   7.352 -1.0549  2.4234  1.5965
 4173TIP3   OH234153   5.156   6.355   7.047  0.2175 -0.5270  0.1119
 4173TIP3    H134154   5.138   6.414   7.121 -1.6490 -1.9283  0.8602
 4173TIP3    H234155   5.249   6.367   7.029  0.3050  1.2318  1.4655
 4174TIP3   OH234156   6.630   1.184   0.935  0.4710 -0.2850 -0.1163
 4174TIP3    H134157   6.714   1.159   0.898  0.0789 -0.7381 -0.7124
 4174TIP3    H234158   6.567   1.171   0.864 -0.4609 -2.1908  0.9716
 4175TIP3   OH234159   4.064   0.440   6.401 -1.0031 -0.1324 -0.1118
 4175TIP3    H134160   3.982   0.476   6.435 -0.5051  0.9919 -0.0543
 4175TIP3    H234161   4.067   0.351   6.436 -3.2026 -0.9839 -1.8162
 4176TIP3   OH234162   5.776   1.586   7.219 -0.2167 -0.1604  0.0549
 4176TIP3    H134163   5.723   1.623   7.290 -0.1748 -0.2654  0.1403
 4176TIP3    H234164   5.846   1.650   7.206 -0.2532 -0.1167  0.0736
 4177TIP3   OH234165   1.353   3.223   7.438 -0.1322 -0.0412 -0.3437
 4177TIP3    H134166   1.328   3.245   7.528  0.4972 -1.4580  0.1995
 4177TIP3    H234167   1.288   3.268   7.384  1.0268  3.1196  0.6247
 4178TIP3   OH234168   4.272   3.539   8.396 -0.3046 -0.4185 -0.3630
 4178TIP3    H134169   4.268   3.633   8.413  0.0448 -0.0818 -1.9970
 4178TIP3    H234170   4.242   3.529   8.305  0.6751 -1.7557 -0.5735
 4179TIP3   OH234171   6.687   5.771   0.120  0.5751  0.2028  0.8602
 4179TIP3    H134172   6.752   5.767   0.190  1.3840  1.4493  0.2123
 4179TIP3    H234173   6.611   5.814   0.160  0.2459 -0.9482  1.5235
 4180TIP3   OH234174   4.000   6.333   8.291  0.8030  0.3959  0.0715
 4180TIP3    H134175   4.047   6.308   8.212  0.5876  0.3558 -0.0442
 4180TIP3    H234176   3.926   6.384   8.260 -0.3134 -1.1275  0.1070
 4181TIP3   OH234177   2.669   0.140   7.624 -0.0716 -0.8514 -0.2529
 4181TIP3    H134178   2.741   0.201   7.608 -3.1287  3.1998 -0.3707
 4181TIP3    H234179   2.635   0.120   7.536 -0.9372 -0.0893 -0.1159
 4182TIP3   OH234180   2.316   1.385   0.176  0.1471  0.1294  0.1712
 4182TIP3    H134181   2.235   1.414   0.218 -0.8852 -2.6011  0.2616
 4182TIP3    H234182   2.339   1.304   0.222  3.1443  0.9543  0.3387
 4183TIP3   OH234183   0.171   4.440   1.092  0.1490 -0.2832 -0.7665
 4183TIP3    H134184   0.178   4.345   1.107 -0.1044 -0.1024  0.6266
 4183TIP3    H234185   0.077   4.455   1.079  0.0489 -0.0917  0.1110
 4184TIP3   OH234186   5.381   5.070   1.327  0.3410  0.0102  0.1996
 4184TIP3    H134187   5.417   5.109   1.247 -1.2710  0.6815 -0.2292
 4184TIP3    H234188   5.365   4.979   1.304  0.4386  0.0535 -0.0457
 4185TIP3   OH234189   1.387   1.647   6.323  0.0988  0.0333  0.3503
 4185TIP3    H134190   1.353   1.643   6.413 -2.9523  0.5565 -0.6684
 4185TIP3    H234191   1.381   1.556   6.292 -1.3299  0.2334 -0.0719
 4186TIP3   OH234192   1.193   4.690   8.623  0.4885 -0.0628  0.3311
 4186TIP3    H134193   1.115   4.670   8.572  0.3756 -2.0253  1.1790
 4186TIP3    H234194   1.173   4.773   8.666 -1.1338 -0.4934  0.4874
 4187TIP3   OH234195   0.169   3.162   6.517  0.0107  0.1777 -0.5676
 4187TIP3    H134196   0.074   3.160   6.507 -0.1813  0.5907  0.9888
 4187TIP3    H234197   0.193   3.253   6.501  0.0531  0.2366 -0.1605
 4188TIP3   OH234198   4.229   1.396   1.526  0.0819  0.1519 -0.0005
 4188TIP3    H134199   4.208   1.421   1.616  0.7367 -0.1942  0.2564
 4188TIP3    H234200   4.230   1.480   1.478 -2.5262  0.1272 -0.2072
 4189TIP3   OH234201   6.073   4.400   0.677  0.0813  0.1007  0.0318
 4189TIP3    H134202   6.150   4.361   0.635  0.3622  0.2178  0.4268
 4189TIP3    H234203   6.099   4.410   0.769 -1.0068 -1.4035  0.5373
 4190TIP3   OH234204   3.868   3.081   0.405 -0.0317  0.2087  0.2678
 4190TIP3    H134205   3.803   3.030   0.357  1.1812 -2.7815  1.5300
 4190TIP3    H234206   3.953   3.047   0.375  0.8197  0.9712  1.6860
 4191TIP3   OH234207   3.278   0.314   6.872 -0.1724 -0.1051 -0.1661
 4191TIP3    H134208   3.296   0.279   6.785 -2.0873  0.0218 -0.6556
 4191TIP3    H234209   3.324   0.255   6.932 -1.4215 -2.1021 -1.0932
 4192TIP3   OH234210   4.593   0.408   2.555  0.1336 -0.5884 -0.5221
 4192TIP3    H134211   4.518   0.415   2.496 -0.4165 -0.8176  0.1388
 4192TIP3    H234212   4.586   0.321   2.593  0.7024 -0.5850 -0.4048
 4193TIP3   OH234213   5.141   4.116   1.819 -0.1244  0.1411  0.5553
 4193TIP3    H134214   5.081   4.152   1.885  1.8500  3.2941  0.8013
 4193TIP3    H234215   5.224   4.107   1.865  0.5699 -0.4372 -0.7698
 4194TIP3   OH234216   6.373   1.939   8.337 -0.0255  0.1325  0.1676
 4194TIP3    H134217   6.437   2.007   8.360  0.7075 -0.6911  0.6257
 4194TIP3    H234218   6.291   1.968   8.378  0.9415 -0.6466  2.8504
 4195TIP3   OH234219   5.827   1.768   1.711  0.7105  0.1024 -0.1810
 4195TIP3    H134220   5.845   1.802   1.798  0.3063 -0.8588  0.2916
 4195TIP3    H234221   5.807   1.675   1.725 -0.0949  0.1027 -1.2055
 4196TIP3   OH234222   4.782   5.579   8.538  0.1326  0.3487 -0.0369
 4196TIP3    H134223   4.690   5.556   8.549 -0.1246  0.5129 -1.6394
 4196TIP3    H234224   4.815   5.514   8.475  1.3275 -0.1976  1.1041
 4197TIP3   OH234225   5.622   5.416   7.980  0.1193 -0.0881 -0.1620
 4197TIP3    H134226   5.632   5.482   7.911 -1.7376  1.6764  1.1536
 4197TIP3    H234227   5.672   5.451   8.054  0.8840 -1.2541 -0.0937
 4198TIP3   OH234228   6.549   1.692   0.031  0.3118  0.2190 -0.2136
 4198TIP3    H134229   6.586   1.645   0.106 -0.6832 -1.2578 -0.6047
 4198TIP3    H234230   6.570   1.636  -0.044 -0.7854  0.4764 -0.7220
 4199TIP3   OH234231   0.741   2.818   8.548  0.0129  0.2279 -0.2883
 4199TIP3    H134232   0.647   2.805   8.538 -0.0340  1.3120 -1.5585
 4199TIP3    H234233   0.774   2.824   8.458  1.0467  1.4563  0.1441
 4200TIP3   OH234234   2.036   4.125   7.991  0.1208  0.0190 -0.5826
 4200TIP3    H134235   1.941   4.134   7.995 -0.0321 -1.7322  0.8204
 4200TIP3    H234236   2.050   4.040   7.949  1.0993  0.4493 -1.1711
 4201TIP3   OH234237   4.295   4.743   1.198  0.2188  0.2258 -0.4530
 4201TIP3    H134238   4.251   4.826   1.215  2.2375  1.2179  0.2530
 4201TIP3    H234239   4.382   4.768   1.168  1.3860 -1.6107  1.1646
 4202TIP3   OH234240   0.677   2.593   7.659  0.1275 -0.3305 -0.1036
 4202TIP3    H134241   0.743   2.658   7.635 -1.2482  0.2734 -2.6226
 4202TIP3    H234242   0.719   2.509   7.643  1.3365 -0.0952  1.5305
 4203TIP3   OH234243   1.699   4.067   0.022  0.0234 -0.0935 -0.0998
 4203TIP3    H134244   1.762   4.040  -0.045  0.9660  1.3266  0.1768
 4203TIP3    H234245   1.713   4.161   0.033 -2.6831  0.4663 -0.5716
 4204TIP3   OH234246   3.677   3.790   1.478  0.1215  0.0731  0.1642
 4204TIP3    H134247   3.712   3.782   1.566  0.0684 -3.1310  0.0180
 4204TIP3    H234248   3.582   3.782   1.489 -0.1227  2.1197 -0.0342
 4205TIP3   OH234249   4.153   1.707   7.902 -0.1703  0.0644  0.4095
 4205TIP3    H134250   4.114   1.690   7.988 -0.7727 -0.2773  0.0739
 4205TIP3    H234251   4.079   1.710   7.842  0.1741  1.1756  0.0260
 4206TIP3   OH234252   2.243   4.406   8.301  0.0691 -0.2509 -0.2948
 4206TIP3    H134253   2.296   4.370   8.230  0.4879 -0.7737  0.2716
 4206TIP3    H234254   2.166   4.444   8.257 -1.4902 -3.6527 -0.8314
 4207TIP3   OH234255   4.827   1.935   0.643  0.7233 -0.2714  0.0783
 4207TIP3    H134256   4.839   1.933   0.548  0.3562 -0.7132  0.0380
 4207TIP3    H234257   4.804   1.846   0.666 -0.5365  0.1185  0.3974
 4208TIP3   OH234258   5.002   5.585   8.728 -0.1521 -0.2131  0.1131
 4208TIP3    H134259   5.062   5.616   8.661  0.1626 -0.0687  0.4605
 4208TIP3    H234260   4.922   5.564   8.680  0.1729 -0.4116 -0.3518
 4209TIP3   OH234261   3.915   4.067   0.997  0.1660  0.1835  0.1851
 4209TIP3    H134262   3.949   4.122   1.066 -0.2786  0.5469  0.1216
 4209TIP3    H234263   3.826   4.045   1.025 -0.2138  0.7828 -0.5220
 4210TIP3   OH234264   4.460   5.401   6.614 -0.1271  0.3236 -0.4110
 4210TIP3    H134265   4.398   5.431   6.548 -2.1643 -1.6118  0.4944
 4210TIP3    H234266   4.496   5.320   6.579  2.0034  1.4154 -0.9184
 4211TIP3   OH234267   6.143   2.469   7.296  0.0043 -0.2353  0.6829
 4211TIP3    H134268   6.232   2.462   7.330  0.1080 -0.2962  0.3965
 4211TIP3    H234269   6.129   2.387   7.248 -0.6705 -0.8275  1.8229
 4212TIP3   OH234270   0.776   4.321   0.852  0.0587  0.7223 -0.6253
 4212TIP3    H134271   0.704   4.380   0.831 -0.7998  0.3840  1.1388
 4212TIP3    H234272   0.835   4.374   0.906 -2.2347 -0.5906  3.6995
 4213TIP3   OH234273   0.796   0.621   8.216  0.4871 -0.5955  0.6468
 4213TIP3    H134274   0.823   0.542   8.169  0.3905 -0.5856  0.5741
 4213TIP3    H234275   0.774   0.684   8.147 -0.2623 -0.7892  0.7012
 4214TIP3   OH234276   1.535   0.846   6.848  0.7696  0.0199  0.1143
 4214TIP3    H134277   1.571   0.791   6.779 -0.1809 -1.5414  0.8121
 4214TIP3    H234278   1.512   0.928   6.804  3.1720  0.3087 -0.7415
 4215TIP3   OH234279   1.230   3.657   8.113  0.0773 -0.3217  0.5960
 4215TIP3    H134280   1.219   3.751   8.103  0.4109 -0.2187  1.1148
 4215TIP3    H234281   1.321   3.640   8.087  0.3353 -0.3396  1.4782
 4216TIP3   OH234282   3.007   1.387   2.518 -0.8440  0.0207  0.7685
 4216TIP3    H134283   3.017   1.352   2.606 -1.7816 -0.2699  0.7730
 4216TIP3    H234284   3.043   1.475   2.522  1.2472 -0.7695  0.8526
 4217TIP3   OH234285   1.241   2.102   0.332  0.0867  0.8857  0.4906
 4217TIP3    H134286   1.278   2.179   0.289  0.4989  0.0613 -0.6952
 4217TIP3    H234287   1.188   2.060   0.263  0.7239 -0.4569  0.7887
 4218TIP3   OH234288   3.881   0.613   0.041  0.2043 -0.0026 -0.0750
 4218TIP3    H134289   3.937   0.572  -0.025  0.6510  1.6249 -0.7591
 4218TIP3    H234290   3.941   0.667   0.093 -0.1602 -1.1390  1.6233
 4219TIP3   OH234291   0.991   0.082   7.924  0.7578 -0.6438  0.2432
 4219TIP3    H134292   0.972   0.103   8.016  3.0933  0.0800  0.6345
 4219TIP3    H234293   1.056   0.011   7.929  1.4846 -0.0815 -0.8110
 4220TIP3   OH234294   3.251   1.522   1.177  0.2037  0.9570 -0.1633
 4220TIP3    H134295   3.274   1.613   1.199 -0.2187  1.2908 -1.0644
 4220TIP3    H234296   3.283   1.510   1.087 -1.2298  0.7613 -0.6751
 4221TIP3   OH234297   2.440   4.767   1.018  0.1405  0.2963  0.1868
 4221TIP3    H134298   2.466   4.856   0.991  1.6619 -0.1150  0.1997
 4221TIP3    H234299   2.407   4.727   0.937  0.6098  0.4902 -0.1110
 4222TIP3   OH234300   5.135   2.645   0.034 -0.1772  0.3432  0.7340
 4222TIP3    H134301   5.185   2.576   0.077  1.9093 -0.1489 -2.1782
 4222TIP3    H234302   5.186   2.725   0.048  0.2524  0.2676 -0.3276
 4223TIP3   OH234303   5.981   5.663   0.909 -0.6497  0.7017  0.4397
 4223TIP3    H134304   6.076   5.666   0.893 -0.9049 -0.1069 -1.4744
 4223TIP3    H234305   5.962   5.746   0.952  0.8894  0.9931  0.6356
 4224TIP3   OH234306   1.098   4.043   7.461  0.6033  0.0264  0.4436
 4224TIP3    H134307   1.136   4.107   7.521  0.0225  1.9362 -1.1186
 4224TIP3    H234308   1.172   4.011   7.409  0.8051 -0.0977  0.8060
 4225TIP3   OH234309   6.007   5.191   7.914 -0.2943 -0.7228 -0.1975
 4225TIP3    H134310   5.917   5.210   7.942  0.4138  2.5578  0.2654
 4225TIP3    H234311   6.051   5.162   7.994 -0.7351 -1.6081 -0.2650
 4226TIP3   OH234312   2.689   1.245   7.505  0.1722  0.0623  0.3848
 4226TIP3    H134313   2.644   1.329   7.491  2.7381  1.3325 -1.1673
 4226TIP3    H234314   2.740   1.258   7.585 -0.3585 -0.4859  0.8187
 4227TIP3   OH234315   3.663   4.332   0.113 -0.2088  0.3469  0.0239
 4227TIP3    H134316   3.651   4.380   0.031  2.6401 -0.1075 -0.7332
 4227TIP3    H234317   3.753   4.350   0.139 -1.1822  1.0871  3.5297
 4228TIP3   OH234318   1.020   1.142   0.843 -0.4774  0.2980 -0.0074
 4228TIP3    H134319   1.080   1.075   0.811  2.2929  0.6894  3.7465
 4228TIP3    H234320   1.061   1.225   0.821 -0.8811  0.6291  0.4453
 4229TIP3   OH234321   4.098   2.046   1.736 -0.4781 -0.2818 -0.6449
 4229TIP3    H134322   4.154   2.122   1.722  2.0624 -1.6841  1.1546
 4229TIP3    H234323   4.144   1.974   1.694 -0.5465 -1.5943  1.3833
 4230TIP3   OH234324   2.093   6.054   0.972  0.0041 -0.3538 -0.9069
 4230TIP3    H134325   2.057   6.002   0.901 -3.4459 -1.1281  1.1466
 4230TIP3    H234326   2.094   5.994   1.047 -1.2671  1.6646  0.8389
 4231TIP3   OH234327   2.677   2.186   0.802 -0.1028  0.0487 -0.4101
 4231TIP3    H134328   2.684   2.114   0.740  1.0750 -0.2397  0.0303
 4231TIP3    H234329   2.587   2.180   0.836 -0.8434  0.3517 -2.2069
 4232TIP3   OH234330   3.428   3.514   8.438 -0.1617  0.5326  0.2469
 4232TIP3    H134331   3.336   3.486   8.429  0.1342 -0.6076  0.6335
 4232TIP3    H234332   3.453   3.484   8.526  0.9254 -0.1901 -0.2961
 4233TIP3   OH234333   4.229   4.412   0.327 -0.7997 -0.2958  0.1528
 4233TIP3    H134334   4.247   4.422   0.420 -1.0357  0.3818  0.1273
 4233TIP3    H234335   4.267   4.327   0.304 -2.1772 -1.2456  1.2273
 4234TIP3   OH234336   5.204   4.111   7.033 -0.5103  0.2235  0.0215
 4234TIP3    H134337   5.266   4.080   6.967 -0.5976  0.5757 -0.2302
 4234TIP3    H234338   5.258   4.155   7.098 -0.2410 -1.5734  1.0598
 4235TIP3   OH234339   2.792   4.806   8.281  0.1899  0.1457 -0.0713
 4235TIP3    H134340   2.738   4.882   8.307  0.0688 -0.0444  0.2479
 4235TIP3    H234341   2.793   4.809   8.186  0.8957  1.0422 -0.0449
 4236TIP3   OH234342   1.712   0.858   1.424  0.1913  0.6673 -0.9767
 4236TIP3    H134343   1.791   0.879   1.473  0.5176 -0.1217 -1.1408
 4236TIP3    H234344   1.661   0.939   1.424  0.5516  0.9019 -0.0328
 4237TIP3   OH234345   0.639   0.201   8.633 -0.2714  0.4316  0.1804
 4237TIP3    H134346   0.661   0.289   8.660 -1.3600  0.7805  0.0123
 4237TIP3    H234347   0.543   0.202   8.626 -0.1803 -0.0840 -2.0185
 4238TIP3   OH234348   0.892   6.452   8.112  0.0158 -0.1479  0.5709
 4238TIP3    H134349   0.803   6.480   8.132 -0.2335 -0.9834  0.6510
 4238TIP3    H234350   0.890   6.357   8.120  0.5494 -0.3043 -0.9301
 4239TIP3   OH234351   2.741   1.681   8.742  0.0198 -0.6343  0.8576
 4239TIP3    H134352   2.813   1.655   8.800 -0.5897  0.3528  2.1247
 4239TIP3    H234353   2.662   1.661   8.792 -0.5767 -1.1821 -0.2852
 4240TIP3   OH234354   4.066   5.262   8.303 -0.2362  0.0147 -0.3792
 4240TIP3    H134355   4.048   5.170   8.322  0.8362 -0.8193 -2.9865
 4240TIP3    H234356   4.116   5.292   8.379 -0.0187 -1.7540  0.2231
 4241TIP3   OH234357   6.594   3.792   1.692 -0.3155 -0.1010  0.4512
 4241TIP3    H134358   6.507   3.814   1.658  0.4921  1.2988 -0.8345
 4241TIP3    H234359   6.579   3.775   1.785 -1.6457  2.6792  0.8677
 4242TIP3   OH234360   2.843   6.586   0.525 -0.4785 -0.3355  0.2398
 4242TIP3    H134361   2.867   6.501   0.563  0.2412 -0.3810 -0.2899
 4242TIP3    H234362   2.799   6.633   0.596  1.1332 -0.2811  1.2512
 4243TIP3   OH234363   0.412   4.831   1.785 -0.5741 -0.3996  0.4181
 4243TIP3    H134364   0.367   4.906   1.824 -1.9963 -0.0371 -1.7385
 4243TIP3    H234365   0.427   4.858   1.694 -0.2560 -2.3638 -0.1410
 4244TIP3   OH234366   4.280   0.525   6.730 -0.6755  0.7006 -0.2753
 4244TIP3    H134367   4.200   0.517   6.678  0.0607 -0.4695 -1.2729
 4244TIP3    H234368   4.351   0.528   6.665  0.2313 -0.2460  0.6351
 4245TIP3   OH234369   3.460   6.818   2.085  0.0189  0.0847  0.1442
 4245TIP3    H134370   3.421   6.905   2.093  0.7281  0.4566 -0.3302
 4245TIP3    H234371   3.439   6.774   2.167 -0.3581  0.6975  0.3798
 4246TIP3   OH234372   1.300   0.161   8.466  0.0246  0.1745 -0.1488
 4246TIP3    H134373   1.383   0.203   8.486  0.1059 -0.1300  0.1656
 4246TIP3    H234374   1.320   0.067   8.464 -0.1369  0.1480 -0.9113
 4247TIP3   OH234375   1.992   1.845   7.458 -0.3499  0.0271  0.2344
 4247TIP3    H134376   2.069   1.830   7.403 -1.1850 -0.8029 -0.7405
 4247TIP3    H234377   2.028   1.857   7.546  1.1938  3.3426 -0.6928
 4248TIP3   OH234378   5.603   3.986   0.765 -0.5057 -0.2884 -0.1420
 4248TIP3    H134379   5.686   4.009   0.724 -1.1607 -0.5205 -1.6435
 4248TIP3    H234380   5.624   3.911   0.820  0.5674  0.5663  0.6809
 4249TIP3   OH234381   5.837   6.497   7.268  0.6702 -0.4513  0.2781
 4249TIP3    H134382   5.780   6.461   7.200  1.3582  0.0544 -0.5892
 4249TIP3    H234383   5.821   6.441   7.344 -0.2950 -0.8818 -0.2146
 4250TIP3   OH234384   1.466   0.416   8.287  0.6344  0.5388  0.3220
 4250TIP3    H134385   1.490   0.508   8.298  2.2931  0.1792 -0.1343
 4250TIP3    H234386   1.476   0.378   8.374 -1.7194  1.0945  0.9287
 4251TIP3   OH234387   5.799   1.034   8.659 -0.9114  0.1833  0.3573
 4251TIP3    H134388   5.744   0.963   8.626 -1.3073 -0.3026  1.9603
 4251TIP3    H234389   5.759   1.059   8.743 -0.7438  2.2776 -0.1324
 4252TIP3   OH234390   2.924   3.350   0.787  1.5527 -0.3213  0.7715
 4252TIP3    H134391   2.870   3.356   0.866  2.5860 -0.8296  1.5462
 4252TIP3    H234392   2.949   3.441   0.768 -2.5135  0.4982 -1.8117
 4253TIP3   OH234393   0.964   6.699   0.517 -0.1850  0.6288  0.5014
 4253TIP3    H134394   1.028   6.756   0.476  0.4238 -0.9624 -0.8578
 4253TIP3    H234395   0.915   6.661   0.444 -0.5346 -0.6348  1.3605
 4254TIP3   OH234396   6.813   6.506   8.544 -0.6453  0.1993  0.2048
 4254TIP3    H134397   6.801   6.451   8.621  1.8561  0.1107  0.6150
 4254TIP3    H234398   6.725   6.538   8.524 -1.9997 -2.7031  0.8347
 4255TIP3   OH234399   4.065   1.892   0.336  0.5967 -0.3712 -0.7517
 4255TIP3    H134400   4.039   1.883   0.245  1.8316 -0.6505 -1.1010
 4255TIP3    H234401   4.127   1.965   0.336 -0.3573  0.4730  0.0951
 4256TIP3   OH234402   6.248   4.455   0.899 -0.4886 -0.1353  0.3139
 4256TIP3    H134403   6.272   4.494   0.983  2.5255 -1.1084  0.0311
 4256TIP3    H234404   6.300   4.504   0.834 -2.1693  0.0885 -0.9291
 4257TIP3   OH234405   2.703   5.635   0.172 -0.1650 -0.2448  0.8823
 4257TIP3    H134406   2.690   5.548   0.209 -1.2055 -0.5723 -0.1899
 4257TIP3    H234407   2.642   5.639   0.098  0.6129  1.0099  0.2725
 4258TIP3   OH234408   3.793   0.043   8.389 -1.2276 -0.4675 -0.1061
 4258TIP3    H134409   3.735  -0.014   8.439 -1.8905  1.0744  0.9365
 4258TIP3    H234410   3.830   0.104   8.453  1.2099 -1.0613 -0.8059
 4259TIP3   OH234411   2.195   4.368   7.946 -0.5327 -0.1732  0.1476
 4259TIP3    H134412   2.156   4.280   7.947  1.2347 -1.0202  1.5212
 4259TIP3    H234413   2.151   4.415   8.017 -2.6422  0.6927 -1.6064
 4260TIP3   OH234414   4.905   0.248   1.031  0.3908  0.0085 -0.5822
 4260TIP3    H134415   4.985   0.294   1.009  0.3102 -0.3123 -1.5533
 4260TIP3    H234416   4.839   0.317   1.039  0.7995  0.3008  0.4876
 4261TIP3   OH234417   0.854   1.257   6.932 -0.1391 -0.2601 -0.2127
 4261TIP3    H134418   0.892   1.307   6.860 -3.0078  2.0877 -0.2727
 4261TIP3    H234419   0.813   1.182   6.889  2.1703 -1.5431 -0.3756
 4262TIP3   OH234420   0.784   5.945   8.432 -0.0658 -0.0659 -0.2167
 4262TIP3    H134421   0.721   5.876   8.452 -1.4778  0.5162 -2.2255
 4262TIP3    H234422   0.856   5.900   8.387 -0.6617 -0.3510 -0.9088
 4263TIP3   OH234423   2.831   4.254   0.741 -0.1829  0.2005  0.1100
 4263TIP3    H134424   2.737   4.259   0.758 -0.5148  0.2518 -1.6034
 4263TIP3    H234425   2.838   4.236   0.647  1.5214  0.0479  0.2297
 4264TIP3   OH234426   4.660   3.800   2.008 -0.1173  0.2201 -0.7949
 4264TIP3    H134427   4.587   3.749   2.043  1.3888 -2.0625 -0.7756
 4264TIP3    H234428   4.645   3.803   1.913 -0.7437  0.6714 -0.6891
 4265TIP3   OH234429   2.022   3.348   8.579 -0.0292  0.8065 -0.1513
 4265TIP3    H134430   2.031   3.318   8.669  0.9588 -2.1186 -1.0975
 4265TIP3    H234431   1.948   3.298   8.545  0.6220  0.6470 -1.3890
 4266TIP3   OH234432   6.029   3.573   8.158 -0.2576 -0.5832  0.2787
 4266TIP3    H134433   6.114   3.601   8.193  0.0430 -0.7207 -0.3302
 4266TIP3    H234434   6.028   3.478   8.172 -1.4633 -0.2860  2.7516
 4267TIP3   OH234435   1.558   3.453   8.533  0.1299  0.2135 -0.2734
 4267TIP3    H134436   1.579   3.541   8.500 -0.0396  0.6702  0.8177
 4267TIP3    H234437   1.511   3.468   8.614 -0.6296 -0.8912 -0.4903
 4268TIP3   OH234438   1.259   2.112   1.350  0.1826  0.2655 -0.0483
 4268TIP3    H134439   1.263   2.193   1.401  0.0797  0.4511 -0.3293
 4268TIP3    H234440   1.230   2.045   1.412  2.2679  0.0061  0.7124
 4269TIP3   OH234441   6.540   4.235   1.566 -0.6851 -0.6059 -0.0954
 4269TIP3    H134442   6.493   4.278   1.495  0.9627  0.3987 -0.6266
 4269TIP3    H234443   6.624   4.210   1.528 -1.1899 -3.5247  0.4519
 4270TIP3   OH234444   3.148   6.064   8.108 -0.1347  0.0658  0.4066
 4270TIP3    H134445   3.228   6.015   8.087 -0.6380 -1.0496  1.0054
 4270TIP3    H234446   3.094   6.058   8.029  0.2334  0.5579  0.1108
 4271TIP3   OH234447   1.288   1.288   2.242  0.4036 -0.4637 -0.1790
 4271TIP3    H134448   1.245   1.231   2.306  0.0006  0.0425  0.0145
 4271TIP3    H234449   1.362   1.237   2.210 -0.3029 -1.3245 -0.4693
 4272TIP3   OH234450   0.187   5.755   7.886  0.3705 -0.4232  0.0836
 4272TIP3    H134451   0.134   5.736   7.808 -0.3850 -0.0567  0.4952
 4272TIP3    H234452   0.276   5.762   7.853  0.2313 -1.4260 -0.5745
 4273TIP3   OH234453   2.518   6.621   0.261  0.5183 -0.9564  0.1829
 4273TIP3    H134454   2.557   6.539   0.231 -0.0657 -1.6076  1.1654
 4273TIP3    H234455   2.472   6.654   0.184  0.0720 -1.9746 -0.0063
 4274TIP3   OH234456   2.229   4.947   7.828 -0.6200  0.3351 -0.5540
 4274TIP3    H134457   2.140   4.917   7.809 -0.9697  1.8137 -1.3667
 4274TIP3    H234458   2.217   5.019   7.890 -0.0161  0.7845 -0.9490
 4275TIP3   OH234459   6.651   0.755   0.438 -0.1686  0.7375  0.2195
 4275TIP3    H134460   6.614   0.672   0.466  2.7600 -1.7108 -2.3812
 4275TIP3    H234461   6.728   0.767   0.494 -0.8202  2.0479  0.8944
 4276TIP3   OH234462   1.922   5.150   0.957  0.1276  1.2255 -0.3491
 4276TIP3    H134463   1.993   5.209   0.984  0.4128  0.5685  0.3704
 4276TIP3    H234464   1.857   5.158   1.027  1.2414 -1.1294  1.0450
 4277TIP3   OH234465   6.767   0.274   7.407 -0.1595 -0.0703 -0.1075
 4277TIP3    H134466   6.718   0.297   7.328  0.1318  0.6717 -0.0804
 4277TIP3    H234467   6.699   0.269   7.475 -0.5087 -1.4092 -0.5182
 4278TIP3   OH234468   3.556   0.360   1.643 -0.0959  0.5431 -0.1468
 4278TIP3    H134469   3.461   0.365   1.631 -0.0983 -0.6759 -0.8708
 4278TIP3    H234470   3.570   0.363   1.737 -0.8878  0.2859 -0.0210
 4279TIP3   OH234471   1.305   3.814   0.728  0.2176 -0.5602  0.1469
 4279TIP3    H134472   1.313   3.785   0.819 -0.0651 -0.8428  0.0841
 4279TIP3    H234473   1.395   3.824   0.698  0.3171  0.1850  0.6596
 4280TIP3   OH234474   6.386   3.233   8.780 -0.0197  0.1763 -0.0687
 4280TIP3    H134475   6.476   3.239   8.812 -0.3683  0.9258  0.8034
 4280TIP3    H234476   6.378   3.305   8.717 -0.7201  1.7607  1.7202
 4281TIP3   OH234477   4.507   5.405   7.822  0.0373 -0.9445 -0.2807
 4281TIP3    H134478   4.498   5.486   7.771 -1.2042 -0.9224 -0.0489
 4281TIP3    H234479   4.485   5.335   7.760 -2.0493 -0.8842  0.3227
 4282TIP3   OH234480   0.139   6.205   8.094  0.3856 -0.1336 -0.0471
 4282TIP3    H134481   0.116   6.289   8.055  0.8104  0.6814  1.3766
 4282TIP3    H234482   0.127   6.142   8.024 -0.7609  0.9934 -0.9122
 4283TIP3   OH234483   0.249   0.582   6.416  0.1269  0.0150 -0.1419
 4283TIP3    H134484   0.197   0.502   6.424  0.5471 -0.2339  0.1267
 4283TIP3    H234485   0.261   0.612   6.506 -0.3931  0.6200 -0.2698
 4284TIP3   OH234486   5.839   0.296   8.409  0.0770 -0.4068 -0.2000
 4284TIP3    H134487   5.889   0.311   8.328  1.0959 -2.5588 -0.0440
 4284TIP3    H234488   5.903   0.305   8.479 -0.5169  0.1738  0.2776
 4285TIP3   OH234489   4.580   6.827   8.643  0.2952  0.0077  0.6888
 4285TIP3    H134490   4.622   6.879   8.575 -0.3046 -1.3911 -0.7988
 4285TIP3    H234491   4.645   6.821   8.712  0.8700  1.5591  0.3237
 4286TIP3   OH234492   5.611   1.404   1.405  1.1119  0.4338  0.2728
 4286TIP3    H134493   5.546   1.335   1.420  0.7440  1.1457  2.3347
 4286TIP3    H234494   5.679   1.387   1.470  1.9690  0.9211 -0.4733
 4287TIP3   OH234495   5.092   6.555   1.403 -0.5447 -0.0175 -0.3217
 4287TIP3    H134496   5.158   6.486   1.397 -1.9693 -1.4781  0.1956
 4287TIP3    H234497   5.139   6.630   1.440  1.2757 -0.3490 -1.8086
 4288TIP3   OH234498   0.901   2.113   2.424  0.5279 -0.2511  0.5979
 4288TIP3    H134499   0.929   2.025   2.397 -0.0219 -0.2561  0.0257
 4288TIP3    H234500   0.873   2.155   2.343  0.8459  0.4803  0.8592
 4289TIP3   OH234501   1.340   0.040   1.720  0.0503  0.0250  0.4445
 4289TIP3    H134502   1.268   0.099   1.699 -1.1852 -1.3334  0.6387
 4289TIP3    H234503   1.418   0.083   1.686 -1.1264  0.5873 -1.7063
 4290TIP3   OH234504   2.353   5.762   0.657 -0.1301  0.1544 -0.0210
 4290TIP3    H134505   2.287   5.832   0.657  0.3460  0.6059 -0.3115
 4290TIP3    H234506   2.429   5.800   0.700 -0.0834 -0.4035  0.4036
 4291TIP3   OH234507   5.755   5.072   1.184 -0.0816  0.2282  0.0681
 4291TIP3    H134508   5.800   5.156   1.181 -0.0036  0.2119  0.7942
 4291TIP3    H234509   5.804   5.016   1.124  1.0232  0.1356  1.0271
 4292TIP3   OH234510   5.090   2.986   8.794 -0.2870 -0.0972 -0.0559
 4292TIP3    H134511   5.074   3.054   8.860 -1.7408 -1.4390  1.0825
 4292TIP3    H234512   5.173   2.946   8.820  0.2681  0.8311 -0.3760
 4293TIP3   OH234513   2.688   2.477   0.214  0.3299  0.4206  0.3251
 4293TIP3    H134514   2.686   2.553   0.156  0.3425  1.4667  1.6627
 4293TIP3    H234515   2.609   2.428   0.190 -0.5506  1.6937  0.5303
 4294TIP3   OH234516   4.280   0.902   0.239  0.6918 -0.3817 -0.2530
 4294TIP3    H134517   4.213   0.836   0.223 -0.3098  0.5832 -0.1620
 4294TIP3    H234518   4.271   0.924   0.332 -0.4841  1.4216 -0.7375
 4295TIP3   OH234519   6.528   3.176   0.292 -0.0816  0.2725  0.0819
 4295TIP3    H134520   6.592   3.166   0.363  0.2358  0.3533 -0.1944
 4295TIP3    H234521   6.555   3.255   0.246 -1.1179  1.0451  0.7291
 4296TIP3   OH234522   5.762   1.606   1.139  0.1283  0.2097  0.2206
 4296TIP3    H134523   5.690   1.557   1.180  0.5615 -1.5408 -0.9700
 4296TIP3    H234524   5.723   1.688   1.112 -1.8906 -1.2707 -1.7390
 4297TIP3   OH234525   0.058   1.388   8.177  0.1797  0.0741  0.2495
 4297TIP3    H134526   0.104   1.423   8.100 -1.4152 -1.3121 -1.4570
 4297TIP3    H234527   0.013   1.464   8.215 -1.1807  0.4162 -1.8528
 4298TIP3   OH234528   4.399   3.036   8.039 -0.7979  0.1096  0.3247
 4298TIP3    H134529   4.382   3.108   7.979 -0.2205  0.3202  0.4149
 4298TIP3    H234530   4.394   2.958   7.983  0.2655  0.3385 -0.1154
 4299TIP3   OH234531   1.050   5.986   8.190  0.3282 -0.0650  0.1385
 4299TIP3    H134532   1.059   5.945   8.103 -3.2162 -1.6152  0.3257
 4299TIP3    H234533   1.128   5.958   8.238  1.1504 -1.2624 -1.7753
 4300TIP3   OH234534   6.100   1.004   2.029 -0.0522  0.5290 -0.3619
 4300TIP3    H134535   6.166   0.935   2.018  0.1574  0.2999  1.8264
 4300TIP3    H234536   6.149   1.085   2.023  0.0186  0.4465 -1.0303
 4301TIP3   OH234537   3.191   5.217   0.190 -0.2421  0.0530  0.4427
 4301TIP3    H134538   3.227   5.137   0.151  0.8371 -0.2798  2.0344
 4301TIP3    H234539   3.100   5.219   0.161 -0.4679 -2.0877  0.8881
 4302TIP3   OH234540   0.100   6.105   1.709 -0.4584 -0.1461 -0.2275
 4302TIP3    H134541   0.035   6.122   1.641  0.7863 -2.5237 -2.1372
 4302TIP3    H234542   0.105   6.010   1.715  0.7535 -0.0076  1.9840
 4303TIP3   OH234543   5.738   3.457   1.682  0.3202 -0.1094 -0.4148
 4303TIP3    H134544   5.678   3.438   1.610 -0.2237 -1.4385  0.3509
 4303TIP3    H234545   5.792   3.379   1.689  1.5537  0.7012 -0.4811
 4304TIP3   OH234546   0.586   6.273   7.743 -0.3491  0.2480 -0.1450
 4304TIP3    H134547   0.532   6.278   7.664  2.4542 -0.8724 -2.3237
 4304TIP3    H234548   0.644   6.350   7.736  1.2886 -0.9480 -0.3797
 4305TIP3   OH234549   2.404   6.418   7.560 -0.3194  0.3398  0.0043
 4305TIP3    H134550   2.309   6.421   7.562 -0.2845  1.2191  1.3758
 4305TIP3    H234551   2.432   6.503   7.592  0.8997 -0.9745  2.7379
 4306TIP3   OH234552   1.952   3.845   0.702  0.0703 -0.0153 -0.3417
 4306TIP3    H134553   1.892   3.784   0.659 -0.1980 -0.8429  1.1149
 4306TIP3    H234554   2.001   3.790   0.763 -2.0058  1.5187  2.9714
 4307TIP3   OH234555   4.188   1.690   7.311  0.9491  0.2234 -0.2929
 4307TIP3    H134556   4.249   1.755   7.277 -0.7413  2.8385  1.3075
 4307TIP3    H234557   4.123   1.680   7.242  0.4044  1.4470  0.0136
 4308TIP3   OH234558   6.831   0.079   1.703 -0.3926  0.0627  0.2923
 4308TIP3    H134559   6.783   0.138   1.761  0.0498  0.2252  0.4934
 4308TIP3    H234560   6.908   0.052   1.753  0.0171  0.2436 -0.2356
 4309TIP3   OH234561   5.741   3.479   0.068 -0.6526  0.4647 -0.1513
 4309TIP3    H134562   5.826   3.463   0.027  0.4128  0.5194  1.8974
 4309TIP3    H234563   5.677   3.449   0.003  0.8526  1.6346 -2.3006
 4310TIP3   OH234564   6.451   4.538   7.908  0.5820 -0.2266 -0.0500
 4310TIP3    H134565   6.476   4.503   7.822  0.9337  0.5277 -0.2584
 4310TIP3    H234566   6.457   4.633   7.898 -2.0823  0.0027 -0.0170
 4311TIP3   OH234567   0.672   6.814   1.048 -0.1465  0.3800 -0.2556
 4311TIP3    H134568   0.761   6.815   1.083 -0.3974 -1.2021  0.4729
 4311TIP3    H234569   0.623   6.874   1.104 -0.7578 -2.7193  2.8757
 4312TIP3   OH234570   0.795   1.453   8.173 -0.1709  0.3974  0.0137
 4312TIP3    H134571   0.819   1.441   8.265  0.2872 -0.7305 -0.2306
 4312TIP3    H234572   0.713   1.405   8.163  0.7288 -1.0782 -0.5646
 4313TIP3   OH234573   0.112   3.556   6.960 -0.5661  1.0075 -0.1058
 4313TIP3    H134574   0.040   3.549   7.023 -0.5457  0.3772 -0.1537
 4313TIP3    H234575   0.069   3.550   6.874 -0.2004 -2.7804 -0.1892
 4314TIP3   OH234576   6.200   0.760   0.475  0.0431  0.2119  0.4901
 4314TIP3    H134577   6.127   0.703   0.451 -0.1074  0.4490  0.3808
 4314TIP3    H234578   6.201   0.760   0.571  0.0521  0.0136  0.4888
 4315TIP3   OH234579   1.547   3.915   7.716 -0.4130  0.2022  0.3489
 4315TIP3    H134580   1.480   3.910   7.784 -0.0212 -0.2736  0.7045
 4315TIP3    H234581   1.629   3.897   7.761 -0.1563 -0.1944 -0.2639
 4316TIP3   OH234582   0.035   2.388   6.402 -0.4264 -0.1060  0.2114
 4316TIP3    H134583  -0.007   2.385   6.316  0.8809  0.4077 -0.4689
 4316TIP3    H234584   0.063   2.479   6.411 -1.2390  0.0433  1.5413
 4317TIP3   OH234585   4.716   1.383   8.160 -0.3746 -0.1465  0.4273
 4317TIP3    H134586   4.681   1.337   8.235 -1.8492  0.1890 -0.0258
 4317TIP3    H234587   4.713   1.476   8.184  2.9423 -0.1650  1.4933
 4318TIP3   OH234588   6.313   2.201   6.976 -0.1827  0.3072  0.6452
 4318TIP3    H134589   6.355   2.122   6.941  0.3791  0.7531  0.3021
 4318TIP3    H234590   6.316   2.264   6.904 -1.0425  0.5027  0.7641
 4319TIP3   OH234591   6.773   5.366   2.870 -0.6379  0.6390  0.0629
 4319TIP3    H134592   6.753   5.309   2.795  1.1586 -0.1802  0.1520
 4319TIP3    H234593   6.697   5.357   2.927 -1.3036 -0.0588 -0.8943
 4320TIP3   OH234594   6.518   1.406   8.272  0.1073  0.0952 -0.1087
 4320TIP3    H134595   6.512   1.333   8.211 -0.1330 -0.0089  0.0383
 4320TIP3    H234596   6.429   1.415   8.308  0.2754  0.0689  0.3232
 4321TIP3   OH234597   0.219   3.435   7.438  0.2027 -0.8766  0.0152
 4321TIP3    H134598   0.218   3.396   7.525  0.1887  0.5450  0.6691
 4321TIP3    H234599   0.251   3.524   7.451 -1.4411 -0.0549 -1.1682
 4322TIP3   OH234600   3.065   5.487   0.438  0.0282 -0.6355  0.3898
 4322TIP3    H134601   3.127   5.531   0.496 -1.4845  0.5781  1.1708
 4322TIP3    H234602   3.048   5.550   0.369  0.8337 -1.5821 -0.7150
 4323TIP3   OH234603   2.213   4.533   1.123 -0.2334 -0.3117  0.1424
 4323TIP3    H134604   2.245   4.607   1.174 -0.2537 -0.2152  0.0173
 4323TIP3    H234605   2.292   4.492   1.087 -0.2589  0.0807 -0.3782
 4324TIP3   OH234606   1.669   3.045   7.542  0.5775 -0.5629 -0.0069
 4324TIP3    H134607   1.664   2.954   7.516  0.7261 -0.5690 -0.0154
 4324TIP3    H234608   1.660   3.043   7.638 -2.3178 -0.3635 -0.1883
 4325TIP3   OH234609   5.867   1.043   6.867 -0.0847 -1.1098 -0.6200
 4325TIP3    H134610   5.924   0.972   6.839  0.8149 -0.8914  0.6033
 4325TIP3    H234611   5.920   1.094   6.928 -0.5514  0.8954 -1.8169
 4326TIP3   OH234612   0.798   1.532   2.000  0.1013  0.4046 -0.3578
 4326TIP3    H134613   0.710   1.519   2.036 -0.5881  1.4585 -1.5775
 4326TIP3    H234614   0.840   1.446   2.010 -0.6346  0.1865  1.3101
 4327TIP3   OH234615   2.116   1.747   0.489 -0.1100 -0.7327 -0.0905
 4327TIP3    H134616   2.021   1.762   0.491 -0.2686 -1.6564 -0.1569
 4327TIP3    H234617   2.151   1.823   0.442 -0.6618  0.3295  1.1400
 4328TIP3   OH234618   1.921   2.827   8.034  0.2029 -0.4601 -0.2455
 4328TIP3    H134619   1.974   2.878   7.972  1.4642 -1.4550 -0.0463
 4328TIP3    H234620   1.885   2.892   8.094  0.8075  0.3011 -0.6807
 4329TIP3   OH234621   1.155   5.217   1.698  0.5936 -0.0085 -0.1917
 4329TIP3    H134622   1.240   5.254   1.673  0.0952  0.5451 -1.1210
 4329TIP3    H234623   1.131   5.160   1.625 -0.7421  1.3992 -0.9073
 4330TIP3   OH234624   1.701   2.325   7.702 -0.1345 -0.9917  0.5312
 4330TIP3    H134625   1.693   2.333   7.607 -0.8964 -0.1885  0.6491
 4330TIP3    H234626   1.676   2.235   7.722 -2.6659 -0.4274  0.2163
 4331TIP3   OH234627   1.297   5.036   1.348 -0.7454 -0.3199 -0.3404
 4331TIP3    H134628   1.295   4.955   1.297 -0.6550 -1.4120  1.3245
 4331TIP3    H234629   1.222   5.030   1.407  1.3895 -1.1215  2.5369
 4332TIP3   OH234630   5.712   0.385   8.673  0.0249  0.3437 -0.1441
 4332TIP3    H134631   5.742   0.349   8.589  0.8457  0.8276 -0.0722
 4332TIP3    H234632   5.724   0.479   8.664 -0.5393  0.4584  0.2719
 4333TIP3   OH234633   0.097   6.167   8.743  0.0140  0.3392  0.0999
 4333TIP3    H134634   0.077   6.249   8.788 -0.6192  1.4722 -2.1089
 4333TIP3    H234635   0.012   6.136   8.713  0.3347 -0.8134  0.3370
 4334TIP3   OH234636   1.105   5.404   1.395  0.2291 -0.2133  0.8018
 4334TIP3    H134637   1.102   5.494   1.362  3.2457 -0.7125 -1.2350
 4334TIP3    H234638   1.146   5.411   1.481  2.9199  0.2724 -0.4162
 4335TIP3   OH234639   2.520   0.535   6.657 -0.4071  0.1781  0.1023
 4335TIP3    H134640   2.572   0.458   6.637 -0.9444 -0.3646  0.7361
 4335TIP3    H234641   2.555   0.604   6.600 -0.7538 -0.8478 -1.3831
 4336TIP3   OH234642   1.249   1.226   8.367 -0.4555 -0.0400 -0.3006
 4336TIP3    H134643   1.287   1.242   8.281 -0.3565  1.3930 -0.0204
 4336TIP3    H234644   1.158   1.253   8.359 -0.3548  0.4426  0.1386
 4337TIP3   OH234645   3.606   6.222   8.435  0.1811  0.1022 -0.1230
 4337TIP3    H134646   3.578   6.217   8.344 -0.3027 -1.6597  0.0766
 4337TIP3    H234647   3.539   6.173   8.483  0.5172  0.8607  1.1664
 4338TIP3   OH234648   1.595   2.819   0.462 -0.9397  0.4004 -0.0723
 4338TIP3    H134649   1.566   2.799   0.551 -0.5699 -0.1848 -0.0749
 4338TIP3    H234650   1.523   2.869   0.424 -1.6908 -0.5247  0.1043
 4339TIP3   OH234651   5.705   2.557   6.762  0.2501  0.0035 -0.1196
 4339TIP3    H134652   5.791   2.571   6.802  1.5137  0.3449 -2.7133
 4339TIP3    H234653   5.723   2.496   6.690 -1.3093  1.5002 -1.8526
 4340TIP3   OH234654   5.846   0.623   8.592  0.4810 -0.2915  0.5061
 4340TIP3    H134655   5.858   0.616   8.497  1.6415  1.2413  0.5114
 4340TIP3    H234656   5.775   0.686   8.603 -1.0016 -1.8918  0.6801
 4341TIP3   OH234657   5.921   5.962   7.332  0.3348 -0.2716  0.6953
 4341TIP3    H134658   5.995   5.908   7.304  0.3953  0.4990 -0.6978
 4341TIP3    H234659   5.852   5.943   7.268 -0.3841 -0.3149  1.4663
 4342TIP3   OH234660   3.232   5.965   2.073  0.3958  0.5449 -0.0082
 4342TIP3    H134661   3.233   6.049   2.027  1.2441  0.8521  0.5463
 4342TIP3    H234662   3.182   5.982   2.153  0.4470  0.4857  0.0367
 4343TIP3   OH234663   6.779   2.948   7.382  0.4430 -0.1118 -0.2095
 4343TIP3    H134664   6.708   2.947   7.318 -0.3986  0.4615  0.6808
 4343TIP3    H234665   6.816   3.036   7.375  1.2787 -0.5009 -0.8745
 4344TIP3   OH234666   5.141   5.196   0.200 -0.0681 -0.1507  0.1239
 4344TIP3    H134667   5.232   5.209   0.174  0.4195  0.2403  1.9068
 4344TIP3    H234668   5.141   5.112   0.246 -0.7648 -0.4814 -0.4463
 4345TIP3   OH234669   5.720   5.128   7.009  0.3232 -0.2346 -0.6368
 4345TIP3    H134670   5.645   5.110   6.952 -0.5756  0.1561  0.3877
 4345TIP3    H234671   5.735   5.222   6.999 -0.4007  0.0130  0.3973
 4346TIP3   OH234672   5.124   3.598   8.650 -0.2015  0.1045  0.1829
 4346TIP3    H134673   5.057   3.563   8.709  1.6491 -1.6686  1.3725
 4346TIP3    H234674   5.184   3.524   8.636  0.5227  1.0659 -2.3387
 4347TIP3   OH234675   0.380   5.536   8.491 -0.2368  0.6025  0.3779
 4347TIP3    H134676   0.470   5.543   8.459 -0.6878 -0.7069 -1.3315
 4347TIP3    H234677   0.353   5.626   8.505  1.0945  1.0587  0.1814
 4348TIP3   OH234678   3.419   6.689   8.477 -0.3032 -0.3624 -0.2306
 4348TIP3    H134679   3.392   6.598   8.471 -0.8342 -0.1846 -0.6585
 4348TIP3    H234680   3.514   6.686   8.477 -0.2770 -1.0258  1.7288
 4349TIP3   OH234681   1.440   6.430   7.972 -0.1292  0.1792 -0.1525
 4349TIP3    H134682   1.465   6.407   8.061 -0.6508  0.7696  0.1548
 4349TIP3    H234683   1.373   6.366   7.948  1.3301 -1.1489 -0.8269
 4350TIP3   OH234684   6.090   6.265   8.281  0.6318 -0.0092  0.0769
 4350TIP3    H134685   6.066   6.325   8.211  2.3828  1.0465  0.2960
 4350TIP3    H234686   6.115   6.323   8.354 -2.1850 -1.0393  2.0523
 4351TIP3   OH234687   2.098   0.541   8.471  0.4042  0.4895  0.1978
 4351TIP3    H134688   2.106   0.480   8.397  1.3175 -0.6146  1.1583
 4351TIP3    H234689   2.179   0.591   8.469  2.3887 -2.2840  2.7161
 4352TIP3   OH234690   4.138   0.806   0.465  0.3992 -0.0006 -0.1051
 4352TIP3    H134691   4.203   0.739   0.447 -1.3547 -2.0701  0.8177
 4352TIP3    H234692   4.111   0.791   0.556 -0.8762  1.2074 -0.2286
 4353TIP3   OH234693   1.605   1.826   8.323 -0.2175  0.0430  0.0459
 4353TIP3    H134694   1.591   1.847   8.415 -0.2995 -1.0078  0.2920
 4353TIP3    H234695   1.542   1.757   8.304  1.3142 -1.3763 -0.1494
 4354TIP3   OH234696   3.065   3.550   7.450  0.1945  0.2230  0.2170
 4354TIP3    H134697   3.093   3.606   7.523 -1.0972  0.9921  0.1508
 4354TIP3    H234698   2.990   3.595   7.413  0.8817 -0.1134 -1.6794
 4355TIP3   OH234699   4.819   4.064   7.572 -0.2724 -1.0867  0.1528
 4355TIP3    H134700   4.824   4.145   7.623 -2.0882 -0.9837  0.2498
 4355TIP3    H234701   4.910   4.042   7.552  0.3486  0.0691  1.5390
 4356TIP3   OH234702   1.516   1.324   1.974  0.3152 -0.3372  0.3227
 4356TIP3    H134703   1.423   1.304   1.958 -0.2200  2.5801 -0.7487
 4356TIP3    H234704   1.525   1.320   2.069 -1.6535  1.9830  0.6899
 4357TIP3   OH234705   3.174   6.757   0.341 -0.2247  0.2699 -0.5557
 4357TIP3    H134706   3.244   6.744   0.278 -1.4105 -1.1686 -1.6622
 4357TIP3    H234707   3.195   6.698   0.413  0.0425  0.3586 -0.5596
 4358TIP3   OH234708   2.685   3.174   2.149 -0.5417  0.0694 -0.2850
 4358TIP3    H134709   2.697   3.082   2.170  1.8754  0.5145  0.6576
 4358TIP3    H234710   2.721   3.183   2.060 -0.9320  0.0805 -0.4433
 4359TIP3   OH234711   5.703   1.447   0.869 -0.3822 -1.0243 -0.2399
 4359TIP3    H134712   5.626   1.401   0.836 -1.2805 -0.9896  1.6854
 4359TIP3    H234713   5.694   1.444   0.964  1.6350 -0.3801  0.0193
 4360TIP3   OH234714   2.596   5.400   7.980 -0.2187  0.1771 -0.0615
 4360TIP3    H134715   2.687   5.429   7.966  0.0514 -0.0979  1.0569
 4360TIP3    H234716   2.578   5.344   7.905 -0.0542  1.5803 -1.1996
 4361TIP3   OH234717   2.671   3.633   8.359 -0.2054 -0.5579  0.6085
 4361TIP3    H134718   2.657   3.644   8.453  1.1173 -0.7600  0.8473
 4361TIP3    H234719   2.641   3.716   8.321 -0.5399 -0.3896  1.2253
 4362TIP3   OH234720   1.509   5.464   7.932  0.4598  0.1864  0.5470
 4362TIP3    H134721   1.470   5.438   7.849  0.0971  1.4411  0.3020
 4362TIP3    H234722   1.602   5.443   7.923  0.3927  0.1517 -0.1019
 4363TIP3   OH234723   0.786   4.136   8.343 -0.1418  0.3976 -0.6744
 4363TIP3    H134724   0.736   4.214   8.368 -0.5345 -0.0176 -0.1402
 4363TIP3    H234725   0.724   4.063   8.356  1.4150 -0.5049  2.8339
 4364TIP3   OH234726   2.398   3.054   2.292  0.3905  0.0819 -0.0055
 4364TIP3    H134727   2.480   3.063   2.340  0.1834 -0.7455  0.5422
 4364TIP3    H234728   2.345   3.129   2.320  0.8834  0.5065 -0.2070
 4365TIP3   OH234729   6.676   3.875   0.092  0.0437  0.0140 -0.2327
 4365TIP3    H134730   6.640   3.907   0.175 -1.1086 -2.7011  0.4127
 4365TIP3    H234731   6.746   3.937   0.071 -1.9791  2.8971  0.8541
 4366TIP3   OH234732   4.025   1.273   8.658  0.0522  0.9238 -0.0563
 4366TIP3    H134733   4.038   1.322   8.577 -0.2602  2.1506  0.6125
 4366TIP3    H234734   3.931   1.276   8.674 -0.3165 -1.8692 -1.1674
 4367TIP3   OH234735   5.969   1.784   0.928  0.2135 -0.6152 -0.3648
 4367TIP3    H134736   5.936   1.798   0.839  2.3470 -1.7512 -1.3936
 4367TIP3    H234737   5.971   1.872   0.966 -1.7600 -0.2354 -1.0081
 4368TIP3   OH234738   0.522   0.805   1.925  0.2158  0.6188  0.4275
 4368TIP3    H134739   0.488   0.719   1.901  0.2904  1.0645 -1.4256
 4368TIP3    H234740   0.476   0.866   1.867  0.9141  1.7075  0.9898
 4369TIP3   OH234741   2.855   2.037   8.261  0.7346 -0.3035 -0.4356
 4369TIP3    H134742   2.875   2.111   8.318 -0.7413  0.7333 -1.1980
 4369TIP3    H234743   2.901   2.056   8.180 -0.0136  0.0342 -0.7902
 4370TIP3   OH234744   3.322   2.578   1.167  0.6535 -0.4221  0.3714
 4370TIP3    H134745   3.244   2.548   1.120  1.5921  0.6473 -2.0245
 4370TIP3    H234746   3.310   2.672   1.176  1.7886 -0.2103 -0.2722
 4371TIP3   OH234747   5.226   5.050   8.643 -0.3957 -0.0101 -0.3522
 4371TIP3    H134748   5.281   4.976   8.672  0.6172  1.2305  1.1024
 4371TIP3    H234749   5.137   5.025   8.668 -0.3443 -1.5043 -1.5501
 4372TIP3   OH234750   2.481   4.726   8.275 -0.0796  0.0607  0.0086
 4372TIP3    H134751   2.476   4.632   8.260 -0.1680  0.0593  0.0476
 4372TIP3    H234752   2.565   4.752   8.235 -0.7133  0.2056 -1.2771
 4373TIP3   OH234753   3.304   1.136   2.029 -0.1882  0.7132  0.4034
 4373TIP3    H134754   3.373   1.120   2.093 -0.7088 -0.2336  0.7392
 4373TIP3    H234755   3.333   1.091   1.950 -0.4919  0.1873  0.5910
 4374TIP3   OH234756   5.327   3.283   1.376  0.1567  0.0409  0.3861
 4374TIP3    H134757   5.240   3.307   1.407  0.8093  0.3842  2.0363
 4374TIP3    H234758   5.330   3.187   1.383  0.7611  0.1803  2.8336
 4375TIP3   OH234759   4.258   2.771   7.045  0.0944 -0.1042  0.0848
 4375TIP3    H134760   4.211   2.774   6.962  0.9473 -0.2036 -0.4161
 4375TIP3    H234761   4.201   2.816   7.108 -0.6595 -0.2412 -0.5002
 4376TIP3   OH234762   5.555   4.701   7.019 -0.1227  0.3492 -0.7172
 4376TIP3    H134763   5.625   4.756   7.054 -0.8621  0.2683  0.9820
 4376TIP3    H234764   5.476   4.731   7.064 -1.3078  0.7202 -2.8956
 4377TIP3   OH234765   1.405   6.261   1.382  0.3001  0.0642  0.3932
 4377TIP3    H134766   1.318   6.234   1.411  0.4076 -1.9159 -0.9704
 4377TIP3    H234767   1.461   6.248   1.458 -0.2853 -0.2890  0.7749
 4378TIP3   OH234768   3.681   2.174   8.031  0.0778  0.8654 -0.1264
 4378TIP3    H134769   3.772   2.146   8.026 -0.3660 -0.5081 -0.9131
 4378TIP3    H234770   3.659   2.167   8.124  0.3727 -0.1330 -0.1284
 4379TIP3   OH234771   2.428   6.399   0.589  0.5868 -0.3032  0.6946
 4379TIP3    H134772   2.436   6.487   0.552  1.2772 -0.5279  0.2990
 4379TIP3    H234773   2.400   6.414   0.680 -0.3300  0.2792  0.3305
 4380TIP3   OH234774   0.918   0.538   1.015 -0.0286 -0.3126 -0.5754
 4380TIP3    H134775   0.993   0.590   1.044 -1.5590  0.9406  1.3865
 4380TIP3    H234776   0.856   0.602   0.981 -1.2899 -1.0024  0.3570
 4381TIP3   OH234777   2.575   5.688   1.986 -0.0942  0.4252  0.4622
 4381TIP3    H134778   2.491   5.650   2.012  0.2981  0.0809  1.2632
 4381TIP3    H234779   2.588   5.760   2.048  0.4147  0.1885  0.6305
 4382TIP3   OH234780   1.276   2.568   8.751 -0.3366  0.0664  0.4650
 4382TIP3    H134781   1.301   2.481   8.721  0.1517  0.8745 -1.6601
 4382TIP3    H234782   1.357   2.606   8.785  0.1418  0.6545 -1.2191
 4383TIP3   OH234783   0.276   3.815   8.245  0.1959 -0.6045  0.1304
 4383TIP3    H134784   0.196   3.803   8.193  0.7379  0.5653 -1.0577
 4383TIP3    H234785   0.342   3.764   8.199  0.7097  0.5433 -0.4626
 4384TIP3   OH234786   0.744   3.090   8.636  0.2801  0.6186 -0.2077
 4384TIP3    H134787   0.787   3.149   8.574 -0.6564 -0.0405 -1.5174
 4384TIP3    H234788   0.751   3.003   8.596 -4.1111  0.7027 -1.6733
 4385TIP3   OH234789   2.717   6.423   0.148  0.8347  0.0125 -0.0176
 4385TIP3    H134790   2.783   6.491   0.161  1.3682 -0.2574 -1.2613
 4385TIP3    H234791   2.698   6.391   0.237  1.4503  0.9411  0.4670
 4386TIP3   OH234792   1.415   3.241   2.608 -0.3234 -0.2054  0.0692
 4386TIP3    H134793   1.484   3.176   2.620 -0.3984 -0.4846 -0.9234
 4386TIP3    H234794   1.379   3.222   2.522 -1.3613  0.2046  0.3924
 4387TIP3   OH234795   5.709   1.887   1.130 -0.2238 -0.1887 -1.0513
 4387TIP3    H134796   5.803   1.895   1.116 -0.0438  2.5442  0.9554
 4387TIP3    H234797   5.670   1.909   1.045  0.9077 -0.8947 -1.7794
 4388TIP3   OH234798   0.388   2.703   8.107  0.0385 -0.1063 -0.0006
 4388TIP3    H134799   0.352   2.784   8.145 -0.6912 -0.0553 -0.7592
 4388TIP3    H234800   0.339   2.633   8.150  0.7404 -0.1544  0.7290
 4389TIP3   OH234801   3.327   0.571   1.731 -0.0974 -0.0662 -0.1449
 4389TIP3    H134802   3.286   0.535   1.653  0.2317  1.4959 -1.0770
 4389TIP3    H234803   3.394   0.506   1.755 -0.1856 -0.5545 -1.1758
 4390TIP3   OH234804   4.822   3.344   1.368 -0.0136  0.5620 -0.5669
 4390TIP3    H134805   4.748   3.314   1.316 -0.0162  0.9021 -0.7646
 4390TIP3    H234806   4.783   3.396   1.438  0.0386  0.8090 -0.7177
 4391TIP3   OH234807   2.982   5.698   0.245 -0.3171  0.5635 -0.0704
 4391TIP3    H134808   2.895   5.690   0.206  0.4385 -0.5641 -1.6437
 4391TIP3    H234809   3.042   5.689   0.171  1.2011 -0.9290  1.2586
 4392TIP3   OH234810   2.020   4.725   8.705  0.9864 -0.1384  0.0164
 4392TIP3    H134811   2.064   4.672   8.639 -1.2948  0.0084 -1.7370
 4392TIP3    H234812   1.947   4.671   8.735  0.5686  0.7462  0.6264
 4393TIP3   OH234813   5.388   4.113   0.887 -0.0948 -0.2680  0.6040
 4393TIP3    H134814   5.470   4.068   0.864 -0.6039 -1.1688  0.5242
 4393TIP3    H234815   5.416   4.203   0.908  1.0847 -0.8772  1.8090
 4394TIP3   OH234816   2.535   4.985   1.388  1.0175 -0.4830  0.1315
 4394TIP3    H134817   2.511   4.988   1.296  0.8351 -0.9226  0.1583
 4394TIP3    H234818   2.567   4.895   1.402  0.6490 -0.5521  0.5837
 4395TIP3   OH234819   6.031   6.745   1.070  0.0181  0.3187 -0.2641
 4395TIP3    H134820   6.099   6.758   1.004 -1.0199  0.1847 -1.3948
 4395TIP3    H234821   5.960   6.803   1.044  0.5257  2.2158  2.1904
 4396TIP3   OH234822   2.114   5.728   7.755 -0.5510 -0.3355  0.2055
 4396TIP3    H134823   2.207   5.720   7.774 -0.3420  1.7796  0.3630
 4396TIP3    H234824   2.077   5.774   7.830 -1.5040 -0.1868 -0.3297
 4397TIP3   OH234825   0.865   2.394   7.668  0.3226  0.6879  0.5808
 4397TIP3    H134826   0.908   2.372   7.585  1.2152  1.1372  0.9144
 4397TIP3    H234827   0.936   2.404   7.731 -0.3566  0.1809  1.4591
 4398TIP3   OH234828   0.299   1.363   0.327  0.2081 -0.0526 -0.0211
 4398TIP3    H134829   0.277   1.306   0.254 -0.5723 -1.7624  1.4574
 4398TIP3    H234830   0.358   1.311   0.382  1.2141  1.3787  0.3349
 4399TIP3   OH234831   3.157   0.209   8.108 -0.3090  0.5433  0.1236
 4399TIP3    H134832   3.202   0.289   8.136 -0.3082  0.4351  0.4305
 4399TIP3    H234833   3.220   0.139   8.125  1.0231  0.7655 -3.1489
 4400TIP3   OH234834   0.799   3.986   1.999 -0.0352  0.2465  0.4922
 4400TIP3    H134835   0.707   3.962   2.014  0.0169  0.5110  1.3125
 4400TIP3    H234836   0.848   3.906   2.017 -0.1143  0.0672 -0.0853
 4401TIP3   OH234837   5.309   5.208   0.635  0.7798  0.6722  0.0347
 4401TIP3    H134838   5.335   5.117   0.647 -0.8086  0.3629  1.4465
 4401TIP3    H234839   5.346   5.253   0.711 -2.3022  0.2677  1.9594
 4402TIP3   OH234840   0.637   5.397   2.545 -0.3352 -0.1716  0.6083
 4402TIP3    H134841   0.590   5.373   2.625  1.6140 -2.0370  1.2721
 4402TIP3    H234842   0.581   5.364   2.474 -1.8773  1.1317  1.1486
 4403TIP3   OH234843   3.087   1.869   1.501  0.2757 -0.1073 -0.2093
 4403TIP3    H134844   3.079   1.964   1.495  1.0926 -0.1073 -1.9332
 4403TIP3    H234845   3.181   1.854   1.515 -0.1083 -0.6378  2.3828
 4404TIP3   OH234846   1.467   1.102   8.780  0.0722  0.3731 -0.6694
 4404TIP3    H134847   1.395   1.155   8.814  0.0797  1.1934 -1.8847
 4404TIP3    H234848   1.449   1.094   8.687 -0.6418 -2.8902 -0.3949
 4405TIP3   OH234849   2.233   0.957   7.865  0.1190  0.4092 -0.2835
 4405TIP3    H134850   2.283   0.901   7.924 -1.8360 -1.3483 -0.2085
 4405TIP3    H234851   2.294   0.978   7.794  1.0546 -1.4104 -0.0595
 4406TIP3   OH234852   6.695   6.550   0.939  0.5118 -0.4446  0.3502
 4406TIP3    H134853   6.711   6.612   0.867  0.3093  0.5610  1.1507
 4406TIP3    H234854   6.781   6.532   0.976  0.5747 -0.6714  0.0963
 4407TIP3   OH234855   5.090   3.612   1.310  0.3560  0.2567  0.3436
 4407TIP3    H134856   5.076   3.604   1.405  2.3209  0.8937  0.7377
 4407TIP3    H234857   5.185   3.601   1.300  0.0977 -0.4747 -1.6427
 4408TIP3   OH234858   3.915   2.618   7.344 -0.2716  0.7346  0.1639
 4408TIP3    H134859   3.881   2.581   7.426  1.6785 -0.2724  0.5719
 4408TIP3    H234860   3.908   2.546   7.281  2.1278  0.0593  0.5726
 4409TIP3   OH234861   5.872   5.498   2.001 -0.5876 -0.0882  0.7727
 4409TIP3    H134862   5.846   5.430   2.064 -1.1486  1.2089  1.9787
 4409TIP3    H234863   5.820   5.574   2.025  0.6428  1.0402 -0.0247
 4410TIP3   OH234864   5.287   3.803   8.761 -0.6632  0.4315  0.4697
 4410TIP3    H134865   5.219   3.737   8.747 -0.8446  0.6832  0.1602
 4410TIP3    H234866   5.357   3.779   8.700 -0.0918 -0.3431  1.4031
 4411TIP3   OH234867   6.392   2.284   7.660  0.3160  0.6390 -0.2532
 4411TIP3    H134868   6.437   2.308   7.741  0.1016  1.1956 -0.2924
 4411TIP3    H234869   6.317   2.232   7.689  1.2070 -0.6684 -0.2165
 4412TIP3   OH234870   0.115   2.121   6.452 -0.2752 -0.1103 -0.3209
 4412TIP3    H134871   0.085   2.211   6.458  0.5625  0.1507  4.4096
 4412TIP3    H234872   0.209   2.127   6.434  0.2262  0.2439  2.0531
 4413TIP3   OH234873   0.265   5.019   1.966  0.3970 -0.2936  0.0353
 4413TIP3    H134874   0.318   5.098   1.976  0.7320 -0.4298 -0.6197
 4413TIP3    H234875   0.312   4.952   2.016 -0.2397  0.0654  1.1589
 4414TIP3   OH234876   5.794   2.263   8.377  0.5189 -0.5701  0.2421
 4414TIP3    H134877   5.888   2.247   8.378  1.0416  2.1359  1.9630
 4414TIP3    H234878   5.785   2.358   8.374 -2.2278 -0.7581 -2.3167
 4415TIP3   OH234879   4.311   1.446   8.008 -0.1837 -0.5794 -0.0038
 4415TIP3    H134880   4.330   1.533   7.972 -0.4799 -0.3621  0.3688
 4415TIP3    H234881   4.340   1.451   8.099  0.5574 -1.1314 -0.1993
 4416TIP3   OH234882   5.485   4.751   0.467 -0.1791 -0.2781  1.0884
 4416TIP3    H134883   5.433   4.824   0.502 -0.9774 -0.7189  0.8549
 4416TIP3    H234884   5.565   4.792   0.435 -0.3200  0.4035  1.5776
 4417TIP3   OH234885   4.980   4.471   7.858  0.8323  0.9043 -0.3427
 4417TIP3    H134886   4.974   4.456   7.953  0.9754 -0.2830 -0.5173
 4417TIP3    H234887   4.941   4.558   7.846 -2.4946 -0.3513  0.3560
 4418TIP3   OH234888   6.473   3.475   1.702  0.1255 -0.2161  0.4633
 4418TIP3    H134889   6.567   3.488   1.708 -0.0536  0.8969  1.0491
 4418TIP3    H234890   6.452   3.418   1.775  0.2607  0.0162  0.6836
 4419TIP3   OH234891   3.011   1.528   8.479  0.8172 -0.7377  0.6017
 4419TIP3    H134892   2.965   1.530   8.395 -0.8922 -1.1164  1.4798
 4419TIP3    H234893   3.077   1.597   8.472  0.5670 -0.6163 -0.9629
 4420TIP3   OH234894   1.331   2.666   2.238  0.0463  0.1602  0.4688
 4420TIP3    H134895   1.277   2.612   2.181  0.5043  0.1136  0.0691
 4420TIP3    H234896   1.386   2.717   2.179 -0.0517  0.7245  0.8538
 4421TIP3   OH234897   0.439   5.032   1.604  0.3395 -0.0561  1.0900
 4421TIP3    H134898   0.401   5.042   1.517 -1.5216  0.7346  1.9299
 4421TIP3    H234899   0.437   5.120   1.641 -2.4338 -0.8895  3.2541
 4422TIP3   OH234900   4.935   5.183   0.839 -0.2469  0.1250  0.2877
 4422TIP3    H134901   4.911   5.127   0.914  3.5536 -0.0188  1.6207
 4422TIP3    H234902   4.978   5.259   0.879  1.5964  0.2065 -1.6891
 4423TIP3   OH234903   3.291   5.420   0.690 -0.3835 -0.7822 -0.3185
 4423TIP3    H134904   3.252   5.507   0.679  1.7004  0.5827  2.0265
 4423TIP3    H234905   3.279   5.378   0.605  1.8630  3.2567 -3.0010
 4424TIP3   OH234906   5.905   2.920   1.586  0.1457  0.7651  0.5555
 4424TIP3    H134907   5.988   2.961   1.612  1.1092 -0.2181 -0.8301
 4424TIP3    H234908   5.924   2.880   1.501 -1.7183  0.3691  0.2937
 4425TIP3   OH234909   2.675   3.997   0.609  0.6086 -0.4043  0.0939
 4425TIP3    H134910   2.692   4.020   0.518 -1.4352 -3.4227 -1.2247
 4425TIP3    H234911   2.630   4.073   0.645  0.9889  0.6600 -1.5730
 4426TIP3   OH234912   2.460   3.533   7.095 -0.3866 -0.3722  0.2493
 4426TIP3    H134913   2.465   3.447   7.054 -3.2461  0.8853 -3.3371
 4426TIP3    H234914   2.366   3.547   7.109  0.1144  1.6082  2.1528
 4427TIP3   OH234915   1.201   2.763   2.534  0.2706 -0.2911  0.0912
 4427TIP3    H134916   1.243   2.704   2.595 -0.7994 -1.8506 -0.6048
 4427TIP3    H234917   1.110   2.733   2.529  0.0572  0.4541 -1.4231
 4428TIP3   OH234918   5.794   0.053   8.033 -0.0728  0.6886  0.0964
 4428TIP3    H134919   5.753   0.103   7.963  0.9751  1.6108  0.1006
 4428TIP3    H234920   5.886   0.048   8.007 -0.0766 -0.9296  0.2971
 4429TIP3   OH234921   1.617   6.817   8.234  0.2356  0.1094 -0.0933
 4429TIP3    H134922   1.691   6.784   8.184  0.0658  0.4071 -0.5448
 4429TIP3    H234923   1.653   6.890   8.285  0.7196 -1.0163  1.2569
 4430TIP3   OH234924   1.584   3.369   0.958  0.4101  0.3370  0.1659
 4430TIP3    H134925   1.523   3.425   0.910 -0.2213 -1.2523 -1.0127
 4430TIP3    H234926   1.527   3.309   1.007  0.8740 -1.8218 -1.7166
 4431TIP3   OH234927   1.194   4.701   0.178 -0.8447 -0.2172 -0.0022
 4431TIP3    H134928   1.258   4.695   0.249 -0.6150 -2.2699 -0.3165
 4431TIP3    H234929   1.246   4.720   0.101 -1.0813  1.8921  0.3064
 4432TIP3   OH234930   0.206   2.396   1.064  0.6376  0.1901  0.7918
 4432TIP3    H134931   0.131   2.414   1.007  0.7658 -0.6239  0.3434
 4432TIP3    H234932   0.215   2.300   1.062  1.2719  0.2300  1.3802
 4433TIP3   OH234933   2.410   4.736   8.774 -0.7254 -0.0734  0.0605
 4433TIP3    H134934   2.346   4.693   8.718 -1.3395 -1.1977  1.5640
 4433TIP3    H234935   2.495   4.705   8.744 -1.0003 -0.1161 -0.6779
 4434TIP3   OH234936   6.375   5.762   8.151 -0.3310 -0.6198  0.7864
 4434TIP3    H134937   6.385   5.788   8.243 -0.2570 -2.0761  1.2112
 4434TIP3    H234938   6.464   5.768   8.115 -0.3617 -0.0333  0.7946
 4435TIP3   OH234939   0.865   3.455   8.705  0.5821 -0.1168 -0.0557
 4435TIP3    H134940   0.922   3.409   8.767  1.2376  3.8004  2.5821
 4435TIP3    H234941   0.784   3.469   8.752  0.3150  1.1564 -0.8434
 4436TIP3   OH234942   5.903   0.072   0.653  0.3842  0.5145 -0.6779
 4436TIP3    H134943   5.959   0.101   0.725  0.3459  0.2766 -0.5511
 4436TIP3    H234944   5.941  -0.011   0.625 -0.7979 -0.4520  0.4461
 4437TIP3   OH234945   0.597   4.917   0.617  0.2554  0.0845 -0.0459
 4437TIP3    H134946   0.643   4.873   0.546 -1.4373 -0.7978 -0.6536
 4437TIP3    H234947   0.525   4.963   0.574 -0.5581 -0.1370  1.0454
 4438TIP3   OH234948   5.116   0.280   7.677  0.4242  0.3497  0.0022
 4438TIP3    H134949   5.183   0.344   7.702 -0.7672  1.5124  0.3342
 4438TIP3    H234950   5.131   0.205   7.735  0.4717  1.2143  1.1312
 4439TIP3   OH234951   0.927   2.952   1.536 -0.2197 -0.2507  0.3257
 4439TIP3    H134952   0.930   3.014   1.462  0.1968  0.7306  1.1461
 4439TIP3    H234953   0.902   2.869   1.496 -0.9355  0.4717 -0.7909
 4440TIP3   OH234954   5.888   0.237   0.368 -0.3422 -0.1588 -0.0773
 4440TIP3    H134955   5.805   0.194   0.387 -1.1144  1.0057 -0.6793
 4440TIP3    H234956   5.874   0.279   0.282  0.9537 -0.1796 -0.3165
 4441TIP3   OH234957   0.337   2.124   1.094  0.8971  0.0373  0.1371
 4441TIP3    H134958   0.315   2.106   1.003  0.8959  1.1624 -0.0976
 4441TIP3    H234959   0.422   2.081   1.107 -0.5686 -2.9451  0.5938
 4442TIP3   OH234960   4.904   1.668   1.826 -0.6169  0.7539  0.2352
 4442TIP3    H134961   4.865   1.701   1.745 -0.4464  2.3468  0.7644
 4442TIP3    H234962   4.961   1.739   1.856  1.0811 -0.6802  0.5904
 4443TIP3   OH234963   5.516   2.604   7.157 -0.1560  0.2459 -0.5068
 4443TIP3    H134964   5.600   2.625   7.117 -0.0951  2.1058  0.4905
 4443TIP3    H234965   5.531   2.611   7.251 -0.9862 -1.2972 -0.2142
 4444TIP3   OH234966   0.995   5.152   8.595 -0.1940 -0.1078 -0.2668
 4444TIP3    H134967   1.054   5.206   8.648  1.3515 -1.4979 -0.4776
 4444TIP3    H234968   0.950   5.215   8.539 -0.5305  1.2158  1.4076
 4445TIP3   OH234969   4.818   4.701   0.997 -0.3672  0.1021 -0.2814
 4445TIP3    H134970   4.813   4.693   0.901  0.2021  1.2220 -0.4249
 4445TIP3    H234971   4.824   4.611   1.028  0.8606 -0.2285 -1.3874
 4446TIP3   OH234972   0.199   0.652   7.039  0.4356 -0.1901  0.3385
 4446TIP3    H134973   0.278   0.624   6.994  0.1543  0.9762 -0.9616
 4446TIP3    H234974   0.128   0.635   6.977 -0.1577  0.0980  0.9170
 4447TIP3   OH234975   6.336   0.646   0.746  0.2046 -0.6598 -0.2688
 4447TIP3    H134976   6.422   0.610   0.771 -0.0086 -0.6663  0.4889
 4447TIP3    H234977   6.309   0.697   0.822 -1.0347 -1.6890  0.0153
 4448TIP3   OH234978   1.660   0.829   6.451  0.3615 -0.6923  0.6972
 4448TIP3    H134979   1.742   0.795   6.416 -0.3912  0.4958 -2.6047
 4448TIP3    H234980   1.685   0.903   6.506  1.5619 -1.5358  1.3257
 4449TIP3   OH234981   5.412   2.078   7.589 -0.3138  0.0567 -0.1486
 4449TIP3    H134982   5.468   2.019   7.539 -0.8300 -0.1658 -0.4676
 4449TIP3    H234983   5.338   2.024   7.616 -1.8638  1.0276 -2.2106
 4450TIP3   OH234984   3.196   5.038   7.737  0.2049 -0.2194  0.5821
 4450TIP3    H134985   3.221   4.987   7.815 -0.0472 -1.4985 -0.1354
 4450TIP3    H234986   3.272   5.031   7.679  0.6535  1.2867  0.9605
 4451TIP3   OH234987   2.401   5.915   0.127 -0.3287  0.3169  0.0128
 4451TIP3    H134988   2.462   5.873   0.187 -0.2156 -0.1956 -0.4545
 4451TIP3    H234989   2.315   5.908   0.169 -0.1444  0.6014  0.4404
 4452TIP3   OH234990   0.184   0.068   7.788  0.1601  0.2283  0.2873
 4452TIP3    H134991   0.117   0.132   7.812  0.0857 -0.0024  0.7042
 4452TIP3    H234992   0.236   0.057   7.867 -0.4985 -1.0515  0.5842
 4453TIP3   OH234993   2.389   0.114   2.280 -0.1447  0.4007  0.5372
 4453TIP3    H134994   2.329   0.104   2.354 -0.0947 -0.0695  0.5174
 4453TIP3    H234995   2.471   0.142   2.318  0.1399 -0.6901  0.7676
 4454TIP3   OH234996   0.685   2.638   8.160  0.3079 -0.0006 -0.3414
 4454TIP3    H134997   0.706   2.566   8.101 -1.6103 -1.2288  0.3775
 4454TIP3    H234998   0.602   2.672   8.127  0.1095  0.4640  0.5997
 4455TIP3   OH234999   5.440   6.355   7.047  0.1821  0.0935  0.0402
 4455TIP3    H135000   5.457   6.288   6.981 -0.0831  0.9783 -0.9551
 4455TIP3    H235001   5.475   6.318   7.128 -0.3126 -1.4027 -0.3945
 4456TIP3   OH235002   3.343   3.303   1.261  0.1384  0.6202 -0.0850
 4456TIP3    H135003   3.250   3.318   1.277  0.1647 -1.1781  2.2372
 4456TIP3    H235004   3.345   3.228   1.201  0.0662 -0.3551  1.1083
 4457TIP3   OH235005   4.437   6.457   0.735  0.3290 -0.7123 -0.3679
 4457TIP3    H135006   4.452   6.374   0.689  0.8216 -0.2743 -1.0327
 4457TIP3    H235007   4.504   6.515   0.699  0.5121 -0.2529  0.6823
 4458TIP3   OH235008   2.747   5.788   8.053  0.1332  0.6789  0.7174
 4458TIP3    H135009   2.774   5.841   8.128 -0.1321 -0.2421  1.4793
 4458TIP3    H235010   2.732   5.852   7.983  2.8747  1.3567  0.6329
 4459TIP3   OH235011   2.773   5.621   1.793 -0.5325 -0.1997 -0.3363
 4459TIP3    H135012   2.768   5.525   1.787 -0.5127 -0.1796 -0.7492
 4459TIP3    H235013   2.701   5.645   1.851 -0.9788 -0.4192 -0.7833
 4460TIP3   OH235014   3.487   2.344   8.772  0.0561 -0.5369  0.1923
 4460TIP3    H135015   3.462   2.261   8.812 -0.0771 -1.5015 -1.7610
 4460TIP3    H235016   3.415   2.403   8.792  0.6652 -0.5155  2.5607
 4461TIP3   OH235017   3.800   6.760   0.923  0.4760 -0.6132 -0.2941
 4461TIP3    H135018   3.763   6.772   1.010 -0.9468 -0.8955 -0.8381
 4461TIP3    H235019   3.784   6.668   0.902  0.4687 -0.4603 -0.9945
 4462TIP3   OH235020   1.022   2.356   2.653 -0.5719  0.0283  0.8213
 4462TIP3    H135021   0.971   2.360   2.734 -1.4555  0.2693  0.2784
 4462TIP3    H235022   0.969   2.404   2.590 -0.9617 -1.9245 -0.4310
 4463TIP3   OH235023   1.787   4.442   1.062 -0.5069 -0.2814 -0.2596
 4463TIP3    H135024   1.759   4.534   1.061  1.5520  0.4398  1.3427
 4463TIP3    H235025   1.863   4.440   1.004  0.0154 -0.7485  0.4302
 4464TIP3   OH235026   1.115   0.396   0.766 -0.0144  0.2367 -0.4263
 4464TIP3    H135027   1.157   0.466   0.814 -2.2579  3.9057 -3.2551
 4464TIP3    H235028   1.022   0.404   0.789 -0.2090 -3.2880  0.6568
 4465TIP3   OH235029   0.115   1.136   1.024  0.2199  0.3774  0.0862
 4465TIP3    H135030   0.120   1.134   1.119  0.4982  1.1391  0.0919
 4465TIP3    H235031   0.140   1.225   1.000  1.4591 -0.1793 -0.7739
 4466TIP3   OH235032   4.582   3.040   6.901 -0.3521  0.0602  0.1035
 4466TIP3    H135033   4.538   3.123   6.915  1.9998  1.1743  1.4591
 4466TIP3    H235034   4.522   2.990   6.845 -1.5427  2.9014 -1.3725
 4467TIP3   OH235035   4.556   0.657   2.111 -0.2201  0.4516  0.1632
 4467TIP3    H135036   4.553   0.662   2.206  0.0910  1.4907  0.1315
 4467TIP3    H235037   4.465   0.641   2.085 -0.2980  0.1212  0.6323
 4468TIP3   OH235038   3.009   4.167   8.168  0.4822 -0.3428 -0.1035
 4468TIP3    H135039   3.017   4.263   8.168  1.0027 -0.3268  2.5096
 4468TIP3    H235040   3.099   4.136   8.168  0.3279 -0.7942  0.4314
 4469TIP3   OH235041   4.031   4.012   8.410 -0.3886 -0.0343  0.1793
 4469TIP3    H135042   3.946   3.986   8.448 -0.4116 -0.9542 -0.4677
 4469TIP3    H235043   4.079   4.049   8.484 -0.4839 -1.6640  1.1066
 4470TIP3   OH235044   4.644   0.397   6.673  0.0012 -0.3813 -0.9743
 4470TIP3    H135045   4.709   0.334   6.703 -1.6867 -1.5968  0.2782
 4470TIP3    H235046   4.594   0.351   6.606  1.4054  1.1102 -3.2016
 4471TIP3   OH235047   4.395   0.713   1.798 -0.0683 -0.4410 -0.4775
 4471TIP3    H135048   4.339   0.702   1.875  0.0051  1.5823 -0.0864
 4471TIP3    H235049   4.368   0.797   1.760  1.2690 -0.4358 -1.4986
 4472TIP3   OH235050   3.912   6.032   8.420 -0.6293 -0.3681  0.6617
 4472TIP3    H135051   3.828   6.076   8.408 -0.4875 -0.3373 -0.2721
 4472TIP3    H235052   3.975   6.084   8.370 -0.4229 -1.4775 -0.2745
 4473TIP3   OH235053   1.211   3.571   1.436  0.4941 -0.1370  0.5877
 4473TIP3    H135054   1.116   3.557   1.436  0.1011  2.0833  0.1852
 4473TIP3    H235055   1.241   3.537   1.352 -0.1184  0.0948  0.2742
 4474TIP3   OH235056   2.244   4.984   2.511  0.1379  0.2530  0.8980
 4474TIP3    H135057   2.155   5.015   2.524 -0.0282 -0.6215  1.9442
 4474TIP3    H235058   2.299   5.061   2.526 -0.4593  1.1771 -1.1985
 4475TIP3   OH235059   6.007   2.350   1.369 -0.6981  0.2968 -0.4010
 4475TIP3    H135060   5.947   2.393   1.308  2.4924  1.3740 -3.1055
 4475TIP3    H235061   6.026   2.266   1.327  0.8610  0.6715 -0.4947
 4476TIP3   OH235062   0.350   1.826   0.210 -0.2745 -0.6675  0.2069
 4476TIP3    H135063   0.422   1.855   0.154 -0.1189 -0.6875  0.3946
 4476TIP3    H235064   0.281   1.798   0.150  0.5437 -2.3659  0.0071
 4477TIP3   OH235065   0.496   1.639   7.308  0.0132  0.3533  0.1115
 4477TIP3    H135066   0.486   1.734   7.316  0.1649  0.2166  3.0874
 4477TIP3    H235067   0.450   1.604   7.385 -0.8173 -2.0629 -1.3774
 4478TIP3   OH235068   6.640   4.967   8.540 -0.4420 -0.6383 -0.8007
 4478TIP3    H135069   6.689   5.000   8.615 -1.1515 -2.1195  0.3809
 4478TIP3    H235070   6.591   5.042   8.508 -0.2505  0.0018  0.3433
 4479TIP3   OH235071   1.908   0.188   6.737  0.3333  0.5451  0.2179
 4479TIP3    H135072   1.895   0.145   6.821  0.6437 -0.1903 -0.1003
 4479TIP3    H235073   1.976   0.254   6.753  1.6274 -0.7295  0.1810
 4480TIP3   OH235074   3.335   5.040   8.185 -0.4299  0.0283 -0.5560
 4480TIP3    H135075   3.357   5.109   8.248 -2.3659  0.5932 -0.4464
 4480TIP3    H235076   3.300   4.968   8.238 -1.3064  0.1849 -0.9052
 4481TIP3   OH235077   6.567   3.162   8.509 -0.5696  0.9117  0.5708
 4481TIP3    H135078   6.585   3.253   8.532 -1.0872  1.6296 -1.5758
 4481TIP3    H235079   6.548   3.119   8.592  0.3925  2.5835  1.7141
 4482TIP3   OH235080   1.359   4.980   0.679  0.2740  0.2695  0.3095
 4482TIP3    H135081   1.404   5.063   0.698 -1.8752  1.3931  0.7398
 4482TIP3    H235082   1.399   4.950   0.597  1.4127  1.4882  0.3786
 4483TIP3   OH235083   6.267   1.485   0.391 -0.3144  0.3372  0.6491
 4483TIP3    H135084   6.346   1.442   0.358 -0.5543  0.4585 -0.1134
 4483TIP3    H235085   6.227   1.420   0.448 -2.1240 -1.6493 -2.5866
 4484TIP3   OH235086   1.311   2.667   0.340  0.3636  0.0287  0.5768
 4484TIP3    H135087   1.228   2.647   0.296  0.6869 -0.1864  0.0574
 4484TIP3    H235088   1.327   2.759   0.320  0.5471 -0.0892  0.1812
 4485TIP3   OH235089   5.930   6.155   0.319 -0.7678 -0.3220 -0.2725
 4485TIP3    H135090   5.939   6.138   0.413 -1.1743 -0.0250 -0.1749
 4485TIP3    H235091   6.012   6.199   0.295  0.0204 -1.8040 -0.4021
 4486TIP3   OH235092   0.926   3.660   6.650  0.1863  0.4444  0.2128
 4486TIP3    H135093   1.013   3.692   6.675  0.5893  0.3978 -1.0519
 4486TIP3    H235094   0.882   3.644   6.733  1.2596  0.8129  0.8803
 4487TIP3   OH235095   0.052   6.560   7.156 -0.1136  0.5533  0.2558
 4487TIP3    H135096   0.001   6.572   7.236 -0.6946 -0.1857  0.0025
 4487TIP3    H235097   0.023   6.630   7.097 -0.3900  0.5057  0.3358
 4488TIP3   OH235098   4.183   1.076   8.161 -0.2283  0.6525 -0.1363
 4488TIP3    H135099   4.212   1.142   8.098  0.4421 -0.3169 -0.8884
 4488TIP3    H235100   4.262   1.051   8.208 -0.9025  2.1515  1.9290
 4489TIP3   OH235101   4.946   3.768   0.036 -0.4191 -0.3386  0.8922
 4489TIP3    H135102   4.923   3.676   0.052 -1.6372 -0.4309 -1.1175
 4489TIP3    H235103   4.971   3.771  -0.056  0.8644  1.1409  1.2536
 4490TIP3   OH235104   2.954   4.691   7.855  0.0801  0.0635  0.5010
 4490TIP3    H135105   2.924   4.767   7.805 -1.4540  1.2638  3.0575
 4490TIP3    H235106   3.010   4.728   7.923  1.3453 -1.4119  0.3120
 4491TIP3   OH235107   3.229   1.742   2.554 -0.2048 -0.4764  0.0845
 4491TIP3    H135108   3.301   1.700   2.601  0.1012  2.0048  2.0106
 4491TIP3    H235109   3.252   1.835   2.552 -1.8205 -0.0449 -2.1595
 4492TIP3   OH235110   4.541   5.524   1.827  0.2594  0.2088  0.2107
 4492TIP3    H135111   4.618   5.559   1.783  1.1317 -0.1217  1.4090
 4492TIP3    H235112   4.551   5.429   1.822 -0.0759  0.1643  0.3629
 4493TIP3   OH235113   1.113   0.679   7.254  0.2742  0.3868 -0.0251
 4493TIP3    H135114   1.161   0.602   7.285  0.3731 -0.2888 -1.7170
 4493TIP3    H235115   1.170   0.716   7.187 -1.1843  0.0028 -1.5500
 4494TIP3   OH235116   5.403   3.477   1.138 -0.0722  0.0414  0.2403
 4494TIP3    H135117   5.353   3.416   1.192  0.4257 -0.8083 -0.2377
 4494TIP3    H235118   5.405   3.558   1.189  2.4262 -1.4119  2.6939
 4495TIP3   OH235119   6.369   0.041   0.233 -0.1623  0.2963  0.6680
 4495TIP3    H135120   6.359   0.127   0.272 -0.4120  0.4623  0.2408
 4495TIP3    H235121   6.462   0.021   0.242 -0.3480 -0.0502  2.1345
 4496TIP3   OH235122   4.438   1.044   7.076  0.2613 -0.1326 -0.5669
 4496TIP3    H135123   4.352   1.002   7.082  1.1034 -2.0440 -1.1533
 4496TIP3    H235124   4.419   1.131   7.040 -1.4637 -0.3285 -0.2477
 4497TIP3   OH235125   5.149   1.849   1.702  0.3161  0.4444 -0.1181
 4497TIP3    H135126   5.173   1.931   1.659  0.2056  0.2794 -0.5035
 4497TIP3    H235127   5.105   1.875   1.783  0.2657  0.7636 -0.2485
 4498TIP3   OH235128   3.705   5.030   7.522  0.1567  0.2666 -0.7644
 4498TIP3    H135129   3.706   5.110   7.470  1.1316 -1.3954 -3.5096
 4498TIP3    H235130   3.792   4.992   7.509 -0.6434 -1.7960 -0.4947
 4499TIP3   OH235131   2.690   6.641   1.777 -0.3080  0.4453  0.3862
 4499TIP3    H135132   2.612   6.661   1.829 -0.0146  0.2110  0.9245
 4499TIP3    H235133   2.661   6.649   1.686 -1.1337 -0.2679  0.5738
 4500TIP3   OH235134   6.257   5.758   1.354  0.2576  0.0123 -0.0876
 4500TIP3    H135135   6.246   5.807   1.435 -1.3239 -0.6269  0.1311
 4500TIP3    H235136   6.215   5.811   1.287 -0.8185 -0.6687  0.0204
 4501TIP3   OH235137   4.784   3.965   7.034  0.1780  0.3719  0.6357
 4501TIP3    H135138   4.803   3.871   7.028 -0.0278  0.2160  2.0220
 4501TIP3    H235139   4.700   3.976   6.991  0.5480  0.0559 -0.1926
 4502TIP3   OH235140   5.084   6.231   0.776  0.4253  0.0567  0.2859
 4502TIP3    H135141   5.126   6.149   0.802  1.2292 -0.4218 -2.2376
 4502TIP3    H235142   5.151   6.298   0.788  0.6947 -0.1136 -0.2484
 4503TIP3   OH235143   1.545   5.843   2.302 -0.2113  0.3995  0.5410
 4503TIP3    H135144   1.557   5.835   2.207  0.2452 -2.0896  0.7586
 4503TIP3    H235145   1.630   5.820   2.339 -0.4395  1.1695  1.5871
 4504TIP3   OH235146   2.446   0.743   7.289 -0.4105 -0.0725 -0.7331
 4504TIP3    H135147   2.417   0.813   7.230 -0.2458  0.4617 -0.1834
 4504TIP3    H235148   2.381   0.673   7.276  0.7053 -0.7832 -3.0309
 4505TIP3   OH235149   2.427   5.011   8.017  0.2151 -0.0548 -0.4098
 4505TIP3    H135150   2.364   5.048   8.078  0.0094 -1.3841  0.2114
 4505TIP3    H235151   2.373   4.965   7.952  0.5039 -1.9249  0.5941
 4506TIP3   OH235152   3.372   0.627   0.262 -0.1812  0.1201 -0.9472
 4506TIP3    H135153   3.425   0.707   0.262 -0.0950  0.0732 -0.2257
 4506TIP3    H235154   3.436   0.556   0.270 -0.2747 -0.0124 -1.3404
 4507TIP3   OH235155   3.279   0.924   0.571 -0.7057 -0.3591  0.1669
 4507TIP3    H135156   3.185   0.907   0.563 -0.6163 -1.5284  1.2233
 4507TIP3    H235157   3.293   0.937   0.664 -0.0847  1.7256 -0.1722
 4508TIP3   OH235158   5.818   1.801   7.470 -0.5314 -0.3274  0.0698
 4508TIP3    H135159   5.908   1.772   7.487 -0.0512  1.0524  0.0033
 4508TIP3    H235160   5.828   1.883   7.422 -1.8262  0.2710  0.7675
 4509TIP3   OH235161   1.677   2.332   7.439 -0.5157 -0.0622  0.3630
 4509TIP3    H135162   1.587   2.354   7.416  0.3819  1.2452 -2.4364
 4509TIP3    H235163   1.698   2.257   7.383  0.0427 -0.5707  1.2377
 4510TIP3   OH235164   1.008   2.675   6.231  0.3007  0.2671 -0.1830
 4510TIP3    H135165   0.913   2.682   6.224  0.1305 -1.1087  0.6045
 4510TIP3    H235166   1.026   2.684   6.324  1.1158  2.1716 -0.4805
 4511TIP3   OH235167   0.627   2.293   8.097 -0.5552  0.0409  0.2579
 4511TIP3    H135168   0.715   2.305   8.063 -0.7806 -1.3573 -0.9115
 4511TIP3    H235169   0.570   2.304   8.020 -1.2910 -0.4476  0.7165
 4512TIP3   OH235170   6.120   0.321   1.305 -0.0939  0.5151 -0.4051
 4512TIP3    H135171   6.203   0.275   1.287  0.1139  0.5217  0.4824
 4512TIP3    H235172   6.064   0.254   1.345  0.1928  0.9904  0.8516
 4513TIP3   OH235173   1.458   4.811   0.056  0.6669 -0.4670 -0.8847
 4513TIP3    H135174   1.529   4.875   0.059  0.4939 -0.2750 -0.8072
 4513TIP3    H235175   1.478   4.756  -0.019  0.1839  0.4269 -1.6888
 4514TIP3   OH235176   3.654   5.614   0.232  0.1564 -0.2748 -0.0596
 4514TIP3    H135177   3.619   5.663   0.307  0.4760 -1.3881  0.8383
 4514TIP3    H235178   3.720   5.672   0.195  0.5436 -0.0170  0.9932
 4515TIP3   OH235179   3.182   2.605   0.192 -0.2286 -0.3467  0.1926
 4515TIP3    H135180   3.186   2.700   0.181 -0.3949 -0.4200 -0.5439
 4515TIP3    H235181   3.189   2.592   0.287  2.0368  0.2892  0.1871
 4516TIP3   OH235182   5.956   1.110   8.328 -0.3149 -0.3906  0.2796
 4516TIP3    H135183   6.008   1.139   8.404 -0.7478  2.5574 -0.4009
 4516TIP3    H235184   5.866   1.110   8.360 -0.5212  1.0630 -0.2084
 4517TIP3   OH235185   4.736   6.072   1.723 -0.0617  0.1120 -0.4293
 4517TIP3    H135186   4.761   6.053   1.633 -1.6430 -2.2332 -0.4559
 4517TIP3    H235187   4.726   6.167   1.726  3.2577  0.6590 -1.7752
 4518TIP3   OH235188   6.286   2.359   1.478 -0.0901  0.1777 -0.1890
 4518TIP3    H135189   6.330   2.276   1.496  1.3739  0.7640 -0.8293
 4518TIP3    H235190   6.198   2.334   1.451 -0.3201 -1.0303  1.5335
 4519TIP3   OH235191   2.096   3.556   8.171  0.4832  0.2518  0.5510
 4519TIP3    H135192   2.163   3.543   8.104  0.0472  1.8853 -0.2415
 4519TIP3    H235193   2.055   3.471   8.181  0.6455 -0.0492 -1.1684
 4520TIP3   OH235194   6.642   2.043   2.713 -0.0952  0.5190  0.1408
 4520TIP3    H135195   6.598   1.960   2.692 -1.1409  1.7543 -3.2432
 4520TIP3    H235196   6.570   2.101   2.739  0.1804  1.2346 -0.6868
 4521TIP3   OH235197   6.026   0.544   8.767 -0.0491 -0.1477  0.3552
 4521TIP3    H135198   6.016   0.626   8.816 -1.5468  1.2457 -2.0868
 4521TIP3    H235199   5.983   0.561   8.683  0.4603 -3.1421 -0.6167
 4522TIP3   OH235200   0.055   0.846   7.659  0.0775  1.3449 -0.3858
 4522TIP3    H135201  -0.018   0.800   7.699  0.2724  0.9152 -0.5181
 4522TIP3    H235202   0.016   0.893   7.585  0.1023  0.2866 -1.0842
 4523TIP3   OH235203   3.808   4.609   1.824  0.3263 -0.2900 -0.3521
 4523TIP3    H135204   3.796   4.704   1.833 -1.8304 -0.5944  0.7204
 4523TIP3    H235205   3.829   4.579   1.912  2.7732 -0.6781 -0.9850
 4524TIP3   OH235206   4.024   5.519   0.626  0.0499  0.0390 -0.1384
 4524TIP3    H135207   4.062   5.450   0.680 -0.3974  0.6610  1.0283
 4524TIP3    H235208   3.946   5.480   0.587  1.1580 -0.8616 -1.5461
 4525TIP3   OH235209   6.809   1.138   1.808 -0.1863  0.2096 -0.0625
 4525TIP3    H135210   6.861   1.087   1.746  0.0160 -0.8458  0.9478
 4525TIP3    H235211   6.718   1.116   1.788 -0.1638  0.4851 -0.4895
 4526TIP3   OH235212   1.487   6.104   1.748  0.3380  0.3574 -0.2995
 4526TIP3    H135213   1.398   6.133   1.728  0.0383 -0.0939  0.3171
 4526TIP3    H235214   1.543   6.179   1.728 -0.2683  0.9098  0.0425
 4527TIP3   OH235215   1.621   6.576   7.077 -0.1691 -0.3731 -0.6251
 4527TIP3    H135216   1.571   6.655   7.096  1.0442  0.1233  0.6565
 4527TIP3    H235217   1.571   6.505   7.118  1.2697  0.4017  2.8272
 4528TIP3   OH235218   1.677   3.916   0.270  0.0054  0.6136 -0.3866
 4528TIP3    H135219   1.672   3.949   0.180 -0.8334  0.4602 -0.4048
 4528TIP3    H235220   1.712   3.828   0.261 -0.7367  0.3385 -0.6339
 4529TIP3   OH235221   4.480   0.923   7.842 -0.5875 -0.1986  0.0847
 4529TIP3    H135222   4.522   0.930   7.757 -1.2932 -0.5450 -0.2999
 4529TIP3    H235223   4.454   1.012   7.864 -0.4507 -0.1174 -0.0788
 4530TIP3   OH235224   6.702   2.252   2.384  0.3274  0.1579  0.4162
 4530TIP3    H135225   6.761   2.324   2.362 -0.8189  1.3227  0.9718
 4530TIP3    H235226   6.758   2.184   2.422  1.5287  0.4536 -0.7722
 4531TIP3   OH235227   3.502   2.694   7.692 -0.4243  0.2466  0.1391
 4531TIP3    H135228   3.544   2.772   7.654 -1.9736 -0.4671 -3.4091
 4531TIP3    H235229   3.413   2.723   7.713  0.0162  0.2608  2.1714
 4532TIP3   OH235230   6.194   1.570   1.346  0.3215 -0.1101 -0.7052
 4532TIP3    H135231   6.255   1.607   1.282 -0.5403  0.8689 -0.9960
 4532TIP3    H235232   6.110   1.610   1.324 -0.7990 -2.5645 -1.3201
 4533TIP3   OH235233   3.744   3.176   8.296  0.0783  0.1685  0.4544
 4533TIP3    H135234   3.669   3.187   8.238 -0.7137  0.5671  1.5439
 4533TIP3    H235235   3.766   3.264   8.326  0.9906  0.0614  0.1558
 4534TIP3   OH235236   1.520   1.680   7.111  0.4931 -0.1878 -0.2088
 4534TIP3    H135237   1.569   1.754   7.074  2.2187 -1.6597 -0.9791
 4534TIP3    H235238   1.541   1.683   7.205 -0.6677  1.1347  0.0599
 4535TIP3   OH235239   0.294   0.062   1.086  0.1717  0.1793 -0.0799
 4535TIP3    H135240   0.372   0.100   1.045  0.2700 -0.1019 -0.1562
 4535TIP3    H235241   0.228   0.131   1.080  0.4591  0.4737  0.1262
 4536TIP3   OH235242   1.395   6.771   0.587 -0.1564  0.2277 -0.7922
 4536TIP3    H135243   1.417   6.828   0.661  0.2811 -0.2551 -0.5537
 4536TIP3    H235244   1.344   6.828   0.528 -0.0193  0.7700 -0.3934
 4537TIP3   OH235245   3.064   0.808   1.221 -0.5796 -0.3017  0.4117
 4537TIP3    H135246   3.021   0.890   1.196 -2.0292 -1.5592 -1.6554
 4537TIP3    H235247   2.997   0.741   1.203  1.5086 -2.1810 -0.8559
 4538TIP3   OH235248   3.468   0.754   1.426  0.5930  0.0163  0.6308
 4538TIP3    H135249   3.549   0.752   1.478 -0.5282 -1.7856  2.4048
 4538TIP3    H235250   3.482   0.689   1.357  1.1113  0.6347  0.1301
 4539TIP3   OH235251   1.335   1.842   0.128  0.5244 -0.4629 -0.1890
 4539TIP3    H135252   1.258   1.788   0.109  0.5320 -0.5118 -0.0808
 4539TIP3    H235253   1.370   1.806   0.209  0.8275 -0.6272 -0.3913
 4540TIP3   OH235254   5.830   6.137   0.801  0.0084  0.4320 -0.5006
 4540TIP3    H135255   5.814   6.210   0.860  0.2267 -0.2064  0.3606
 4540TIP3    H235256   5.780   6.064   0.839  1.2508 -0.3568 -0.3211
 4541TIP3   OH235257   3.630   3.090   2.170 -0.0458 -0.3523 -0.2456
 4541TIP3    H135258   3.653   3.149   2.241  0.5522 -2.3287  1.3226
 4541TIP3    H235259   3.535   3.082   2.174 -0.3458  1.8390 -1.6739
 4542TIP3   OH235260   0.655   5.898   8.731  0.6000 -0.8536  0.6519
 4542TIP3    H135261   0.622   5.965   8.792 -4.0698 -1.7343 -0.5170
 4542TIP3    H235262   0.657   5.942   8.646 -1.1549 -1.7277  0.1133
 4543TIP3   OH235263   6.569   6.277   6.736  0.3123 -0.4944  0.3821
 4543TIP3    H135264   6.560   6.222   6.813  2.0449  0.8785  1.6646
 4543TIP3    H235265   6.663   6.278   6.718  0.2392  1.3572 -0.0997
 4544TIP3   OH235266   0.512   5.726   0.521 -0.4856 -0.0637  0.5215
 4544TIP3    H135267   0.596   5.697   0.485  0.5127  2.2863  0.7225
 4544TIP3    H235268   0.457   5.740   0.444  0.6937  2.2050 -0.0058
 4545TIP3   OH235269   3.713   1.845   0.928  0.0933  0.5634 -0.0156
 4545TIP3    H135270   3.717   1.917   0.865  0.8050 -0.0777 -0.7263
 4545TIP3    H235271   3.805   1.823   0.945 -0.0952  0.4914  0.9840
 4546TIP3   OH235272   3.740   6.000   7.169 -0.5820  0.2612  0.1599
 4546TIP3    H135273   3.733   5.945   7.091 -2.1994  0.7758 -0.0878
 4546TIP3    H235274   3.797   5.950   7.228  1.0384  0.0590 -1.4699
 4547TIP3   OH235275   6.188   2.184   7.476  0.1232  0.0436 -0.3035
 4547TIP3    H135276   6.138   2.236   7.539 -1.5123 -1.1258 -0.5786
 4547TIP3    H235277   6.185   2.235   7.395  0.1384  0.3982 -0.0816
 4548TIP3   OH235278   0.367   5.158   8.405  0.0323 -0.0391 -0.1460
 4548TIP3    H135279   0.328   5.136   8.490 -0.0051  0.7422  0.0518
 4548TIP3    H235280   0.306   5.121   8.341  0.0719 -0.6566  0.1630
 4549TIP3   OH235281   0.397   4.428   8.273 -0.1123  0.2617 -0.7355
 4549TIP3    H135282   0.330   4.420   8.204  0.2487  2.0280 -1.3549
 4549TIP3    H235283   0.383   4.515   8.310  1.5047  0.4673 -0.5270
 4550TIP3   OH235284   6.761   5.347   8.436  0.5456 -0.2304 -0.0101
 4550TIP3    H135285   6.825   5.302   8.491  0.0757 -1.1967 -0.2366
 4550TIP3    H235286   6.780   5.440   8.449  2.7150 -0.4876 -0.9154
 4551TIP3   OH235287   4.328   1.632   6.398  0.4190  0.9631 -0.2634
 4551TIP3    H135288   4.244   1.610   6.358 -0.0402  0.1833  1.0760
 4551TIP3    H235289   4.384   1.557   6.378  0.5702  1.1391 -0.5044
 4552TIP3   OH235290   1.391   1.789   7.944  0.0954  0.1952 -0.5518
 4552TIP3    H135291   1.314   1.769   7.891  0.2715 -0.1588 -0.6820
 4552TIP3    H235292   1.376   1.744   8.027  0.1935  0.0700 -0.6024
 4553TIP3   OH235293   4.889   0.379   7.572 -0.2130  0.4870  0.4487
 4553TIP3    H135294   4.927   0.366   7.485 -0.2650  0.2223  0.4645
 4553TIP3    H235295   4.960   0.355   7.632 -0.6608 -0.8071  0.4811
 4554TIP3   OH235296   2.421   3.128   1.170 -0.3502 -0.6168  0.5773
 4554TIP3    H135297   2.381   3.088   1.247 -0.6063 -3.9924 -1.1196
 4554TIP3    H235298   2.495   3.072   1.148 -0.8283 -0.3605 -2.1108
 4555TIP3   OH235299   3.967   3.606   1.275 -0.5345  1.0962 -0.1817
 4555TIP3    H135300   3.912   3.530   1.253  0.6551  0.5940 -1.5637
 4555TIP3    H235301   3.972   3.656   1.193  3.1937 -0.2595 -0.9582
 4556TIP3   OH235302   3.277   5.111   1.056  0.2979  0.1548  0.3282
 4556TIP3    H135303   3.183   5.132   1.058  0.0189 -0.9773  0.0905
 4556TIP3    H235304   3.302   5.121   0.964  0.6274  1.2722  0.5225
 4557TIP3   OH235305   0.987   6.115   1.973  0.5632  0.3297 -0.2357
 4557TIP3    H135306   0.955   6.199   2.007 -0.3721 -0.7421  1.7175
 4557TIP3    H235307   0.942   6.049   2.027 -0.3280 -1.5233 -3.0192
 4558TIP3   OH235308   2.123   5.107   8.554  0.4132 -0.1289  0.6259
 4558TIP3    H135309   2.203   5.141   8.512  1.1016 -0.6924  1.4587
 4558TIP3    H235310   2.102   5.172   8.621 -0.3743  0.4898 -0.1952
 4559TIP3   OH235311   0.188   2.670   0.590  0.1759 -0.1528 -0.5181
 4559TIP3    H135312   0.243   2.729   0.540 -1.7136  0.4837 -1.9780
 4559TIP3    H235313   0.115   2.725   0.620 -0.1394 -1.1301  0.5814
 4560TIP3   OH235314   1.635   6.547   6.707 -0.0360  0.2707  0.4500
 4560TIP3    H135315   1.570   6.595   6.656 -1.7265 -0.3770  1.9113
 4560TIP3    H235316   1.633   6.458   6.672  0.4261  0.3604  0.1848
 4561TIP3   OH235317   0.700   5.957   1.830  0.2499  0.2888  0.2592
 4561TIP3    H135318   0.788   5.922   1.837 -0.1380 -0.6427  0.5845
 4561TIP3    H235319   0.654   5.924   1.907 -0.2720  1.0925  0.3024
 4562TIP3   OH235320   5.665   4.095   2.019  0.1093  0.9200 -0.4207
 4562TIP3    H135321   5.729   4.158   1.986  2.1120 -0.8335 -0.0517
 4562TIP3    H235322   5.717   4.020   2.048 -2.2186 -1.3350 -1.6718
 4563TIP3   OH235323   6.809   5.510   7.298  0.2181 -0.5008 -0.2934
 4563TIP3    H135324   6.718   5.518   7.326  0.2534  0.9220 -0.4898
 4563TIP3    H235325   6.824   5.416   7.291 -2.2096 -0.8058 -3.4407
 4564TIP3   OH235326   0.660   0.661   0.101  0.0517  0.4890  0.1003
 4564TIP3    H135327   0.615   0.578   0.092 -1.2611  1.2552 -0.6335
 4564TIP3    H235328   0.663   0.697   0.013 -3.4546  3.2256  0.8564
 4565TIP3   OH235329   2.365   6.492   1.579 -0.5818  0.1665  0.8563
 4565TIP3    H135330   2.394   6.442   1.654  0.4919 -1.1305 -0.3694
 4565TIP3    H235331   2.411   6.454   1.505 -1.0669  1.8445 -0.3871
 4566TIP3   OH235332   6.636   1.191   2.232 -0.1182 -0.3163  0.7433
 4566TIP3    H135333   6.631   1.104   2.192  0.7277 -0.1567  0.2547
 4566TIP3    H235334   6.705   1.184   2.297 -1.2343 -0.4678  1.9432
 4567TIP3   OH235335   3.226   4.409   7.295  0.6117 -0.2935 -0.4610
 4567TIP3    H135336   3.246   4.392   7.387 -1.7444 -1.8868 -0.1387
 4567TIP3    H235337   3.210   4.322   7.258 -2.8637  0.4958 -1.1917
 4568TIP3   OH235338   5.681   3.148   1.080  0.7671  0.1630  0.6873
 4568TIP3    H135339   5.735   3.211   1.032 -0.9459  0.1955 -1.3765
 4568TIP3    H235340   5.702   3.162   1.172  2.0009  2.2457  0.1381
 4569TIP3   OH235341   0.211   1.061   6.801 -0.1407  0.2846  0.7996
 4569TIP3    H135342   0.171   0.985   6.757  0.8794 -0.8757  1.8126
 4569TIP3    H235343   0.300   1.033   6.820  0.2593  1.7650  1.1986
 4570TIP3   OH235344   1.646   5.215   1.014 -0.0422  0.2648  0.3941
 4570TIP3    H135345   1.605   5.186   1.096 -0.3826  2.2136  0.9700
 4570TIP3    H235346   1.577   5.209   0.949  0.0716 -0.7680  0.3567
 4571TIP3   OH235347   5.538   0.890   1.979  0.0180  0.1664  0.3522
 4571TIP3    H135348   5.631   0.902   1.960  0.4642 -0.5162  1.9477
 4571TIP3    H235349   5.536   0.853   2.067 -1.8330  1.5839  0.9714
 4572TIP3   OH235350   4.236   0.545   1.335  0.5390  0.0923 -0.0821
 4572TIP3    H135351   4.300   0.474   1.323 -0.9168 -1.0900 -1.1988
 4572TIP3    H235352   4.167   0.506   1.389 -0.6972  0.3545 -1.4113
 4573TIP3   OH235353   0.129   5.998   1.320  0.3041 -0.2028 -0.0115
 4573TIP3    H135354   0.047   6.007   1.271  0.1582  2.5724  0.5761
 4573TIP3    H235355   0.104   6.013   1.411  1.2219 -1.1504  0.4201
 4574TIP3   OH235356   3.466   1.084   1.695  0.4800 -0.3083 -0.4796
 4574TIP3    H135357   3.499   1.056   1.780 -1.7659 -1.7967  0.0115
 4574TIP3    H235358   3.373   1.058   1.696 -0.0997  1.3558 -2.6458
 4575TIP3   OH235359   5.450   0.479   2.641 -0.2210  0.1110 -0.0656
 4575TIP3    H135360   5.402   0.556   2.670  0.5794  0.6870 -0.2349
 4575TIP3    H235361   5.515   0.513   2.579  0.7536 -0.5719  0.5584
 4576TIP3   OH235362   2.848   5.299   0.422  0.2700 -0.0368 -0.9356
 4576TIP3    H135363   2.929   5.350   0.426  0.1317  0.5355 -3.6211
 4576TIP3    H235364   2.821   5.290   0.513  2.7651  0.6806 -0.0335
 4577TIP3   OH235365   2.013   6.253   0.604  0.0771 -1.0311 -0.6781
 4577TIP3    H135366   1.991   6.208   0.522 -0.7630 -0.9181 -0.5259
 4577TIP3    H235367   1.942   6.317   0.616 -1.3947 -2.9187  1.5605
 4578TIP3   OH235368   4.382   5.372   1.414  0.1388  0.2888  0.1384
 4578TIP3    H135369   4.463   5.397   1.370 -0.1190  0.6271 -0.1425
 4578TIP3    H235370   4.354   5.292   1.369  0.6152 -0.1545  0.6101
 4579TIP3   OH235371   5.865   3.579   1.900 -0.4212 -0.4467  0.2531
 4579TIP3    H135372   5.921   3.504   1.920  1.2256  0.9720  1.2531
 4579TIP3    H235373   5.824   3.556   1.817 -0.0917 -2.5034  0.5930
 4580TIP3   OH235374   5.723   4.832   0.325  0.0501 -0.6211 -0.0262
 4580TIP3    H135375   5.687   4.822   0.237  0.2152 -0.3298 -0.1270
 4580TIP3    H235376   5.741   4.926   0.333  1.8475 -0.9066 -0.3873
 4581TIP3   OH235377   1.397   2.033   8.278 -0.6542 -0.3659  0.1306
 4581TIP3    H135378   1.432   2.061   8.363  0.4165 -0.4002 -0.2905
 4581TIP3    H235379   1.313   2.078   8.271 -0.4669  0.1269  0.9270
 4582TIP3   OH235380   0.579   4.707   0.216  0.0327  0.3723 -0.4554
 4582TIP3    H135381   0.614   4.667   0.295  0.2865  0.9358 -0.2795
 4582TIP3    H235382   0.570   4.800   0.238  1.7597  0.8757 -1.6489
 4583TIP3   OH235383   2.553   5.334   7.109  0.1233 -0.3337 -0.2521
 4583TIP3    H135384   2.486   5.344   7.177 -0.3558 -1.4546 -0.5469
 4583TIP3    H235385   2.636   5.339   7.156 -0.2020 -1.1532  0.4329
 4584TIP3   OH235386   4.729   4.136   0.432 -0.1645 -0.1000  0.1493
 4584TIP3    H135387   4.750   4.156   0.341  2.0296  0.2493  0.6714
 4584TIP3    H235388   4.659   4.071   0.427 -0.1460 -0.0275 -1.7773
 4585TIP3   OH235389   1.241   5.021   8.401  0.0161 -0.4146 -0.0706
 4585TIP3    H135390   1.164   5.064   8.362  0.3163 -0.7109 -1.0098
 4585TIP3    H235391   1.215   4.930   8.410  0.2497 -0.5098 -0.3640
 4586TIP3   OH235392   2.099   1.835   7.748  0.6382 -0.1986  0.0561
 4586TIP3    H135393   2.096   1.841   7.843 -0.3368  0.8900 -0.0266
 4586TIP3    H235394   2.159   1.905   7.721  0.4061 -0.0855 -0.1686
 4587TIP3   OH235395   6.276   6.332   7.949  0.0212 -0.1724 -0.4245
 4587TIP3    H135396   6.288   6.241   7.978  0.0483 -0.0507 -0.0498
 4587TIP3    H235397   6.197   6.361   7.995  3.0384  1.8728  4.2004
 4588TIP3   OH235398   3.065   2.990   8.498  0.1883 -0.2889 -0.2049
 4588TIP3    H135399   2.995   3.009   8.561  0.2970  1.1689 -0.4736
 4588TIP3    H235400   3.052   2.899   8.473 -0.9068 -0.3762  0.6259
 4589TIP3   OH235401   5.548   4.653   0.140 -0.2036 -0.0019  0.0580
 4589TIP3    H135402   5.549   4.561   0.113 -1.7872  0.2936 -1.1343
 4589TIP3    H235403   5.625   4.690   0.096 -0.1919 -0.5085 -0.3665
 4590TIP3   OH235404   4.130   0.582   8.378  0.0101 -0.7212 -0.1514
 4590TIP3    H135405   4.190   0.561   8.306  0.0086 -1.4796  0.0574
 4590TIP3    H235406   4.048   0.538   8.354 -0.4641  0.2683 -0.4128
 4591TIP3   OH235407   6.000   4.549   8.627 -0.1147 -0.5175 -0.1400
 4591TIP3    H135408   5.987   4.562   8.721 -0.0173 -0.8440 -0.0795
 4591TIP3    H235409   6.090   4.579   8.611 -0.3030  0.0211 -0.2247
 4592TIP3   OH235410   3.563   0.093   5.893 -0.6038 -0.1862  0.1956
 4592TIP3    H135411   3.627   0.141   5.841  0.4056 -1.6886 -0.0347
 4592TIP3    H235412   3.578   0.123   5.983  1.8081 -1.8024  0.4467
 4593TIP3   OH235413   2.299   2.927   1.856  0.3174 -0.9321  0.0166
 4593TIP3    H135414   2.204   2.920   1.860  0.2588 -0.6393 -0.8375
 4593TIP3    H235415   2.317   3.020   1.841  0.7749 -0.8460  0.9907
 4594TIP3   OH235416   2.000   4.026   7.064 -0.3555  0.0684  0.2793
 4594TIP3    H135417   1.992   3.979   7.147  0.3766 -1.0730 -0.2764
 4594TIP3    H235418   2.073   4.087   7.078  0.5957 -0.9967  0.0962
 4595TIP3   OH235419   6.071   5.535   7.640  0.3304  0.3802  0.4579
 4595TIP3    H135420   5.984   5.498   7.636  0.7070 -0.4835 -0.0066
 4595TIP3    H235421   6.098   5.526   7.731  0.3367 -0.3007  0.3900
 4596TIP3   OH235422   6.434   3.356   6.162  0.1511  0.1884 -0.2941
 4596TIP3    H135423   6.350   3.312   6.169  0.7974 -0.8804  1.2071
 4596TIP3    H235424   6.429   3.429   6.223 -0.1096  0.8545 -1.1030
 4597TIP3   OH235425   2.832   0.412   0.419  0.3480 -0.3539 -0.5355
 4597TIP3    H135426   2.751   0.461   0.401  1.2194  0.6963 -1.7142
 4597TIP3    H235427   2.883   0.420   0.339  2.3806  0.5020  0.7710
 4598TIP3   OH235428   6.523   2.283   7.912  0.2396 -0.7489 -0.0733
 4598TIP3    H135429   6.487   2.207   7.956 -2.2636  1.7546  2.6600
 4598TIP3    H235430   6.597   2.310   7.967  0.0560 -0.2790 -0.0477
 4599TIP3   OH235431   2.215   1.842   0.736  0.6470 -0.4937  0.2696
 4599TIP3    H135432   2.226   1.782   0.661  4.1515 -0.0826  0.3370
 4599TIP3    H235433   2.202   1.784   0.811  0.7416 -1.0518 -0.1371
 4600TIP3   OH235434   2.905   1.022   1.135  0.4831  0.1174 -0.3469
 4600TIP3    H135435   2.870   1.109   1.154  1.3608  0.5744 -0.7640
 4600TIP3    H235436   2.898   1.013   1.040  0.0584 -0.4303 -0.2749
 4601TIP3   OH235437   6.638   5.528   0.002 -0.5624  0.6121  0.6289
 4601TIP3    H135438   6.654   5.594   0.069 -0.0738 -0.5673  1.7177
 4601TIP3    H235439   6.715   5.470   0.007 -0.1499  0.8948 -1.4652
 4602TIP3   OH235440   2.493   0.968   7.713 -0.1850 -0.0049 -0.0106
 4602TIP3    H135441   2.560   0.940   7.776  0.6713 -0.5929 -1.1425
 4602TIP3    H235442   2.456   0.885   7.681 -1.9924  0.3070  1.1076
 4603TIP3   OH235443   3.071   0.521   2.046 -0.0946  0.3635 -0.3728
 4603TIP3    H135444   3.006   0.484   2.106 -1.1094  0.5464 -1.3331
 4603TIP3    H235445   3.031   0.601   2.012 -0.2089 -0.5171 -2.4571
 4604TIP3   OH235446   1.795   2.474   0.987 -0.3856 -0.1005 -0.3041
 4604TIP3    H135447   1.765   2.487   1.077  0.5604 -0.2182  0.0402
 4604TIP3    H235448   1.714   2.466   0.936 -0.9340 -0.1316  0.5438
 4605TIP3   OH235449   0.223   6.514   1.533 -0.0620 -0.2581 -0.1369
 4605TIP3    H135450   0.177   6.529   1.451  0.3301 -0.9365 -0.4877
 4605TIP3    H235451   0.254   6.424   1.527  0.5321 -0.1044  0.4783
 4606TIP3   OH235452   6.219   0.921   7.345  0.0708  0.4470  0.2898
 4606TIP3    H135453   6.217   0.853   7.412 -1.6663  0.0663 -0.0789
 4606TIP3    H235454   6.211   0.873   7.262  0.3934  1.0175 -0.0788
 4607TIP3   OH235455   4.715   5.364   7.339  0.5087  0.2673  0.0702
 4607TIP3    H135456   4.679   5.406   7.416 -0.1455 -0.1311 -0.0175
 4607TIP3    H235457   4.805   5.342   7.363  0.3274  0.2064  0.6870
 4608TIP3   OH235458   2.034   2.587   2.006  0.0277  0.4194 -0.4850
 4608TIP3    H135459   1.994   2.522   1.949  0.1374 -0.0625 -0.0171
 4608TIP3    H235460   2.128   2.580   1.990  0.0526  0.3440 -0.3057
 4609TIP3   OH235461   2.400   1.768   7.486  0.0000 -0.0942  0.4316
 4609TIP3    H135462   2.319   1.755   7.436  1.2882  1.5452 -2.2970
 4609TIP3    H235463   2.383   1.847   7.537 -0.2674  0.0202  0.1711
 4610TIP3   OH235464   3.368   4.393   8.021  0.0431  0.8401  0.4280
 4610TIP3    H135465   3.436   4.334   7.992  0.6515  1.7707 -0.1042
 4610TIP3    H235466   3.301   4.388   7.952 -0.0317  0.5561  0.5241
 4611TIP3   OH235467   2.908   0.832   0.578  0.6897 -0.3379 -0.5001
 4611TIP3    H135468   2.992   0.794   0.554  1.0450  0.3999 -0.4620
 4611TIP3    H235469   2.867   0.854   0.495 -0.0214 -1.8311 -0.5695
 4612TIP3   OH235470   2.232   4.470   0.704 -0.4580  0.4410  0.6179
 4612TIP3    H135471   2.256   4.378   0.700  1.6503  0.9735 -1.1557
 4612TIP3    H235472   2.305   4.516   0.662 -1.5438  2.9038  1.2222
 4613TIP3   OH235473   1.915   1.557   1.399 -0.7718  0.0145 -0.3699
 4613TIP3    H135474   1.968   1.523   1.328  1.2029 -0.3179  1.1804
 4613TIP3    H235475   1.908   1.651   1.382 -0.5936 -0.1160 -1.1536
 4614TIP3   OH235476   4.147   1.584   1.312 -0.0209  0.1022 -0.3396
 4614TIP3    H135477   4.207   1.544   1.249  0.1637  0.6623 -0.5260
 4614TIP3    H235478   4.161   1.679   1.303 -0.0959  0.1984  0.4419
 4615TIP3   OH235479   1.686   3.302   2.291  0.1131  0.1555 -0.1215
 4615TIP3    H135480   1.667   3.281   2.382  0.2935  1.5468  0.2712
 4615TIP3    H235481   1.776   3.334   2.292  0.9667 -2.0290 -1.2060
 4616TIP3   OH235482   2.516   5.140   6.720 -0.3443  0.0692  0.1147
 4616TIP3    H135483   2.536   5.051   6.750 -3.9875 -0.4229  1.7097
 4616TIP3    H235484   2.569   5.197   6.776 -0.7214 -1.0830  1.7089
 4617TIP3   OH235485   4.025   6.633   0.828  0.5560  0.3257 -0.1682
 4617TIP3    H135486   3.970   6.582   0.888  1.1679 -1.2988 -0.9612
 4617TIP3    H235487   4.000   6.724   0.847  0.2675 -0.1426  2.0956
 4618TIP3   OH235488   1.317   3.555   1.188  0.5144  0.2625 -0.0264
 4618TIP3    H135489   1.351   3.523   1.105  0.2896 -0.0429 -0.0007
 4618TIP3    H235490   1.260   3.628   1.163 -2.4443 -2.0104 -0.5058
 4619TIP3   OH235491   1.260   5.781   1.640  0.0093 -0.3149 -0.6139
 4619TIP3    H135492   1.258   5.698   1.689  2.1193 -0.8282 -1.2986
 4619TIP3    H235493   1.238   5.848   1.705  0.6799 -1.1762  0.5396
 4620TIP3   OH235494   3.444   3.049   2.486  0.4650 -0.2327  0.3652
 4620TIP3    H135495   3.480   3.136   2.469 -1.1855  0.4190 -0.0280
 4620TIP3    H235496   3.451   3.038   2.581  0.4433  0.4547  0.4501
 4621TIP3   OH235497   0.411   1.691   7.015 -0.0582 -0.1800 -0.1305
 4621TIP3    H135498   0.497   1.650   7.029  0.8943  1.3657 -1.2822
 4621TIP3    H235499   0.398   1.747   7.092  1.1468  1.5236 -1.1302
 4622TIP3   OH235500   0.980   0.434   8.133  0.3471  0.9036 -0.0581
 4622TIP3    H135501   1.011   0.490   8.062  0.7193  2.5699  1.3466
 4622TIP3    H235502   1.049   0.369   8.145 -0.4379 -0.4567 -2.2263
 4623TIP3   OH235503   2.876   1.802   7.522 -0.0214  0.0787  0.3637
 4623TIP3    H135504   2.906   1.792   7.613  1.1632 -0.5613 -0.0715
 4623TIP3    H235505   2.907   1.890   7.497  0.6522 -0.1869  0.2350
 4624TIP3   OH235506   6.816   4.652   7.637  0.5138  0.5693 -0.1869
 4624TIP3    H135507   6.741   4.708   7.615  0.3724  0.4435 -0.0348
 4624TIP3    H235508   6.850   4.622   7.553  0.6391  0.9512 -0.2703
 4625TIP3   OH235509   5.128   5.546   8.430 -0.2136  0.0960 -0.4313
 4625TIP3    H135510   5.176   5.472   8.466  0.7927  0.8803 -0.1122
 4625TIP3    H235511   5.067   5.507   8.368  0.3100 -0.9969 -0.2816
 4626TIP3   OH235512   4.980   6.549   0.194 -0.4743 -0.4524 -0.2995
 4626TIP3    H135513   4.931   6.548   0.113 -0.5547 -1.2846 -0.2460
 4626TIP3    H235514   4.923   6.595   0.256 -0.3593  0.2978 -0.7290
 4627TIP3   OH235515   6.375   2.644   0.029  0.2588 -0.2157 -0.1552
 4627TIP3    H135516   6.314   2.718   0.035  0.8269  0.3100 -0.6808
 4627TIP3    H235517   6.459   2.684   0.005  1.3091 -0.7186  2.3916
 4628TIP3   OH235518   4.549   5.603   0.168 -0.3790  0.2608  0.2648
 4628TIP3    H135519   4.640   5.629   0.159 -0.4362  0.0998 -0.9319
 4628TIP3    H235520   4.549   5.536   0.236  0.3150  0.6098  0.6146
 4629TIP3   OH235521   5.735   4.526   1.851  0.1125  0.7197  0.2762
 4629TIP3    H135522   5.695   4.613   1.861 -0.5917  0.4156  0.1555
 4629TIP3    H235523   5.662   4.469   1.825  0.4872  0.0114  0.7582
 4630TIP3   OH235524   3.297   2.738   8.502  0.7789  0.6168 -0.3745
 4630TIP3    H135525   3.231   2.797   8.538  1.1702 -0.2888  2.0158
 4630TIP3    H235526   3.377   2.760   8.549  1.4584 -0.3265 -1.0495
 4631TIP3   OH235527   3.201   2.726   7.372 -0.2241 -0.1109 -0.3673
 4631TIP3    H135528   3.152   2.644   7.370 -0.3833 -0.0246 -0.0205
 4631TIP3    H235529   3.154   2.784   7.313 -0.4663 -0.0701 -0.1343
 4632TIP3   OH235530   6.491   6.820   6.657  0.1958 -0.2642 -0.0033
 4632TIP3    H135531   6.505   6.838   6.564 -0.3831 -0.2074 -0.0794
 4632TIP3    H235532   6.551   6.880   6.701 -1.5578  1.7780 -0.2630
 4633TIP3   OH235533   5.133   5.062   7.059 -0.5836  0.8568 -0.5994
 4633TIP3    H135534   5.201   5.100   7.114  0.0260  0.6562 -1.2025
 4633TIP3    H235535   5.181   5.019   6.988 -1.3279  0.4482 -0.8622
 4634TIP3   OH235536   5.808   0.890   1.958  0.3877  0.1475  0.5394
 4634TIP3    H135537   5.828   0.817   2.016  1.4552  0.4143  0.5239
 4634TIP3    H235538   5.885   0.947   1.963  0.1640  0.5676 -0.5311
 4635TIP3   OH235539   2.737   6.108   0.167 -0.1188 -0.1658 -0.0372
 4635TIP3    H135540   2.828   6.082   0.153 -0.2216 -0.0822 -0.8959
 4635TIP3    H235541   2.718   6.169   0.096 -0.6801  0.2362  0.4499
 4636TIP3   OH235542   3.773   6.161   8.165  0.0656  0.2843 -0.5376
 4636TIP3    H135543   3.806   6.249   8.147  0.1683  0.0864 -1.3721
 4636TIP3    H235544   3.804   6.109   8.092 -2.5168  0.1737 -1.6609
 4637TIP3   OH235545   0.253   4.880   6.633 -0.2537 -0.1375 -0.2558
 4637TIP3    H135546   0.174   4.826   6.635  0.0831 -0.6636 -0.9984
 4637TIP3    H235547   0.222   4.968   6.654 -1.2406 -0.0890 -1.8106
 4638TIP3   OH235548   1.386   1.013   1.649 -0.0186 -0.4664  0.1474
 4638TIP3    H135549   1.375   0.980   1.738  3.1094 -0.7102  0.5548
 4638TIP3    H235550   1.374   0.936   1.593 -1.2841 -0.4525  0.3667
 4639TIP3   OH235551   5.969   3.938   6.740 -0.4722  0.3599  0.2144
 4639TIP3    H135552   6.049   3.898   6.773  1.9051  2.9304 -1.8510
 4639TIP3    H235553   5.911   3.865   6.720  1.6573 -1.6726  1.0835
 4640TIP3   OH235554   3.156   5.043   1.943  0.2597 -0.3764  0.3531
 4640TIP3    H135555   3.181   5.033   1.851 -3.1220 -2.9390 -0.4918
 4640TIP3    H235556   3.093   5.115   1.943  0.2296 -0.4032  0.6578
 4641TIP3   OH235557   4.610   2.283   1.578  0.0666 -0.3030  1.0309
 4641TIP3    H135558   4.571   2.330   1.652 -0.2025  3.4864 -1.2382
 4641TIP3    H235559   4.704   2.295   1.589 -0.0336  2.1485 -0.2015
 4642TIP3   OH235560   4.670   6.394   0.423 -0.0596  0.2398 -0.0670
 4642TIP3    H135561   4.657   6.335   0.348 -0.0021  0.2591 -0.0926
 4642TIP3    H235562   4.756   6.369   0.457 -0.6445 -0.6804  0.8106
 4643TIP3   OH235563   1.543   1.014   0.791 -0.0145 -0.0817 -0.3417
 4643TIP3    H135564   1.572   1.048   0.706 -1.1571 -1.9457 -1.5492
 4643TIP3    H235565   1.448   1.026   0.789  0.0370  0.7181  1.1147
 4644TIP3   OH235566   5.415   3.847   1.016  0.0061  0.2041  0.0976
 4644TIP3    H135567   5.363   3.862   0.937  1.1956  1.2335 -0.5282
 4644TIP3    H235568   5.495   3.806   0.984  0.2388  0.0622  0.8501
 4645TIP3   OH235569   1.811   3.675   7.123 -0.2905 -0.5815  0.2739
 4645TIP3    H135570   1.859   3.732   7.183  1.0369 -0.7350 -0.6106
 4645TIP3    H235571   1.821   3.587   7.161  1.1978 -0.7895 -0.5310
 4646TIP3   OH235572   1.191   6.786   7.293  0.0379 -0.2264 -0.8347
 4646TIP3    H135573   1.174   6.815   7.203  2.4384 -1.4866 -1.7705
 4646TIP3    H235574   1.225   6.864   7.337 -1.9972  0.6445 -0.6958
 4647TIP3   OH235575   2.234   5.069   7.234  0.4462  0.5345 -0.9502
 4647TIP3    H135576   2.274   5.006   7.174  1.5874 -0.5453  0.8483
 4647TIP3    H235577   2.275   5.051   7.319 -0.6922  2.3642  0.0589
 4648TIP3   OH235578   5.672   4.551   1.076  0.5041  0.4938  0.0772
 4648TIP3    H135579   5.632   4.629   1.037  0.7306 -1.0367 -3.5814
 4648TIP3    H235580   5.766   4.560   1.058  1.0271  0.8357  2.5751
 4649TIP3   OH235581   4.018   1.774   0.937  0.2855  0.3693  0.5366
 4649TIP3    H135582   4.063   1.845   0.890  1.2480  0.4489  1.5354
 4649TIP3    H235583   4.024   1.699   0.878  2.2574  0.2213  0.8325
 4650TIP3   OH235584   1.113   6.552   1.367  0.2979  0.0941 -0.1633
 4650TIP3    H135585   1.207   6.531   1.374  0.5736  1.1260 -0.5503
 4650TIP3    H235586   1.069   6.469   1.383  1.2032  0.0210  2.4917
 4651TIP3   OH235587   2.613   0.147   1.416 -0.1553  0.0935 -0.1901
 4651TIP3    H135588   2.707   0.133   1.420 -0.2837 -3.0381 -3.3246
 4651TIP3    H235589   2.575   0.072   1.462 -1.0447 -0.3603 -1.5944
 4652TIP3   OH235590   1.590   5.110   1.921  0.2084  0.4307  0.2237
 4652TIP3    H135591   1.561   5.053   1.849  1.2594 -1.5557  1.2880
 4652TIP3    H235592   1.512   5.161   1.943 -0.6757 -0.3063 -1.0410
 4653TIP3   OH235593   1.119   3.778   7.577 -0.6246  0.4985  0.0478
 4653TIP3    H135594   1.129   3.693   7.534 -0.1821  1.0449 -0.9701
 4653TIP3    H235595   1.054   3.824   7.524 -0.4607  0.9961  0.2726
 4654TIP3   OH235596   3.061   0.963   0.325  0.0661  0.1151 -0.3748
 4654TIP3    H135597   2.980   0.917   0.302  0.6365 -1.4164  0.5178
 4654TIP3    H235598   3.131   0.912   0.284  0.5744  2.0311 -2.0713
 4655TIP3   OH235599   4.744   0.818   6.826 -0.1119  0.0219  0.6987
 4655TIP3    H135600   4.777   0.846   6.740 -1.4175 -1.2732 -0.2690
 4655TIP3    H235601   4.796   0.868   6.888  1.5056  0.3514 -0.8164
 4656TIP3   OH235602   5.691   0.057   0.478  0.3500 -1.0029  0.2339
 4656TIP3    H135603   5.623  -0.001   0.512  0.1645 -0.2524  1.2113
 4656TIP3    H235604   5.766   0.043   0.536  1.0839 -1.8703 -0.8737
 4657TIP3   OH235605   3.598   5.540   0.525 -0.1584 -0.3080  0.1459
 4657TIP3    H135606   3.591   5.620   0.576  1.7833 -0.1533  0.2619
 4657TIP3    H235607   3.675   5.496   0.560 -2.2166 -3.2373  1.4021
 4658TIP3   OH235608   6.014   0.779   0.707 -0.2430  0.2862  0.6147
 4658TIP3    H135609   5.938   0.830   0.678 -0.6320 -1.2228 -1.1623
 4658TIP3    H235610   5.977   0.698   0.740  0.4961  0.3313  1.5693
 4659TIP3   OH235611   5.914   1.372   7.331  0.3099 -0.3900  0.1386
 4659TIP3    H135612   5.864   1.454   7.319 -0.2057 -0.7641 -0.3468
 4659TIP3    H235613   5.877   1.333   7.410  1.2194  0.3075  0.9284
 4660TIP3   OH235614   5.106   0.008   1.977  0.7332 -0.0364 -0.1370
 4660TIP3    H135615   5.150   0.089   1.949 -2.3661  1.3504 -1.4637
 4660TIP3    H235616   5.151  -0.017   2.057  3.4456  1.5769 -1.0184
 4661TIP3   OH235617   2.556   4.539   0.803 -0.5396  0.3348 -0.1707
 4661TIP3    H135618   2.531   4.568   0.716 -1.0116  0.4306 -0.0037
 4661TIP3    H235619   2.652   4.548   0.804 -0.5044  0.0693 -0.7688
 4662TIP3   OH235620   3.053   4.938   8.285 -0.3826 -0.0063  0.5476
 4662TIP3    H135621   2.967   4.935   8.328 -1.0426  0.9090 -0.6419
 4662TIP3    H235622   3.068   5.032   8.270  1.2215 -0.0815  1.4817
 4663TIP3   OH235623   6.352   0.041   0.994 -0.1950 -0.0974 -0.5910
 4663TIP3    H135624   6.332   0.006   1.081  0.0017 -2.1250 -1.2978
 4663TIP3    H235625   6.276   0.096   0.972 -0.9762 -0.8106  0.2359
 4664TIP3   OH235626   4.560   5.968   1.272 -0.0439  0.2221 -0.8720
 4664TIP3    H135627   4.622   5.899   1.250 -0.2507  0.1259 -1.1602
 4664TIP3    H235628   4.516   5.989   1.189  0.0315  0.7127 -0.7904
 4665TIP3   OH235629   4.641   4.490   7.846 -0.1772 -0.0623 -0.8329
 4665TIP3    H135630   4.708   4.456   7.788  0.5058  2.8658 -1.9158
 4665TIP3    H235631   4.587   4.547   7.791 -1.5265  0.2524  0.7108
 4666TIP3   OH235632   1.882   2.071   7.594  0.8312  0.4449  0.1827
 4666TIP3    H135633   1.789   2.068   7.615  1.0799  0.0693  1.2508
 4666TIP3    H235634   1.895   1.998   7.533  0.4013  0.6093 -0.1116
 4667TIP3   OH235635   2.163   1.067   7.607 -0.5755 -0.4096  0.4527
 4667TIP3    H135636   2.130   1.004   7.670 -0.9330 -0.5619  0.1160
 4667TIP3    H235637   2.214   1.015   7.545 -2.3076 -0.6557 -0.8401
 4668TIP3   OH235638   2.589   4.427   0.481 -0.1315  0.0151  0.3686
 4668TIP3    H135639   2.555   4.516   0.476 -1.6357 -0.6138 -2.4275
 4668TIP3    H235640   2.661   4.424   0.418  0.0061 -0.7319  0.5446
 4669TIP3   OH235641   5.562   1.920   0.824 -0.3020 -0.0507 -0.0404
 4669TIP3    H135642   5.487   1.974   0.799 -1.2183 -1.0665  0.4183
 4669TIP3    H235643   5.583   1.869   0.746  0.7015  1.0946 -0.5400
 4670TIP3   OH235644   0.497   5.353   2.776 -0.1079 -0.5992 -0.6594
 4670TIP3    H135645   0.443   5.420   2.734  0.2676 -1.5920 -2.8417
 4670TIP3    H235646   0.482   5.365   2.870 -2.6033  0.3896 -1.1238
 4671TIP3   OH235647   6.094   4.490   2.354 -0.1346 -0.1013  0.2125
 4671TIP3    H135648   6.086   4.415   2.296  3.3300 -1.4358  1.2327
 4671TIP3    H235649   6.055   4.461   2.436  1.2271 -0.8745  0.6148
 4672TIP3   OH235650   0.655   0.715   0.645  0.4069 -0.2053  0.6077
 4672TIP3    H135651   0.584   0.656   0.617  1.2000 -1.0414  0.3235
 4672TIP3    H235652   0.658   0.782   0.577  0.7870 -0.9331 -0.1059
 4673TIP3   OH235653   6.104   1.781   7.782  0.5182 -0.2756 -0.1428
 4673TIP3    H135654   6.051   1.811   7.709  1.7206  0.4702 -0.7422
 4673TIP3    H235655   6.105   1.686   7.775  0.7116 -0.2016 -1.1651
 4674TIP3   OH235656   0.212   1.846   0.916  0.0980 -0.1961 -0.1924
 4674TIP3    H135657   0.158   1.841   0.994  1.1274 -1.8460  0.4788
 4674TIP3    H235658   0.150   1.831   0.844 -0.3868 -2.3112  0.5654
 4675TIP3   OH235659   0.315   3.142   1.912 -0.4010 -0.7496  0.7627
 4675TIP3    H135660   0.258   3.210   1.946  0.3712  0.0057  0.5655
 4675TIP3    H235661   0.314   3.074   1.980 -0.2513 -0.0270  1.5017
 4676TIP3   OH235662   2.202   2.964   0.920  0.1721  0.6516 -0.0992
 4676TIP3    H135663   2.241   2.918   0.995  1.5854  0.2945 -1.0121
 4676TIP3    H235664   2.201   2.899   0.850  0.1242  1.3569 -0.7665
 4677TIP3   OH235665   3.401   6.674   2.310  0.4162  0.0112  0.1677
 4677TIP3    H135666   3.327   6.685   2.370  1.1066 -1.3559  1.3081
 4677TIP3    H235667   3.400   6.581   2.287  0.0618  0.5081 -2.1600
 4678TIP3   OH235668   1.069   5.303   2.048  0.5156  0.0697  0.2086
 4678TIP3    H135669   1.021   5.361   1.989  1.4667 -0.4131 -1.0919
 4678TIP3    H235670   1.012   5.228   2.060 -0.3511  0.8501  1.2027
 4679TIP3   OH235671   0.742   0.913   7.470  0.3319 -0.1754  0.1864
 4679TIP3    H135672   0.815   0.972   7.451 -1.1905  0.9843 -2.5574
 4679TIP3    H235673   0.764   0.832   7.423  0.7680 -0.5995  1.0818
 4680TIP3   OH235674   1.900   2.118   0.407  0.4192  0.1047  0.2088
 4680TIP3    H135675   1.845   2.186   0.369  2.3773  1.4737 -0.3281
 4680TIP3    H235676   1.908   2.141   0.499  0.9598  0.5431  0.0578
 4681TIP3   OH235677   6.735   4.469   6.792  0.1188  0.3232 -0.5158
 4681TIP3    H135678   6.724   4.540   6.855  0.9545  1.6191 -1.7867
 4681TIP3    H235679   6.820   4.430   6.813 -0.0968  0.0362 -0.1627
 4682TIP3   OH235680   2.260   3.374   1.689 -0.0478  0.0044 -0.2094
 4682TIP3    H135681   2.179   3.410   1.653  0.0987 -0.1717 -0.7289
 4682TIP3    H235682   2.297   3.444   1.742 -0.7458 -0.0497  0.3673
 4683TIP3   OH235683   1.744   0.268   6.995 -0.1545 -0.6129  0.4787
 4683TIP3    H135684   1.775   0.253   7.084  1.5716 -1.5179 -0.2124
 4683TIP3    H235685   1.778   0.354   6.971 -1.6625  0.1839  1.0748
 4684TIP3   OH235686   1.388   4.513   8.786 -0.4870 -0.2546 -0.4312
 4684TIP3    H135687   1.352   4.535   8.701 -0.4686  0.0595 -0.3595
 4684TIP3    H235688   1.343   4.433   8.812 -0.3778 -0.4401 -0.8056
 4685TIP3   OH235689   5.695   4.600   8.527 -0.3763  0.0480 -0.3954
 4685TIP3    H135690   5.671   4.692   8.536 -0.0725  0.1315 -0.4468
 4685TIP3    H235691   5.756   4.598   8.453 -1.0884 -0.3194 -0.9918
 4686TIP3   OH235692   4.527   2.002   1.056 -0.4273 -0.5121  0.4395
 4686TIP3    H135693   4.559   1.920   1.018 -1.0255 -0.7009  0.3355
 4686TIP3    H235694   4.603   2.039   1.100  0.6601  0.3367 -1.9589
 4687TIP3   OH235695   6.732   2.623   1.191  0.0950 -0.0872 -0.0120
 4687TIP3    H135696   6.682   2.692   1.147  1.1266  0.8073  0.1784
 4687TIP3    H235697   6.686   2.610   1.275  0.6635  1.3646  0.5577
 4688TIP3   OH235698   4.963   1.180   1.913 -0.5839  0.2457  0.5123
 4688TIP3    H135699   4.959   1.162   2.007  3.0922 -0.2930  0.7062
 4688TIP3    H235700   4.984   1.273   1.907 -1.2835  0.3881  0.1839
 4689TIP3   OH235701   3.844   6.072   7.454  0.0909 -0.5881  0.4647
 4689TIP3    H135702   3.848   5.996   7.397 -0.4635  0.0500 -0.4492
 4689TIP3    H235703   3.757   6.109   7.440  1.1363  1.5344 -0.8919
 4690TIP3   OH235704   6.014   4.724   1.265 -0.0733  0.1067  0.1020
 4690TIP3    H135705   6.013   4.755   1.174 -0.3261  0.0994  0.1024
 4690TIP3    H235706   5.984   4.634   1.259 -1.3898  0.5169  0.3464
 4691TIP3   OH235707   6.582   6.358   2.698  0.1812 -0.0795  0.5424
 4691TIP3    H135708   6.632   6.433   2.666  1.0742 -0.9051 -0.0298
 4691TIP3    H235709   6.633   6.324   2.772 -0.3046 -0.0398  0.9054
 4692TIP3   OH235710   6.079   3.385   0.513  0.1528 -0.0758  0.2056
 4692TIP3    H135711   6.041   3.472   0.499  0.9637  0.6037  1.8469
 4692TIP3    H235712   6.173   3.397   0.496 -0.1781 -1.7874 -4.0824
 4693TIP3   OH235713   6.443   0.601   8.650  0.3426 -0.6522 -0.0051
 4693TIP3    H135714   6.443   0.508   8.672 -0.8607 -0.2375  2.0094
 4693TIP3    H235715   6.421   0.645   8.732  1.2706  1.4487 -0.8133
 4694TIP3   OH235716   0.502   6.514   1.566  0.0346 -0.3896 -0.2565
 4694TIP3    H135717   0.477   6.425   1.543 -0.5272 -0.8224  1.8720
 4694TIP3    H235718   0.433   6.569   1.527 -0.3530 -0.9873 -0.4215
 4695TIP3   OH235719   2.021   1.918   1.140 -0.3234 -0.2527 -0.1809
 4695TIP3    H135720   2.101   1.941   1.186 -1.5087  1.6858  1.0580
 4695TIP3    H235721   1.963   1.883   1.208 -0.5094 -1.7971 -1.0844
 4696TIP3   OH235722   4.235   6.418   1.631  0.5534 -0.2407 -0.1423
 4696TIP3    H135723   4.267   6.392   1.717  0.3011 -0.6666 -0.1703
 4696TIP3    H235724   4.175   6.491   1.648 -0.7767 -1.3667  0.2350
 4697TIP3   OH235725   1.359   2.186   0.645 -0.6736 -0.4023  0.2933
 4697TIP3    H135726   1.359   2.111   0.705  0.0921 -0.4122  0.2894
 4697TIP3    H235727   1.273   2.226   0.657 -0.8735 -0.9398  0.7218
 4698TIP3   OH235728   5.908   4.584   0.969 -0.4006 -0.0628  0.6486
 4698TIP3    H135729   5.989   4.634   0.979 -1.0528  0.9046  1.3738
 4698TIP3    H235730   5.926   4.521   0.900  1.1213 -0.1863  1.1298
 4699TIP3   OH235731   6.201   5.152   8.135 -0.2151 -0.4917 -0.1746
 4699TIP3    H135732   6.282   5.146   8.085 -0.6532 -1.8872 -0.7721
 4699TIP3    H235733   6.222   5.112   8.219 -0.3814 -1.2709 -0.4913
 4700TIP3   OH235734   6.532   6.605   1.827 -0.1184 -0.4739  0.1355
 4700TIP3    H135735   6.480   6.528   1.804  0.3706 -0.4606 -1.1103
 4700TIP3    H235736   6.611   6.597   1.773 -0.3124  1.1743 -0.4555
 4701TIP3   OH235737   3.860   1.943   1.648 -0.3733 -0.2850  0.0555
 4701TIP3    H135738   3.944   1.979   1.677 -1.0457 -0.0898  1.9440
 4701TIP3    H235739   3.811   2.019   1.616 -0.9939  0.2397  2.0433
 4702TIP3   OH235740   3.503   2.516   6.610 -0.0054 -0.0557 -0.1456
 4702TIP3    H135741   3.461   2.583   6.664 -0.8848  0.9508 -1.9528
 4702TIP3    H235742   3.557   2.566   6.549 -0.3237 -0.9938 -1.2299
 4703TIP3   OH235743   6.307   6.060   7.995  0.6348  0.4114 -0.1214
 4703TIP3    H135744   6.247   6.027   8.062 -0.1852  0.4694 -0.8124
 4703TIP3    H235745   6.328   5.984   7.941  1.1395  0.4049  0.0722
 4704TIP3   OH235746   6.143   0.117   0.833 -0.3286  0.2388  0.9778
 4704TIP3    H135747   6.073   0.166   0.877 -0.0145  1.4686  0.1331
 4704TIP3    H235748   6.191   0.182   0.783 -0.8817 -1.1361 -1.4959
 4705TIP3   OH235749   4.533   5.770   8.658  0.1972 -0.4642  0.4039
 4705TIP3    H135750   4.535   5.834   8.587  1.4037 -1.1136 -0.1788
 4705TIP3    H235751   4.487   5.694   8.621  0.2948 -0.5755  0.5089
 4706TIP3   OH235752   0.415   2.296   6.594 -0.9150  0.3336  0.5407
 4706TIP3    H135753   0.422   2.221   6.653 -2.1000  0.5406  0.9796
 4706TIP3    H235754   0.373   2.363   6.646 -1.6868  0.6351 -0.4392
 4707TIP3   OH235755   0.069   2.553   6.140  0.3503  0.2177 -0.3335
 4707TIP3    H135756   0.065   2.625   6.204 -1.2622 -0.4732  0.3812
 4707TIP3    H235757  -0.020   2.518   6.137  1.1079 -1.8029 -0.6034
 4708TIP3   OH235758   2.337   0.688   8.461  0.3641 -0.1287 -0.3178
 4708TIP3    H135759   2.311   0.767   8.509 -0.2566 -0.9132  0.6871
 4708TIP3    H235760   2.433   0.693   8.458  0.3165  0.8068 -0.5397
 4709TIP3   OH235761   5.908   3.082   7.341  0.4467 -0.1989  0.2588
 4709TIP3    H135762   5.926   3.132   7.262  3.6787 -3.0228 -1.0675
 4709TIP3    H235763   5.893   2.992   7.310  1.0915 -1.2796  2.7764
 4710TIP3   OH235764   1.179   4.551   1.142 -0.0980  0.3556 -0.2059
 4710TIP3    H135765   1.084   4.554   1.131  0.0340 -0.2078 -1.6913
 4710TIP3    H235766   1.195   4.470   1.190 -0.3901  0.7573  0.5979
 4711TIP3   OH235767   0.547   1.952   1.614  0.3365 -0.8941  0.3940
 4711TIP3    H135768   0.546   1.972   1.707 -1.4592  1.0135  0.0234
 4711TIP3    H235769   0.476   1.889   1.601  1.0352 -1.7018  0.3894
 4712TIP3   OH235770   0.535   4.974   7.642  0.3467  0.1023 -0.5815
 4712TIP3    H135771   0.574   4.929   7.567 -2.8749  0.6372 -2.7695
 4712TIP3    H235772   0.550   5.067   7.625  1.2974  0.1810  0.5348
 4713TIP3   OH235773   0.861   0.573   2.239 -0.2267  0.6972  0.6005
 4713TIP3    H135774   0.795   0.576   2.308 -0.6911 -0.7259  0.2431
 4713TIP3    H235775   0.823   0.519   2.171  1.6142 -0.9004  0.7371
 4714TIP3   OH235776   5.376   0.426   2.066  0.6664  0.0528  0.1028
 4714TIP3    H135777   5.335   0.340   2.061 -0.6104  0.5469  1.4294
 4714TIP3    H235778   5.388   0.441   2.160  1.4528  1.0651 -0.1406
 4715TIP3   OH235779   4.939   0.958   1.754  0.0209 -0.1386 -0.3853
 4715TIP3    H135780   4.958   1.038   1.803 -0.2065  0.2665 -0.9498
 4715TIP3    H235781   4.873   0.984   1.690 -0.8401 -1.0268  0.1087
 4716TIP3   OH235782   3.375   4.499   0.946  0.3415  0.0341 -0.9301
 4716TIP3    H135783   3.436   4.429   0.922 -0.3394 -0.4535 -1.2442
 4716TIP3    H235784   3.429   4.562   0.995  0.6953 -1.3171  0.4943
 4717TIP3   OH235785   0.143   4.039   1.720 -0.1104 -0.1122 -0.5325
 4717TIP3    H135786   0.170   4.085   1.800 -0.6567 -2.7775  1.3530
 4717TIP3    H235787   0.226   4.017   1.676  0.5212 -1.7250  1.2814
 4718TIP3   OH235788   1.621   2.018   8.094  0.1679  0.0136  0.0837
 4718TIP3    H135789   1.675   1.950   8.136 -1.7183 -1.0125  1.0114
 4718TIP3    H235790   1.543   2.022   8.149 -0.2201  2.2524 -0.5631
 4719TIP3   OH235791   1.012   1.869   1.234 -0.0167  0.7134  0.2105
 4719TIP3    H135792   1.036   1.853   1.325  2.1226  0.1899 -0.3983
 4719TIP3    H235793   0.924   1.907   1.239 -0.6754 -0.9087  2.3688
 4720TIP3   OH235794   1.879   2.743   7.720 -1.0005 -0.0189 -0.4052
 4720TIP3    H135795   1.805   2.779   7.768 -0.3523 -1.3871  1.8183
 4720TIP3    H235796   1.861   2.649   7.715 -0.2524 -0.1287 -1.4408
 4721TIP3   OH235797   6.710   5.024   0.875  0.1345 -0.3040  0.6746
 4721TIP3    H135798   6.683   5.029   0.966  1.0372 -0.4164  0.9623
 4721TIP3    H235799   6.778   5.091   0.867  0.0398 -0.2754  0.0743
 4722TIP3   OH235800   5.476   4.294   6.908 -0.0371 -0.0565 -0.4333
 4722TIP3    H135801   5.446   4.204   6.898  1.6689 -0.9345  1.5950
 4722TIP3    H235802   5.401   4.341   6.944 -1.1199 -0.4806 -2.0192
 4723TIP3   OH235803   6.005   3.159   0.352  0.7892  0.1869 -0.1784
 4723TIP3    H135804   5.927   3.208   0.326  0.1352 -1.4412 -1.4281
 4723TIP3    H235805   6.040   3.208   0.426 -1.5911  0.8085  0.6289
 4724TIP3   OH235806   2.623   2.779   7.684  0.5107  0.0044  0.0953
 4724TIP3    H135807   2.613   2.693   7.725  2.2561 -0.0931  0.4213
 4724TIP3    H235808   2.616   2.762   7.590  0.5106 -0.4416  0.1755
 4725TIP3   OH235809   0.469   5.313   1.669  0.0058  0.0469 -0.9432
 4725TIP3    H135810   0.382   5.324   1.707 -0.4864 -0.8749 -1.7522
 4725TIP3    H235811   0.505   5.402   1.667 -0.9663  0.4666 -0.7168
 4726TIP3   OH235812   1.587   1.581   0.123  0.0149  0.0435 -0.0863
 4726TIP3    H135813   1.583   1.676   0.136 -1.0599 -0.2492  2.4434
 4726TIP3    H235814   1.510   1.561   0.069 -0.3141  0.5441  0.1855
 4727TIP3   OH235815   6.045   6.562   0.335 -0.5206 -0.3199  0.6392
 4727TIP3    H135816   6.027   6.572   0.242 -0.9177  0.4176  0.7949
 4727TIP3    H235817   6.125   6.509   0.338 -0.6518 -0.5705 -0.1106
 4728TIP3   OH235818   3.230   3.084   6.885  0.3972  0.0092 -0.7217
 4728TIP3    H135819   3.149   3.107   6.931  0.7445 -2.1826  1.2229
 4728TIP3    H235820   3.265   3.167   6.854 -1.2873  1.3133  0.6522
 4729TIP3   OH235821   0.715   6.627   6.944 -0.0399 -0.0837  0.1051
 4729TIP3    H135822   0.746   6.544   6.979  0.5428 -0.0812 -0.3921
 4729TIP3    H235823   0.735   6.622   6.851  0.2638  0.7312  0.1202
 4730TIP3   OH235824   3.360   3.361   2.470 -0.2893 -0.6183  0.3751
 4730TIP3    H135825   3.303   3.373   2.546 -0.3227  0.2663  0.2131
 4730TIP3    H235826   3.404   3.445   2.459  0.3954 -1.0247 -0.0362
 4731TIP3   OH235827   6.077   2.635   7.633  0.6238  0.0712 -0.2345
 4731TIP3    H135828   6.028   2.666   7.710  0.5338  0.3938 -0.4197
 4731TIP3    H235829   6.014   2.581   7.586  0.4707  0.4100 -0.4234
 4732TIP3   OH235830   1.403   5.970   7.240 -0.0142  0.0008 -0.5531
 4732TIP3    H135831   1.492   5.959   7.207  0.1168 -1.1030  0.1365
 4732TIP3    H235832   1.356   5.892   7.212 -0.5289  0.1477 -0.1225
 4733TIP3   OH235833   3.801   4.884   1.862 -0.4486  0.3723  0.3144
 4733TIP3    H135834   3.886   4.907   1.898 -0.2425 -0.1441  0.1714
 4733TIP3    H235835   3.740   4.945   1.903  0.0240  0.9186  0.2197
 4734TIP3   OH235836   4.705   2.874   7.119 -0.9246 -1.2552 -0.5345
 4734TIP3    H135837   4.627   2.853   7.171 -0.0402 -0.2322  1.3034
 4734TIP3    H235838   4.671   2.919   7.042 -2.1197  0.9334  1.1513
 4735TIP3   OH235839   4.356   2.288   1.353 -0.2430 -0.5637  0.2951
 4735TIP3    H135840   4.402   2.356   1.402  0.1627 -1.5589  1.3106
 4735TIP3    H235841   4.418   2.216   1.348 -0.0855 -0.3517 -2.1023
 4736TIP3   OH235842   2.380   0.852   8.092 -0.4717  0.1673 -0.0090
 4736TIP3    H135843   2.407   0.940   8.119  0.4311  0.0721 -0.5604
 4736TIP3    H235844   2.306   0.832   8.148  1.2421 -0.0008  2.3286
 4737TIP3   OH235845   1.067   6.491   8.399  0.1444  0.4392  0.6915
 4737TIP3    H135846   0.976   6.476   8.371  0.7636 -0.5990 -0.9336
 4737TIP3    H235847   1.116   6.498   8.317  1.4870  1.4187  1.5413
 4738TIP3   OH235848   5.202   2.354   7.484 -0.3512  0.7307 -0.3024
 4738TIP3    H135849   5.261   2.422   7.451 -0.0976  1.1304  0.9178
 4738TIP3    H235850   5.210   2.283   7.421  1.8602  0.5558  0.0842
 4739TIP3   OH235851   5.193   3.470   0.579 -0.2047 -0.0145 -0.1871
 4739TIP3    H135852   5.169   3.521   0.656 -0.1570 -0.3421  0.0427
 4739TIP3    H235853   5.150   3.516   0.506 -2.0988 -0.9362  0.2807
 4740TIP3   OH235854   3.585   5.526   2.234  0.3940  0.4649  0.5578
 4740TIP3    H135855   3.526   5.589   2.195 -1.4856 -1.2724  0.4421
 4740TIP3    H235856   3.646   5.503   2.164  0.5699  1.4848  0.3626
 4741TIP3   OH235857   1.177   3.706   0.516  0.1931  0.0619 -0.2073
 4741TIP3    H135858   1.099   3.755   0.489  0.3592  0.5711  0.2224
 4741TIP3    H235859   1.228   3.768   0.568  0.8291 -0.3070 -0.3762
 4742TIP3   OH235860   2.479   6.168   1.498 -0.3326  0.0412  0.4132
 4742TIP3    H135861   2.568   6.195   1.475  0.3264 -1.3787  1.1582
 4742TIP3    H235862   2.422   6.220   1.441  1.1000 -1.1887 -2.3341
 4743TIP3   OH235863   2.558   6.745   7.178 -0.1775 -0.1541  0.7718
 4743TIP3    H135864   2.481   6.696   7.149 -1.0387  1.7418 -0.3339
 4743TIP3    H235865   2.625   6.722   7.114 -1.1171  1.4508 -0.8807
 4744TIP3   OH235866   0.417   4.263   1.790  0.7238  0.2825 -0.4557
 4744TIP3    H135867   0.346   4.251   1.727  0.8449  0.5031 -0.6391
 4744TIP3    H235868   0.492   4.218   1.750  0.7277  0.1844 -0.3377
 4745TIP3   OH235869   1.830   2.238   8.578 -0.7433  0.5340 -0.2713
 4745TIP3    H135870   1.848   2.213   8.668 -1.8209  0.9154  0.0693
 4745TIP3    H235871   1.909   2.214   8.530 -0.2620  0.0722  0.7207
 4746TIP3   OH235872   1.406   3.224   8.362 -0.2967  0.1204 -0.1083
 4746TIP3    H135873   1.357   3.147   8.393 -0.2890 -0.0151 -0.4340
 4746TIP3    H235874   1.426   3.273   8.442  0.1454 -0.4798  0.1534
 4747TIP3   OH235875   3.240   0.596   7.890 -0.5012  0.0132 -0.3711
 4747TIP3    H135876   3.287   0.550   7.960 -1.9230 -0.8333  0.0675
 4747TIP3    H235877   3.155   0.618   7.928 -0.9423  0.4051 -1.5236
 4748TIP3   OH235878   0.085   0.255   1.093  0.6376  0.0400  0.6327
 4748TIP3    H135879   0.061   0.249   1.000  1.5115 -0.5113  0.4232
 4748TIP3    H235880   0.135   0.336   1.099  0.8529 -0.0826  0.5436
 4749TIP3   OH235881   2.639   2.761   8.006  0.5260 -0.4692  0.7334
 4749TIP3    H135882   2.681   2.805   8.080  0.4980 -1.0930  1.1219
 4749TIP3    H235883   2.703   2.696   7.978  0.5854 -0.1625  0.1305
 4750TIP3   OH235884   0.681   5.614   0.334 -0.3750  0.0850  0.4038
 4750TIP3    H135885   0.767   5.655   0.320 -1.1012  1.5226 -0.0725
 4750TIP3    H235886   0.648   5.599   0.245 -0.0152 -1.9021  0.5456
 4751TIP3   OH235887   1.810   2.606   8.165 -0.2277  0.6177  0.4270
 4751TIP3    H135888   1.832   2.668   8.096  0.4964  0.4797  0.5276
 4751TIP3    H235889   1.720   2.629   8.190 -0.5151  0.6271 -0.5902
 4752TIP3   OH235890   1.599   0.361   0.164 -0.2215  0.0237 -0.1092
 4752TIP3    H135891   1.681   0.370   0.115 -0.2786 -0.2902 -0.2665
 4752TIP3    H235892   1.547   0.438   0.138  0.5756  0.9867  1.0835
 4753TIP3   OH235893   5.009   6.605   8.705 -0.1989  0.8143  0.4500
 4753TIP3    H135894   5.087   6.594   8.761  1.2557  0.0007 -1.6139
 4753TIP3    H235895   4.977   6.693   8.726  1.5119  1.3286  1.1177
 4754TIP3   OH235896   0.857   3.189   0.856 -0.0475  0.2471 -0.0185
 4754TIP3    H135897   0.832   3.235   0.936  0.2110  0.8567 -0.2838
 4754TIP3    H235898   0.800   3.112   0.854  0.2067  0.0099  0.9541
 4755TIP3   OH235899   1.992   1.362   7.994  0.1763 -0.1265 -0.1252
 4755TIP3    H135900   1.910   1.312   7.996 -0.4143  0.7649 -0.6708
 4755TIP3    H235901   2.047   1.316   7.931 -0.9848  0.7672 -1.8786
 4756TIP3   OH235902   1.804   5.867   7.617 -0.3172  1.1575  0.0919
 4756TIP3    H135903   1.900   5.866   7.615 -0.3171  0.3404  0.3671
 4756TIP3    H235904   1.783   5.873   7.711 -0.5415  0.1497  0.1102
 4757TIP3   OH235905   2.054   5.491   7.187 -0.2361  0.0350  0.1900
 4757TIP3    H135906   2.089   5.579   7.203  0.1189 -0.1447  0.4012
 4757TIP3    H235907   1.961   5.498   7.210 -0.4877  0.6715 -0.9641
 4758TIP3   OH235908   5.077   5.839   0.704 -0.2241  0.4206 -0.3635
 4758TIP3    H135909   5.120   5.873   0.782 -1.1966 -0.5863  0.6519
 4758TIP3    H235910   5.137   5.858   0.632 -0.0632  2.8936  0.3562
 4759TIP3   OH235911   2.835   2.929   0.941 -0.1608  0.0449  0.2644
 4759TIP3    H135912   2.872   2.926   1.029  1.5114  0.5526 -0.3797
 4759TIP3    H235913   2.755   2.981   0.951  0.1505  0.3358  1.4345
 4760TIP3   OH235914   1.553   3.451   2.499  0.0157 -0.1211 -0.2351
 4760TIP3    H135915   1.486   3.511   2.466 -0.5533 -0.6646 -0.0734
 4760TIP3    H235916   1.513   3.407   2.573  0.9974  0.4610  0.6665
 4761TIP3   OH235917   5.988   0.983   0.357  0.0134  0.2463  0.5393
 4761TIP3    H135918   6.040   0.994   0.437  0.4751  0.0524  0.2667
 4761TIP3    H235919   5.913   1.041   0.369  0.0576  0.1872  1.1346
 4762TIP3   OH235920   6.776   1.811   2.525 -0.3023  0.5391  0.6363
 4762TIP3    H135921   6.793   1.742   2.461  0.2672 -0.5204  1.8687
 4762TIP3    H235922   6.687   1.795   2.555 -0.3855  0.7141  0.4831
 4763TIP3   OH235923   0.243   4.560   0.837  0.7139  0.8132  0.0256
 4763TIP3    H135924   0.247   4.504   0.915  0.1460  0.6034 -0.0948
 4763TIP3    H235925   0.262   4.501   0.764 -0.6672  0.5876 -0.1846
 4764TIP3   OH235926   6.797   1.623   0.948 -0.4572  0.4358  0.0289
 4764TIP3    H135927   6.877   1.581   0.980  0.0403  0.4855 -1.0724
 4764TIP3    H235928   6.798   1.710   0.987  0.2787  0.5995 -0.3246
 4765TIP3   OH235929   4.998   3.122   7.862 -0.4027  0.2019 -0.1422
 4765TIP3    H135930   4.941   3.047   7.842 -1.0076  0.8085 -0.7062
 4765TIP3    H235931   4.964   3.157   7.944  2.3892 -2.6010  2.5427
 4766TIP3   OH235932   2.620   1.709   0.663  0.6897  0.5741 -0.2790
 4766TIP3    H135933   2.678   1.715   0.587 -0.5627 -0.8570 -1.3855
 4766TIP3    H235934   2.638   1.623   0.701 -0.4471  0.2447 -0.4485
 4767TIP3   OH235935   2.867   4.875   1.938  0.4872 -0.3310 -0.0671
 4767TIP3    H135936   2.843   4.959   1.900  0.3456  0.4713  1.6928
 4767TIP3    H235937   2.955   4.858   1.905 -0.8106 -1.3665 -3.3989
 4768TIP3   OH235938   3.948   1.353   2.096 -0.4781 -0.2554 -0.4760
 4768TIP3    H135939   3.951   1.268   2.140 -0.6031  0.3015  0.6465
 4768TIP3    H235940   3.923   1.414   2.165  0.5518  0.8421 -1.0380
 4769TIP3   OH235941   2.397   4.725   7.722 -0.3156 -0.5335  0.0558
 4769TIP3    H135942   2.483   4.736   7.681  0.0689 -0.2729  0.9081
 4769TIP3    H235943   2.369   4.814   7.743 -0.7249 -0.6287 -0.0899
 4770TIP3   OH235944   6.799   4.551   8.667 -0.1366  0.3882  0.1539
 4770TIP3    H135945   6.891   4.528   8.659 -0.0276  1.2647 -1.3327
 4770TIP3    H235946   6.786   4.565   8.761  1.1767  0.0127  0.4037
 4771TIP3   OH235947   2.882   0.989   1.861 -0.4822 -0.2951 -0.5168
 4771TIP3    H135948   2.839   1.051   1.920 -0.9334 -0.4385 -0.6934
 4771TIP3    H235949   2.871   1.026   1.774  0.5721  0.1395 -0.4751
 4772TIP3   OH235950   0.355   0.896   7.831  0.4179  0.4245 -0.7765
 4772TIP3    H135951   0.262   0.906   7.811  0.1372 -0.4839 -0.0007
 4772TIP3    H235952   0.400   0.947   7.764 -0.6559  1.2229 -0.9143
 4773TIP3   OH235953   1.646   5.633   6.797  0.4586 -0.5038  1.2782
 4773TIP3    H135954   1.558   5.662   6.773  0.1216 -1.0666  1.7799
 4773TIP3    H235955   1.682   5.597   6.717  0.8150  1.0868  0.6895
 4774TIP3   OH235956   1.413   2.778   0.078 -0.3431  0.1961 -0.6691
 4774TIP3    H135957   1.424   2.867   0.110 -0.6742  0.0765 -0.1981
 4774TIP3    H235958   1.503   2.745   0.068 -0.2003 -0.0844  1.1146
 4775TIP3   OH235959   6.796   6.712   6.968  0.2834 -0.0620 -0.1386
 4775TIP3    H135960   6.860   6.779   6.944 -0.3435  0.2328 -1.0004
 4775TIP3    H235961   6.738   6.705   6.893  0.2833 -1.5205 -0.0372
 4776TIP3   OH235962   4.699   4.088   1.624 -0.1563  0.7227 -0.0580
 4776TIP3    H135963   4.697   4.108   1.530  0.9910 -0.5312 -0.3762
 4776TIP3    H235964   4.772   4.027   1.634 -2.3383 -1.9390  1.0812
 4777TIP3   OH235965   4.882   4.704   7.602  0.6856  0.0807 -0.2138
 4777TIP3    H135966   4.862   4.707   7.695 -0.3220 -0.4481 -0.4063
 4777TIP3    H235967   4.851   4.788   7.568  0.4896  0.0169 -0.1887
 4778TIP3   OH235968   4.357   1.004   8.360 -0.5307 -0.2353  0.0425
 4778TIP3    H135969   4.289   0.943   8.387  1.1143 -1.0178  2.8095
 4778TIP3    H235970   4.422   0.950   8.315 -0.2956 -0.0738  0.1811
 4779TIP3   OH235971   3.772   0.843   7.273 -1.0951  0.0120  0.1960
 4779TIP3    H135972   3.731   0.855   7.187 -2.6862 -0.4706  0.8567
 4779TIP3    H235973   3.699   0.839   7.335  0.0467  4.2535  2.1600
 4780TIP3   OH235974   6.021   6.762   1.921 -0.2369 -0.1859  0.5397
 4780TIP3    H135975   6.111   6.740   1.899 -1.0609  0.1573 -4.1170
 4780TIP3    H235976   6.027   6.843   1.972  2.0489 -0.3528  0.6083
 4781TIP3   OH235977   5.812   4.589   7.299 -0.3827 -0.2282 -0.2482
 4781TIP3    H135978   5.891   4.641   7.314  0.2535 -1.0637 -0.6175
 4781TIP3    H235979   5.743   4.653   7.286  0.0142  0.5192  1.1792
 4782TIP3   OH235980   6.832   1.577   0.480  0.5484 -0.1042 -0.3934
 4782TIP3    H135981   6.912   1.602   0.434 -0.3731  3.2038 -0.4082
 4782TIP3    H235982   6.823   1.641   0.550 -1.3145 -1.3050  0.5439
 4783TIP3   OH235983   5.949   5.707   8.261  0.1612 -0.0272  0.3084
 4783TIP3    H135984   5.959   5.786   8.208 -1.2706  0.9530  1.3961
 4783TIP3    H235985   6.038   5.684   8.288  0.6765  0.7890 -0.6330
 4784TIP3   OH235986   1.008   1.904   7.503  0.1470  0.3050  0.2875
 4784TIP3    H135987   0.949   1.914   7.578  2.1360 -0.0457  1.9829
 4784TIP3    H235988   1.009   1.990   7.461 -0.5198  0.6828  1.0101
 4785TIP3   OH235989   5.936   5.242   0.831  0.4934 -0.0687 -0.5495
 4785TIP3    H135990   5.914   5.273   0.919  0.0170 -0.1430 -0.6398
 4785TIP3    H235991   5.888   5.300   0.772  1.4969  0.5393 -0.7962
 4786TIP3   OH235992   0.875   4.979   0.663 -0.8621 -0.2882  0.2565
 4786TIP3    H135993   0.784   4.965   0.634 -0.2753  0.9952 -2.6255
 4786TIP3    H235994   0.927   4.956   0.586  1.0164  2.0921  0.7015
 4787TIP3   OH235995   2.230   5.667   6.775 -0.0012 -0.5399 -0.0690
 4787TIP3    H135996   2.147   5.673   6.726 -0.0062  1.1929  0.1148
 4787TIP3    H235997   2.203   5.663   6.867  0.1153  0.7405  0.0346
 4788TIP3   OH235998   6.757   6.064   1.509 -0.2289 -0.4642 -0.4648
 4788TIP3    H135999   6.749   6.157   1.487  1.3374 -0.2043 -0.0505
 4788TIP3    H236000   6.667   6.031   1.505 -0.6481  0.7158 -2.0775
 4789TIP3   OH236001   4.650   0.581   7.792 -0.2949  0.0135  0.2145
 4789TIP3    H136002   4.575   0.611   7.844  0.0411 -3.0495  2.8059
 4789TIP3    H236003   4.724   0.585   7.853  1.3753  1.2537 -1.7417
 4790TIP3   OH236004   5.755   4.427   1.480 -0.6096 -0.0918 -0.2146
 4790TIP3    H136005   5.682   4.370   1.456 -0.2817  0.4478 -2.6873
 4790TIP3    H236006   5.806   4.375   1.543  0.0069 -2.8691 -2.7639
 4791TIP3   OH236007   6.098   5.427   2.233 -0.3522  0.5881  0.1171
 4791TIP3    H136008   6.020   5.386   2.197 -0.8632  1.5829  0.0540
 4791TIP3    H236009   6.156   5.354   2.254 -0.0461 -0.0714 -2.6202
 4792TIP3   OH236010   3.270   2.103   7.609  0.0089  0.0860  0.6201
 4792TIP3    H136011   3.193   2.048   7.617 -0.8416  1.1778  0.1603
 4792TIP3    H236012   3.237   2.192   7.616  1.0154  0.6382 -1.0838
 4793TIP3   OH236013   3.620   6.458   1.274 -0.1129  0.2587 -0.1691
 4793TIP3    H136014   3.704   6.412   1.275  0.9445  2.0555 -1.2239
 4793TIP3    H236015   3.566   6.411   1.338  1.3634 -1.4986 -0.1247
 4794TIP3   OH236016   3.581   5.686   1.641 -0.5565  0.0862 -0.2038
 4794TIP3    H136017   3.541   5.621   1.582 -0.2437  0.2792 -0.6299
 4794TIP3    H236018   3.513   5.752   1.652 -0.5528  0.1424 -0.4963
 4795TIP3   OH236019   3.063   3.899   7.869 -0.1574 -0.0567  0.2826
 4795TIP3    H136020   2.992   3.959   7.891 -0.0329  0.4416 -0.6599
 4795TIP3    H236021   3.133   3.955   7.835  0.5376 -0.5822  0.8080
 4796TIP3   OH236022   3.823   4.615   1.313  0.2760 -0.2518  0.3196
 4796TIP3    H136023   3.916   4.638   1.304 -0.0869  0.9411 -0.8155
 4796TIP3    H236024   3.794   4.664   1.390  0.1678  0.9454 -0.4495
 4797TIP3   OH236025   1.749   4.790   6.957  0.3124  0.4742  0.5509
 4797TIP3    H136026   1.767   4.696   6.955 -0.0710  0.3595  1.9313
 4797TIP3    H236027   1.740   4.811   7.050  1.0977  2.0195  0.3013
 4798TIP3   OH236028   3.248   5.134   0.760 -0.1263  0.7567 -0.4759
 4798TIP3    H136029   3.220   5.112   0.671  1.2949  0.2213 -0.8045
 4798TIP3    H236030   3.254   5.230   0.761 -2.4369  0.9611 -0.2244
 4799TIP3   OH236031   5.233   3.146   2.496 -0.1838 -0.6294 -0.0619
 4799TIP3    H136032   5.177   3.222   2.509 -0.6041 -0.9922  0.2841
 4799TIP3    H236033   5.244   3.141   2.401  1.6162  1.1056 -0.0055
 4800TIP3   OH236034   0.003   0.285   8.216  0.2075  0.1559  0.0960
 4800TIP3    H136035  -0.075   0.299   8.162  0.8093 -2.4722 -1.6408
 4800TIP3    H236036   0.031   0.374   8.241 -2.3334  1.2601 -0.5951
 4801TIP3   OH236037   0.679   5.744   7.273 -0.0819 -0.0613  0.0344
 4801TIP3    H136038   0.616   5.678   7.301 -0.5443  0.6362  0.6909
 4801TIP3    H236039   0.626   5.819   7.246  0.4337  0.0655 -0.6642
 4802TIP3   OH236040   3.301   6.384   1.079  0.7050 -0.0674  0.7511
 4802TIP3    H136041   3.234   6.323   1.111 -0.5153  0.7667 -0.1254
 4802TIP3    H236042   3.347   6.334   1.010 -0.2267 -0.0558  0.0993
 4803TIP3   OH236043   6.148   3.321   1.828  0.3375  0.0110  0.3075
 4803TIP3    H136044   6.150   3.237   1.874  2.2600 -0.6941 -0.9251
 4803TIP3    H236045   6.200   3.380   1.883 -2.4843  1.0144  2.1005
 4804TIP3   OH236046   1.365   0.666   8.487 -0.6593  0.4014  0.1092
 4804TIP3    H136047   1.375   0.727   8.414 -1.4040  0.7098  0.2519
 4804TIP3    H236048   1.452   0.660   8.526 -0.0152 -0.4944 -1.3569
 4805TIP3   OH236049   5.753   4.025   1.609 -0.4719 -0.0912  0.4718
 4805TIP3    H136050   5.733   3.961   1.541 -1.0466 -0.3924  0.9056
 4805TIP3    H236051   5.794   3.973   1.679  1.3235  0.4198 -0.1537
 4806TIP3   OH236052   4.044   1.671   7.065  0.4079  0.0885 -0.0003
 4806TIP3    H136053   4.109   1.739   7.048  1.3236 -0.7303  0.1645
 4806TIP3    H236054   3.960   1.716   7.057  0.9570  0.9808 -1.0954
 4807TIP3   OH236055   1.329   1.684   1.851  0.5824 -0.5853  0.9806
 4807TIP3    H136056   1.355   1.605   1.803  1.9141 -0.5770  1.6487
 4807TIP3    H236057   1.263   1.653   1.913 -2.3837 -0.3275 -1.8183
 4808TIP3   OH236058   3.953   3.308   2.487 -0.1384 -0.1104 -0.1156
 4808TIP3    H136059   3.930   3.220   2.518  2.0964 -0.0286  2.0463
 4808TIP3    H236060   3.994   3.350   2.563  1.2128  1.8940 -1.8540
 4809TIP3   OH236061   4.169   1.886   0.630  0.3858  0.1967  0.3026
 4809TIP3    H136062   4.157   1.915   0.540 -0.3021 -1.5251 -0.1881
 4809TIP3    H236063   4.104   1.937   0.680 -0.3483  0.0040 -0.4329
 4810TIP3   OH236064   5.928   5.064   8.393  0.1932 -0.1900  0.5631
 4810TIP3    H136065   5.915   5.006   8.319 -0.2617  0.4424  0.1409
 4810TIP3    H236066   5.933   5.151   8.355  2.7418 -0.0836  0.9812
 4811TIP3   OH236067   1.836   4.111   1.799 -0.0922 -0.2944 -0.0093
 4811TIP3    H136068   1.929   4.094   1.809  0.4978  2.2802 -0.2498
 4811TIP3    H236069   1.819   4.102   1.706  0.5721  1.7545 -0.3750
 4812TIP3   OH236070   1.649   0.244   0.743 -1.0751  0.2464 -0.1677
 4812TIP3    H136071   1.591   0.307   0.700 -2.1471 -0.1635  0.6169
 4812TIP3    H236072   1.591   0.171   0.767 -0.4707  0.2912  1.5960
 4813TIP3   OH236073   5.490   3.599   6.657  0.7784  0.0478  0.3281
 4813TIP3    H136074   5.440   3.680   6.671  0.7156 -0.1070  1.0252
 4813TIP3    H236075   5.505   3.597   6.563  2.3803  1.8345  0.4747
 4814TIP3   OH236076   4.942   3.957   2.124 -0.2124 -0.3298  0.3058
 4814TIP3    H136077   4.985   3.991   2.203 -2.1302 -2.2628  2.3382
 4814TIP3    H236078   4.905   4.034   2.082  2.6776  1.0274  0.0015
 4815TIP3   OH236079   3.777   5.451   1.815  0.2795  0.0148 -0.7887
 4815TIP3    H136080   3.810   5.528   1.769  0.5797 -0.5977 -1.6261
 4815TIP3    H236081   3.764   5.386   1.746  3.0829 -1.7893  0.2171
 4816TIP3   OH236082   6.787   6.614   0.117 -0.1526  0.1471 -0.4670
 4816TIP3    H136083   6.721   6.683   0.116  0.0663  0.3654 -0.2039
 4816TIP3    H236084   6.808   6.603   0.210  0.0091 -0.0822 -0.5302
 4817TIP3   OH236085   4.421   2.958   8.411 -0.5411 -0.1425  0.0791
 4817TIP3    H136086   4.426   2.877   8.361 -1.4392  0.0981 -0.4086
 4817TIP3    H236087   4.345   3.004   8.376  0.1957  1.1121  0.0539
 4818TIP3   OH236088   2.584   3.152   2.821 -0.5214  0.7498  0.5106
 4818TIP3    H136089   2.508   3.183   2.869 -1.0568 -0.3395  0.3972
 4818TIP3    H236090   2.592   3.059   2.844 -0.1390  0.4708 -0.6408
 4819TIP3   OH236091   4.271   5.861   0.515 -0.5275  0.0081 -0.5018
 4819TIP3    H136092   4.189   5.860   0.564  0.7136  1.6880  1.7763
 4819TIP3    H236093   4.333   5.814   0.571  0.6659  0.9522 -0.9901
 4820TIP3   OH236094   4.562   3.887   1.763  0.4298 -0.0246  0.3843
 4820TIP3    H136095   4.625   3.947   1.724 -0.4392  0.0878 -0.8954
 4820TIP3    H236096   4.477   3.923   1.741 -0.1057 -0.8736  0.9751
 4821TIP3   OH236097   6.190   2.430   8.367  0.6748 -0.1864 -0.1928
 4821TIP3    H136098   6.194   2.499   8.432  2.5320 -0.7021  0.3040
 4821TIP3    H236099   6.158   2.473   8.288  0.9963  1.0467  0.3280
 4822TIP3   OH236100   2.446   3.991   1.777 -0.3333  0.0663 -0.4988
 4822TIP3    H136101   2.523   3.938   1.757  0.4841  1.8036 -2.2604
 4822TIP3    H236102   2.475   4.049   1.848 -0.6809 -0.6324  0.2278
 4823TIP3   OH236103   6.756   4.300   7.415 -0.2256  0.0727 -0.7177
 4823TIP3    H136104   6.690   4.281   7.348  0.1639  1.0949 -1.4194
 4823TIP3    H236105   6.758   4.222   7.470 -1.1736 -0.4409 -1.3936
 4824TIP3   OH236106   2.789   4.609   0.600 -1.2751 -0.1618 -0.1546
 4824TIP3    H136107   2.756   4.523   0.571 -0.4961 -0.8721  0.9851
 4824TIP3    H236108   2.879   4.612   0.568 -0.8284 -0.4078  1.0217
 4825TIP3   OH236109   0.588   3.398   1.092  0.1038  0.4963  0.0545
 4825TIP3    H136110   0.517   3.335   1.082  2.1445 -1.9725  0.1575
 4825TIP3    H236111   0.605   3.401   1.186 -0.1015  1.4016  0.0756
 4826TIP3   OH236112   5.052   3.597   6.241  0.2730  0.2559 -0.5197
 4826TIP3    H136113   5.029   3.575   6.150  1.2825 -0.3009 -0.6553
 4826TIP3    H236114   5.056   3.512   6.285 -0.8234  0.5708  0.2049
 4827TIP3   OH236115   5.607   2.573   7.439 -0.5982 -0.3383 -0.2483
 4827TIP3    H136116   5.529   2.618   7.474 -0.0331 -0.0286  0.6486
 4827TIP3    H236117   5.595   2.482   7.463 -0.2897 -0.1536  0.6653
 4828TIP3   OH236118   6.343   2.351   8.706  0.1540  0.0827 -0.0685
 4828TIP3    H136119   6.352   2.435   8.750  0.6315 -0.4866  0.9814
 4828TIP3    H236120   6.432   2.331   8.675 -0.1793  0.4799 -1.3257
 4829TIP3   OH236121   5.622   4.373   0.653 -0.3176  0.1061  0.0644
 4829TIP3    H136122   5.558   4.371   0.724 -1.0524 -0.1412 -0.5951
 4829TIP3    H236123   5.573   4.406   0.577 -0.1748 -1.8029 -0.9198
 4830TIP3   OH236124   3.193   5.772   8.468  0.0681  0.2879 -0.5501
 4830TIP3    H136125   3.147   5.826   8.531  0.5479  0.4003 -0.2974
 4830TIP3    H236126   3.279   5.814   8.457  0.8647 -0.9841  0.4539
 4831TIP3   OH236127   0.773   4.160   6.679  0.0318 -0.0607  0.2358
 4831TIP3    H136128   0.708   4.149   6.609  0.2898  2.0250 -0.3816
 4831TIP3    H236129   0.736   4.225   6.738  0.3786 -0.8805  1.4068
 4832TIP3   OH236130   3.609   2.369   2.241 -0.4472 -0.1263  0.5453
 4832TIP3    H136131   3.659   2.294   2.271  0.0359 -1.1935 -2.5772
 4832TIP3    H236132   3.549   2.389   2.314  0.6182 -2.3686  2.1465
 4833TIP3   OH236133   0.004   5.804   7.236  0.5282  0.2292  0.3060
 4833TIP3    H136134   0.026   5.711   7.223  1.8294  0.6010 -0.3147
 4833TIP3    H236135  -0.051   5.826   7.161 -0.9098 -0.3524  1.1421
 4834TIP3   OH236136   2.995   3.302   1.469 -0.1705 -0.4297  0.3232
 4834TIP3    H136137   2.915   3.341   1.506  1.4624  1.5880  1.9516
 4834TIP3    H236138   3.050   3.377   1.446  2.4521 -1.6829  2.0340
 4835TIP3   OH236139   0.228   0.551   1.543  0.1119 -0.3530 -0.2007
 4835TIP3    H136140   0.171   0.626   1.557 -0.7399 -1.0422  0.1557
 4835TIP3    H236141   0.307   0.587   1.503 -0.8575  0.5423 -1.3804
 4836TIP3   OH236142   0.760   2.390   0.413  0.4905 -0.4466  0.6287
 4836TIP3    H136143   0.729   2.301   0.430  0.4220 -0.5237  0.1298
 4836TIP3    H236144   0.846   2.395   0.454  0.3766 -0.6549  0.8916
 4837TIP3   OH236145   2.542   6.472   8.735 -0.0400 -0.2074  0.0194
 4837TIP3    H136146   2.594   6.403   8.778 -0.1091 -0.5216 -0.4008
 4837TIP3    H236147   2.563   6.463   8.642 -3.2703 -2.4964 -0.6488
 4838TIP3   OH236148   5.619   4.389   7.706  0.3094  0.1150  0.1788
 4838TIP3    H136149   5.571   4.312   7.733  0.7350 -0.6346 -1.0988
 4838TIP3    H236150   5.686   4.401   7.774  0.6965 -1.0784  0.0308
 4839TIP3   OH236151   0.458   2.852   6.678 -0.0209 -0.3911 -0.4708
 4839TIP3    H136152   0.417   2.935   6.705  0.0311 -0.8425  1.1147
 4839TIP3    H236153   0.424   2.837   6.590  0.4387  1.6128 -1.0505
 4840TIP3   OH236154   2.092   6.492   1.632  0.1117 -0.0771  0.0080
 4840TIP3    H136155   2.065   6.459   1.547  1.5024 -1.0380 -0.0878
 4840TIP3    H236156   2.187   6.501   1.626  0.4157 -1.4077  1.8539
 4841TIP3   OH236157   2.027   6.111   8.140  0.2070 -0.7551 -0.1054
 4841TIP3    H136158   1.961   6.166   8.097  0.0668  0.1651  1.2096
 4841TIP3    H236159   1.991   6.095   8.227  1.4870 -0.6831  0.4512
 4842TIP3   OH236160   2.012   0.437   7.991  0.6016  0.3082 -0.0377
 4842TIP3    H136161   2.090   0.477   8.031  0.6599  1.7597 -1.5036
 4842TIP3    H236162   1.939   0.487   8.025  0.4516  0.0660 -0.0010
 4843TIP3   OH236163   5.072   3.261   0.169  0.3210 -0.6088 -0.0156
 4843TIP3    H136164   4.996   3.312   0.143 -0.7626 -2.2844 -0.2628
 4843TIP3    H236165   5.147   3.318   0.149 -0.8034  0.7297 -0.5718
 4844TIP3   OH236166   0.784   2.509   0.022 -0.0690  0.6290 -0.1207
 4844TIP3    H136167   0.829   2.509  -0.062 -0.5495  1.4337 -0.3888
 4844TIP3    H236168   0.737   2.592   0.025 -0.5117  0.3687  0.7014
 4845TIP3   OH236169   6.309   2.035   0.712 -0.5647 -0.1830 -0.0277
 4845TIP3    H136170   6.282   1.966   0.651 -0.4866 -1.0945  0.9413
 4845TIP3    H236171   6.344   1.988   0.788 -0.8990  0.9129  0.8375
 4846TIP3   OH236172   1.413   5.068   7.717 -0.0875  0.4724 -0.5917
 4846TIP3    H136173   1.433   5.074   7.810  0.3470  1.6663 -0.7487
 4846TIP3    H236174   1.455   4.986   7.689 -0.2960  0.0615  0.2664
 4847TIP3   OH236175   3.854   4.121   0.285  1.5483 -0.1779 -0.5918
 4847TIP3    H136176   3.876   4.123   0.192  2.2809  2.5930 -0.4360
 4847TIP3    H236177   3.883   4.206   0.318  1.2204 -1.0550  2.1637
 4848TIP3   OH236178   2.796   3.637   1.181 -0.5463 -0.0719 -0.2500
 4848TIP3    H136179   2.835   3.714   1.141  2.1503 -1.2403 -0.0293
 4848TIP3    H236180   2.818   3.644   1.274  0.3817 -1.4628 -0.3485
 4849TIP3   OH236181   2.429   5.604   1.119 -0.0568  0.0912 -0.4602
 4849TIP3    H136182   2.346   5.563   1.095 -1.9938  1.7535  2.6349
 4849TIP3    H236183   2.409   5.698   1.122  1.4971  0.4297  1.6496
 4850TIP3   OH236184   0.622   3.231   7.082  0.3724 -0.3925 -0.4418
 4850TIP3    H136185   0.541   3.196   7.119  0.2642  0.4632  0.1704
 4850TIP3    H236186   0.593   3.302   7.023  0.6794  0.0879 -0.0228
 4851TIP3   OH236187   3.786   6.777   2.590  0.2798  0.2797  0.1468
 4851TIP3    H136188   3.814   6.698   2.637  0.9153  0.7670  0.6029
 4851TIP3    H236189   3.691   6.780   2.603  0.2810 -0.2819  0.3274
 4852TIP3   OH236190   5.108   4.901   7.992  0.4906 -0.5269 -0.2320
 4852TIP3    H136191   5.136   4.992   8.006 -2.1370  0.3555 -0.0794
 4852TIP3    H236192   5.113   4.888   7.898  2.2459 -0.7597 -0.1384
 4853TIP3   OH236193   2.635   1.792   1.382 -0.1420 -0.7578 -0.4990
 4853TIP3    H136194   2.652   1.868   1.438 -2.1729  0.6675 -1.6501
 4853TIP3    H236195   2.620   1.720   1.443  1.4724 -0.1992  0.6384
 4854TIP3   OH236196   3.126   3.422   1.836  0.4406 -0.4204 -0.5070
 4854TIP3    H136197   3.159   3.361   1.770  1.4546  0.6371 -1.0243
 4854TIP3    H236198   3.112   3.503   1.788 -1.5499 -0.4166  0.0301
 4855TIP3   OH236199   2.794   3.848   0.893  0.0262 -0.1772  0.1169
 4855TIP3    H136200   2.859   3.906   0.931 -0.7456  0.5233  0.3901
 4855TIP3    H236201   2.735   3.906   0.845  0.4221 -0.9350 -1.3623
 4856TIP3   OH236202   2.902   0.013   0.975  0.3082 -0.2183  0.8479
 4856TIP3    H136203   2.955  -0.033   1.041  0.6462  1.6469  1.9708
 4856TIP3    H236204   2.876   0.094   1.019 -0.3253  0.6155 -0.9964
 4857TIP3   OH236205   2.433   1.103   7.491  0.2711 -0.1442  0.1399
 4857TIP3    H136206   2.515   1.153   7.489 -0.8636  1.9207  1.1095
 4857TIP3    H236207   2.427   1.073   7.582 -0.4725  0.5406  0.3267
 4858TIP3   OH236208   3.777   4.905   7.906 -0.0019  0.0346 -0.3649
 4858TIP3    H136209   3.793   4.997   7.884  0.0164 -0.3438 -2.0801
 4858TIP3    H236210   3.693   4.885   7.863 -2.0665  0.2456  3.1496
 4859TIP3   OH236211   3.288   4.284   6.960  0.0345 -1.0208 -0.1917
 4859TIP3    H136212   3.323   4.197   6.981 -2.7607 -2.0774  0.5040
 4859TIP3    H236213   3.225   4.269   6.890 -0.5079  0.4549 -0.0635
 4860TIP3   OH236214   6.622   3.241   7.453 -0.3359  0.1405 -0.0408
 4860TIP3    H136215   6.589   3.232   7.543 -1.1138 -1.0496 -0.4195
 4860TIP3    H236216   6.715   3.256   7.464 -0.4305  0.1136  0.9810
 4861TIP3   OH236217   3.158   1.971   0.409  0.4258  0.0521  0.2875
 4861TIP3    H136218   3.102   2.037   0.450 -3.1431 -0.9201 -2.4979
 4861TIP3    H236219   3.222   2.022   0.359 -2.0529  1.6204 -1.5729
 4862TIP3   OH236220   4.164   1.516   2.042 -0.6308  0.5501  0.5596
 4862TIP3    H136221   4.096   1.462   2.081 -2.4701  2.0367 -0.3992
 4862TIP3    H236222   4.206   1.560   2.117 -2.1203  1.1483  1.0723
 4863TIP3   OH236223   2.980   3.054   8.779  0.2339  0.3934  0.0586
 4863TIP3    H136224   2.953   2.962   8.772  0.6979  0.2336  0.3455
 4863TIP3    H236225   2.995   3.067   8.872  0.5060  0.6659 -0.0249
 4864TIP3   OH236226   6.215   5.741   0.288 -0.2712 -0.1367  0.5216
 4864TIP3    H136227   6.213   5.652   0.254 -0.2898 -0.6082  1.7198
 4864TIP3    H236228   6.144   5.744   0.352 -0.1800  0.7004  0.5951
 4865TIP3   OH236229   3.508   3.549   0.062 -0.1321  0.1764 -0.2670
 4865TIP3    H136230   3.547   3.622   0.110  1.0836  0.5343 -1.7193
 4865TIP3    H236231   3.430   3.586   0.020  1.0886  1.0234 -1.9249
 4866TIP3   OH236232   1.136   4.530   7.855 -0.2261  0.2531  1.0709
 4866TIP3    H136233   1.107   4.525   7.764  0.2916  3.0627  0.6617
 4866TIP3    H236234   1.055   4.538   7.905 -0.6914 -3.4700  1.2372
 4867TIP3   OH236235   6.546   4.460   7.675  0.1572  0.0808  0.0314
 4867TIP3    H136236   6.601   4.511   7.617  1.1633  0.4040  1.2331
 4867TIP3    H236237   6.468   4.440   7.623  0.5063  1.3492 -1.0248
 4868TIP3   OH236238   5.436   6.376   1.213  0.4995 -0.2067 -0.0263
 4868TIP3    H136239   5.416   6.334   1.297  2.4269  0.4120  0.7851
 4868TIP3    H236240   5.443   6.304   1.151  2.0300 -0.9752  0.9844
 4869TIP3   OH236241   2.323   1.381   7.078  0.2844  0.0552 -0.2839
 4869TIP3    H136242   2.306   1.345   7.165  0.6508  0.3226 -0.0988
 4869TIP3    H236243   2.237   1.406   7.045 -0.0040 -1.1112 -0.4751
 4870TIP3   OH236244   4.675   0.374   0.523 -0.1283  0.3512 -0.1440
 4870TIP3    H136245   4.738   0.368   0.595 -0.3702  1.3814  0.1665
 4870TIP3    H236246   4.724   0.348   0.445  0.2891 -0.2159  0.3025
 4871TIP3   OH236247   5.089   3.252   0.696 -0.0390  0.3834  0.1789
 4871TIP3    H136248   5.114   3.336   0.657 -0.5566  0.0678 -0.8617
 4871TIP3    H236249   5.140   3.247   0.776  0.6725  1.2881 -0.2020
 4872TIP3   OH236250   1.202   6.683   8.547  0.0424 -0.3401 -0.2641
 4872TIP3    H136251   1.280   6.711   8.499  1.0537 -1.2464  0.7750
 4872TIP3    H236252   1.160   6.620   8.490  1.7677 -2.1555  0.3551
 4873TIP3   OH236253   5.425   5.607   0.666  0.3294 -0.6046 -0.1141
 4873TIP3    H136254   5.473   5.603   0.749  0.1730 -0.1170  0.0005
 4873TIP3    H236255   5.468   5.542   0.610 -1.2258 -2.9771  1.2275
 4874TIP3   OH236256   1.272   6.248   2.003 -0.0540  0.1242 -0.0353
 4874TIP3    H136257   1.253   6.233   1.910  1.4001  1.6534 -0.6134
 4874TIP3    H236258   1.210   6.315   2.029 -0.2006 -0.0241  0.0014
 4875TIP3   OH236259   6.813   1.205   0.745  0.0748 -0.4620 -0.2510
 4875TIP3    H136260   6.804   1.236   0.654 -1.3633 -0.5511 -0.1661
 4875TIP3    H236261   6.906   1.183   0.753  0.2849 -0.2303 -1.6303
 4876TIP3   OH236262   3.345   5.148   2.095 -0.1910  0.1744 -0.1745
 4876TIP3    H136263   3.287   5.114   2.028  0.0505  0.5361 -0.5685
 4876TIP3    H236264   3.431   5.152   2.054  0.5796 -2.2514  0.9848
 4877TIP3   OH236265   0.366   2.588   0.167  0.2606 -0.3370 -0.3318
 4877TIP3    H136266   0.401   2.678   0.167  2.7045 -1.2082 -0.0060
 4877TIP3    H236267   0.282   2.595   0.211  0.7272  1.6871  0.3345
 4878TIP3   OH236268   3.885   5.378   0.208  0.1675  0.3520  0.0814
 4878TIP3    H136269   3.899   5.348   0.118  1.2831 -0.2310  0.4243
 4878TIP3    H236270   3.946   5.452   0.218 -1.8129  2.1469 -0.4267
 4879TIP3   OH236271   6.086   6.477   1.658  0.4612  0.5106  0.5816
 4879TIP3    H136272   6.022   6.469   1.729  0.3760 -4.0757  0.2734
 4879TIP3    H236273   6.032   6.480   1.578  0.6485  3.0611  0.4396
 4880TIP3   OH236274   1.546   5.770   1.700  0.2064 -0.0106 -0.4510
 4880TIP3    H136275   1.462   5.766   1.655  0.8990 -0.7198 -1.7281
 4880TIP3    H236276   1.568   5.679   1.719  0.8275  0.1493 -0.3950
 4881TIP3   OH236277   2.001   3.010   1.365  0.3689 -0.0747 -0.4282
 4881TIP3    H136278   2.087   3.010   1.406  0.5548 -0.4879 -0.8118
 4881TIP3    H236279   1.989   2.921   1.333 -0.9766 -0.5242  1.2032
 4882TIP3   OH236280   2.685   0.404   1.133 -0.7360  1.2791 -0.0198
 4882TIP3    H136281   2.650   0.409   1.044  0.2295 -0.3598 -0.5421
 4882TIP3    H236282   2.623   0.346   1.179  0.5604 -0.7196 -0.6419
 4883TIP3   OH236283   2.727   3.261   0.217  0.5546 -0.6881  0.2451
 4883TIP3    H136284   2.735   3.259   0.312  0.1407  1.0876  0.3599
 4883TIP3    H236285   2.817   3.262   0.185  0.6978 -1.5249  0.5866
 4884TIP3   OH236286   6.507   6.252   7.444 -0.3781  0.1205  0.4253
 4884TIP3    H136287   6.472   6.178   7.393 -0.8458  0.4163  0.3091
 4884TIP3    H236288   6.454   6.253   7.524 -0.3943  0.3457  0.4122
 4885TIP3   OH236289   1.254   4.429   1.449  0.4240 -0.1072 -0.0514
 4885TIP3    H136290   1.320   4.484   1.405 -1.5504  0.0143 -3.2048
 4885TIP3    H236291   1.170   4.467   1.423 -0.9492 -1.9382  1.4291
 4886TIP3   OH236292   2.095   4.666   0.903  0.7527 -0.9963  0.0222
 4886TIP3    H136293   2.113   4.584   0.948  0.7249  0.2259  2.4089
 4886TIP3    H236294   2.081   4.729   0.973 -0.4379  0.8048 -1.7355
 4887TIP3   OH236295   0.474   2.413   8.509 -0.2760 -0.0886  0.3572
 4887TIP3    H136296   0.554   2.458   8.536 -0.5525  1.3149 -0.9615
 4887TIP3    H236297   0.408   2.444   8.571 -0.3057  0.7765 -0.0881
 4888TIP3   OH236298   0.006   3.624   8.174 -0.4012 -0.9692  0.0656
 4888TIP3    H136299  -0.035   3.549   8.131 -0.6122  0.0934 -1.6766
 4888TIP3    H236300  -0.064   3.688   8.184  0.2961 -0.0340 -0.8179
 4889TIP3   OH236301   4.531   4.836   1.074  0.4392 -0.1606  0.5024
 4889TIP3    H136302   4.584   4.756   1.079  0.7734  0.0038 -0.3445
 4889TIP3    H236303   4.592   4.903   1.043 -0.1464  0.1508  0.0103
 4890TIP3   OH236304   3.452   0.267   8.337  0.2651 -0.8637  0.2086
 4890TIP3    H136305   3.422   0.348   8.377  0.0031 -0.3096 -1.0622
 4890TIP3    H236306   3.467   0.207   8.411 -0.0003  0.1760  1.1215
 4891TIP3   OH236307   3.223   1.305   7.189 -0.1297  0.6423  0.5307
 4891TIP3    H136308   3.255   1.230   7.138 -0.6640  0.6879  0.1226
 4891TIP3    H236309   3.227   1.275   7.280 -1.2406 -0.2455  0.3131
 4892TIP3   OH236310   0.269   3.678   7.739  0.4110  0.0522 -0.4210
 4892TIP3    H136311   0.304   3.591   7.720  0.2666 -0.2930  0.7849
 4892TIP3    H236312   0.332   3.716   7.801 -0.5133  0.0267  0.5696
 4893TIP3   OH236313   6.205   1.729   0.322  0.0131 -0.1256 -0.3190
 4893TIP3    H136314   6.224   1.637   0.339  0.6413 -0.2267 -1.4311
 4893TIP3    H236315   6.250   1.747   0.239  0.5953  1.4030  0.3045
 4894TIP3   OH236316   1.183   6.216   1.737 -0.1697 -0.2751  0.1682
 4894TIP3    H136317   1.150   6.137   1.693 -1.7796 -1.4937  3.2438
 4894TIP3    H236318   1.104   6.260   1.768  0.8091  1.5157  0.2364
 4895TIP3   OH236319   1.355   5.290   8.251 -0.0691 -0.0291 -0.0610
 4895TIP3    H136320   1.388   5.376   8.226 -1.0945  0.4960  0.3283
 4895TIP3    H236321   1.328   5.250   8.168  1.3792 -0.4137 -0.3638
 4896TIP3   OH236322   5.716   6.053   1.229 -0.1316 -0.5635  0.6485
 4896TIP3    H136323   5.630   6.093   1.224  0.4715  0.7556  0.3952
 4896TIP3    H236324   5.763   6.104   1.295  0.9611 -0.2193 -0.3538
 4897TIP3   OH236325   5.162   0.195   8.132 -0.6503 -0.3590  0.1606
 4897TIP3    H136326   5.201   0.170   8.048  0.3481  3.5104 -0.7124
 4897TIP3    H236327   5.068   0.199   8.114 -0.2955  3.1463 -1.8196
 4898TIP3   OH236328   3.286   1.331   1.385 -0.0486  0.0094 -0.2050
 4898TIP3    H136329   3.286   1.413   1.336  1.7463  0.2724  0.1736
 4898TIP3    H236330   3.292   1.263   1.317  0.7976  0.2996 -0.4266
 4899TIP3   OH236331   3.155   1.031   1.728 -0.4783  0.0486  0.2511
 4899TIP3    H136332   3.154   1.080   1.646 -0.5305  0.4998  0.5220
 4899TIP3    H236333   3.079   1.062   1.776  0.1468  0.5675  0.9285
 4900TIP3   OH236334   2.514   2.198   0.370 -0.2397  0.3328  0.0602
 4900TIP3    H136335   2.592   2.161   0.411  1.7563  1.0770 -2.7480
 4900TIP3    H236336   2.472   2.250   0.439  2.3630  0.8165  1.3868
 4901TIP3   OH236337   4.141   6.228   7.851  0.3244  0.8291 -0.2071
 4901TIP3    H136338   4.134   6.133   7.837 -0.9822  1.0117 -0.9442
 4901TIP3    H236339   4.196   6.258   7.778 -0.3746  0.7999 -0.7609
 4902TIP3   OH236340   4.481   6.831   0.664  0.9210 -0.0353 -0.2027
 4902TIP3    H136341   4.532   6.849   0.743  1.4112 -1.0766 -0.2622
 4902TIP3    H236342   4.475   6.735   0.662 -1.9709  0.0404  0.4097
 4903TIP3   OH236343   2.026   0.726   7.065 -0.2018  0.0269  0.4129
 4903TIP3    H136344   1.942   0.744   7.021  0.5092  0.2115 -0.9245
 4903TIP3    H236345   2.050   0.809   7.106  0.2056  0.5337 -0.7860
 4904TIP3   OH236346   2.228   0.524   8.161  0.8563  0.3198 -0.4746
 4904TIP3    H136347   2.240   0.453   8.224 -0.6762 -0.1678 -0.6923
 4904TIP3    H236348   2.316   0.541   8.127  1.4941 -0.3359  0.7958
 4905TIP3   OH236349   2.279   2.441   8.143  0.0466 -0.3817 -0.2311
 4905TIP3    H136350   2.273   2.345   8.140 -0.1500 -0.3449 -1.7124
 4905TIP3    H236351   2.250   2.469   8.057  1.4728  0.9487 -0.3085
 4906TIP3   OH236352   2.373   5.592   2.603  0.0105  0.4646 -0.7402
 4906TIP3    H136353   2.376   5.676   2.648  1.1219  1.4235 -2.5103
 4906TIP3    H236354   2.282   5.564   2.612 -0.5641  2.2124 -0.7581
 4907TIP3   OH236355   2.525   1.118   7.165  0.1936 -0.6647  0.0862
 4907TIP3    H136356   2.487   1.032   7.181  2.3346 -1.6779  0.0854
 4907TIP3    H236357   2.456   1.180   7.190 -1.3892 -2.3540  0.1008
 4908TIP3   OH236358   5.007   1.413   2.166 -0.1102 -0.2350  0.1755
 4908TIP3    H136359   4.926   1.412   2.115 -0.1932 -0.5841  0.3145
 4908TIP3    H236360   5.035   1.505   2.165 -1.2722  0.1649  1.3367
 4909TIP3   OH236361   1.281   1.338   8.646  0.1032 -0.6680  0.2045
 4909TIP3    H136362   1.214   1.313   8.710  0.0445 -2.5000 -0.5154
 4909TIP3    H236363   1.233   1.343   8.563  0.2650  1.2401  0.1788
 4910TIP3   OH236364   2.138   0.922   0.453  0.1426 -0.4204 -0.3626
 4910TIP3    H136365   2.078   0.936   0.380 -0.8856  0.2332  0.5644
 4910TIP3    H236366   2.141   1.007   0.497  0.3632 -0.9239  0.6165
 4911TIP3   OH236367   4.183   3.027   0.249  0.2402 -0.1256  0.6465
 4911TIP3    H136368   4.184   2.972   0.328 -0.0355  0.1077  0.8177
 4911TIP3    H236369   4.245   2.985   0.190 -0.1095 -0.7378  0.6968
 4912TIP3   OH236370   4.704   5.880   7.633  0.0658  0.3590 -0.3505
 4912TIP3    H136371   4.731   5.942   7.565  1.7213  1.3375  1.0816
 4912TIP3    H236372   4.731   5.795   7.600  4.6207  1.1435  0.5441
 4913TIP3   OH236373   4.270   4.350   6.526  0.2346 -0.4929 -0.0619
 4913TIP3    H136374   4.343   4.411   6.525  1.1516 -1.5158 -2.8410
 4913TIP3    H236375   4.193   4.405   6.543  1.3192  0.9734  0.2956
 4914TIP3   OH236376   2.582   0.535   1.578  0.6369 -0.0584  0.2764
 4914TIP3    H136377   2.539   0.529   1.492 -0.6974  0.2293  0.9031
 4914TIP3    H236378   2.512   0.557   1.639  1.2325 -1.8254  1.7162
 4915TIP3   OH236379   0.578   3.239   1.587 -0.3407  0.0301  0.7055
 4915TIP3    H136380   0.555   3.149   1.561  1.2243 -0.0324 -0.6588
 4915TIP3    H236381   0.672   3.234   1.606 -0.1871  1.4307  0.3778
 4916TIP3   OH236382   6.778   5.382   1.746  0.0893  1.1256  0.1084
 4916TIP3    H136383   6.726   5.357   1.669 -0.3630  1.8709  0.1640
 4916TIP3    H236384   6.713   5.401   1.814  0.4809  0.6209  0.6366
 4917TIP3   OH236385   0.054   2.240   1.703 -0.5661  0.0609 -0.2740
 4917TIP3    H136386   0.030   2.286   1.623  0.1267  0.8583 -0.0387
 4917TIP3    H236387   0.096   2.159   1.673 -2.4405 -0.8144 -0.6845
 4918TIP3   OH236388   1.889   1.829   7.016  0.4419  0.3762 -0.1798
 4918TIP3    H136389   1.925   1.782   7.092  1.2349  1.2234 -0.0184
 4918TIP3    H236390   1.962   1.880   6.982 -0.2469  1.0265 -0.7232
 4919TIP3   OH236391   6.480   4.383   8.163 -0.3247  0.7241 -0.1534
 4919TIP3    H136392   6.521   4.434   8.234 -0.9599  2.2878 -0.8667
 4919TIP3    H236393   6.476   4.444   8.090 -4.2157  0.8132 -0.0554
 4920TIP3   OH236394   6.453   4.095   0.836  0.4975  0.0456  0.0902
 4920TIP3    H136395   6.444   4.090   0.931  0.1855 -0.4456  0.0397
 4920TIP3    H236396   6.456   4.004   0.807 -0.7714  0.1565 -0.4838
 4921TIP3   OH236397   4.405   1.381   6.327 -0.6561  0.4015  0.2480
 4921TIP3    H136398   4.315   1.355   6.344 -1.0669  0.9662 -0.9463
 4921TIP3    H236399   4.448   1.301   6.296 -0.5732 -0.0028  1.3410
 4922TIP3   OH236400   5.249   4.331   6.656  0.9602 -0.4698  0.3410
 4922TIP3    H136401   5.213   4.355   6.570 -0.5474  0.6116  1.2054
 4922TIP3    H236402   5.263   4.237   6.651 -0.6019 -0.6950 -0.6032
 4923TIP3   OH236403   3.288   4.815   7.132  0.2397 -0.0847  0.3561
 4923TIP3    H136404   3.323   4.902   7.151 -0.9185  0.4488  0.1182
 4923TIP3    H236405   3.235   4.828   7.053 -4.6030  0.2973  3.2724
 4924TIP3   OH236406   6.100   2.794   8.768 -0.1900 -0.5771  0.2949
 4924TIP3    H136407   6.152   2.871   8.745 -2.3417  0.8562 -0.0782
 4924TIP3    H236408   6.094   2.796   8.863  1.7241 -1.6861  0.4738
 4925TIP3   OH236409   4.632   0.037   0.910 -0.1722  0.7259 -0.4931
 4925TIP3    H136410   4.626  -0.034   0.973 -1.4810  1.7007  0.5173
 4925TIP3    H236411   4.663   0.112   0.960  1.0124  0.9595 -1.5047
 4926TIP3   OH236412   1.572   4.434   7.580  0.1295  0.1622  0.0537
 4926TIP3    H136413   1.594   4.478   7.498 -1.4042  2.0769  0.6052
 4926TIP3    H236414   1.477   4.423   7.578  0.2745 -1.6999  0.6868
 4927TIP3   OH236415   3.165   4.973   6.315 -0.1904  0.0981 -0.0822
 4927TIP3    H136416   3.138   4.893   6.361 -3.0929 -0.5038 -2.5617
 4927TIP3    H236417   3.233   4.944   6.254 -1.3669 -0.5811 -1.1098
 4928TIP3   OH236418   3.695   5.218   7.070 -0.0916 -0.5233  0.4752
 4928TIP3    H136419   3.673   5.255   7.156 -0.7830 -0.7865  0.4221
 4928TIP3    H236420   3.753   5.145   7.089 -1.1949 -1.3387  0.8248
 4929TIP3   OH236421   0.200   5.656   3.132  0.2070 -0.1351  0.3536
 4929TIP3    H136422   0.105   5.661   3.140  0.0103 -1.0210 -1.1481
 4929TIP3    H236423   0.223   5.576   3.181  0.2473  0.3235  1.0998
 4930TIP3   OH236424   3.115   1.181   0.122  0.3255 -0.5769  0.9192
 4930TIP3    H136425   3.115   1.124   0.199 -0.4118 -0.3643  1.0874
 4930TIP3    H236426   3.044   1.243   0.139 -1.5416 -2.0345 -1.0138
 4931TIP3   OH236427   0.481   4.013   1.964  0.2324  0.3328  0.6683
 4931TIP3    H136428   0.392   4.048   1.967 -0.0105 -0.2469  0.3731
 4931TIP3    H236429   0.479   3.940   2.027  0.3433 -0.0244  0.2569
 4932TIP3   OH236430   2.117   4.081   0.115 -0.5463 -0.4498 -0.1218
 4932TIP3    H136431   2.028   4.056   0.136 -1.3801  1.1805 -1.4938
 4932TIP3    H236432   2.109   4.164   0.067  1.7952  0.6073  1.0908
 4933TIP3   OH236433   6.406   3.039   1.769  0.1587 -0.7051  0.1401
 4933TIP3    H136434   6.490   3.055   1.725  0.0254  2.2339  0.7481
 4933TIP3    H236435   6.388   3.120   1.816 -3.6355 -0.7481 -0.9502
 4934TIP3   OH236436   1.665   5.925   8.312  0.0405 -0.1103  0.0514
 4934TIP3    H136437   1.740   5.975   8.344  1.1191 -0.7083 -1.4123
 4934TIP3    H236438   1.699   5.836   8.299 -0.9089 -0.3883 -0.6331
 4935TIP3   OH236439   0.871   3.325   8.158 -0.5305 -0.3038  0.0634
 4935TIP3    H136440   0.824   3.385   8.100 -1.3355  0.5292  1.5192
 4935TIP3    H236441   0.904   3.257   8.100 -0.7907  0.7981 -1.4476
 4936TIP3   OH236442   6.592   4.844   7.248  0.5202  0.0887  0.2324
 4936TIP3    H136443   6.594   4.772   7.185  1.3681 -0.7957  1.2464
 4936TIP3    H236444   6.500   4.873   7.247 -0.3216 -2.2497  1.1456
 4937TIP3   OH236445   1.484   3.103   1.415  0.1715  0.1563  0.0276
 4937TIP3    H136446   1.524   3.180   1.376 -0.4984  0.9274  0.8218
 4937TIP3    H236447   1.557   3.056   1.457  0.8647 -0.5764 -1.8877
 4938TIP3   OH236448   2.816   5.913   8.297  0.2428  0.2716  0.4368
 4938TIP3    H136449   2.838   6.000   8.264 -1.2100  0.0705 -1.1637
 4938TIP3    H236450   2.811   5.924   8.392 -0.8329  2.1871  0.2062
 4939TIP3   OH236451   3.000   4.235   7.586  0.0142 -0.3904  0.2567
 4939TIP3    H136452   3.087   4.273   7.596  0.4666 -1.7586  1.9715
 4939TIP3    H236453   3.016   4.143   7.566 -1.0247 -0.8239  1.3060
 4940TIP3   OH236454   4.204   6.183   1.506  0.1491  0.0578 -0.3792
 4940TIP3    H136455   4.218   6.267   1.549  1.5324 -0.0799 -0.5449
 4940TIP3    H236456   4.152   6.133   1.568 -0.2345  0.8399 -0.0568
 4941TIP3   OH236457   1.058   1.356   0.045 -0.3395 -0.3744 -0.5479
 4941TIP3    H136458   1.012   1.355  -0.038 -0.2688  0.8696 -0.6233
 4941TIP3    H236459   0.994   1.326   0.109 -0.8737  0.1185 -0.8382
 4942TIP3   OH236460   5.900   1.288   6.729 -0.0254  0.2620  0.0822
 4942TIP3    H136461   5.877   1.213   6.784  1.5554 -0.4769 -0.1973
 4942TIP3    H236462   5.970   1.332   6.777  0.0521  0.7195 -0.4391
 4943TIP3   OH236463   3.932   2.548   0.489  0.1119 -0.4452 -0.2258
 4943TIP3    H136464   3.861   2.603   0.521  1.3245  0.4854  1.0171
 4943TIP3    H236465   3.978   2.603   0.426  0.3516 -0.6371 -0.2190
 4944TIP3   OH236466   3.413   0.803   8.367 -0.3553  0.0004  0.3850
 4944TIP3    H136467   3.497   0.836   8.396 -0.1462 -0.1334 -0.0556
 4944TIP3    H236468   3.349   0.845   8.424  0.0772 -0.7426  1.4574
 4945TIP3   OH236469   5.512   2.279   7.203 -0.4615 -0.1832  0.4896
 4945TIP3    H136470   5.432   2.332   7.209 -1.3724 -1.4858  0.3650
 4945TIP3    H236471   5.527   2.269   7.109  0.6646  1.2009  0.4969
 4946TIP3   OH236472   2.314   5.991   7.229 -0.1835  0.5292 -0.0746
 4946TIP3    H136473   2.296   6.053   7.300 -1.8128  0.6548 -0.5637
 4946TIP3    H236474   2.404   5.963   7.245  0.7512  3.2648 -0.0196
 4947TIP3   OH236475   6.322   3.550   2.596  0.0924 -0.1901 -0.1973
 4947TIP3    H136476   6.269   3.629   2.605 -0.0032 -0.2845  0.0996
 4947TIP3    H236477   6.322   3.511   2.684 -0.3858 -0.8506 -0.4727
 4948TIP3   OH236478   6.723   2.329   8.085 -0.3471 -0.1697  0.2115
 4948TIP3    H136479   6.800   2.381   8.062  1.5005 -2.2274  1.3344
 4948TIP3    H236480   6.699   2.358   8.173  1.0970 -1.5489  1.1139
 4949TIP3   OH236481   4.162   0.724   7.443  0.0425 -0.1392  0.0676
 4949TIP3    H136482   4.083   0.726   7.390 -1.6946 -1.4652  2.3770
 4949TIP3    H236483   4.176   0.631   7.462  1.3383  0.1798  0.8276
 4950TIP3   OH236484   5.278   6.028   7.351 -0.2740 -0.7479 -0.0872
 4950TIP3    H136485   5.254   6.042   7.259  0.8105  0.8289 -0.1642
 4950TIP3    H236486   5.355   5.971   7.346 -0.0390 -0.4271 -0.1835
 4951TIP3   OH236487   3.614   0.172   0.176 -0.2761  0.3604 -0.0116
 4951TIP3    H136488   3.680   0.135   0.234 -0.7667 -0.9024 -0.2098
 4951TIP3    H236489   3.658   0.245   0.132  1.1286 -0.7112 -0.4654
 4952TIP3   OH236490   6.120   5.703   7.889  0.3467  0.3787  0.8475
 4952TIP3    H136491   6.145   5.611   7.896 -1.4143 -0.2713 -0.7133
 4952TIP3    H236492   6.190   5.743   7.836  0.1900 -0.4953 -0.0387
 4953TIP3   OH236493   0.346   6.814   7.330  0.0454  0.2936 -0.1433
 4953TIP3    H136494   0.256   6.808   7.297 -0.4613  0.6623  1.0972
 4953TIP3    H236495   0.401   6.787   7.257 -1.0991 -0.2737 -0.8180
 4954TIP3   OH236496   2.050   4.321   7.565 -0.5468  0.0653 -0.0776
 4954TIP3    H136497   2.130   4.368   7.540  0.1385 -0.1531  1.5968
 4954TIP3    H236498   1.984   4.390   7.573 -0.0431  0.5096  0.3888
 4955TIP3   OH236499   6.758   0.734   1.281  0.1980  0.3822  0.4222
 4955TIP3    H136500   6.691   0.800   1.266 -0.4149 -0.3273 -0.0274
 4955TIP3    H236501   6.796   0.757   1.366 -1.4101  0.1221  1.2461
 4956TIP3   OH236502   1.824   1.643   7.704 -0.0672 -0.0923  0.3112
 4956TIP3    H136503   1.830   1.638   7.800  1.4072  2.1619  0.4073
 4956TIP3    H236504   1.812   1.736   7.686  0.3411 -0.3979 -1.7226
 4957TIP3   OH236505   3.482   4.274   1.358  0.2731 -0.3044  0.2696
 4957TIP3    H136506   3.440   4.239   1.437 -0.8006  0.1793 -0.0621
 4957TIP3    H236507   3.576   4.263   1.373  0.0670 -0.5386  1.4595
 4958TIP3   OH236508   4.134   3.712   7.492  0.0697 -0.1749  0.9634
 4958TIP3    H136509   4.164   3.801   7.472  0.7336 -0.4480  0.7257
 4958TIP3    H236510   4.039   3.716   7.480  0.3701 -0.3792 -2.6748
 4959TIP3   OH236511   2.814   2.004   1.945 -0.0256 -0.0270 -0.1457
 4959TIP3    H136512   2.823   2.086   1.896  1.0781 -0.3481 -0.5002
 4959TIP3    H236513   2.859   2.021   2.027 -0.8276  0.1019  0.2825
 4960TIP3   OH236514   6.599   0.170   6.978 -0.4506 -0.1744  0.5335
 4960TIP3    H136515   6.506   0.145   6.975 -0.5638 -0.1828  2.5895
 4960TIP3    H236516   6.626   0.174   6.886 -2.3602 -0.6280 -0.0921
 4961TIP3   OH236517   5.618   0.116   8.473 -0.0397 -0.0075 -0.5844
 4961TIP3    H136518   5.596   0.102   8.380  1.8824 -0.6048 -1.0021
 4961TIP3    H236519   5.709   0.146   8.471  0.4885 -1.3210  1.1669
 4962TIP3   OH236520   0.051   1.019   7.992  0.3771  0.0095  0.3741
 4962TIP3    H136521   0.030   1.041   7.902 -2.1210 -1.0784  0.6141
 4962TIP3    H236522   0.019   1.094   8.043 -1.0214 -0.6863  0.5624
 4963TIP3   OH236523   4.234   3.560   6.594  0.4858  0.2289 -0.6913
 4963TIP3    H136524   4.266   3.495   6.657 -2.0431 -0.3629  0.1092
 4963TIP3    H236525   4.161   3.516   6.550  1.6009  0.9586 -3.4668
 4964TIP3   OH236526   0.556   5.589   7.533  0.6150  0.3070 -0.4014
 4964TIP3    H136527   0.506   5.591   7.451 -0.4969 -0.9625  0.2072
 4964TIP3    H236528   0.611   5.511   7.525  0.0424 -0.1777  0.3085
 4965TIP3   OH236529   5.322   6.338   8.547  0.7850 -0.2088 -0.1148
 4965TIP3    H136530   5.396   6.322   8.606 -0.2471 -1.0606  0.9978
 4965TIP3    H236531   5.316   6.258   8.495  0.3875 -0.3064  0.0826
 4966TIP3   OH236532   1.195   0.878   7.757 -0.1511 -0.2218  0.6301
 4966TIP3    H136533   1.264   0.812   7.756 -0.5031 -0.6386 -1.7558
 4966TIP3    H236534   1.116   0.831   7.734 -0.9039  0.6018  1.4313
 4967TIP3   OH236535   3.100   3.179   8.317 -0.1343  0.1155 -0.3076
 4967TIP3    H136536   3.162   3.221   8.378 -1.2276 -0.3201  1.1602
 4967TIP3    H236537   3.067   3.104   8.365 -0.1651 -0.9470 -1.9273
 4968TIP3   OH236538   1.412   5.178   8.552  0.1450  0.2494 -0.5077
 4968TIP3    H136539   1.361   5.130   8.486 -1.5127  2.2031 -0.7334
 4968TIP3    H236540   1.408   5.269   8.523  1.9732  0.7480  0.6804
 4969TIP3   OH236541   2.795   1.216   7.763  0.0953  0.0711  0.1760
 4969TIP3    H136542   2.740   1.189   7.836 -0.5730 -0.7065 -0.6084
 4969TIP3    H236543   2.824   1.135   7.722 -0.9015  0.4800 -1.4361
 4970TIP3   OH236544   0.626   6.036   8.155 -0.3749 -0.3855 -0.2752
 4970TIP3    H136545   0.693   6.092   8.116 -1.8427  1.0551 -0.8401
 4970TIP3    H236546   0.653   5.947   8.133  1.6599  0.1163  0.0576
 4971TIP3   OH236547   2.443   2.285   7.564 -0.1791  0.6222 -0.2700
 4971TIP3    H136548   2.378   2.222   7.595  0.0159  1.0251  0.9968
 4971TIP3    H236549   2.508   2.231   7.518 -0.5374  0.0282 -0.0954
 4972TIP3   OH236550   4.996   0.005   0.492 -0.3531 -0.9062 -0.2307
 4972TIP3    H136551   5.068  -0.011   0.553 -0.4536 -0.6466 -0.0415
 4972TIP3    H236552   4.919   0.016   0.548 -0.4191 -0.5200 -0.3948
 4973TIP3   OH236553   3.419   1.033   0.037  0.0330  0.7651  0.1218
 4973TIP3    H136554   3.363   1.097  -0.005 -0.3896  0.5157  0.2975
 4973TIP3    H236555   3.360   0.983   0.094  0.3253  0.1087 -0.1429
 4974TIP3   OH236556   4.101   3.472   1.674 -0.0019 -0.5484 -0.3474
 4974TIP3    H136557   4.075   3.387   1.638 -0.7724 -0.1579 -0.7484
 4974TIP3    H236558   4.050   3.535   1.623  1.8963  0.2852 -1.3192
 4975TIP3   OH236559   1.719   5.814   0.948 -0.2501  0.1251  0.1326
 4975TIP3    H136560   1.777   5.826   1.023 -0.7679  1.1479  0.3750
 4975TIP3    H236561   1.660   5.889   0.950  0.2736  0.6576 -1.7919
 4976TIP3   OH236562   2.932   0.750   1.592 -0.0056  0.7408  0.1356
 4976TIP3    H136563   2.922   0.842   1.616 -1.3945  0.9085 -0.9364
 4976TIP3    H236564   3.018   0.745   1.551  0.1694  1.5218  0.4005
 4977TIP3   OH236565   4.452   0.610   6.509 -0.6986  0.3526  0.4538
 4977TIP3    H136566   4.521   0.549   6.483 -0.5066  0.2165  1.2536
 4977TIP3    H236567   4.388   0.606   6.438  0.8071  1.6156 -1.0798
 4978TIP3   OH236568   4.302   3.502   7.899 -0.2035  0.0990 -0.3628
 4978TIP3    H136569   4.300   3.569   7.831 -1.1702 -0.0015 -0.4541
 4978TIP3    H236570   4.236   3.530   7.962  0.3131 -0.0839  0.2717
 4979TIP3   OH236571   4.531   5.948   7.839 -0.6536  0.1014 -0.1868
 4979TIP3    H136572   4.600   5.914   7.782  0.2036  2.6977 -0.8220
 4979TIP3    H236573   4.460   5.971   7.779 -0.1217  1.9573 -0.1460
 4980TIP3   OH236574   3.244   3.179   8.752  0.2041 -0.0260 -0.4203
 4980TIP3    H136575   3.156   3.142   8.748 -0.1933  0.8598 -0.0755
 4980TIP3    H236576   3.234   3.258   8.804  1.2352  0.0129 -0.2684
 4981TIP3   OH236577   5.376   4.808   2.724  0.4281 -0.5662 -0.5275
 4981TIP3    H136578   5.393   4.737   2.786  1.8435  0.7000  0.6033
 4981TIP3    H236579   5.316   4.866   2.771  1.0861  0.1267 -0.5251
 4982TIP3   OH236580   6.034   5.264   0.164 -0.0045  0.2410 -0.7412
 4982TIP3    H136581   6.025   5.180   0.120 -3.3925  0.3672 -0.5353
 4982TIP3    H236582   5.951   5.277   0.208  0.0023  4.1253 -1.5205
 4983TIP3   OH236583   6.785   2.796   8.269 -0.2335 -0.0680  0.2094
 4983TIP3    H136584   6.694   2.765   8.272 -0.3187  0.1897  0.3038
 4983TIP3    H236585   6.811   2.782   8.178 -0.8450  1.1924 -0.1875
 4984TIP3   OH236586   4.711   2.946   7.468  0.4635  0.3347 -0.2374
 4984TIP3    H136587   4.644   2.909   7.411 -1.1829  1.8225  0.6343
 4984TIP3    H236588   4.749   3.018   7.418  1.6803 -0.7062 -0.8538
 4985TIP3   OH236589   5.889   3.719   8.563 -0.4426 -0.3966  0.0035
 4985TIP3    H136590   5.867   3.762   8.646 -0.6270  2.5806 -1.4693
 4985TIP3    H236591   5.980   3.691   8.575 -0.9103 -1.3575  1.6830
 4986TIP3   OH236592   5.782   2.107   1.719 -0.2654 -0.4490 -0.2876
 4986TIP3    H136593   5.715   2.063   1.666 -0.9522  2.3312 -1.9332
 4986TIP3    H236594   5.743   2.111   1.807 -2.0503  0.4807 -1.0552
 4987TIP3   OH236595   1.453   0.779   7.485 -0.0504 -0.2864 -0.1463
 4987TIP3    H136596   1.497   0.795   7.401 -1.2892  0.0185 -0.7590
 4987TIP3    H236597   1.404   0.859   7.502  0.2319 -0.3246  0.9141
 4988TIP3   OH236598   0.464   5.957   1.653 -0.1891  0.4554 -0.3868
 4988TIP3    H136599   0.402   5.918   1.714 -0.1807  1.6714  0.4302
 4988TIP3    H236600   0.540   5.979   1.707  0.0928  0.9279 -0.9625
 4989TIP3   OH236601   2.715   1.419   0.879 -0.1224  0.0361  0.0608
 4989TIP3    H136602   2.729   1.374   0.796  0.6961 -0.7500  0.6020
 4989TIP3    H236603   2.621   1.433   0.884 -0.0369  1.8205 -1.8652
 4990TIP3   OH236604   2.416   0.635   1.867 -0.3140 -0.5456 -0.3752
 4990TIP3    H136605   2.494   0.687   1.844  0.0657 -1.6468 -1.7482
 4990TIP3    H236606   2.450   0.546   1.877 -1.4381 -1.1002 -1.3350
 4991TIP3   OH236607   6.608   5.387   1.993  0.2336 -0.0048 -0.0468
 4991TIP3    H136608   6.663   5.409   2.068 -0.0209 -1.3734  0.5675
 4991TIP3    H236609   6.538   5.333   2.030  0.5526 -1.3940 -1.3936
 4992TIP3   OH236610   5.771   4.415   7.986 -0.2607 -0.1903  0.5379
 4992TIP3    H136611   5.866   4.413   7.998 -0.1785  1.6434  0.4190
 4992TIP3    H236612   5.736   4.431   8.073 -0.4580 -0.6579  0.5476
 4993TIP3   OH236613   6.641   3.181   1.269  0.5256  0.1025  0.0162
 4993TIP3    H136614   6.549   3.160   1.287  0.1436  1.5702 -0.1062
 4993TIP3    H236615   6.676   3.208   1.354  0.5615  0.5043 -0.1237
 4994TIP3   OH236616   6.111   5.810   7.151  0.1608 -0.0307  0.1441
 4994TIP3    H136617   6.190   5.766   7.119  0.0020 -0.8134  0.7964
 4994TIP3    H236618   6.043   5.743   7.145 -0.5492  0.7333 -0.7300
 4995TIP3   OH236619   3.452   6.238   6.117 -0.0993  0.2566 -0.2303
 4995TIP3    H136620   3.511   6.285   6.057  0.3255 -0.2057 -0.1827
 4995TIP3    H236621   3.399   6.307   6.156  2.5103  1.1282  2.1378
 4996TIP3   OH236622   6.557   3.646   0.025  0.0086  0.3971  0.0374
 4996TIP3    H136623   6.593   3.735   0.026 -0.4776  0.6086 -0.5531
 4996TIP3    H236624   6.629   3.591  -0.004 -0.2664  0.8784 -1.6368
 4997TIP3   OH236625   5.913   1.687   0.250  0.7162 -0.1646  0.2399
 4997TIP3    H136626   6.008   1.690   0.240  0.5278  0.3482 -1.8814
 4997TIP3    H236627   5.890   1.775   0.280  0.7491  0.4814 -1.5097
 4998TIP3   OH236628   1.122   2.722   7.851 -0.5825  0.0005 -0.3450
 4998TIP3    H136629   1.159   2.805   7.883  0.5698 -1.0779  1.3224
 4998TIP3    H236630   1.199   2.670   7.828 -1.0846 -1.6301  1.4069
 4999TIP3   OH236631   1.368   2.127   1.677 -0.5913  0.5109 -0.2545
 4999TIP3    H136632   1.425   2.050   1.677 -1.5620 -0.2675 -1.8123
 4999TIP3    H236633   1.416   2.193   1.727  1.0239 -0.5595 -0.3232
 5000TIP3   OH236634   4.547   3.609   0.869  0.3761 -0.2207 -0.2521
 5000TIP3    H136635   4.597   3.687   0.896  0.4205 -0.3712  0.1039
 5000TIP3    H236636   4.458   3.641   0.859  0.7719  0.3599 -2.2450
 5001TIP3   OH236637   2.642   1.063   1.394  0.1780 -0.0733  0.9054
 5001TIP3    H136638   2.613   1.107   1.314  0.5805 -0.1065  0.7400
 5001TIP3    H236639   2.665   1.134   1.454 -0.8934 -0.0348  1.2834
 5002TIP3   OH236640   5.396   2.735   2.592 -0.2778  0.0357  0.0150
 5002TIP3    H136641   5.393   2.817   2.642 -1.5687  0.9232 -1.4500
 5002TIP3    H236642   5.316   2.689   2.617 -0.6957  0.2725 -0.8737
 5003TIP3   OH236643   2.345   2.965   8.487 -0.5062 -0.3115 -0.3426
 5003TIP3    H136644   2.265   3.012   8.463 -0.9802 -1.1826 -0.4739
 5003TIP3    H236645   2.352   2.977   8.582 -0.2001  0.6619 -0.4672
 5004TIP3   OH236646   6.508   5.590   1.691  0.0597  0.0064 -0.0517
 5004TIP3    H136647   6.448   5.561   1.622  0.0831 -1.8618  0.6724
 5004TIP3    H236648   6.454   5.592   1.770  0.4206  0.5516  0.1851
 5005TIP3   OH236649   3.697   2.343   0.561  0.1076  0.1899 -0.0591
 5005TIP3    H136650   3.754   2.420   0.558 -0.2625  0.4940  0.5286
 5005TIP3    H236651   3.609   2.377   0.547  0.1216 -0.3817 -1.8741
 5006TIP3   OH236652   6.766   1.893   6.934  0.8491 -0.1957 -0.6979
 5006TIP3    H136653   6.740   1.944   6.857  0.5121  1.9411  0.7415
 5006TIP3    H236654   6.710   1.816   6.932 -0.7965  0.9484 -1.3635
 5007TIP3   OH236655   4.183   4.409   2.147 -0.1301  0.4485  0.4090
 5007TIP3    H136656   4.197   4.438   2.237 -0.3953  1.9957 -0.0334
 5007TIP3    H236657   4.266   4.425   2.103 -1.1428  3.5691 -0.6011
 5008TIP3   OH236658   5.003   3.482   7.299  0.1868 -0.7539  0.1514
 5008TIP3    H136659   4.968   3.463   7.212 -0.2455  0.3675  0.0730
 5008TIP3    H236660   4.954   3.424   7.357 -1.8762  0.7641  0.0462
 5009TIP3   OH236661   1.013   3.433   7.704 -0.2597  0.1230 -0.6450
 5009TIP3    H136662   0.961   3.512   7.722 -2.3683 -1.4977  0.8548
 5009TIP3    H236663   1.059   3.416   7.786  0.1955 -0.1796 -0.9637
 5010TIP3   OH236664   5.792   1.804   8.040 -0.3459  0.1990  0.5434
 5010TIP3    H136665   5.797   1.870   7.970  3.3191 -0.4054  0.0798
 5010TIP3    H236666   5.740   1.733   8.002  0.2978  0.5231 -1.0197
 5011TIP3   OH236667   0.095   0.715   8.019 -0.3153  0.1869 -0.0611
 5011TIP3    H136668   0.132   0.803   8.021 -1.1905  0.5612  0.5686
 5011TIP3    H236669   0.148   0.665   8.080 -0.3315  0.4979  0.2090
 5012TIP3   OH236670   0.933   6.617   7.653 -0.5844 -0.5582  0.2898
 5012TIP3    H136671   0.920   6.673   7.576 -0.1974 -0.1412  0.5241
 5012TIP3    H236672   0.846   6.613   7.694 -0.2975  1.2372  1.1836
 5013TIP3   OH236673   4.616   3.454   6.514 -0.7766 -0.3932  0.1352
 5013TIP3    H136674   4.705   3.472   6.544 -0.7436 -0.8260  0.3041
 5013TIP3    H236675   4.564   3.447   6.594 -0.8686 -0.6091  0.0580
 5014TIP3   OH236676   4.202   1.198   0.528  0.2903  0.0102  0.7015
 5014TIP3    H136677   4.163   1.188   0.441  1.0971  0.2514  0.3074
 5014TIP3    H236678   4.228   1.109   0.552  1.9066  0.2141 -0.1856
 5015TIP3   OH236679   1.480   2.009   7.205  0.2833 -0.3243 -0.4345
 5015TIP3    H136680   1.498   1.961   7.124  0.0500 -1.9715  0.4352
 5015TIP3    H236681   1.563   2.049   7.229  0.0132  1.5166 -2.2538
 5016TIP3   OH236682   0.159   2.833   2.275  0.7238 -0.2145  0.5329
 5016TIP3    H136683   0.165   2.815   2.369 -1.5942 -0.5825  0.6707
 5016TIP3    H236684   0.151   2.747   2.235  0.4470  0.0030  0.1221
 5017TIP3   OH236685   0.683   5.211   6.859  0.6578  0.1154  0.0326
 5017TIP3    H136686   0.622   5.156   6.810  0.3638  1.1339 -0.7760
 5017TIP3    H236687   0.692   5.290   6.807 -0.5155  1.7191  2.1174
 5018TIP3   OH236688   2.067   2.848   0.653 -0.4710 -0.5586  0.4655
 5018TIP3    H136689   2.130   2.781   0.626  0.7112  1.0118 -0.8824
 5018TIP3    H236690   1.991   2.834   0.597 -0.6006 -1.2896  0.8072
 5019TIP3   OH236691   1.149   4.266   1.248 -0.3357  0.6159 -0.2641
 5019TIP3    H136692   1.222   4.297   1.303 -0.1311  0.2114 -0.3017
 5019TIP3    H236693   1.178   4.179   1.218 -0.7654  0.5253 -0.4125
 5020TIP3   OH236694   3.849   6.574   7.048  0.1622 -0.1306  0.4193
 5020TIP3    H136695   3.769   6.624   7.064 -0.0146 -0.1119 -0.4529
 5020TIP3    H236696   3.919   6.633   7.075 -0.0669  0.4010 -0.1108
 5021TIP3   OH236697   2.437   2.547   6.504 -0.1032  0.5226  0.2018
 5021TIP3    H136698   2.347   2.571   6.525 -1.0887 -1.2375 -1.5896
 5021TIP3    H236699   2.489   2.582   6.576 -2.2815  1.0526  1.6184
 5022TIP3   OH236700   6.719   1.832   7.198  0.1439  0.0652  0.0652
 5022TIP3    H136701   6.625   1.840   7.207  0.2882  0.2739  1.7210
 5022TIP3    H236702   6.747   1.912   7.155 -0.4548 -0.1383 -0.7139
 5023TIP3   OH236703   2.993   6.333   0.209 -0.1803  0.1690 -0.0699
 5023TIP3    H136704   2.943   6.349   0.289 -0.5480 -0.3017 -0.2007
 5023TIP3    H236705   3.084   6.345   0.235 -0.1843 -1.3413  0.7713
 5024TIP3   OH236706   0.788   1.910   7.163 -0.5698  0.3296 -0.4182
 5024TIP3    H136707   0.775   1.993   7.117  1.8372  1.2444  0.3897
 5024TIP3    H236708   0.882   1.904   7.175 -0.6213 -2.7649 -0.7948
 5025TIP3   OH236709   1.885   3.983   8.645  0.6395  0.6865  0.0371
 5025TIP3    H136710   1.916   4.063   8.603  1.1296  0.7340  0.4732
 5025TIP3    H236711   1.950   3.917   8.623 -1.0154 -0.2642 -2.4110
 5026TIP3   OH236712   4.549   3.323   0.868  0.1816 -0.0487 -0.2077
 5026TIP3    H136713   4.523   3.415   0.861  1.1833  0.1773 -1.5844
 5026TIP3    H236714   4.645   3.326   0.863  0.1833 -1.2207 -1.2817
 5027TIP3   OH236715   0.969   5.963   0.033 -0.2144 -0.5324  0.3697
 5027TIP3    H136716   0.963   5.998   0.122  1.9222  2.2701 -0.4767
 5027TIP3    H236717   0.902   6.010  -0.016 -0.4663 -1.0797  0.1783
 5028TIP3   OH236718   2.664   4.132   1.390  0.1646 -0.4350 -0.0074
 5028TIP3    H136719   2.755   4.145   1.418  0.0481 -0.8294  0.5696
 5028TIP3    H236720   2.625   4.219   1.398  0.2662 -0.4363  0.5967
 5029TIP3   OH236721   2.095   1.772   8.663 -0.4204 -0.0733 -0.0235
 5029TIP3    H136722   2.002   1.749   8.661 -0.7890  1.2206  0.8023
 5029TIP3    H236723   2.109   1.822   8.582 -0.8992  1.2544  0.6827
 5030TIP3   OH236724   1.847   4.346   0.322  0.2686  0.0032 -0.4474
 5030TIP3    H136725   1.927   4.309   0.358  0.3209  0.5473  0.0182
 5030TIP3    H236726   1.848   4.438   0.352 -0.3801  0.0872 -0.6724
 5031TIP3   OH236727   4.712   4.244   1.842  0.7714  0.4078  0.3035
 5031TIP3    H136728   4.690   4.205   1.757 -3.0255  0.4572  1.0751
 5031TIP3    H236729   4.698   4.173   1.905  1.7269  0.8743  1.0663
 5032TIP3   OH236730   4.473   0.720   7.096  0.0030  0.0428  0.0164
 5032TIP3    H136731   4.553   0.677   7.126 -0.8438 -1.6916 -0.0671
 5032TIP3    H236732   4.488   0.813   7.112  2.2936 -0.1594 -0.6486
 5033TIP3   OH236733   3.730   1.332   6.116 -0.4760  0.0830 -0.0785
 5033TIP3    H136734   3.808   1.333   6.060 -1.3666  0.0050 -1.3815
 5033TIP3    H236735   3.680   1.408   6.087 -1.4839 -0.5985 -0.1583
 5034TIP3   OH236736   0.254   6.653   2.524 -0.7558  0.4124  0.0874
 5034TIP3    H136737   0.263   6.736   2.569 -0.5913  1.1210 -1.1986
 5034TIP3    H236738   0.317   6.595   2.568 -0.7380  1.0103  0.8686
 5035TIP3   OH236739   6.622   4.779   1.709  0.1423 -0.8093 -0.4474
 5035TIP3    H136740   6.617   4.703   1.651 -0.6497 -1.5966  0.6067
 5035TIP3    H236741   6.533   4.787   1.745 -0.0138  1.1126 -1.1395
 5036TIP3   OH236742   3.050   2.323   0.706 -0.3975 -0.1424  0.3279
 5036TIP3    H136743   3.070   2.231   0.725 -0.5351 -0.3227 -0.3500
 5036TIP3    H236744   3.115   2.373   0.756  2.4384 -0.7203 -2.3997
 5037TIP3   OH236745   2.148   1.804   6.724 -0.1281  0.6939  0.3278
 5037TIP3    H136746   2.151   1.716   6.688  2.1950  0.0829  1.8523
 5037TIP3    H236747   2.181   1.860   6.653 -0.4099  0.2059 -0.2001
 5038TIP3   OH236748   4.096   2.692   0.678 -0.4092  0.3769 -0.5611
 5038TIP3    H136749   4.074   2.673   0.770  1.0245  0.2754 -0.2274
 5038TIP3    H236750   4.048   2.626   0.628  1.7235 -2.0483  0.3648
 5039TIP3   OH236751   1.123   6.527   0.323  0.1201  0.3225 -0.3142
 5039TIP3    H136752   1.094   6.494   0.408 -0.2985 -1.3717 -1.0539
 5039TIP3    H236753   1.190   6.591   0.342 -0.4889  0.5082  1.3086
 5040TIP3   OH236754   6.163   2.953   1.660  0.1336  0.8879 -0.1717
 5040TIP3    H136755   6.200   2.872   1.623 -1.5072 -1.6833  3.2972
 5040TIP3    H236756   6.237   2.993   1.707  0.5546  0.4897 -0.4792
 5041TIP3   OH236757   6.607   6.777   1.058 -0.5335 -0.4214  0.1722
 5041TIP3    H136758   6.644   6.695   1.027  2.4384  0.7390  0.3214
 5041TIP3    H236759   6.532   6.793   1.000  0.9847 -1.4806 -2.2424
 5042TIP3   OH236760   3.439   6.439   7.143  0.1109  0.2597  0.4845
 5042TIP3    H136761   3.506   6.411   7.205  0.2230  2.1548  1.2977
 5042TIP3    H236762   3.379   6.364   7.137  2.8080 -1.9571 -1.1628
 5043TIP3   OH236763   0.278   3.074   7.585 -0.0267 -0.4477 -0.8687
 5043TIP3    H136764   0.368   3.055   7.558 -0.1978 -1.6864 -0.6174
 5043TIP3    H236765   0.267   3.027   7.668 -0.0871  1.8319  0.5044
 5044TIP3   OH236766   3.794   3.843   0.145  0.2056 -0.1453 -0.0787
 5044TIP3    H136767   3.878   3.828   0.188 -0.0416 -0.3502  0.3369
 5044TIP3    H236768   3.786   3.770   0.083  0.5186  0.1006 -0.4181
 5045TIP3   OH236769   5.927   4.980   8.134 -1.0658  0.1703 -0.4071
 5045TIP3    H136770   5.874   5.031   8.073 -0.1615 -0.8766 -2.1545
 5045TIP3    H236771   6.002   4.951   8.082  0.3558  0.1589  1.5173
 5046TIP3   OH236772   2.149   0.307   1.727  0.4523 -0.0563  0.1083
 5046TIP3    H136773   2.139   0.374   1.659  1.2247  0.3533  0.3880
 5046TIP3    H236774   2.205   0.348   1.792  1.3800 -1.1688  0.0304
 5047TIP3   OH236775   3.913   4.156   1.266 -0.5205 -0.0281 -0.5277
 5047TIP3    H136776   3.849   4.212   1.310 -1.5960 -1.5418 -0.0892
 5047TIP3    H236777   3.881   4.067   1.281 -0.1334 -0.6841 -3.1419
 5048TIP3   OH236778   0.124   6.675   0.813 -0.1263  0.1112  0.4820
 5048TIP3    H136779   0.147   6.586   0.787 -1.7331  0.1422 -1.2586
 5048TIP3    H236780   0.190   6.730   0.771  0.4446 -0.1951  0.9617
 5049TIP3   OH236781   5.032   5.921   7.398  0.2844  0.2136  0.1035
 5049TIP3    H136782   5.088   5.996   7.376 -1.1155  1.4454  0.5355
 5049TIP3    H236783   4.965   5.958   7.456 -0.8156 -1.2474 -0.1878
 5050TIP3   OH236784   0.088   3.343   2.489 -0.0299 -0.6734 -0.1751
 5050TIP3    H136785   0.112   3.255   2.463  1.6202 -0.2846 -0.0940
 5050TIP3    H236786   0.113   3.398   2.414  1.1070 -0.0297  0.6273
 5051TIP3   OH236787   3.134   5.560   1.163 -0.0038  0.0509  0.3299
 5051TIP3    H136788   3.155   5.654   1.161 -1.2959  0.3497  0.0255
 5051TIP3    H236789   3.121   5.537   1.071  1.3522 -0.7024  0.2959
 5052TIP3   OH236790   2.777   0.793   2.368  0.4874 -0.5671  0.5700
 5052TIP3    H136791   2.702   0.806   2.308  1.0035 -0.3754 -0.0475
 5052TIP3    H236792   2.741   0.811   2.455  0.3760  1.9375  0.0738
 5053TIP3   OH236793   3.361   0.072   1.528  0.3887 -0.4580 -0.1209
 5053TIP3    H136794   3.312   0.119   1.595  2.8406  1.7012  0.3363
 5053TIP3    H236795   3.318   0.095   1.446 -0.5574 -0.2642  0.4198
 5054TIP3   OH236796   4.770   4.443   7.581  0.2536  0.0113  0.1211
 5054TIP3    H136797   4.855   4.400   7.593  1.0056  1.2639 -0.5350
 5054TIP3    H236798   4.791   4.529   7.547 -1.3086  0.3066 -0.1781
 5055TIP3   OH236799   3.222   2.778   7.693  0.2731 -1.3119 -0.2948
 5055TIP3    H136800   3.130   2.759   7.713  0.1837 -1.1901 -0.5767
 5055TIP3    H236801   3.218   2.859   7.641  0.6238 -0.7014  0.6087
 5056TIP3   OH236802   4.793   3.520   2.182 -0.0638 -0.0732  0.3168
 5056TIP3    H136803   4.824   3.539   2.094 -1.1410 -2.8208 -0.8002
 5056TIP3    H236804   4.871   3.497   2.232  0.3772 -0.4918 -0.5506
 5057TIP3   OH236805   2.714   0.711   7.233 -0.0804 -0.4733  0.4441
 5057TIP3    H136806   2.749   0.788   7.278  1.5214 -1.3899  0.8343
 5057TIP3    H236807   2.625   0.702   7.267 -0.3868  1.3038  0.2271
 5058TIP3   OH236808   6.169   3.649   0.443  0.2103 -0.7664  0.1658
 5058TIP3    H136809   6.143   3.736   0.414 -1.8576 -1.9348 -1.8273
 5058TIP3    H236810   6.182   3.658   0.537 -0.3770  1.5815  0.0888
 5059TIP3   OH236811   2.269   2.636   0.612  0.0040 -0.4208  0.3861
 5059TIP3    H136812   2.242   2.552   0.575  0.0741 -0.0970 -0.4331
 5059TIP3    H236813   2.326   2.674   0.545  0.7782 -0.1531  1.1695
 5060TIP3   OH236814   3.289   1.792   1.234 -0.0662  0.1161 -0.2027
 5060TIP3    H136815   3.313   1.874   1.191  0.7160  0.1868  0.3337
 5060TIP3    H236816   3.338   1.793   1.316  0.6975 -1.2985 -0.5920
 5061TIP3   OH236817   5.272   5.314   8.554 -0.3798  0.8481  0.0844
 5061TIP3    H136818   5.367   5.316   8.543 -0.2298  0.4521  1.2278
 5061TIP3    H236819   5.256   5.237   8.609 -1.3734  0.8478 -0.1946
 5062TIP3   OH236820   1.348   1.895   0.464  0.4132  0.4745  0.0321
 5062TIP3    H136821   1.300   1.974   0.440  1.4341  1.7371  1.9306
 5062TIP3    H236822   1.439   1.913   0.439  1.1022  0.9467  2.6001
 5063TIP3   OH236823   3.165   5.709   7.994 -0.3200  0.2821 -0.1778
 5063TIP3    H136824   3.204   5.790   7.962  1.6351 -0.2245  0.7839
 5063TIP3    H236825   3.138   5.730   8.084  1.9666 -0.6101  0.7724
 5064TIP3   OH236826   2.699   1.450   8.382  0.4136  0.2407  0.5612
 5064TIP3    H136827   2.721   1.541   8.402  1.8424  0.0508 -0.0227
 5064TIP3    H236828   2.604   1.451   8.366  0.1393  1.3284  2.0600
 5065TIP3   OH236829   4.194   3.163   1.495  0.0556  0.2029 -0.2973
 5065TIP3    H136830   4.180   3.078   1.454  1.2774  0.0569 -0.4314
 5065TIP3    H236831   4.155   3.226   1.434 -0.5926 -0.2296 -0.3348
 5066TIP3   OH236832   2.527   1.381   1.922  0.1327  0.2949 -0.0372
 5066TIP3    H136833   2.571   1.466   1.918  0.9738 -0.1609 -1.2632
 5066TIP3    H236834   2.471   1.386   1.999  3.1236  0.5622  2.2876
 5067TIP3   OH236835   1.986   6.556   8.196 -0.5692 -0.1719 -0.3921
 5067TIP3    H136836   1.993   6.541   8.102  0.7222  1.0888 -0.5323
 5067TIP3    H236837   1.968   6.649   8.204  1.0910  0.1027  0.6319
 5068TIP3   OH236838   2.544   5.316   8.655  0.2417  0.0418  0.1406
 5068TIP3    H136839   2.503   5.332   8.740 -1.4126 -0.2686 -0.5548
 5068TIP3    H236840   2.615   5.254   8.674 -0.9505 -1.0915  1.1493
 5069TIP3   OH236841   2.381   3.833   8.772  0.7218 -0.1959  0.4038
 5069TIP3    H136842   2.379   3.928   8.767  0.5070 -0.1882  0.6238
 5069TIP3    H236843   2.373   3.813   8.865  0.3212 -0.4365  0.3234
 5070TIP3   OH236844   4.721   6.480   1.210  0.3184 -0.1600 -0.1561
 5070TIP3    H136845   4.754   6.423   1.279 -1.2529 -0.3979  0.4438
 5070TIP3    H236846   4.679   6.421   1.148  0.4287  0.1789 -0.5598
 5071TIP3   OH236847   1.579   3.340   0.375 -0.3418  0.4779  0.3418
 5071TIP3    H136848   1.669   3.316   0.352 -0.3427 -1.4760  2.1421
 5071TIP3    H236849   1.565   3.424   0.330  2.1745  0.5802 -0.4162
 5072TIP3   OH236850   4.290   0.279   7.500 -0.3559  0.2236  0.5499
 5072TIP3    H136851   4.371   0.308   7.543 -0.7561  0.7143  0.9800
 5072TIP3    H236852   4.305   0.296   7.407 -0.1871  0.8681  0.6881
 5073TIP3   OH236853   2.098   6.379   0.828  0.2341  0.3483 -0.0626
 5073TIP3    H136854   2.024   6.438   0.816 -0.4118 -0.2859  0.6895
 5073TIP3    H236855   2.109   6.337   0.743  0.4950  1.2912 -0.5118
 5074TIP3   OH236856   2.103   0.188   0.758 -0.2911  0.5420 -0.3695
 5074TIP3    H136857   2.017   0.229   0.751 -0.2163  0.5607 -1.1652
 5074TIP3    H236858   2.124   0.158   0.670  0.7679  1.0439 -0.3067
 5075TIP3   OH236859   2.042   0.344   0.479  0.2533  0.5989  0.3145
 5075TIP3    H136860   2.071   0.296   0.401 -1.4251  1.4837 -0.9109
 5075TIP3    H236861   1.963   0.390   0.451 -0.0841  1.3918  2.4060
 5076TIP3   OH236862   6.145   5.509   0.176  0.2763 -0.2527  0.1133
 5076TIP3    H136863   6.157   5.497   0.082  0.1961 -0.7962  0.1669
 5076TIP3    H236864   6.118   5.422   0.207 -0.0682  0.0195  0.5756
 5077TIP3   OH236865   4.553   0.144   1.172 -0.4692  0.1445 -0.0341
 5077TIP3    H136866   4.544   0.055   1.204 -1.1923  0.0575 -0.4653
 5077TIP3    H236867   4.609   0.187   1.237 -2.4728  0.1653  1.7664
 5078TIP3   OH236868   3.496   5.357   8.051  0.3595 -0.0697 -0.2090
 5078TIP3    H136869   3.554   5.396   7.986  1.5083 -2.0569 -0.4851
 5078TIP3    H236870   3.539   5.274   8.074 -0.5725  0.0426  2.2737
 5079TIP3   OH236871   4.933   4.095   2.442  0.1421  0.2828  0.1454
 5079TIP3    H136872   5.012   4.045   2.423  0.2459  0.4856  0.0415
 5079TIP3    H236873   4.964   4.170   2.492 -0.2714 -0.9121  2.3019
 5080TIP3   OH236874   3.595   5.135   8.624  0.2225  0.5514 -0.2135
 5080TIP3    H136875   3.629   5.046   8.626 -0.0425  0.4221 -0.9777
 5080TIP3    H236876   3.538   5.142   8.701 -1.2357 -0.5568 -1.1362
 5081TIP3   OH236877   1.367   0.896   0.540  0.3404 -0.0642  0.4066
 5081TIP3    H136878   1.390   0.934   0.455 -0.7796  0.2050  0.2116
 5081TIP3    H236879   1.447   0.851   0.568  1.8427  2.5571  0.7357
 5082TIP3   OH236880   1.243   1.244   1.701  0.5147  0.1016  0.0719
 5082TIP3    H136881   1.304   1.170   1.695  0.9264  0.3552  0.8784
 5082TIP3    H236882   1.218   1.246   1.794 -3.5558 -2.1947 -0.7801
 5083TIP3   OH236883   0.945   0.891   6.650 -0.1057  0.3616 -0.5722
 5083TIP3    H136884   0.874   0.954   6.656 -0.4439 -0.0124 -0.5601
 5083TIP3    H236885   0.988   0.911   6.566  0.2009  1.0185 -0.2674
 5084TIP3   OH236886   1.575   5.515   0.188  0.3764 -0.3523  0.6440
 5084TIP3    H136887   1.651   5.496   0.134  0.8939  0.8243  0.9395
 5084TIP3    H236888   1.605   5.505   0.278  0.9219  2.5208  0.8618
 5085TIP3   OH236889   4.337   1.014   6.771  0.7590  0.2067  0.5970
 5085TIP3    H136890   4.305   0.947   6.832 -0.2767  1.4345  1.4635
 5085TIP3    H236891   4.300   1.096   6.805 -0.0528  0.9079 -1.8101
 5086TIP3   OH236892   4.124   0.404   1.757  0.2704  0.5602  0.5451
 5086TIP3    H136893   4.058   0.436   1.818 -0.2022 -0.4796  0.6079
 5086TIP3    H236894   4.197   0.377   1.812  0.5993  1.3413  0.5041
 5087TIP3   OH236895   1.227   1.582   1.531  0.0084 -0.0014 -0.4438
 5087TIP3    H136896   1.290   1.546   1.593  0.0510  1.8013  0.6271
 5087TIP3    H236897   1.142   1.567   1.572  0.0277  1.0664  0.0131
 5088TIP3   OH236898   0.167   5.550   7.668 -0.0892  0.4825  0.3038
 5088TIP3    H136899   0.081   5.540   7.628  0.0481  1.9208 -0.4137
 5088TIP3    H236900   0.221   5.590   7.600  1.1291 -0.3012  0.7758
 5089TIP3   OH236901   6.111   0.902   8.766  0.4534  0.0881 -0.0496
 5089TIP3    H136902   6.045   0.964   8.735  0.8005  1.1009  1.1780
 5089TIP3    H236903   6.061   0.836   8.814  0.1706 -0.1033 -0.5987
 5090TIP3   OH236904   1.155   0.727   1.755  0.4199  0.5508  0.3284
 5090TIP3    H136905   1.111   0.810   1.736  0.4998  1.2900  3.0231
 5090TIP3    H236906   1.244   0.753   1.782  0.0902 -0.2591  2.3577
 5091TIP3   OH236907   6.002   1.979   7.606 -0.2732 -0.1868 -0.0788
 5091TIP3    H136908   5.932   2.004   7.545 -0.5546  3.4891  1.5291
 5091TIP3    H236909   6.073   2.039   7.586  1.1702 -1.5850  0.6536
 5092TIP3   OH236910   1.568   0.067   6.850  0.1715  0.2829 -0.2800
 5092TIP3    H136911   1.626   0.132   6.891  1.1171  0.1408 -1.3388
 5092TIP3    H236912   1.607   0.053   6.764  0.0957 -1.8579  0.0012
 5093TIP3   OH236913   6.139   6.474   8.460  0.1130 -0.8680 -0.3911
 5093TIP3    H136914   6.054   6.503   8.427  0.4250 -1.4960 -1.8251
 5093TIP3    H236915   6.189   6.555   8.473 -1.2604 -0.3199  2.3031
 5094TIP3   OH236916   1.630   2.700   1.818 -0.4489 -0.2216 -0.2247
 5094TIP3    H136917   1.720   2.731   1.813 -0.3850 -0.4747 -0.6188
 5094TIP3    H236918   1.616   2.682   1.911 -0.6357  1.4296  0.1028
 5095TIP3   OH236919   2.338   1.300   1.384  0.4472 -0.0614 -0.3045
 5095TIP3    H136920   2.345   1.387   1.344 -0.9713  0.3472  0.2750
 5095TIP3    H236921   2.400   1.303   1.457  1.0625  0.1369 -0.8221
 5096TIP3   OH236922   1.550   0.121   8.742  0.0247  0.4830  0.2668
 5096TIP3    H136923   1.614   0.147   8.808  0.7327 -1.4751  0.4250
 5096TIP3    H236924   1.490   0.063   8.788  1.1365 -1.7777 -0.9392
 5097TIP3   OH236925   4.708   5.925   0.113 -0.3791  0.1945  0.3039
 5097TIP3    H136926   4.643   5.902   0.178 -0.2425  1.1498  0.8002
 5097TIP3    H236927   4.666   5.907   0.029 -1.3617  0.9668  0.6081
 5098TIP3   OH236928   3.470   3.489   0.516 -0.0650 -0.4412  0.0923
 5098TIP3    H136929   3.535   3.423   0.490  0.8900  0.9199 -1.1558
 5098TIP3    H236930   3.505   3.526   0.597 -0.1158 -0.7872  0.2769
 5099TIP3   OH236931   2.706   6.524   1.502  0.0593 -0.5499  0.3620
 5099TIP3    H136932   2.714   6.478   1.418 -2.5989 -0.7200  0.1210
 5099TIP3    H236933   2.697   6.455   1.566 -0.5149 -0.4047  0.4414
 5100TIP3   OH236934   2.206   3.337   1.276  0.2013 -0.2925  0.0271
 5100TIP3    H136935   2.137   3.270   1.273  1.3471 -1.5573  0.8854
 5100TIP3    H236936   2.268   3.311   1.209  1.0638 -0.5946  0.9087
 5101TIP3   OH236937   3.577   4.596   2.354 -0.1201  0.0036 -0.1933
 5101TIP3    H136938   3.525   4.617   2.432 -0.7885 -1.3609 -0.2578
 5101TIP3    H236939   3.663   4.572   2.389 -0.8950 -2.2700  0.3191
 5102TIP3   OH236940   5.264   5.609   1.001  0.3232 -0.0623 -0.1153
 5102TIP3    H136941   5.206   5.641   0.931 -1.1115  0.2273  1.1429
 5102TIP3    H236942   5.205   5.591   1.074  1.9094  1.0608  1.5430
 5103TIP3   OH236943   5.561   0.583   1.930  0.1633  0.1142  0.8220
 5103TIP3    H136944   5.601   0.624   2.007  0.9731 -1.2667  1.1832
 5103TIP3    H236945   5.488   0.533   1.966 -0.6857  1.0548  0.4193
 5104TIP3   OH236946   0.085   4.910   0.039  0.1158 -0.0300 -0.5015
 5104TIP3    H136947   0.014   4.957  -0.003  0.4394 -0.2019 -1.2734
 5104TIP3    H236948   0.054   4.819   0.044 -0.7947  0.3421  1.6265
 5105TIP3   OH236949   3.550   1.821   7.653 -0.2050  0.1388 -0.3096
 5105TIP3    H136950   3.587   1.747   7.701  0.2897  0.8728  0.4846
 5105TIP3    H236951   3.598   1.897   7.687  2.3922  0.4693 -4.1336
 5106TIP3   OH236952   6.130   2.219   7.185 -0.0119  0.5179 -0.2819
 5106TIP3    H136953   6.051   2.180   7.148 -1.0512  1.3660  0.9380
 5106TIP3    H236954   6.198   2.204   7.119 -1.3979  0.5872 -1.7821
 5107TIP3   OH236955   5.554   2.277   6.675 -0.2321  0.5355 -0.1266
 5107TIP3    H136956   5.624   2.297   6.612 -0.7592 -0.0914 -0.9307
 5107TIP3    H236957   5.543   2.182   6.670  1.0552  0.1693  2.3733
 5108TIP3   OH236958   4.031   1.019   7.851  0.0215 -0.4110  0.1926
 5108TIP3    H136959   4.025   0.947   7.788 -3.0645 -1.4057  1.4238
 5108TIP3    H236960   4.052   1.096   7.799  2.1972 -1.9271 -1.3462
 5109TIP3   OH236961   0.991   3.159   1.344  0.0254  0.3320 -0.0868
 5109TIP3    H136962   1.073   3.194   1.308  0.2698  0.0053  0.1500
 5109TIP3    H236963   0.925   3.178   1.277  0.4342 -0.0445 -0.6050
 5110TIP3   OH236964   2.038   3.810   0.059 -0.3541 -0.1906  0.0330
 5110TIP3    H136965   2.095   3.882   0.031 -0.6003  0.5818  1.4231
 5110TIP3    H236966   2.065   3.736   0.004 -0.4350  1.0578 -1.7781
 5111TIP3   OH236967   5.520   0.200   8.200 -0.1238 -0.1610 -0.4595
 5111TIP3    H136968   5.579   0.255   8.149 -0.2519 -1.1455 -1.7337
 5111TIP3    H236969   5.510   0.121   8.147 -0.2185 -1.2685  1.1589
 5112TIP3   OH236970   0.833   4.283   1.492 -0.0772  0.5750  0.1083
 5112TIP3    H136971   0.872   4.343   1.555 -0.5222  1.0158 -0.0240
 5112TIP3    H236972   0.832   4.198   1.536  0.2748  0.7310  0.4164
 5113TIP3   OH236973   6.792   0.316   1.890  0.3958 -0.2193 -0.3512
 5113TIP3    H136974   6.812   0.348   1.802 -1.3071 -1.0906 -1.0956
 5113TIP3    H236975   6.843   0.373   1.948 -0.4030  2.0679 -1.7489
 5114TIP3   OH236976   2.707   2.253   7.741  0.4691 -0.6384  0.9075
 5114TIP3    H136977   2.655   2.179   7.712 -1.6313 -0.2284  3.2283
 5114TIP3    H236978   2.719   2.307   7.663 -1.4944 -1.4188  0.0056
 5115TIP3   OH236979   2.014   2.977   7.668  0.1441 -0.1516 -0.1878
 5115TIP3    H136980   1.965   2.895   7.678 -1.2564  0.4851 -1.4423
 5115TIP3    H236981   1.994   3.006   7.579  0.9725  1.3317  0.0801
 5116TIP3   OH236982   4.327   4.912   7.567  0.6507 -0.6651  0.2301
 5116TIP3    H136983   4.343   4.965   7.645  1.1590 -1.8007  0.9203
 5116TIP3    H236984   4.238   4.880   7.578  0.3902 -0.0600 -0.1218
 5117TIP3   OH236985   5.977   3.446   1.026 -0.5961 -0.1751  0.3348
 5117TIP3    H136986   5.974   3.530   0.980  1.2644  0.0337  0.5043
 5117TIP3    H236987   6.004   3.468   1.115  1.1982 -1.0062  0.0475
 5118TIP3   OH236988   4.389   4.663   8.456 -0.0743 -0.3838 -0.1265
 5118TIP3    H136989   4.371   4.733   8.519  3.2282 -0.3748  0.9921
 5118TIP3    H236990   4.375   4.582   8.505 -0.4358 -0.4626 -0.3492
 5119TIP3   OH236991   5.588   3.173   1.746 -0.1163  0.0689 -0.1750
 5119TIP3    H136992   5.592   3.171   1.842 -1.4028  1.7527 -0.0395
 5119TIP3    H236993   5.679   3.183   1.719  0.0663  2.4023  1.0336
 5120TIP3   OH236994   6.024   3.729   0.012  0.3361 -0.3448 -0.3965
 5120TIP3    H136995   6.096   3.753   0.070 -0.3257  3.0997 -0.7730
 5120TIP3    H236996   5.990   3.647   0.047  0.9368  0.7902  3.1582
 5121TIP3   OH236997   1.014   2.596   0.973 -0.3018 -0.4842 -0.6971
 5121TIP3    H136998   1.062   2.623   0.894  1.2602  1.8692  0.9124
 5121TIP3    H236999   1.072   2.534   1.016  0.1235  0.3152 -0.0875
 5122TIP3   OH237000   2.370   5.671   7.459 -0.8793 -0.0479 -0.2754
 5122TIP3    H137001   2.328   5.750   7.493  0.9409  1.0003 -0.3105
 5122TIP3    H237002   2.315   5.644   7.386 -2.0491  0.6326  0.3179
 5123TIP3   OH237003   2.232   2.706   2.317 -0.2941  0.4976  0.2699
 5123TIP3    H137004   2.212   2.780   2.374 -0.8427  0.3529  0.2695
 5123TIP3    H237005   2.265   2.746   2.236  1.3885  0.6818  1.0047
 5124TIP3   OH237006   1.461   6.405   0.082 -0.3389 -0.0112 -0.3723
 5124TIP3    H137007   1.540   6.444   0.046 -0.7074  1.4946  0.3317
 5124TIP3    H237008   1.486   6.377   0.170 -0.1693 -1.0806 -0.7502
 5125TIP3   OH237009   2.095   1.219   1.042 -0.5013  0.3700  0.3643
 5125TIP3    H137010   2.109   1.175   1.126 -0.3648  0.5086  0.4167
 5125TIP3    H237011   2.114   1.311   1.061  0.0888  0.3180  0.0462
 5126TIP3   OH237012   4.126   6.449   8.799 -0.7531  0.1708  0.1881
 5126TIP3    H137013   4.078   6.421   8.721  0.7393 -1.4763 -0.2111
 5126TIP3    H237014   4.180   6.373   8.822 -0.0231  1.1619  1.9247
 5127TIP3   OH237015   0.037   2.317   0.427  0.2477 -0.5420  0.0085
 5127TIP3    H137016   0.130   2.332   0.441  0.6434 -1.5493 -1.3101
 5127TIP3    H237017   0.002   2.403   0.406  1.2123 -0.3874 -1.0851
 5128TIP3   OH237018   3.123   2.765   8.713  0.0475  0.3472 -0.3852
 5128TIP3    H137019   3.028   2.752   8.720 -0.0841  0.8171 -1.1810
 5128TIP3    H237020   3.143   2.834   8.776 -0.5439  1.9919 -1.9121
 5129TIP3   OH237021   5.244   3.497   7.694  0.2450 -0.3551 -0.0501
 5129TIP3    H137022   5.297   3.482   7.772  0.6522 -0.7767 -0.4030
 5129TIP3    H237023   5.227   3.410   7.659  2.6611 -0.1043 -2.1433
 5130TIP3   OH237024   0.424   0.929   8.386  0.1180 -0.1935  0.2714
 5130TIP3    H137025   0.473   1.006   8.414 -1.0903  0.5798  0.3179
 5130TIP3    H237026   0.416   0.938   8.291 -1.7597  0.8305  0.4846
 5131TIP3   OH237027   4.564   5.397   0.348  0.0505 -0.4031 -0.0188
 5131TIP3    H137028   4.627   5.431   0.412 -0.1380  2.1854 -1.0949
 5131TIP3    H237029   4.489   5.371   0.401 -0.3407  2.2448  0.8928
 5132TIP3   OH237030   1.899   5.320   6.238  0.1881 -0.3621 -0.3146
 5132TIP3    H137031   1.932   5.377   6.308 -0.6957 -0.4263  0.1686
 5132TIP3    H237032   1.921   5.367   6.157  0.6267  0.0355  0.0284
 5133TIP3   OH237033   5.647   3.829   8.779  0.0333  0.0207 -0.1416
 5133TIP3    H137034   5.642   3.923   8.796  1.5066  0.0619  0.1742
 5133TIP3    H237035   5.612   3.789   8.859  0.1174  0.2871  0.0306
 5134TIP3   OH237036   3.400   1.716   1.477 -0.0793  0.1399 -0.5109
 5134TIP3    H137037   3.487   1.751   1.495 -0.5337  0.5960  0.8760
 5134TIP3    H237038   3.375   1.671   1.557 -0.5715 -1.1933 -1.3821
 5135TIP3   OH237039   4.662   1.154   1.841 -0.0239  0.0671 -0.3005
 5135TIP3    H137040   4.736   1.128   1.896 -0.0958  0.5362  0.0212
 5135TIP3    H237041   4.677   1.246   1.822  1.1468 -0.5705 -2.8900
 5136TIP3   OH237042   2.462   2.731   0.787  0.0194 -0.0554 -0.0124
 5136TIP3    H137043   2.385   2.708   0.735 -0.9434  0.9981  0.8764
 5136TIP3    H237044   2.511   2.793   0.733 -0.6451  0.5489  0.0622
 5137TIP3   OH237045   6.809   4.048   7.509 -0.1497 -0.2024  0.1757
 5137TIP3    H137046   6.845   3.960   7.500 -0.8173 -0.3819 -0.9177
 5137TIP3    H237047   6.736   4.038   7.570  1.9508  0.2936  2.9900
 5138TIP3   OH237048   4.735   3.307   7.519  0.5028 -0.4676 -0.0758
 5138TIP3    H137049   4.731   3.365   7.595  0.9004 -0.5389  0.0033
 5138TIP3    H237050   4.644   3.298   7.491  0.5002  0.7909 -0.5398
 5139TIP3   OH237051   0.541   0.638   1.131 -0.0054 -0.4926 -0.2856
 5139TIP3    H137052   0.630   0.667   1.153 -0.1113  0.1871 -0.7653
 5139TIP3    H237053   0.551   0.590   1.049  0.1334 -1.6814  0.3860
 5140TIP3   OH237054   3.268   0.991   8.041  0.1587 -0.1766 -0.3091
 5140TIP3    H137055   3.328   0.917   8.053  0.8121  0.3340 -0.3884
 5140TIP3    H237056   3.295   1.055   8.106 -0.8292 -0.2606  0.2083
 5141TIP3   OH237057   2.043   1.486   0.254  0.1397  0.4016 -0.2449
 5141TIP3    H137058   2.003   1.528   0.330 -0.4773 -1.8233  0.7370
 5141TIP3    H237059   1.979   1.495   0.184 -0.5352  0.0119  0.3145
 5142TIP3   OH237060   2.363   1.947   7.092 -0.2250 -0.0526 -0.2400
 5142TIP3    H137061   2.418   1.957   7.015 -0.1883 -2.2450 -0.5747
 5142TIP3    H237062   2.275   1.932   7.057 -0.2114 -1.0401  0.1051
 5143TIP3   OH237063   0.266   1.500   6.885 -0.0163  0.0932 -0.1513
 5143TIP3    H137064   0.300   1.502   6.796  0.0996  2.6303 -0.1224
 5143TIP3    H237065   0.318   1.566   6.932 -0.0670 -1.1842  1.8102
 5144TIP3   OH237066   2.717   4.864   0.170 -0.5129  0.3027  0.6491
 5144TIP3    H137067   2.790   4.810   0.200  0.4537  1.3071  0.1567
 5144TIP3    H237068   2.688   4.822   0.089  0.0193  0.3278  0.4405
 5145TIP3   OH237069   0.268   4.275   8.618 -0.1248 -0.1088  0.1375
 5145TIP3    H137070   0.188   4.224   8.604  0.2240 -0.7609  0.4955
 5145TIP3    H237071   0.237   4.365   8.630 -0.6896 -0.1035 -1.2512
 5146TIP3   OH237072   2.220   3.401   0.226 -0.0882 -0.1254  0.5014
 5146TIP3    H137073   2.200   3.424   0.317  0.7448 -1.7941  1.1400
 5146TIP3    H237074   2.286   3.466   0.199 -0.9395  0.8909  0.7774
 5147TIP3   OH237075   2.049   3.812   8.522 -0.0267 -0.1605 -0.0324
 5147TIP3    H137076   1.992   3.790   8.448  0.5311 -1.1305 -0.1885
 5147TIP3    H237077   2.122   3.752   8.514 -0.6778 -1.3342  2.1780
 5148TIP3   OH237078   4.675   0.661   0.320  0.7692 -0.4097 -0.0654
 5148TIP3    H137079   4.757   0.617   0.343  0.6871  0.9641  3.4183
 5148TIP3    H237080   4.692   0.753   0.338 -1.1546  0.0835 -0.5919
 5149TIP3   OH237081   4.538   0.765   8.269 -0.1756  0.0332 -0.4596
 5149TIP3    H137082   4.500   0.693   8.319  0.1283  0.5573  0.5524
 5149TIP3    H237083   4.632   0.754   8.278  0.0837  2.9648  3.5565
 5150TIP3   OH237084   0.968   2.954   7.297  0.2525  0.2304 -0.2955
 5150TIP3    H137085   1.047   2.907   7.271 -0.6320 -0.6468 -1.5039
 5150TIP3    H237086   0.897   2.891   7.283 -0.9374  1.7635 -1.5875
 5151TIP3   OH237087   2.254   0.220   7.255 -0.4093 -0.0090 -0.2646
 5151TIP3    H137088   2.232   0.151   7.317 -1.6706 -0.8623 -1.5703
 5151TIP3    H237089   2.323   0.183   7.200  1.8444  1.3155  1.5153
 5152TIP3   OH237090   3.240   2.025   1.693 -0.0671 -0.6950  0.2244
 5152TIP3    H137091   3.268   2.025   1.785 -0.0952  1.1813  0.2590
 5152TIP3    H237092   3.145   2.013   1.697  0.0865 -2.0010  0.3512
 5153TIP3   OH237093   1.180   3.208   8.557 -0.0116 -0.4037  0.6091
 5153TIP3    H137094   1.153   3.293   8.522 -2.1015 -1.0342  0.5359
 5153TIP3    H237095   1.104   3.151   8.543  0.9444 -2.0115  1.6164
 5154TIP3   OH237096   3.364   2.195   8.347  0.5610 -0.1190  0.6268
 5154TIP3    H137097   3.382   2.250   8.271 -0.9427 -0.9379 -0.3621
 5154TIP3    H237098   3.362   2.257   8.421  0.4681  0.9350 -0.2313
 5155TIP3   OH237099   6.032   3.409   8.659  0.2433 -0.1253 -0.1567
 5155TIP3    H137100   6.066   3.469   8.593  0.6798 -0.0985  0.0876
 5155TIP3    H237101   6.076   3.435   8.740  1.9566 -2.0161 -0.4078
 5156TIP3   OH237102   0.873   1.482   1.323 -0.6508  0.2811 -0.1170
 5156TIP3    H137103   0.809   1.411   1.315  0.2355 -0.4442 -1.0595
 5156TIP3    H237104   0.944   1.444   1.374 -0.6466  0.8451  0.2975
 5157TIP3   OH237105   5.929   5.408   7.133  0.9195  0.1442 -0.3913
 5157TIP3    H137106   5.887   5.420   7.048 -0.1676 -0.5656  0.0131
 5157TIP3    H237107   5.856   5.408   7.195  1.7477  1.2042  0.6109
 5158TIP3   OH237108   0.017   4.703   0.412 -0.1268  0.1349 -0.3227
 5158TIP3    H137109  -0.007   4.611   0.405 -0.9560  0.3813 -0.9450
 5158TIP3    H237110   0.110   4.706   0.386 -0.4493 -0.3595 -1.6262
 5159TIP3   OH237111   4.192   1.848   1.530  0.1120  0.0521  0.8046
 5159TIP3    H137112   4.209   1.840   1.436  2.9597  1.9785  0.9956
 5159TIP3    H237113   4.241   1.776   1.570  0.4465  0.3106  0.8726
 5160TIP3   OH237114   1.317   4.768   1.794  0.1200  0.3973 -0.1976
 5160TIP3    H137115   1.352   4.712   1.863  0.5230  1.9169  0.8955
 5160TIP3    H237116   1.278   4.842   1.841 -0.2128  1.1335 -1.5834
 5161TIP3   OH237117   4.092   3.137   6.944  0.1783 -0.3620  0.5712
 5161TIP3    H137118   4.174   3.112   6.988  0.7226  0.3199 -0.0410
 5161TIP3    H237119   4.028   3.142   7.015  1.5418  3.0609  1.7728
 5162TIP3   OH237120   2.244   3.583   1.051  0.7950  0.5292  0.2807
 5162TIP3    H137121   2.307   3.624   1.110  2.0242 -0.3256 -0.3657
 5162TIP3    H237122   2.297   3.522   0.999 -0.1427  1.5158 -1.9827
 5163TIP3   OH237123   1.831   4.506   6.987  0.0245 -0.4948 -0.3613
 5163TIP3    H137124   1.923   4.498   6.961 -0.2448 -0.7875 -1.2682
 5163TIP3    H237125   1.815   4.429   7.041  0.2739 -0.5211 -0.3237
 5164TIP3   OH237126   2.486   1.897   7.871  0.5722 -0.2575  0.3222
 5164TIP3    H137127   2.512   1.805   7.863  0.0404 -0.3743 -0.1607
 5164TIP3    H237128   2.412   1.906   7.811 -1.1376 -0.1686  2.3734
 5165TIP3   OH237129   5.695   5.836   8.382 -0.3210 -0.5759  0.3367
 5165TIP3    H137130   5.759   5.811   8.315 -2.2879 -0.8366 -1.5517
 5165TIP3    H237131   5.728   5.918   8.418  0.2007  0.2287 -1.8486
 5166TIP3   OH237132   3.520   2.791   8.683 -0.2263  0.1555 -0.1979
 5166TIP3    H137133   3.537   2.878   8.718 -0.7809  0.9175 -1.7523
 5166TIP3    H237134   3.535   2.732   8.757  2.3432  1.3407  0.3441
 5167TIP3   OH237135   0.449   1.590   0.802  0.2296 -0.0223  0.1502
 5167TIP3    H137136   0.436   1.595   0.897  0.2417  2.8717  0.0839
 5167TIP3    H237137   0.368   1.552   0.769 -0.4919  0.5601  1.1818
 5168TIP3   OH237138   3.266   5.380   2.203  0.2520  0.4055  0.1956
 5168TIP3    H137139   3.349   5.423   2.187  0.5261  0.0129  0.5389
 5168TIP3    H237140   3.283   5.288   2.184 -0.1715  0.3597  0.0287
 5169TIP3   OH237141   5.840   2.129   6.566  0.2124 -0.9769  0.3647
 5169TIP3    H137142   5.875   2.077   6.639 -2.0733 -1.4975  1.1677
 5169TIP3    H237143   5.781   2.069   6.520 -0.8280  0.2744  0.0260
 5170TIP3   OH237144   4.511   5.646   7.431 -0.4199  0.8699 -0.1638
 5170TIP3    H137145   4.458   5.721   7.406  1.5090  2.4958  0.4010
 5170TIP3    H237146   4.601   5.672   7.411  0.3595 -1.0717  0.5675
 5171TIP3   OH237147   4.160   3.289   1.879 -0.5220  0.0591  0.1439
 5171TIP3    H137148   4.156   3.368   1.826 -0.3499 -0.0713 -0.0637
 5171TIP3    H237149   4.120   3.221   1.825 -1.3320  0.1497  0.5999
 5172TIP3   OH237150   1.980   2.005   0.691 -0.0017 -0.5743 -0.0526
 5172TIP3    H137151   1.987   2.082   0.747 -1.2771 -0.2668 -0.2955
 5172TIP3    H237152   2.066   1.963   0.697  0.7744  0.9729 -0.0883
 5173TIP3   OH237153   2.634   0.963   8.612 -0.4298  0.1242 -0.0404
 5173TIP3    H137154   2.656   0.874   8.584  0.3153  0.0984  0.5976
 5173TIP3    H237155   2.704   0.987   8.672  0.5184  1.9547 -1.7892
 5174TIP3   OH237156   2.180   1.600   7.631  0.4364  0.0939  0.2933
 5174TIP3    H137157   2.229   1.657   7.572 -1.2701  0.8030 -0.5199
 5174TIP3    H237158   2.126   1.661   7.682 -1.2205 -0.7370 -0.3939
 5175TIP3   OH237159   0.257   2.477   6.905  0.4406  0.3553  0.0622
 5175TIP3    H137160   0.255   2.381   6.904  0.1409  0.3578 -0.9946
 5175TIP3    H237161   0.172   2.503   6.942  0.4820  0.2128  0.2558
 5176TIP3   OH237162   6.558   1.866   0.521  0.0024  0.3617 -0.0093
 5176TIP3    H137163   6.505   1.801   0.567 -0.2119  0.3823 -0.2260
 5176TIP3    H237164   6.647   1.832   0.527 -0.1776 -0.2176 -0.5750
 5177TIP3   OH237165   3.244   5.273   8.003 -0.1556 -0.6732  0.1003
 5177TIP3    H137166   3.255   5.195   8.057  0.6548 -0.3543  0.4079
 5177TIP3    H237167   3.325   5.323   8.015 -0.3877 -0.1020 -0.6080
 5178TIP3   OH237168   4.349   5.487   8.108 -0.0492 -0.2077 -0.2343
 5178TIP3    H137169   4.369   5.562   8.164  0.9892 -1.5990  1.3279
 5178TIP3    H237170   4.392   5.508   8.025  1.6986  0.2196  0.7239
 5179TIP3   OH237171   6.074   5.198   7.175  0.7490  0.5120 -0.2731
 5179TIP3    H137172   6.017   5.274   7.162 -0.3056 -0.2916 -0.5314
 5179TIP3    H237173   6.098   5.201   7.268 -0.1608  0.5890 -0.0252
 5180TIP3   OH237174   1.851   3.246   7.534  0.4493 -0.4029  0.3558
 5180TIP3    H137175   1.780   3.183   7.549 -0.1364  0.3024  0.6348
 5180TIP3    H237176   1.909   3.203   7.472  0.9738 -1.9036  1.8294
 5181TIP3   OH237177   5.165   4.270   0.943 -0.2566  0.2303 -0.0860
 5181TIP3    H137178   5.205   4.214   0.876  1.2623  0.7686  0.3291
 5181TIP3    H237179   5.090   4.310   0.898  1.7145  1.9333 -2.1119
 5182TIP3   OH237180   1.051   3.930   0.889  0.0410 -0.4441  0.2608
 5182TIP3    H137181   0.960   3.939   0.917 -0.2684 -1.0832 -0.4872
 5182TIP3    H237182   1.045   3.891   0.802  1.0176 -0.0106 -0.0165
 5183TIP3   OH237183   3.592   6.178   7.511  0.4292 -0.0565  0.0315
 5183TIP3    H137184   3.528   6.221   7.456  1.7818  0.9002 -0.8531
 5183TIP3    H237185   3.549   6.097   7.539 -1.1313  0.5404 -0.5281
 5184TIP3   OH237186   0.001   2.604   8.711  0.6284 -0.0705 -0.2868
 5184TIP3    H137187  -0.059   2.676   8.728  0.7887 -0.0407  0.1645
 5184TIP3    H237188   0.068   2.612   8.779  2.7109  1.5731 -2.3457
 5185TIP3   OH237189   4.655   0.876   1.720 -0.0675 -0.3350 -0.4087
 5185TIP3    H137190   4.674   0.945   1.783  0.4513 -0.3705 -0.5213
 5185TIP3    H237191   4.560   0.874   1.714 -0.0937  0.1485 -0.1616
 5186TIP3   OH237192   0.864   2.824   7.820  0.2342  0.4332  0.6798
 5186TIP3    H137193   0.885   2.896   7.760  0.0189 -0.1695 -0.1393
 5186TIP3    H237194   0.942   2.769   7.819  0.2393  0.4372  0.9711
 5187TIP3   OH237195   5.532   2.502   1.746  0.0450 -0.5669 -0.0070
 5187TIP3    H137196   5.527   2.417   1.792 -3.9314  0.4535  1.9744
 5187TIP3    H237197   5.520   2.480   1.654 -1.3113 -2.1895  0.5004
 5188TIP3   OH237198   1.040   2.049   8.535 -0.1615 -0.2326  0.4112
 5188TIP3    H137199   0.998   2.134   8.551 -1.2269 -0.3401 -1.4943
 5188TIP3    H237200   0.983   1.986   8.581  0.6329  0.0364  1.8308
 5189TIP3   OH237201   0.497   4.194   8.482 -0.0234  0.3624  0.5120
 5189TIP3    H137202   0.433   4.223   8.548  0.4911  0.8106  0.8316
 5189TIP3    H237203   0.539   4.276   8.453 -0.8354  0.2650 -1.0089
 5190TIP3   OH237204   1.984   6.180   1.365  0.6482  0.2473  0.0359
 5190TIP3    H137205   2.033   6.106   1.400 -1.6835 -0.7370  1.4977
 5190TIP3    H237206   2.017   6.192   1.277  1.0717 -2.6318 -0.2881
 5191TIP3   OH237207   4.790   1.842   7.517 -0.1781  0.2257  0.3175
 5191TIP3    H137208   4.865   1.890   7.550 -0.7406  1.3406  0.0288
 5191TIP3    H237209   4.737   1.823   7.595  0.2521 -0.3015  0.4836
 5192TIP3   OH237210   3.062   0.284   0.268  0.3257 -0.2015 -0.0764
 5192TIP3    H137211   3.060   0.380   0.271  2.1340 -0.1483  1.3038
 5192TIP3    H237212   3.155   0.262   0.263  0.1682 -1.8711  2.4684
 5193TIP3   OH237213   5.713   3.192   1.387 -0.3347  0.2313  0.3600
 5193TIP3    H137214   5.780   3.195   1.455  0.4220  0.3499 -0.3777
 5193TIP3    H237215   5.660   3.116   1.409  0.2223 -0.0384  0.7882
 5194TIP3   OH237216   5.627   0.599   2.457 -0.3559 -0.0811  0.0071
 5194TIP3    H137217   5.581   0.620   2.376 -1.5253 -1.0114  0.4003
 5194TIP3    H237218   5.686   0.528   2.433 -1.5021 -1.1235  0.1781
 5195TIP3   OH237219   2.181   3.594   2.202  0.0204 -0.7183  0.4382
 5195TIP3    H137220   2.266   3.572   2.240  1.6342  1.6853 -1.4561
 5195TIP3    H237221   2.144   3.660   2.260  1.9192  2.0379 -1.2639
 5196TIP3   OH237222   6.350   6.419   1.758  0.1753 -0.0942 -0.3498
 5196TIP3    H137223   6.319   6.351   1.817 -0.0695 -0.6519 -1.1153
 5196TIP3    H237224   6.274   6.476   1.744  0.5728  0.7815  0.8739
 5197TIP3   OH237225   4.765   1.599   0.086 -0.0200 -0.1676 -0.0163
 5197TIP3    H137226   4.704   1.672   0.071  0.0492  0.7961  3.4661
 5197TIP3    H237227   4.712   1.532   0.128  0.6296 -0.7885 -0.1697
 5198TIP3   OH237228   3.059   3.993   7.489  0.4667  0.2761 -0.3502
 5198TIP3    H137229   3.120   3.953   7.551  0.4179  1.8954  0.8048
 5198TIP3    H237230   3.060   3.935   7.413  0.7195 -1.6466  1.0472
 5199TIP3   OH237231   2.951   0.134   1.984 -0.1633 -0.6983 -0.4638
 5199TIP3    H137232   2.975   0.113   2.074 -0.2371  0.1597 -0.2313
 5199TIP3    H237233   2.856   0.122   1.981 -0.2954  0.1437 -0.1592
 5200TIP3   OH237234   5.414   2.403   0.663 -0.1614  0.5503  0.0953
 5200TIP3    H137235   5.363   2.485   0.663  1.5182  1.6469  0.8315
 5200TIP3    H237236   5.412   2.374   0.571 -1.9082  0.6527  0.0659
 5201TIP3   OH237237   2.429   3.745   7.431 -0.0189  0.3484 -0.7165
 5201TIP3    H137238   2.515   3.731   7.391  0.0400  1.0143 -0.8348
 5201TIP3    H237239   2.445   3.809   7.501 -0.2757 -0.1438 -0.2012
 5202TIP3   OH237240   5.699   4.056   6.253  0.6141  0.3095 -0.3540
 5202TIP3    H137241   5.656   4.139   6.271  1.2983  1.6534 -3.9558
 5202TIP3    H237242   5.765   4.047   6.322  0.7626  2.9756 -0.0570
 5203TIP3   OH237243   6.165   1.807   2.229 -0.3290  0.1900  0.2036
 5203TIP3    H137244   6.087   1.752   2.240  1.2409 -1.7108  3.5823
 5203TIP3    H237245   6.222   1.756   2.171 -1.1461  1.1936 -1.5767
 5204TIP3   OH237246   0.159   1.847   2.743  0.6248  0.1066 -0.1657
 5204TIP3    H137247   0.065   1.845   2.729  0.5821  0.6737  0.0399
 5204TIP3    H237248   0.192   1.772   2.693 -0.1693 -1.4875  1.5654
 5205TIP3   OH237249   0.014   5.956   2.715  0.3107 -0.3203  0.1882
 5205TIP3    H137250  -0.051   5.919   2.655 -0.4626  0.4077  0.5557
 5205TIP3    H237251   0.022   5.891   2.785 -0.9802  0.1353  0.7879
 5206TIP3   OH237252   6.259   1.277   8.300  0.0012 -0.0433 -0.0249
 5206TIP3    H137253   6.211   1.204   8.338 -1.1767  0.8067  0.1991
 5206TIP3    H237254   6.195   1.348   8.296  0.7802  0.6350 -1.3020
 5207TIP3   OH237255   5.856   5.703   7.096  0.4573 -0.2125  0.2088
 5207TIP3    H137256   5.874   5.655   7.015 -0.3753  0.8989 -0.6699
 5207TIP3    H237257   5.826   5.789   7.066 -2.8370 -0.7375  1.5948
 5208TIP3   OH237258   0.191   1.780   7.187  0.0661  0.2592  1.2118
 5208TIP3    H137259   0.154   1.693   7.173  0.4101  0.1235  1.1328
 5208TIP3    H237260   0.126   1.826   7.239  0.4275 -0.4525  2.3380
 5209TIP3   OH237261   4.504   6.396   8.219  0.2878 -0.1912 -0.1795
 5209TIP3    H137262   4.466   6.352   8.295 -0.3121 -0.1042 -0.4283
 5209TIP3    H237263   4.501   6.489   8.242 -0.1550 -0.1435 -0.4253
 5210TIP3   OH237264   3.041   1.280   6.965  0.1286 -0.1688  0.1320
 5210TIP3    H137265   3.104   1.289   6.893  1.8534 -3.7597  0.9697
 5210TIP3    H237266   3.091   1.304   7.043 -1.7213  3.6708  0.3601
 5211TIP3   OH237267   1.884   6.736   1.514 -0.3781 -0.0476  0.4747
 5211TIP3    H137268   1.796   6.732   1.474 -0.6358  0.0323  1.0264
 5211TIP3    H237269   1.917   6.647   1.508 -1.4028 -0.6037  2.2566
 5212TIP3   OH237270   0.765   1.608   7.255  0.1186  0.1988 -0.5821
 5212TIP3    H137271   0.780   1.702   7.245  1.0178  0.3914  1.9564
 5212TIP3    H237272   0.673   1.601   7.278 -0.8503  0.0779 -3.9103
 5213TIP3   OH237273   1.687   6.550   7.451  0.4888  0.3409 -0.4254
 5213TIP3    H137274   1.634   6.512   7.381  0.6118  0.4324 -0.5669
 5213TIP3    H237275   1.622   6.579   7.516  0.3099  1.2154 -0.9740
 5214TIP3   OH237276   5.458   3.179   8.004  0.5398  0.0680 -0.0909
 5214TIP3    H137277   5.401   3.162   8.078  1.9035  1.3447  1.3259
 5214TIP3    H237278   5.533   3.120   8.016  1.4739  1.3146  0.4230
 5215TIP3   OH237279   4.456   4.444   7.107 -0.1139  0.3014  0.5368
 5215TIP3    H137280   4.500   4.457   7.022  0.4286 -0.3494  0.7082
 5215TIP3    H237281   4.461   4.350   7.122 -1.6021  0.2070  0.5656
 5216TIP3   OH237282   6.565   5.076   0.141 -0.1989  0.1766 -0.2357
 5216TIP3    H137283   6.522   4.991   0.131 -0.2270 -0.1101  1.8305
 5216TIP3    H237284   6.520   5.117   0.214  0.4517  1.5776 -0.5909
 5217TIP3   OH237285   6.313   6.693   8.508  0.2087 -0.2408 -0.0891
 5217TIP3    H137286   6.390   6.655   8.550  0.2373  0.2289  0.2830
 5217TIP3    H237287   6.335   6.785   8.494 -0.3117 -0.0880  0.0844
 5218TIP3   OH237288   5.352   6.459   1.460 -0.7536  0.3714 -0.2853
 5218TIP3    H137289   5.353   6.540   1.512 -1.2854  0.7827 -0.9104
 5218TIP3    H237290   5.358   6.389   1.526 -0.2003  0.9109  0.2557
 5219TIP3   OH237291   0.286   3.333   2.126  0.5878 -0.6667  0.5444
 5219TIP3    H137292   0.375   3.312   2.151  0.3747 -0.5164  1.4449
 5219TIP3    H237293   0.261   3.405   2.184  0.1906 -0.0997 -0.3062
 5220TIP3   OH237294   2.823   3.500   1.562 -0.0001 -0.6008  0.1588
 5220TIP3    H137295   2.820   3.576   1.504  1.9824 -1.2456 -0.9218
 5220TIP3    H237296   2.842   3.535   1.648 -0.7779  0.2356 -0.0047
 5221TIP3   OH237297   0.432   4.873   7.866 -0.4204 -0.0002 -0.4048
 5221TIP3    H137298   0.421   4.780   7.848  2.5318 -0.8250  1.3036
 5221TIP3    H237299   0.473   4.909   7.787  1.3160 -0.9111  0.0269
 5222TIP3   OH237300   2.224   0.596   7.859 -0.1565 -0.5006  0.6328
 5222TIP3    H137301   2.163   0.656   7.902 -1.1435  0.2423 -1.6452
 5222TIP3    H237302   2.172   0.517   7.841 -0.2406 -0.2176 -0.4854
 5223TIP3   OH237303   0.132   2.605   1.868 -0.5133 -0.0139  0.3243
 5223TIP3    H137304   0.145   2.693   1.903  0.5894  0.0248 -0.1199
 5223TIP3    H237305   0.123   2.618   1.773 -2.4053 -0.2115  0.4398
 5224TIP3   OH237306   1.799   3.683   8.776 -0.0841 -0.3555  0.0816
 5224TIP3    H137307   1.840   3.603   8.809  1.6408 -0.0199 -1.1291
 5224TIP3    H237308   1.863   3.752   8.794  0.8645 -0.1004 -3.6233
 5225TIP3   OH237309   1.145   3.277   7.260  0.1734 -0.3592  0.1910
 5225TIP3    H137310   1.165   3.265   7.167  0.7138 -1.3769  0.4192
 5225TIP3    H237311   1.052   3.256   7.267 -0.4562  1.9204 -0.4642
 5226TIP3   OH237312   3.461   5.947   7.565 -0.4361  0.0001  0.0162
 5226TIP3    H137313   3.541   5.894   7.562  0.2695  1.0307  0.2915
 5226TIP3    H237314   3.390   5.882   7.563  0.3920 -0.9322 -0.2225
 5227TIP3   OH237315   2.622   2.514   7.809  0.0385  0.1526  0.0374
 5227TIP3    H137316   2.674   2.463   7.747 -0.7717 -0.6811  0.0352
 5227TIP3    H237317   2.531   2.494   7.787 -0.2723  0.6091  0.8650
 5228TIP3   OH237318   1.527   2.566   6.806  0.0199  0.5439 -0.7402
 5228TIP3    H137319   1.476   2.495   6.765 -0.3345 -0.5521  1.4537
 5228TIP3    H237320   1.603   2.522   6.844  0.1068  1.4316  0.1521
 5229TIP3   OH237321   2.844   2.681   0.522  0.3407 -0.0813 -0.3746
 5229TIP3    H137322   2.759   2.691   0.564 -0.0043 -0.0980 -1.0573
 5229TIP3    H237323   2.841   2.593   0.484 -0.2461  0.7254 -2.3604
 5230TIP3   OH237324   0.682   1.116   0.585 -0.3173  0.2624 -0.1253
 5230TIP3    H137325   0.638   1.170   0.650 -2.0254  0.7944 -1.6514
 5230TIP3    H237326   0.628   1.123   0.506  2.4002  0.8471 -2.1116
 5231TIP3   OH237327   5.579   5.449   6.592  0.1933 -0.1593  0.0576
 5231TIP3    H137328   5.508   5.475   6.533 -0.2601  0.2215  0.7604
 5231TIP3    H237329   5.656   5.496   6.559 -0.1665  0.4424  0.0605
 5232TIP3   OH237330   1.080   6.298   7.166  0.0204  0.2992  0.0517
 5232TIP3    H137331   1.071   6.212   7.206  0.0111  0.7453  1.0253
 5232TIP3    H237332   1.173   6.305   7.143 -0.3970 -0.9825 -2.4232
 5233TIP3   OH237333   4.205   5.074   7.343  0.2202  0.2205  0.3862
 5233TIP3    H137334   4.285   5.046   7.388 -0.1055  3.0411  3.0254
 5233TIP3    H237335   4.234   5.146   7.287 -0.3368  0.5766  0.5625
 5234TIP3   OH237336   3.670   2.992   0.236  0.5095 -0.3204  0.3944
 5234TIP3    H137337   3.639   3.005   0.147  0.5616  0.6185  0.5027
 5234TIP3    H237338   3.593   3.009   0.291  0.9251  0.9414  0.6114
 5235TIP3   OH237339   1.521   4.503   1.371  0.0558 -0.8675 -0.6412
 5235TIP3    H137340   1.528   4.470   1.460 -0.7261 -1.1040 -0.6596
 5235TIP3    H237341   1.537   4.426   1.316 -1.7191 -1.2455 -0.6843
 5236TIP3   OH237342   2.812   5.426   7.421 -0.1105  0.2793  0.0554
 5236TIP3    H137343   2.809   5.521   7.406  0.5986  0.2621 -0.1938
 5236TIP3    H237344   2.808   5.388   7.334 -1.7969  0.0294  0.2116
 5237TIP3   OH237345   5.420   1.499   7.047 -0.1017  0.1435 -0.5255
 5237TIP3    H137346   5.442   1.453   7.128 -1.7745 -0.8532 -0.5815
 5237TIP3    H237347   5.371   1.434   6.996  0.5698  0.8766 -2.1718
 5238TIP3   OH237348   6.171   3.930   0.439  0.6820 -0.1281 -0.3923
 5238TIP3    H137349   6.181   3.939   0.534 -0.9317 -1.7483 -0.0238
 5238TIP3    H237350   6.089   3.975   0.419  0.9436  0.0877 -1.0133
 5239TIP3   OH237351   4.269   2.398   0.890 -0.1101  0.0200 -0.2097
 5239TIP3    H137352   4.258   2.483   0.933 -1.1823 -0.1342 -0.1400
 5239TIP3    H237353   4.194   2.392   0.831 -0.6964 -1.3727  0.6456
 5240TIP3   OH237354   2.130   1.959   6.938  0.5821  0.0910  0.1189
 5240TIP3    H137355   2.143   1.909   6.857  2.6807  2.2179 -0.9865
 5240TIP3    H237356   2.117   2.049   6.908  3.1756  1.2358  2.1424
 5241TIP3   OH237357   1.188   6.136   6.849  0.1103 -0.3491 -0.2657
 5241TIP3    H137358   1.112   6.193   6.838 -0.4623 -1.1283 -0.4018
 5241TIP3    H237359   1.233   6.140   6.764 -1.4087 -2.1840 -1.2376
 5242TIP3   OH237360   1.365   1.563   8.772 -0.2373 -0.3129 -0.7839
 5242TIP3    H137361   1.323   1.487   8.733 -0.2814 -1.4811  1.3968
 5242TIP3    H237362   1.294   1.611   8.814  0.0488 -0.0516 -0.5914
 5243TIP3   OH237363   5.536   1.976   6.645  0.0328 -0.7466 -0.0380
 5243TIP3    H137364   5.470   1.908   6.646  0.9111 -1.7154 -2.1970
 5243TIP3    H237365   5.619   1.930   6.659  0.5389  0.0162 -0.4353
 5244TIP3   OH237366   0.345   6.041   8.800  0.1640 -0.8676  0.4766
 5244TIP3    H137367   0.360   6.057   8.894  1.5850  0.4317  0.0813
 5244TIP3    H237368   0.270   6.097   8.778  0.2635 -0.6458  0.6964
 5245TIP3   OH237369   3.527   4.319   2.770 -0.2608  0.1038 -0.0291
 5245TIP3    H137370   3.452   4.263   2.791 -1.5398  1.4646 -0.7479
 5245TIP3    H237371   3.601   4.280   2.816 -2.0871  0.7830  3.8899
 5246TIP3   OH237372   3.117   5.089   1.391 -0.2513 -0.3555 -0.4190
 5246TIP3    H137373   3.146   5.164   1.339  1.5528 -0.7319 -0.0413
 5246TIP3    H237374   3.034   5.062   1.351  0.1190  0.5570 -1.8789
 5247TIP3   OH237375   1.833   3.446   0.657 -0.0495  0.4627  0.3890
 5247TIP3    H137376   1.795   3.375   0.709  0.9169  1.2984  2.3341
 5247TIP3    H237377   1.842   3.409   0.569 -1.5306 -1.0868  0.8426
 5248TIP3   OH237378   1.848   2.880   8.771  0.0889  0.2502  0.0074
 5248TIP3    H137379   1.861   2.937   8.847 -0.1922  1.4284 -0.8027
 5248TIP3    H237380   1.785   2.814   8.801 -0.9591  1.4218  0.4556
 5249TIP3   OH237381   1.975   3.565   1.247 -0.2921  0.0749 -0.0464
 5249TIP3    H137382   2.064   3.546   1.275 -0.3437 -1.3519 -0.7232
 5249TIP3    H237383   1.973   3.541   1.154 -2.1282 -3.0252  0.6321
 5250TIP3   OH237384   0.796   5.269   0.265  0.2730  0.4950 -0.0804
 5250TIP3    H137385   0.748   5.294   0.186 -1.1381  4.5770  1.7836
 5250TIP3    H237386   0.887   5.291   0.245  0.1134  0.4257 -0.9222
 5251TIP3   OH237387   4.660   3.696   6.746 -0.6191 -0.4264 -0.4134
 5251TIP3    H137388   4.751   3.702   6.776 -0.4130  0.7123 -1.2147
 5251TIP3    H237389   4.639   3.602   6.751  1.1275 -0.9350 -1.7492
 5252TIP3   OH237390   0.919   3.892   7.123  0.9359  0.2522  0.7605
 5252TIP3    H137391   0.953   3.980   7.139 -1.4290  1.0967  1.5354
 5252TIP3    H237392   0.889   3.895   7.032  0.2199  0.5078  0.9953
 5253TIP3   OH237393   2.326   6.524   0.795  0.0370 -0.0761  0.2770
 5253TIP3    H137394   2.254   6.482   0.841 -1.9660  0.1728 -2.3496
 5253TIP3    H237395   2.307   6.618   0.802  0.8579  0.0711  0.6461
 5254TIP3   OH237396   3.665   4.732   7.536 -0.2975 -0.1558  0.0852
 5254TIP3    H137397   3.698   4.808   7.488 -2.5364  1.1228  0.4388
 5254TIP3    H237398   3.613   4.769   7.607  0.9941 -2.0487  2.1261
 5255TIP3   OH237399   3.844   1.165   7.551 -0.8284 -0.8094  0.5139
 5255TIP3    H137400   3.759   1.196   7.520 -0.2451  0.1009 -0.2379
 5255TIP3    H237401   3.847   1.072   7.525 -0.5616 -0.2179 -1.8266
 5256TIP3   OH237402   6.348   2.313   1.784  0.2445  0.3371 -0.0175
 5256TIP3    H137403   6.347   2.259   1.705 -0.1906 -0.5593  0.5968
 5256TIP3    H237404   6.440   2.336   1.796  0.8350 -2.2225  1.0111
 5257TIP3   OH237405   4.703   4.119   2.313  0.2277  0.4436  0.4377
 5257TIP3    H137406   4.789   4.128   2.352  0.5770  2.1704 -0.6453
 5257TIP3    H237407   4.642   4.126   2.386  0.9659 -0.8315  1.2173
 5258TIP3   OH237408   1.213   6.454   8.180 -0.0515 -0.1016  0.4011
 5258TIP3    H137409   1.187   6.520   8.116  0.7622  1.2014  1.3491
 5258TIP3    H237410   1.211   6.371   8.132  1.6199  0.9535 -1.6720
 5259TIP3   OH237411   6.327   3.369   0.395 -0.2646 -0.1358  0.1946
 5259TIP3    H137412   6.366   3.444   0.350 -0.1956 -0.1418  0.2431
 5259TIP3    H237413   6.390   3.298   0.380  1.7894  0.7575  3.5233
 5260TIP3   OH237414   3.275   2.075   0.870 -0.1655  0.2003  0.1858
 5260TIP3    H137415   3.183   2.091   0.890  0.3921  1.4955  1.9974
 5260TIP3    H237416   3.310   2.035   0.950  0.9414  0.1553 -0.3074
 5261TIP3   OH237417   0.304   0.358   8.575 -0.1505  0.0354  0.2736
 5261TIP3    H137418   0.215   0.328   8.558 -0.1630  0.1459  0.1423
 5261TIP3    H237419   0.315   0.434   8.518 -0.3571  0.6949  1.0907
 5262TIP3   OH237420   4.466   1.928   0.452 -0.2166 -0.2748 -0.2981
 5262TIP3    H137421   4.454   1.910   0.545 -0.6184  0.0571 -0.2834
 5262TIP3    H237422   4.449   2.022   0.443 -1.5930 -0.5665 -0.9290
 5263TIP3   OH237423   0.764   6.758   7.833  0.3555  0.0318  0.1861
 5263TIP3    H137424   0.814   6.801   7.764  0.9013 -1.4511 -0.4058
 5263TIP3    H237425   0.813   6.776   7.913  1.4303 -0.7226 -0.2730
 5264TIP3   OH237426   0.592   0.034   1.809 -0.1576  0.0188  0.0600
 5264TIP3    H137427   0.588  -0.061   1.817 -0.2926 -0.1172 -1.3610
 5264TIP3    H237428   0.652   0.062   1.879  1.0169 -1.2547 -0.3888
 5265TIP3   OH237429   3.377   1.821   8.181  0.3755 -0.0898 -0.6444
 5265TIP3    H137430   3.395   1.890   8.117  1.2588  0.0676 -0.2301
 5265TIP3    H237431   3.317   1.861   8.244 -0.2178 -0.1383 -1.1713
 5266TIP3   OH237432   1.819   3.430   0.105 -0.5719  0.1417  0.4307
 5266TIP3    H137433   1.891   3.375   0.074  1.2609  2.9329 -0.7943
 5266TIP3    H237434   1.742   3.374   0.103  1.6134 -3.3327  2.7418
 5267TIP3   OH237435   4.548   1.158   8.788 -0.1732 -0.2969  0.1301
 5267TIP3    H137436   4.572   1.081   8.839  0.0067 -0.9045 -0.8320
 5267TIP3    H237437   4.480   1.126   8.727 -1.0689  0.6252  0.6142
 5268TIP3   OH237438   4.469   2.380   1.821  0.7021 -0.1008 -0.2408
 5268TIP3    H137439   4.464   2.304   1.879  2.2099  0.0394  0.1382
 5268TIP3    H237440   4.459   2.455   1.879  0.3168  0.0088 -0.4498
 5269TIP3   OH237441   1.909   2.160   7.875  0.1598 -0.1335  0.1683
 5269TIP3    H137442   1.856   2.114   7.809 -0.0722  1.5768 -0.9157
 5269TIP3    H237443   1.969   2.214   7.824  0.6298  0.5270  1.3785
 5270TIP3   OH237444   3.213   1.730   7.650  0.3807  0.0833 -0.5394
 5270TIP3    H137445   3.161   1.650   7.651 -0.2188  0.4595  0.2872
 5270TIP3    H237446   3.235   1.745   7.558  1.7351 -1.8027 -0.5701
 5271TIP3   OH237447   0.225   0.910   0.459 -0.5564 -0.4695 -0.1344
 5271TIP3    H137448   0.133   0.928   0.480 -0.7362 -1.7674  0.2809
 5271TIP3    H237449   0.226   0.819   0.429  0.7004 -0.7304  0.6137
 5272TIP3   OH237450   3.753   3.314   0.891 -0.0594 -0.1819 -0.1903
 5272TIP3    H137451   3.827   3.265   0.856  0.0548  0.7351 -1.2927
 5272TIP3    H237452   3.771   3.321   0.985  0.7926 -0.7438 -0.3009
 5273TIP3   OH237453   4.356   1.369   1.933 -0.0815 -1.2227  0.0817
 5273TIP3    H137454   4.371   1.277   1.952 -0.2907 -1.1457  0.6476
 5273TIP3    H237455   4.289   1.396   1.996  1.1451 -0.2866  1.0483
 5274TIP3   OH237456   3.845   2.144   0.968  0.2555 -0.5398  0.0336
 5274TIP3    H137457   3.753   2.127   0.950  0.1783 -0.3101  0.2044
 5274TIP3    H237458   3.845   2.190   1.052  0.4356  0.4319 -0.4734
 5275TIP3   OH237459   5.177   0.361   1.024 -0.2467  0.1125 -0.4071
 5275TIP3    H137460   5.259   0.313   1.032 -1.0591 -1.1071  1.0984
 5275TIP3    H237461   5.158   0.391   1.112 -1.0558  1.0312 -0.8720
 5276TIP3   OH237462   5.368   0.568   1.179 -0.2120 -0.5534  0.7935
 5276TIP3    H137463   5.336   0.632   1.243  1.0961  0.0806  0.8697
 5276TIP3    H237464   5.329   0.595   1.096  0.6410  0.6326  0.7470
 5277TIP3   OH237465   2.969   0.069   0.419 -0.3502 -0.4681 -0.0546
 5277TIP3    H137466   2.994   0.149   0.372  1.2456 -1.3056 -0.7315
 5277TIP3    H237467   3.044   0.011   0.407 -1.5770 -2.1649  0.2203
 5278TIP3   OH237468   4.818   1.379   1.119 -0.1194  0.2905 -0.1076
 5278TIP3    H137469   4.881   1.318   1.081 -0.4367 -1.5645  2.0589
 5278TIP3    H237470   4.861   1.412   1.198 -0.3920  2.0965 -0.6754
 5279TIP3   OH237471   1.522   5.225   1.284 -0.3605 -0.8007 -0.6020
 5279TIP3    H137472   1.453   5.164   1.313  0.0502 -1.4431 -0.9502
 5279TIP3    H237473   1.601   5.195   1.330 -0.0227 -0.9293 -1.2523
 5280TIP3   OH237474   5.076   4.635   7.419 -0.1678 -0.3666 -0.0120
 5280TIP3    H137475   5.008   4.650   7.485 -1.7851 -1.4391 -1.3452
 5280TIP3    H237476   5.139   4.578   7.462 -0.1788  0.5013  1.2080
 5281TIP3   OH237477   4.655   0.928   8.569  0.1836  0.1398  0.3323
 5281TIP3    H137478   4.703   0.884   8.498 -0.1617  0.5602 -0.1687
 5281TIP3    H237479   4.641   0.859   8.634  1.8094  0.0943  0.6792
 5282TIP3   OH237480   1.148   5.196   7.955 -0.3947 -0.8585 -0.1137
 5282TIP3    H137481   1.057   5.211   7.929 -0.5903 -0.4551  0.7682
 5282TIP3    H237482   1.164   5.104   7.935 -0.9847 -0.9177 -0.3137
 5283TIP3   OH237483   5.585   1.937   1.648  0.1369 -0.0772 -0.5842
 5283TIP3    H137484   5.596   1.862   1.706  0.6078  0.7220  0.3691
 5283TIP3    H237485   5.623   1.908   1.565  2.4809 -0.1195  0.4252
 5284TIP3   OH237486   0.986   5.645   1.622 -0.3878  0.2043 -0.2514
 5284TIP3    H137487   1.032   5.668   1.542 -0.7798 -0.8254 -0.7980
 5284TIP3    H237488   0.910   5.594   1.593  0.6127 -2.0799  0.8500
 5285TIP3   OH237489   2.836   6.241   1.892  0.1265 -0.1000 -0.3458
 5285TIP3    H137490   2.797   6.194   1.965 -0.5905  1.5284  0.3688
 5285TIP3    H237491   2.922   6.267   1.924  0.2753 -0.3904 -0.5102
 5286TIP3   OH237492   1.928   3.435   2.183 -0.3554 -0.5220  0.8835
 5286TIP3    H137493   1.866   3.506   2.171 -0.8451 -0.5643  2.9094
 5286TIP3    H237494   2.013   3.478   2.195  0.1687 -0.4732 -2.1829
 5287TIP3   OH237495   5.035   1.009   1.370 -0.3652 -0.2342 -0.0164
 5287TIP3    H137496   4.968   0.996   1.303  0.1862 -1.0010 -0.4319
 5287TIP3    H237497   5.033   0.928   1.422 -0.2536  0.0327  0.4061
 5288TIP3   OH237498   6.342   2.063   1.160  0.2959 -0.0169 -0.2447
 5288TIP3    H137499   6.380   1.978   1.182 -0.8016 -0.4582  0.0074
 5288TIP3    H237500   6.362   2.075   1.067 -1.3383 -1.5616 -0.8623
 5289TIP3   OH237501   5.664   1.988   1.391  0.1818  0.5770  0.0591
 5289TIP3    H137502   5.625   2.073   1.371  0.5861  1.1186  1.4420
 5289TIP3    H237503   5.667   1.942   1.307  0.1624  2.0096 -0.7457
 5290TIP3   OH237504   2.866   1.760   8.274 -0.1920 -0.0291  0.1545
 5290TIP3    H137505   2.869   1.854   8.258 -0.4691 -0.3373 -1.9626
 5290TIP3    H237506   2.805   1.750   8.347 -1.5561  1.3371 -0.7280
 5291TIP3   OH237507   1.614   3.239   1.858 -0.8405  0.0855  0.2562
 5291TIP3    H137508   1.690   3.296   1.858 -0.9247  0.2056 -0.2513
 5291TIP3    H237509   1.540   3.297   1.875 -0.6477 -0.3080  2.7318
 5292TIP3   OH237510   6.508   0.040   8.173  0.2528  0.0866 -0.0578
 5292TIP3    H137511   6.512  -0.018   8.097  2.5675  0.0722  0.0233
 5292TIP3    H237512   6.516   0.128   8.137  2.5980  0.0250  0.1934
 5293TIP3   OH237513   2.971   0.600   0.885  0.2036 -0.2169  0.0970
 5293TIP3    H137514   2.905   0.594   0.816 -0.8013  1.6756  0.8151
 5293TIP3    H237515   3.054   0.587   0.840 -0.5764 -1.6395 -1.0055
 5294TIP3   OH237516   5.238   2.456   6.442 -0.2234  0.3495 -0.5911
 5294TIP3    H137517   5.240   2.531   6.382 -2.2953  0.1623 -1.0009
 5294TIP3    H237518   5.235   2.380   6.384  2.0634 -0.1135 -0.1795
 5295TIP3   OH237519   1.408   0.704   7.806  0.1935  0.4448  0.4106
 5295TIP3    H137520   1.459   0.707   7.725 -0.7676 -1.3049 -0.3168
 5295TIP3    H237521   1.445   0.632   7.856 -0.6276  0.0889  0.5247
 5296TIP3   OH237522   5.864   3.227   1.722 -0.6286 -0.0578  0.8246
 5296TIP3    H137523   5.949   3.203   1.684  0.8775  4.3222  0.8675
 5296TIP3    H237524   5.860   3.179   1.805  0.5735 -2.2308 -0.2824
 5297TIP3   OH237525   3.314   5.613   7.347 -0.1780  0.0334  0.2349
 5297TIP3    H137526   3.232   5.566   7.332 -0.3809  0.6330 -0.6002
 5297TIP3    H237527   3.288   5.688   7.400  0.1149 -0.6733  1.4047
 5298TIP3   OH237528   1.796   6.045   2.189  0.1579 -0.2947 -0.1811
 5298TIP3    H137529   1.839   6.130   2.200 -0.2643 -0.2859  1.7850
 5298TIP3    H237530   1.841   5.987   2.251 -2.5401 -0.2662  2.0109
 5299TIP3   OH237531   5.440   2.671   8.551  0.3983  0.3176 -0.4349
 5299TIP3    H137532   5.462   2.729   8.623  0.3355  0.8513 -0.8376
 5299TIP3    H237533   5.457   2.583   8.584 -0.4993  0.4978  0.5377
 5300TIP3   OH237534   3.339   2.926   7.082  0.4429 -0.0407  0.3355
 5300TIP3    H137535   3.299   2.980   7.014  0.1518 -0.6183  0.0412
 5300TIP3    H237536   3.295   2.841   7.074  0.1648 -0.0235  1.4525
 5301TIP3   OH237537   5.326   2.467   6.717 -0.1430  0.2498 -0.0726
 5301TIP3    H137538   5.396   2.402   6.707 -1.1345 -1.1593  1.6141
 5301TIP3    H237539   5.285   2.472   6.631  0.4486 -0.7879 -0.4335
 5302TIP3   OH237540   5.777   4.360   2.688 -0.1888  0.4471  0.1034
 5302TIP3    H137541   5.840   4.423   2.723  0.1193  1.9869 -2.9371
 5302TIP3    H237542   5.722   4.412   2.629 -2.6296 -1.3851  0.6099
 5303TIP3   OH237543   1.769   0.008   0.420  0.1826  0.0263 -0.3419
 5303TIP3    H137544   1.822  -0.060   0.379  1.5612  0.0408  1.2987
 5303TIP3    H237545   1.767  -0.015   0.513 -1.2800  0.9813 -0.0866
 5304TIP3   OH237546   5.361   2.064   0.339 -0.3799 -0.0422  0.2425
 5304TIP3    H137547   5.277   2.032   0.370 -0.6418 -0.1018 -0.5013
 5304TIP3    H237548   5.351   2.071   0.244  1.7607 -4.1300 -0.5047
 5305TIP3   OH237549   4.224   1.792   1.938 -0.0063 -0.2090  0.1565
 5305TIP3    H137550   4.245   1.703   1.966 -0.9368 -0.2334  0.8121
 5305TIP3    H237551   4.292   1.814   1.875 -0.4077 -1.8059 -0.8741
 5306TIP3   OH237552   1.773   5.253   1.390 -0.1210  0.6877  0.2481
 5306TIP3    H137553   1.862   5.263   1.356  0.1666 -0.6821  0.4968
 5306TIP3    H237554   1.786   5.226   1.481 -0.5586 -3.7348 -0.7702
 5307TIP3   OH237555   6.568   0.057   1.842  0.2849  0.3491  0.3533
 5307TIP3    H137556   6.566   0.060   1.746 -2.1328  0.8412  0.3488
 5307TIP3    H237557   6.538  -0.031   1.864 -1.5318  0.9801  0.6022
 5308TIP3   OH237558   2.202   3.804   8.146  0.5164 -0.6893 -0.4858
 5308TIP3    H137559   2.186   3.745   8.073  0.1754 -0.3863 -0.6583
 5308TIP3    H237560   2.188   3.750   8.224  1.2647 -1.1143 -0.6376
 5309TIP3   OH237561   4.993   1.104   0.479  0.4740  0.0440  0.0253
 5309TIP3    H137562   4.929   1.169   0.508 -0.9387 -1.0166 -0.5454
 5309TIP3    H237563   5.050   1.091   0.555 -0.6737  0.2291  0.9578
 5310TIP3   OH237564   5.010   5.728   0.371  0.9684 -0.0653  0.0513
 5310TIP3    H137565   4.933   5.712   0.316  0.2949  2.3986  0.1625
 5310TIP3    H237566   5.066   5.651   0.357 -1.0388 -1.4588 -0.8104
 5311TIP3   OH237567   2.425   3.291   2.096  0.6856 -0.5705  0.0501
 5311TIP3    H137568   2.426   3.358   2.164  1.5524 -0.2731 -0.2515
 5311TIP3    H237569   2.496   3.231   2.119 -0.0864 -1.4152  0.3273
 5312TIP3   OH237570   4.061   6.630   1.745  0.4531 -0.3881  0.3240
 5312TIP3    H137571   4.005   6.699   1.709  1.3113 -0.6233 -1.5776
 5312TIP3    H237572   4.106   6.672   1.818  0.7765  1.0258 -0.6467
 5313TIP3   OH237573   4.402   3.055   1.308  0.2975 -0.2327  0.7089
 5313TIP3    H137574   4.320   3.005   1.305  0.6138 -0.7980 -2.0835
 5313TIP3    H237575   4.378   3.143   1.278  0.6015 -0.2512  0.4008
 5314TIP3   OH237576   4.833   0.410   2.420  0.2721  0.1126  0.5409
 5314TIP3    H137577   4.891   0.398   2.495  0.5694 -3.2705 -0.0828
 5314TIP3    H237578   4.747   0.425   2.459  0.5669 -0.7267  1.5788
 5315TIP3   OH237579   2.239   2.448   0.403 -0.0883  0.1423 -0.4533
 5315TIP3    H137580   2.187   2.373   0.374  0.2589 -0.0140 -0.6656
 5315TIP3    H237581   2.324   2.411   0.428  0.0444  0.4470 -0.4425
 5316TIP3   OH237582   6.458   2.905   8.604  0.6192 -0.0303  0.1309
 5316TIP3    H137583   6.419   2.886   8.519 -0.3235  0.6467  0.3878
 5316TIP3    H237584   6.383   2.919   8.662  1.2015  2.3078  0.4295
 5317TIP3   OH237585   6.158   1.772   1.583 -0.3351 -0.9041 -0.3625
 5317TIP3    H137586   6.166   1.791   1.676 -1.1700  0.6806 -0.5756
 5317TIP3    H237587   6.075   1.811   1.558  0.3831 -0.3202 -1.9898
 5318TIP3   OH237588   1.774   6.232   1.083 -0.3950 -0.0641  0.4316
 5318TIP3    H137589   1.865   6.218   1.110  0.1974  0.6974 -1.0247
 5318TIP3    H237590   1.743   6.304   1.138  0.1133  0.1253  0.4764
 5319TIP3   OH237591   5.899   3.851   1.207 -0.0068 -0.2795 -0.1467
 5319TIP3    H137592   5.944   3.934   1.212 -0.6153 -0.0044  0.9441
 5319TIP3    H237593   5.940   3.806   1.133  1.6523  0.1741  0.4550
 5320TIP3   OH237594   5.270   2.051   8.577 -0.7192 -0.0506  0.4544
 5320TIP3    H137595   5.326   1.988   8.531  1.6115  0.5191  2.2822
 5320TIP3    H237596   5.308   2.136   8.556  0.0398  0.2625  2.8045
 5321TIP3   OH237597   1.024   3.058   0.471  0.2579  0.2699 -0.0603
 5321TIP3    H137598   0.962   3.081   0.541 -0.7760 -3.0063  0.2953
 5321TIP3    H237599   0.982   2.986   0.425  3.0942 -1.0208 -0.8580
 5322TIP3   OH237600   5.250   1.220   0.052  0.2685  0.0852  0.1897
 5322TIP3    H137601   5.218   1.173   0.129 -1.1676  0.3322 -0.2249
 5322TIP3    H237602   5.255   1.154  -0.017 -1.4931  0.4516 -0.3221
 5323TIP3   OH237603   5.675   5.349   7.271 -0.3868 -0.7822 -0.0229
 5323TIP3    H137604   5.699   5.313   7.356  1.1839 -0.6438 -0.3650
 5323TIP3    H237605   5.613   5.419   7.291 -0.3148 -0.9914  0.9800
 5324TIP3   OH237606   4.783   3.531   0.729  0.0422  0.6004  0.4355
 5324TIP3    H137607   4.813   3.455   0.778 -2.7135 -0.1399  1.1271
 5324TIP3    H237608   4.730   3.581   0.791 -0.4147  1.6500 -0.7489
 5325TIP3   OH237609   0.528   5.846   2.541 -0.7071  0.7091 -0.2434
 5325TIP3    H137610   0.551   5.886   2.625 -1.3992  0.9077 -0.1468
 5325TIP3    H237611   0.438   5.815   2.552 -0.1163 -1.1162 -0.2297
 5326TIP3   OH237612   0.870   4.256   2.702  0.2362 -0.1548 -0.0948
 5326TIP3    H137613   0.949   4.306   2.725  0.7737 -0.6453 -0.8407
 5326TIP3    H237614   0.798   4.311   2.733  0.8109  1.1222 -0.9269
 5327TIP3   OH237615   5.593   4.021   1.154 -0.9098  0.0064 -0.3183
 5327TIP3    H137616   5.506   3.985   1.140 -0.5566 -0.4168 -1.5807
 5327TIP3    H237617   5.652   3.960   1.110 -0.1296  1.1691 -0.9420
 5328TIP3   OH237618   1.910   3.252   1.633 -0.5499 -0.3232 -0.5917
 5328TIP3    H137619   1.877   3.285   1.717 -0.4309  2.2095 -1.4479
 5328TIP3    H237620   1.958   3.326   1.596  0.2352 -1.7024 -2.4792
 5329TIP3   OH237621   6.415   0.005   2.316  0.1012  0.2028  0.5745
 5329TIP3    H137622   6.347   0.035   2.376  1.3822  1.6331  1.3719
 5329TIP3    H237623   6.456  -0.069   2.361 -0.3954 -0.1704  0.4293
 5330TIP3   OH237624   6.538   0.905   1.468 -0.2856 -0.2006 -0.2022
 5330TIP3    H137625   6.477   0.846   1.512  0.6789 -1.0445  0.0379
 5330TIP3    H237626   6.510   0.906   1.377 -0.2034 -1.1776 -0.2448
 5331TIP3   OH237627   3.716   4.509   7.095 -0.4118  0.0290 -0.2674
 5331TIP3    H137628   3.652   4.579   7.081 -2.6877 -1.9383 -0.4177
 5331TIP3    H237629   3.669   4.429   7.071  1.9361 -1.6167  0.2801
 5332TIP3   OH237630   2.816   5.866   1.188  0.6845 -0.5409  0.5748
 5332TIP3    H137631   2.733   5.911   1.169  1.1058 -0.5540 -1.4210
 5332TIP3    H237632   2.790   5.776   1.209  0.3171 -1.4953 -3.3244
 5333TIP3   OH237633   4.262   4.745   7.831  0.3467 -0.6377  0.8411
 5333TIP3    H137634   4.295   4.809   7.894 -0.8262 -0.3065  1.1479
 5333TIP3    H237635   4.224   4.675   7.886 -0.5150 -0.4344  0.5148
 5334TIP3   OH237636   1.009   4.492   7.593  0.6569 -0.6758 -0.3640
 5334TIP3    H137637   0.968   4.409   7.615  1.0880 -0.9137 -0.4544
 5334TIP3    H237638   1.050   4.478   7.508 -2.0356  0.5985 -1.9831
 5335TIP3   OH237639   0.688   1.930   0.488  0.0723 -0.1813  0.7074
 5335TIP3    H137640   0.770   1.891   0.457  0.2219 -0.3972  1.3641
 5335TIP3    H237641   0.665   1.879   0.566  0.4533  1.2422  1.7889
 5336TIP3   OH237642   4.267   5.176   8.159 -0.3805 -0.2195 -1.0650
 5336TIP3    H137643   4.186   5.221   8.182 -1.1205 -1.8684 -0.2834
 5336TIP3    H237644   4.329   5.246   8.139 -1.6058  1.1071 -0.3535
 5337TIP3   OH237645   1.650   2.727   7.487 -0.7206  0.1042 -0.2359
 5337TIP3    H137646   1.706   2.652   7.466 -1.2089 -0.0795 -0.9228
 5337TIP3    H237647   1.565   2.688   7.509 -0.9701  0.4501 -0.5680
 5338TIP3   OH237648   1.031   6.247   7.529 -0.4612  1.2725  0.2235
 5338TIP3    H137649   1.089   6.194   7.473 -1.1432  0.7722 -0.0173
 5338TIP3    H237650   1.091   6.303   7.578  0.1931  1.2841 -0.5573
 5339TIP3   OH237651   2.562   1.290   7.946  0.2465 -0.0765 -0.5154
 5339TIP3    H137652   2.530   1.370   7.988  1.8167  0.4577 -0.2672
 5339TIP3    H237653   2.547   1.221   8.010 -0.1360  0.2020 -0.3007
 5340TIP3   OH237654   2.539   0.203   0.971  0.6173 -0.5330 -0.0347
 5340TIP3    H137655   2.587   0.234   0.894  2.1044  1.1522  1.4610
 5340TIP3    H237656   2.447   0.213   0.947  1.0444  1.2053 -1.1520
 5341TIP3   OH237657   3.018   2.879   7.159 -0.1172  0.2883  0.4642
 5341TIP3    H137658   2.933   2.842   7.135  1.0840 -2.2138 -0.2413
 5341TIP3    H237659   3.069   2.877   7.078  0.7645  1.4334  0.9545
 5342TIP3   OH237660   0.464   6.365   7.953 -0.2508 -0.2041 -0.1324
 5342TIP3    H137661   0.501   6.328   7.873  0.1925  0.8369 -0.4332
 5342TIP3    H237662   0.405   6.434   7.921  0.0662  0.3391  0.4399
 5343TIP3   OH237663   2.094   4.274   0.433  0.2480 -0.0755 -0.3682
 5343TIP3    H137664   2.187   4.275   0.455  0.0789 -0.7253  0.4619
 5343TIP3    H237665   2.070   4.181   0.439 -0.4205  0.0726 -0.7094
 5344TIP3   OH237666   2.589   2.935   1.135  0.0033 -0.1218 -0.5555
 5344TIP3    H137667   2.639   2.872   1.187 -1.5428 -1.0877 -0.1732
 5344TIP3    H237668   2.509   2.889   1.112 -1.2989  1.7619 -0.0683
 5345TIP3   OH237669   3.285   2.409   8.477  0.4857  0.0566 -0.0023
 5345TIP3    H137670   3.279   2.418   8.572 -0.9394  0.2872 -0.0970
 5345TIP3    H237671   3.322   2.493   8.448 -0.4670  0.5837  0.2415
 5346TIP3   OH237672   3.257   0.436   0.056 -0.1323 -0.0447  0.2836
 5346TIP3    H137673   3.291   0.514   0.100 -2.6398  0.9541  0.6533
 5346TIP3    H237674   3.303   0.363   0.096  1.8555  1.1874  0.3654
 5347TIP3   OH237675   3.170   6.004   8.728 -0.0845  0.2641 -0.6938
 5347TIP3    H137676   3.091   5.963   8.693 -0.5862  0.0974  0.5848
 5347TIP3    H237677   3.157   6.098   8.714 -0.2627  0.1974 -0.9792
 5348TIP3   OH237678   1.485   2.287   1.916 -0.0594  0.2759  0.2267
 5348TIP3    H137679   1.539   2.209   1.930 -1.4603 -1.0752 -1.4048
 5348TIP3    H237680   1.422   2.286   1.988  0.4986  0.4373  0.7254
 5349TIP3   OH237681   0.718   3.683   7.135 -0.2280 -0.6138  0.1268
 5349TIP3    H137682   0.784   3.750   7.153 -0.1638 -0.5224 -0.4558
 5349TIP3    H237683   0.646   3.705   7.194 -1.4758  1.7777 -2.0859
 5350TIP3   OH237684   0.272   0.203   6.744  0.1759  0.1069  0.2024
 5350TIP3    H137685   0.314   0.132   6.696 -0.7556  0.1676 -0.7161
 5350TIP3    H237686   0.345   0.255   6.779  0.8634 -0.2124 -0.7314
 5351TIP3   OH237687   1.890   3.063   8.238 -0.3021 -0.0008  0.0938
 5351TIP3    H137688   1.800   3.031   8.250 -0.3492 -1.1871 -2.6638
 5351TIP3    H237689   1.940   3.019   8.306 -1.3889 -1.4910 -0.0134
 5352TIP3   OH237690   2.169   3.720   2.440  0.0240  0.1926  0.0445
 5352TIP3    H137691   2.128   3.746   2.523 -0.9034 -1.8575  0.2943
 5352TIP3    H237692   2.253   3.683   2.466  0.0661  0.2528 -0.0062
 5353TIP3   OH237693   5.247   5.728   7.397 -0.0891 -0.1356  0.1016
 5353TIP3    H137694   5.184   5.798   7.416 -0.7550 -0.6174 -0.2642
 5353TIP3    H237695   5.331   5.773   7.391 -0.4387  0.5731  0.2944
 5354TIP3   OH237696   3.586   4.706   0.291  0.4578 -0.0716 -0.6289
 5354TIP3    H137697   3.624   4.680   0.207 -0.8290 -2.7265 -0.5085
 5354TIP3    H237698   3.492   4.714   0.273  0.0086 -1.7172  0.6892
 5355TIP3   OH237699   5.786   3.265   0.237  0.0401 -0.4781 -0.1368
 5355TIP3    H137700   5.727   3.265   0.313 -0.8965 -1.9695 -0.8119
 5355TIP3    H237701   5.760   3.343   0.188  2.0125  1.6795  1.9918
 5356TIP3   OH237702   2.943   2.725   1.539 -0.2248  0.0585  0.7633
 5356TIP3    H137703   3.037   2.741   1.547  0.1468 -1.7064  0.2319
 5356TIP3    H237704   2.931   2.637   1.574 -1.3466 -0.5646 -1.0998
 5357TIP3   OH237705   5.159   4.319   0.490 -0.0377 -0.4448 -0.0615
 5357TIP3    H137706   5.110   4.386   0.444  1.2787 -1.3291 -2.9599
 5357TIP3    H237707   5.250   4.350   0.490  0.0246 -0.4437  2.1074
 5358TIP3   OH237708   6.473   5.415   0.655  0.6672 -0.1209 -0.7232
 5358TIP3    H137709   6.391   5.453   0.686  0.9529  0.6680 -0.9217
 5358TIP3    H237710   6.541   5.458   0.706  0.9964 -0.3506 -0.9589
 5359TIP3   OH237711   2.759   5.890   0.752  0.9792 -0.0432 -0.0639
 5359TIP3    H137712   2.702   5.920   0.681  0.3326 -0.9937  0.0281
 5359TIP3    H237713   2.725   5.934   0.830  0.7537 -0.1312 -0.1107
 5360TIP3   OH237714   3.100   6.712   6.514  0.3229  0.4381 -0.1140
 5360TIP3    H137715   3.132   6.718   6.424 -0.1722 -0.0899 -0.3323
 5360TIP3    H237716   3.117   6.621   6.539 -2.9580 -0.5455 -1.0112
 5361TIP3   OH237717   0.539   0.191   1.141 -0.2871  0.1154  0.4895
 5361TIP3    H137718   0.587   0.249   1.082 -0.4821  0.4155  0.6241
 5361TIP3    H237719   0.499   0.250   1.205 -0.4042 -0.1762  0.6861
 5362TIP3   OH237720   3.279   4.597   1.937  0.1981  0.5076 -0.7613
 5362TIP3    H137721   3.299   4.674   1.884 -0.9406  0.6123 -1.0820
 5362TIP3    H237722   3.290   4.626   2.028  2.0205  0.3690 -0.8999
 5363TIP3   OH237723   0.433   4.683   1.415  0.0122 -0.3445 -0.0822
 5363TIP3    H137724   0.424   4.596   1.378  1.4315 -0.5895  0.0898
 5363TIP3    H237725   0.462   4.738   1.342 -0.5918 -0.0679 -0.1225
 5364TIP3   OH237726   2.217   4.061   7.303  0.6075  0.0501  0.1979
 5364TIP3    H137727   2.187   4.088   7.216 -1.7308  1.2562  1.2765
 5364TIP3    H237728   2.268   4.135   7.335  1.3693 -0.3465 -0.0732
 5365TIP3   OH237729   0.497   0.693   2.314  0.4094 -0.0849  0.3664
 5365TIP3    H137730   0.550   0.636   2.258  0.4810  1.4604 -1.2259
 5365TIP3    H237731   0.414   0.647   2.323  1.7936 -2.4212  2.6712
 5366TIP3   OH237732   4.444   2.044   1.621 -0.0680  0.1943 -0.2325
 5366TIP3    H137733   4.350   2.057   1.625 -0.3551 -1.4013 -1.0522
 5366TIP3    H237734   4.460   1.964   1.671  0.9332  0.7657  0.4008
 5367TIP3   OH237735   3.502   6.705   1.637 -0.2347  0.2585  0.5284
 5367TIP3    H137736   3.484   6.797   1.618  1.3895  0.6763  0.8615
 5367TIP3    H237737   3.488   6.697   1.731 -1.5076 -0.1386  0.3233
 5368TIP3   OH237738   1.555   3.781   0.044  0.0349 -0.0535  0.5379
 5368TIP3    H137739   1.629   3.743  -0.002 -0.7935  0.0453 -0.9557
 5368TIP3    H237740   1.527   3.714   0.106  0.7731 -0.4527  0.4477
 5369TIP3   OH237741   3.475   3.137   8.215 -0.2857  0.0726 -0.1830
 5369TIP3    H137742   3.421   3.142   8.294 -1.2847 -0.4693 -0.8152
 5369TIP3    H237743   3.417   3.103   8.148  0.5638  0.4866 -1.1572
 5370TIP3   OH237744   1.852   4.403   1.713 -0.4252  0.0916 -0.0448
 5370TIP3    H137745   1.859   4.309   1.699 -0.4644  0.2566 -1.3241
 5370TIP3    H237746   1.909   4.421   1.788  0.8146 -0.7347 -0.7560
 5371TIP3   OH237747   4.131   3.280   0.286 -0.4146 -0.0141  0.4852
 5371TIP3    H137748   4.146   3.187   0.303 -0.8352  0.1131  1.5614
 5371TIP3    H237749   4.219   3.317   0.280 -0.1685 -0.7602 -1.7691
 5372TIP3   OH237750   5.774   6.369   7.030  0.1611 -0.3492  0.0092
 5372TIP3    H137751   5.848   6.341   6.977  0.4042 -0.0151  0.1705
 5372TIP3    H237752   5.700   6.319   6.996 -0.0666  1.1200 -1.8398
 5373TIP3   OH237753   2.927   6.760   1.664  0.1230  0.1056  0.3728
 5373TIP3    H137754   2.837   6.742   1.693 -0.1842 -0.4386 -0.8517
 5373TIP3    H237755   2.956   6.678   1.624 -0.1645  1.3087 -2.5483
 5374TIP3   OH237756   0.917   1.852   0.347  0.3574  0.2567 -0.4517
 5374TIP3    H137757   0.966   1.771   0.331 -1.2760 -0.8248 -0.1620
 5374TIP3    H237758   0.957   1.916   0.287  2.6770 -0.3095  0.3805
 5375TIP3   OH237759   3.277   3.305   7.589 -0.4774  0.0210  0.0336
 5375TIP3    H137760   3.186   3.333   7.574  0.0083  1.0780 -1.1175
 5375TIP3    H237761   3.329   3.363   7.533  0.6411 -2.9980 -2.3226
 5376TIP3   OH237762   0.509   3.954   0.847 -0.1180  0.6461  0.3270
 5376TIP3    H137763   0.475   4.032   0.890 -0.3485  0.1101  1.1582
 5376TIP3    H237764   0.590   3.982   0.805  0.2916  1.1263  1.4098
 5377TIP3   OH237765   0.886   2.218   1.604  0.3698 -0.2824  0.1214
 5377TIP3    H137766   0.856   2.131   1.576 -0.5642 -0.1827  0.7420
 5377TIP3    H237767   0.958   2.201   1.663 -0.0088 -0.6593  0.4822
 5378TIP3   OH237768   5.272   6.147   0.209  0.6844  0.4351 -0.0310
 5378TIP3    H137769   5.242   6.169   0.121  0.1727  0.3170  0.1105
 5378TIP3    H237770   5.210   6.081   0.240  0.0916  1.3846  0.8992
 5379TIP3   OH237771   1.571   5.461   1.743 -0.5115 -0.4220  0.8253
 5379TIP3    H137772   1.625   5.433   1.817  1.5336 -1.0227 -0.7966
 5379TIP3    H237773   1.634   5.493   1.678 -2.2456  0.3245 -0.5775
 5380TIP3   OH237774   0.236   6.461   8.190 -0.1572 -0.4946 -0.4929
 5380TIP3    H137775   0.274   6.478   8.104 -2.1128  2.8211 -0.8971
 5380TIP3    H237776   0.143   6.482   8.180 -0.5581 -0.4751  2.2842
 5381TIP3   OH237777   4.604   2.108   6.739  0.3149 -0.1990  0.3486
 5381TIP3    H137778   4.541   2.179   6.739  1.0355  0.4492 -0.5186
 5381TIP3    H237779   4.686   2.148   6.768  0.4054 -0.9821  1.2392
 5382TIP3   OH237780   3.292   1.461   8.692  0.3572  0.3994 -0.0816
 5382TIP3    H137781   3.208   1.507   8.692 -0.8717 -1.5979 -2.9892
 5382TIP3    H237782   3.346   1.510   8.630  0.2371 -0.0868 -0.5759
 5383TIP3   OH237783   2.981   2.184   0.222  0.3567  0.2611 -0.3822
 5383TIP3    H137784   2.962   2.207   0.313 -0.7136  0.4713 -0.6530
 5383TIP3    H237785   2.998   2.090   0.224  0.5473  0.3001  0.0653
 5384TIP3   OH237786   2.521   1.720   7.133 -0.0690 -0.4315  0.2449
 5384TIP3    H137787   2.492   1.809   7.149 -1.9661 -0.9133 -0.3231
 5384TIP3    H237788   2.446   1.676   7.093  0.4856 -2.5445  1.3693
 5385TIP3   OH237789   5.983   0.582   2.006 -0.5633 -0.0461 -0.1319
 5385TIP3    H137790   5.977   0.596   2.101 -0.9987 -0.5511 -0.0804
 5385TIP3    H237791   6.044   0.510   1.996  1.3284  1.5117 -0.3773
 5386TIP3   OH237792   4.170   5.447   0.326 -0.0177 -0.0903 -0.4992
 5386TIP3    H137793   4.134   5.367   0.364 -1.2018  0.5653 -0.1816
 5386TIP3    H237794   4.231   5.480   0.393 -0.5765 -0.0001 -0.0324
 5387TIP3   OH237795   6.408   1.302   7.197 -0.0425 -0.3535  0.3524
 5387TIP3    H137796   6.315   1.299   7.218  0.4482  0.1229  2.8539
 5387TIP3    H237797   6.431   1.395   7.201  0.4635 -0.4047 -0.8055
 5388TIP3   OH237798   3.638   1.091   1.240  0.0374 -0.6052  0.3950
 5388TIP3    H137799   3.660   1.070   1.331  0.8293 -2.1513 -0.1126
 5388TIP3    H237800   3.549   1.056   1.229  0.2057 -1.0461  0.3971
 5389TIP3   OH237801   5.335   6.412   0.315  0.2759  0.1037  0.0873
 5389TIP3    H137802   5.320   6.318   0.304 -0.1684  0.2327 -0.5057
 5389TIP3    H237803   5.270   6.439   0.379 -1.6030  0.5056 -1.8599
 5390TIP3   OH237804   2.783   6.085   1.652  0.4476  0.8453  0.1537
 5390TIP3    H137805   2.855   6.141   1.683  1.5218 -0.4369  0.1033
 5390TIP3    H237806   2.761   6.120   1.566  1.5490  0.8312 -0.1594
 5391TIP3   OH237807   5.273   4.496   7.587  0.4840 -0.0647  0.1373
 5391TIP3    H137808   5.283   4.453   7.502  0.7098 -0.6749  0.4687
 5391TIP3    H237809   5.295   4.428   7.651  2.0729  0.8817  0.6514
 5392TIP3   OH237810   4.488   2.324   7.385  0.6237  0.6366  0.0153
 5392TIP3    H137811   4.433   2.378   7.329  1.2441 -0.0072 -1.2453
 5392TIP3    H237812   4.527   2.386   7.447 -1.6199  1.0825  1.0687
 5393TIP3   OH237813   3.727   0.839   8.709 -0.2502 -0.3762  0.0721
 5393TIP3    H137814   3.753   0.910   8.767  2.0020  0.6348 -1.9949
 5393TIP3    H237815   3.791   0.770   8.727  0.6271  0.0428 -1.3050
 5394TIP3   OH237816   5.597   4.213   7.925  0.5927 -0.3500  0.3568
 5394TIP3    H137817   5.544   4.226   8.003 -0.2252  1.6834 -0.4865
 5394TIP3    H237818   5.662   4.283   7.928 -0.5802  0.9232 -1.6515
 5395TIP3   OH237819   2.062   3.463   0.801 -0.5571 -0.4250  0.0450
 5395TIP3    H137820   1.973   3.450   0.767 -1.3435  0.1634  1.7405
 5395TIP3    H237821   2.053   3.449   0.895  1.1184 -0.1158  0.2718
 5396TIP3   OH237822   2.924   0.243   1.182  0.4001  0.0891  0.7939
 5396TIP3    H137823   2.850   0.297   1.155 -0.9135 -1.2720  1.4615
 5396TIP3    H237824   2.916   0.237   1.278  0.5431 -1.1874  0.7501
 5397TIP3   OH237825   4.709   2.354   8.353 -0.3373  0.1732  0.0718
 5397TIP3    H137826   4.641   2.289   8.336  0.3812 -0.2405 -1.3900
 5397TIP3    H237827   4.662   2.429   8.391 -1.5814 -0.1776 -0.7169
 5398TIP3   OH237828   1.968   5.111   2.530  0.4768 -0.4181 -0.0629
 5398TIP3    H137829   1.916   5.037   2.500  0.6315 -0.9198  0.8468
 5398TIP3    H237830   1.904   5.180   2.549  0.3180 -0.3673 -0.7635
 5399TIP3   OH237831   2.663   1.619   1.958 -0.1735  0.1707 -0.4259
 5399TIP3    H137832   2.729   1.681   1.926  0.3937 -0.1100  0.1739
 5399TIP3    H237833   2.714   1.545   1.991 -0.8469 -0.6720 -1.2202
 5400TIP3   OH237834   4.125   0.187   1.999  0.3130 -0.5008 -0.2434
 5400TIP3    H137835   4.123   0.180   2.094 -1.0403 -0.7401 -0.2738
 5400TIP3    H237836   4.109   0.280   1.982  0.7205 -0.4279 -0.2409
 5401TIP3   OH237837   4.476   4.101   6.623 -0.7148  0.2618  0.4390
 5401TIP3    H137838   4.385   4.090   6.596 -0.8648 -1.4964  1.4925
 5401TIP3    H237839   4.474   4.170   6.688 -1.0333  1.3022 -0.6449
 5402TIP3   OH237840   1.367   1.294   7.771 -0.1129 -0.3566 -0.1628
 5402TIP3    H137841   1.442   1.345   7.803  0.0717  0.8466 -2.3363
 5402TIP3    H237842   1.359   1.222   7.834  2.5399 -0.2386  0.4431
 5403TIP3   OH237843   3.466   4.253   0.707 -0.5205 -0.2136 -0.2178
 5403TIP3    H137844   3.510   4.284   0.786 -1.7184  1.5449 -0.1835
 5403TIP3    H237845   3.534   4.206   0.659  0.6361  0.0119  1.1239
 5404TIP3   OH237846   3.169   1.528   6.713 -0.2399  0.2374 -0.0753
 5404TIP3    H137847   3.187   1.435   6.727 -0.7442  0.0304 -0.7328
 5404TIP3    H237848   3.078   1.531   6.685 -1.1333  1.1990  2.6119
 5405TIP3   OH237849   5.172   4.287   7.306 -0.0227  0.0223  0.4555
 5405TIP3    H137850   5.106   4.218   7.306  0.7443 -0.7219  0.6293
 5405TIP3    H237851   5.133   4.357   7.254 -1.3137 -0.0427  1.2947
 5406TIP3   OH237852   1.377   5.070   8.795  0.1829 -0.4327 -0.4146
 5406TIP3    H137853   1.421   4.985   8.790  1.4901  0.1739  0.2500
 5406TIP3    H237854   1.400   5.114   8.713  2.4542  0.6010  0.6865
 5407TIP3   OH237855   5.785   1.502   7.989 -0.0325 -0.1602 -0.0132
 5407TIP3    H137856   5.761   1.438   7.922 -2.0290 -2.1375  2.3645
 5407TIP3    H237857   5.847   1.456   8.045  0.0523  0.7003  0.6215
 5408TIP3   OH237858   2.825   5.803   2.248  0.1303  0.1865  0.2904
 5408TIP3    H137859   2.890   5.873   2.249 -0.0579  0.4606 -2.0592
 5408TIP3    H237860   2.745   5.845   2.219 -0.2576 -0.8082 -0.0969
 5409TIP3   OH237861   0.747   4.056   0.755 -0.2542  0.1228 -0.5292
 5409TIP3    H137862   0.744   4.136   0.807  2.5611  0.0731 -0.0997
 5409TIP3    H237863   0.812   4.074   0.687  0.8758 -1.9107 -0.0867
 5410TIP3   OH237864   0.923   6.625   1.092 -0.1208  0.3854  0.2980
 5410TIP3    H137865   0.984   6.678   1.143 -0.6401 -0.3524  1.7628
 5410TIP3    H237866   0.849   6.610   1.152 -0.2500 -1.4812 -0.2495
 5411TIP3   OH237867   2.193   6.038   1.498  0.0650 -0.1139  0.5139
 5411TIP3    H137868   2.272   6.074   1.458 -0.8823 -0.1968 -1.5385
 5411TIP3    H237869   2.223   5.958   1.542  0.9036 -0.9835 -1.5369
 5412TIP3   OH237870   2.846   4.468   1.068 -0.0636  0.3398 -0.5309
 5412TIP3    H137871   2.917   4.508   1.018 -0.9649  0.4550 -1.7615
 5412TIP3    H237872   2.787   4.540   1.089  0.8219  0.4909  1.6934
 5413TIP3   OH237873   0.729   0.401   1.842 -0.1846  0.2242 -0.1009
 5413TIP3    H137874   0.721   0.461   1.768 -0.3340 -0.7276 -0.8888
 5413TIP3    H237875   0.822   0.401   1.864 -0.3013  1.3487  0.4482
 5414TIP3   OH237876   0.311   6.827   6.591 -0.2842  0.0992 -0.5536
 5414TIP3    H137877   0.398   6.802   6.561  1.3271  2.1776  1.9400
 5414TIP3    H237878   0.256   6.750   6.574  2.1222 -1.4807 -1.6901
 5415TIP3   OH237879   5.730   3.609   7.143 -0.2129 -0.0985  0.4430
 5415TIP3    H137880   5.698   3.519   7.151 -0.8142 -0.1380 -1.7250
 5415TIP3    H237881   5.676   3.659   7.204 -0.2515 -1.1084  1.2656
 5416TIP3   OH237882   5.491   6.098   7.529  0.1148 -0.2208  0.0645
 5416TIP3    H137883   5.517   6.149   7.607  2.4846 -2.0094  0.5710
 5416TIP3    H237884   5.443   6.024   7.564 -2.4210  1.0165 -0.5913
 5417TIP3   OH237885   4.745   1.046   7.019 -0.3151 -0.2126 -0.3924
 5417TIP3    H137886   4.800   1.036   7.097 -0.8530  0.8002  0.1334
 5417TIP3    H237887   4.655   1.041   7.052 -0.5518 -0.5741 -1.0664
 5418TIP3   OH237888   3.545   0.240   1.939 -0.1905  0.2495  0.3753
 5418TIP3    H137889   3.476   0.181   1.969 -2.3371  2.3953 -0.0778
 5418TIP3    H237890   3.530   0.322   1.985  2.0919  0.8325  0.2444
 5419TIP3   OH237891   4.211   3.051   8.768  0.2453  0.3939  0.1626
 5419TIP3    H137892   4.205   3.136   8.724  0.6946  0.4612  0.2193
 5419TIP3    H237893   4.147   3.056   8.839 -0.7975  0.1189 -0.7426
 5420TIP3   OH237894   0.421   3.482   1.616  0.2624 -0.5080  0.5203
 5420TIP3    H137895   0.432   3.388   1.604  1.9939 -0.3236  0.4589
 5420TIP3    H237896   0.501   3.521   1.581 -0.2019  0.9628  0.9994
 5421TIP3   OH237897   0.703   1.072   8.718  0.1469 -0.1384  0.3504
 5421TIP3    H137898   0.764   1.044   8.785 -1.1140  1.1736  2.1294
 5421TIP3    H237899   0.623   1.021   8.734  0.0067 -0.2317 -0.5435
 5422TIP3   OH237900   4.249   1.312   7.630 -0.0771 -0.4376 -0.5000
 5422TIP3    H137901   4.284   1.396   7.601 -1.4006 -0.0453 -1.0037
 5422TIP3    H237902   4.288   1.248   7.570  1.6320 -0.3386  0.4261
 5423TIP3   OH237903   6.583   4.012   0.334 -0.6262  1.0068 -0.2541
 5423TIP3    H137904   6.636   4.090   0.350  0.0461  0.6849 -0.8369
 5423TIP3    H237905   6.494   4.038   0.357  0.0670  0.8574  3.1417
 5424TIP3   OH237906   1.159   5.244   1.142 -0.0580  0.0158 -0.1005
 5424TIP3    H137907   1.164   5.316   1.079  3.4050  0.3082  0.2925
 5424TIP3    H237908   1.151   5.288   1.227  0.4796 -0.1329  0.0279
 5425TIP3   OH237909   3.722   0.357   6.753 -0.2512 -0.0616 -0.1959
 5425TIP3    H137910   3.744   0.276   6.798 -1.8006  0.7096  2.1331
 5425TIP3    H237911   3.698   0.330   6.664 -0.9855 -2.1947  0.6007
 5426TIP3   OH237912   1.779   5.042   7.620  0.3187  0.3951 -0.7890
 5426TIP3    H137913   1.818   5.006   7.540  1.5294  1.9147 -0.9345
 5426TIP3    H237914   1.703   5.092   7.589  0.2072  0.1763 -0.8726
 5427TIP3   OH237915   6.490   6.423   8.109  0.4254 -0.5526 -0.4429
 5427TIP3    H137916   6.566   6.381   8.068  0.5469 -0.7414 -0.0298
 5427TIP3    H237917   6.426   6.430   8.039  1.1403  0.4047 -1.0335
 5428TIP3   OH237918   4.790   4.435   8.662  0.0539  0.0191 -0.0297
 5428TIP3    H137919   4.821   4.406   8.577  1.3536 -2.4571  1.1745
 5428TIP3    H237920   4.710   4.385   8.678  0.0301  0.1789  0.3647
 5429TIP3   OH237921   6.799   4.581   7.366 -0.3611  0.4179  0.4748
 5429TIP3    H137922   6.820   4.497   7.407  0.7349  1.1308  1.4407
 5429TIP3    H237923   6.820   4.569   7.273  2.8080  0.5158  1.0786
 5430TIP3   OH237924   2.866   5.640   0.862 -0.1086 -0.0433  0.2965
 5430TIP3    H137925   2.827   5.702   0.800  1.4113 -0.4336 -1.1081
 5430TIP3    H237926   2.792   5.586   0.891 -0.6560 -0.8739 -2.4198
 5431TIP3   OH237927   3.552   3.047   7.934  0.4026  0.1690  0.0618
 5431TIP3    H137928   3.479   3.107   7.919 -0.4062 -0.4053  1.4829
 5431TIP3    H237929   3.512   2.970   7.975  1.7246 -0.4056  0.3282
 5432TIP3   OH237930   2.117   6.202   1.721 -0.0303 -0.2569  0.0897
 5432TIP3    H137931   2.143   6.290   1.692  2.0044 -0.8986 -0.2255
 5432TIP3    H237932   2.111   6.151   1.640  1.6643 -1.0738  0.4360
 5433TIP3   OH237933   6.461   1.930   2.531  0.8055 -0.4999 -0.1752
 5433TIP3    H137934   6.517   1.981   2.473 -1.7071  0.0926 -2.2703
 5433TIP3    H237935   6.437   1.852   2.480 -1.4359  0.0063 -0.0363
 5434TIP3   OH237936   0.773   0.615   7.928  0.0320  0.3240  0.0518
 5434TIP3    H137937   0.868   0.602   7.926  0.0920  0.7072  0.2819
 5434TIP3    H237938   0.737   0.537   7.886  0.5039  0.8211 -1.3068
 5435TIP3   OH237939   2.496   5.909   8.228 -0.5817 -0.5551  0.2942
 5435TIP3    H137940   2.540   5.916   8.312 -0.3824  2.5044  0.0769
 5435TIP3    H237941   2.542   5.839   8.181  2.3933  0.7600  1.0459
 5436TIP3   OH237942   6.052   1.096   0.882  0.1541 -0.0226  0.3490
 5436TIP3    H137943   6.043   1.088   0.787 -0.0275 -1.8717  0.4799
 5436TIP3    H237944   6.084   1.185   0.896 -3.1719  1.6010 -1.1746
 5437TIP3   OH237945   2.129   4.936   1.476 -0.0517  0.3995 -0.0700
 5437TIP3    H137946   2.034   4.923   1.470  0.1761 -1.5283 -0.0120
 5437TIP3    H237947   2.167   4.862   1.430  1.4472 -0.0037  1.6873
 5438TIP3   OH237948   1.856   6.774   7.574  0.1040  0.0815  0.8076
 5438TIP3    H137949   1.800   6.740   7.504  0.2620  2.9945 -0.8970
 5438TIP3    H237950   1.795   6.819   7.633  0.1451 -1.1074  1.8016
 5439TIP3   OH237951   0.414   5.383   2.366  0.3777  0.9226  0.4496
 5439TIP3    H137952   0.366   5.465   2.369  0.6949  1.1530 -0.5172
 5439TIP3    H237953   0.417   5.359   2.273 -1.3769 -1.1819  0.8587
 5440TIP3   OH237954   4.151   4.515   7.972  0.0765 -0.3035 -0.1709
 5440TIP3    H137955   4.209   4.440   7.987  1.9433  0.8984 -1.0269
 5440TIP3    H237956   4.081   4.480   7.916  0.3687 -1.6200  0.2548
 5441TIP3   OH237957   6.443   5.006   7.448  0.1970 -0.1789  0.1369
 5441TIP3    H137958   6.403   5.081   7.491  0.4495 -0.0119  0.0816
 5441TIP3    H237959   6.373   4.970   7.392 -0.0461 -0.2292  0.4702
 5442TIP3   OH237960   3.287   0.076   0.032 -0.0000  0.4094 -0.1182
 5442TIP3    H137961   3.302  -0.016   0.052  0.0261  0.7786  1.7737
 5442TIP3    H237962   3.317   0.123   0.110  2.2857  2.2534 -1.9421
 5443TIP3   OH237963   3.147   3.531   1.354 -0.7273  0.7086 -0.2911
 5443TIP3    H137964   3.119   3.553   1.265 -1.0904 -3.2006 -1.3331
 5443TIP3    H237965   3.235   3.567   1.362 -0.5944  0.9358 -2.3401
 5444TIP3   OH237966   2.510   1.943   0.889 -0.5647 -0.3991 -0.4569
 5444TIP3    H137967   2.473   2.031   0.885  0.9595  0.3481  0.9278
 5444TIP3    H237968   2.537   1.932   0.980  0.9643 -1.5584 -1.0111
 5445TIP3   OH237969   6.407   2.795   1.890  0.1333 -0.3721 -1.1031
 5445TIP3    H137970   6.407   2.886   1.859  0.2186  0.2388  0.5850
 5445TIP3    H237971   6.322   2.784   1.932  0.6230 -0.6482 -0.1567
 5446TIP3   OH237972   3.341   3.199   7.835  0.4759  0.5021  0.2922
 5446TIP3    H137973   3.364   3.208   7.743  1.1845 -1.6040  0.2174
 5446TIP3    H237974   3.248   3.221   7.839  0.5451  1.0546 -0.8259
 5447TIP3   OH237975   2.216   1.896   1.477 -0.4858 -0.1166  0.3356
 5447TIP3    H137976   2.283   1.898   1.546 -0.1479  2.1161  0.0110
 5447TIP3    H237977   2.144   1.948   1.512 -0.0978  1.5159 -1.1445
 5448TIP3   OH237978   3.597   0.031   6.658 -0.3439  0.2428  0.5112
 5448TIP3    H137979   3.651   0.085   6.600 -0.1064  0.0567  0.5563
 5448TIP3    H237980   3.643   0.033   6.742 -0.0974 -0.3874  0.3959
 5449TIP3   OH237981   1.382   5.495   0.862  0.4106 -0.2445  0.0364
 5449TIP3    H137982   1.433   5.508   0.782  1.0881 -2.9244 -0.0519
 5449TIP3    H237983   1.446   5.497   0.933  0.1884 -0.4051  0.2476
 5450TIP3   OH237984   3.743   5.513   8.384  0.0428 -0.0459  0.0678
 5450TIP3    H137985   3.773   5.492   8.473 -1.8218 -2.2561  0.2697
 5450TIP3    H237986   3.823   5.518   8.333  1.1379  0.7617  1.7644
 5451TIP3   OH237987   1.170   2.386   1.078  0.4257  0.1946 -0.3296
 5451TIP3    H137988   1.193   2.381   1.171 -1.1232  2.6286  0.2926
 5451TIP3    H237989   1.082   2.348   1.073  0.0496  1.0776 -0.5803
 5452TIP3   OH237990   6.532   6.527   8.697  0.0729 -0.0416 -0.3251
 5452TIP3    H137991   6.461   6.468   8.672 -0.3553  0.6120 -0.6568
 5452TIP3    H237992   6.509   6.556   8.786  0.3526 -0.4691 -0.1089
 5453TIP3   OH237993   6.657   1.146   7.650  0.3699 -0.0561 -0.4778
 5453TIP3    H137994   6.732   1.190   7.689 -0.6656  1.1966  0.1961
 5453TIP3    H237995   6.653   1.180   7.560  0.4226  0.1193 -0.4138
 5454TIP3   OH237996   6.283   6.618   7.806  0.2172  0.7570 -0.1591
 5454TIP3    H137997   6.250   6.701   7.773  0.8212  0.8638 -0.5183
 5454TIP3    H237998   6.205   6.563   7.815 -0.0883  1.0867 -0.7325
 5455TIP3   OH237999   1.499   0.248   7.555 -0.4705  0.5332 -0.4001
 5455TIP3    H138000   1.426   0.247   7.617 -1.4340  2.5518 -1.3937
 5455TIP3    H238001   1.536   0.336   7.564 -0.9784  1.0824 -2.9861
 5456TIP3   OH238002   3.136   5.641   0.685 -0.3317 -0.7008 -0.2712
 5456TIP3    H138003   3.061   5.679   0.731  0.4407 -1.1726  1.4279
 5456TIP3    H238004   3.147   5.696   0.608 -0.3660  1.4422  1.1769
 5457TIP3   OH238005   5.107   2.295   2.289  0.5684 -0.3292  0.2628
 5457TIP3    H138006   5.054   2.374   2.281  1.6801  0.4777  0.6587
 5457TIP3    H238007   5.164   2.296   2.213  1.1374 -0.3171  0.6817
 5458TIP3   OH238008   3.392   3.693   1.873  0.2352  0.1387  0.7254
 5458TIP3    H138009   3.316   3.746   1.848 -0.0733 -0.4662  0.3503
 5458TIP3    H238010   3.389   3.691   1.968  0.4810  1.1269  0.7561
 5459TIP3   OH238011   1.385   2.023   7.811  0.5711 -0.6787 -0.3030
 5459TIP3    H138012   1.401   1.943   7.861  1.8570  0.0000  0.4385
 5459TIP3    H238013   1.371   2.091   7.878  0.2933 -0.1409 -0.8957
 5460TIP3   OH238014   0.255   1.192   0.724 -0.1055 -1.3526 -0.2704
 5460TIP3    H138015   0.326   1.162   0.667 -0.2080  0.0677 -1.1875
 5460TIP3    H238016   0.240   1.282   0.698  1.2037  0.1048  3.3963
 5461TIP3   OH238017   6.488   2.423   2.490 -0.1387 -0.5832  0.5958
 5461TIP3    H138018   6.438   2.441   2.411 -0.1187  3.3877  1.2608
 5461TIP3    H238019   6.569   2.383   2.459  0.5024  2.1300 -1.6912
 5462TIP3   OH238020   3.235   1.003   8.502 -0.3858  0.2942 -0.0542
 5462TIP3    H138021   3.166   1.029   8.440 -0.2903  0.1448 -0.2229
 5462TIP3    H238022   3.263   1.085   8.542  0.2339  0.5152 -0.9116
 5463TIP3   OH238023   4.621   1.842   0.045 -0.1150  0.0917  0.6055
 5463TIP3    H138024   4.535   1.837   0.088 -0.5394  0.3885 -0.2001
 5463TIP3    H238025   4.666   1.913   0.091 -0.8902  0.9873  0.0155
 5464TIP3   OH238026   4.561   5.056   8.290  0.3268  0.0944 -0.1912
 5464TIP3    H138027   4.603   5.051   8.203 -1.8809 -2.2049 -1.2272
 5464TIP3    H238028   4.598   4.983   8.339  2.0165  1.7398  1.1207
 5465TIP3   OH238029   6.844   4.816   1.565  0.3609  0.1165 -0.1382
 5465TIP3    H138030   6.761   4.828   1.611 -0.0538 -1.5765 -0.3459
 5465TIP3    H238031   6.897   4.765   1.625 -0.8646 -3.8094 -2.0313
 5466TIP3   OH238032   3.699   0.531   1.865  0.1051  0.1711 -0.4752
 5466TIP3    H138033   3.780   0.518   1.913  1.0686  0.3808 -1.9729
 5466TIP3    H238034   3.635   0.556   1.932  1.2608  0.0132  0.7319
 5467TIP3   OH238035   6.129   5.149   7.460  0.1745 -0.0908 -0.6656
 5467TIP3    H138036   6.062   5.118   7.521 -1.0754 -0.2985 -2.0926
 5467TIP3    H238037   6.202   5.175   7.516 -0.9316 -0.2466  0.9107
 5468TIP3   OH238038   0.805   3.661   8.147  0.0298  0.3849  0.3710
 5468TIP3    H138039   0.761   3.737   8.109 -1.0514 -0.7528 -0.7009
 5468TIP3    H238040   0.896   3.670   8.118  0.3024  2.0477  1.5302
 5469TIP3   OH238041   6.174   1.034   7.843 -0.4735 -0.5197 -0.5261
 5469TIP3    H138042   6.222   1.069   7.768 -1.8340 -0.7829 -1.5505
 5469TIP3    H238043   6.229   0.962   7.875 -0.1558 -0.7832 -1.6298
 5470TIP3   OH238044   1.600   1.641   7.404  0.3430  0.1016  0.5009
 5470TIP3    H138045   1.545   1.678   7.473 -0.5622 -0.4078  0.0709
 5470TIP3    H238046   1.588   1.547   7.412 -0.2060  0.0553 -0.6897
 5471TIP3   OH238047   4.665   6.222   7.273  0.4859  0.7412  0.4559
 5471TIP3    H138048   4.593   6.166   7.245 -0.3575  2.5087 -1.1026
 5471TIP3    H238049   4.735   6.206   7.211  1.1801 -0.3550  1.4769
 5472TIP3   OH238050   3.449   1.971   1.082  0.7492 -0.6816  0.4033
 5472TIP3    H138051   3.507   1.970   1.159  1.6737  1.3578 -0.1807
 5472TIP3    H238052   3.508   1.956   1.008  0.3476  0.1648 -0.1024
 5473TIP3   OH238053   3.745   6.785   7.450  0.3596 -0.2757  0.1989
 5473TIP3    H138054   3.673   6.731   7.418  0.6118 -2.3056  2.7144
 5473TIP3    H238055   3.824   6.738   7.422  0.6582  0.2212  0.1953
 5474TIP3   OH238056   1.059   2.369   7.459  1.0220 -0.1466 -0.0739
 5474TIP3    H138057   1.131   2.401   7.404  1.9270  0.3376  1.3393
 5474TIP3    H238058   1.030   2.289   7.416  1.7749  0.1451 -1.1828
 5475TIP3   OH238059   5.541   3.019   1.517 -0.0150  0.0626 -0.5101
 5475TIP3    H138060   5.544   3.068   1.599  0.1905 -0.2785 -0.3127
 5475TIP3    H238061   5.447   3.004   1.502 -0.0088 -1.0201  0.3583
 5476TIP3   OH238062   2.623   4.071   0.027 -0.1436 -0.2116 -0.5453
 5476TIP3    H138063   2.671   4.006  -0.024 -0.1603 -1.3197  0.7679
 5476TIP3    H238064   2.539   4.080  -0.018  0.7431  0.7446 -2.1009
 5477TIP3   OH238065   5.773   0.585   8.005  0.1401 -0.2086  0.1313
 5477TIP3    H138066   5.723   0.667   8.012 -1.0184 -0.4856 -3.1911
 5477TIP3    H238067   5.848   0.608   7.950  1.4059 -0.7950  1.5580
 5478TIP3   OH238068   0.150   2.421   8.000 -0.2276  0.2236 -0.1695
 5478TIP3    H138069   0.192   2.435   8.085 -0.2928  2.4265 -0.4606
 5478TIP3    H238070   0.223   2.398   7.941  0.3306  1.9088 -0.1975
 5479TIP3   OH238071   3.593   5.299   1.978 -0.2911 -0.1450 -0.0633
 5479TIP3    H138072   3.641   5.237   2.032  2.0186  1.1488 -0.5216
 5479TIP3    H238073   3.660   5.346   1.928 -2.2321 -0.8190 -3.6586
 5480TIP3   OH238074   3.243   2.827   1.356  0.3733  0.2435  0.1980
 5480TIP3    H138075   3.250   2.783   1.441 -1.2437 -1.5142 -0.4981
 5480TIP3    H238076   3.156   2.866   1.357  0.4428  0.4257 -0.5612
 5481TIP3   OH238077   5.001   5.528   0.722 -0.7146  0.2293 -0.2562
 5481TIP3    H138078   5.019   5.622   0.709  0.8834  0.1899  1.3501
 5481TIP3    H238079   5.032   5.487   0.641  2.4915  0.7053  0.5726
 5482TIP3   OH238080   0.810   2.191   0.617  0.7644  0.0080  0.1813
 5482TIP3    H138081   0.714   2.184   0.620  0.8633 -1.6326  0.8640
 5482TIP3    H238082   0.840   2.101   0.632  2.4148  0.4262 -0.4551
 5483TIP3   OH238083   3.085   5.281   6.348  0.1364 -0.1003 -0.0667
 5483TIP3    H138084   3.109   5.189   6.333 -1.4025 -0.4840 -0.4451
 5483TIP3    H238085   3.100   5.324   6.264  0.9344  0.0278  0.1329
 5484TIP3   OH238086   1.351   6.333   0.524  0.1455  0.7563 -0.8785
 5484TIP3    H138087   1.308   6.270   0.467  0.4070 -1.6050  1.3540
 5484TIP3    H238088   1.281   6.368   0.578  0.3238  0.5839 -0.5318
 5485TIP3   OH238089   4.894   1.039   8.338  0.5394  0.3927  0.2782
 5485TIP3    H138090   4.822   1.102   8.333  0.2909  0.2827  1.9079
 5485TIP3    H238091   4.970   1.087   8.307  0.6640  2.0735  2.8771
 5486TIP3   OH238092   6.431   6.509   0.150 -0.3419 -0.1660 -0.1028
 5486TIP3    H138093   6.369   6.578   0.127 -0.1837 -0.2326 -0.7283
 5486TIP3    H238094   6.422   6.501   0.245  0.6933  1.7358  0.2166
 5487TIP3   OH238095   5.322   5.113   7.221 -0.2629 -0.5563  0.2648
 5487TIP3    H138096   5.417   5.118   7.220 -0.1339 -2.4301  0.8107
 5487TIP3    H238097   5.298   5.135   7.312 -0.1561 -2.4327  0.7821
 5488TIP3   OH238098   3.676   6.717   8.559  0.4051 -0.1680  0.1333
 5488TIP3    H138099   3.711   6.630   8.574  0.3488  0.0712  1.9057
 5488TIP3    H238100   3.664   6.754   8.647 -2.2625  0.5590 -0.4359
 5489TIP3   OH238101   5.348   1.375   6.707  0.1990 -0.3592  0.0708
 5489TIP3    H138102   5.436   1.378   6.745 -0.4799 -0.6207  1.7642
 5489TIP3    H238103   5.290   1.379   6.783 -1.2545 -3.4517 -0.7308
 5490TIP3   OH238104   2.962   0.527   7.202  0.0206 -0.4500  0.1711
 5490TIP3    H138105   2.866   0.524   7.209 -0.0255  1.2106  0.6328
 5490TIP3    H238106   2.982   0.472   7.126 -1.0489 -3.0101  1.6400
 5491TIP3   OH238107   4.012   6.591   7.900  0.2888 -0.0184 -0.2874
 5491TIP3    H138108   4.014   6.615   7.992 -0.9805  0.7939 -0.4532
 5491TIP3    H238109   4.091   6.632   7.863  0.1065  0.7750  0.1806
 5492TIP3   OH238110   2.405   1.507   1.184  0.6521 -0.1164  0.1273
 5492TIP3    H138111   2.381   1.570   1.116  1.5370  0.1531  0.0449
 5492TIP3    H238112   2.501   1.508   1.184  0.6689  0.1175  1.5895
 5493TIP3   OH238113   1.091   5.499   7.636 -0.8525 -0.5636 -0.8231
 5493TIP3    H138114   1.147   5.576   7.627 -0.5664 -0.4522  1.4012
 5493TIP3    H238115   1.093   5.458   7.549  1.6449  0.1516 -1.1961
 5494TIP3   OH238116   5.514   2.396   8.252  0.1503  0.1293  0.5719
 5494TIP3    H138117   5.483   2.358   8.170  2.2997 -0.5669 -0.0011
 5494TIP3    H238118   5.441   2.447   8.285 -0.3485  1.6348 -2.5038
 5495TIP3   OH238119   4.225   4.609   7.191 -0.1987 -0.1985 -0.6800
 5495TIP3    H138120   4.311   4.569   7.179 -0.3127  0.0039 -2.4179
 5495TIP3    H238121   4.164   4.547   7.151 -1.0225 -0.8559  1.4655
 5496TIP3   OH238122   5.992   1.302   0.210  0.3701  0.2397 -0.2046
 5496TIP3    H138123   6.003   1.208   0.199 -2.1655  0.1128 -3.3707
 5496TIP3    H238124   6.009   1.338   0.123 -0.8283  2.4029  0.3833
 5497TIP3   OH238125   3.586   4.303   0.963 -0.2211 -0.3215  0.1984
 5497TIP3    H138126   3.608   4.214   0.989  0.8502 -0.4604 -1.0361
 5497TIP3    H238127   3.646   4.358   1.013 -0.6539 -0.3034  0.7091
 5498TIP3   OH238128   5.383   3.714   1.282 -0.1040 -0.1172 -0.1462
 5498TIP3    H138129   5.405   3.771   1.208  0.0019  1.0841  0.7979
 5498TIP3    H238130   5.364   3.773   1.354  0.7933 -1.2885  1.0959
 5499TIP3   OH238131   2.551   5.866   0.995 -0.0566 -0.0159 -0.2686
 5499TIP3    H138132   2.480   5.881   1.058 -0.0271  1.6387 -0.5841
 5499TIP3    H238133   2.590   5.952   0.983  0.1788 -0.3684 -2.2711
 5500TIP3   OH238134   2.256   4.776   1.282 -0.1313  0.0197 -0.6014
 5500TIP3    H138135   2.342   4.764   1.322 -0.2511 -1.0681 -0.6538
 5500TIP3    H238136   2.258   4.865   1.247  0.6676  0.2975  0.1290
 5501TIP3   OH238137   4.981   5.462   7.624  0.1775 -0.4436  0.0735
 5501TIP3    H138138   5.028   5.490   7.703 -1.8158  0.2520  1.0973
 5501TIP3    H238139   5.003   5.528   7.558  0.0551  0.2925  0.7535
 5502TIP3   OH238140   3.110   2.432   1.017  0.4993 -0.5649 -0.4687
 5502TIP3    H138141   3.038   2.453   1.077  1.2720 -0.3866  0.4047
 5502TIP3    H238142   3.119   2.511   0.963 -0.8026 -1.0594 -1.4811
 5503TIP3   OH238143   1.835   0.899   2.259  0.0581  0.0243  0.1900
 5503TIP3    H138144   1.766   0.923   2.198 -1.6137  2.2856  2.7514
 5503TIP3    H238145   1.912   0.946   2.228 -0.0933 -0.7794 -1.4754
 5504TIP3   OH238146   6.071   3.755   7.805 -0.0223 -0.2447  0.3294
 5504TIP3    H138147   6.143   3.731   7.747 -0.9242 -2.1721 -0.0653
 5504TIP3    H238148   6.002   3.786   7.746 -0.8888 -2.0708  0.3302
 5505TIP3   OH238149   1.955   0.965   6.839 -0.7179  0.1373 -0.2603
 5505TIP3    H138150   1.981   1.056   6.828 -2.1435  0.3956 -1.7115
 5505TIP3    H238151   2.035   0.915   6.823 -0.4950  1.0245 -2.1144
 5506TIP3   OH238152   6.452   5.369   8.661  0.3717 -0.3141  0.4924
 5506TIP3    H138153   6.369   5.402   8.697  1.3002  0.4568  1.9906
 5506TIP3    H238154   6.520   5.414   8.711  1.7319 -0.0889 -1.4616
 5507TIP3   OH238155   1.313   1.017   8.531  0.0072 -0.0544  0.0254
 5507TIP3    H138156   1.291   1.096   8.482  0.0112  0.1110  0.2914
 5507TIP3    H238157   1.228   0.978   8.553 -0.0007  0.0444  0.1698
 5508TIP3   OH238158   1.673   4.154   7.604  0.6262  0.0317  0.4358
 5508TIP3    H138159   1.594   4.102   7.593  1.6794 -1.1914 -2.1296
 5508TIP3    H238160   1.645   4.245   7.588 -0.1950 -0.4603 -1.1309
 5509TIP3   OH238161   2.333   2.287   1.172  0.0126 -0.5429 -0.0804
 5509TIP3    H138162   2.252   2.252   1.136 -0.2415  1.4377 -1.6457
 5509TIP3    H238163   2.358   2.357   1.111  0.3600  2.0793  2.8311
 5510TIP3   OH238164   6.340   0.411   1.527 -0.1609  0.6797 -0.0844
 5510TIP3    H138165   6.269   0.471   1.503 -1.0420 -0.3779 -0.2140
 5510TIP3    H238166   6.334   0.340   1.463  2.0223  1.3140 -1.0450
 5511TIP3   OH238167   6.663   1.569   7.294  0.0616 -0.5966 -0.8667
 5511TIP3    H138168   6.712   1.646   7.265  0.9481 -0.5264  0.6884
 5511TIP3    H238169   6.577   1.578   7.254 -0.9365  2.8773  1.6068
 5512TIP3   OH238170   6.651   1.231   8.472 -0.4306 -0.5897 -0.2434
 5512TIP3    H138171   6.625   1.289   8.544  2.2391  1.1298 -0.5392
 5512TIP3    H238172   6.612   1.271   8.394  1.7500  1.2208 -0.5071
 5513TIP3   OH238173   4.297   5.020   8.433  0.3025  0.4312  0.4790
 5513TIP3    H138174   4.353   5.044   8.359  0.4546 -1.3038 -0.0323
 5513TIP3    H238175   4.213   5.060   8.414 -0.2215 -1.4540 -1.6465
 5514TIP3   OH238176   6.049   0.069   1.421 -0.1189 -0.1267 -0.0713
 5514TIP3    H138177   6.062   0.083   1.515 -1.7573 -0.6235  0.2571
 5514TIP3    H238178   5.968   0.019   1.415  0.2743 -0.6232 -1.7362
 5515TIP3   OH238179   5.160   1.555   1.632 -0.3038 -0.1148 -0.4047
 5515TIP3    H138180   5.220   1.580   1.562  0.5766 -1.0490 -0.0157
 5515TIP3    H238181   5.114   1.635   1.654 -1.6166 -0.0448 -2.9742
 5516TIP3   OH238182   2.474   5.648   1.638 -0.3955 -0.5906 -0.3800
 5516TIP3    H138183   2.409   5.600   1.690 -0.2993  1.0416  1.3469
 5516TIP3    H238184   2.531   5.689   1.703  0.9520 -0.0676 -1.8356
 5517TIP3   OH238185   2.144   6.349   7.215  0.1732 -0.0042 -0.0291
 5517TIP3    H138186   2.110   6.416   7.155  0.1384  1.4876  1.5686
 5517TIP3    H238187   2.239   6.352   7.203  0.0629 -1.2445 -1.5076
 5518TIP3   OH238188   5.927   4.108   1.142  0.1710 -0.6033  0.4246
 5518TIP3    H138189   5.967   4.195   1.149 -1.4066  0.2487 -0.7445
 5518TIP3    H238190   5.837   4.125   1.116 -0.0605 -2.6182 -0.2078
 5519TIP3   OH238191   6.042   1.719   8.334 -0.6566 -0.2291  0.4739
 5519TIP3    H138192   5.948   1.732   8.346 -0.6218  0.9574 -0.3539
 5519TIP3    H238193   6.082   1.801   8.364 -0.0096 -0.1782 -0.4754
 5520TIP3   OH238194   4.185   0.775   6.891 -0.1335  0.2516  0.1225
 5520TIP3    H138195   4.148   0.835   6.956 -0.8856  0.1766 -0.2279
 5520TIP3    H238196   4.128   0.784   6.815 -1.3289 -2.1985  0.6506
 5521TIP3   OH238197   0.758   1.496   8.626 -0.4078  0.0089 -0.3036
 5521TIP3    H138198   0.769   1.552   8.702  0.0899 -2.4530  1.5498
 5521TIP3    H238199   0.666   1.469   8.628 -0.2796 -0.4364 -0.3009
 5522TIP3   OH238200   2.371   1.693   0.940 -0.8011  0.3186 -0.2196
 5522TIP3    H138201   2.400   1.782   0.922  0.9791 -0.2605 -0.4957
 5522TIP3    H238202   2.282   1.702   0.975  0.2495  2.4101  2.2332
 5523TIP3   OH238203   2.410   5.856   6.926 -0.3955 -0.0653  0.0545
 5523TIP3    H138204   2.436   5.785   6.985 -1.7425 -1.9460 -1.5001
 5523TIP3    H238205   2.322   5.880   6.955 -0.3350  0.3162 -0.0627
 5524TIP3   OH238206   3.056   0.780   2.294 -0.0612 -0.4195 -0.4909
 5524TIP3    H138207   3.091   0.805   2.379 -2.0603 -1.2530  0.6452
 5524TIP3    H238208   2.963   0.764   2.310 -0.4184 -0.9796 -2.7591
 5525TIP3   OH238209   1.290   4.001   8.130  0.7073  0.3177  0.3277
 5525TIP3    H138210   1.216   3.988   8.190  0.2931  3.0125  0.5173
 5525TIP3    H238211   1.345   4.066   8.174  2.6155 -0.7534 -0.3559
 5526TIP3   OH238212   6.125   3.981   7.419  0.0060 -0.1012 -0.4764
 5526TIP3    H138213   6.093   3.893   7.440 -1.9884 -0.0022 -2.6550
 5526TIP3    H238214   6.053   4.038   7.444  0.7974  0.7942 -0.2131
 5527TIP3   OH238215   6.785   6.587   7.391 -0.4883  0.1318  0.0401
 5527TIP3    H138216   6.716   6.555   7.451 -1.4409  1.7169 -0.1650
 5527TIP3    H238217   6.797   6.679   7.415  2.2350 -0.3010  0.6593
 5528TIP3   OH238218   2.904   3.863   2.036 -0.5766  0.4576 -0.5362
 5528TIP3    H138219   2.815   3.829   2.042 -0.3644 -0.1470 -0.7121
 5528TIP3    H238220   2.903   3.944   2.087 -1.1731  0.3501 -0.3751
 5529TIP3   OH238221   6.192   0.526   7.886 -0.2267 -0.5445  0.0640
 5529TIP3    H138222   6.266   0.542   7.945  0.4068 -0.8971 -0.6242
 5529TIP3    H238223   6.227   0.539   7.798 -0.9982 -0.6516 -0.2707
 5530TIP3   OH238224   5.690   1.000   2.301  0.6807 -0.2108 -0.3458
 5530TIP3    H138225   5.700   0.998   2.396 -2.1239  2.6794  0.1967
 5530TIP3    H238226   5.621   0.936   2.284  0.6276 -0.1604 -0.3213
 5531TIP3   OH238227   4.689   2.651   8.443 -0.3685 -0.4246  0.4921
 5531TIP3    H138228   4.769   2.660   8.494  0.8027 -0.4970 -1.2770
 5531TIP3    H238229   4.688   2.726   8.384 -0.7273 -1.2818 -0.6411
 5532TIP3   OH238230   2.053   2.532   1.675 -0.7129 -0.1539 -0.0082
 5532TIP3    H138231   2.145   2.507   1.668 -0.6926 -0.0689 -0.0433
 5532TIP3    H238232   2.007   2.449   1.692 -0.5855 -0.1384  0.4192
 5533TIP3   OH238233   6.115   0.142   6.938 -0.3916 -0.0287  0.2909
 5533TIP3    H138234   6.020   0.133   6.936 -0.3844 -0.0855  0.1898
 5533TIP3    H238235   6.132   0.200   7.013 -0.3945 -1.3436  1.3411
 5534TIP3   OH238236   2.575   1.924   1.166 -0.3218  0.3067 -0.8017
 5534TIP3    H138237   2.618   1.875   1.236  1.0981  1.3371 -0.9123
 5534TIP3    H238238   2.565   2.012   1.201 -1.4100  0.3482 -1.1830
 5535TIP3   OH238239   0.106   0.028   1.320  0.1421  0.0326 -0.3200
 5535TIP3    H138240   0.108   0.116   1.284 -0.0823  0.6137  1.0485
 5535TIP3    H238241   0.136  -0.028   1.248 -1.5077  0.9892 -1.8396
 5536TIP3   OH238242   5.276   6.582   0.575 -0.0694 -0.8662  0.6575
 5536TIP3    H138243   5.244   6.588   0.665 -1.7870  0.3655  0.0228
 5536TIP3    H238244   5.220   6.517   0.533 -0.1044 -0.5163  0.1544
 5537TIP3   OH238245   1.569   0.156   1.525  0.1273 -0.0476  0.6338
 5537TIP3    H138246   1.634   0.155   1.455 -0.6904  1.2926 -0.1907
 5537TIP3    H238247   1.484   0.160   1.480 -0.4668 -0.3427  1.6904
 5538TIP3   OH238248   2.168   4.789   2.011  0.0347  0.0417  0.1712
 5538TIP3    H138249   2.150   4.827   2.097 -1.5705 -1.3543  0.5043
 5538TIP3    H238250   2.084   4.795   1.965  0.9423  1.0448 -1.4469
 5539TIP3   OH238251   6.133   0.145   6.543  0.3724  0.7072  0.8455
 5539TIP3    H138252   6.210   0.140   6.487  1.1172  0.9527  1.8171
 5539TIP3    H238253   6.069   0.194   6.491 -0.0231 -1.5112 -0.9348
 5540TIP3   OH238254   6.687   0.667   7.693 -0.0330  0.0894 -0.1440
 5540TIP3    H138255   6.634   0.610   7.749  0.7177 -0.7019 -0.2231
 5540TIP3    H238256   6.647   0.658   7.606 -0.2284  0.0897 -0.0553
 5541TIP3   OH238257   3.252   4.969   0.362 -0.3796  0.5201 -0.2811
 5541TIP3    H138258   3.340   4.970   0.324 -0.8011 -0.4608 -1.3670
 5541TIP3    H238259   3.266   4.945   0.454  0.5520  1.4210 -0.1685
 5542TIP3   OH238260   1.220   1.990   1.100 -0.3404  0.4368  0.1585
 5542TIP3    H138261   1.161   1.928   1.142 -0.7697  0.3939 -0.4851
 5542TIP3    H238262   1.265   2.034   1.172  1.0119 -1.5787  0.6398
 5543TIP3   OH238263   4.685   6.622   0.653  0.0035  0.2297 -0.1018
 5543TIP3    H138264   4.723   6.622   0.565  1.3464  2.4042  0.4147
 5543TIP3    H238265   4.754   6.590   0.710 -0.6497 -0.5546  0.2781
 5544TIP3   OH238266   5.915   6.420   1.426  0.2635  0.9830 -0.5574
 5544TIP3    H138267   5.877   6.447   1.342  0.0141  0.9860 -0.4439
 5544TIP3    H238268   5.868   6.340   1.449 -0.8793  1.9134  0.4210
 5545TIP3   OH238269   2.417   2.906   0.210  1.3259  0.0742  0.4726
 5545TIP3    H138270   2.360   2.872   0.279  0.2016  0.7590 -0.0944
 5545TIP3    H238271   2.434   2.997   0.235  1.6493  0.0579  0.3131
 5546TIP3   OH238272   4.814   1.042   7.300 -0.1962  0.7994  0.3997
 5546TIP3    H138273   4.719   1.047   7.313 -0.2081  0.7257  0.3393
 5546TIP3    H238274   4.840   0.961   7.345 -0.4836 -0.4215 -1.5287
 5547TIP3   OH238275   6.771   6.581   1.692 -0.5966  0.8255 -0.0559
 5547TIP3    H138276   6.773   6.587   1.597  0.6976 -0.0985 -0.1232
 5547TIP3    H238277   6.819   6.500   1.712  1.9973  2.5634  1.4697
 5548TIP3   OH238278   4.072   4.715   7.436  0.6260  0.0446 -0.1703
 5548TIP3    H138279   4.132   4.653   7.396  1.1043  0.0148  0.5659
 5548TIP3    H238280   4.054   4.678   7.523 -0.1116  0.2757 -0.2221
 5549TIP3   OH238281   4.703   2.558   7.543 -0.1405  0.3890 -0.1505
 5549TIP3    H138282   4.754   2.516   7.612 -0.8626  0.5454  0.4905
 5549TIP3    H238283   4.767   2.576   7.474  0.3062 -1.1977 -0.1980
 5550TIP3   OH238284   3.127   6.668   8.723  0.5764  0.1129 -0.3484
 5550TIP3    H138285   3.128   6.646   8.816 -0.1656  0.9475 -0.1306
 5550TIP3    H238286   3.053   6.619   8.687 -0.8474  1.8693  0.0646
 5551TIP3   OH238287   0.201   6.813   2.868  0.2058  0.0089 -0.0583
 5551TIP3    H138288   0.108   6.808   2.891 -0.1174  2.6709 -0.4340
 5551TIP3    H238289   0.202   6.852   2.781  1.6909  0.0967 -0.0224
 5552TIP3   OH238290   0.468   2.078   8.599  0.0593 -1.0810  0.6954
 5552TIP3    H138291   0.437   2.005   8.546 -0.0377  0.9172 -2.2456
 5552TIP3    H238292   0.388   2.124   8.625  0.1893  0.6445 -1.6862
 5553TIP3   OH238293   1.197   0.310   1.188  0.1363  0.1148  0.1964
 5553TIP3    H138294   1.209   0.402   1.211 -0.7796 -0.1243  1.8024
 5553TIP3    H238295   1.109   0.307   1.149 -0.2970 -0.2274  1.1707
 5554TIP3   OH238296   6.342   1.094   8.737 -0.3611  0.0716 -0.8615
 5554TIP3    H138297   6.418   1.039   8.721 -0.7517 -0.3685 -1.2266
 5554TIP3    H238298   6.267   1.035   8.728 -0.7243  0.3990 -0.0702
 5555TIP3   OH238299   1.212   1.274   1.963 -0.1661 -0.1493  0.0256
 5555TIP3    H138300   1.163   1.340   2.010  1.7224  0.7351  0.8762
 5555TIP3    H238301   1.212   1.197   2.020  0.7640  0.3920  0.7873
 5556TIP3   OH238302   1.187   3.927   1.532 -0.1543 -0.0320 -0.5231
 5556TIP3    H138303   1.175   3.920   1.626  1.1336 -0.7852 -0.3865
 5556TIP3    H238304   1.254   3.994   1.521 -1.2837  1.0762 -1.0169
 5557TIP3   OH238305   3.805   4.835   2.672  0.8751 -0.0592 -0.2817
 5557TIP3    H138306   3.860   4.861   2.598  3.1662 -0.2416  1.2307
 5557TIP3    H238307   3.858   4.770   2.719 -1.7537 -2.2241 -0.0940
 5558TIP3   OH238308   3.517   4.913   1.552  0.3003 -0.0837  0.2488
 5558TIP3    H138309   3.533   5.004   1.575  0.2850 -0.1772  0.6357
 5558TIP3    H238310   3.485   4.916   1.461  0.1567  0.3040  0.3127
 5559TIP3   OH238311   6.324   0.910   8.033 -0.1880  0.1826 -0.3371
 5559TIP3    H138312   6.278   0.933   8.114  0.9318  1.3244  0.0079
 5559TIP3    H238313   6.401   0.967   8.032  0.3006 -0.4532 -1.7626
 5560TIP3   OH238314   1.076   5.469   8.196  0.0192  0.5584 -0.2216
 5560TIP3    H138315   1.170   5.457   8.212  0.8139  3.6589 -1.7762
 5560TIP3    H238316   1.071   5.488   8.102 -2.6658 -2.8622 -0.9785
 5561TIP3   OH238317   5.702   6.005   2.029  0.1296  0.2607  0.1727
 5561TIP3    H138318   5.729   6.096   2.015 -1.6566  1.5672  3.8330
 5561TIP3    H238319   5.607   6.006   2.014  0.2677 -1.4062 -1.0965
 5562TIP3   OH238320   5.472   6.239   7.761  0.4355  0.6835 -0.2334
 5562TIP3    H138321   5.385   6.233   7.801 -0.5277 -0.3258 -2.3030
 5562TIP3    H238322   5.527   6.280   7.828 -0.9576 -1.1445  2.2096
 5563TIP3   OH238323   0.283   1.585   6.319  0.3107  0.0046  0.0270
 5563TIP3    H138324   0.355   1.522   6.314  1.1182  1.0068 -2.9268
 5563TIP3    H238325   0.326   1.670   6.308 -1.2227  0.7096 -0.6534
 5564TIP3   OH238326   0.799   6.280   7.370  0.4574  0.1120  0.2221
 5564TIP3    H138327   0.820   6.192   7.337 -2.3256 -0.3945 -0.4517
 5564TIP3    H238328   0.792   6.268   7.465 -0.9693 -0.6859  0.0396
 5565TIP3   OH238329   0.004   5.418   2.466  0.1845  0.8098  0.1563
 5565TIP3    H138330  -0.036   5.358   2.529  2.3799  0.6535  1.4996
 5565TIP3    H238331   0.063   5.472   2.519  2.6835  0.1921 -1.7829
 5566TIP3   OH238332   4.961   1.520   8.061  0.0033 -0.2394  0.0789
 5566TIP3    H138333   4.878   1.474   8.065 -0.0563 -0.1149  0.2519
 5566TIP3    H238334   4.958   1.583   8.133  0.1934 -0.1474  0.0075
 5567TIP3   OH238335   3.259   4.760   8.352  0.1685 -0.2932  0.3993
 5567TIP3    H138336   3.165   4.764   8.338  0.3012 -0.0057 -0.4663
 5567TIP3    H238337   3.293   4.711   8.278  0.6669 -0.7143  0.8936
 5568TIP3   OH238338   3.870   2.519   7.593  0.4176 -0.4856 -0.3043
 5568TIP3    H138339   3.954   2.481   7.618  0.7858 -1.0533 -2.2639
 5568TIP3    H238340   3.821   2.525   7.675  1.1229 -3.2447  0.4169
 5569TIP3   OH238341   2.038   3.263   7.252 -0.7919 -0.3373  0.0844
 5569TIP3    H138342   1.999   3.256   7.165  1.1307  0.5237 -0.8995
 5569TIP3    H238343   2.132   3.273   7.236  0.0465 -3.2342  2.3727
 5570TIP3   OH238344   1.784   4.877   0.237 -0.5564 -0.3037 -0.0548
 5570TIP3    H138345   1.740   4.898   0.155  2.2546 -1.5198 -2.0667
 5570TIP3    H238346   1.830   4.958   0.261  0.8824 -0.6911 -1.3331
 5571TIP3   OH238347   0.071   2.651   0.170  0.3593  0.0793  0.0761
 5571TIP3    H138348   0.078   2.735   0.214 -0.1230  0.2889 -0.2436
 5571TIP3    H238349   0.008   2.601   0.222 -0.1389  0.2931 -0.3165
 5572TIP3   OH238350   0.371   3.594   0.885  0.3002  0.1143 -0.4158
 5572TIP3    H138351   0.431   3.565   0.954  0.7700  1.6275 -0.1433
 5572TIP3    H238352   0.294   3.625   0.932 -0.1812 -0.6396 -0.6957
 5573TIP3   OH238353   1.396   2.356   7.390 -0.3903  0.2045  0.2687
 5573TIP3    H138354   1.349   2.418   7.334 -0.2242  1.4487  1.4535
 5573TIP3    H238355   1.351   2.273   7.376 -0.9381  0.6799 -0.9917
 5574TIP3   OH238356   3.541   4.781   2.634 -0.2645 -0.1434 -0.2425
 5574TIP3    H138357   3.631   4.793   2.664  0.0886 -1.0949 -0.8916
 5574TIP3    H238358   3.526   4.853   2.572 -0.1511  0.3523  0.3044
 5575TIP3   OH238359   1.298   1.162   0.499  0.1974  0.4456 -0.1691
 5575TIP3    H138360   1.281   1.128   0.587 -0.3912  0.4676 -0.2713
 5575TIP3    H238361   1.231   1.121   0.444 -0.2643  1.4379 -0.3696
 5576TIP3   OH238362   5.085   1.865   0.970 -0.1519 -0.7642  0.7026
 5576TIP3    H138363   5.139   1.933   1.010 -1.0417 -0.2781  1.0946
 5576TIP3    H238364   5.061   1.901   0.885  2.4500 -2.1433 -0.7528
 5577TIP3   OH238365   2.427   6.198   8.607 -0.2447 -0.2677 -0.1057
 5577TIP3    H138366   2.443   6.189   8.701 -1.0746  0.3650  0.1113
 5577TIP3    H238367   2.513   6.213   8.569  0.3948 -2.6335  0.2652
 5578TIP3   OH238368   6.523   4.119   2.541  0.0675 -0.1446 -0.0397
 5578TIP3    H138369   6.507   4.025   2.554 -2.7055  0.4821  2.0650
 5578TIP3    H238370   6.447   4.148   2.490 -1.2409  1.5232  2.6334
 5579TIP3   OH238371   2.359   0.734   7.654  0.5314 -0.1475 -0.7879
 5579TIP3    H138372   2.325   0.672   7.719  2.0378 -1.2646 -1.0244
 5579TIP3    H238373   2.286   0.747   7.594 -0.5731  0.1559  0.5500
 5580TIP3   OH238374   5.855   0.125   7.291  0.0402  0.3986 -0.1122
 5580TIP3    H138375   5.895   0.042   7.268 -0.5913 -0.3890  1.5101
 5580TIP3    H238376   5.847   0.172   7.207 -1.4593 -1.9666 -1.3790
 5581TIP3   OH238377   0.679   5.223   7.130  0.1354 -0.1904 -0.1447
 5581TIP3    H138378   0.680   5.203   7.036 -1.2461 -1.1013  0.0053
 5581TIP3    H238379   0.670   5.138   7.172  1.8325  0.1062  0.8898
 5582TIP3   OH238380   4.926   6.537   8.254 -0.0459 -0.4176 -0.4265
 5582TIP3    H138381   4.963   6.474   8.193  1.9911  2.3314 -2.2790
 5582TIP3    H238382   4.993   6.548   8.322 -1.0297 -1.2783  0.7272
 5583TIP3   OH238383   6.362   2.370   1.032  0.2483 -0.2484 -0.5204
 5583TIP3    H138384   6.435   2.310   1.018 -0.2500 -0.6547 -1.4875
 5583TIP3    H238385   6.320   2.377   0.946 -0.1818  0.8606 -0.2373
 5584TIP3   OH238386   1.365   0.816   0.091 -0.0352 -0.2157 -0.3021
 5584TIP3    H138387   1.290   0.873   0.071  0.3271  0.1421 -0.6574
 5584TIP3    H238388   1.413   0.864   0.159  0.6252  0.2245 -1.0613
 5585TIP3   OH238389   5.204   2.812   0.426 -0.0019 -0.2267  0.1223
 5585TIP3    H138390   5.138   2.770   0.371 -1.0325  0.8778  0.4742
 5585TIP3    H238391   5.210   2.756   0.503 -1.2912  0.1958  0.5493
 5586TIP3   OH238392   5.092   0.423   0.751 -0.4103 -0.0912 -0.1819
 5586TIP3    H138393   5.133   0.353   0.700  0.9330  0.0200  0.6959
 5586TIP3    H238394   5.118   0.406   0.841  0.0003  1.5642  0.0528
 5587TIP3   OH238395   1.847   3.508   1.485 -0.6493 -0.6748 -0.3748
 5587TIP3    H138396   1.893   3.507   1.401 -1.5884  0.8152 -0.9572
 5587TIP3    H238397   1.755   3.501   1.462 -0.9800  0.5900  0.4513
 5588TIP3   OH238398   1.414   3.096   8.641  0.2238 -0.0299 -0.5161
 5588TIP3    H138399   1.422   3.020   8.583  0.1970  0.9999 -1.9431
 5588TIP3    H238400   1.326   3.129   8.623 -0.6334 -0.9174  1.7512
 5589TIP3   OH238401   5.062   5.332   7.138 -0.2162 -0.0313 -0.5177
 5589TIP3    H138402   5.071   5.238   7.122  1.7091  0.0658 -0.2411
 5589TIP3    H238403   5.108   5.373   7.065 -0.0604  0.6570 -0.0414
 5590TIP3   OH238404   2.004   6.456   7.669 -0.5450 -0.2601  0.1017
 5590TIP3    H138405   2.069   6.519   7.637 -1.6034  0.6463 -0.3217
 5590TIP3    H238406   1.970   6.415   7.590  0.0736 -1.3364  0.3691
 5591TIP3   OH238407   4.440   0.628   0.160 -0.4426 -0.6774  0.3303
 5591TIP3    H138408   4.401   0.716   0.157  0.0783 -0.4380  0.5558
 5591TIP3    H238409   4.523   0.640   0.206 -1.0783 -1.5662  1.7353
 5592TIP3   OH238410   4.985   3.713   2.007 -0.0366  0.7538  0.0927
 5592TIP3    H138411   5.029   3.661   2.074  3.0164  2.1867 -0.6118
 5592TIP3    H238412   4.971   3.799   2.048 -1.0201  0.7208 -0.1455
 5593TIP3   OH238413   0.381   4.229   1.274 -0.2446 -0.0614 -0.2212
 5593TIP3    H138414   0.456   4.204   1.327 -0.9901 -1.4376  0.2493
 5593TIP3    H238415   0.319   4.267   1.337 -0.1793  0.5376 -0.5125
 5594TIP3   OH238416   0.217   4.541   8.682 -0.1455 -0.5365  0.2690
 5594TIP3    H138417   0.290   4.564   8.740  0.2911  0.3863 -0.6172
 5594TIP3    H238418   0.241   4.579   8.597 -2.0224  0.4772  0.1567
 5595TIP3   OH238419   2.447   3.175   0.205  0.0486  0.1725 -0.2657
 5595TIP3    H138420   2.540   3.153   0.201  0.5706  1.7894  1.3702
 5595TIP3    H238421   2.445   3.270   0.194 -1.4248  0.1583 -0.2702
 5596TIP3   OH238422   5.924   4.852   8.621  0.2929  0.2104 -0.4439
 5596TIP3    H138423   5.928   4.905   8.542  0.7729  0.8067 -0.0314
 5596TIP3    H238424   5.970   4.771   8.598  0.6886  0.5024 -0.6872
 5597TIP3   OH238425   0.592   0.476   8.501 -0.5332 -0.0500 -0.2160
 5597TIP3    H138426   0.551   0.390   8.512 -2.0142  0.7457  1.1051
 5597TIP3    H238427   0.595   0.489   8.406 -1.1160 -1.1905 -0.4167
 5598TIP3   OH238428   3.661   0.610   0.737 -0.0417  0.0307  0.0197
 5598TIP3    H138429   3.605   0.536   0.712 -1.6894  1.3168 -0.2942
 5598TIP3    H238430   3.694   0.587   0.823  0.4301 -1.5780 -0.5642
 5599TIP3   OH238431   1.836   1.230   0.857  0.6632  0.0971  0.5764
 5599TIP3    H138432   1.862   1.300   0.918  2.3203  0.3019 -0.3357
 5599TIP3    H238433   1.828   1.152   0.913  0.5678  0.6196  1.3142
 5600TIP3   OH238434   5.479   0.386   7.497  0.6528 -1.1369 -0.0987
 5600TIP3    H138435   5.447   0.303   7.462  1.4957 -1.3513 -0.3902
 5600TIP3    H238436   5.565   0.364   7.535 -0.3504 -0.9999  2.4430
 5601TIP3   OH238437   2.643   1.144   2.716  0.0522 -0.1445  0.0054
 5601TIP3    H138438   2.737   1.152   2.732  0.2696 -0.5824 -0.9884
 5601TIP3    H238439   2.610   1.234   2.722  0.5055 -0.0036  0.4919
 5602TIP3   OH238440   1.341   3.500   0.891 -0.3306 -0.4990 -0.1717
 5602TIP3    H138441   1.398   3.541   0.825  0.6601 -0.9461  0.3825
 5602TIP3    H238442   1.252   3.517   0.860  0.1006 -1.7750 -2.2855
 5603TIP3   OH238443   4.298   2.093   7.081 -0.0363  0.6172 -0.3967
 5603TIP3    H138444   4.247   2.013   7.063  1.7056 -1.0258  1.4436
 5603TIP3    H238445   4.250   2.135   7.153  0.3193 -0.0807  0.2617
 5604TIP3   OH238446   3.541   3.758   8.394 -0.0248 -0.1818 -0.1882
 5604TIP3    H138447   3.584   3.749   8.309 -0.3116 -2.0463 -0.1835
 5604TIP3    H238448   3.487   3.680   8.402 -0.2446  0.1007  1.5865
 5605TIP3   OH238449   1.857   1.953   8.236  0.4657 -0.1228 -0.3616
 5605TIP3    H138450   1.905   2.008   8.297 -0.4482  1.7587 -1.2319
 5605TIP3    H238451   1.794   1.905   8.290  0.4506  0.6414  0.3080
 5606TIP3   OH238452   3.771   0.156   0.768  0.0201 -0.0017  0.1822
 5606TIP3    H138453   3.855   0.201   0.760 -0.3167  0.4179 -1.3016
 5606TIP3    H238454   3.789   0.081   0.825  1.1935  0.5535  0.5719
 5607TIP3   OH238455   4.068   5.260   6.759  0.4865 -0.3114  0.1417
 5607TIP3    H138456   3.994   5.282   6.704 -0.3339  1.0511  1.6908
 5607TIP3    H238457   4.031   5.248   6.847  1.7546 -2.2147  0.5003
 5608TIP3   OH238458   5.450   2.730   1.845 -0.3677 -0.0714  0.2043
 5608TIP3    H138459   5.374   2.724   1.788 -0.0272  0.0353 -0.2622
 5608TIP3    H238460   5.497   2.648   1.831 -1.2681 -0.8894  1.7488
 5609TIP3   OH238461   3.381   1.271   0.408  0.1439  0.2841  0.3592
 5609TIP3    H138462   3.314   1.309   0.464 -0.4777 -0.0892 -0.1105
 5609TIP3    H238463   3.372   1.319   0.325  1.0598  0.8414  0.5780
 5610TIP3   OH238464   2.586   5.175   7.801 -0.2515 -0.2504  0.4249
 5610TIP3    H138465   2.643   5.163   7.725  0.1433 -0.0967  0.6913
 5610TIP3    H238466   2.520   5.106   7.793  0.5798 -1.0993  0.6619
 5611TIP3   OH238467   3.061   2.324   8.344  0.4722  0.4265  0.8038
 5611TIP3    H138468   3.121   2.356   8.411  1.2573  1.5610 -0.3925
 5611TIP3    H238469   3.118   2.290   8.275 -0.3205 -2.2556  1.3284
 5612TIP3   OH238470   3.464   6.595   1.070 -0.5399  0.8604 -0.0156
 5612TIP3    H138471   3.386   6.539   1.076 -0.1179  0.4260  3.0192
 5612TIP3    H238472   3.532   6.546   1.117  0.9744  2.1868 -0.7362
 5613TIP3   OH238473   2.244   5.312   7.485 -0.1627  0.2416  0.3460
 5613TIP3    H138474   2.155   5.277   7.483  0.0567 -0.3045 -0.0555
 5613TIP3    H238475   2.255   5.345   7.575 -0.9080  0.6968  0.2808
 5614TIP3   OH238476   0.219   2.965   6.325 -0.3586 -0.6958 -0.2237
 5614TIP3    H138477   0.176   3.027   6.384  0.1407  1.2780 -1.8172
 5614TIP3    H238478   0.150   2.938   6.265 -0.8417 -2.6244  1.1052
 5615TIP3   OH238479   1.897   2.810   7.227 -0.6976  0.2171 -0.4135
 5615TIP3    H138480   1.972   2.811   7.287  1.8838  2.2233 -3.3736
 5615TIP3    H238481   1.919   2.743   7.162 -2.9049 -1.1302  0.1204
 5616TIP3   OH238482   6.407   5.551   1.398  0.4043  0.0656 -0.1486
 5616TIP3    H138483   6.421   5.558   1.304  1.8406  0.4377  0.0826
 5616TIP3    H238484   6.332   5.608   1.415  0.3535  0.2634 -1.0063
 5617TIP3   OH238485   3.054   5.516   7.290 -0.0373  0.1650  0.4019
 5617TIP3    H138486   3.026   5.436   7.246 -0.1990 -0.1107  0.9972
 5617TIP3    H238487   2.981   5.577   7.276 -0.2393 -0.0336  0.5870
 5618TIP3   OH238488   2.827   0.990   7.303 -0.2234 -0.7174 -0.4616
 5618TIP3    H138489   2.897   0.962   7.362  0.3058 -0.5900 -1.0233
 5618TIP3    H238490   2.796   1.073   7.341  0.1401 -0.6148 -0.3851
 5619TIP3   OH238491   3.622   6.562   0.240  0.5936  0.0606 -0.0161
 5619TIP3    H138492   3.660   6.476   0.256  1.5484  0.3304 -0.7214
 5619TIP3    H238493   3.676   6.599   0.170  0.3843  1.3470  0.4788
 5620TIP3   OH238494   4.761   6.591   8.468 -0.3914  0.0910 -0.1820
 5620TIP3    H138495   4.785   6.560   8.380  1.3651 -0.0208  0.2993
 5620TIP3    H238496   4.686   6.648   8.454 -2.4798 -2.7076 -1.3569
 5621TIP3   OH238497   3.114   3.406   0.380 -0.8013  0.0621 -0.0226
 5621TIP3    H138498   3.195   3.400   0.430 -2.0357 -1.2070  1.9659
 5621TIP3    H238499   3.115   3.494   0.342  1.5424  0.0198 -0.2055
 5622TIP3   OH238500   3.884   4.762   8.715 -0.3422 -0.1544  0.7640
 5622TIP3    H138501   3.967   4.755   8.761  0.4960 -2.1006 -0.8698
 5622TIP3    H238502   3.908   4.791   8.627 -1.4833  0.0505  0.5069
 5623TIP3   OH238503   3.537   1.579   0.266  0.8061 -0.2561  0.5704
 5623TIP3    H138504   3.613   1.538   0.307  0.8782  0.8501  1.5797
 5623TIP3    H238505   3.493   1.507   0.221  1.9727 -1.0720  0.6870
 5624TIP3   OH238506   2.216   1.287   7.840 -0.5199 -0.4668 -0.1645
 5624TIP3    H138507   2.265   1.368   7.830 -0.5331 -0.1134  2.0954
 5624TIP3    H238508   2.283   1.218   7.837 -0.0912 -0.1216  1.0344
 5625TIP3   OH238509   3.474   5.034   7.217 -0.0078  0.2302 -0.2951
 5625TIP3    H138510   3.532   4.958   7.209 -1.5069 -1.0343  0.4311
 5625TIP3    H238511   3.530   5.103   7.253  1.0616 -0.9157  0.3125
 5626TIP3   OH238512   3.989   6.434   6.512  0.8912  0.7177  0.5199
 5626TIP3    H138513   4.080   6.460   6.520  1.1175 -0.1110  0.7756
 5626TIP3    H238514   3.987   6.378   6.434  0.7682  0.0728  0.9731
 5627TIP3   OH238515   2.221   3.218   0.987  0.4073  0.0620 -0.7529
 5627TIP3    H138516   2.312   3.245   0.991  0.2118  0.7408 -0.7752
 5627TIP3    H238517   2.224   3.124   0.969  1.0823  0.2650 -1.7366
 5628TIP3   OH238518   0.191   3.192   0.689 -0.2062 -0.5723 -0.2323
 5628TIP3    H138519   0.257   3.260   0.701  1.5228 -2.5026  2.2019
 5628TIP3    H238520   0.108   3.236   0.709  0.6409  1.1909 -0.3455
 5629TIP3   OH238521   4.324   2.829   1.809 -0.5784  0.1644 -0.0350
 5629TIP3    H138522   4.402   2.806   1.859  1.0634  2.1319 -1.5310
 5629TIP3    H238523   4.251   2.808   1.868  1.0018 -2.1634  1.2389
 5630TIP3   OH238524   5.190   0.605   7.430  0.1747  0.0667  0.6380
 5630TIP3    H138525   5.145   0.542   7.372 -0.6531  0.8098  0.4498
 5630TIP3    H238526   5.164   0.578   7.518  0.1000 -0.0673  0.5758
 5631TIP3   OH238527   2.721   0.016   0.515 -0.4390  0.1664 -0.7018
 5631TIP3    H138528   2.728  -0.079   0.516  0.3677  0.1754  1.7677
 5631TIP3    H238529   2.809   0.047   0.493  0.3668  0.2765  2.3226
 5632TIP3   OH238530   6.531   1.950   8.734  0.5054  0.6370 -0.1652
 5632TIP3    H138531   6.568   1.984   8.815 -2.1765  0.3646  1.2957
 5632TIP3    H238532   6.552   1.857   8.734 -0.8735  0.2816  1.1476
 5633TIP3   OH238533   1.961   3.556   8.410  0.0251  0.0785 -0.1396
 5633TIP3    H138534   2.027   3.553   8.341 -0.0954 -1.6566 -0.2276
 5633TIP3    H238535   1.998   3.505   8.482 -0.2746  1.0263  0.7111
 5634TIP3   OH238536   3.897   2.534   2.172  0.2398 -0.5886  0.4247
 5634TIP3    H138537   3.894   2.537   2.267 -0.2236 -0.4827  0.4092
 5634TIP3    H238538   3.848   2.455   2.148 -1.6073  0.5560  0.2006
 5635TIP3   OH238539   4.076   1.852   6.769  0.1903 -0.1829  0.3207
 5635TIP3    H138540   4.050   1.896   6.850 -2.5100 -1.7299  0.4180
 5635TIP3    H238541   4.073   1.920   6.702  0.7488  0.7398  1.2090
 5636TIP3   OH238542   3.514   3.631   0.787  0.2186 -0.5641  0.6837
 5636TIP3    H138543   3.522   3.691   0.713  1.9324 -2.1679 -0.5411
 5636TIP3    H238544   3.425   3.644   0.820 -0.0738  1.2734 -0.7011
 5637TIP3   OH238545   6.806   1.594   6.921 -0.1561 -0.9801  0.5549
 5637TIP3    H138546   6.794   1.559   6.833  0.4545 -0.0487  0.0888
 5637TIP3    H238547   6.900   1.608   6.929 -0.2836 -0.3762  1.0773
 5638TIP3   OH238548   4.855   3.292   0.530  0.3926 -0.0905 -0.5351
 5638TIP3    H138549   4.788   3.229   0.559  1.2704 -1.2194 -0.8819
 5638TIP3    H238550   4.924   3.285   0.595 -0.3048  1.9857  0.5201
 5639TIP3   OH238551   2.632   0.540   7.024 -0.6127  0.3204 -0.3246
 5639TIP3    H138552   2.548   0.573   6.993 -0.7110  0.3293 -0.0556
 5639TIP3    H238553   2.656   0.600   7.095  0.3297  1.2128 -1.3523
 5640TIP3   OH238554   3.951   1.039   1.800 -0.0607  0.5220  0.3956
 5640TIP3    H138555   4.026   0.992   1.836 -0.9372 -1.7303 -0.5725
 5640TIP3    H238556   3.890   1.048   1.873 -0.3367 -0.8527  0.3524
 5641TIP3   OH238557   6.281   6.750   1.206 -0.5271  0.1159 -0.3817
 5641TIP3    H138558   6.279   6.756   1.301 -0.0449 -0.3438 -0.3388
 5641TIP3    H238559   6.193   6.776   1.178 -0.8677 -0.3680  0.2282
 5642TIP3   OH238560   4.255   4.555   0.068 -0.0297 -0.3006 -0.5153
 5642TIP3    H138561   4.338   4.604   0.072  0.9653 -1.8528 -1.2053
 5642TIP3    H238562   4.223   4.555   0.159 -0.3146  1.9608 -0.5499
 5643TIP3   OH238563   2.414   4.396   8.719  0.0598 -0.0491 -0.0955
 5643TIP3    H138564   2.408   4.382   8.813 -1.2611  0.0465 -0.1414
 5643TIP3    H238565   2.507   4.411   8.702  0.2429  0.4460  1.2570
 5644TIP3   OH238566   4.500   5.551   8.460 -0.2264  0.0593 -0.1505
 5644TIP3    H138567   4.487   5.481   8.397  0.0104 -0.6253  0.5478
 5644TIP3    H238568   4.512   5.507   8.544 -1.1510  0.9738  0.4887
 5645TIP3   OH238569   3.447   5.690   7.774 -0.1552  0.1982  0.2547
 5645TIP3    H138570   3.455   5.689   7.869  0.5669 -1.2979  0.2127
 5645TIP3    H238571   3.481   5.605   7.746 -2.6516 -0.4624 -1.1655
 5646TIP3   OH238572   4.491   4.314   6.819  0.2740 -0.0624  0.1761
 5646TIP3    H138573   4.527   4.403   6.822  0.4243 -0.0506 -1.3740
 5646TIP3    H238574   4.491   4.286   6.911  1.1137  1.1777  0.5916
 5647TIP3   OH238575   5.232   0.074   1.055 -0.5805  0.3455  1.0799
 5647TIP3    H138576   5.319   0.034   1.066 -0.9698 -0.5686  0.9899
 5647TIP3    H238577   5.206   0.051   0.965 -0.3165  1.8649  0.5837
 5648TIP3   OH238578   5.289   5.623   7.672  0.5843 -0.0386 -0.1662
 5648TIP3    H138579   5.249   5.608   7.758 -0.0070 -0.4071 -0.5020
 5648TIP3    H238580   5.321   5.537   7.646  0.0664 -0.0800 -0.6640
 5649TIP3   OH238581   2.309   3.712   8.438 -0.0207 -0.3609  0.7078
 5649TIP3    H138582   2.400   3.726   8.462  0.2880  1.0208 -1.0636
 5649TIP3    H238583   2.303   3.618   8.419  1.3919 -0.2194 -0.5405
 5650TIP3   OH238584   3.349   1.754   6.507  0.2095 -0.3000 -0.4074
 5650TIP3    H138585   3.343   1.660   6.523 -0.7864 -0.1290  0.3946
 5650TIP3    H238586   3.261   1.787   6.528  0.4600  0.7670 -0.9623
 5651TIP3   OH238587   0.837   0.746   7.001  0.2902 -0.2807  0.2554
 5651TIP3    H138588   0.770   0.731   7.068  1.9013 -1.7353  1.6662
 5651TIP3    H238589   0.882   0.825   7.030 -0.7087  0.6508 -0.6490
 5652TIP3   OH238590   5.908   4.221   1.928  0.2745  0.4913  0.3421
 5652TIP3    H138591   5.987   4.169   1.910 -0.8073 -1.5709  1.2599
 5652TIP3    H238592   5.898   4.217   2.023 -0.8687  0.8304  0.2472
 5653TIP3   OH238593   5.076   4.958   8.403  0.4566 -0.2267 -0.0894
 5653TIP3    H138594   5.129   4.888   8.365  1.4343  0.2233  0.4337
 5653TIP3    H238595   5.052   4.926   8.490  1.5449  0.3954  0.4497
 5654TIP3   OH238596   0.442   2.618   2.075 -0.4896  0.4324  0.1424
 5654TIP3    H138597   0.447   2.700   2.125 -1.1306  0.6370 -0.1144
 5654TIP3    H238598   0.348   2.601   2.068 -0.3456 -0.8500  1.0320
 5655TIP3   OH238599   2.528   5.227   0.506 -0.5074  0.9901  0.0459
 5655TIP3    H138600   2.586   5.173   0.452 -0.0561  2.3460 -0.8994
 5655TIP3    H238601   2.537   5.192   0.594  1.1700  0.6732 -0.2179
 5656TIP3   OH238602   0.651   2.090   8.795 -0.2399  0.0088 -0.7091
 5656TIP3    H138603   0.599   2.084   8.715  1.2639 -0.8259 -1.6796
 5656TIP3    H238604   0.688   2.002   8.806  2.2811  0.9298 -1.0422
 5657TIP3   OH238605   6.292   1.548   0.683 -0.2042  0.0337  0.1017
 5657TIP3    H138606   6.372   1.496   0.674 -1.3318 -1.7920  0.0599
 5657TIP3    H238607   6.223   1.492   0.647 -2.1076 -0.0433  3.4416
 5658TIP3   OH238608   5.610   0.223   0.919 -0.3338 -0.1543  0.0611
 5658TIP3    H138609   5.566   0.140   0.898 -1.2859  0.1030  0.9786
 5658TIP3    H238610   5.650   0.208   1.004 -1.2180  0.5859  0.6200
 5659TIP3   OH238611   2.860   3.533   8.629 -0.1155 -0.6622  0.0131
 5659TIP3    H138612   2.824   3.450   8.661 -4.0366  1.4291  1.6599
 5659TIP3    H238613   2.857   3.591   8.705  0.2468  1.6479 -1.6418
 5660TIP3   OH238614   1.894   0.889   7.648  0.5651 -0.3727  0.2605
 5660TIP3    H138615   1.875   0.852   7.562 -1.5553  0.2912  0.3719
 5660TIP3    H238616   1.841   0.968   7.652 -0.6992 -1.2238  2.7478
 5661TIP3   OH238617   4.447   2.886   7.204 -0.0253 -0.1128 -0.6846
 5661TIP3    H138618   4.462   2.833   7.283 -0.3962 -1.2949 -1.3806
 5661TIP3    H238619   4.403   2.826   7.143  0.2658  0.7727 -1.7978
 5662TIP3   OH238620   4.634   6.321   1.021 -0.1167 -0.3069  0.4931
 5662TIP3    H138621   4.714   6.315   0.968 -0.9038 -0.1908 -0.7219
 5662TIP3    H238622   4.565   6.340   0.959 -1.7418 -3.8553  0.9558
 5663TIP3   OH238623   0.714   0.353   7.838 -0.2554 -0.5386 -0.3592
 5663TIP3    H138624   0.665   0.272   7.856  0.1439 -0.1410  3.2194
 5663TIP3    H238625   0.806   0.327   7.840 -0.1518 -0.2452 -0.9223
 5664TIP3   OH238626   5.788   0.582   8.320  0.1051 -0.4949 -0.0732
 5664TIP3    H138627   5.805   0.569   8.227 -0.2971  0.6757 -0.3261
 5664TIP3    H238628   5.705   0.537   8.335  0.5234 -1.2970 -0.1127
 5665TIP3   OH238629   0.041   3.225   2.174  0.0537  0.1042  0.4037
 5665TIP3    H138630   0.124   3.247   2.131  0.9089 -0.1213  1.8545
 5665TIP3    H238631   0.006   3.310   2.201 -1.3256  0.4050 -2.1095
 5666TIP3   OH238632   5.530   3.917   8.224 -0.3897 -0.7726  0.1602
 5666TIP3    H138633   5.519   3.924   8.319 -2.4746 -1.0450 -0.0152
 5666TIP3    H238634   5.494   3.831   8.202  1.0082 -1.1512 -0.7856
 5667TIP3   OH238635   0.417   3.113   0.311 -0.2588 -0.0060  0.4339
 5667TIP3    H138636   0.345   3.175   0.301 -0.7599 -0.5873  0.3858
 5667TIP3    H238637   0.494   3.168   0.328 -0.7761  0.5985  0.8651
 5668TIP3   OH238638   0.534   3.515   8.604 -0.0358 -0.0983  0.0518
 5668TIP3    H138639   0.583   3.545   8.527 -2.3387  1.4767 -0.9463
 5668TIP3    H238640   0.520   3.421   8.588  1.4715 -0.2862 -0.2756
 5669TIP3   OH238641   2.270   4.868   0.727  0.0998 -0.1833 -0.1300
 5669TIP3    H138642   2.200   4.815   0.768  0.3562 -1.3451 -1.1181
 5669TIP3    H238643   2.273   4.948   0.779 -1.1591 -0.6188  0.6733
 5670TIP3   OH238644   3.670   0.446   8.250  0.2045 -0.2098  0.1920
 5670TIP3    H138645   3.652   0.355   8.273 -4.0065  0.7653  1.7639
 5670TIP3    H238646   3.610   0.466   8.178  0.9244  1.3625 -0.0241
 5671TIP3   OH238647   6.712   3.599   1.975 -0.0159 -0.7289  0.7629
 5671TIP3    H138648   6.807   3.608   1.964 -0.0124  0.7195  1.6040
 5671TIP3    H238649   6.702   3.524   2.034  0.6194 -0.7942  0.8029
 5672TIP3   OH238650   5.938   4.066   7.807 -0.1312 -0.6086 -0.9807
 5672TIP3    H138651   5.892   3.983   7.799  0.2435 -0.8307 -0.8280
 5672TIP3    H238652   5.935   4.087   7.900  0.1276 -0.6533 -0.9623
 5673TIP3   OH238653   4.406   1.725   8.079 -0.2184  0.5308  0.4461
 5673TIP3    H138654   4.371   1.772   8.154 -0.0306  0.1851  0.7567
 5673TIP3    H238655   4.353   1.754   8.005 -0.5393  0.7188  0.7468
 5674TIP3   OH238656   6.102   5.748   2.134  0.2097  0.0507 -0.1414
 5674TIP3    H138657   6.033   5.775   2.194  0.9295  1.5816  0.0322
 5674TIP3    H238658   6.131   5.662   2.166  0.2113  0.6010  1.3653
 5675TIP3   OH238659   4.149   4.336   2.458  0.3350  0.1580  0.7561
 5675TIP3    H138660   4.233   4.376   2.437  0.2770 -0.4872 -0.8522
 5675TIP3    H238661   4.087   4.409   2.460  0.7230  0.4908  0.7555
 5676TIP3   OH238662   0.876   3.286   1.560 -0.0861  0.4485 -0.0848
 5676TIP3    H138663   0.917   3.233   1.492 -1.0053  0.7667 -0.9048
 5676TIP3    H238664   0.944   3.295   1.627 -0.2964 -2.8655  0.7397
 5677TIP3   OH238665   5.139   3.245   7.516  0.0334 -0.0691  0.4161
 5677TIP3    H138666   5.174   3.201   7.594  0.3292 -1.8174 -0.6573
 5677TIP3    H238667   5.059   3.198   7.496 -1.9086  2.5012  1.5393
 5678TIP3   OH238668   4.910   0.278   2.184  0.3021  0.7602  0.0711
 5678TIP3    H138669   4.887   0.318   2.268 -0.0323  0.6666  0.0247
 5678TIP3    H238670   5.005   0.282   2.180  0.2408  2.3674 -0.3215
 5679TIP3   OH238671   4.635   5.286   1.052  0.3897 -0.3436 -0.5084
 5679TIP3    H138672   4.602   5.371   1.080 -0.3710 -0.4066 -1.1951
 5679TIP3    H238673   4.717   5.306   1.007 -1.0585  0.3643 -3.0381
 5680TIP3   OH238674   6.208   5.953   2.007  0.0646 -0.3045 -0.1430
 5680TIP3    H138675   6.163   5.874   2.035 -1.1971  0.4619  0.0842
 5680TIP3    H238676   6.237   5.995   2.088 -1.0664  0.4581 -0.0927
 5681TIP3   OH238677   1.246   6.102   7.415 -0.2179  0.1553  0.5746
 5681TIP3    H138678   1.303   6.045   7.364 -0.0257 -0.4105  1.3955
 5681TIP3    H238679   1.306   6.168   7.451  0.1588 -1.0191  2.2695
 5682TIP3   OH238680   0.470   4.681   8.573  0.4896 -0.0901  0.1078
 5682TIP3    H138681   0.449   4.761   8.622  0.7240 -0.5680  1.0137
 5682TIP3    H238682   0.563   4.667   8.590  0.0840 -1.5128  1.4238
 5683TIP3   OH238683   6.093   2.587   1.500  0.6310  0.0950 -0.1608
 5683TIP3    H138684   6.181   2.617   1.478  0.0829  0.7455 -1.5940
 5683TIP3    H238685   6.085   2.502   1.457  0.8112 -0.3297  0.6213
 5684TIP3   OH238686   6.063   6.452   8.091  0.4042  0.1492 -0.1525
 5684TIP3    H138687   6.088   6.535   8.132 -3.5255  1.3649  0.1749
 5684TIP3    H238688   6.028   6.477   8.006 -0.6567 -1.2040 -0.1352
 5685TIP3   OH238689   5.066   1.087   8.581  0.0331  0.0319 -0.2643
 5685TIP3    H138690   4.979   1.102   8.544 -0.3991  1.0380  1.0412
 5685TIP3    H238691   5.085   0.995   8.562 -0.6869  0.1638 -1.8004
 5686TIP3   OH238692   1.971   5.837   0.545 -0.2520 -0.3629  0.5858
 5686TIP3    H138693   1.887   5.883   0.539 -1.2237 -2.0931  0.0122
 5686TIP3    H238694   1.947   5.747   0.568  1.3404 -1.2084 -0.8390
 5687TIP3   OH238695   1.665   0.354   1.678 -0.5943  0.2000 -0.6873
 5687TIP3    H138696   1.651   0.283   1.616 -0.8189 -0.5299  0.1869
 5687TIP3    H238697   1.691   0.428   1.623 -0.8010 -0.4207 -1.6509
 5688TIP3   OH238698   1.258   1.607   7.747 -0.0397 -0.3570  0.2525
 5688TIP3    H138699   1.201   1.657   7.806 -1.0265 -1.1298 -0.0256
 5688TIP3    H238700   1.234   1.516   7.760 -0.7231 -0.5217 -1.7634
 5689TIP3   OH238701   0.900   4.247   7.663  0.6843  0.4512 -0.3317
 5689TIP3    H138702   0.836   4.209   7.723  1.7213  1.1656  1.2685
 5689TIP3    H238703   0.868   4.223   7.576 -0.0664 -1.8714  0.5237
 5690TIP3   OH238704   5.185   2.106   1.078  0.0547  0.5386  0.5112
 5690TIP3    H138705   5.213   2.156   1.154  1.5659  0.4471  0.0426
 5690TIP3    H238706   5.146   2.171   1.019  0.6524  0.9179  0.5365
 5691TIP3   OH238707   3.648   2.708   0.257 -0.1585  0.0586  0.7511
 5691TIP3    H138708   3.677   2.626   0.217 -0.2455 -0.2756  1.3572
 5691TIP3    H238709   3.722   2.768   0.244 -0.2424  0.0052 -0.0261
 5692TIP3   OH238710   4.810   2.150   0.068 -0.5975  0.5956  0.1364
 5692TIP3    H138711   4.873   2.222   0.069  1.2276 -0.8561 -2.0352
 5692TIP3    H238712   4.859   2.075   0.103 -1.8254 -0.1003  0.4275
 5693TIP3   OH238713   1.983   0.711   0.191  0.4027 -0.0927 -0.1868
 5693TIP3    H138714   1.905   0.685   0.141  0.8829 -1.2513 -0.3769
 5693TIP3    H238715   1.950   0.734   0.277 -0.3219  0.9127 -0.7183
 5694TIP3   OH238716   6.056   4.815   1.013 -0.3533  0.4788  0.0882
 5694TIP3    H138717   6.146   4.786   1.032 -0.0871  1.2044 -0.0220
 5694TIP3    H238718   6.067   4.901   0.973 -1.0721  0.2368 -0.6410
 5695TIP3   OH238719   3.677   0.150   8.135 -0.4953 -0.1994  0.1230
 5695TIP3    H138720   3.735   0.092   8.087 -0.1568 -0.4348  0.8057
 5695TIP3    H238721   3.684   0.122   8.226 -0.2787  0.9530  0.4779
 5696TIP3   OH238722   3.980   1.499   0.261 -0.3919  0.1456  0.6664
 5696TIP3    H138723   3.896   1.453   0.250  0.1998 -0.8746  0.2146
 5696TIP3    H238724   4.040   1.452   0.203  0.8094  0.0294  1.9701
 5697TIP3   OH238725   4.089   4.549   1.121 -0.0562  0.0632  0.2847
 5697TIP3    H138726   4.024   4.617   1.100 -1.1288 -0.2880  2.2913
 5697TIP3    H238727   4.173   4.593   1.108 -0.7141  1.3270  0.1010
 5698TIP3   OH238728   1.013   3.127   8.042  0.1821  0.0256  0.3716
 5698TIP3    H138729   1.012   3.035   8.014  0.2817  0.5216 -1.3784
 5698TIP3    H238730   1.105   3.144   8.063  0.6597  0.3826 -1.7803
 5699TIP3   OH238731   5.612   2.070   1.952  0.1444  0.1438  0.0620
 5699TIP3    H138732   5.621   2.074   2.047 -0.6484  0.9178  0.1227
 5699TIP3    H238733   5.566   1.987   1.936  1.4437 -0.6263  0.2354
 5700TIP3   OH238734   6.196   6.228   1.918 -0.9611 -0.2601 -0.1119
 5700TIP3    H138735   6.195   6.298   1.983  1.5538 -0.7299  0.5553
 5700TIP3    H238736   6.244   6.157   1.961  1.5230 -0.3034 -2.6810
 5701TIP3   OH238737   5.638   3.110   2.020  0.0994 -0.0820  0.3520
 5701TIP3    H138738   5.679   3.195   2.037  1.1481 -0.1871 -1.4033
 5701TIP3    H238739   5.709   3.057   1.982 -0.1649 -2.1918  2.5898
 5702TIP3   OH238740   1.762   3.028   1.511  0.0838 -0.0187 -0.2027
 5702TIP3    H138741   1.811   2.985   1.440 -0.0192 -1.5911  0.6415
 5702TIP3    H238742   1.805   3.113   1.521  1.2719 -0.5080 -0.9219
 5703TIP3   OH238743   4.930   0.409   1.885  0.9420  0.1626  0.0479
 5703TIP3    H138744   4.927   0.328   1.937  2.6885 -0.0284 -0.0782
 5703TIP3    H238745   4.846   0.451   1.900  0.7016 -0.8046  1.5559
 5704TIP3   OH238746   1.402   5.264   1.581 -0.4256 -0.4102  0.3690
 5704TIP3    H138747   1.430   5.276   1.490  0.5325 -1.6489  0.4828
 5704TIP3    H238748   1.465   5.313   1.633 -0.3514 -0.5736  0.4331
 5705TIP3   OH238749   1.439   4.153   1.297  0.3557  0.4929  0.0137
 5705TIP3    H138750   1.529   4.147   1.266  0.1400  2.6187 -1.2433
 5705TIP3    H238751   1.392   4.084   1.250  0.9992  0.5214 -0.6803
 5706TIP3   OH238752   0.492   2.723   1.625 -0.2901  0.2326 -0.3467
 5706TIP3    H138753   0.527   2.694   1.709  0.9625  0.4525 -0.7697
 5706TIP3    H238754   0.565   2.765   1.582 -0.1443 -2.0712 -2.6161
 5707TIP3   OH238755   4.165   2.402   1.176  0.3194  0.7335  0.1495
 5707TIP3    H138756   4.224   2.407   1.101  0.0133  2.9476 -0.0078
 5707TIP3    H238757   4.223   2.395   1.252  0.6533 -0.5718 -0.1961
 5708TIP3   OH238758   6.376   4.407   8.597  0.2849  0.2480 -0.3229
 5708TIP3    H138759   6.356   4.337   8.659  1.3214  0.0100 -0.2433
 5708TIP3    H238760   6.308   4.400   8.530 -0.3447 -0.0323  0.3379
 5709TIP3   OH238761   5.988   1.363   1.369 -0.0810 -0.1872  0.1295
 5709TIP3    H138762   5.995   1.456   1.390 -0.0802 -0.4621  1.4068
 5709TIP3    H238763   5.918   1.331   1.426  0.4505 -1.1344  0.2669
 5710TIP3   OH238764   6.705   0.617   6.486 -0.3195  0.7903 -0.0133
 5710TIP3    H138765   6.715   0.664   6.569  0.6058  0.6172 -0.0143
 5710TIP3    H238766   6.711   0.525   6.510 -1.6822  0.6589 -0.0721
 5711TIP3   OH238767   4.717   4.132   0.885  0.3824 -0.1649 -0.4137
 5711TIP3    H138768   4.695   4.215   0.842 -0.9924  0.5427  1.5024
 5711TIP3    H238769   4.782   4.156   0.951  1.1958 -0.9266 -0.9145
 5712TIP3   OH238770   1.036   2.322   6.999  0.3589 -0.2751 -0.2230
 5712TIP3    H138771   1.099   2.253   7.023  1.0207  0.3121 -0.2575
 5712TIP3    H238772   1.031   2.318   6.904  0.3909 -0.2776 -0.2245
 5713TIP3   OH238773   0.566   4.984   1.211  0.3695 -0.1707 -0.1759
 5713TIP3    H138774   0.558   4.897   1.172 -1.2056 -0.0369 -0.2198
 5713TIP3    H238775   0.504   5.039   1.162  3.3209  1.7385 -2.0567
 5714TIP3   OH238776   6.360   5.723   7.050 -0.2389  0.1142  0.1448
 5714TIP3    H138777   6.402   5.780   6.986 -0.5046 -0.1180 -0.2407
 5714TIP3    H238778   6.394   5.636   7.032  2.4780  0.4872  2.6176
 5715TIP3   OH238779   4.230   5.657   8.316  0.0029 -0.7847 -0.8132
 5715TIP3    H138780   4.219   5.603   8.394 -1.0252  1.0031  0.3526
 5715TIP3    H238781   4.307   5.712   8.336 -0.6791  0.1611 -0.7340
 5716TIP3   OH238782   0.532   1.785   8.529 -0.6615  0.1129 -0.0750
 5716TIP3    H138783   0.591   1.805   8.457 -0.4427  0.4032  0.1807
 5716TIP3    H238784   0.590   1.774   8.605 -0.9400  0.4698  0.1940
 5717TIP3   OH238785   6.804   2.432   0.962  0.0432  0.0730  0.1547
 5717TIP3    H138786   6.775   2.477   1.041  0.9522  0.5872  0.2172
 5717TIP3    H238787   6.743   2.460   0.894  1.5662  2.8570 -0.2157
 5718TIP3   OH238788   5.323   0.286   8.582  0.3093 -0.0131 -0.2532
 5718TIP3    H138789   5.329   0.208   8.526 -2.0266 -0.6493  0.2750
 5718TIP3    H238790   5.364   0.258   8.664  0.4721 -0.3192 -0.4335
 5719TIP3   OH238791   0.319   1.215   8.257  0.5037 -0.5871  0.2342
 5719TIP3    H138792   0.251   1.280   8.236  1.7005  1.5738  2.4901
 5719TIP3    H238793   0.294   1.137   8.208 -1.8145  1.1247 -1.5294
 5720TIP3   OH238794   2.950   5.282   7.835  0.3745 -0.1625 -0.1540
 5720TIP3    H138795   2.897   5.300   7.758  0.0103  1.0852  0.3660
 5720TIP3    H238796   2.921   5.346   7.900  1.4377 -0.4682  0.6534
 5721TIP3   OH238797   1.427   5.326   0.412  0.2411  0.0263  0.6531
 5721TIP3    H138798   1.390   5.345   0.325  0.1049  1.6559  1.0296
 5721TIP3    H238799   1.497   5.263   0.394 -0.9204 -1.0191 -0.4043
 5722TIP3   OH238800   5.437   5.663   8.357 -0.3405 -0.3348 -0.4238
 5722TIP3    H138801   5.373   5.721   8.399 -0.1533 -1.0861  0.9793
 5722TIP3    H238802   5.522   5.704   8.376 -0.3682  1.1203 -3.0047
 5723TIP3   OH238803   5.496   2.716   2.306  0.3335 -0.0457 -0.1726
 5723TIP3    H138804   5.443   2.716   2.385  0.6023 -1.8433  0.0347
 5723TIP3    H238805   5.568   2.656   2.324  3.0782  2.9985 -0.0793
 5724TIP3   OH238806   3.571   0.736   1.694 -0.0243 -0.6714 -0.4903
 5724TIP3    H138807   3.477   0.752   1.707 -0.3520  0.1600 -3.2548
 5724TIP3    H238808   3.596   0.679   1.767 -2.5989 -0.6731  0.4939
 5725TIP3   OH238809   0.454   6.210   8.212 -0.5425 -0.0441  0.1265
 5725TIP3    H138810   0.533   6.155   8.214  0.6400  1.5516 -0.2706
 5725TIP3    H238811   0.466   6.266   8.135 -0.7112  2.1203  1.5951
 5726TIP3   OH238812   5.316   0.792   0.235 -0.4463 -0.2759 -0.2738
 5726TIP3    H138813   5.291   0.862   0.296  0.4457 -1.8478  1.9993
 5726TIP3    H238814   5.384   0.832   0.180 -0.8210  1.0007  0.1499
 5727TIP3   OH238815   5.327   5.290   1.517 -0.4280 -0.0093 -0.0859
 5727TIP3    H138816   5.361   5.241   1.443 -0.7732 -2.1971  1.1363
 5727TIP3    H238817   5.404   5.320   1.565 -0.1614  2.4316 -1.8469
 5728TIP3   OH238818   1.179   2.153   2.580 -0.6878  0.0679 -0.1050
 5728TIP3    H138819   1.126   2.194   2.648 -1.8180 -2.0086  0.3588
 5728TIP3    H238820   1.116   2.107   2.525  0.3484  0.4264 -1.6784
 5729TIP3   OH238821   1.131   5.519   8.473 -0.2279 -0.1413 -0.2850
 5729TIP3    H138822   1.099   5.484   8.556 -2.3604  0.2509 -0.8662
 5729TIP3    H238823   1.099   5.457   8.408  1.5914 -0.5519 -0.8257
 5730TIP3   OH238824   4.171   2.672   8.382 -0.0264 -0.7281  0.0542
 5730TIP3    H138825   4.137   2.715   8.304 -0.6993 -2.6660 -0.7919
 5730TIP3    H238826   4.152   2.733   8.453 -0.9823  0.3306 -1.0645
 5731TIP3   OH238827   0.705   3.459   1.369  0.0056  0.2479 -0.1886
 5731TIP3    H138828   0.671   3.506   1.446  0.0812  0.3745 -0.2323
 5731TIP3    H238829   0.774   3.403   1.404 -1.2235 -1.1207  0.1445
 5732TIP3   OH238830   4.403   0.098   0.019  0.1746  0.2171  0.2388
 5732TIP3    H138831   4.417   0.171  -0.041  2.5902  0.3971  0.8847
 5732TIP3    H238832   4.454   0.026  -0.019  0.1173 -0.2542  1.0327
 5733TIP3   OH238833   2.656   4.060   0.352 -0.5687  0.4856 -0.2383
 5733TIP3    H138834   2.569   4.082   0.317 -2.3309  0.2958  3.4712
 5733TIP3    H238835   2.676   3.975   0.315 -2.5586  0.0133 -0.3734
 5734TIP3   OH238836   6.312   3.118   8.169 -0.3867 -0.5690 -0.0507
 5734TIP3    H138837   6.261   3.128   8.249 -2.1708 -1.3517 -1.0404
 5734TIP3    H238838   6.400   3.145   8.194 -1.2784  0.9664  1.6970
 5735TIP3   OH238839   1.787   4.652   1.530 -0.5592  0.3220 -0.0441
 5735TIP3    H138840   1.776   4.557   1.525 -0.2307  0.2706  0.1465
 5735TIP3    H238841   1.865   4.664   1.586  0.0925  0.6769 -1.0069
 5736TIP3   OH238842   5.149   3.654   0.370 -0.1043 -0.5605 -0.0965
 5736TIP3    H138843   5.180   3.643   0.280  1.9561 -3.3012  0.7770
 5736TIP3    H238844   5.180   3.741   0.395  1.5101 -0.7320 -1.2904
 5737TIP3   OH238845   0.034   0.004   8.097  0.2221 -0.1258  0.0753
 5737TIP3    H138846   0.008   0.091   8.127  1.4878  0.3047  0.0022
 5737TIP3    H238847   0.012  -0.054   8.170 -0.9595  0.1900 -0.0204
 5738TIP3   OH238848   5.630   1.971   7.855 -0.0480  0.1149  0.3485
 5738TIP3    H138849   5.563   2.017   7.905 -0.0074 -0.4433  0.9240
 5738TIP3    H238850   5.600   1.880   7.853  1.3812 -0.4294  1.8310
 5739TIP3   OH238851   3.851   1.257   1.152  0.0687 -0.3850 -0.1229
 5739TIP3    H138852   3.797   1.180   1.167 -0.7765  0.1365 -0.4163
 5739TIP3    H238853   3.914   1.257   1.224 -2.0801  0.5114  1.8941
 5740TIP3   OH238854   5.850   5.400   7.625  0.1796  0.3249 -0.4965
 5740TIP3    H138855   5.894   5.316   7.641  1.2704  0.8473 -0.6699
 5740TIP3    H238856   5.766   5.376   7.587  2.1267 -0.6902 -4.7174
 5741TIP3   OH238857   3.286   1.670   7.127  0.0095 -0.2657  0.0805
 5741TIP3    H138858   3.194   1.658   7.106 -0.5645  2.8512  0.2759
 5741TIP3    H238859   3.331   1.663   7.043 -0.6931  0.1843 -0.3428
 5742TIP3   OH238860   1.478   0.017   0.834  0.0848 -0.1426  0.0048
 5742TIP3    H138861   1.394   0.063   0.829  0.8680  1.3340 -0.4167
 5742TIP3    H238862   1.489  -0.003   0.927 -0.5568 -0.0065  0.1159
 5743TIP3   OH238863   1.017   0.330   7.799  0.0365 -0.5460 -0.7126
 5743TIP3    H138864   1.034   0.238   7.819  1.3456  0.2666  2.7002
 5743TIP3    H238865   1.104   0.369   7.789 -0.2601  0.9381  1.7158
 5744TIP3   OH238866   2.227   2.868   8.173 -0.2051 -0.3878  0.1482
 5744TIP3    H138867   2.136   2.846   8.156 -0.1040 -1.6867  1.1619
 5744TIP3    H238868   2.251   2.817   8.250  1.4424 -0.2376 -0.2108
 5745TIP3   OH238869   1.851   0.281   0.042 -0.1114 -0.2130 -0.0117
 5745TIP3    H138870   1.916   0.343   0.009 -0.1911  0.1601  0.5256
 5745TIP3    H238871   1.900   0.199   0.054 -0.0847 -0.3590 -1.0500
 5746TIP3   OH238872   1.575   1.206   1.211  0.1229  0.3129  0.2221
 5746TIP3    H138873   1.560   1.296   1.238  1.8729  0.2805  1.5101
 5746TIP3    H238874   1.610   1.163   1.289  2.6014 -0.5688 -1.2288
 5747TIP3   OH238875   4.253   1.730   0.004 -0.0733 -0.3060 -0.4409
 5747TIP3    H138876   4.295   1.646   0.025  0.9288 -0.0650 -1.3731
 5747TIP3    H238877   4.274   1.787   0.078  0.0634 -0.5934 -0.2551
 5748TIP3   OH238878   4.879   5.834   1.304 -0.3264  1.0456  0.2336
 5748TIP3    H138879   4.888   5.776   1.380 -1.7807  2.5765  1.6978
 5748TIP3    H238880   4.810   5.794   1.251 -0.5061  0.8139  0.6372
 5749TIP3   OH238881   3.680   2.833   7.374  0.4474  0.6249 -0.1411
 5749TIP3    H138882   3.749   2.852   7.438  1.0809  0.4972 -0.7658
 5749TIP3    H238883   3.720   2.770   7.314 -0.4311  0.0669 -0.1537
 5750TIP3   OH238884   4.997   2.832   2.514 -0.0050  0.0943  0.0104
 5750TIP3    H138885   5.051   2.844   2.592  0.9216  0.6043 -0.6922
 5750TIP3    H238886   4.973   2.739   2.515  1.6602 -0.3627 -0.1475
 5751TIP3   OH238887   6.759   5.945   8.439 -0.6651 -0.4699 -0.4980
 5751TIP3    H138888   6.677   5.993   8.444  0.1470  0.8944  0.9443
 5751TIP3    H238889   6.786   5.933   8.530  1.8270  1.2051 -0.8894
 5752TIP3   OH238890   3.163   0.716   1.474 -0.0730  0.0990 -0.4929
 5752TIP3    H138891   3.255   0.690   1.473 -0.9054 -3.2754 -1.0494
 5752TIP3    H238892   3.151   0.765   1.393  0.8536 -1.0462 -1.3549
 5753TIP3   OH238893   2.135   4.036   8.255 -0.3048 -0.6576  0.5342
 5753TIP3    H138894   2.154   3.950   8.217  1.5251  0.8517 -2.3243
 5753TIP3    H238895   2.048   4.059   8.221 -0.5833 -1.1499  0.9038
 5754TIP3   OH238896   3.958   4.619   8.198 -0.2795  0.6389  0.4166
 5754TIP3    H138897   4.025   4.668   8.246  0.9710 -1.2117  0.6703
 5754TIP3    H238898   3.990   4.617   8.108 -0.5196  0.6200  0.3328
 5755TIP3   OH238899   3.410   2.070   8.006 -0.3375  0.2611  0.6081
 5755TIP3    H138900   3.490   2.114   7.976  0.3595 -1.0563  0.4859
 5755TIP3    H238901   3.399   2.100   8.096  0.1652  0.6270  0.5559
 5756TIP3   OH238902   4.796   6.802   8.181  0.1756  0.8731 -0.0419
 5756TIP3    H138903   4.866   6.862   8.206  0.9343  0.6545 -1.4758
 5756TIP3    H238904   4.842   6.723   8.153 -0.7019  0.3754 -0.1047
 5757TIP3   OH238905   1.442   4.905   0.436  0.0169  0.8612  0.2642
 5757TIP3    H138906   1.383   4.949   0.375  0.3312  0.0133 -0.6920
 5757TIP3    H238907   1.438   4.813   0.410 -1.0258  0.1859  2.5142
 5758TIP3   OH238908   3.770   2.389   1.760  0.0453 -0.6152  0.4048
 5758TIP3    H138909   3.865   2.401   1.767  0.2803  0.0650 -2.6125
 5758TIP3    H238910   3.739   2.469   1.718 -2.0229 -0.5112  1.9726
 5759TIP3   OH238911   1.566   1.161   0.524 -0.6910 -0.3319 -0.2845
 5759TIP3    H138912   1.562   1.235   0.584 -1.9266 -0.1032 -0.6283
 5759TIP3    H238913   1.475   1.145   0.498 -0.2536 -0.7908 -1.6526
 5760TIP3   OH238914   5.832   4.568   0.317 -0.2282  0.1461 -0.2953
 5760TIP3    H138915   5.759   4.508   0.334  1.5921 -1.2352  3.8479
 5760TIP3    H238916   5.794   4.656   0.325 -1.2744 -0.4801  4.1986
 5761TIP3   OH238917   5.037   4.206   1.586 -0.0565 -0.0662  0.3947
 5761TIP3    H138918   5.037   4.302   1.592  0.9227  0.0139 -0.5912
 5761TIP3    H238919   5.067   4.177   1.672 -1.9043  0.4236  1.2760
 5762TIP3   OH238920   2.694   6.678   7.435 -0.1308  0.4419  0.0633
 5762TIP3    H138921   2.639   6.704   7.361  0.6198  2.0507  0.0357
 5762TIP3    H238922   2.655   6.720   7.511  0.3158  0.5371  0.2463
 5763TIP3   OH238923   4.152   4.204   7.328  0.3923 -0.2232  0.4512
 5763TIP3    H138924   4.215   4.242   7.267  2.5530 -0.5506  2.3571
 5763TIP3    H238925   4.086   4.163   7.272  0.0338  2.9127 -1.6707
 5764TIP3   OH238926   4.443   5.663   7.699 -0.2211  0.1991  0.1392
 5764TIP3    H138927   4.450   5.754   7.728 -1.0600  0.5451 -0.6812
 5764TIP3    H238928   4.445   5.668   7.603 -1.2798 -0.5353  0.0591
 5765TIP3   OH238929   4.973   6.118   8.366  0.7606  0.5281  0.3169
 5765TIP3    H138930   5.007   6.151   8.449 -1.1809  0.6057  1.1266
 5765TIP3    H238931   4.982   6.023   8.372  0.4534  0.5233  0.7037
 5766TIP3   OH238932   5.403   4.347   1.762  0.2274 -0.1034  0.0083
 5766TIP3    H138933   5.405   4.340   1.857  0.9994  0.2363  0.0203
 5766TIP3    H238934   5.487   4.310   1.733 -0.6252 -1.6450 -0.6425
 5767TIP3   OH238935   2.848   3.591   1.863 -0.3962 -0.0052  0.0754
 5767TIP3    H138936   2.930   3.623   1.826 -0.1652 -0.4832  0.1796
 5767TIP3    H238937   2.874   3.538   1.938 -0.8577  1.0574  1.0278
 5768TIP3   OH238938   1.573   6.043   0.971  0.4071  0.0760 -0.5194
 5768TIP3    H138939   1.637   6.084   1.030  0.6098 -2.1651  0.9134
 5768TIP3    H238940   1.494   6.096   0.982  1.6923  2.4645 -1.7877
 5769TIP3   OH238941   3.569   5.721   0.713 -0.0027  0.0182  0.2126
 5769TIP3    H138942   3.583   5.716   0.808 -1.5350  1.3821  0.5452
 5769TIP3    H238943   3.487   5.770   0.703  0.0394 -0.2428 -1.8230
 5770TIP3   OH238944   2.897   2.766   7.745  0.0311 -0.1507 -0.2648
 5770TIP3    H138945   2.935   2.809   7.821  0.1424  0.2398 -0.5355
 5770TIP3    H238946   2.808   2.801   7.739  0.5454  1.0791 -1.2570
 5771TIP3   OH238947   4.477   0.047   0.402  0.5627  0.0585 -0.5155
 5771TIP3    H138948   4.512   0.031   0.490  1.7109  1.8968 -0.5866
 5771TIP3    H238949   4.469  -0.040   0.363  1.4851 -0.6893  0.8720
 5772TIP3   OH238950   5.473   0.962   7.235  0.0945 -0.4358  0.6586
 5772TIP3    H138951   5.434   0.931   7.317  1.1437  1.0430  1.7596
 5772TIP3    H238952   5.405   1.016   7.196 -0.4367 -1.2002  0.4909
 5773TIP3   OH238953   0.783   4.295   2.068  0.0478 -0.0467  0.0625
 5773TIP3    H138954   0.835   4.315   1.991 -1.5029  0.5895 -0.8612
 5773TIP3    H238955   0.774   4.200   2.067  0.9957 -0.1450  0.1268
 5774TIP3   OH238956   4.934   4.164   8.150 -0.0104 -0.0295  0.2238
 5774TIP3    H138957   4.921   4.070   8.152 -0.5072  0.0418  1.1117
 5774TIP3    H238958   5.002   4.180   8.216 -2.4276  0.5477  2.7708
 5775TIP3   OH238959   0.418   4.173   2.340 -0.1106  0.3846  0.0240
 5775TIP3    H138960   0.342   4.137   2.386 -0.6353  0.0625 -1.0572
 5775TIP3    H238961   0.468   4.218   2.408 -1.3212  0.6956  0.7435
 5776TIP3   OH238962   5.231   0.094   0.153  0.2815 -0.2422 -0.8016
 5776TIP3    H138963   5.238   0.035   0.078  0.2792 -0.7112 -0.4343
 5776TIP3    H238964   5.293   0.060   0.217 -1.6955 -1.5633  0.5542
 5777TIP3   OH238965   3.381   3.678   1.550 -0.1390  0.0474  0.1109
 5777TIP3    H138966   3.354   3.770   1.551  0.6777  0.3213  2.1902
 5777TIP3    H238967   3.334   3.638   1.624  0.6672 -0.8390  0.1667
 5778TIP3   OH238968   4.265   2.738   1.569  0.3925  0.4419 -0.4876
 5778TIP3    H138969   4.263   2.770   1.660 -1.6833 -2.2056  0.5171
 5778TIP3    H238970   4.338   2.676   1.568 -0.2390 -0.3226 -0.2822
 5779TIP3   OH238971   0.935   0.940   8.767 -0.1208 -0.4555 -0.7006
 5779TIP3    H138972   1.018   0.932   8.814  0.0149  1.2530 -0.5978
 5779TIP3    H238973   0.936   0.866   8.706  1.8562 -0.0399 -1.2548
 5780TIP3   OH238974   0.362   3.518   0.074  0.3651  0.3407 -0.1757
 5780TIP3    H138975   0.378   3.428   0.046 -1.5653 -0.4404  1.0096
 5780TIP3    H238976   0.340   3.564  -0.007  1.9591 -0.0870 -0.8767
 5781TIP3   OH238977   4.216   1.617   0.690  0.0809 -0.0573  0.0202
 5781TIP3    H138978   4.282   1.635   0.757 -0.2730  1.5978 -0.0218
 5781TIP3    H238979   4.198   1.703   0.651 -0.2004 -0.8888 -1.7466
 5782TIP3   OH238980   2.897   1.127   2.734  0.0358  0.2109  0.3728
 5782TIP3    H138981   2.928   1.038   2.749 -1.1127 -0.3509 -0.3683
 5782TIP3    H238982   2.967   1.184   2.766  0.0980 -0.9241  2.4090
 5783TIP3   OH238983   3.623   2.347   8.503  0.3385  0.1906  0.3708
 5783TIP3    H138984   3.567   2.328   8.578  0.8832  0.9726  0.9872
 5783TIP3    H238985   3.710   2.360   8.540  0.2857  2.3965 -0.1606
 5784TIP3   OH238986   3.133   3.673   7.763  0.2368  0.0918  0.3516
 5784TIP3    H138987   3.217   3.714   7.742 -0.5476  1.4281 -0.3300
 5784TIP3    H238988   3.084   3.741   7.809 -0.2776 -0.8496  1.2165
 5785TIP3   OH238989   6.262   3.626   1.556 -0.3408  0.0151 -0.3182
 5785TIP3    H138990   6.202   3.552   1.557  0.2423 -0.4697  0.4648
 5785TIP3    H238991   6.335   3.598   1.612  0.1879  0.9306 -0.5284
 5786TIP3   OH238992   4.997   3.735   7.419 -0.7195  0.3388 -0.0270
 5786TIP3    H138993   5.002   3.744   7.514 -2.8715 -2.0655  0.4171
 5786TIP3    H238994   5.025   3.645   7.402 -3.2809 -0.2987 -1.2850
 5787TIP3   OH238995   0.253   0.780   1.083  0.1296 -0.1873 -0.6152
 5787TIP3    H138996   0.207   0.808   1.005  0.6993 -0.0955 -0.9197
 5787TIP3    H238997   0.344   0.773   1.057  0.5986  1.3806  0.4276
 5788TIP3   OH238998   5.169   6.599   7.696 -0.0925  0.5596  0.0692
 5788TIP3    H138999   5.180   6.530   7.631 -1.1797  1.3319 -0.9880
 5788TIP3    H239000   5.235   6.580   7.764  0.6658 -0.5991 -0.9568
 5789TIP3   OH239001   4.127   4.280   0.633 -0.4736 -0.1636  0.1873
 5789TIP3    H139002   4.110   4.361   0.680  1.2333 -0.9113  2.2601
 5789TIP3    H239003   4.052   4.224   0.652 -0.2346 -0.1205  1.3054
 5790TIP3   OH239004   4.616   3.424   7.750 -0.2920 -0.4799 -0.4452
 5790TIP3    H139005   4.614   3.359   7.820 -2.8292  0.6045  0.6170
 5790TIP3    H239006   4.672   3.495   7.783 -1.4341  0.0015  0.5214
 5791TIP3   OH239007   2.110   4.064   7.569  0.3750 -0.1029  0.5615
 5791TIP3    H139008   2.146   4.077   7.482  0.0364  2.1065  0.6860
 5791TIP3    H239009   2.088   4.152   7.599 -0.5147 -0.9096  2.4534
 5792TIP3   OH239010   6.838   4.655   0.944 -0.4382 -0.0168  0.1216
 5792TIP3    H139011   6.823   4.750   0.939  0.1432  0.1081  0.6127
 5792TIP3    H239012   6.910   4.640   0.882 -0.4848 -0.1287  0.0958
 5793TIP3   OH239013   6.466   2.914   0.545  0.1817 -0.1345 -0.0701
 5793TIP3    H139014   6.541   2.944   0.493 -0.4497 -0.0281 -0.9315
 5793TIP3    H239015   6.406   2.988   0.547  0.1680 -0.1593  0.7691
 5794TIP3   OH239016   4.130   3.173   7.897 -0.0073  0.3828  0.2302
 5794TIP3    H139017   4.106   3.152   7.806 -0.2049  0.7654  0.1897
 5794TIP3    H239018   4.209   3.227   7.889  0.0047  0.3737  0.2851
 5795TIP3   OH239019   4.434   5.517   1.072 -0.3573  0.2671 -0.6628
 5795TIP3    H139020   4.435   5.533   1.166 -0.9177 -1.4143 -0.3215
 5795TIP3    H239021   4.341   5.523   1.048 -0.2000  0.8453 -1.1388
 5796TIP3   OH239022   5.934   4.138   8.077 -0.3914 -0.0731  0.6202
 5796TIP3    H139023   5.951   4.055   8.121 -1.0672 -0.4024  0.2804
 5796TIP3    H239024   5.875   4.185   8.136 -1.4120 -0.5736  0.0371
 5797TIP3   OH239025   5.918   5.361   8.682 -0.1226  0.7260  0.7794
 5797TIP3    H139026   5.869   5.442   8.669 -0.6219  0.4274  0.7828
 5797TIP3    H239027   5.914   5.345   8.776 -0.4757  0.4171  0.7133
 5798TIP3   OH239028   4.457   1.638   0.793 -0.0796  0.7733 -0.1667
 5798TIP3    H139029   4.408   1.561   0.824  0.0412  0.3149 -1.1019
 5798TIP3    H239030   4.543   1.630   0.835  0.0871  0.1443 -0.6143
 5799TIP3   OH239031   4.869   3.119   8.124 -0.5698  0.1041 -0.0009
 5799TIP3    H139032   4.898   3.112   8.215  1.7376  0.0337 -0.6816
 5799TIP3    H239033   4.889   3.034   8.085 -1.5873  0.1158 -0.6007
 5800TIP3   OH239034   1.936   2.762   1.571 -0.3099 -0.1778  0.3236
 5800TIP3    H139035   1.979   2.835   1.615  1.5741 -0.0205 -1.6186
 5800TIP3    H239036   1.992   2.687   1.590 -0.0917 -0.3181 -0.7981
 5801TIP3   OH239037   3.196   0.549   0.756  0.0923  0.1391  0.6322
 5801TIP3    H139038   3.234   0.463   0.738 -2.0135 -0.4084 -1.8441
 5801TIP3    H239039   3.267   0.611   0.740  0.8038 -0.9961 -0.8234
 5802TIP3   OH239040   4.218   4.029   1.460 -0.2931 -0.3694 -0.6487
 5802TIP3    H139041   4.245   4.063   1.374  0.5695  0.1236 -0.2010
 5802TIP3    H239042   4.167   3.951   1.440 -0.8150  0.1991 -1.6411
 5803TIP3   OH239043   1.870   3.971   7.699  0.2588 -0.3695  0.0313
 5803TIP3    H139044   1.938   3.980   7.632 -0.6951 -0.0207 -0.9212
 5803TIP3    H239045   1.811   4.045   7.683 -0.3666 -0.6820  0.8170
 5804TIP3   OH239046   5.455   6.512   1.817  0.3389  0.2487  1.0539
 5804TIP3    H139047   5.534   6.472   1.853  1.3413  0.9737 -0.2579
 5804TIP3    H239048   5.424   6.569   1.887  2.0453  1.3650  0.9690
 5805TIP3   OH239049   4.808   2.904   0.339  0.3708 -0.1621 -0.5053
 5805TIP3    H139050   4.778   2.928   0.426 -1.0072 -0.3465 -0.9081
 5805TIP3    H239051   4.880   2.964   0.320 -1.3721  2.0613 -0.5045
 5806TIP3   OH239052   0.812   0.986   0.795  0.1896  0.6295  0.0475
 5806TIP3    H139053   0.879   1.048   0.822  2.7554 -1.0137 -1.9863
 5806TIP3    H239054   0.766   1.030   0.723 -1.7074  2.1304  2.0465
 5807TIP3   OH239055   3.075   6.072   0.533  0.0679 -0.6730 -0.1684
 5807TIP3    H139056   3.099   5.980   0.518  1.5207 -0.3092 -0.1844
 5807TIP3    H239057   3.113   6.119   0.459  0.5594  0.1207  0.5763
 5808TIP3   OH239058   3.462   6.703   8.039 -0.1882  0.1511 -0.5667
 5808TIP3    H139059   3.384   6.650   8.026  0.5282 -1.4173  1.0802
 5808TIP3    H239060   3.447   6.782   7.986 -2.4083 -0.5452 -1.0763
 5809TIP3   OH239061   2.698   4.593   2.151  0.3888 -0.3300  0.0788
 5809TIP3    H139062   2.629   4.658   2.141  0.9166  0.2202 -0.0376
 5809TIP3    H239063   2.669   4.539   2.225  1.2193  1.7282  2.0316
 5810TIP3   OH239064   1.973   4.445   1.280  0.2912 -0.5889  0.6978
 5810TIP3    H139065   1.909   4.448   1.208 -0.5003  0.1549  1.4087
 5810TIP3    H239066   2.058   4.455   1.237  0.0421 -2.4768 -0.3649
 5811TIP3   OH239067   6.806   6.614   6.680 -0.0604  0.3176  0.4656
 5811TIP3    H139068   6.868   6.547   6.650 -0.1100  0.0621  0.9291
 5811TIP3    H239069   6.835   6.695   6.637 -0.5836 -0.1791 -0.8924
 5812TIP3   OH239070   2.487   1.589   8.797  0.3630 -0.1910 -0.1240
 5812TIP3    H139071   2.484   1.494   8.811  0.0057 -0.2843 -0.7946
 5812TIP3    H239072   2.442   1.626   8.873  1.4613 -0.4943  0.6988
 5813TIP3   OH239073   2.641   2.501   1.530  0.5718 -0.5775  0.1275
 5813TIP3    H139074   2.557   2.458   1.514  0.9946 -1.0641 -0.8690
 5813TIP3    H239075   2.641   2.518   1.624 -1.5421  1.3646 -0.1448
 5814TIP3   OH239076   3.420   0.119   8.004  0.0994  0.4928  0.0768
 5814TIP3    H139077   3.390   0.173   7.931  1.4968 -0.6227 -1.3953
 5814TIP3    H239078   3.509   0.149   8.022  1.2050 -1.7024 -1.2793
 5815TIP3   OH239079   5.166   0.402   8.388  0.1995  0.1146 -0.2662
 5815TIP3    H139080   5.186   0.378   8.478 -3.7633 -0.8680  0.5482
 5815TIP3    H239081   5.179   0.322   8.338 -0.3846 -0.1742  0.0271
 5816TIP3   OH239082   1.750   4.303   7.173  0.7818  0.1312 -0.1638
 5816TIP3    H139083   1.731   4.363   7.244  1.4630  0.1781 -0.0143
 5816TIP3    H239084   1.815   4.243   7.209  1.1454  0.1641 -0.7545
 5817TIP3   OH239085   3.318   6.084   6.849  0.2031  0.3493 -0.0772
 5817TIP3    H139086   3.286   6.013   6.904  1.8821  1.4637  2.5272
 5817TIP3    H239087   3.302   6.054   6.760 -0.0191 -2.8688  0.9123
 5818TIP3   OH239088   0.584   5.290   0.763 -0.1083  0.1730 -0.2991
 5818TIP3    H139089   0.580   5.296   0.667  1.5518  1.7088 -0.3098
 5818TIP3    H239090   0.622   5.373   0.791  2.4080 -1.4227  1.4549
 5819TIP3   OH239091   4.473   6.359   7.849  1.0953  0.7637 -0.6793
 5819TIP3    H139092   4.476   6.299   7.923 -0.5082 -0.0117 -1.1872
 5819TIP3    H239093   4.457   6.445   7.889 -0.7693  0.2174 -0.1227
 5820TIP3   OH239094   5.567   1.697   7.848 -0.1125  0.0997 -0.0253
 5820TIP3    H139095   5.625   1.621   7.840 -1.1657 -0.5382 -2.1693
 5820TIP3    H239096   5.515   1.679   7.927  0.0046 -1.1684 -0.2146
 5821TIP3   OH239097   5.198   2.264   1.292  0.2393 -0.2588 -0.0595
 5821TIP3    H139098   5.200   2.253   1.387 -0.7085 -0.9312 -0.1073
 5821TIP3    H239099   5.246   2.345   1.277  2.4058 -1.3224  0.7885
 5822TIP3   OH239100   5.426   2.004   8.339  0.0551 -0.0700  0.6456
 5822TIP3    H139101   5.411   1.914   8.367 -2.2842  0.5245  1.4821
 5822TIP3    H239102   5.495   2.036   8.397  1.7121 -1.5961 -0.3822
 5823TIP3   OH239103   0.451   5.394   7.115 -0.2198  0.6346 -0.2745
 5823TIP3    H139104   0.419   5.376   7.027 -2.4335  0.6713  0.4634
 5823TIP3    H239105   0.524   5.334   7.127  0.4196  0.9392 -2.2625
 5824TIP3   OH239106   2.146   6.841   1.028 -0.0314 -0.0349  0.3353
 5824TIP3    H139107   2.190   6.924   1.009 -1.8811  0.5184 -2.0166
 5824TIP3    H239108   2.157   6.829   1.123  1.0578  2.4290  0.5992
 5825TIP3   OH239109   6.076   5.023   0.830 -0.6815  0.7835 -0.6091
 5825TIP3    H139110   6.153   5.061   0.788  0.7930  1.7267  2.6242
 5825TIP3    H239111   6.014   5.095   0.838 -0.1745  1.1215  0.4659
 5826TIP3   OH239112   4.845   0.573   0.093  0.1772 -0.1833 -0.1416
 5826TIP3    H139113   4.798   0.490   0.078 -0.2495  0.0826 -0.2868
 5826TIP3    H239114   4.880   0.564   0.182  1.9842 -1.4135 -0.9044
 5827TIP3   OH239115   6.694   3.559   7.088  0.3026  0.3550 -0.4568
 5827TIP3    H139116   6.692   3.650   7.058  0.3366  0.6108  0.3023
 5827TIP3    H239117   6.606   3.543   7.122  0.3922  0.2006 -0.2975
 5828TIP3   OH239118   1.207   0.347   0.079  0.0139  0.0144 -0.1872
 5828TIP3    H139119   1.137   0.383   0.133 -0.7481  0.1180 -1.2158
 5828TIP3    H239120   1.278   0.411   0.086  0.4028 -0.5532  1.6289
 5829TIP3   OH239121   3.771   3.624   0.398 -0.2988 -0.1278 -0.1237
 5829TIP3    H139122   3.787   3.534   0.369  0.1767 -0.2452  0.4899
 5829TIP3    H239123   3.795   3.624   0.491 -2.2949  0.0901  0.4475
 5830TIP3   OH239124   2.250   4.889   1.714 -0.2196  0.4475 -0.2106
 5830TIP3    H139125   2.202   4.913   1.793 -1.2901 -2.5216  0.1565
 5830TIP3    H239126   2.194   4.918   1.642 -0.2530  1.2444  0.1203
 5831TIP3   OH239127   5.078   4.583   8.707  0.0114  0.5040  0.6271
 5831TIP3    H139128   5.006   4.529   8.674  0.2601 -0.1745  1.1704
 5831TIP3    H239129   5.153   4.523   8.712  0.0595  0.6505  2.1326
 5832TIP3   OH239130   2.763   2.870   1.674  0.0819 -0.1752  0.2163
 5832TIP3    H139131   2.772   2.953   1.626 -0.3916  1.0276  2.0899
 5832TIP3    H239132   2.839   2.819   1.647  1.8307  1.8927  0.8705
 5833TIP3   OH239133   0.455   3.826   7.880  0.8070  0.2145  0.6300
 5833TIP3    H139134   0.421   3.905   7.923 -1.0968  0.9024 -1.8914
 5833TIP3    H239135   0.477   3.854   7.792 -1.3756 -2.2985 -0.8550
 5834TIP3   OH239136   3.027   5.694   8.253 -0.2373 -0.2886  0.1474
 5834TIP3    H139137   2.948   5.739   8.284 -0.7066 -1.3407  0.5228
 5834TIP3    H239138   3.098   5.731   8.306 -0.8489 -1.1457  1.6211
 5835TIP3   OH239139   5.113   6.748   7.464 -0.1591  0.1135 -0.4187
 5835TIP3    H139140   5.134   6.703   7.546 -0.6196 -0.6470 -0.7050
 5835TIP3    H239141   5.022   6.777   7.475  0.4268  1.8732  0.1448
 5836TIP3   OH239142   6.703   5.938   6.749  0.0998  0.5040  0.0650
 5836TIP3    H139143   6.639   5.880   6.709 -0.3504  0.3112  1.0325
 5836TIP3    H239144   6.656   5.978   6.823  0.3500  2.1835 -0.6210
 5837TIP3   OH239145   6.388   4.487   2.362  0.3525 -0.0173  0.8286
 5837TIP3    H139146   6.295   4.505   2.371  0.3014  0.5360 -0.5603
 5837TIP3    H239147   6.395   4.391   2.363 -0.6424 -0.1980 -2.2433
 5838TIP3   OH239148   2.061   5.719   6.989  0.0141 -0.0917  0.1770
 5838TIP3    H139149   1.973   5.695   7.016 -0.4055 -0.3742 -1.3721
 5838TIP3    H239150   2.105   5.744   7.071 -1.4739  0.0256  0.9733
 5839TIP3   OH239151   0.756   1.739   1.362  0.0331 -0.1242  0.3310
 5839TIP3    H139152   0.682   1.699   1.407 -0.2431  0.6168  0.5474
 5839TIP3    H239153   0.810   1.665   1.334 -1.4153 -0.7342 -0.9450
 5840TIP3   OH239154   3.686   6.728   1.252  0.1943  0.1525  0.1252
 5840TIP3    H139155   3.638   6.649   1.277 -1.4697  1.2149  0.4066
 5840TIP3    H239156   3.657   6.795   1.314  1.6644  0.9872 -0.0374
 5841TIP3   OH239157   6.814   3.826   7.238 -0.0686  0.2506  0.7045
 5841TIP3    H139158   6.831   3.846   7.330  0.9385  0.9679  0.3864
 5841TIP3    H239159   6.729   3.867   7.220  0.1629  0.9139  1.0799
 5842TIP3   OH239160   3.668   5.615   7.031  0.2448  0.2204  0.0067
 5842TIP3    H139161   3.701   5.553   6.966  1.6181  1.1460 -0.2182
 5842TIP3    H239162   3.585   5.646   6.995 -1.4424 -2.7431  0.9450
 5843TIP3   OH239163   2.355   6.415   2.440  0.1715  0.0635 -0.0527
 5843TIP3    H139164   2.328   6.348   2.377 -0.0375 -0.3288  0.4510
 5843TIP3    H239165   2.275   6.463   2.459  0.3739  0.6471 -0.6247
 5844TIP3   OH239166   6.520   5.740   8.631  0.3861 -0.2582 -0.4340
 5844TIP3    H139167   6.531   5.686   8.709  0.7775  0.5792  0.1064
 5844TIP3    H239168   6.503   5.828   8.664  0.0599  0.0176 -1.2922
 5845TIP3   OH239169   2.817   0.444   0.738 -0.2662  0.1289  0.0967
 5845TIP3    H139170   2.867   0.363   0.730  0.2749  0.4667  0.0140
 5845TIP3    H239171   2.771   0.452   0.654 -0.6213 -0.2838  0.2479
 5846TIP3   OH239172   0.399   6.779   8.581 -0.0751  0.6222 -0.1606
 5846TIP3    H139173   0.392   6.837   8.505 -1.1675 -1.4343 -1.7353
 5846TIP3    H239174   0.355   6.826   8.652 -0.3885  1.9608 -1.2124
 5847TIP3   OH239175   0.252   1.784   8.070 -0.1786  0.4972  0.2201
 5847TIP3    H139176   0.278   1.875   8.085 -0.4803  0.4068  1.3387
 5847TIP3    H239177   0.297   1.734   8.137 -1.0139 -0.0139  0.4157
 5848TIP3   OH239178   3.645   3.071   2.739  0.4811 -0.4818 -0.1693
 5848TIP3    H139179   3.568   3.026   2.774  0.6266  0.1754  1.0809
 5848TIP3    H239180   3.627   3.164   2.754  0.7867 -0.2081 -1.4200
 5849TIP3   OH239181   1.022   1.633   7.438 -0.3039 -0.0657  0.1310
 5849TIP3    H139182   0.948   1.599   7.388  0.6086 -0.8555 -0.7211
 5849TIP3    H239183   1.002   1.726   7.449 -0.3878  0.2127 -1.9909
 5850TIP3   OH239184   5.648   3.315   6.479  0.2534 -0.3343  0.2613
 5850TIP3    H139185   5.695   3.380   6.533 -0.3379  0.7236 -0.4731
 5850TIP3    H239186   5.560   3.351   6.471  0.2141 -0.7087 -1.0366
 5851TIP3   OH239187   1.891   0.357   0.733  0.0662  0.2117 -0.0647
 5851TIP3    H139188   1.802   0.325   0.749 -0.3500  1.2870 -0.1937
 5851TIP3    H239189   1.898   0.359   0.637  1.0315 -2.0071 -0.1013
 5852TIP3   OH239190   1.623   3.555   6.920  0.3128 -0.0880  0.2970
 5852TIP3    H139191   1.529   3.560   6.903  0.4787  0.9555 -0.3708
 5852TIP3    H239192   1.655   3.644   6.905  1.2785 -0.2461  1.3260
 5853TIP3   OH239193   6.751   1.446   7.698 -0.1872  0.1249 -0.6837
 5853TIP3    H139194   6.754   1.420   7.790 -0.4257  0.1187 -0.6767
 5853TIP3    H239195   6.733   1.540   7.700  0.5376  0.2756 -0.7103
 5854TIP3   OH239196   5.900   0.013   6.740  0.4569  0.1345 -0.1924
 5854TIP3    H139197   5.891  -0.000   6.645 -0.1050  1.1811 -0.3058
 5854TIP3    H239198   5.990   0.043   6.752  0.0405  1.6701 -0.6357
 5855TIP3   OH239199   1.057   0.591   7.936  0.0001 -0.0531 -0.7910
 5855TIP3    H139200   1.120   0.618   8.004 -1.2482  1.9835 -0.3472
 5855TIP3    H239201   1.109   0.539   7.875  1.6227 -0.2700  0.6698
 5856TIP3   OH239202   1.182   1.046   1.177 -0.4867  0.4829 -0.0497
 5856TIP3    H139203   1.230   1.096   1.243 -0.3464  1.5656 -0.9496
 5856TIP3    H239204   1.247   1.030   1.108 -1.2016  1.3544 -0.9534
 5857TIP3   OH239205   5.021   0.063   0.870 -0.0527  0.1632  0.3453
 5857TIP3    H139206   4.974   0.112   0.937 -0.1626  0.1507  0.2767
 5857TIP3    H239207   4.963   0.064   0.794  0.9056  1.8957 -0.4198
 5858TIP3   OH239208   6.269   0.491   2.553  0.0033  0.2369 -0.2939
 5858TIP3    H139209   6.222   0.560   2.505 -0.1158 -0.0480 -0.5968
 5858TIP3    H239210   6.329   0.538   2.610 -0.3112  0.5982 -0.2567
 5859TIP3   OH239211   3.709   6.615   8.023  0.7537  0.2640 -0.2021
 5859TIP3    H139212   3.623   6.647   8.050  0.4953  0.2099 -0.9598
 5859TIP3    H239213   3.696   6.580   7.935  1.0911 -1.6484  0.4532
 5860TIP3   OH239214   5.157   2.609   8.472  0.9281  0.0271 -0.2574
 5860TIP3    H139215   5.173   2.596   8.378 -0.3501 -2.1371 -0.2551
 5860TIP3    H239216   5.237   2.580   8.514  0.1410 -2.8619 -0.5676
 5861TIP3   OH239217   3.025   1.500   7.653  0.0652 -0.4703 -0.0718
 5861TIP3    H139218   2.949   1.509   7.711 -0.8560  1.7119 -1.5056
 5861TIP3    H239219   2.990   1.459   7.574  0.6386 -0.5181 -0.3039
 5862TIP3   OH239220   4.927   6.196   8.725 -0.2547  0.3757 -0.3381
 5862TIP3    H139221   4.928   6.104   8.750  0.1856  0.5598  0.3461
 5862TIP3    H239222   5.015   6.227   8.744 -0.6974  1.2022  0.4730
 5863TIP3   OH239223   2.193   0.924   8.576  0.6962 -0.4149 -0.3200
 5863TIP3    H139224   2.231   1.009   8.595  1.4958 -0.6238 -0.9200
 5863TIP3    H239225   2.154   0.895   8.658  0.7921  0.3377 -0.0068
 5864TIP3   OH239226   2.163   2.246   8.573 -1.1097 -0.0537 -0.2719
 5864TIP3    H139227   2.189   2.331   8.537 -1.3932 -0.5628 -1.7348
 5864TIP3    H239228   2.245   2.199   8.587 -1.0050  0.1146 -0.3273
 5865TIP3   OH239229   6.545   3.255   8.234 -0.2645  0.1723 -0.7129
 5865TIP3    H139230   6.567   3.224   8.322  0.4032  1.6663 -0.3313
 5865TIP3    H239231   6.585   3.341   8.228 -0.4687  0.1835 -2.4229
 5866TIP3   OH239232   2.715   4.375   1.986 -0.9802 -0.2248 -0.1790
 5866TIP3    H139233   2.749   4.443   2.045 -0.2749  0.0204 -0.8599
 5866TIP3    H239234   2.686   4.423   1.909  0.5517 -0.7798 -1.1345
 5867TIP3   OH239235   2.878   1.035   8.099 -0.0735  0.5247  0.3825
 5867TIP3    H139236   2.883   1.130   8.109 -0.6641  0.4103  2.1149
 5867TIP3    H239237   2.942   1.002   8.162  0.4728 -0.2360 -0.5495
 5868TIP3   OH239238   1.160   2.550   1.538  0.2740  0.1034  0.3638
 5868TIP3    H139239   1.131   2.541   1.628 -1.4524  1.4506 -0.0148
 5868TIP3    H239240   1.224   2.621   1.540  0.2903  0.0834  0.5413
 5869TIP3   OH239241   6.017   1.526   1.610 -0.2794 -0.1629  0.1579
 5869TIP3    H139242   6.065   1.608   1.617  0.4004 -0.4124 -1.2102
 5869TIP3    H239243   5.966   1.521   1.691  1.7616  0.2619  1.5624
 5870TIP3   OH239244   4.569   0.232   0.233  0.3107 -0.2043  0.1391
 5870TIP3    H139245   4.505   0.271   0.294 -1.2185  0.4765 -1.7849
 5870TIP3    H239246   4.556   0.138   0.241  1.9195 -0.3115  2.6319
 5871TIP3   OH239247   4.550   3.732   6.422  0.3038 -0.0154  0.3230
 5871TIP3    H139248   4.529   3.640   6.440  0.2394 -0.0127  0.2632
 5871TIP3    H239249   4.644   3.732   6.407  0.3053 -0.0709  0.3301
 5872TIP3   OH239250   6.071   3.842   8.050 -0.1109  0.1949  0.0767
 5872TIP3    H139251   6.070   3.806   7.961  0.7479  0.2518  0.0375
 5872TIP3    H239252   6.010   3.786   8.098  1.9699 -2.0956  0.2830
 5873TIP3   OH239253   4.909   4.196   8.716  0.3998  0.8151  0.3795
 5873TIP3    H139254   4.840   4.131   8.732  2.4604 -1.5577  0.1617
 5873TIP3    H239255   4.900   4.218   8.624  1.2138 -1.1392 -0.2086
 5874TIP3   OH239256   3.431   0.754   8.114 -0.1798  0.5132 -0.1864
 5874TIP3    H139257   3.418   0.703   8.194 -1.9284  0.4349 -0.4766
 5874TIP3    H239258   3.505   0.711   8.070 -1.6834 -1.9842 -0.5185
 5875TIP3   OH239259   4.230   2.051   8.536  0.0383 -0.2386  0.1488
 5875TIP3    H139260   4.269   1.964   8.526 -0.3450 -0.5466  1.2171
 5875TIP3    H239261   4.300   2.111   8.511  0.6631 -0.8323  0.4335
 5876TIP3   OH239262   5.713   6.269   8.411 -0.5422 -0.5549  0.3669
 5876TIP3    H139263   5.744   6.223   8.489 -0.1455 -0.7999  0.0704
 5876TIP3    H239264   5.767   6.348   8.408  0.5187 -1.2786 -0.4910
 5877TIP3   OH239265   0.516   2.804   2.288 -0.2513  0.1814 -0.5177
 5877TIP3    H139266   0.593   2.766   2.331  0.7435  0.2102 -2.2000
 5877TIP3    H239267   0.535   2.898   2.282 -1.5974  0.6478  1.3532
 5878TIP3   OH239268   3.878   4.939   6.813  0.3768  0.2366 -0.4595
 5878TIP3    H139269   3.863   4.845   6.804  1.9874 -0.0946 -0.0773
 5878TIP3    H239270   3.796   4.980   6.785 -0.6367 -1.2981  0.1185
 5879TIP3   OH239271   6.394   6.042   7.311  0.0479 -0.4323 -0.3664
 5879TIP3    H139272   6.395   5.946   7.313 -2.6303 -0.6317 -2.7287
 5879TIP3    H239273   6.302   6.065   7.298  1.0172  2.2364 -4.1389
 5880TIP3   OH239274   3.934   6.655   0.342  0.0494 -0.0569 -0.5945
 5880TIP3    H139275   4.018   6.624   0.376  1.2045  0.6201 -2.6591
 5880TIP3    H239276   3.912   6.730   0.396  1.0684  0.1016 -0.3920
 5881TIP3   OH239277   2.058   3.791   0.322  0.8355 -0.0504  0.5274
 5881TIP3    H139278   2.059   3.804   0.227  0.0955 -0.6334  0.4325
 5881TIP3    H239279   2.148   3.766   0.344  1.3390  1.3460  0.1744
 5882TIP3   OH239280   5.820   3.100   6.515 -0.3102  0.2114  0.0737
 5882TIP3    H139281   5.789   3.040   6.583  1.4427  0.7054  1.4046
 5882TIP3    H239282   5.764   3.177   6.523 -0.7966 -0.1569  0.2340
 5883TIP3   OH239283   2.613   0.600   8.455 -0.4603  0.2689 -0.4569
 5883TIP3    H139284   2.539   0.546   8.479 -0.3925  0.0368 -0.7662
 5883TIP3    H239285   2.653   0.556   8.380  1.0519 -0.5836  0.7831
 5884TIP3   OH239286   4.663   1.501   6.886 -0.3452 -0.1502 -0.4739
 5884TIP3    H139287   4.727   1.567   6.859 -0.2399 -0.7953 -1.8715
 5884TIP3    H239288   4.713   1.419   6.885 -0.1981 -0.2062  2.1962
 5885TIP3   OH239289   6.460   2.088   2.290 -0.0911 -0.0784 -0.2092
 5885TIP3    H139290   6.485   2.116   2.202  0.5947 -0.4185 -0.1340
 5885TIP3    H239291   6.489   2.160   2.347  0.7665 -0.4836 -0.1194
 5886TIP3   OH239292   6.642   4.664   0.636 -0.1867 -0.0599 -0.1796
 5886TIP3    H139293   6.682   4.577   0.638 -1.0018 -0.4569  1.5092
 5886TIP3    H239294   6.698   4.716   0.580  0.5567 -1.5739 -0.8906
 5887TIP3   OH239295   3.519   3.266   0.730  0.2880  0.1892 -0.3447
 5887TIP3    H139296   3.512   3.171   0.724  0.1032  0.0622  1.2482
 5887TIP3    H239297   3.602   3.281   0.774  0.7164  0.8192 -1.3354
 5888TIP3   OH239298   1.741   3.602   8.218  0.4751  0.0132  0.4203
 5888TIP3    H139299   1.684   3.525   8.215  1.0555 -0.3887 -1.2213
 5888TIP3    H239300   1.826   3.568   8.245  0.5864  0.1709  0.2715
 5889TIP3   OH239301   1.091   2.981   1.055  0.0986  0.2464 -0.3980
 5889TIP3    H139302   1.015   2.931   1.024  0.6047 -0.2661 -0.8267
 5889TIP3    H239303   1.101   2.955   1.147 -0.1419  0.1865 -0.3886
 5890TIP3   OH239304   6.019   3.181   0.687  1.0035 -0.1973  0.0676
 5890TIP3    H139305   6.032   3.107   0.628 -0.6318 -0.3772 -0.1363
 5890TIP3    H239306   6.002   3.255   0.629  0.4876 -0.1384  0.2866
 5891TIP3   OH239307   3.467   5.142   6.928 -0.2435 -0.5467 -0.4471
 5891TIP3    H139308   3.506   5.104   7.007 -1.8401  1.6295  1.5307
 5891TIP3    H239309   3.388   5.091   6.914 -0.7549  0.0122  0.3228
 5892TIP3   OH239310   2.109   2.721   8.439 -0.2747 -0.1803  0.9073
 5892TIP3    H139311   2.123   2.628   8.419  0.3542 -0.1895  1.3546
 5892TIP3    H239312   2.197   2.757   8.449 -0.5283  0.3230  1.3871
 5893TIP3   OH239313   0.414   5.167   0.428  0.5052 -0.2156 -0.0922
 5893TIP3    H139314   0.449   5.253   0.451 -0.4503 -0.1805  1.3947
 5893TIP3    H239315   0.357   5.184   0.353  0.8147  0.3425 -0.2064
 5894TIP3   OH239316   6.144   6.110   7.206 -0.2353 -0.2955  0.4132
 5894TIP3    H139317   6.066   6.057   7.225 -0.8047 -0.5456 -2.2754
 5894TIP3    H239318   6.111   6.198   7.192  0.1299 -0.1684  0.3417
 5895TIP3   OH239319   2.236   2.209   1.829 -0.3862  0.1424  0.0753
 5895TIP3    H139320   2.217   2.116   1.825 -0.4119  0.1390  0.2714
 5895TIP3    H239321   2.233   2.231   1.922 -0.2917  0.3202  0.0383
 5896TIP3   OH239322   0.681   0.826   1.655  0.2397  0.0454 -0.2247
 5896TIP3    H139323   0.654   0.861   1.570 -3.0727 -0.3302  0.5214
 5896TIP3    H239324   0.637   0.883   1.719  2.1608 -0.0522  1.2666
 5897TIP3   OH239325   0.277   4.109   0.025  0.0849  0.0575  0.4434
 5897TIP3    H139326   0.311   4.031  -0.019 -1.1688 -0.7361  0.8436
 5897TIP3    H239327   0.280   4.177  -0.042 -1.9292 -1.1681 -0.9876
 5898TIP3   OH239328   0.214   3.664   1.609  0.1662  0.1778  0.4438
 5898TIP3    H139329   0.284   3.600   1.597  0.1839  0.3031 -0.1423
 5898TIP3    H239330   0.140   3.627   1.561  0.4676  1.0600 -0.7257
 5899TIP3   OH239331   0.790   5.531   0.042 -0.0525 -0.4162 -0.1771
 5899TIP3    H139332   0.731   5.456   0.050  1.7957 -2.0822 -1.2665
 5899TIP3    H239333   0.784   5.556  -0.050 -1.0841  1.2234  0.2881
 5900TIP3   OH239334   0.528   0.628   8.271  0.1830 -0.4923 -0.1516
 5900TIP3    H139335   0.621   0.622   8.248  0.3827  1.7250 -0.1291
 5900TIP3    H239336   0.520   0.713   8.315 -1.7869 -0.8281  0.2000
 5901TIP3   OH239337   0.889   5.733   0.218  0.1504  0.2555  0.0432
 5901TIP3    H139338   0.908   5.806   0.158  0.1832 -1.2136 -1.8145
 5901TIP3    H239339   0.871   5.659   0.161  0.1452 -1.2303  1.8795
 5902TIP3   OH239340   6.524   3.554   6.756  0.0286 -0.7374 -0.2235
 5902TIP3    H139341   6.469   3.629   6.735 -0.2837 -1.1536 -0.9252
 5902TIP3    H239342   6.504   3.535   6.848  1.0720  0.8232  0.3605
 5903TIP3   OH239343   5.953   1.604   2.141 -0.0485 -0.3656  0.0611
 5903TIP3    H139344   5.991   1.526   2.100  1.2946 -0.1861  0.9029
 5903TIP3    H239345   5.881   1.571   2.195 -0.1143 -0.8986 -0.3418
 5904TIP3   OH239346   3.994   3.706   1.032 -0.1194 -0.2105 -0.5385
 5904TIP3    H139347   4.076   3.661   1.014 -0.9261 -1.7308 -0.5893
 5904TIP3    H239348   3.984   3.768   0.959  1.1669  0.3079 -0.2936
 5905TIP3   OH239349   4.275   4.045   8.017 -0.2914 -0.2585 -0.3145
 5905TIP3    H139350   4.200   4.094   8.048 -1.8374 -2.0320 -1.0373
 5905TIP3    H239351   4.324   4.023   8.096 -1.2266 -0.1497  0.3139
 5906TIP3   OH239352   3.352   0.320   0.920  0.1884 -0.4503  0.4367
 5906TIP3    H139353   3.262   0.353   0.918 -0.4379 -2.1021  0.5215
 5906TIP3    H239354   3.376   0.322   1.012  0.1216 -0.3470  0.4528
 5907TIP3   OH239355   4.762   1.689   0.694 -0.8240  0.1115  0.1299
 5907TIP3    H139356   4.723   1.623   0.638  0.8676 -1.5902  0.8335
 5907TIP3    H239357   4.748   1.657   0.783  2.4938 -0.9343  0.4223
 5908TIP3   OH239358   3.237   4.478   2.432  0.1429  0.2493 -0.4105
 5908TIP3    H139359   3.294   4.430   2.373  1.1157 -0.4901  1.0643
 5908TIP3    H239360   3.291   4.497   2.508 -1.5322 -0.4257  1.0349
 5909TIP3   OH239361   5.731   5.155   7.990  0.0296 -0.0717 -0.1007
 5909TIP3    H139362   5.684   5.143   8.073  1.2688 -0.8903  0.5264
 5909TIP3    H239363   5.698   5.238   7.955 -1.0789 -0.0941  0.8259
 5910TIP3   OH239364   5.111   4.990   0.752 -0.2189 -0.8318 -0.1553
 5910TIP3    H139365   5.029   4.941   0.753 -1.3889  0.9997 -0.9361
 5910TIP3    H239366   5.088   5.077   0.785  1.6073 -0.5290  0.4533
 5911TIP3   OH239367   6.088   2.117   1.284  0.6954 -0.6402 -0.1935
 5911TIP3    H139368   6.163   2.086   1.234  0.2976 -0.4338 -0.9397
 5911TIP3    H239369   6.103   2.085   1.373  1.0187 -1.7138 -0.6149
 5912TIP3   OH239370   0.509   5.926   8.382 -0.2233  0.5120  0.1410
 5912TIP3    H139371   0.557   5.945   8.300 -0.0192  0.3258  0.2169
 5912TIP3    H239372   0.426   5.972   8.371 -0.0681  0.7589 -0.0360
 5913TIP3   OH239373   6.451   5.993   0.699 -0.3269 -0.4011  0.5253
 5913TIP3    H139374   6.514   5.937   0.654 -1.1488 -0.2336 -0.8728
 5913TIP3    H239375   6.445   5.955   0.787  1.4123 -0.6418  0.5725
 5914TIP3   OH239376   4.802   0.382   8.561 -0.0719 -0.1946  0.9185
 5914TIP3    H139377   4.749   0.440   8.615 -2.2948 -2.0269  0.8318
 5914TIP3    H239378   4.750   0.369   8.481  1.7071 -0.0491 -0.3351
 5915TIP3   OH239379   6.639   2.874   2.381 -0.2530  0.8028 -0.4937
 5915TIP3    H139380   6.577   2.837   2.318 -0.4267  0.2470 -0.0075
 5915TIP3    H239381   6.700   2.925   2.328  0.1048 -0.3401 -1.2055
 5916TIP3   OH239382   6.593   4.386   7.134 -0.1792  0.1795 -1.2298
 5916TIP3    H139383   6.579   4.311   7.076  1.1591  0.2608 -1.6942
 5916TIP3    H239384   6.685   4.409   7.121  0.4026 -0.2410  1.4480
 5917TIP3   OH239385   4.716   4.103   7.318  0.3052 -0.2256  0.8353
 5917TIP3    H139386   4.731   4.060   7.402  0.8293 -1.5297  0.1002
 5917TIP3    H239387   4.764   4.049   7.255 -2.8120 -1.2867 -0.8180
 5918TIP3   OH239388   0.939   4.813   2.008 -0.0009  0.4870  0.3903
 5918TIP3    H139389   0.860   4.829   1.958  0.8259 -0.4286 -1.2862
 5918TIP3    H239390   0.971   4.900   2.031 -2.0446  0.8753  2.1192
 5919TIP3   OH239391   1.301   0.095   0.106 -0.3684 -0.0277 -0.3067
 5919TIP3    H139392   1.257   0.174   0.076 -0.5202 -0.0320 -0.0968
 5919TIP3    H239393   1.353   0.123   0.181  0.0055 -0.0185 -0.5668
 5920TIP3   OH239394   2.870   0.553   6.312 -0.1325 -0.1599 -0.4092
 5920TIP3    H139395   2.887   0.629   6.368 -0.9184  0.7662 -1.3854
 5920TIP3    H239396   2.775   0.550   6.304 -0.0314  0.6068 -2.8156
 5921TIP3   OH239397   5.214   2.595   1.542  0.3950  0.2632 -0.3751
 5921TIP3    H139398   5.255   2.508   1.541 -2.5261 -1.2673  0.2501
 5921TIP3    H239399   5.187   2.607   1.634 -0.8212  0.9960 -0.8021
 5922TIP3   OH239400   0.157   2.660   1.269  0.1599 -0.1123  0.4413
 5922TIP3    H139401   0.227   2.599   1.289 -0.4753 -0.3302  2.0992
 5922TIP3    H239402   0.096   2.609   1.215  0.1791 -0.6008  0.8775
 5923TIP3   OH239403   4.892   4.432   1.078  0.9333 -0.1550  0.2003
 5923TIP3    H139404   4.987   4.441   1.086  0.9509 -0.3196  0.1889
 5923TIP3    H239405   4.876   4.339   1.098  0.6636  0.1161  1.3096
 5924TIP3   OH239406   3.019   1.651   8.738  0.1368 -0.2940 -0.2326
 5924TIP3    H139407   3.002   1.638   8.644 -1.2738  0.9098 -0.1844
 5924TIP3    H239408   3.065   1.735   8.742  0.2247 -0.3611  0.1494
 5925TIP3   OH239409   1.890   6.221   0.301  0.0877 -0.3252 -0.1113
 5925TIP3    H139410   1.828   6.149   0.307 -1.5870  1.0883  0.5354
 5925TIP3    H239411   1.899   6.237   0.207 -0.8974 -0.2833 -0.2075
 5926TIP3   OH239412   3.527   6.319   8.793  0.1553 -0.4531  0.4810
 5926TIP3    H139413   3.601   6.367   8.756  0.1683 -0.8513 -0.0252
 5926TIP3    H239414   3.492   6.269   8.719 -0.2523 -0.7197  0.8517
 5927TIP3   OH239415   6.063   5.804   8.730 -0.1772 -0.1512  0.7992
 5927TIP3    H139416   5.984   5.807   8.784 -1.0381 -1.1613 -0.3449
 5927TIP3    H239417   6.124   5.863   8.774 -0.3859 -1.7925  3.5768
 5928TIP3   OH239418   6.580   2.392   2.071 -0.3505 -0.2619 -0.0411
 5928TIP3    H139419   6.572   2.375   1.977 -0.7855 -1.7572  0.2427
 5928TIP3    H239420   6.668   2.428   2.081  0.2685 -1.4656 -0.8564
 5929TIP3   OH239421   1.661   5.707   0.702  0.1690 -0.1315  0.1472
 5929TIP3    H139422   1.676   5.742   0.789 -0.1487  1.5761 -0.4429
 5929TIP3    H239423   1.567   5.688   0.700  0.0289  0.5588 -0.0603
 5930TIP3   OH239424   4.285   3.920   8.702 -0.4436 -0.8670 -0.0228
 5930TIP3    H139425   4.236   3.997   8.673  0.9170  0.6805  1.5514
 5930TIP3    H239426   4.268   3.915   8.796  1.2822 -1.1064  0.3117
 5931TIP3   OH239427   3.838   0.077   7.924 -0.2667  0.0079 -0.1329
 5931TIP3    H139428   3.892   0.072   8.003  0.0107  0.5525 -0.2849
 5931TIP3    H239429   3.880   0.017   7.863  1.2562  1.7668 -0.8903
 5932TIP3   OH239430   1.798   2.934   0.589 -0.2136 -0.4187  0.4125
 5932TIP3    H139431   1.732   2.989   0.631 -0.1027 -0.5198  0.7258
 5932TIP3    H239432   1.748   2.864   0.547 -0.4584  0.6196 -1.1099
 5933TIP3   OH239433   3.111   6.055   7.818 -0.1339  0.4490  0.4689
 5933TIP3    H139434   3.129   6.069   7.725  0.3461  0.1028  0.5033
 5933TIP3    H239435   3.016   6.053   7.824 -0.2039  2.1901  0.2516
 5934TIP3   OH239436   2.202   0.531   0.154 -0.1118 -0.4559  0.3075
 5934TIP3    H139437   2.191   0.619   0.190  2.2474  0.2075 -0.4293
 5934TIP3    H239438   2.122   0.516   0.103 -1.8525  0.0464  2.7392
 5935TIP3   OH239439   4.311   1.124   7.423 -0.0986 -0.1379  0.7992
 5935TIP3    H139440   4.235   1.144   7.367 -0.2219  0.1823  1.0769
 5935TIP3    H239441   4.281   1.055   7.481  0.6838 -2.0741 -0.9487
 5936TIP3   OH239442   1.665   4.170   0.366  0.2622 -0.2704  0.0043
 5936TIP3    H139443   1.732   4.216   0.316 -0.4723  0.4214 -0.3612
 5936TIP3    H239444   1.669   4.080   0.335 -1.3048  0.4561 -2.5877
 5937TIP3   OH239445   5.322   4.223   7.823  0.0136 -0.7595  0.2454
 5937TIP3    H139446   5.313   4.288   7.892  0.0654  0.0231 -0.4713
 5937TIP3    H239447   5.267   4.150   7.852 -2.4421  0.7540 -0.2632
 5938TIP3   OH239448   3.545   1.335   1.146  0.3843 -0.3283 -0.3435
 5938TIP3    H139449   3.570   1.247   1.174 -1.1540 -0.9716 -0.8548
 5938TIP3    H239450   3.449   1.334   1.146  0.3284  1.4102 -0.1949
 5939TIP3   OH239451   5.622   1.344   6.802 -0.2434  0.4532 -0.0025
 5939TIP3    H139452   5.686   1.390   6.857  1.1253 -0.7948 -0.5037
 5939TIP3    H239453   5.597   1.267   6.853  0.0880 -0.0559 -0.6028
 5940TIP3   OH239454   0.037   3.540   0.921 -0.1996  0.0110 -1.2471
 5940TIP3    H139455   0.021   3.488   1.000  3.3740 -0.5373 -0.7044
 5940TIP3    H239456   0.016   3.629   0.947 -0.8382 -0.4026 -0.2713
 5941TIP3   OH239457   1.912   2.461   7.865 -0.2489 -0.1714 -0.6403
 5941TIP3    H139458   1.852   2.432   7.796 -0.5066 -3.4072  0.7688
 5941TIP3    H239459   1.858   2.463   7.944  1.2344 -2.4527  0.5265
 5942TIP3   OH239460   5.700   0.667   2.156  0.0644  0.1622 -0.2618
 5942TIP3    H139461   5.780   0.664   2.208  0.2302 -0.1573 -0.5307
 5942TIP3    H239462   5.646   0.733   2.199  0.5075  0.4445 -0.1359
 5943TIP3   OH239463   5.013   2.700   0.268 -0.0369 -0.4087  0.4348
 5943TIP3    H139464   5.038   2.644   0.194 -0.7713 -2.0371  1.3596
 5943TIP3    H239465   4.951   2.762   0.231  0.5712 -0.3852 -0.5718
 5944TIP3   OH239466   6.766   5.126   0.302 -0.5124  0.0102  0.0685
 5944TIP3    H139467   6.696   5.093   0.247  0.6504 -0.0527 -1.4395
 5944TIP3    H239468   6.733   5.209   0.337 -0.8144  0.7036 -1.7693
 5945TIP3   OH239469   5.210   1.454   7.667 -0.2734  0.3814  0.6697
 5945TIP3    H139470   5.303   1.451   7.643 -0.3333  0.9761  0.3322
 5945TIP3    H239471   5.209   1.428   7.759  0.2500  0.5304  0.7235
 5946TIP3   OH239472   2.662   6.417   8.063  0.4957  0.1862 -0.7173
 5946TIP3    H139473   2.742   6.395   8.017  0.8225 -2.2176  0.8315
 5946TIP3    H239474   2.605   6.341   8.052 -0.3894  0.5923  0.6812
 5947TIP3   OH239475   1.225   4.000   1.163  0.0407 -0.1219 -0.0946
 5947TIP3    H139476   1.175   3.919   1.176  0.9527 -0.8734 -1.0909
 5947TIP3    H239477   1.280   3.983   1.087  0.3588  1.4032 -0.2485
 5948TIP3   OH239478   3.821   2.112   6.660 -0.2320  0.8546  0.2239
 5948TIP3    H139479   3.796   2.037   6.715  1.6143  0.3587  0.4481
 5948TIP3    H239480   3.761   2.182   6.687 -1.2182 -0.1850  0.8441
 5949TIP3   OH239481   3.625   6.800   0.029 -0.7809 -0.0684 -0.8511
 5949TIP3    H139482   3.720   6.803   0.015 -0.8466 -2.0256 -2.1441
 5949TIP3    H239483   3.607   6.874   0.087  1.4383  0.7277 -1.0769
 5950TIP3   OH239484   3.555   4.714   0.692  0.1582 -0.3876 -0.1649
 5950TIP3    H139485   3.509   4.646   0.641 -0.6768 -0.7642  1.0514
 5950TIP3    H239486   3.582   4.669   0.772 -1.8142  1.0443  1.3970
 5951TIP3   OH239487   4.235   4.258   7.066 -0.2170 -0.1395  0.2062
 5951TIP3    H139488   4.237   4.204   6.986 -0.0002  1.2696 -0.7724
 5951TIP3    H239489   4.174   4.329   7.045 -2.8553 -1.5200  2.5444
 5952TIP3   OH239490   4.202   6.547   1.215  0.2795 -0.0939 -0.6683
 5952TIP3    H139491   4.270   6.548   1.282  1.2851 -2.0497 -1.5940
 5952TIP3    H239492   4.121   6.534   1.264  1.0709 -2.3642  0.1708
 5953TIP3   OH239493   4.370   6.569   1.433  0.0519 -0.9258 -0.0955
 5953TIP3    H139494   4.442   6.510   1.454 -1.3433 -2.1844  1.4456
 5953TIP3    H239495   4.294   6.529   1.474 -0.7394  2.7383  2.5194
 5954TIP3   OH239496   5.655   0.877   2.543 -0.0526 -0.1073  0.3783
 5954TIP3    H139497   5.622   0.897   2.631  0.2912  0.0958  0.4606
 5954TIP3    H239498   5.631   0.785   2.529  0.2733 -0.2721  0.8569
 5955TIP3   OH239499   6.444   3.821   7.425 -0.5072 -0.5452  0.1148
 5955TIP3    H139500   6.378   3.877   7.465  0.8366  1.8470 -0.8082
 5955TIP3    H239501   6.488   3.779   7.498 -1.0877  0.1772  0.8969
 5956TIP3   OH239502   1.929   2.257   0.053  0.1022  0.5555 -0.1202
 5956TIP3    H139503   1.988   2.332   0.063  1.8246 -0.7599  0.1178
 5956TIP3    H239504   1.986   2.180   0.063 -1.2957 -0.8137 -1.9476
 5957TIP3   OH239505   3.369   3.913   8.739  0.6050  0.5720 -0.0138
 5957TIP3    H139506   3.431   3.934   8.809  0.0272  0.5201  0.5256
 5957TIP3    H239507   3.361   3.994   8.689 -0.4439  1.2167  1.1440
 5958TIP3   OH239508   6.399   3.856   2.552  0.1287 -0.1677  0.2326
 5958TIP3    H139509   6.344   3.903   2.489  1.3704 -0.1765 -0.8909
 5958TIP3    H239510   6.342   3.786   2.585 -1.3098  1.2605  0.9352
 5959TIP3   OH239511   2.688   4.697   7.703 -0.0412  0.1252 -0.1762
 5959TIP3    H139512   2.703   4.635   7.632  1.6317 -0.1906  0.3929
 5959TIP3    H239513   2.706   4.646   7.783  0.0718  0.9887  0.3632
 5960TIP3   OH239514   3.585   4.220   7.321  0.4676  0.1845  0.8263
 5960TIP3    H139515   3.587   4.308   7.357 -0.6038  0.8534 -0.6889
 5960TIP3    H239516   3.625   4.227   7.235  1.5058 -1.0832  1.1534
 5961TIP3   OH239517   3.905   6.514   1.972  1.0470  0.4367 -0.5070
 5961TIP3    H139518   3.949   6.570   1.909  0.7505 -0.3086 -1.4009
 5961TIP3    H239519   3.830   6.566   2.003  0.3580  0.2766 -1.8656
 5962TIP3   OH239520   0.290   2.874   8.619 -0.1137  0.2494 -0.1805
 5962TIP3    H139521   0.367   2.918   8.583  0.0462  0.9574  0.9775
 5962TIP3    H239522   0.324   2.796   8.662 -0.0367  0.5376  0.2907
 5963TIP3   OH239523   3.464   3.994   2.158 -0.0899  0.5244  0.3191
 5963TIP3    H139524   3.417   3.962   2.081 -2.7930 -1.1837  2.5224
 5963TIP3    H239525   3.521   3.921   2.184 -0.6526  0.3368  1.0456
 5964TIP3   OH239526   3.086   6.365   1.986 -0.0986  0.4198  0.6324
 5964TIP3    H139527   3.115   6.322   2.066  0.9449 -0.3470 -0.1175
 5964TIP3    H239528   3.167   6.390   1.942 -0.5518 -0.9761 -1.1212
 5965TIP3   OH239529   6.356   3.008   0.953  0.0182  0.0410  0.3865
 5965TIP3    H139530   6.334   3.069   1.023 -1.6868 -0.7737  0.5978
 5965TIP3    H239531   6.385   3.065   0.881 -2.7516  1.2790  0.1207
 5966TIP3   OH239532   0.989   1.593   0.354 -0.3974 -0.0327  0.5265
 5966TIP3    H139533   0.937   1.616   0.431  0.4031 -0.0529  1.0832
 5966TIP3    H239534   1.045   1.521   0.383  0.5710  0.5635  0.2028
 5967TIP3   OH239535   1.333   6.204   7.085  0.4906  0.0578  0.1965
 5967TIP3    H139536   1.278   6.171   7.014  1.2009  0.3220 -0.4921
 5967TIP3    H239537   1.347   6.128   7.141  1.2484 -0.5837 -0.8209
 5968TIP3   OH239538   5.296   6.131   8.089  0.6061 -0.8348  0.0521
 5968TIP3    H139539   5.381   6.158   8.124  0.1715 -0.6390  1.0039
 5968TIP3    H239540   5.288   6.177   8.006  0.8579  0.1931  0.5888
 5969TIP3   OH239541   2.966   0.767   1.986 -0.3392 -0.4784 -0.5438
 5969TIP3    H139542   2.968   0.844   1.929  0.6608 -0.4244 -0.4468
 5969TIP3    H239543   2.929   0.799   2.068 -1.3319 -0.4499 -0.9885
 5970TIP3   OH239544   2.854   2.576   2.334  0.0777 -0.3547  0.3225
 5970TIP3    H139545   2.917   2.647   2.324  0.0012 -0.4110 -0.7626
 5970TIP3    H239546   2.835   2.572   2.428  1.0613  0.1983  0.5502
 5971TIP3   OH239547   3.055   3.630   1.662 -0.6234  0.2034 -0.4810
 5971TIP3    H139548   3.047   3.724   1.676 -0.3080 -0.0550  1.6340
 5971TIP3    H239549   3.052   3.620   1.566  0.0316  2.3990 -0.7740
 5972TIP3   OH239550   4.013   6.058   1.696 -0.3763 -0.0959 -0.0783
 5972TIP3    H139551   3.923   6.036   1.673 -0.3229  0.0796 -0.4512
 5972TIP3    H239552   4.041   5.986   1.752  0.3256 -1.8557 -2.5281
 5973TIP3   OH239553   0.868   0.443   6.264 -0.3519 -0.1530  0.6936
 5973TIP3    H139554   0.924   0.378   6.221  0.3292 -0.9255  2.6336
 5973TIP3    H239555   0.814   0.393   6.324 -3.5768  0.5176 -1.4028
 5974TIP3   OH239556   2.660   5.611   2.562 -0.0864  0.0776  0.7094
 5974TIP3    H139557   2.696   5.524   2.541  2.0451  0.6370  1.7667
 5974TIP3    H239558   2.570   5.593   2.589  0.3923 -1.8553  1.2069
 5975TIP3   OH239559   2.716   1.580   1.562  0.0982 -0.1358 -0.6180
 5975TIP3    H139560   2.770   1.542   1.492 -0.1332  0.6241 -1.2289
 5975TIP3    H239561   2.771   1.650   1.599 -0.1130  0.0346 -0.6262
 5976TIP3   OH239562   2.124   5.588   1.348  0.6266 -0.0058 -0.4389
 5976TIP3    H139563   2.047   5.545   1.312 -0.5531  0.8870  0.8862
 5976TIP3    H239564   2.184   5.516   1.370  0.1192 -0.7208 -1.3553
 5977TIP3   OH239565   5.314   6.737   1.518  0.2264  0.1232 -0.0075
 5977TIP3    H139566   5.358   6.807   1.470  0.7043 -0.7143 -0.8196
 5977TIP3    H239567   5.316   6.765   1.610 -2.0761  2.5226 -0.5583
 5978TIP3   OH239568   1.466   6.358   8.284  0.3497  0.1964 -0.0203
 5978TIP3    H139569   1.380   6.394   8.267 -0.3060 -1.4086 -0.3375
 5978TIP3    H239570   1.466   6.337   8.377  0.5629  0.6058  0.0726
 5979TIP3   OH239571   6.806   0.941   0.959  0.0403 -0.8449  0.4925
 5979TIP3    H139572   6.857   1.020   0.977  1.6920 -2.0873  1.4731
 5979TIP3    H239573   6.747   0.932   1.034 -0.4396 -0.3497  0.1846
 5980TIP3   OH239574   3.680   0.299   6.486  0.1150  0.2156  0.2938
 5980TIP3    H139575   3.594   0.328   6.456  0.1307 -1.4892 -1.6063
 5980TIP3    H239576   3.740   0.329   6.418  0.9538  0.8453  1.2895
 5981TIP3   OH239577   5.094   0.843   7.618  0.2367  0.5489 -0.2263
 5981TIP3    H139578   5.026   0.902   7.650 -2.5417 -3.1132  1.3770
 5981TIP3    H239579   5.057   0.803   7.540  1.5406  0.0524 -0.6214
 5982TIP3   OH239580   3.487   5.548   8.297  0.0734 -0.4493  0.1623
 5982TIP3    H139581   3.521   5.500   8.221 -0.9643 -1.3665  0.2506
 5982TIP3    H239582   3.564   5.562   8.352  0.4749 -1.7414 -0.0284
 5983TIP3   OH239583   5.965   6.732   7.234  0.1876  0.9371 -1.2429
 5983TIP3    H139584   5.934   6.642   7.247 -0.5660  1.3893  0.3438
 5983TIP3    H239585   5.987   6.737   7.141  0.9203 -1.0972 -1.2293
 5984TIP3   OH239586   6.795   6.841   6.491 -0.6727 -0.5013  0.5510
 5984TIP3    H139587   6.844   6.838   6.408  0.2227 -1.3646  1.0870
 5984TIP3    H239588   6.721   6.900   6.473 -1.7524 -2.3321 -1.5443
 5985TIP3   OH239589   6.247   5.012   2.523  0.3195  0.1741 -0.0265
 5985TIP3    H139590   6.298   4.937   2.549  0.6637 -0.4047 -2.1566
 5985TIP3    H239591   6.305   5.087   2.535  1.3142 -0.3483 -1.3116
 5986TIP3   OH239592   3.925   4.664   0.287  0.1075 -0.4018 -0.0336
 5986TIP3    H139593   3.938   4.746   0.240  0.5575 -1.4941 -1.9158
 5986TIP3    H239594   3.975   4.674   0.368 -1.5949  1.9565  0.8287
 5987TIP3   OH239595   5.247   4.813   8.242 -0.3117 -0.2930  0.4298
 5987TIP3    H139596   5.187   4.801   8.168 -1.4581  0.4099  1.2009
 5987TIP3    H239597   5.334   4.813   8.203 -0.8506 -0.7107 -0.8162
 5988TIP3   OH239598   6.260   5.706   0.946 -0.0364  0.0271  0.0545
 5988TIP3    H139599   6.307   5.626   0.971  0.5216  0.5199  0.6246
 5988TIP3    H239600   6.323   5.777   0.961 -0.5849  0.5964 -0.2582
 5989TIP3   OH239601   5.997   4.658   7.803 -0.6180 -0.1548 -0.3411
 5989TIP3    H139602   6.038   4.739   7.771 -0.7857  0.6864  1.4293
 5989TIP3    H239603   6.015   4.593   7.735  1.3153  0.8462 -0.8573
 5990TIP3   OH239604   3.926   6.145   8.747 -0.3940 -0.3707 -0.3807
 5990TIP3    H139605   3.956   6.122   8.834 -1.3408 -0.8274 -0.1658
 5990TIP3    H239606   3.832   6.127   8.748 -0.6132  0.6034 -1.1658
 5991TIP3   OH239607   2.611   6.611   7.894 -0.0100 -0.5779  0.9067
 5991TIP3    H139608   2.705   6.628   7.896 -0.1363  0.1261  2.7560
 5991TIP3    H239609   2.595   6.558   7.972 -1.4483  1.1903  1.9012
 5992TIP3   OH239610   4.039   4.704   2.187 -0.0761  0.2559  0.3178
 5992TIP3    H139611   4.121   4.752   2.175 -0.5259  0.6211 -1.6189
 5992TIP3    H239612   3.971   4.771   2.178 -0.6717 -0.5014 -1.1456
 5993TIP3   OH239613   4.512   5.115   7.352  0.2256  0.0676  0.0521
 5993TIP3    H139614   4.541   5.206   7.341  1.6414 -0.3456  0.2647
 5993TIP3    H239615   4.538   5.072   7.271  2.1350 -0.7852  1.0673
 5994TIP3   OH239616   0.653   1.241   7.672  1.0650  0.0950 -0.1859
 5994TIP3    H139617   0.694   1.297   7.606  0.6957  1.2900  0.5562
 5994TIP3    H239618   0.718   1.237   7.743  1.0108 -0.2821 -0.1559
 5995TIP3   OH239619   0.238   2.622   1.585  0.0999 -0.5689  0.7213
 5995TIP3    H139620   0.249   2.710   1.549  1.5384 -0.5140  1.2229
 5995TIP3    H239621   0.321   2.604   1.630 -1.0443 -1.2117  2.7185
 5996TIP3   OH239622   6.050   0.035   8.422  0.2610 -0.4612 -0.2032
 5996TIP3    H139623   6.095  -0.040   8.460 -2.4027 -1.8252  0.5571
 5996TIP3    H239624   6.024   0.089   8.498 -0.4249 -0.3714 -0.4868
 5997TIP3   OH239625   0.221   5.993   8.353 -0.0242  0.4678 -0.2422
 5997TIP3    H139626   0.147   5.952   8.397 -0.5748 -0.5675 -2.0489
 5997TIP3    H239627   0.276   5.920   8.324  0.7632  1.1562 -0.5415
 5998TIP3   OH239628   1.606   5.583   1.020  0.0617 -0.5876  0.3527
 5998TIP3    H139629   1.625   5.675   1.003  0.9078 -0.5975  1.1473
 5998TIP3    H239630   1.676   5.536   0.974  0.9708 -0.7137  1.8030
 5999TIP3   OH239631   3.825   0.614   8.407  0.0363  0.1733 -0.0091
 5999TIP3    H139632   3.755   0.563   8.366 -0.6474 -2.5037  3.9018
 5999TIP3    H239633   3.785   0.700   8.424 -1.7915 -0.7501  0.6591
 6000TIP3   OH239634   4.402   4.617   1.409  0.0536  0.3555 -0.0370
 6000TIP3    H139635   4.362   4.666   1.337 -1.9213 -1.2818 -0.1582
 6000TIP3    H239636   4.446   4.543   1.367 -1.9591 -1.1758  0.4083
 6001TIP3   OH239637   2.314   6.130   6.361  0.0906 -0.7970  0.6411
 6001TIP3    H139638   2.353   6.211   6.329  1.0420 -1.4596  0.0828
 6001TIP3    H239639   2.227   6.128   6.322  0.4676 -0.5776 -0.2254
 6002TIP3   OH239640   2.407   4.972   0.405 -0.3215 -0.3182  0.4001
 6002TIP3    H139641   2.394   4.953   0.312  0.9686 -2.0097  0.5390
 6002TIP3    H239642   2.499   4.995   0.413 -0.3209 -0.6122  1.3409
 6003TIP3   OH239643   2.274   6.637   8.291  0.1207 -0.4505  0.0648
 6003TIP3    H139644   2.265   6.703   8.360 -3.9932  0.7067 -1.3049
 6003TIP3    H239645   2.344   6.671   8.235  1.3339  0.2119  1.8699
 6004TIP3   OH239646   1.875   3.112   2.021  0.3932 -0.2548  0.1101
 6004TIP3    H139647   1.955   3.153   1.986  0.2118  0.2064  0.2228
 6004TIP3    H239648   1.808   3.130   1.956  0.3842 -0.6669  0.0023
 6005TIP3   OH239649   4.190   4.267   6.779 -0.1859 -0.1164 -0.2764
 6005TIP3    H139650   4.115   4.324   6.762  0.2202  0.2700 -0.8658
 6005TIP3    H239651   4.261   4.308   6.729  0.5950 -0.0549  0.8539
 6006TIP3   OH239652   6.152   3.943   0.709 -0.0949  0.5990  0.5225
 6006TIP3    H139653   6.115   4.029   0.731  0.3906  0.9082  0.1203
 6006TIP3    H239654   6.139   3.891   0.789 -0.1832  1.1114  0.8474
 6007TIP3   OH239655   1.107   1.457   2.166  0.1770 -0.5081  0.1101
 6007TIP3    H139656   1.139   1.544   2.143  0.6290 -1.0627 -1.5036
 6007TIP3    H239657   1.182   1.415   2.208  1.0043 -1.0940 -1.8057
 6008TIP3   OH239658   4.164   3.597   8.120  0.3711 -0.4427 -0.1082
 6008TIP3    H139659   4.072   3.578   8.137  0.2040  1.3951  1.4384
 6008TIP3    H239660   4.163   3.678   8.068  1.0427  1.1472  2.1617
 6009TIP3   OH239661   4.742   3.542   1.117  0.2252  0.2727 -1.2684
 6009TIP3    H139662   4.835   3.563   1.105  0.3866 -0.0600 -0.6301
 6009TIP3    H239663   4.721   3.576   1.203  0.2812 -1.4000 -0.5508
 6010TIP3   OH239664   4.287   3.703   0.760 -0.1772 -0.0834  0.1515
 6010TIP3    H139665   4.334   3.770   0.710  0.1599 -1.0348 -0.8732
 6010TIP3    H239666   4.195   3.727   0.750 -0.0898 -0.0146 -0.6001
 6011TIP3   OH239667   6.594   4.532   1.588 -0.9297  0.0581 -0.4602
 6011TIP3    H139668   6.640   4.467   1.534 -3.1100 -0.6438 -1.6020
 6011TIP3    H239669   6.585   4.490   1.674  1.0907  0.5013  0.0142
 6012TIP3   OH239670   2.952   2.563   8.239 -0.6065 -0.3158  0.1024
 6012TIP3    H139671   2.903   2.535   8.162  0.3358 -0.3853 -0.5015
 6012TIP3    H239672   2.988   2.482   8.276 -1.2039 -0.3015  0.7317
 6013TIP3   OH239673   4.840   1.610   7.127  0.3886  0.2930 -0.6467
 6013TIP3    H139674   4.859   1.702   7.111 -0.3030  0.2453 -1.8655
 6013TIP3    H239675   4.908   1.562   7.080 -1.3389  0.1624 -3.2371
 6014TIP3   OH239676   3.761   2.251   0.166 -0.1955  0.2195 -0.0221
 6014TIP3    H139677   3.687   2.308   0.186 -0.3926  0.3639 -1.1321
 6014TIP3    H239678   3.740   2.213   0.081  0.2619 -0.9818  0.3858
 6015TIP3   OH239679   1.221   4.826   1.206  0.3064  0.1444 -0.0910
 6015TIP3    H139680   1.132   4.844   1.173  0.2231  0.1577  0.1431
 6015TIP3    H239681   1.223   4.731   1.217  1.1387 -0.1910 -2.4842
 6016TIP3   OH239682   2.429   2.548   6.881 -0.3062 -0.0976  0.0930
 6016TIP3    H139683   2.440   2.453   6.887 -1.2214 -0.1552  1.0036
 6016TIP3    H239684   2.443   2.580   6.970  0.4071  0.6771 -0.2861
 6017TIP3   OH239685   3.874   4.302   0.840  0.2268 -0.3633 -0.2083
 6017TIP3    H139686   3.902   4.231   0.898  0.0893 -0.3046 -0.0686
 6017TIP3    H239687   3.843   4.370   0.899  2.8900  0.9644 -0.2005
 6018TIP3   OH239688   6.512   2.743   2.165  0.0041  0.3827 -0.1783
 6018TIP3    H139689   6.475   2.795   2.093 -0.6380  0.4136  0.1647
 6018TIP3    H239690   6.593   2.708   2.130  0.1431  1.1293 -0.6184
 6019TIP3   OH239691   2.224   4.497   7.696  0.4669 -1.0099 -0.5298
 6019TIP3    H139692   2.271   4.580   7.705  3.2122 -2.3264 -1.5059
 6019TIP3    H239693   2.198   4.475   7.786 -2.9158  2.1305 -0.5033
 6020TIP3   OH239694   5.924   3.887   7.591  0.3825  0.1026  0.1020
 6020TIP3    H139695   5.844   3.834   7.587 -0.1087  0.7694  0.7631
 6020TIP3    H239696   5.895   3.975   7.569  0.9042  0.3893  0.5413
 6021TIP3   OH239697   1.001   1.945   2.044 -0.0938 -0.2428 -0.0910
 6021TIP3    H139698   0.982   1.922   1.953 -1.8898 -1.2780  0.5019
 6021TIP3    H239699   0.925   1.915   2.093 -0.5067  2.9027  1.4160
 6022TIP3   OH239700   1.794   1.070   7.240 -0.5122 -0.3397  0.0222
 6022TIP3    H139701   1.784   0.999   7.176 -1.0539 -1.1536  0.9802
 6022TIP3    H239702   1.823   1.026   7.320 -2.1963  0.3066  1.0415
 6023TIP3   OH239703   1.146   5.925   7.024 -0.1586 -0.0387  0.6980
 6023TIP3    H139704   1.206   5.856   6.999 -1.6681 -0.9012 -0.7196
 6023TIP3    H239705   1.170   6.000   6.969  0.1188 -0.1155  0.7149
 6024TIP3   OH239706   5.337   1.035   8.355  0.3958  0.2392  0.1419
 6024TIP3    H139707   5.422   1.067   8.325  1.1425  0.3828  2.2536
 6024TIP3    H239708   5.350   0.941   8.370  0.3743  0.3685  1.0315
 6025TIP3   OH239709   4.067   3.880   0.538  0.8922  0.0042 -0.2562
 6025TIP3    H139710   4.015   3.954   0.507  1.5094 -0.0660 -1.5066
 6025TIP3    H239711   4.063   3.816   0.467  1.7025 -0.4922  0.1303
 6026TIP3   OH239712   5.149   5.865   1.300 -0.6546  0.0808 -0.2122
 6026TIP3    H139713   5.177   5.776   1.319 -2.1923  0.2603  3.9235
 6026TIP3    H239714   5.053   5.862   1.303 -0.7455  1.9716  1.2983
 6027TIP3   OH239715   0.669   2.951   8.020 -0.3841  0.0374  0.2051
 6027TIP3    H139716   0.645   2.859   8.033 -1.5285  0.2337 -0.3443
 6027TIP3    H239717   0.761   2.949   7.993 -0.7668 -1.0539 -1.1180
 6028TIP3   OH239718   5.455   6.076   0.789 -0.1202  0.0302 -0.2417
 6028TIP3    H139719   5.503   5.996   0.811  2.9193  1.8593  0.4141
 6028TIP3    H239720   5.465   6.083   0.694 -2.0542 -1.2320 -0.6064
 6029TIP3   OH239721   1.566   5.367   6.595  0.8649 -1.2243 -0.6498
 6029TIP3    H139722   1.647   5.408   6.567  0.3036 -0.7956 -1.6869
 6029TIP3    H239723   1.506   5.440   6.609  0.3377 -1.5935 -0.9365
 6030TIP3   OH239724   4.485   4.743   0.377  0.0030  0.0159  0.0944
 6030TIP3    H139725   4.498   4.831   0.413 -2.3100  1.1349 -1.5658
 6030TIP3    H239726   4.424   4.702   0.438  0.3403 -0.1176  0.3497
 6031TIP3   OH239727   6.740   3.036   1.036 -0.1358  0.6699  0.0184
 6031TIP3    H139728   6.682   3.089   1.090 -1.8217  0.6690 -1.6770
 6031TIP3    H239729   6.706   2.947   1.044  0.7251  0.3632  0.3630
 6032TIP3   OH239730   0.086   4.605   1.714  0.0194  0.2283 -0.0387
 6032TIP3    H139731   0.022   4.565   1.772 -0.7403  1.6034  0.1292
 6032TIP3    H239732   0.168   4.603   1.763 -0.5313  1.0305  0.9601
 6033TIP3   OH239733   5.180   6.313   8.782 -0.2699 -0.3132  0.4536
 6033TIP3    H139734   5.158   6.399   8.819  1.8217  1.5263 -2.2056
 6033TIP3    H239735   5.225   6.333   8.700 -0.9004 -4.0235 -0.9932
 6034TIP3   OH239736   1.091   4.804   7.332 -0.2117  0.3648  0.4835
 6034TIP3    H139737   1.052   4.878   7.286  1.8284  1.0692 -0.2660
 6034TIP3    H239738   1.111   4.838   7.420  0.8005  0.7941  0.1138
 6035TIP3   OH239739   0.443   6.023   7.773 -0.1364  0.0243  0.7880
 6035TIP3    H139740   0.485   5.995   7.692 -2.6196 -0.6552 -0.3263
 6035TIP3    H239741   0.431   5.943   7.823 -0.9582  0.0635  0.6626
 6036TIP3   OH239742   1.344   4.207   8.326 -0.1590  0.3740  0.0807
 6036TIP3    H139743   1.265   4.260   8.327  0.0637  0.7386 -1.0397
 6036TIP3    H239744   1.323   4.131   8.381 -0.5091  1.5479  1.6324
 6037TIP3   OH239745   6.171   1.777   0.613  0.2034  0.3767 -0.4817
 6037TIP3    H139746   6.169   1.756   0.520  0.2093 -1.6100 -0.0972
 6037TIP3    H239747   6.238   1.719   0.649 -1.3289 -0.5452  1.0752
 6038TIP3   OH239748   6.771   3.317   7.791 -0.3605 -0.6751  0.2944
 6038TIP3    H139749   6.858   3.353   7.772  0.1690 -1.8726  0.3510
 6038TIP3    H239750   6.777   3.225   7.764 -0.9861 -1.2788  2.0766
 6039TIP3   OH239751   2.893   6.631   0.246 -0.1093  0.0132  0.1301
 6039TIP3    H139752   2.854   6.639   0.334  0.4274  0.2233  0.3490
 6039TIP3    H239753   2.983   6.661   0.257 -0.3514  1.1076 -0.7360
 6040TIP3   OH239754   5.432   1.653   8.084  0.1553 -0.1999 -0.3429
 6040TIP3    H139755   5.397   1.619   8.166  0.4175  0.8815  0.2438
 6040TIP3    H239756   5.360   1.702   8.046  0.2145 -0.2028 -0.4590
 6041TIP3   OH239757   0.738   0.216   0.149 -0.2050  0.4048 -0.3298
 6041TIP3    H139758   0.771   0.217   0.239 -1.1742 -1.5259  0.1133
 6041TIP3    H239759   0.729   0.123   0.128 -2.5245  0.8060 -1.4366
 6042TIP3   OH239760   3.424   5.584   0.037 -0.0971  0.5012  0.1146
 6042TIP3    H139761   3.495   5.614   0.095  0.1449  1.8271 -0.8036
 6042TIP3    H239762   3.469   5.530  -0.029 -0.0006  0.9503 -0.1929
 6043TIP3   OH239763   3.479   4.282   1.915 -0.1554  0.2777  0.6514
 6043TIP3    H139764   3.574   4.275   1.906 -0.4068 -0.8784 -1.9539
 6043TIP3    H239765   3.461   4.376   1.907  0.7074  0.4133  0.1873
 6044TIP3   OH239766   3.743   2.180   8.312  0.1305  0.4795  0.1957
 6044TIP3    H139767   3.816   2.240   8.303  0.5251  0.0611  0.5298
 6044TIP3    H239768   3.682   2.225   8.370 -0.1917  1.1104 -0.6118
 6045TIP3   OH239769   3.846   4.479   0.591 -0.1603 -0.1735  0.4431
 6045TIP3    H139770   3.847   4.384   0.582  1.6504 -0.1671  0.2212
 6045TIP3    H239771   3.907   4.496   0.663 -1.3256  0.7812  1.2524
 6046TIP3   OH239772   2.180   3.837   1.377 -0.6512  0.2769 -0.5961
 6046TIP3    H139773   2.227   3.887   1.443  0.1384  0.2404 -1.1228
 6046TIP3    H239774   2.230   3.756   1.368 -0.0097  0.8151 -2.1470
 6047TIP3   OH239775   0.732   1.724   0.194  0.2495  0.1576  0.0356
 6047TIP3    H139776   0.774   1.742   0.110  0.7365  1.6363  0.5640
 6047TIP3    H239777   0.790   1.764   0.259 -0.3473 -0.5641  1.0410
 6048TIP3   OH239778   3.840   2.977   2.018 -0.6774  0.4186  0.3475
 6048TIP3    H139779   3.826   2.989   1.925 -0.3219 -0.4019  0.1779
 6048TIP3    H239780   3.756   2.998   2.059 -1.3205 -0.7791 -0.3050
 6049TIP3   OH239781   4.182   2.971   2.241 -0.1155  0.3111  0.0960
 6049TIP3    H139782   4.143   3.058   2.252 -1.4315 -0.4266  1.8589
 6049TIP3    H239783   4.150   2.941   2.156  2.6981  2.5946 -1.9521
 6050TIP3   OH239784   6.410   3.851   8.400  0.0086 -0.1093  0.5216
 6050TIP3    H139785   6.502   3.825   8.393  0.3254  1.0043  0.3796
 6050TIP3    H239786   6.372   3.829   8.314  0.7074  1.4917 -0.2361
 6051TIP3   OH239787   4.990   3.951   7.257 -0.1552  0.2071  0.2186
 6051TIP3    H139788   5.013   3.925   7.168  0.2299 -0.0566  0.3899
 6051TIP3    H239789   4.988   3.869   7.306  2.2423  0.5595  1.0281
 6052TIP3   OH239790   6.774   5.959   0.378 -0.1384 -0.2070  0.1276
 6052TIP3    H139791   6.811   5.964   0.290 -0.2138  0.0597  0.1106
 6052TIP3    H239792   6.758   5.866   0.392  1.1436 -0.3986  0.3910
 6053TIP3   OH239793   6.590   4.030   8.662 -0.0780 -1.0730  0.1721
 6053TIP3    H139794   6.591   4.099   8.728  1.2940 -0.7180 -0.1871
 6053TIP3    H239795   6.598   3.949   8.712  0.4875 -0.8356  0.4823
 6054TIP3   OH239796   2.519   6.710   7.639 -0.0228 -0.5302  0.0274
 6054TIP3    H139797   2.538   6.683   7.728  2.1666  0.7417 -0.0025
 6054TIP3    H239798   2.488   6.800   7.646 -3.2461 -1.4499 -0.2731
 6055TIP3   OH239799   1.203   4.317   1.964 -0.3268 -0.1506  0.2574
 6055TIP3    H139800   1.148   4.243   1.989  0.3907 -0.4876  0.8758
 6055TIP3    H239801   1.143   4.392   1.962 -1.2164 -0.8502 -1.1241
 6056TIP3   OH239802   5.058   5.408   0.400 -0.4861 -0.3263 -0.3164
 6056TIP3    H139803   5.031   5.350   0.328  0.5512 -1.6621  0.3159
 6056TIP3    H239804   5.151   5.424   0.383  0.5148 -2.8689  2.0837
 6057TIP3   OH239805   3.975   4.972   7.451  0.3983 -0.2129 -0.4390
 6057TIP3    H139806   3.996   4.882   7.427  1.0774 -0.1646 -0.0787
 6057TIP3    H239807   4.049   5.023   7.417  0.1057  0.1814 -0.4848
 6058TIP3   OH239808   3.035   3.451   6.920 -0.7458 -0.2611  0.1088
 6058TIP3    H139809   2.945   3.461   6.954 -0.5902  1.0305  0.1797
 6058TIP3    H239810   3.059   3.539   6.890  0.9037 -0.3164  1.1327
 6059TIP3   OH239811   0.112   3.955   7.000  0.2025 -0.9387 -0.0682
 6059TIP3    H139812   0.070   3.903   7.069 -2.0490  1.4824  0.5428
 6059TIP3    H239813   0.172   4.012   7.047  0.6022 -1.0564 -0.4305
 6060TIP3   OH239814   5.133   2.318   0.875 -0.4859 -0.6570 -0.2020
 6060TIP3    H139815   5.152   2.385   0.809  0.2724 -0.6390  0.0222
 6060TIP3    H239816   5.102   2.367   0.951 -0.0491 -0.5701 -0.0796
 6061TIP3   OH239817   1.761   1.353   7.216 -0.4558 -0.6382  0.7184
 6061TIP3    H139818   1.782   1.389   7.302 -2.0865 -0.3181  1.0072
 6061TIP3    H239819   1.792   1.262   7.220 -0.2369 -0.5369  1.5272
 6062TIP3   OH239820   4.159   2.943   0.499 -0.4365  0.0553  0.0074
 6062TIP3    H139821   4.208   3.012   0.543  0.4774  0.0728 -0.9959
 6062TIP3    H239822   4.134   2.882   0.569  0.0753  0.6123  0.6837
 6063TIP3   OH239823   6.606   6.167   0.348  0.1392 -0.1590 -0.1042
 6063TIP3    H139824   6.665   6.094   0.364  0.1326 -0.1265  0.0777
 6063TIP3    H239825   6.593   6.206   0.434  0.7655  0.5382 -0.3146
 6064TIP3   OH239826   0.733   2.660   0.338 -0.5640  0.0672  0.0205
 6064TIP3    H139827   0.823   2.690   0.342 -0.2632 -0.8749  2.7787
 6064TIP3    H239828   0.739   2.565   0.349 -1.8540 -0.1085 -0.6028
 6065TIP3   OH239829   3.764   1.456   1.392 -0.1173 -0.0520 -0.7956
 6065TIP3    H139830   3.695   1.402   1.430  1.2984 -1.3818 -0.0351
 6065TIP3    H239831   3.841   1.440   1.446  1.5113 -0.6150 -3.0969
 6066TIP3   OH239832   3.490   6.350   1.534  0.1247  0.4223  0.1796
 6066TIP3    H139833   3.435   6.429   1.528  0.0778  0.4149  0.5221
 6066TIP3    H239834   3.529   6.354   1.621  0.6359  0.4029 -0.0425
 6067TIP3   OH239835   5.746   5.239   0.257 -0.3860  0.0011  0.5010
 6067TIP3    H139836   5.676   5.292   0.296  0.7876  0.8679  1.4824
 6067TIP3    H239837   5.763   5.171   0.321  0.3414  0.3815  0.7172
 6068TIP3   OH239838   4.135   2.168   8.255  0.4484  0.3937  0.3470
 6068TIP3    H139839   4.108   2.185   8.345  1.8010 -0.2761  0.9088
 6068TIP3    H239840   4.151   2.254   8.218 -0.0481  0.6720  0.7697
 6069TIP3   OH239841   1.976   3.039   7.387 -0.0548  0.0670  0.6875
 6069TIP3    H139842   1.928   2.993   7.319 -0.5434  0.9530  0.4277
 6069TIP3    H239843   2.010   3.118   7.344  1.1729 -0.2583  1.0053
 6070TIP3   OH239844   0.175   0.826   1.367 -0.1531  0.2069 -0.4499
 6070TIP3    H139845   0.252   0.770   1.375  0.9470  1.8291  0.8780
 6070TIP3    H239846   0.163   0.836   1.272  0.9367 -0.5289 -0.6851
 6071TIP3   OH239847   0.714   0.753   8.569  0.1440  0.4822 -0.7525
 6071TIP3    H139848   0.619   0.740   8.569 -0.1676  2.3376  0.2387
 6071TIP3    H239849   0.749   0.675   8.611 -0.9815 -0.0251 -0.7044
 6072TIP3   OH239850   6.038   0.983   7.601  0.0428  0.3220  0.5840
 6072TIP3    H139851   6.067   0.989   7.692  0.6843  0.7144  0.3576
 6072TIP3    H239852   6.086   1.052   7.555 -0.8668  0.6481  0.0933
 6073TIP3   OH239853   2.779   3.923   7.573 -0.4865  0.0233 -0.0973
 6073TIP3    H139854   2.706   3.984   7.568 -1.3665 -0.5965  2.9912
 6073TIP3    H239855   2.853   3.971   7.537 -1.4718  2.4151  0.8666
 6074TIP3   OH239856   0.544   2.266   0.917  1.1654 -0.5300  0.3181
 6074TIP3    H139857   0.524   2.326   0.845  1.4110 -0.6079  0.1831
 6074TIP3    H239858   0.580   2.322   0.986  0.3891 -0.3771  0.6002
 6075TIP3   OH239859   4.430   0.047   8.169 -0.0670  0.8248  0.1003
 6075TIP3    H139860   4.343   0.042   8.131 -0.3509 -1.1407  0.9181
 6075TIP3    H239861   4.484   0.086   8.100 -1.1871  0.2354 -1.1510
 6076TIP3   OH239862   1.177   0.555   1.402  0.1582 -0.2288 -0.0156
 6076TIP3    H139863   1.253   0.545   1.460 -0.1759  1.1327  0.7036
 6076TIP3    H239864   1.102   0.538   1.459 -0.1075 -1.0006 -0.5852
 6077TIP3   OH239865   3.342   4.921   7.928 -0.2579 -0.9150 -0.2457
 6077TIP3    H139866   3.369   4.836   7.963 -0.3439 -1.5287 -1.6048
 6077TIP3    H239867   3.370   4.984   7.995  1.5350 -1.8319 -0.0542
 6078TIP3   OH239868   3.006   2.480   1.673 -0.4204 -0.7360 -0.6126
 6078TIP3    H139869   2.959   2.432   1.604  2.3687  0.4250 -3.5897
 6078TIP3    H239870   3.005   2.421   1.748 -0.7407 -3.6740 -2.7283
 6079TIP3   OH239871   0.107   0.483   7.853 -0.1640  0.0228 -0.3038
 6079TIP3    H139872   0.089   0.495   7.760 -0.9586 -0.2960 -0.1994
 6079TIP3    H239873   0.058   0.552   7.897 -0.9487 -0.6763 -0.0372
 6080TIP3   OH239874   1.856   2.337   1.587 -0.5535  0.1206  0.5425
 6080TIP3    H139875   1.768   2.373   1.595 -1.2075 -1.2994  0.0862
 6080TIP3    H239876   1.869   2.285   1.666 -0.4961 -0.4134  0.1897
 6081TIP3   OH239877   0.868   0.500   7.619 -0.1956 -0.7192 -0.1715
 6081TIP3    H139878   0.857   0.417   7.573 -2.4119 -1.2801  1.2654
 6081TIP3    H239879   0.916   0.478   7.698 -1.0254 -0.6997  0.3455
 6082TIP3   OH239880   2.297   6.555   6.933 -0.3972  0.2953  0.4218
 6082TIP3    H139881   2.278   6.561   7.026 -0.8076 -0.9805  0.4295
 6082TIP3    H239882   2.379   6.506   6.928  0.5969  1.8827  0.1660
 6083TIP3   OH239883   6.454   0.200   0.573 -0.4308  0.1814 -0.3636
 6083TIP3    H139884   6.386   0.156   0.624  0.0986 -1.2116 -0.7989
 6083TIP3    H239885   6.435   0.176   0.482  0.0796  0.5832 -0.5842
 6084TIP3   OH239886   6.225   1.653   0.944 -0.5526  0.6805  0.4382
 6084TIP3    H139887   6.137   1.686   0.960 -1.6183 -2.2446  1.2738
 6084TIP3    H239888   6.224   1.626   0.852 -0.7669  0.0824  0.6096
 6085TIP3   OH239889   5.250   2.641   2.128  0.3023  0.2122  0.3248
 6085TIP3    H139890   5.185   2.595   2.075  0.2599 -0.4529  0.9295
 6085TIP3    H239891   5.202   2.669   2.206  0.3224  1.3285 -0.0524
 6086TIP3   OH239892   2.867   0.125   1.491  0.1528 -0.3763 -0.4913
 6086TIP3    H139893   2.875   0.205   1.544 -1.4503 -0.5429  0.0690
 6086TIP3    H239894   2.911   0.058   1.542  0.8021 -0.0170 -0.5738
 6087TIP3   OH239895   0.294   3.696   7.477  0.1019  0.3657 -0.2853
 6087TIP3    H139896   0.302   3.713   7.571  1.9476  0.1033 -0.3506
 6087TIP3    H239897   0.375   3.732   7.439 -0.9924  1.2309 -1.9049
 6088TIP3   OH239898   6.701   2.262   7.692 -0.0796 -0.0338  0.1713
 6088TIP3    H139899   6.658   2.338   7.653 -1.1345 -1.1007 -0.8223
 6088TIP3    H239900   6.659   2.252   7.777 -1.4845 -0.7451 -0.5729
 6089TIP3   OH239901   3.434   4.540   2.604 -0.0126 -0.2795 -0.3034
 6089TIP3    H139902   3.463   4.480   2.674  0.1699  0.3174  0.1403
 6089TIP3    H239903   3.458   4.627   2.636  0.3514 -0.0194 -1.2498
 6090TIP3   OH239904   2.015   5.337   0.689 -0.2945  0.1890  1.0769
 6090TIP3    H139905   2.101   5.298   0.676 -1.1946 -1.1753 -1.7703
 6090TIP3    H239906   1.972   5.329   0.603 -2.3458  3.1612  1.6716
 6091TIP3   OH239907   2.209   3.527   1.945  0.3671  0.3242 -0.7434
 6091TIP3    H139908   2.171   3.442   1.922 -0.0541  0.5316 -0.8203
 6091TIP3    H239909   2.187   3.539   2.038  0.8200  0.1447 -0.6093
 6092TIP3   OH239910   4.568   3.686   7.049  0.2981  0.0451 -0.4878
 6092TIP3    H139911   4.524   3.635   6.980 -0.1950  0.8290 -0.7599
 6092TIP3    H239912   4.661   3.670   7.034  0.2759  1.1404 -2.1084
 6093TIP3   OH239913   0.738   1.276   1.227 -0.5174 -0.8526  0.3750
 6093TIP3    H139914   0.790   1.249   1.151 -0.3116 -0.1802  0.2658
 6093TIP3    H239915   0.666   1.214   1.230 -1.6108  0.2054 -1.5392
 6094TIP3   OH239916   4.246   2.492   7.214  0.2262  0.2729 -0.2941
 6094TIP3    H139917   4.245   2.583   7.242  0.3208  0.0920  0.3229
 6094TIP3    H239918   4.154   2.470   7.200  0.2517  2.1098 -6.1705
 6095TIP3   OH239919   4.497   1.753   7.429 -0.4045  0.3087 -0.0764
 6095TIP3    H139920   4.583   1.756   7.469 -0.1018 -0.3336 -0.6671
 6095TIP3    H239921   4.452   1.831   7.463 -0.1851 -0.2256  1.5331
 6096TIP3   OH239922   4.920   3.474   8.308 -0.0608  0.4730  0.3565
 6096TIP3    H139923   4.929   3.526   8.228 -1.0111  0.4245  0.2115
 6096TIP3    H239924   4.999   3.420   8.310  0.9081  1.8181  0.4569
 6097TIP3   OH239925   0.321   0.964   8.110 -0.8927  0.1127  0.5465
 6097TIP3    H139926   0.240   0.974   8.062 -1.3293 -0.9936  1.0253
 6097TIP3    H239927   0.388   0.953   8.043 -1.3712 -0.5600  0.1700
 6098TIP3   OH239928   0.473   3.938   8.736 -0.0328  0.0198  0.3012
 6098TIP3    H139929   0.501   3.901   8.653  0.7049 -1.6756  1.2431
 6098TIP3    H239930   0.552   3.935   8.791 -0.2251  2.0668  0.7735
 6099TIP3   OH239931   5.455   4.744   7.564  0.2128 -0.3173 -0.1572
 6099TIP3    H139932   5.478   4.740   7.657  0.9383  2.8408 -0.1023
 6099TIP3    H239933   5.401   4.665   7.550 -0.4521 -0.5956  3.0717
 6100TIP3   OH239934   4.960   4.112   8.445  0.1238  0.1805  0.7226
 6100TIP3    H139935   4.901   4.052   8.399  0.4788  1.2555 -1.2109
 6100TIP3    H239936   5.023   4.054   8.489  0.2583 -0.8856 -0.8155
 6101TIP3   OH239937   0.507   5.398   7.747 -0.0119  0.5891 -0.0074
 6101TIP3    H139938   0.426   5.372   7.791  0.0169  3.2696  1.8928
 6101TIP3    H239939   0.486   5.482   7.705  0.8783 -0.3495 -2.5289
 6102TIP3   OH239940   6.673   2.666   7.173  0.0489 -0.0493  0.2594
 6102TIP3    H139941   6.625   2.588   7.144  0.0257 -0.8557  2.2392
 6102TIP3    H239942   6.611   2.710   7.232  0.4701  0.8636  0.0232
 6103TIP3   OH239943   1.717   5.528   1.496 -0.1215  0.3530  0.3083
 6103TIP3    H139944   1.766   5.451   1.465 -0.1110  0.4666  0.0389
 6103TIP3    H239945   1.654   5.545   1.426  0.8982  1.5210 -0.3636
 6104TIP3   OH239946   0.204   3.218   1.452  0.1905 -1.0074 -0.8398
 6104TIP3    H139947   0.219   3.151   1.519  0.3668 -0.7758 -0.6455
 6104TIP3    H239948   0.190   3.169   1.371 -2.6516 -1.4443 -0.2134
 6105TIP3   OH239949   4.471   2.224   0.881  0.4858 -0.4523  0.1799
 6105TIP3    H139950   4.447   2.154   0.941  1.6025 -1.1916 -0.2015
 6105TIP3    H239951   4.395   2.281   0.879 -0.6847 -1.9695  0.0297
 6106TIP3   OH239952   1.755   1.669   6.131  0.1474 -0.3249 -0.5943
 6106TIP3    H139953   1.669   1.707   6.151  0.5494  0.5425 -0.4599
 6106TIP3    H239954   1.818   1.736   6.158  0.9720 -1.7046  1.0950
 6107TIP3   OH239955   1.172   5.707   1.407 -0.1259  0.4038 -0.1627
 6107TIP3    H139956   1.189   5.761   1.484  2.1568 -0.0798 -0.2375
 6107TIP3    H239957   1.252   5.714   1.355 -1.2442 -0.0455 -2.0421
 6108TIP3   OH239958   3.164   5.648   0.043  0.3021 -0.3374 -0.0572
 6108TIP3    H139959   3.127   5.597  -0.030 -1.1882  1.7031 -0.8300
 6108TIP3    H239960   3.257   5.628   0.041  0.6787  0.9888 -3.7807
 6109TIP3   OH239961   6.211   5.958   0.077 -0.0647 -0.0463 -0.1172
 6109TIP3    H139962   6.159   6.028   0.116  1.3401  1.1278 -0.2850
 6109TIP3    H239963   6.232   5.900   0.150  1.2952  1.3390  0.6277
 6110TIP3   OH239964   4.883   4.161   1.115 -0.5334 -0.3210 -0.1511
 6110TIP3    H139965   4.857   4.124   1.200 -0.1484  1.1405  0.6348
 6110TIP3    H239966   4.950   4.101   1.083 -0.3777 -0.6623  0.7799
 6111TIP3   OH239967   0.124   2.497   7.480 -0.1411 -0.5246 -0.7956
 6111TIP3    H139968   0.123   2.452   7.395  2.6289  0.8847 -1.7040
 6111TIP3    H239969   0.154   2.585   7.459  0.1235  0.0208  1.6377
 6112TIP3   OH239970   2.796   3.724   2.282  0.0822  0.2371 -0.6057
 6112TIP3    H139971   2.757   3.747   2.198 -2.4028  0.7574  0.6116
 6112TIP3    H239972   2.779   3.799   2.339  1.4188 -0.2317  0.4885
 6113TIP3   OH239973   5.614   6.568   1.614 -0.0179  0.2520  0.1518
 6113TIP3    H139974   5.636   6.647   1.663 -1.0845  1.3232 -1.0106
 6113TIP3    H239975   5.533   6.536   1.654 -0.7641  0.9982 -0.7065
 6114TIP3   OH239976   1.357   3.801   8.645  0.1242 -0.1978  0.1089
 6114TIP3    H139977   1.412   3.798   8.723  1.6656 -0.8453 -0.9469
 6114TIP3    H239978   1.325   3.711   8.635  1.4701 -0.5914 -1.0051
 6115TIP3   OH239979   1.147   4.964   0.851  0.1659  0.4144  0.1836
 6115TIP3    H139980   1.228   5.010   0.831  0.5754  0.4896  1.8361
 6115TIP3    H239981   1.157   4.878   0.810  1.2928  0.2621  0.7414
 6116TIP3   OH239982   3.704   1.493   1.675  0.4637 -0.5605 -0.5950
 6116TIP3    H139983   3.747   1.449   1.748 -0.6981  1.6524  1.5524
 6116TIP3    H239984   3.661   1.422   1.627  0.2575 -2.0000  1.5715
 6117TIP3   OH239985   3.416   6.297   0.250  0.0513 -0.7901  0.8314
 6117TIP3    H139986   3.466   6.318   0.171 -0.9348  0.6139  0.5387
 6117TIP3    H239987   3.474   6.320   0.323  0.2031 -0.0992  0.4997
 6118TIP3   OH239988   5.209   4.677   2.208  0.3106  0.0159 -0.2323
 6118TIP3    H139989   5.170   4.744   2.265  0.8693 -0.5025  0.7655
 6118TIP3    H239990   5.207   4.597   2.260  0.0209 -0.6759 -1.2731
 6119TIP3   OH239991   0.400   2.956   1.286 -0.3803  0.1748 -0.5927
 6119TIP3    H139992   0.447   2.874   1.299 -1.0503 -0.2291 -0.6776
 6119TIP3    H239993   0.442   2.996   1.209  0.2630  0.1541 -0.2592
 6120TIP3   OH239994   0.757   1.303   7.327 -0.1679 -0.1569 -0.3708
 6120TIP3    H139995   0.761   1.377   7.388  1.0383  0.0081 -0.6106
 6120TIP3    H239996   0.826   1.244   7.358 -0.5037 -0.7480 -0.7360
 6121TIP3   OH239997   0.598   3.336   0.409 -0.1515  0.1832 -0.2581
 6121TIP3    H139998   0.685   3.339   0.369  0.4076  1.7365  0.9526
 6121TIP3    H239999   0.610   3.380   0.494 -2.2999  1.1884 -0.4254
 6122TIP3   OH240000   1.722   0.203   8.344 -1.1258  0.2723 -0.5422
 6122TIP3    H140001   1.753   0.278   8.293  0.5779 -0.6077 -0.8658
 6122TIP3    H240002   1.789   0.190   8.411 -1.0630 -1.3217 -0.8661
 6123TIP3   OH240003   2.419   6.413   6.363 -0.2801 -0.2469 -0.5508
 6123TIP3    H140004   2.514   6.414   6.368 -0.2015 -0.2886 -1.9050
 6123TIP3    H240005   2.392   6.491   6.413  0.3957 -0.6943  0.5682
 6124TIP3   OH240006   4.681   1.455   1.771  0.3769  0.3042  0.1389
 6124TIP3    H140007   4.614   1.456   1.703 -0.3902  1.0619  0.8825
 6124TIP3    H240008   4.718   1.543   1.768  0.3890  0.3159  0.6537
 6125TIP3   OH240009   6.459   0.873   7.603 -0.0902  0.6645  0.0997
 6125TIP3    H140010   6.411   0.956   7.605 -2.2778 -0.5463  0.9956
 6125TIP3    H240011   6.522   0.881   7.675 -1.8600  0.7370  1.7409
 6126TIP3   OH240012   0.713   0.329   8.143  0.3098  0.6574 -0.3187
 6126TIP3    H140013   0.769   0.325   8.066 -0.8933  0.7096 -1.2171
 6126TIP3    H240014   0.774   0.325   8.217  1.4054 -0.9882 -1.2374
 6127TIP3   OH240015   0.513   6.488   0.253 -0.0446  0.4439 -0.3139
 6127TIP3    H140016   0.584   6.536   0.296  1.8722 -1.7730 -0.8311
 6127TIP3    H240017   0.549   6.464   0.167 -2.4207  1.4921 -1.7200
 6128TIP3   OH240018   5.212   1.792   8.028  0.0682  0.0458  0.1150
 6128TIP3    H140019   5.225   1.761   7.939  0.9858  1.6222 -0.3203
 6128TIP3    H240020   5.119   1.776   8.045 -0.6234  1.6127 -1.8684
 6129TIP3   OH240021   3.353   4.281   1.628  0.4996 -0.6673 -0.2421
 6129TIP3    H140022   3.424   4.323   1.676  0.1204 -1.1270  0.7625
 6129TIP3    H240023   3.284   4.270   1.694 -0.2472 -0.8145 -1.0388
 6130TIP3   OH240024   6.634   6.076   7.186  0.7786 -0.1172  0.1247
 6130TIP3    H140025   6.552   6.086   7.234  0.5270  0.8455 -0.4935
 6130TIP3    H240026   6.610   6.089   7.094  1.8200  1.3922  0.0428
 6131TIP3   OH240027   3.266   0.812   1.851  0.1694 -0.0043  0.3313
 6131TIP3    H140028   3.216   0.883   1.810  1.9770  0.8910 -0.4314
 6131TIP3    H240029   3.247   0.735   1.797 -0.8449  0.1715  0.4282
 6132TIP3   OH240030   4.833   3.298   0.875 -0.5751 -0.3543  0.2368
 6132TIP3    H140031   4.840   3.211   0.835 -1.3395 -0.4667  0.3442
 6132TIP3    H240032   4.870   3.286   0.963  1.6890  0.0355 -0.5819
 6133TIP3   OH240033   0.964   0.192   0.555  0.3397 -0.3029 -0.9050
 6133TIP3    H140034   0.990   0.284   0.563 -0.4410  0.0234 -1.9443
 6133TIP3    H240035   1.043   0.148   0.525  0.3623  0.2605 -1.6888
 6134TIP3   OH240036   1.679   6.327   0.831  0.1815 -0.3634  0.0315
 6134TIP3    H140037   1.623   6.393   0.872  0.7123  0.1170 -0.0120
 6134TIP3    H240038   1.726   6.286   0.903  1.6130  0.9345 -0.1023
 6135TIP3   OH240039   1.033   2.256   1.986 -0.1965 -0.0565 -0.7362
 6135TIP3    H140040   1.078   2.201   1.922  3.4570  1.1890  0.5066
 6135TIP3    H240041   1.042   2.208   2.069 -3.0066 -0.6563 -0.6760
 6136TIP3   OH240042   4.125   3.448   2.104 -0.1794  0.0043  0.0822
 6136TIP3    H140043   4.126   3.382   2.035  0.7423 -0.8820  0.9292
 6136TIP3    H240044   4.100   3.400   2.183 -0.2551  0.8181  0.5617
 6137TIP3   OH240045   0.945   5.071   6.835  0.3720  0.0174  0.0473
 6137TIP3    H140046   0.877   5.121   6.790 -0.4329 -0.5082  0.6585
 6137TIP3    H240047   0.900   4.994   6.870  1.3187 -0.4414  0.2952
 6138TIP3   OH240048   3.354   1.421   1.975 -0.2160  0.9099 -0.0041
 6138TIP3    H140049   3.392   1.458   2.055 -1.7687  0.5688  0.9460
 6138TIP3    H240050   3.352   1.327   1.991  1.2435  0.6244 -1.2925
 6139TIP3   OH240051   5.922   0.379   6.770 -0.9256  0.3111 -0.4772
 6139TIP3    H140052   5.888   0.331   6.695  1.5387  0.3050 -1.6827
 6139TIP3    H240053   5.895   0.470   6.755 -2.4785 -0.0545 -0.0754
 6140TIP3   OH240054   4.132   2.973   1.037  0.1501 -0.0837  1.0766
 6140TIP3    H140055   4.134   2.963   1.132  1.3883  1.0465  1.2060
 6140TIP3    H240056   4.223   2.994   1.014 -0.3017  0.4953 -0.2524
 6141TIP3   OH240057   2.133   3.175   8.359  0.1414 -0.5099  0.2090
 6141TIP3    H140058   2.051   3.191   8.313  0.8456 -0.2744 -1.0158
 6141TIP3    H240059   2.140   3.246   8.422  0.7770  1.2193 -1.6901
 6142TIP3   OH240060   4.779   5.151   0.593  0.6038 -0.0728 -0.4229
 6142TIP3    H140061   4.839   5.131   0.664  0.2030 -0.8026 -0.2761
 6142TIP3    H240062   4.831   5.141   0.514  0.9023  0.1593 -0.2535
 6143TIP3   OH240063   3.804   4.359   8.197  0.0949  0.5638 -0.2488
 6143TIP3    H140064   3.796   4.423   8.267  2.1512  0.8589 -0.2097
 6143TIP3    H240065   3.813   4.412   8.118  0.0717  0.2837 -0.4397
 6144TIP3   OH240066   3.345   4.794   1.762 -0.5141  0.3336 -0.1680
 6144TIP3    H140067   3.390   4.803   1.678  1.5526  0.0447  0.8664
 6144TIP3    H240068   3.390   4.855   1.820 -0.5489 -0.9654  1.2708
 6145TIP3   OH240069   5.020   2.494   2.023 -0.3654  0.0040  0.0407
 6145TIP3    H140070   5.006   2.490   2.118  0.1920 -0.3772  0.1087
 6145TIP3    H240071   4.933   2.478   1.986 -0.3820 -1.0142  0.4832
 6146TIP3   OH240072   4.395   6.618   8.572  0.2222 -0.5223 -0.0383
 6146TIP3    H140073   4.385   6.630   8.478  1.3002 -2.1149 -0.3950
 6146TIP3    H240074   4.448   6.692   8.600 -1.5268  0.9250 -0.3252
 6147TIP3   OH240075   2.844   0.436   1.450 -0.3495  0.0311  0.8282
 6147TIP3    H140076   2.788   0.425   1.373  1.0505  1.2186 -0.4189
 6147TIP3    H240077   2.791   0.486   1.512 -0.9884  0.3325  0.0555
 6148TIP3   OH240078   0.707   6.027   2.377 -0.1271  0.1649  0.4384
 6148TIP3    H140079   0.643   5.976   2.427 -1.0148  0.2960 -0.5193
 6148TIP3    H240080   0.726   6.102   2.433 -0.8662  0.1566  0.7191
 6149TIP3   OH240081   5.793   6.428   0.644  0.3653 -0.5121  0.5318
 6149TIP3    H140082   5.805   6.451   0.736 -0.9426  0.2053  0.5494
 6149TIP3    H240083   5.702   6.397   0.639  1.0220 -2.5075 -0.1462
 6150TIP3   OH240084   4.571   0.803   0.928  0.4084  0.0677  0.0342
 6150TIP3    H140085   4.512   0.758   0.869  0.6627 -0.7306  0.3750
 6150TIP3    H240086   4.523   0.809   1.011  0.6909 -0.3391  0.2326
 6151TIP3   OH240087   1.766   3.257   8.513  0.3378  0.0898 -0.2941
 6151TIP3    H140088   1.696   3.316   8.542 -1.1813 -0.6358 -2.2573
 6151TIP3    H240089   1.721   3.173   8.499  1.9628 -0.8734  0.0192
 6152TIP3   OH240090   4.431   3.653   2.137  0.2833  0.0962  0.1331
 6152TIP3    H140091   4.423   3.633   2.230  0.6445  2.0690  0.6290
 6152TIP3    H240092   4.432   3.567   2.094  1.0264 -0.8874  2.0045
 6153TIP3   OH240093   2.851   2.325   1.456  0.3424 -0.3207 -0.2927
 6153TIP3    H140094   2.815   2.264   1.391  1.7695  1.0725 -2.5287
 6153TIP3    H240095   2.775   2.375   1.486 -0.4166 -1.2787 -0.5651
 6154TIP3   OH240096   1.054   1.494   8.573  0.1741 -0.3796 -0.3936
 6154TIP3    H140097   1.028   1.409   8.537  0.2587  0.0168 -1.4462
 6154TIP3    H240098   0.972   1.538   8.594  0.1200 -0.5785 -0.1852
 6155TIP3   OH240099   4.713   6.275   8.075  0.7224 -0.2460  0.3460
 6155TIP3    H140100   4.632   6.308   8.114  0.2158  0.3348 -1.1580
 6155TIP3    H240101   4.714   6.182   8.100 -0.2596 -0.2006  0.6279
 6156TIP3   OH240102   2.953   0.174   0.035 -0.0162 -0.5298 -0.2579
 6156TIP3    H140103   2.991   0.245   0.086 -0.0693  0.6124 -1.7264
 6156TIP3    H240104   2.891   0.132   0.095  0.8985 -0.1155  1.0141
 6157TIP3   OH240105   5.657   4.908   1.417 -0.9519 -0.0921  0.3685
 6157TIP3    H140106   5.675   4.961   1.339  0.0461  0.0490  0.6865
 6157TIP3    H240107   5.644   4.820   1.384 -0.1244 -0.1113  0.0744
 6158TIP3   OH240108   4.402   4.464   2.039  0.2011 -0.1001 -0.1417
 6158TIP3    H140109   4.484   4.481   2.087 -0.1057  1.4301 -0.1205
 6158TIP3    H240110   4.401   4.529   1.969 -1.8674  1.1473  0.9583
 6159TIP3   OH240111   6.281   6.736   1.805  0.0260  0.2167 -0.0978
 6159TIP3    H140112   6.298   6.793   1.880 -1.5046 -0.7687  1.0686
 6159TIP3    H240113   6.364   6.691   1.791  0.6558  1.2160  0.2897
 6160TIP3   OH240114   6.058   3.047   6.372  0.0696  0.1763  0.1227
 6160TIP3    H140115   5.970   3.054   6.409  0.6420  0.7881  1.4536
 6160TIP3    H240116   6.091   2.963   6.405  0.6391  0.7943  1.1827
 6161TIP3   OH240117   3.071   4.373   0.725 -0.2932  0.0989 -0.0415
 6161TIP3    H140118   2.977   4.354   0.729 -0.5263 -0.0813 -3.6465
 6161TIP3    H240119   3.111   4.289   0.699  0.4865  0.8337 -1.3041
 6162TIP3   OH240120   2.821   1.036   0.005 -0.1419  0.1921  1.0761
 6162TIP3    H140121   2.912   1.007   0.000 -0.3576 -0.3998  0.3955
 6162TIP3    H240122   2.826   1.131   0.012  0.5239  0.1999  0.5134
 6163TIP3   OH240123   3.818   4.669   7.281  0.6712  0.0396  0.0615
 6163TIP3    H140124   3.817   4.600   7.216 -1.2113 -3.0293  3.0013
 6163TIP3    H240125   3.907   4.669   7.316  0.4214 -1.8381  0.8020
 6164TIP3   OH240126   4.098   3.525   0.445  0.2699  0.5238  0.1401
 6164TIP3    H140127   4.104   3.444   0.395  1.7465  0.3196  0.5947
 6164TIP3    H240128   4.174   3.522   0.504 -1.3377  0.7527  2.3777
 6165TIP3   OH240129   5.697   5.942   0.328 -0.0645 -0.2370 -0.0846
 6165TIP3    H140130   5.736   5.985   0.404  0.2815 -0.0370 -0.3680
 6165TIP3    H240131   5.648   6.011   0.284 -2.4662 -0.9346  1.3604
 6166TIP3   OH240132   6.598   4.328   6.607  0.5591 -0.2336 -0.4119
 6166TIP3    H140133   6.542   4.405   6.593 -0.5458 -0.2838  2.8062
 6166TIP3    H240134   6.659   4.356   6.676  0.6247 -1.9810  0.2816
 6167TIP3   OH240135   1.574   4.450   0.421 -0.3080 -0.3975  0.1603
 6167TIP3    H140136   1.555   4.445   0.515  0.5295  1.1614  0.4385
 6167TIP3    H240137   1.632   4.376   0.404 -0.7901 -0.9281  0.7750
 6168TIP3   OH240138   6.323   2.091   1.571 -0.2888 -0.5814  0.1169
 6168TIP3    H140139   6.359   2.003   1.564 -1.0894 -0.7821 -2.2101
 6168TIP3    H240140   6.235   2.079   1.605 -1.0583 -0.9262 -1.8497
 6169TIP3   OH240141   5.283   2.554   7.303 -0.1224 -0.4105  0.3474
 6169TIP3    H140142   5.217   2.495   7.267 -0.3270 -0.8684  1.4095
 6169TIP3    H240143   5.341   2.574   7.230 -0.4571 -1.3698 -0.1904
 6170TIP3   OH240144   6.180   0.891   1.164 -0.6151  0.3838  0.3963
 6170TIP3    H140145   6.204   0.928   1.079 -2.2007 -0.5288 -0.4913
 6170TIP3    H240146   6.138   0.964   1.210 -0.3931  0.6928  0.1227
 6171TIP3   OH240147   1.442   2.681   8.490  0.4035 -0.5058  0.1641
 6171TIP3    H140148   1.523   2.631   8.494 -1.5869 -4.1001  0.1077
 6171TIP3    H240149   1.405   2.672   8.578 -0.5401 -0.0250 -0.1722
 6172TIP3   OH240150   0.886   5.093   2.146 -0.0366 -0.0986 -0.2626
 6172TIP3    H140151   0.806   5.140   2.171 -0.2658 -1.2230  1.2570
 6172TIP3    H240152   0.911   5.045   2.225 -0.2616 -3.1797 -1.9367
 6173TIP3   OH240153   6.105   6.827   7.465  0.0835  0.1117  0.1992
 6173TIP3    H140154   6.088   6.737   7.495  0.7114 -0.0780  0.0104
 6173TIP3    H240155   6.039   6.843   7.398 -0.5304  0.0776  0.7899
 6174TIP3   OH240156   4.893   5.536   1.912  0.9966  0.2483 -0.3273
 6174TIP3    H140157   4.851   5.450   1.902  0.4943  0.5569 -0.9334
 6174TIP3    H240158   4.947   5.527   1.991  0.7235 -0.5305 -0.2165
 6175TIP3   OH240159   4.367   4.932   0.111 -0.6352 -1.0231  0.2621
 6175TIP3    H140160   4.306   4.989   0.158  0.2363  0.5578 -0.4544
 6175TIP3    H240161   4.446   4.931   0.166 -0.2797 -0.6854 -0.2363
 6176TIP3   OH240162   6.382   2.599   1.469  0.0816  0.1651  0.3842
 6176TIP3    H140163   6.338   2.515   1.476  0.7554 -0.1467  1.0087
 6176TIP3    H240164   6.425   2.611   1.554  3.0601 -0.5983 -0.8885
 6177TIP3   OH240165   6.374   3.038   7.054  0.0590 -0.2217 -0.0383
 6177TIP3    H140166   6.449   3.021   7.111 -1.0581 -1.4126  1.1508
 6177TIP3    H240167   6.362   2.958   7.004 -0.7242 -0.2377  0.1597
 6178TIP3   OH240168   6.797   4.417   0.676  0.5036  0.8006 -0.0155
 6178TIP3    H140169   6.838   4.403   0.590  1.7080 -0.4232  0.7131
 6178TIP3    H240170   6.842   4.355   0.734 -0.7306  1.1560  1.3684
 6179TIP3   OH240171   4.109   1.998   6.539 -0.9038 -0.2463 -0.6792
 6179TIP3    H140172   4.043   1.948   6.491 -0.7551 -0.2280 -0.9058
 6179TIP3    H240173   4.188   1.945   6.534 -0.1595  0.9405 -2.7445
 6180TIP3   OH240174   0.348   1.545   6.607  0.3120  0.1512  0.4854
 6180TIP3    H140175   0.316   1.613   6.547  1.3373  0.8577  0.7059
 6180TIP3    H240176   0.318   1.463   6.569  0.6266  0.6152 -0.7929
 6181TIP3   OH240177   0.785   1.313   8.404  0.0934  0.1970 -0.0146
 6181TIP3    H140178   0.712   1.253   8.392  0.1856  0.1094 -0.1477
 6181TIP3    H240179   0.765   1.361   8.484 -0.0239  0.0509  0.0423
 6182TIP3   OH240180   0.634   2.007   1.847  0.4966  0.0795  0.4645
 6182TIP3    H140181   0.638   1.967   1.934 -1.8403  1.2088  1.1682
 6182TIP3    H240182   0.689   2.085   1.854 -2.2426  2.0560  2.1282
 6183TIP3   OH240183   5.457   4.418   0.883  0.4608  0.1545  0.0752
 6183TIP3    H140184   5.452   4.513   0.870  2.0382  0.4300  1.1588
 6183TIP3    H240185   5.467   4.408   0.978 -0.1274 -1.1292  0.0088
 6184TIP3   OH240186   2.308   6.021   7.836  0.0889  0.8699  0.4778
 6184TIP3    H140187   2.249   6.010   7.910 -1.1829  2.0510 -0.2979
 6184TIP3    H240188   2.293   6.111   7.807 -1.8256 -0.3896 -3.0997
 6185TIP3   OH240189   0.238   1.695   2.538  0.0794  0.0056  0.5567
 6185TIP3    H140190   0.331   1.701   2.561  0.4288  1.0171 -0.9220
 6185TIP3    H240191   0.238   1.655   2.451 -0.6716  1.9914 -0.4306
 6186TIP3   OH240192   4.687   4.111   1.318 -0.4106  0.8116  0.4087
 6186TIP3    H140193   4.723   4.194   1.350 -1.1965  1.7072 -0.9624
 6186TIP3    H240194   4.595   4.129   1.303 -0.0241  0.6882 -2.9325
 6187TIP3   OH240195   3.011   2.075   0.872  0.5500 -0.3089 -0.4429
 6187TIP3    H140196   2.964   2.129   0.936  0.1293  0.6414 -1.5034
 6187TIP3    H240197   2.950   2.003   0.853  0.7544 -0.7014  0.3409
 6188TIP3   OH240198   0.944   4.131   0.420 -0.5746 -0.2438  0.0695
 6188TIP3    H140199   0.873   4.108   0.480  0.5326 -0.1306  1.4722
 6188TIP3    H240200   0.954   4.226   0.429 -0.5875 -0.1853 -0.5116
 6189TIP3   OH240201   2.630   2.745   0.113  0.8032  0.0348  0.4587
 6189TIP3    H140202   2.542   2.740   0.076  0.4298 -1.1872  1.4692
 6189TIP3    H240203   2.629   2.823   0.169  0.6588  0.5403 -0.2323
 6190TIP3   OH240204   2.902   4.188   7.265  0.4474 -0.1268 -0.8345
 6190TIP3    H140205   2.991   4.172   7.232  1.0801  1.2511  0.1276
 6190TIP3    H240206   2.913   4.198   7.359 -0.9470 -1.2728 -0.5155
 6191TIP3   OH240207   3.667   4.047   0.488  0.4454  0.7775  0.2089
 6191TIP3    H140208   3.722   4.035   0.410  0.6592  0.9761  0.3259
 6191TIP3    H240209   3.602   4.112   0.462  1.1535  1.6365  0.5046
 6192TIP3   OH240210   4.350   4.115   0.590 -0.1862 -0.4085 -0.8780
 6192TIP3    H140211   4.343   4.121   0.494 -0.2279  3.4789 -0.8051
 6192TIP3    H240212   4.262   4.135   0.621 -0.0958 -1.3442  0.0140
 6193TIP3   OH240213   3.825   1.319   1.872  0.1157 -0.0204 -0.1503
 6193TIP3    H140214   3.894   1.351   1.930 -0.7783  0.6472  0.5684
 6193TIP3    H240215   3.808   1.230   1.902  1.0059 -0.3796 -0.6669
 6194TIP3   OH240216   6.617   1.551   8.585  0.2318 -0.2291  0.9036
 6194TIP3    H140217   6.532   1.529   8.621  0.1985  0.2247  1.0980
 6194TIP3    H240218   6.598   1.605   8.508  0.3581  0.2808  1.2298
 6195TIP3   OH240219   0.988   0.463   0.519  0.3281 -0.4594 -0.4280
 6195TIP3    H140220   0.963   0.545   0.477 -0.4854 -0.3180  0.3204
 6195TIP3    H240221   1.072   0.483   0.562 -1.0406  0.7707  1.8858
 6196TIP3   OH240222   0.285   4.845   0.211  0.5249 -0.3971 -0.2968
 6196TIP3    H140223   0.228   4.870   0.138 -0.2550 -1.9576 -0.2735
 6196TIP3    H240224   0.276   4.915   0.275  1.1141  0.9406 -1.6221
 6197TIP3   OH240225   0.898   4.346   1.168 -0.0083 -0.2657  0.3156
 6197TIP3    H140226   0.989   4.317   1.175 -0.7142 -2.9813 -0.5340
 6197TIP3    H240227   0.858   4.320   1.251 -0.7155 -2.1361 -0.5564
 6198TIP3   OH240228   3.638   1.275   7.386  0.3251 -0.0560 -0.5578
 6198TIP3    H140229   3.607   1.358   7.349 -0.7763 -0.6036 -0.9174
 6198TIP3    H240230   3.634   1.213   7.312  0.5933 -0.5572 -0.1578
 6199TIP3   OH240231   4.584   3.418   8.719 -0.1985  0.2303 -0.0214
 6199TIP3    H140232   4.553   3.467   8.642  0.2689 -1.6146 -1.4600
 6199TIP3    H240233   4.578   3.481   8.791 -0.9348  1.9556 -1.4966
 6200TIP3   OH240234   3.895   4.511   2.074  0.3583  0.3575  0.0212
 6200TIP3    H140235   3.938   4.426   2.068 -0.0396  0.1777 -0.3530
 6200TIP3    H240236   3.954   4.565   2.126  0.3617 -0.3100  0.7159
 6201TIP3   OH240237   0.258   1.230   7.404 -0.4621 -0.1849  0.4340
 6201TIP3    H140238   0.175   1.190   7.429 -0.2055  0.3818  2.3331
 6201TIP3    H240239   0.239   1.275   7.322 -2.3203  0.7652  1.3323
 6202TIP3   OH240240   0.660   1.228   1.879 -0.5768  0.1770  0.3268
 6202TIP3    H140241   0.575   1.249   1.918 -0.6234  1.4676 -0.3898
 6202TIP3    H240242   0.723   1.240   1.950 -0.9662 -0.6159  0.8173
 6203TIP3   OH240243   0.746   5.978   7.808 -0.0208  0.4148 -0.3484
 6203TIP3    H140244   0.708   6.060   7.838  1.2801  1.1359 -0.5925
 6203TIP3    H240245   0.760   5.990   7.714  2.4955  0.9351  0.0173
 6204TIP3   OH240246   4.997   1.674   0.208  1.2128 -0.0961  0.1412
 6204TIP3    H140247   4.987   1.666   0.303  4.0915 -0.8886  0.4560
 6204TIP3    H240248   4.923   1.624   0.173  0.2558 -0.0453  1.9219
 6205TIP3   OH240249   4.917   1.668   7.848 -0.0220  0.1656  0.3396
 6205TIP3    H140250   4.995   1.662   7.794  0.2262 -1.5516  0.8306
 6205TIP3    H240251   4.938   1.618   7.927 -1.2475  0.5607  0.9448
 6206TIP3   OH240252   4.550   3.605   0.452 -0.1993 -0.0145  0.3336
 6206TIP3    H140253   4.547   3.605   0.356 -1.3438 -0.9870  0.3445
 6206TIP3    H240254   4.507   3.687   0.477  1.5436  1.0493  0.0307
 6207TIP3   OH240255   2.245   0.042   2.506  0.4281  0.4071 -0.3878
 6207TIP3    H140256   2.159   0.001   2.500  0.9410 -0.8736  0.5736
 6207TIP3    H240257   2.228   0.125   2.552 -0.6681  1.5546 -2.6805
 6208TIP3   OH240258   2.347   6.689   0.480 -0.1954 -0.5038 -0.6333
 6208TIP3    H140259   2.296   6.609   0.467  1.5197 -1.9627  1.0150
 6208TIP3    H240260   2.424   6.677   0.426  0.6527 -0.5871  0.5421
 6209TIP3   OH240261   4.063   6.673   7.172 -0.0122  0.4252 -0.3300
 6209TIP3    H140262   4.049   6.738   7.103 -0.5731  1.5423  0.7861
 6209TIP3    H240263   4.158   6.670   7.183  0.0052  1.3945 -0.1149
 6210TIP3   OH240264   2.228   1.766   7.270  0.1948 -0.4157  0.3867
 6210TIP3    H140265   2.183   1.699   7.219  1.0489 -1.1020  0.5055
 6210TIP3    H240266   2.312   1.779   7.225  0.8040 -0.7639  1.3843
 6211TIP3   OH240267   4.503   3.174   8.633 -0.0018  0.7033  0.0916
 6211TIP3    H140268   4.421   3.188   8.586 -0.6510  0.6189  1.1645
 6211TIP3    H240269   4.507   3.244   8.698  1.6480  1.7532 -1.0556
 6212TIP3   OH240270   1.816   6.681   7.971 -0.2837  0.1674  0.3726
 6212TIP3    H140271   1.846   6.770   7.955  0.1743  0.0862  0.7712
 6212TIP3    H240272   1.890   6.626   7.948 -0.7833 -0.1539 -0.4842
 6213TIP3   OH240273   3.387   0.734   0.804 -0.4678  0.5666 -0.1183
 6213TIP3    H140274   3.473   0.714   0.767 -0.1770 -0.8654  1.2281
 6213TIP3    H240275   3.381   0.830   0.800  1.4511  0.7392  0.3473
 6214TIP3   OH240276   3.212   4.144   0.672  0.5270 -0.0106  0.5924
 6214TIP3    H140277   3.300   4.181   0.675  1.2007 -1.3938 -0.7506
 6214TIP3    H240278   3.221   4.056   0.709  0.5030 -1.4821 -2.6102
 6215TIP3   OH240279   6.595   3.539   1.322 -0.0902  0.5827 -0.1680
 6215TIP3    H140280   6.540   3.485   1.378  1.6269  1.4196  2.5114
 6215TIP3    H240281   6.535   3.572   1.255 -1.8070 -2.1715 -0.1565
 6216TIP3   OH240282   3.088   6.457   0.880 -0.2045  0.1897 -0.2292
 6216TIP3    H140283   3.090   6.500   0.795  1.3186  0.5261 -0.0568
 6216TIP3    H240284   3.160   6.497   0.929 -0.4162 -0.7072  0.8582
 6217TIP3   OH240285   1.293   2.940   1.871 -0.5133  0.0011 -0.0628
 6217TIP3    H140286   1.328   2.880   1.805 -1.9579 -0.5829 -0.3369
 6217TIP3    H240287   1.207   2.967   1.836  0.1799  2.4434 -0.0602
 6218TIP3   OH240288   2.269   0.267   0.981  0.3086 -0.1867 -0.5418
 6218TIP3    H140289   2.306   0.356   0.978 -0.9068  0.3010 -1.6327
 6218TIP3    H240290   2.201   0.267   0.915 -0.3566 -1.6654  0.1077
 6219TIP3   OH240291   5.646   0.580   1.172 -0.5343  0.1869 -0.7035
 6219TIP3    H140292   5.553   0.582   1.193 -0.1433 -0.8804  1.3566
 6219TIP3    H240293   5.689   0.563   1.256  1.3635 -1.5476 -1.9299
 6220TIP3   OH240294   5.328   3.415   8.325 -0.4042 -0.3665  0.0380
 6220TIP3    H140295   5.295   3.438   8.238 -2.2567 -2.6991  0.0236
 6220TIP3    H240296   5.407   3.364   8.307 -0.1075  0.1583 -0.1927
 6221TIP3   OH240297   4.330   5.442   7.426 -0.0545  0.3161  0.0276
 6221TIP3    H140298   4.304   5.408   7.511 -0.3440 -1.4286 -0.7157
 6221TIP3    H240299   4.412   5.489   7.442  0.8072 -1.4388  1.0072
 6222TIP3   OH240300   1.498   6.695   8.756 -0.0188 -0.2055 -0.3896
 6222TIP3    H140301   1.526   6.679   8.845 -1.0800  0.5753  0.1102
 6222TIP3    H240302   1.539   6.626   8.704 -0.7000 -1.6473  0.9397
 6223TIP3   OH240303   2.515   0.074   7.377  0.1269 -0.3523 -0.4290
 6223TIP3    H140304   2.546   0.156   7.338  1.6607 -0.2323  0.9566
 6223TIP3    H240305   2.511   0.013   7.304 -1.8447  1.1193 -1.6614
 6224TIP3   OH240306   4.530   2.213   0.192  0.7518  0.5543 -0.1444
 6224TIP3    H140307   4.562   2.208   0.283  2.5058 -0.1727 -0.7644
 6224TIP3    H240308   4.609   2.207   0.139 -0.3383  0.0030 -1.7524
 6225TIP3   OH240309   2.035   1.417   8.494  0.3008  0.4412  0.1105
 6225TIP3    H140310   2.122   1.440   8.529  0.4579  1.9096 -1.1523
 6225TIP3    H240311   2.054   1.357   8.422 -0.0515 -3.0593  2.6387
 6226TIP3   OH240312   6.547   0.327   2.635 -0.1374  0.2718  0.1617
 6226TIP3    H140313   6.477   0.284   2.585 -0.2367 -0.6666  1.0702
 6226TIP3    H240314   6.509   0.411   2.661 -1.4639 -0.7490  1.7462
 6227TIP3   OH240315   3.662   6.427   1.777  0.3813  0.5439 -0.0382
 6227TIP3    H140316   3.664   6.510   1.825  0.5680  0.3579  0.2786
 6227TIP3    H240317   3.659   6.360   1.845  0.7832  0.2726 -0.2794
 6228TIP3   OH240318   3.423   6.417   2.597  0.3536 -0.0589  0.5302
 6228TIP3    H140319   3.379   6.374   2.523  1.1752 -1.4616  0.8159
 6228TIP3    H240320   3.516   6.413   2.575  0.4761  1.4695  0.6621
 6229TIP3   OH240321   5.009   0.764   1.069  0.1716  0.3753 -0.0543
 6229TIP3    H140322   4.985   0.673   1.053  1.4153  0.1743 -0.9431
 6229TIP3    H240323   5.102   0.760   1.094 -0.3614  1.1829  2.3206
 6230TIP3   OH240324   3.871   0.097   1.310 -0.7347 -0.2239  0.4452
 6230TIP3    H140325   3.805   0.153   1.350 -1.4670 -0.5841 -0.2370
 6230TIP3    H240326   3.863   0.013   1.355  0.4746  0.2414  1.5811
 6231TIP3   OH240327   3.004   0.250   8.522  0.3972 -0.3738  0.5696
 6231TIP3    H140328   3.015   0.205   8.439 -0.2183  0.9791 -0.2941
 6231TIP3    H240329   2.910   0.266   8.528  0.6704  1.6380  0.3184
 6232TIP3   OH240330   0.687   1.477   7.551  0.1430  0.1160 -0.1081
 6232TIP3    H140331   0.593   1.498   7.545 -0.2673 -1.0865  1.5275
 6232TIP3    H240332   0.718   1.529   7.625 -0.6525 -3.7936  3.3103
 6233TIP3   OH240333   3.803   1.739   6.753 -0.7503 -0.1205  0.0530
 6233TIP3    H140334   3.782   1.807   6.816 -0.8631 -0.0636 -0.0462
 6233TIP3    H240335   3.887   1.765   6.715 -0.4614 -0.3841  0.4999
 6234TIP3   OH240336   5.475   3.711   0.718 -0.4728 -0.3900 -0.4722
 6234TIP3    H140337   5.396   3.762   0.734  0.5017  0.4028  2.6528
 6234TIP3    H240338   5.461   3.630   0.769  1.4267  0.6422  1.8622
 6235TIP3   OH240339   0.402   3.352   0.753 -0.3058 -0.4691  0.6278
 6235TIP3    H140340   0.384   3.446   0.761  0.3265 -0.3754  1.0181
 6235TIP3    H240341   0.383   3.317   0.840 -0.1870 -0.6387  0.5854
 6236TIP3   OH240342   6.449   1.124   0.739  0.3248 -0.1669  0.0124
 6236TIP3    H140343   6.375   1.183   0.755 -0.2578 -0.7852 -0.3490
 6236TIP3    H240344   6.436   1.093   0.650 -0.2618 -2.0632  0.7077
 6237TIP3   OH240345   5.488   6.171   1.058  0.0761 -0.3825  0.3776
 6237TIP3    H140346   5.419   6.114   1.090  0.9437 -0.8778  1.4295
 6237TIP3    H240347   5.545   6.113   1.007  1.0498 -0.5256  1.5877
 6238TIP3   OH240348   0.955   0.779   7.705 -0.4572  0.0403  0.3182
 6238TIP3    H140349   0.933   0.692   7.672  0.4753 -0.9699  2.2490
 6238TIP3    H240350   0.895   0.838   7.658 -0.9174 -1.5812 -1.2251
 6239TIP3   OH240351   5.605   2.563   2.605  0.7378 -0.4292 -0.8289
 6239TIP3    H140352   5.541   2.630   2.579  2.1404  1.1606 -0.3609
 6239TIP3    H240353   5.567   2.522   2.683  0.5026  0.8606 -0.2448
 6240TIP3   OH240354   3.015   1.980   8.552 -0.8113  0.0857  0.2836
 6240TIP3    H140355   3.019   2.066   8.594  0.8920  0.3412 -0.3159
 6240TIP3    H240356   2.923   1.956   8.556 -1.2486  1.7115  0.9175
 6241TIP3   OH240357   5.328   3.023   0.280  0.4184 -0.2406  0.2723
 6241TIP3    H140358   5.322   3.087   0.350  1.2378 -1.4621  1.5190
 6241TIP3    H240359   5.284   2.945   0.315 -0.3619 -0.4597 -1.1175
 6242TIP3   OH240360   2.000   0.260   2.379  0.4948 -0.1101  0.3575
 6242TIP3    H140361   2.009   0.165   2.387 -0.5323 -0.1810  0.8065
 6242TIP3    H240362   1.929   0.272   2.316  0.8680  0.3691  0.0223
 6243TIP3   OH240363   0.429   4.607   7.759  0.3353 -0.4191 -0.2184
 6243TIP3    H140364   0.404   4.534   7.703  1.2251 -1.1363  0.2942
 6243TIP3    H240365   0.510   4.640   7.721 -0.7276  1.1579 -1.2008
 6244TIP3   OH240366   4.920   3.779   6.824  0.9137 -0.5743 -0.8839
 6244TIP3    H140367   4.946   3.841   6.756 -0.1841  1.4215  0.3857
 6244TIP3    H240368   4.978   3.800   6.898 -0.7057  0.3527  0.2071
 6245TIP3   OH240369   3.714   5.463   1.248  0.2707 -0.3411 -0.5819
 6245TIP3    H140370   3.669   5.379   1.253 -1.2559  0.4209 -0.6498
 6245TIP3    H240371   3.800   5.443   1.213  0.4551 -2.0422  0.6927
 6246TIP3   OH240372   1.416   6.309   7.520  0.3013  0.0757  0.3181
 6246TIP3    H140373   1.356   6.310   7.595 -0.5577  2.2585 -0.3203
 6246TIP3    H240374   1.457   6.396   7.522  2.4152 -0.8483 -0.1178
 6247TIP3   OH240375   3.818   4.845   8.171 -0.3194  0.6022 -0.2424
 6247TIP3    H140376   3.793   4.861   8.080  0.8983  0.3059 -0.6457
 6247TIP3    H240377   3.893   4.786   8.166  0.0342  0.9072  0.9393
 6248TIP3   OH240378   5.325   1.946   2.295  0.0279 -0.2183 -0.4145
 6248TIP3    H140379   5.356   1.868   2.341 -1.4945 -1.0600 -0.7297
 6248TIP3    H240380   5.404   1.996   2.276  1.1837 -2.2549 -1.2509
 6249TIP3   OH240381   1.436   2.850   0.687 -0.9652 -0.1786  0.4067
 6249TIP3    H140382   1.348   2.873   0.658 -1.4252 -0.6958  1.3258
 6249TIP3    H240383   1.468   2.928   0.733 -1.2360 -0.2464  0.7103
 6250TIP3   OH240384   1.750   6.511   0.360 -0.0521  0.5286 -0.4867
 6250TIP3    H140385   1.697   6.534   0.436 -0.9902  1.7287 -1.4763
 6250TIP3    H240386   1.732   6.418   0.345 -2.2677  1.0115 -1.0800
 6251TIP3   OH240387   4.318   4.916   8.094  0.0241 -0.4635  0.1506
 6251TIP3    H140388   4.408   4.916   8.061  0.2345 -1.1250  0.6984
 6251TIP3    H240389   4.304   5.005   8.125  1.1892 -0.8247  1.8894
 6252TIP3   OH240390   0.849   4.759   0.850  0.3092  0.0484 -0.3323
 6252TIP3    H140391   0.906   4.709   0.792  0.5133  1.1445 -1.1143
 6252TIP3    H240392   0.760   4.730   0.829  0.5144 -1.1125  0.3478
 6253TIP3   OH240393   3.597   1.731   6.393 -0.1907 -0.2784  0.6173
 6253TIP3    H140394   3.594   1.638   6.417 -1.9896 -0.3519  0.2356
 6253TIP3    H240395   3.509   1.763   6.410  0.2458  1.2302  0.1778
 6254TIP3   OH240396   5.993   1.752   7.136 -0.4013  0.1994  0.2300
 6254TIP3    H140397   6.086   1.746   7.158 -0.7967  0.1293  2.0324
 6254TIP3    H240398   5.991   1.750   7.041  1.5369  1.7038  0.1059
 6255TIP3   OH240399   6.180   3.620   0.726 -0.3407 -0.1737 -0.8287
 6255TIP3    H140400   6.228   3.554   0.777 -1.4783 -1.4576 -1.3596
 6255TIP3    H240401   6.112   3.652   0.785 -0.3921 -0.1830 -0.8826
 6256TIP3   OH240402   4.977   0.070   0.242 -0.0243 -0.0843  0.3524
 6256TIP3    H140403   5.065   0.094   0.212 -0.2261  0.6002  0.2824
 6256TIP3    H240404   4.985   0.061   0.336  0.2529 -0.6244  0.2804
 6257TIP3   OH240405   0.086   6.612   1.086  0.0855 -0.2772 -0.2151
 6257TIP3    H140406   0.144   6.535   1.085 -0.0396 -0.3715 -1.2159
 6257TIP3    H240407   0.102   6.655   1.002 -1.5078 -0.4690 -0.6443
 6258TIP3   OH240408   0.795   1.875   8.411 -0.2223 -0.2287  0.1296
 6258TIP3    H140409   0.862   1.821   8.369  0.2144 -0.7019  1.3677
 6258TIP3    H240410   0.811   1.863   8.505 -2.1830 -0.5338  0.4561
 6259TIP3   OH240411   1.208   3.476   0.121 -0.1882  0.6096 -0.7321
 6259TIP3    H140412   1.178   3.560   0.156  2.3654  0.9303  0.9824
 6259TIP3    H240413   1.185   3.412   0.188 -0.4749  0.2445 -1.1748
 6260TIP3   OH240414   0.799   5.571   1.860  0.0971  0.2561  0.6818
 6260TIP3    H140415   0.873   5.516   1.833  0.2485 -0.0111  1.6263
 6260TIP3    H240416   0.785   5.550   1.952 -0.8749  0.6357  0.6334
 6261TIP3   OH240417   2.735   3.116   0.499 -0.1761  0.3285 -0.5753
 6261TIP3    H140418   2.794   3.188   0.481 -0.5447  0.6131 -0.6584
 6261TIP3    H240419   2.653   3.158   0.527 -0.1049 -0.0667  0.2716
 6262TIP3   OH240420   5.345   1.258   1.140  0.0930 -0.2406  0.7019
 6262TIP3    H140421   5.258   1.299   1.146  0.5890  0.8458  0.6145
 6262TIP3    H240422   5.331   1.181   1.084 -0.6755  0.3349  0.0778
 6263TIP3   OH240423   4.746   1.880   0.985 -0.3696  0.2061  0.2221
 6263TIP3    H140424   4.782   1.837   1.063 -1.0214 -1.2213 -0.2375
 6263TIP3    H240425   4.822   1.895   0.929 -0.0705  0.0961  0.5889
 6264TIP3   OH240426   5.725   0.266   1.403  0.4779  0.2631  0.5415
 6264TIP3    H140427   5.699   0.356   1.383  2.2855  0.3422 -2.0140
 6264TIP3    H240428   5.800   0.275   1.462  0.8386  0.4591  0.0570
 6265TIP3   OH240429   2.298   1.689   6.964 -0.4749 -0.2116  0.4595
 6265TIP3    H140430   2.271   1.754   6.900  2.2390  0.4403 -0.1715
 6265TIP3    H240431   2.249   1.610   6.940  0.0356  0.1472 -2.1644
 6266TIP3   OH240432   0.565   1.176   0.853 -0.0267  0.3243 -0.0104
 6266TIP3    H140433   0.615   1.104   0.892 -1.8254 -0.9092  0.1775
 6266TIP3    H240434   0.621   1.253   0.863  1.7008 -0.9233  0.3702
 6267TIP3   OH240435   0.295   6.429   7.228 -0.2204 -0.1954  0.7300
 6267TIP3    H140436   0.237   6.438   7.304 -0.2482 -0.2865  0.7197
 6267TIP3    H240437   0.268   6.499   7.169  0.3810  0.4291  1.1794
 6268TIP3   OH240438   1.738   6.698   0.989 -0.5763  0.0881  0.0858
 6268TIP3    H140439   1.688   6.663   0.916  0.5257 -0.8835 -0.2272
 6268TIP3    H240440   1.788   6.771   0.952 -1.6008  0.9585  0.3644
 6269TIP3   OH240441   1.457   4.109   1.555  0.2533  1.5917  0.4507
 6269TIP3    H140442   1.438   4.130   1.464  1.6579  2.3563  0.3122
 6269TIP3    H240443   1.424   4.184   1.605  0.8780  1.8822  0.4255
 6270TIP3   OH240444   0.144   5.112   6.747  0.4457 -0.3867  0.6403
 6270TIP3    H140445   0.178   5.180   6.689 -0.4166 -0.3636  0.1401
 6270TIP3    H240446   0.099   5.159   6.817  0.4246 -0.4345  0.6595
 6271TIP3   OH240447   3.998   0.801   6.692  0.0389 -0.3536  0.5222
 6271TIP3    H140448   3.907   0.790   6.665 -0.3230  0.7982  1.1859
 6271TIP3    H240449   4.042   0.838   6.615 -0.1071 -0.6834  0.2809
 6272TIP3   OH240450   4.315   3.052   7.384 -0.0072 -0.0518  0.1424
 6272TIP3    H140451   4.394   3.085   7.340  0.3268 -0.8683  0.1137
 6272TIP3    H240452   4.291   2.974   7.334 -0.9267  0.2741  0.0609
 6273TIP3   OH240453   1.350   4.056   2.608 -0.5682  0.1779 -0.2407
 6273TIP3    H140454   1.299   4.001   2.667  0.0777 -0.0082  0.1549
 6273TIP3    H240455   1.318   4.145   2.624  0.4301  0.2933  1.2941
 6274TIP3   OH240456   3.800   1.381   7.820  0.7272  0.1842 -0.0570
 6274TIP3    H140457   3.886   1.352   7.850  1.1152  1.8817  0.5750
 6274TIP3    H240458   3.815   1.416   7.732  0.5825  0.1000 -0.1176
 6275TIP3   OH240459   1.090   6.552   7.352 -0.7167  0.0124 -0.8178
 6275TIP3    H140460   1.128   6.529   7.437 -1.1089 -0.9596 -0.8970
 6275TIP3    H240461   1.134   6.634   7.328  0.8283 -0.7021 -0.5763
 6276TIP3   OH240462   3.825   0.110   0.324  0.2740 -0.3883 -0.8480
 6276TIP3    H140463   3.781   0.078   0.402  0.4139 -1.7789 -1.3085
 6276TIP3    H240464   3.918   0.104   0.344  0.3646 -2.1867 -1.6117
 6277TIP3   OH240465   4.948   5.577   8.192  0.4705  0.7959  0.0067
 6277TIP3    H140466   4.878   5.628   8.232 -0.0358  2.0126 -2.2371
 6277TIP3    H240467   4.936   5.590   8.098  1.1381 -2.4147 -0.6550
 6278TIP3   OH240468   1.168   5.201   0.504  0.2017 -0.1464  0.8469
 6278TIP3    H140469   1.216   5.201   0.587  0.6692  0.1304  0.5836
 6278TIP3    H240470   1.205   5.126   0.456 -3.3923 -3.5328  2.7234
 6279TIP3   OH240471   4.790   5.375   8.361 -0.2662  0.8100  0.3803
 6279TIP3    H140472   4.834   5.314   8.421 -1.3604  0.4416  0.8375
 6279TIP3    H240473   4.722   5.322   8.320 -1.2851  1.7278  0.8323
 6280TIP3   OH240474   2.458   5.593   6.516  0.2073 -0.2399  1.2531
 6280TIP3    H140475   2.419   5.535   6.450 -1.5157  0.6891  1.3973
 6280TIP3    H240476   2.529   5.541   6.554  0.0289 -1.4889 -0.0221
 6281TIP3   OH240477   2.550   3.136   2.520  0.2525  0.0779 -0.7420
 6281TIP3    H140478   2.589   3.133   2.607 -2.2380 -1.8224  0.4480
 6281TIP3    H240479   2.486   3.207   2.525 -2.5234 -2.2845  0.3845
 6282TIP3   OH240480   0.987   0.232   6.800 -0.4697 -0.3663 -0.3288
 6282TIP3    H140481   0.958   0.177   6.874 -0.6653 -0.1226 -0.2249
 6282TIP3    H240482   1.058   0.285   6.836 -1.2814  0.5319 -0.0147
 6283TIP3   OH240483   0.444   0.655   8.672  0.1773 -0.3114  0.0848
 6283TIP3    H140484   0.466   0.597   8.599  1.8325 -0.9509  1.0224
 6283TIP3    H240485   0.368   0.614   8.714  1.4358 -1.9828  0.8442
 6284TIP3   OH240486   3.324   3.726   0.436 -0.0214 -0.5071 -0.3450
 6284TIP3    H140487   3.401   3.750   0.385 -0.3607 -1.8745 -1.5686
 6284TIP3    H240488   3.345   3.638   0.469  0.3048  0.4334  2.1665
 6285TIP3   OH240489   5.413   3.313   7.147  0.1947  0.0470 -0.3211
 6285TIP3    H140490   5.417   3.363   7.066  0.5160  0.3378 -0.1267
 6285TIP3    H240491   5.354   3.363   7.203 -0.2460 -0.2965 -0.4716
 6286TIP3   OH240492   5.582   4.591   8.088  0.9030 -0.2967  0.1315
 6286TIP3    H140493   5.576   4.653   8.161 -1.3532  0.6347 -0.7400
 6286TIP3    H240494   5.667   4.609   8.048  0.3262  2.3686 -0.1186
 6287TIP3   OH240495   5.016   1.441   6.995  0.0764  0.3959  0.6614
 6287TIP3    H140496   5.101   1.404   6.971 -0.2444 -0.1340  0.3461
 6287TIP3    H240497   4.952   1.380   6.959 -0.4308  0.3838  1.5769
 6288TIP3   OH240498   6.446   4.086   2.216  0.0797  0.6316 -0.6311
 6288TIP3    H140499   6.513   4.151   2.234 -1.1952  1.5874  0.8938
 6288TIP3    H240500   6.438   4.036   2.297  0.4757 -0.9547 -1.5179
 6289TIP3   OH240501   3.094   4.735   8.085  0.0012 -0.6392 -0.3984
 6289TIP3    H140502   3.188   4.740   8.068  0.1767 -2.3759 -0.1340
 6289TIP3    H240503   3.078   4.802   8.151  1.6157 -2.1663  1.6812
 6290TIP3   OH240504   2.840   4.098   6.734  0.1198  0.8512 -0.3133
 6290TIP3    H140505   2.780   4.118   6.662 -1.8747 -0.5201  0.8638
 6290TIP3    H240506   2.857   4.004   6.725  1.7160  1.1140 -0.3020
 6291TIP3   OH240507   0.526   3.768   7.365  0.3916 -0.1170 -0.4130
 6291TIP3    H140508   0.507   3.814   7.283 -0.1542 -0.6330 -0.5851
 6291TIP3    H240509   0.604   3.811   7.399 -0.3348  1.2388 -0.3532
 6292TIP3   OH240510   3.992   6.107   6.695 -0.3016  0.1202  0.1559
 6292TIP3    H140511   3.993   6.165   6.619 -0.8316  0.0219  0.0691
 6292TIP3    H240512   3.901   6.078   6.702 -0.9220  2.3043  2.4814
 6293TIP3   OH240513   0.292   5.261   0.001 -0.1176  0.4535  0.0573
 6293TIP3    H140514   0.254   5.214   0.075  0.0389  1.0494  0.5175
 6293TIP3    H240515   0.293   5.196  -0.070 -1.0365  0.1334  0.3295
 6294TIP3   OH240516   3.832   5.853   7.730  0.1554  0.0220 -0.0298
 6294TIP3    H140517   3.843   5.879   7.639 -0.5230  0.3334 -0.0259
 6294TIP3    H240518   3.833   5.758   7.729  0.4484  0.0266 -0.3212
 6295TIP3   OH240519   6.762   5.659   3.071 -0.5138  0.1712 -0.4459
 6295TIP3    H140520   6.755   5.564   3.083 -1.5346  0.2435 -0.4357
 6295TIP3    H240521   6.720   5.676   2.987 -0.9554  0.6935 -0.1262
 6296TIP3   OH240522   6.119   4.658   7.232 -0.4518  0.4752  0.0695
 6296TIP3    H140523   6.123   4.751   7.210  1.2728  0.5167  0.4872
 6296TIP3    H240524   6.208   4.634   7.255 -1.1946 -0.8106  1.9367
 6297TIP3   OH240525   6.775   0.153   0.772 -0.6397 -1.0297  0.3103
 6297TIP3    H140526   6.856   0.203   0.775 -0.2106 -1.7570  1.6147
 6297TIP3    H240527   6.706   0.218   0.761 -0.0516 -0.2062  1.3682
 6298TIP3   OH240528   1.422   4.060   0.976 -0.0130 -0.0293 -0.3078
 6298TIP3    H140529   1.438   4.152   0.997  0.8115 -0.1697 -0.2903
 6298TIP3    H240530   1.469   4.045   0.894  1.5051 -0.9187  0.6860
 6299TIP3   OH240531   4.373   2.805   8.195 -0.5538  0.4016 -0.0192
 6299TIP3    H140532   4.279   2.787   8.197 -0.5279  0.1973 -0.5922
 6299TIP3    H240533   4.384   2.863   8.120 -0.0102 -0.8035 -0.8925
 6300TIP3   OH240534   1.942   1.673   8.400  0.3321 -0.5698  0.2346
 6300TIP3    H140535   1.987   1.597   8.436  0.1152 -0.3497  0.9808
 6300TIP3    H240536   1.849   1.655   8.414  0.2432 -0.5155 -0.2833
 6301TIP3   OH240537   0.363   1.895   0.696 -0.2698  0.1382  0.0885
 6301TIP3    H140538   0.430   1.829   0.715  0.1883  0.2975 -0.9285
 6301TIP3    H240539   0.311   1.900   0.776  0.4814 -0.5239  0.6285
 6302TIP3   OH240540   0.438   6.502   6.915 -0.0790 -0.6001  0.2437
 6302TIP3    H140541   0.465   6.549   6.836 -0.7750  0.8143  0.8058
 6302TIP3    H240542   0.439   6.410   6.890 -0.1642 -0.1924 -1.3789
 6303TIP3   OH240543   3.698   2.674   0.539 -0.0380 -0.0492 -0.2614
 6303TIP3    H140544   3.714   2.760   0.577  1.8340  0.3017 -1.6733
 6303TIP3    H240545   3.700   2.689   0.444  0.2600 -1.6237 -0.5338
 6304TIP3   OH240546   5.918   1.525   0.515  0.0606 -0.6271 -0.5912
 6304TIP3    H140547   5.963   1.446   0.543 -1.2641 -1.2312 -0.0913
 6304TIP3    H240548   5.926   1.525   0.420  0.1958 -1.2973 -0.5846
 6305TIP3   OH240549   4.706   0.465   7.259  0.7143 -0.6294 -0.4012
 6305TIP3    H140550   4.703   0.503   7.171  0.1879 -1.3468 -0.7014
 6305TIP3    H240551   4.654   0.526   7.313  0.1408 -0.7472 -0.8134
 6306TIP3   OH240552   5.613   2.777   1.414  0.1336  0.5164  0.1244
 6306TIP3    H140553   5.706   2.786   1.392 -0.7778  3.8873 -3.6272
 6306TIP3    H240554   5.591   2.859   1.459 -1.3357  0.6726 -0.8117
 6307TIP3   OH240555   2.960   0.704   8.009 -0.0932 -0.6058 -0.2223
 6307TIP3    H140556   2.913   0.744   8.082  0.3984 -1.4039  0.5526
 6307TIP3    H240557   2.927   0.614   8.006  0.4213 -0.7899 -0.5155
 6308TIP3   OH240558   0.401   2.384   6.294 -0.0884 -0.5564 -0.4423
 6308TIP3    H140559   0.382   2.335   6.374  2.0053  0.2005  0.5926
 6308TIP3    H240560   0.358   2.468   6.306 -0.4111 -0.7195 -0.4551
 6309TIP3   OH240561   1.311   4.682   0.904 -0.3133  0.4607  0.5113
 6309TIP3    H140562   1.298   4.618   0.834  1.8687  0.0326  0.4367
 6309TIP3    H240563   1.261   4.648   0.978  0.7691 -1.3467  0.4613
 6310TIP3   OH240564   4.106   2.871   8.592  0.2352 -0.2561 -0.3573
 6310TIP3    H140565   4.057   2.946   8.559 -0.8604 -0.4017  0.8837
 6310TIP3    H240566   4.158   2.906   8.664 -1.4024 -0.9132  1.2160
 6311TIP3   OH240567   2.889   0.173   7.141  0.8833 -0.3965 -0.1610
 6311TIP3    H140568   2.912   0.255   7.097 -3.4281  0.8591 -0.5574
 6311TIP3    H240569   2.856   0.117   7.071 -0.1671 -0.7730  0.5956
 6312TIP3   OH240570   0.114   3.614   0.657 -0.3517 -0.5087 -1.1794
 6312TIP3    H140571   0.204   3.645   0.665 -0.6417  0.1846 -0.5022
 6312TIP3    H240572   0.104   3.551   0.729 -1.5911  2.3994  1.4351
 6313TIP3   OH240573   2.765   2.420   7.004  0.0496  0.6808 -0.1429
 6313TIP3    H140574   2.768   2.335   6.960 -0.7965  0.3694  0.3830
 6313TIP3    H240575   2.672   2.437   7.019  0.2892  0.9568  1.1630
 6314TIP3   OH240576   6.314   5.257   1.898  0.3592  0.3809 -0.5322
 6314TIP3    H140577   6.218   5.260   1.897  0.2868 -1.0826 -1.4969
 6314TIP3    H240578   6.336   5.234   1.988 -0.1666  1.2875 -0.1656
 6315TIP3   OH240579   6.476   5.009   0.402  0.5101 -0.2414 -0.0515
 6315TIP3    H140580   6.521   5.072   0.458  0.7329  0.1728 -0.6920
 6315TIP3    H240581   6.410   4.969   0.459  1.0461 -0.1638  0.6323
 6316TIP3   OH240582   5.630   4.370   0.354 -0.1207  0.0525 -0.3442
 6316TIP3    H140583   5.567   4.298   0.353  0.4179 -0.6011  2.8183
 6316TIP3    H240584   5.699   4.342   0.294 -0.5761 -1.4633 -0.1962
 6317TIP3   OH240585   3.363   5.172   8.466  0.3252 -0.4402 -0.2010
 6317TIP3    H140586   3.439   5.138   8.512  0.6318 -0.2182 -0.5413
 6317TIP3    H240587   3.325   5.236   8.527  0.3148 -0.6686  0.0343
 6318TIP3   OH240588   1.574   6.026   8.576 -0.4267  0.1190  0.3007
 6318TIP3    H140589   1.504   6.061   8.630 -0.9459 -1.3903  0.6632
 6318TIP3    H240590   1.530   5.987   8.500  0.1588  0.5861 -0.3023
 6319TIP3   OH240591   6.207   6.333   1.234  0.2733 -0.6069 -0.3260
 6319TIP3    H140592   6.130   6.286   1.265  0.8122 -1.4553 -0.2530
 6319TIP3    H240593   6.216   6.407   1.295 -0.3966 -0.5886 -0.2503
 6320TIP3   OH240594   4.783   1.258   0.803  0.0475 -0.7269  0.1010
 6320TIP3    H140595   4.779   1.164   0.822 -1.1767 -0.6240  0.4014
 6320TIP3    H240596   4.856   1.290   0.857  1.2739 -1.6905 -0.9150
 6321TIP3   OH240597   6.350   4.971   0.985 -0.3295  0.0686  0.2220
 6321TIP3    H140598   6.425   4.932   0.940  0.6169  1.1195  0.8646
 6321TIP3    H240599   6.341   4.920   1.066  0.0133  0.2830  0.3927
 6322TIP3   OH240600   0.892   5.739   0.916  0.1972  0.6326  0.0231
 6322TIP3    H140601   0.986   5.724   0.909  0.2738  1.3634 -0.5504
 6322TIP3    H240602   0.862   5.750   0.826 -0.3697  0.7947  0.2263
 6323TIP3   OH240603   6.362   5.738   7.328  0.1409  0.4300  0.0453
 6323TIP3    H140604   6.367   5.706   7.237 -0.1239  1.5159 -0.3652
 6323TIP3    H240605   6.270   5.762   7.340  0.6667  2.9888 -0.3822
 6324TIP3   OH240606   3.525   4.771   1.167 -0.5147 -0.3899 -0.9284
 6324TIP3    H140607   3.552   4.711   1.237  0.1904  0.0780 -0.7880
 6324TIP3    H240608   3.480   4.842   1.212  0.8393  0.4349 -0.8111
 6325TIP3   OH240609   1.742   0.273   1.060  0.6786 -0.3007 -0.0854
 6325TIP3    H140610   1.723   0.227   1.142 -1.9123  1.4285  0.3921
 6325TIP3    H240611   1.661   0.266   1.009  1.7702 -0.1365 -1.9331
 6326TIP3   OH240612   6.444   3.278   1.874  0.1499 -0.2416 -0.3741
 6326TIP3    H140613   6.533   3.289   1.908 -0.0586  1.5264 -0.3153
 6326TIP3    H240614   6.389   3.333   1.930 -0.5791  0.6790 -1.9096
 6327TIP3   OH240615   1.624   6.609   1.542 -0.2038  0.0269  0.6001
 6327TIP3    H140616   1.589   6.547   1.606 -1.0450 -0.1883 -0.0492
 6327TIP3    H240617   1.610   6.695   1.581  0.0735 -0.1371  1.0732
 6328TIP3   OH240618   2.138   5.049   6.420 -0.2948  0.1401 -0.6546
 6328TIP3    H140619   2.067   5.066   6.358 -0.4780  0.7066 -0.2983
 6328TIP3    H240620   2.099   5.066   6.506  0.4172  1.0204 -0.4864
 6329TIP3   OH240621   6.645   0.392   7.130  0.5677  0.4473 -0.1110
 6329TIP3    H140622   6.629   0.313   7.078 -0.6359  1.5141 -1.4703
 6329TIP3    H240623   6.667   0.459   7.065 -0.5932  1.7369  0.7688
 6330TIP3   OH240624   3.213   1.755   7.387  0.2738 -0.4095  0.1599
 6330TIP3    H140625   3.123   1.786   7.380 -0.1885 -1.3652  1.3742
 6330TIP3    H240626   3.230   1.710   7.305 -0.0274  0.5640 -0.4514
 6331TIP3   OH240627   2.671   3.851   1.772 -0.3294  0.3649 -0.3615
 6331TIP3    H140628   2.721   3.781   1.815 -1.3584 -0.3493 -0.2922
 6331TIP3    H240629   2.737   3.915   1.746  0.3526  0.8572  2.3010
 6332TIP3   OH240630   3.526   4.561   1.353  0.0523 -0.0810  0.1112
 6332TIP3    H140631   3.588   4.578   1.424  1.5713  0.7175 -1.3380
 6332TIP3    H240632   3.518   4.466   1.350  1.3236 -0.2076  0.2528
 6333TIP3   OH240633   2.723   2.468   1.066 -0.2903 -0.7833  0.1241
 6333TIP3    H140634   2.734   2.547   1.119 -0.4258 -1.1614  0.7277
 6333TIP3    H240635   2.739   2.497   0.977  1.2719 -0.4085  0.4986
 6334TIP3   OH240636   2.231   1.397   8.154  0.3677 -0.0827  0.1686
 6334TIP3    H140637   2.159   1.393   8.092 -0.4614 -0.0073  1.0963
 6334TIP3    H240638   2.300   1.445   8.108  0.8400 -2.3474 -1.6946
 6335TIP3   OH240639   6.732   4.741   1.328 -0.2151 -0.1445 -0.4466
 6335TIP3    H140640   6.753   4.742   1.422  0.9568 -1.0783 -0.6770
 6335TIP3    H240641   6.765   4.825   1.295 -1.1332  0.4331  0.0619
 6336TIP3   OH240642   0.057   5.201   1.972 -0.3199  0.7919  0.8651
 6336TIP3    H140643  -0.022   5.179   1.922 -0.3309  1.3129  0.6475
 6336TIP3    H240644   0.117   5.128   1.956 -0.8737  0.2319  1.2911
 6337TIP3   OH240645   5.998   1.989   2.669 -0.3909  0.0612  0.3269
 6337TIP3    H140646   6.088   2.006   2.697 -0.1124  3.2194 -1.9532
 6337TIP3    H240647   6.006   1.947   2.584 -1.1877 -1.8601  1.1279
 6338TIP3   OH240648   1.083   5.926   7.519 -0.7117 -0.1836  0.1163
 6338TIP3    H140649   1.094   5.861   7.450  0.3309 -0.8967  0.9238
 6338TIP3    H240650   1.145   5.996   7.496 -0.8626 -0.1021 -0.0406
 6339TIP3   OH240651   3.686   4.413   1.697  0.8150  0.1540  0.1170
 6339TIP3    H140652   3.742   4.485   1.725 -1.1922  0.9407  2.4702
 6339TIP3    H240653   3.703   4.343   1.760  0.6563 -0.3603 -0.4001
 6340TIP3   OH240654   6.374   4.126   1.871  0.6939  0.3196  0.4261
 6340TIP3    H140655   6.388   4.032   1.884 -1.1693 -0.0090  0.4127
 6340TIP3    H240656   6.332   4.155   1.952 -1.2120  0.5351 -0.5929
 6341TIP3   OH240657   6.737   2.039   7.918 -0.6398  0.1189  0.2523
 6341TIP3    H140658   6.721   1.984   7.995  2.3270 -1.1407  0.1045
 6341TIP3    H240659   6.758   2.125   7.954 -0.4722 -0.1459  0.7992
 6342TIP3   OH240660   1.105   3.272   0.304 -0.2410 -0.2513  1.2641
 6342TIP3    H140661   1.123   3.203   0.369 -1.8604 -2.3267 -0.3543
 6342TIP3    H240662   1.129   3.233   0.220 -0.8880  1.2960  0.3156
 6343TIP3   OH240663   6.307   4.894   1.264 -0.6712 -0.3145 -0.1970
 6343TIP3    H140664   6.272   4.925   1.347 -3.7654 -1.4309 -0.9617
 6343TIP3    H240665   6.364   4.820   1.288  0.2754  0.7624  1.0260
 6344TIP3   OH240666   1.482   4.636   7.060 -0.2191 -0.0083 -0.1930
 6344TIP3    H140667   1.408   4.632   7.121 -1.0952  1.7081 -1.0648
 6344TIP3    H240668   1.478   4.725   7.024  0.9178 -0.6214 -1.9452
 6345TIP3   OH240669   0.797   5.939   1.424 -0.3215 -0.3051  0.0035
 6345TIP3    H140670   0.844   5.926   1.341 -0.5530 -1.4118  0.0401
 6345TIP3    H240671   0.763   6.029   1.417  1.5174  0.4280 -0.1446
 6346TIP3   OH240672   2.402   1.742   8.169 -0.3128 -0.3012 -0.1951
 6346TIP3    H140673   2.436   1.829   8.189  1.0406 -1.1110  1.1942
 6346TIP3    H240674   2.307   1.750   8.181 -0.2934  1.1528 -0.8210
 6347TIP3   OH240675   2.826   3.187   7.356 -0.1211 -0.8707 -0.5485
 6347TIP3    H140676   2.852   3.262   7.303 -2.8784  0.3939 -0.2343
 6347TIP3    H240677   2.773   3.133   7.296 -1.1815 -0.6841  0.1953
 6348TIP3   OH240678   1.235   2.741   6.818  0.2366 -0.1937 -0.4514
 6348TIP3    H140679   1.152   2.695   6.808  0.8363 -1.4700  0.1737
 6348TIP3    H240680   1.221   2.802   6.891 -0.1265 -0.4516 -0.3075
 6349TIP3   OH240681   5.426   0.644   8.802 -0.1047 -0.2286  0.6070
 6349TIP3    H140682   5.457   0.732   8.824  1.3697 -1.1016  2.2069
 6349TIP3    H240683   5.410   0.647   8.708  1.0174  1.4347  0.4296
 6350TIP3   OH240684   0.497   6.751   7.088 -0.1199  0.6147 -0.0591
 6350TIP3    H140685   0.423   6.778   7.034  0.4456 -1.4221 -2.0245
 6350TIP3    H240686   0.536   6.679   7.039  1.0330 -0.7289  2.6593
 6351TIP3   OH240687   3.791   4.765   0.566 -0.2827  0.3986  0.0387
 6351TIP3    H140688   3.801   4.672   0.550  1.1546  0.7352 -1.2111
 6351TIP3    H240689   3.709   4.772   0.615 -1.6603 -1.3252 -1.8253
 6352TIP3   OH240690   5.330   0.269   0.676  0.1146 -0.2586 -0.9255
 6352TIP3    H140691   5.339   0.329   0.750 -2.4223  1.8458 -2.1668
 6352TIP3    H240692   5.411   0.280   0.626  0.7619  0.1943  0.1845
 6353TIP3   OH240693   4.515   5.185   0.584  0.1742 -1.0815 -0.2532
 6353TIP3    H140694   4.496   5.235   0.663 -0.5495  0.0549 -1.1193
 6353TIP3    H240695   4.610   5.169   0.587  0.6288  1.2544 -0.4388
 6354TIP3   OH240696   0.574   2.251   1.566  0.1092  0.2361 -0.1835
 6354TIP3    H140697   0.520   2.258   1.487  2.3475  2.5786 -1.6677
 6354TIP3    H240698   0.584   2.157   1.580 -0.5518 -0.2591 -2.5605
 6355TIP3   OH240699   1.048   3.512   8.288 -0.0569 -0.0887 -0.0810
 6355TIP3    H140700   1.002   3.446   8.236 -1.0450 -0.0911  0.7687
 6355TIP3    H240701   1.100   3.561   8.224 -2.7678  1.2260 -1.4498
 6356TIP3   OH240702   4.029   4.833   1.574  0.3808  0.2936  0.7032
 6356TIP3    H140703   4.045   4.741   1.552 -1.0673 -0.0037  0.8562
 6356TIP3    H240704   4.097   4.854   1.638  0.1411 -0.9354  1.3837
 6357TIP3   OH240705   2.297   3.438   8.440  0.1777 -0.3839  0.3737
 6357TIP3    H140706   2.358   3.386   8.388  0.4624 -0.8512  1.1568
 6357TIP3    H240707   2.329   3.430   8.530 -1.0125 -0.6151  0.7934
 6358TIP3   OH240708   3.173   0.027   7.285 -0.5589 -0.0711 -0.1246
 6358TIP3    H140709   3.132  -0.060   7.290 -0.9558  0.1793  2.0696
 6358TIP3    H240710   3.117   0.083   7.339 -0.2008  1.5305 -1.3494
 6359TIP3   OH240711   5.658   1.193   1.142 -0.3928  0.4526 -0.4336
 6359TIP3    H140712   5.622   1.241   1.217 -0.1148  0.0339 -0.0218
 6359TIP3    H240713   5.745   1.232   1.129 -0.1926  0.1116 -0.1393
 6360TIP3   OH240714   4.198   2.199   7.321  0.4162  0.2527  0.1539
 6360TIP3    H140715   4.148   2.278   7.305 -0.0587 -0.1046 -0.1387
 6360TIP3    H240716   4.282   2.230   7.355  0.5799  0.9140 -0.8444
 6361TIP3   OH240717   4.935   2.761   7.556  0.3547 -0.2893 -0.1966
 6361TIP3    H140718   5.006   2.817   7.527  1.5726  0.0700  3.0434
 6361TIP3    H240719   4.860   2.820   7.565  1.4311  0.8032  2.4830
 6362TIP3   OH240720   3.967   1.650   0.483 -0.2108 -0.4785 -0.1725
 6362TIP3    H140721   3.984   1.739   0.453  1.5730  0.0402  2.0828
 6362TIP3    H240722   3.972   1.596   0.404 -1.6480  1.4074 -1.6376
 6363TIP3   OH240723   2.774   6.671   0.792  0.0123  0.5314 -0.2935
 6363TIP3    H140724   2.821   6.724   0.855 -0.5404  0.8653 -0.1570
 6363TIP3    H240725   2.682   6.696   0.802 -0.3984 -1.0738  0.4139
 6364TIP3   OH240726   3.226   6.653   2.511  0.1467  0.7612 -0.6549
 6364TIP3    H140727   3.267   6.587   2.566  0.3285  2.6352  1.6545
 6364TIP3    H240728   3.157   6.691   2.567  0.3305  2.7763 -1.6959
 6365TIP3   OH240729   6.549   5.875   1.253 -0.0657 -0.7862  0.6690
 6365TIP3    H140730   6.521   5.929   1.326 -0.0828  1.8876 -1.1570
 6365TIP3    H240731   6.513   5.788   1.271 -0.7080 -0.0450  3.3793
 6366TIP3   OH240732   4.717   2.035   7.927  0.7714 -0.0527 -0.3653
 6366TIP3    H140733   4.642   2.040   7.986  0.1505 -0.2732 -1.1071
 6366TIP3    H240734   4.705   1.953   7.880  0.5839  0.6620 -1.6345
 6367TIP3   OH240735   4.310   4.307   8.197  0.1934  0.0123  0.0191
 6367TIP3    H140736   4.219   4.277   8.204  0.6258 -1.4582 -0.3356
 6367TIP3    H240737   4.339   4.319   8.287  0.9710 -3.8472  0.4439
 6368TIP3   OH240738   4.047   4.481   7.040  0.6468  0.4070  0.1881
 6368TIP3    H140739   3.953   4.475   7.022  0.8018 -2.8333 -0.0977
 6368TIP3    H240740   4.080   4.542   6.974 -1.1333  1.0478 -0.1653
 6369TIP3   OH240741   0.686   3.476   0.666  0.1762  0.5912 -0.0184
 6369TIP3    H140742   0.767   3.431   0.688 -0.3205 -0.9957 -1.1632
 6369TIP3    H240743   0.635   3.477   0.747  0.4131 -0.5121  0.1585
 6370TIP3   OH240744   5.137   0.691   0.690  0.0629 -0.0290 -0.2781
 6370TIP3    H140745   5.143   0.605   0.648  0.1277  0.2910 -0.9363
 6370TIP3    H240746   5.046   0.697   0.719  0.5203 -1.1258  1.5514
 6371TIP3   OH240747   6.584   2.171   7.065  0.1338  0.2956  0.2543
 6371TIP3    H140748   6.492   2.150   7.083  0.3987  0.1127  1.5048
 6371TIP3    H240749   6.587   2.185   6.970 -0.9266 -0.9427  0.0090
 6372TIP3   OH240750   0.133   4.181   1.120  0.3246  0.3090 -0.4287
 6372TIP3    H140751   0.122   4.139   1.205  1.5710  2.0064  0.6441
 6372TIP3    H240752   0.142   4.109   1.058 -1.1689 -0.9717  0.7657
 6373TIP3   OH240753   5.787   1.508   8.679 -0.3839  0.4747 -0.7673
 6373TIP3    H140754   5.772   1.601   8.662 -2.0235  0.3439 -0.2241
 6373TIP3    H240755   5.705   1.477   8.718  0.5763 -0.9206  0.2528
 6374TIP3   OH240756   3.251   2.207   1.493  0.2569 -0.8080 -0.3752
 6374TIP3    H140757   3.319   2.165   1.546 -0.0695 -1.2499 -0.2988
 6374TIP3    H240758   3.173   2.205   1.548  0.3841  0.4580 -0.1353
 6375TIP3   OH240759   4.243   0.575   8.678  0.2683 -0.2287 -0.0760
 6375TIP3    H140760   4.159   0.551   8.638  0.6616 -0.4148 -0.8178
 6375TIP3    H240761   4.260   0.507   8.742 -0.6053  0.3252  0.7747
 6376TIP3   OH240762   5.936   0.381   1.082 -0.0004  0.8431 -0.6387
 6376TIP3    H140763   6.006   0.371   1.147 -1.6000 -1.2868  0.8761
 6376TIP3    H240764   5.917   0.475   1.082  0.4788  1.0017  1.5550
 6377TIP3   OH240765   3.248   3.381   0.739  0.1076 -0.7329 -0.1298
 6377TIP3    H140766   3.333   3.390   0.696 -0.6580 -1.9242 -1.9964
 6377TIP3    H240767   3.245   3.291   0.769 -0.0410 -0.3655  1.0181
 6378TIP3   OH240768   2.406   4.278   8.128 -0.1964 -0.2443 -0.6172
 6378TIP3    H140769   2.425   4.184   8.127 -1.0327 -0.4253  0.1225
 6378TIP3    H240770   2.349   4.292   8.053 -1.7319 -0.7033  0.4192
 6379TIP3   OH240771   2.309   2.152   6.307 -0.0536  0.5291 -0.4591
 6379TIP3    H140772   2.326   2.206   6.383  1.8932 -0.2530 -0.2862
 6379TIP3    H240773   2.388   2.098   6.297 -1.2706 -1.1673 -1.5342
 6380TIP3   OH240774   3.363   1.266   7.958 -0.1075 -0.3496 -0.1603
 6380TIP3    H140775   3.404   1.182   7.978 -0.3805 -0.5734 -0.5248
 6380TIP3    H240776   3.313   1.287   8.037  0.7509 -0.0385  0.3159
 6381TIP3   OH240777   0.347   0.495   7.222 -0.0620  0.6351  0.8329
 6381TIP3    H140778   0.288   0.562   7.187  0.4515  0.8508  0.3725
 6381TIP3    H240779   0.414   0.485   7.155  0.3414  0.2802  1.2870
 6382TIP3   OH240780   0.813   1.310   7.917  0.3459  0.0000  0.8450
 6382TIP3    H140781   0.838   1.365   7.990  0.7156  1.3007 -0.2342
 6382TIP3    H240782   0.853   1.350   7.840 -0.6278 -0.9059 -0.1885
 6383TIP3   OH240783   1.778   5.032   2.101 -0.1749  0.2784  0.2157
 6383TIP3    H140784   1.715   5.067   2.038  1.5356  0.8873 -1.2556
 6383TIP3    H240785   1.809   5.108   2.149  0.6580  0.2623 -0.2650
 6384TIP3   OH240786   5.002   3.104   0.385 -0.3099 -0.4900 -0.3999
 6384TIP3    H140787   4.943   3.168   0.425  1.1908 -0.0889  1.2772
 6384TIP3    H240788   5.041   3.152   0.311 -0.0122  0.1751  0.1796
 6385TIP3   OH240789   5.453   0.504   1.664 -0.2772 -0.0199 -0.2883
 6385TIP3    H140790   5.438   0.582   1.610 -0.0196  0.2329  0.0094
 6385TIP3    H240791   5.480   0.538   1.749  1.1951 -0.4460 -0.5593
 6386TIP3   OH240792   0.241   6.839   6.985  0.1403  0.1786 -0.1173
 6386TIP3    H140793   0.252   6.930   7.011  0.8778  0.2676 -0.7225
 6386TIP3    H240794   0.216   6.843   6.893  3.5400 -0.2967 -1.1836
 6387TIP3   OH240795   5.309   3.515   8.017 -0.5156  0.4456 -0.5751
 6387TIP3    H140796   5.379   3.479   7.963 -2.3088 -1.1177 -2.0053
 6387TIP3    H240797   5.336   3.606   8.034  1.3377  0.2134 -1.9236
 6388TIP3   OH240798   4.746   6.456   8.740  0.0902 -0.3624  0.0896
 6388TIP3    H140799   4.787   6.524   8.688 -0.6682  0.9893  1.1926
 6388TIP3    H240800   4.819   6.405   8.775  0.7231  0.5155  0.0790
 6389TIP3   OH240801   3.505   5.965   1.157  0.6612 -0.4007  0.0137
 6389TIP3    H140802   3.556   5.888   1.182  1.1004 -0.1141  0.0151
 6389TIP3    H240803   3.556   6.006   1.087  2.2124  1.7435  2.2249
 6390TIP3   OH240804   1.106   2.648   0.729  0.2765  0.0850 -0.0240
 6390TIP3    H140805   1.045   2.577   0.710  1.6799 -1.1296 -0.2099
 6390TIP3    H240806   1.184   2.627   0.676  0.6319  1.9148 -0.2857
 6391TIP3   OH240807   5.394   1.126   0.313  0.1125  0.1076  0.5045
 6391TIP3    H140808   5.299   1.118   0.319 -0.2783  0.3184 -3.1023
 6391TIP3    H240809   5.409   1.210   0.268  1.9573 -0.1685  0.5079
 6392TIP3   OH240810   1.106   3.801   1.294  0.2528 -0.1584  0.0330
 6392TIP3    H140811   1.152   3.838   1.370  2.8211 -0.6128 -1.2035
 6392TIP3    H240812   1.069   3.719   1.327  0.6682  0.0189  0.9850
 6393TIP3   OH240813   4.601   0.541   8.692  0.3180  0.3896 -0.3581
 6393TIP3    H140814   4.639   0.622   8.724 -0.6726  0.0748  1.8523
 6393TIP3    H240815   4.516   0.536   8.735 -1.5014  0.1862 -3.6870
 6394TIP3   OH240816   6.137   4.227   0.220 -0.3149  0.2652 -0.0537
 6394TIP3    H140817   6.091   4.166   0.278  0.5264  0.1578  0.5211
 6394TIP3    H240818   6.170   4.296   0.278  1.4409 -0.3873 -0.2038
 6395TIP3   OH240819   4.185   6.370   7.094 -0.0231 -0.0542 -0.8523
 6395TIP3    H140820   4.264   6.341   7.048 -0.6761 -0.3357 -1.8171
 6395TIP3    H240821   4.217   6.436   7.156  1.1128 -0.8853 -0.5105
 6396TIP3   OH240822   6.827   5.243   1.264 -0.1120 -0.0966 -0.0670
 6396TIP3    H140823   6.880   5.197   1.329 -0.7592  0.1522  0.6727
 6396TIP3    H240824   6.887   5.303   1.221 -0.0426  1.2794  1.8013
 6397TIP3   OH240825   4.522   1.886   0.728 -0.0884  0.7127 -0.1616
 6397TIP3    H140826   4.479   1.801   0.737  1.5224 -0.4792 -2.4872
 6397TIP3    H240827   4.612   1.864   0.703  0.8230  3.1223  0.7098
 6398TIP3   OH240828   5.976   0.752   0.155 -0.0235 -0.0215  0.4138
 6398TIP3    H140829   5.997   0.697   0.230 -1.9629 -0.6377  0.5659
 6398TIP3    H240830   5.943   0.833   0.194 -0.1705  0.0091  0.2287
 6399TIP3   OH240831   4.090   1.963   7.282  0.0960 -0.5423  0.2476
 6399TIP3    H140832   4.090   1.904   7.357 -0.1403  0.8351  1.3978
 6399TIP3    H240833   4.131   2.043   7.315  1.5191 -0.4431 -1.5989
 6400TIP3   OH240834   4.983   3.506   1.830 -0.0110 -0.4770  0.1984
 6400TIP3    H140835   5.077   3.487   1.835  0.6552  1.7808 -1.7278
 6400TIP3    H240836   4.973   3.590   1.874 -0.9811 -0.3355 -0.2615
 6401TIP3   OH240837   6.342   0.619   7.652  0.5627 -0.2164  0.0193
 6401TIP3    H140838   6.387   0.704   7.654  0.0324  0.0587  1.2090
 6401TIP3    H240839   6.281   0.626   7.579  1.1299  0.0989 -0.4394
 6402TIP3   OH240840   0.938   2.042   6.725  0.5028 -1.0303  0.9144
 6402TIP3    H140841   0.953   1.955   6.763 -0.6151 -1.7267 -0.1695
 6402TIP3    H240842   0.845   2.058   6.738  0.1753 -1.0946 -1.0483
 6403TIP3   OH240843   0.558   5.812   6.898 -0.1869 -0.3631 -0.6869
 6403TIP3    H140844   0.548   5.747   6.829  0.3967  0.2419 -1.3621
 6403TIP3    H240845   0.576   5.894   6.851 -0.1303  0.1305  0.1721
 6404TIP3   OH240846   3.900   3.983   7.459 -0.0517  0.2832 -0.2566
 6404TIP3    H140847   3.979   3.991   7.407  0.0335 -0.6411 -0.2875
 6404TIP3    H240848   3.831   3.964   7.396 -0.0319 -0.3670 -0.0895
 6405TIP3   OH240849   5.055   2.086   0.328  0.1233 -0.1606  0.3362
 6405TIP3    H140850   4.988   2.026   0.294  0.4344 -1.1609  1.4309
 6405TIP3    H240851   5.070   2.148   0.257 -0.2319 -1.3567 -0.8220
 6406TIP3   OH240852   6.559   2.820   1.113  0.0615  0.3420  0.3221
 6406TIP3    H140853   6.551   2.820   1.209  0.7691 -0.3406  0.3894
 6406TIP3    H240854   6.479   2.864   1.083  0.7447  2.3669  1.2905
 6407TIP3   OH240855   0.039   2.540   7.031  0.0073  0.0592 -0.3911
 6407TIP3    H140856  -0.043   2.503   7.000  0.3580 -2.6668  1.5388
 6407TIP3    H240857   0.013   2.601   7.100 -0.4386 -0.4166 -0.1276
 6408TIP3   OH240858   1.929   5.023   8.346 -0.2288  0.0410 -0.3200
 6408TIP3    H140859   1.992   5.037   8.416  1.7561 -0.3377 -1.9186
 6408TIP3    H240860   1.907   4.930   8.351  0.2721 -0.0888 -0.4644
 6409TIP3   OH240861   4.305   1.386   0.957 -0.1595 -0.4677 -0.1265
 6409TIP3    H140862   4.237   1.349   0.900 -0.9417 -1.3901  1.3446
 6409TIP3    H240863   4.373   1.318   0.959  0.6529  0.2696 -1.2449
 6410TIP3   OH240864   6.392   5.381   7.112 -0.5556 -0.4318  0.2754
 6410TIP3    H140865   6.396   5.294   7.073 -1.0703  0.2402 -1.3906
 6410TIP3    H240866   6.461   5.430   7.067 -2.3271  0.8594 -1.2060
 6411TIP3   OH240867   6.384   4.672   0.566 -0.2513  0.0325  0.2966
 6411TIP3    H140868   6.364   4.745   0.623  1.0269  0.2167  0.5380
 6411TIP3    H240869   6.466   4.636   0.601 -0.9324 -1.6154  0.2888
 6412TIP3   OH240870   4.428   3.947   7.801  0.0445  0.1252 -0.3309
 6412TIP3    H140871   4.388   3.973   7.883  1.6129 -0.8183  0.7954
 6412TIP3    H240872   4.393   3.860   7.783  0.6809 -0.2259  0.0662
 6413TIP3   OH240873   6.412   0.370   7.292  0.3803  0.2472  0.1115
 6413TIP3    H140874   6.447   0.342   7.377  0.2801  0.1293  0.1151
 6413TIP3    H240875   6.487   0.371   7.233  0.3246 -0.3498  0.0304
 6414TIP3   OH240876   6.002   4.593   7.009  0.2346  0.7838 -0.3774
 6414TIP3    H140877   6.065   4.631   6.948  1.7200  0.1192  0.6654
 6414TIP3    H240878   6.042   4.604   7.095 -0.7372 -0.3216  0.2502
 6415TIP3   OH240879   2.651   1.034   0.911  0.1483  0.0783  0.0823
 6415TIP3    H140880   2.644   1.075   0.825  1.8053 -0.1360 -0.1761
 6415TIP3    H240881   2.678   0.944   0.893  2.8746  0.6652  0.8733
 6416TIP3   OH240882   3.963   1.545   1.121 -0.6163 -0.0547 -0.3505
 6416TIP3    H140883   3.986   1.633   1.090 -0.4206  0.1329  0.3052
 6416TIP3    H240884   4.022   1.530   1.195  1.3484 -1.8683 -2.1433
 6417TIP3   OH240885   4.665   4.097   0.075 -0.2117 -0.0280  0.6057
 6417TIP3    H140886   4.602   4.093   0.147 -0.8920 -0.2644  0.0017
 6417TIP3    H240887   4.683   4.190   0.063  0.9249 -0.0410  1.9478
 6418TIP3   OH240888   6.830   5.602   8.539 -0.8865 -0.0209  0.9172
 6418TIP3    H140889   6.743   5.641   8.547 -0.4052  1.5454 -0.8760
 6418TIP3    H240890   6.883   5.649   8.603 -1.2225 -0.6948  1.7198
 6419TIP3   OH240891   1.232   1.305   6.642  0.2195  0.9444  0.1534
 6419TIP3    H140892   1.255   1.239   6.576  0.3709  0.2790  0.8498
 6419TIP3    H240893   1.255   1.388   6.602 -2.7303  0.8739 -1.9414
 6420TIP3   OH240894   5.643   6.600   8.705  0.4041  0.5111 -0.4408
 6420TIP3    H140895   5.574   6.538   8.682 -0.7901  1.8181 -0.4905
 6420TIP3    H240896   5.640   6.606   8.800  0.5818  0.4374 -0.4290
 6421TIP3   OH240897   4.519   1.406   1.554  1.0978 -0.4609 -0.2049
 6421TIP3    H140898   4.590   1.358   1.509  1.8474 -0.9435  1.4119
 6421TIP3    H240899   4.441   1.354   1.536  1.3392 -0.5425 -1.0861
 6422TIP3   OH240900   3.995   5.523   8.244  0.4271  0.3716  0.0305
 6422TIP3    H140901   4.023   5.434   8.262 -1.8443  0.1740  3.5363
 6422TIP3    H240902   4.059   5.578   8.288  1.3630  0.5026 -1.4312
 6423TIP3   OH240903   3.592   2.835   6.967  0.1597 -0.2743  0.5700
 6423TIP3    H140904   3.635   2.920   6.966 -0.4757  0.0488  0.4245
 6423TIP3    H240905   3.509   2.850   7.012  0.3120 -0.9543  1.1019
 6424TIP3   OH240906   1.325   2.320   2.142  0.2040 -0.2189 -0.0571
 6424TIP3    H140907   1.270   2.396   2.122  1.0605 -0.0723 -2.0714
 6424TIP3    H240908   1.263   2.249   2.160 -0.6184  0.5042  0.0152
 6425TIP3   OH240909   0.432   6.737   7.575  0.0830  0.2161  0.0538
 6425TIP3    H140910   0.349   6.709   7.614 -0.4458 -0.0168 -1.1811
 6425TIP3    H240911   0.410   6.755   7.484  1.3076  0.6112 -0.1789
 6426TIP3   OH240912   4.990   6.808   8.472 -0.3106 -0.4091  0.0875
 6426TIP3    H140913   4.987   6.879   8.536 -0.7436 -0.6441  0.3346
 6426TIP3    H240914   4.917   6.751   8.496 -0.4702 -0.5060 -0.6042
 6427TIP3   OH240915   4.849   3.186   1.715  0.0642  0.7142  0.0806
 6427TIP3    H140916   4.796   3.260   1.744  0.3077 -0.0232  2.6925
 6427TIP3    H240917   4.786   3.117   1.696 -0.1539  1.4588 -2.2212
 6428TIP3   OH240918   5.220   5.582   8.161  0.2223  0.0929 -0.0871
 6428TIP3    H140919   5.263   5.591   8.246 -0.5357 -1.1867  0.4686
 6428TIP3    H240920   5.126   5.584   8.182  0.0229 -1.2372 -0.7501
 6429TIP3   OH240921   6.045   4.731   8.164 -0.5751 -0.4650  1.3766
 6429TIP3    H140922   6.111   4.797   8.186  0.0124 -0.6435  0.2003
 6429TIP3    H240923   6.094   4.660   8.124 -1.4578 -0.6678  0.6266
 6430TIP3   OH240924   1.332   6.507   6.240 -0.6036 -0.1835  0.1756
 6430TIP3    H140925   1.239   6.496   6.261 -0.8347 -0.1347 -0.7786
 6430TIP3    H240926   1.371   6.536   6.322 -1.3038 -0.8608  0.7699
 6431TIP3   OH240927   6.676   5.932   8.149 -0.6711  0.5797 -0.4073
 6431TIP3    H140928   6.729   6.011   8.161 -1.1621  0.7111  0.9447
 6431TIP3    H240929   6.675   5.890   8.235  0.9641 -1.8081 -1.4350
 6432TIP3   OH240930   0.528   0.094   7.885  0.0403 -0.3188  0.4140
 6432TIP3    H140931   0.455   0.086   7.945 -0.7547 -0.4800 -0.5395
 6432TIP3    H240932   0.572   0.010   7.889  0.1786 -0.2230  0.9894
 6433TIP3   OH240933   0.717   3.478   0.151  0.1176  0.0732 -0.2539
 6433TIP3    H140934   0.685   3.388   0.140  2.3500 -0.8432  0.1631
 6433TIP3    H240935   0.772   3.473   0.229 -1.7207  2.4378  1.3369
 6434TIP3   OH240936   6.753   0.725   1.598  0.2153  0.0686 -0.3795
 6434TIP3    H140937   6.754   0.630   1.591 -0.4917  0.1424 -1.8993
 6434TIP3    H240938   6.660   0.748   1.597  0.3985  0.8175 -0.7261
 6435TIP3   OH240939   4.568   1.131   6.727  0.1501  0.0608 -0.3792
 6435TIP3    H140940   4.513   1.054   6.739 -0.4713  0.5053 -0.2692
 6435TIP3    H240941   4.614   1.116   6.644 -1.6275  0.5386 -1.5136
 6436TIP3   OH240942   5.013   5.719   2.171  0.1080 -0.1552  0.4781
 6436TIP3    H140943   5.103   5.750   2.187  0.4616 -0.9771  0.1176
 6436TIP3    H240944   4.976   5.707   2.259  0.8443 -1.2040  0.6653
 6437TIP3   OH240945   4.710   2.624   0.271  0.1980 -0.1476  0.1683
 6437TIP3    H140946   4.625   2.589   0.299  0.5816 -1.3482 -0.1062
 6437TIP3    H240947   4.717   2.709   0.315 -0.5916 -0.5827  1.1642
 6438TIP3   OH240948   1.171   0.298   8.267 -0.3998  0.1303  0.4048
 6438TIP3    H140949   1.210   0.385   8.262 -2.2289  1.0363  0.8716
 6438TIP3    H240950   1.223   0.252   8.333  0.3977  0.9753  0.3813
 6439TIP3   OH240951   0.687   3.079   1.262  0.6769 -0.1823  0.9655
 6439TIP3    H140952   0.700   2.987   1.287 -1.1628 -0.7502  0.0544
 6439TIP3    H240953   0.596   3.097   1.286  0.9693  1.3680  0.9869
 6440TIP3   OH240954   2.600   2.227   1.153 -0.0954  0.3600  0.1014
 6440TIP3    H140955   2.639   2.294   1.097  0.6488  1.0287  1.3548
 6440TIP3    H240956   2.516   2.265   1.181  0.1038  0.5681  0.4231
 6441TIP3   OH240957   5.381   3.999   1.387 -0.3801  0.2904 -0.6684
 6441TIP3    H140958   5.444   4.066   1.360 -0.2080  0.7739  0.8715
 6441TIP3    H240959   5.365   4.016   1.479 -1.6845 -0.7238 -0.6795
 6442TIP3   OH240960   2.595   2.015   8.389 -0.7325 -0.0733 -0.0335
 6442TIP3    H140961   2.658   2.085   8.408 -2.3154  1.5147 -0.3661
 6442TIP3    H240962   2.588   2.015   8.294  1.0706 -2.4335 -0.2549
 6443TIP3   OH240963   5.428   2.779   1.223  0.1680  0.3228 -0.0740
 6443TIP3    H140964   5.476   2.816   1.148 -0.9421  1.8781 -0.0701
 6443TIP3    H240965   5.491   2.781   1.295  0.3666  1.6061 -0.2544
 6444TIP3   OH240966   6.097   5.074   2.743 -0.3001  0.5816  0.3670
 6444TIP3    H140967   6.139   5.149   2.785 -1.6409  0.8880  1.1823
 6444TIP3    H240968   6.148   5.061   2.662  0.7338  1.5589  0.8332
 6445TIP3   OH240969   2.640   1.893   7.358  0.8841  0.4110 -0.4571
 6445TIP3    H140970   2.559   1.848   7.382 -0.5292  2.3489 -1.3027
 6445TIP3    H240971   2.692   1.893   7.438  0.2101 -1.1331  0.0282
 6446TIP3   OH240972   6.369   2.232   8.380 -0.3709  0.5262  0.3322
 6446TIP3    H140973   6.303   2.294   8.350 -1.9542 -1.0244  0.4440
 6446TIP3    H240974   6.343   2.209   8.469  0.8269  0.5114  0.7016
 6447TIP3   OH240975   1.780   5.787   1.221  0.5534 -0.3060  0.0672
 6447TIP3    H140976   1.795   5.693   1.215  2.8168 -0.0093  0.2193
 6447TIP3    H240977   1.736   5.799   1.305 -1.7796 -1.3864 -0.9247
 6448TIP3   OH240978   1.420   3.197   1.080 -0.3834 -0.1447  0.1661
 6448TIP3    H140979   1.483   3.138   1.122 -1.0391 -0.9829  0.0148
 6448TIP3    H240980   1.383   3.145   1.009  1.3119  1.5077 -2.0506
 6449TIP3   OH240981   2.749   6.175   2.153 -0.3904  0.1269  0.0678
 6449TIP3    H140982   2.657   6.150   2.148  0.2542 -2.3975 -0.2068
 6449TIP3    H240983   2.761   6.206   2.243 -1.0587 -1.5506  0.7619
 6450TIP3   OH240984   6.294   3.972   7.813  0.1138 -0.7337 -0.3264
 6450TIP3    H140985   6.205   3.952   7.842 -0.1804 -1.0064 -1.3951
 6450TIP3    H240986   6.339   3.888   7.813  0.2342 -0.6702 -0.2783
 6451TIP3   OH240987   6.011   1.177   7.042 -0.0817 -0.2681  0.8973
 6451TIP3    H140988   5.982   1.251   7.095  0.8575 -0.1308  1.2244
 6451TIP3    H240989   6.106   1.181   7.043 -0.0237 -1.0795  0.3426
 6452TIP3   OH240990   4.590   2.252   0.457 -0.1104  0.8685 -0.0347
 6452TIP3    H140991   4.533   2.234   0.532 -1.0678  0.4592 -0.8355
 6452TIP3    H240992   4.667   2.292   0.495 -0.1586 -0.1996  1.2832
 6453TIP3   OH240993   5.410   2.129   1.626  0.0544  0.4399  0.6101
 6453TIP3    H140994   5.479   2.063   1.636  0.4350  0.8813  0.9969
 6453TIP3    H240995   5.411   2.177   1.709 -1.2424 -0.0336  0.9081
 6454TIP3   OH240996   3.007   4.566   1.965  0.1443  0.3523  0.2559
 6454TIP3    H140997   2.972   4.521   1.888 -0.0247 -0.1377  0.6171
 6454TIP3    H240998   3.099   4.581   1.944 -0.2520  1.6341 -0.6980
 6455TIP3   OH240999   2.811   6.455   7.583  0.0310  0.4950  0.1633
 6455TIP3    H141000   2.815   6.549   7.566 -0.2667  0.4836  0.0218
 6455TIP3    H241001   2.720   6.439   7.610  0.4806  0.5018  1.7437
 6456TIP3   OH241002   5.642   0.167   7.772  0.2195 -0.4512  0.1853
 6456TIP3    H141003   5.615   0.075   7.767 -1.2698 -0.0651  0.6746
 6456TIP3    H241004   5.708   0.176   7.704 -0.9110 -1.4520 -1.1100
 6457TIP3   OH241005   2.747   6.087   0.963  0.0098  0.2251  0.2443
 6457TIP3    H141006   2.811   6.146   0.922  1.4893 -0.6080  1.2545
 6457TIP3    H241007   2.712   6.137   1.037 -2.7354  1.7703 -1.8727
 6458TIP3   OH241008   6.801   4.944   8.285  0.1353  0.4638  0.3700
 6458TIP3    H141009   6.748   4.958   8.364  0.1908  0.0054  0.4967
 6458TIP3    H241010   6.791   4.850   8.267  2.0978  0.0286  1.2817
 6459TIP3   OH241011   4.297   1.943   7.651 -0.2574 -0.1540  0.1510
 6459TIP3    H141012   4.336   1.873   7.703 -2.8356 -1.0889  0.9889
 6459TIP3    H241013   4.239   1.989   7.712  0.4907  2.0034 -0.6798
 6460TIP3   OH241014   3.303   6.551   1.519 -0.0646  0.1036 -0.5170
 6460TIP3    H141015   3.224   6.557   1.573 -0.1069  1.2701 -0.6892
 6460TIP3    H241016   3.355   6.627   1.544 -0.1477  0.7543 -2.2005
 6461TIP3   OH241017   2.945   1.376   7.429 -0.0559  0.1408  0.4055
 6461TIP3    H141018   2.878   1.308   7.432 -1.1905  1.2426  0.9304
 6461TIP3    H241019   3.025   1.330   7.403 -0.8457 -1.3321  0.4878
 6462TIP3   OH241020   5.123   1.115   0.252  0.2890 -0.5962 -0.1506
 6462TIP3    H141021   5.062   1.057   0.206  1.1736 -1.0773 -0.7387
 6462TIP3    H241022   5.103   1.102   0.344 -1.2435  0.0825 -0.3382
 6463TIP3   OH241023   1.406   1.076   6.790  0.1994  0.4411  0.3644
 6463TIP3    H141024   1.346   1.033   6.850 -0.0306 -1.1558 -0.9262
 6463TIP3    H241025   1.406   1.168   6.817 -2.8805  0.5417  0.3881
 6464TIP3   OH241026   0.421   4.899   8.165 -0.1372 -0.2580  0.0420
 6464TIP3    H141027   0.428   4.906   8.070 -2.0825 -2.9704 -0.4180
 6464TIP3    H241028   0.511   4.891   8.195  0.5092  0.6475 -1.5454
 6465TIP3   OH241029   0.100   2.238   7.583 -0.0138  0.0612 -0.4476
 6465TIP3    H141030   0.012   2.249   7.620 -0.4774  1.2691 -1.8066
 6465TIP3    H241031   0.131   2.327   7.569  1.2187 -0.3632 -0.5204
 6466TIP3   OH241032   4.140   1.386   7.370 -0.3285 -0.2678 -0.0662
 6466TIP3    H141033   4.222   1.434   7.380  0.3861 -1.3021 -0.7887
 6466TIP3    H241034   4.101   1.386   7.458  1.0911 -0.8830  0.5974
 6467TIP3   OH241035   3.107   4.223   0.072  0.1994  0.1956  0.0664
 6467TIP3    H141036   3.087   4.130   0.062  1.2495 -0.1117  0.7487
 6467TIP3    H241037   3.191   4.225   0.116  0.7267  1.4695 -0.9323
 6468TIP3   OH241038   4.571   4.781   7.434  0.2282 -0.2134 -0.0333
 6468TIP3    H141039   4.513   4.856   7.442  1.7131  0.8757  1.0245
 6468TIP3    H241040   4.563   4.735   7.517  1.8071  0.6889  0.6642
 6469TIP3   OH241041   2.812   2.261   8.430 -0.6295  0.5211  0.3690
 6469TIP3    H141042   2.905   2.286   8.433 -0.1926 -1.0020  0.8035
 6469TIP3    H241043   2.766   2.332   8.474  0.0269  2.4096 -1.8076
 6470TIP3   OH241044   1.543   0.463   7.249 -0.0070 -0.0337 -0.5200
 6470TIP3    H141045   1.526   0.532   7.186  2.7678 -0.8321 -2.3316
 6470TIP3    H241046   1.638   0.466   7.263 -0.1522 -1.7739  1.4031
 6471TIP3   OH241047   5.107   4.193   2.762  0.2341 -0.2165  0.4458
 6471TIP3    H141048   5.080   4.241   2.683 -0.2489 -0.3577  0.5219
 6471TIP3    H241049   5.062   4.109   2.756  1.3160 -0.7953  0.1612
 6472TIP3   OH241050   5.593   2.887   0.996  0.1393 -0.1951  0.3369
 6472TIP3    H141051   5.661   2.937   1.041 -1.5280  3.4658 -0.7963
 6472TIP3    H241052   5.598   2.916   0.905 -1.4523 -1.6262 -0.2640
 6473TIP3   OH241053   2.239   4.514   2.031 -0.1242  0.4067 -0.0725
 6473TIP3    H141054   2.268   4.476   2.114 -1.1820  1.6949  0.9056
 6473TIP3    H241055   2.240   4.608   2.045 -1.8806  0.5939 -0.9833
 6474TIP3   OH241056   3.438   0.312   1.192 -0.0538 -0.1096 -0.7034
 6474TIP3    H141057   3.443   0.401   1.229 -0.1718  0.0199 -0.9944
 6474TIP3    H241058   3.366   0.271   1.239 -1.7797  0.8319 -2.3898
 6475TIP3   OH241059   5.762   3.861   7.904  0.1510  0.4600 -0.1214
 6475TIP3    H141060   5.675   3.896   7.883 -0.3073  1.3233  2.8455
 6475TIP3    H241061   5.771   3.873   7.998  3.1849 -0.3780 -0.2059
 6476TIP3   OH241062   2.989   2.548   7.305  0.7093  0.4009  0.2433
 6476TIP3    H141063   2.932   2.598   7.247 -0.8635 -2.4933 -0.9449
 6476TIP3    H241064   3.036   2.489   7.246 -1.8139 -3.5016  1.7045
 6477TIP3   OH241065   1.792   5.366   7.875 -0.1824  0.0178 -0.1256
 6477TIP3    H141066   1.843   5.428   7.928 -0.2368 -1.9832  2.5033
 6477TIP3    H241067   1.851   5.342   7.803  2.2833 -1.2597  2.1051
 6478TIP3   OH241068   2.414   0.768   8.781 -0.2307 -0.1108  0.3713
 6478TIP3    H141069   2.389   0.680   8.751  0.6775 -0.6165  1.0415
 6478TIP3    H241070   2.332   0.805   8.815 -1.1424  0.2215 -1.9933
 6479TIP3   OH241071   2.890   5.034   0.862 -0.8601  0.1237 -0.2000
 6479TIP3    H141072   2.915   4.968   0.798  0.5710  0.0515  0.3858
 6479TIP3    H241073   2.974   5.065   0.898 -1.5321  1.7076  0.0830
 6480TIP3   OH241074   4.169   4.739   8.294 -0.1876 -0.2260  0.0247
 6480TIP3    H141075   4.233   4.692   8.347  0.5552  1.1579  0.4189
 6480TIP3    H241076   4.221   4.781   8.226 -1.0875 -1.6995 -1.6448
 6481TIP3   OH241077   2.816   3.747   1.445 -0.1656 -0.3649  0.2446
 6481TIP3    H141078   2.730   3.779   1.418  0.1130 -0.7604 -1.2172
 6481TIP3    H241079   2.845   3.810   1.510 -0.5175  1.2252 -1.0639
 6482TIP3   OH241080   4.304   4.421   7.679 -0.0996 -0.2638  0.2502
 6482TIP3    H141081   4.395   4.394   7.669  0.1337 -0.6943  2.8305
 6482TIP3    H241082   4.260   4.345   7.716 -1.5917 -0.1102 -1.0806
 6483TIP3   OH241083   4.221   3.996   6.860  0.4550 -0.0193 -0.1731
 6483TIP3    H141084   4.190   3.927   6.803  0.4153  0.1673 -0.3778
 6483TIP3    H241085   4.198   4.077   6.815  0.5442  0.1267  0.0415
 6484TIP3   OH241086   0.564   3.863   1.411 -0.5518 -0.2582 -0.6851
 6484TIP3    H141087   0.545   3.854   1.318 -1.8381  1.9842 -0.7218
 6484TIP3    H241088   0.626   3.936   1.417 -0.7000 -0.1826  0.2042
 6485TIP3   OH241089   5.866   5.497   1.403 -0.4955 -0.2509  0.4334
 6485TIP3    H141090   5.824   5.566   1.455  1.1781  0.9353  0.2918
 6485TIP3    H241091   5.867   5.532   1.314  0.0410 -0.6060  0.2947
 6486TIP3   OH241092   5.836   4.140   7.484  0.2980  1.1600  1.1150
 6486TIP3    H141093   5.804   4.229   7.467  1.4874  1.4630  0.3215
 6486TIP3    H241094   5.826   4.094   7.401  0.9800  0.9819  1.1191
 6487TIP3   OH241095   3.930   4.385   0.318  0.1782 -0.7667 -0.2366
 6487TIP3    H141096   4.017   4.394   0.357  0.7111 -0.5175 -1.4221
 6487TIP3    H241097   3.904   4.475   0.298  0.3507 -0.9477 -1.3288
 6488TIP3   OH241098   0.460   1.935   7.304 -0.1288 -0.1202  0.2098
 6488TIP3    H141099   0.491   1.959   7.217  0.5313  1.5099  0.8600
 6488TIP3    H241100   0.449   2.018   7.350 -0.5932 -0.9327  1.6559
 6489TIP3   OH241101   2.954   4.072   0.933 -0.1992 -0.3595  0.1412
 6489TIP3    H141102   2.960   4.117   0.848  0.0675  0.1429  0.4236
 6489TIP3    H241103   2.920   4.138   0.993  0.3793 -0.4725  0.6041
 6490TIP3   OH241104   5.075   3.303   1.491 -0.4056  0.3344 -0.0993
 6490TIP3    H141105   4.982   3.315   1.475 -0.9789 -2.4911  0.6081
 6490TIP3    H241106   5.082   3.295   1.586  0.0949 -2.0635 -0.2678
 6491TIP3   OH241107   5.556   6.171   0.236  0.1145 -0.0485 -0.0934
 6491TIP3    H141108   5.467   6.185   0.205 -0.3780  1.1856  1.7520
 6491TIP3    H241109   5.611   6.205   0.165 -0.9418  1.7960 -0.0970
 6492TIP3   OH241110   5.588   5.557   7.537  0.2583 -0.3776  0.9935
 6492TIP3    H141111   5.646   5.615   7.488 -2.1862  0.3471 -1.2496
 6492TIP3    H241112   5.589   5.592   7.626  2.3268  0.2717  0.7718
 6493TIP3   OH241113   5.134   4.100   0.684 -0.2180  0.0947 -0.2410
 6493TIP3    H141114   5.160   4.180   0.639 -0.1400  0.5241  0.5563
 6493TIP3    H241115   5.050   4.076   0.645 -0.2241  0.5397 -0.5045
 6494TIP3   OH241116   1.710   6.696   1.816  0.3601  0.2300  0.5537
 6494TIP3    H141117   1.782   6.676   1.756  1.6785  3.2099  0.9876
 6494TIP3    H241118   1.703   6.791   1.815 -3.2821  0.1142  0.9618
 6495TIP3   OH241119   0.302   5.975   0.595 -0.1845  0.3571 -0.4856
 6495TIP3    H141120   0.316   5.968   0.689 -0.6049  0.2232 -0.4306
 6495TIP3    H241121   0.390   5.979   0.558  0.1735 -3.3090 -0.3621
 6496TIP3   OH241122   0.874   3.410   0.372 -0.3339  0.9696 -0.7373
 6496TIP3    H141123   0.958   3.371   0.347 -0.6235 -0.3306  0.2056
 6496TIP3    H241124   0.891   3.452   0.457 -1.1290 -1.3795  0.6853
 6497TIP3   OH241125   0.144   5.546   8.326  0.1675 -0.6189 -0.1992
 6497TIP3    H141126   0.208   5.517   8.391  0.4651  1.8139  0.6802
 6497TIP3    H241127   0.075   5.589   8.376 -1.7050 -2.2431 -1.2235
 6498TIP3   OH241128   2.173   3.437   7.581  0.1227  0.4533 -0.4514
 6498TIP3    H141129   2.167   3.499   7.509  0.0946  0.2373 -0.6339
 6498TIP3    H241130   2.246   3.469   7.635  1.8613 -0.8035 -1.9312
 6499TIP3   OH241131   2.975   2.262   7.136  0.0724  0.3428  0.6231
 6499TIP3    H141132   3.066   2.289   7.121  0.2725 -0.8400 -0.5179
 6499TIP3    H241133   2.926   2.343   7.139  0.8824  0.9368 -0.9471
 6500TIP3   OH241134   3.193   6.613   0.678 -0.3359 -0.4195  0.3511
 6500TIP3    H141135   3.276   6.634   0.721  0.3593 -2.6484  0.2251
 6500TIP3    H241136   3.137   6.689   0.695  1.5650  0.9457  0.8189
 6501TIP3   OH241137   2.044   6.548   7.911 -0.3829 -0.1491  0.2918
 6501TIP3    H141138   2.109   6.479   7.928  0.2941  0.5174  0.4434
 6501TIP3    H241139   2.005   6.523   7.827 -0.0542 -0.6541  0.2833
 6502TIP3   OH241140   6.844   0.458   1.648 -0.4486 -0.1818  0.0091
 6502TIP3    H141141   6.937   0.463   1.624 -0.6868  0.2588 -0.8307
 6502TIP3    H241142   6.811   0.382   1.601 -0.8821  0.5961 -0.9576
 6503TIP3   OH241143   2.539   0.596   0.409 -0.6033 -0.0212  0.3308
 6503TIP3    H141144   2.599   0.667   0.389 -0.9649  0.1938 -0.0052
 6503TIP3    H241145   2.464   0.640   0.450 -0.5550 -0.2813  0.7056
 6504TIP3   OH241146   1.638   2.346   8.445 -0.3947 -0.1594  0.3922
 6504TIP3    H141147   1.687   2.428   8.441  1.3116 -1.1907 -1.1313
 6504TIP3    H241148   1.688   2.290   8.503 -0.5903 -0.7113  0.0419
 6505TIP3   OH241149   4.356   5.967   0.010 -0.6934 -0.0149 -0.5959
 6505TIP3    H141150   4.323   5.948   0.099 -1.2697  0.1628 -0.7658
 6505TIP3    H241151   4.434   5.912   0.002 -0.5317  0.0957  0.0860
 6506TIP3   OH241152   6.317   2.754   0.837 -0.2492  0.2991 -0.6032
 6506TIP3    H141153   6.221   2.752   0.828 -0.3066  1.6089 -0.5658
 6506TIP3    H241154   6.335   2.842   0.870  0.7793 -0.7416  1.8354
 6507TIP3   OH241155   2.201   6.794   1.742  0.3652 -0.3756 -0.1480
 6507TIP3    H141156   2.161   6.754   1.665  1.1222 -0.9075 -0.2684
 6507TIP3    H241157   2.275   6.844   1.708  1.1855 -1.2514  0.2977
 6508TIP3   OH241158   1.796   1.391   1.104  0.1028 -0.6465  0.3280
 6508TIP3    H141159   1.798   1.301   1.136 -2.1944 -0.5141  1.0540
 6508TIP3    H241160   1.721   1.431   1.149  0.3428  1.2890 -0.8567
 6509TIP3   OH241161   2.889   1.131   8.444  0.2364 -0.4102  0.3835
 6509TIP3    H141162   2.862   1.204   8.500  1.5409  0.2439  0.1972
 6509TIP3    H241163   2.822   1.125   8.376 -1.6195 -1.4846  2.1904
 6510TIP3   OH241164   6.198   4.750   0.388 -0.1113 -0.2789  0.3483
 6510TIP3    H141165   6.282   4.721   0.424 -0.5547 -2.6944 -0.3344
 6510TIP3    H241166   6.132   4.714   0.448 -0.7080  0.4361  0.1399
 6511TIP3   OH241167   4.585   3.025   7.710  0.1525 -0.3990 -0.2141
 6511TIP3    H141168   4.617   3.028   7.619 -0.5432 -0.2193 -0.4569
 6511TIP3    H241169   4.493   2.999   7.702 -0.5791  1.8693  0.2752
 6512TIP3   OH241170   1.460   5.516   0.620 -0.0793  0.4081 -0.2633
 6512TIP3    H141171   1.397   5.585   0.599 -0.5437 -0.2621 -1.0936
 6512TIP3    H241172   1.444   5.448   0.555  2.4771  0.8237 -1.4517
 6513TIP3   OH241173   1.554   6.707   0.266  0.2206 -0.0475  0.3305
 6513TIP3    H141174   1.603   6.757   0.332  2.1849 -0.4697 -0.7550
 6513TIP3    H241175   1.558   6.616   0.297 -0.5506  0.0011  0.6095
 6514TIP3   OH241176   2.262   0.257   0.229  0.7139 -0.2056 -0.3821
 6514TIP3    H141177   2.357   0.249   0.243  0.9199  0.7758 -1.1352
 6514TIP3    H241178   2.251   0.343   0.188 -0.2058 -1.4352 -2.9223
 6515TIP3   OH241179   4.910   2.868   1.416 -0.3314  0.5331  0.4723
 6515TIP3    H141180   4.817   2.891   1.420 -0.5139  0.0019 -0.2502
 6515TIP3    H241181   4.946   2.924   1.347 -0.9561 -1.7247 -1.8749
 6516TIP3   OH241182   6.035   2.397   7.871  0.2346 -0.4127  0.4759
 6516TIP3    H141183   6.085   2.315   7.876 -2.2063 -2.0396 -0.2045
 6516TIP3    H241184   6.017   2.408   7.778 -1.2284 -0.2713  0.7541
 6517TIP3   OH241185   0.270   2.839   2.510  0.1820 -0.0659 -0.2599
 6517TIP3    H141186   0.343   2.808   2.457  1.0023 -0.1726  0.8856
 6517TIP3    H241187   0.311   2.887   2.582 -0.8377 -0.4622  0.6254
 6518TIP3   OH241188   4.062   0.928   6.465 -0.6227 -0.0616 -0.1947
 6518TIP3    H141189   4.157   0.935   6.468 -0.7022  1.0079  0.2981
 6518TIP3    H241190   4.038   0.966   6.380 -0.5125 -1.9409 -1.1136
 6519TIP3   OH241191   2.288   1.179   0.820 -0.2147 -0.1754  0.1149
 6519TIP3    H141192   2.224   1.178   0.892 -1.0237  1.3960 -0.5346
 6519TIP3    H241193   2.307   1.272   0.805 -0.7120 -0.3804 -2.2244
 6520TIP3   OH241194   1.472   3.038   0.154  0.2246  0.0191  0.0223
 6520TIP3    H141195   1.546   3.092   0.182  1.7433 -1.2187 -1.3252
 6520TIP3    H241196   1.424   3.092   0.091  1.0082  0.2625 -0.3823
 6521TIP3   OH241197   5.328   4.241   8.406 -0.2806 -0.0796 -0.5739
 6521TIP3    H141198   5.297   4.272   8.491 -1.3883  0.0688 -1.0266
 6521TIP3    H241199   5.420   4.216   8.422 -0.6599 -0.6794  0.8147
 6522TIP3   OH241200   2.873   4.412   8.330 -0.0983 -0.2331  0.7488
 6522TIP3    H141201   2.951   4.433   8.278 -0.4463 -1.3779 -0.2948
 6522TIP3    H241202   2.862   4.487   8.388  0.5520  0.9282 -0.5649
 6523TIP3   OH241203   5.674   3.351   7.687 -0.8485 -0.0154 -0.1558
 6523TIP3    H141204   5.733   3.422   7.712  0.3245 -1.4851  1.3968
 6523TIP3    H241205   5.730   3.286   7.646 -2.1159  0.4600 -2.9285
 6524TIP3   OH241206   1.086   4.398   7.346 -0.0034  0.0598  0.0740
 6524TIP3    H141207   1.050   4.310   7.339  2.3126 -0.8222 -2.3715
 6524TIP3    H241208   1.023   4.454   7.300  0.7999 -1.2041 -2.8181
 6525TIP3   OH241209   1.128   2.772   7.115  0.2493 -0.2479 -0.1363
 6525TIP3    H141210   1.066   2.705   7.087  0.5838 -1.0708  0.9899
 6525TIP3    H241211   1.118   2.842   7.052 -0.6453 -1.0547 -0.9274
 6526TIP3   OH241212   5.953   1.359   8.147 -0.2091  0.1224 -0.3040
 6526TIP3    H141213   5.908   1.317   8.221  0.5999  1.1383  0.8172
 6526TIP3    H241214   5.944   1.297   8.075 -0.6119 -1.1329  0.7763
 6527TIP3   OH241215   4.724   2.934   8.413  0.3009 -0.2737  0.0415
 6527TIP3    H141216   4.636   2.973   8.413  0.9005  1.1467  0.2050
 6527TIP3    H241217   4.756   2.947   8.502  1.3274  0.8143 -0.4609
 6528TIP3   OH241218   5.069   2.188   0.577 -0.2887  0.2148 -0.5027
 6528TIP3    H141219   5.040   2.125   0.642  0.0223 -0.0416 -0.6089
 6528TIP3    H241220   5.073   2.138   0.495  1.0967  0.0613 -0.3661
 6529TIP3   OH241221   2.474   6.158   0.058  0.2443  0.0802 -0.0065
 6529TIP3    H141222   2.440   6.213   0.128  0.8275 -0.0228  0.3606
 6529TIP3    H241223   2.463   6.069   0.089  0.7474  0.0421  0.0751
 6530TIP3   OH241224   0.810   4.425   0.162 -0.6234  0.0662 -0.1377
 6530TIP3    H141225   0.861   4.346   0.143 -0.4478  0.2278 -0.3478
 6530TIP3    H241226   0.772   4.449   0.077  0.3423  0.9215 -0.3564
 6531TIP3   OH241227   6.470   6.255   1.474  0.1398  0.0052  0.0168
 6531TIP3    H141228   6.547   6.275   1.421  1.0675  0.7367  1.5805
 6531TIP3    H241229   6.401   6.309   1.437 -0.0015 -1.5570 -2.1846
 6532TIP3   OH241230   5.964   0.535   0.833  0.2311 -0.0890 -0.1211
 6532TIP3    H141231   6.045   0.508   0.876  1.7357  0.7864 -2.2434
 6532TIP3    H241232   5.924   0.453   0.805 -0.5739 -0.6552  2.3852
 6533TIP3   OH241233   5.316   3.450   2.628  0.0077  0.2286 -0.2168
 6533TIP3    H141234   5.231   3.465   2.586 -0.2100  0.2570  0.2305
 6533TIP3    H241235   5.323   3.519   2.694  0.5692  0.4843 -0.5360
 6534TIP3   OH241236   3.525   4.790   7.766 -0.0561 -0.1518  0.5786
 6534TIP3    H141237   3.444   4.836   7.789  0.1352  0.8096 -0.5601
 6534TIP3    H241238   3.503   4.698   7.775 -1.7159  0.0409 -1.0040
 6535TIP3   OH241239   1.789   5.671   7.019 -0.0753  0.3387  0.2213
 6535TIP3    H141240   1.759   5.635   6.936 -0.8758 -1.1491  1.1141
 6535TIP3    H241241   1.721   5.646   7.082  1.5297 -0.4203  1.7226
 6536TIP3   OH241242   1.963   0.946   8.125  0.1156  0.5486 -0.2430
 6536TIP3    H141243   2.030   0.892   8.168 -0.9054  0.4769  1.3352
 6536TIP3    H241244   1.943   0.899   8.045  1.6974  0.3911 -0.5835
 6537TIP3   OH241245   0.135   6.847   0.367  0.8526 -0.1886  0.2987
 6537TIP3    H141246   0.094   6.761   0.379 -0.3670  0.2700 -0.4330
 6537TIP3    H241247   0.072   6.909   0.403  1.0362  0.5056 -0.5465
 6538TIP3   OH241248   3.114   4.107   0.379 -0.1369 -0.2697  0.6027
 6538TIP3    H141249   3.173   4.054   0.324  0.5952  0.0478  1.0684
 6538TIP3    H241250   3.168   4.135   0.452 -0.5757  0.9122  0.5019
 6539TIP3   OH241251   0.492   3.774   1.154 -0.5189  0.5311  0.2889
 6539TIP3    H141252   0.510   3.680   1.148 -0.4084  0.5014  0.9987
 6539TIP3    H241253   0.396   3.780   1.148 -0.8362  0.0731  3.3150
 6540TIP3   OH241254   6.521   2.697   8.263  0.2537  0.1744 -0.0138
 6540TIP3    H141255   6.508   2.700   8.169 -1.5769 -0.2168  0.1964
 6540TIP3    H241256   6.463   2.764   8.298  1.7403  1.1008  0.7897
 6541TIP3   OH241257   4.990   5.931   6.372  0.0927  0.3746 -0.0340
 6541TIP3    H141258   4.904   5.913   6.411 -0.3152 -2.9700 -2.1620
 6541TIP3    H241259   4.994   6.027   6.369 -1.4744  0.8152  4.3495
 6542TIP3   OH241260   2.886   4.094   7.960 -0.7012  0.3728 -0.1396
 6542TIP3    H141261   2.792   4.100   7.977 -0.2604  3.2391  2.1623
 6542TIP3    H241262   2.927   4.120   8.043  2.1980 -1.7831 -0.7366
 6543TIP3   OH241263   3.839   5.055   1.515  0.2627 -0.3555  0.5000
 6543TIP3    H141264   3.773   4.989   1.495 -1.0741  1.1691 -0.3232
 6543TIP3    H241265   3.912   5.005   1.551 -0.7022 -2.2702 -0.0507
 6544TIP3   OH241266   2.991   4.723   1.347  0.3393  0.0749 -0.3019
 6544TIP3    H141267   3.076   4.699   1.310  0.1259 -1.0998 -0.0737
 6544TIP3    H241268   3.006   4.725   1.442  0.3669  0.9340 -0.3225
 6545TIP3   OH241269   6.393   3.233   2.518 -0.9318 -0.0412 -0.1083
 6545TIP3    H141270   6.322   3.169   2.519 -1.2031  0.2401  1.7667
 6545TIP3    H241271   6.427   3.232   2.607 -1.2005  2.7083  0.0854
 6546TIP3   OH241272   6.052   3.989   8.704 -0.2532  0.2310  0.0686
 6546TIP3    H141273   6.097   3.961   8.625  0.6561 -0.4309  0.8055
 6546TIP3    H241274   6.038   3.908   8.754  1.2915  0.8813  1.6532
 6547TIP3   OH241275   0.671   6.562   1.795 -0.0131  0.6264  0.4985
 6547TIP3    H141276   0.587   6.549   1.751 -0.7885  0.1795  2.0260
 6547TIP3    H241277   0.736   6.554   1.726 -1.2599  1.8129 -0.8748
 6548TIP3   OH241278   0.468   5.723   7.809 -0.3932  0.5702  0.0883
 6548TIP3    H141279   0.516   5.689   7.734 -0.3372 -0.2306  0.4778
 6548TIP3    H241280   0.439   5.645   7.857 -1.4423  1.0542  0.2637
 6549TIP3   OH241281   4.133   3.035   2.629 -0.2673 -0.4135  0.4058
 6549TIP3    H141282   4.170   3.097   2.692  0.5058 -0.7240  0.2665
 6549TIP3    H241283   4.041   3.061   2.621  0.0327  0.6930  0.3785
 6550TIP3   OH241284   4.160   1.602   7.630  0.4624 -0.8523  0.7570
 6550TIP3    H141285   4.200   1.600   7.543 -0.6868  1.2613  0.1006
 6550TIP3    H241286   4.096   1.531   7.628 -2.3083  1.4219 -1.6745
 6551TIP3   OH241287   0.472   3.532   8.088  0.1504  0.6327  0.2918
 6551TIP3    H141288   0.558   3.572   8.083  0.3652  0.1722  0.2580
 6551TIP3    H241289   0.479   3.469   8.160 -0.3629  1.0810  0.7473
 6552TIP3   OH241290   5.471   4.756   2.192  0.1337 -0.3635 -0.3930
 6552TIP3    H141291   5.408   4.705   2.143 -0.3682  0.6174 -0.8012
 6552TIP3    H241292   5.439   4.754   2.282 -0.2025 -0.2762 -0.5119
 6553TIP3   OH241293   6.575   3.959   7.702 -0.1872 -0.3368 -0.0151
 6553TIP3    H141294   6.552   3.869   7.725 -1.1466 -0.8360 -2.6639
 6553TIP3    H241295   6.496   3.994   7.660  0.0464  1.8932  1.2456
 6554TIP3   OH241296   1.710   4.718   1.061  0.1264 -0.1906 -0.0081
 6554TIP3    H141297   1.674   4.750   0.978  1.7331  0.6168 -0.4237
 6554TIP3    H241298   1.688   4.785   1.125 -1.8645 -1.2048  0.4704
 6555TIP3   OH241299   5.083   0.457   1.671 -0.8525  0.0742 -0.4151
 6555TIP3    H141300   5.108   0.550   1.677 -0.5605 -0.0147 -0.2281
 6555TIP3    H241301   5.045   0.437   1.756  0.7051 -0.4396  0.1925
 6556TIP3   OH241302   4.307   6.086   7.337  0.0108 -0.5198 -0.0996
 6556TIP3    H141303   4.321   5.997   7.367  0.4374 -0.4836 -0.1813
 6556TIP3    H241304   4.360   6.093   7.258  0.9587  0.1759  0.5771
 6557TIP3   OH241305   2.080   5.865   7.518  0.9195 -0.4656 -0.7068
 6557TIP3    H141306   2.092   5.805   7.591 -0.1533  0.6952  0.4797
 6557TIP3    H241307   2.155   5.924   7.522  0.6092 -0.0996 -0.2268
 6558TIP3   OH241308   6.279   4.962   0.581  0.3211  0.1855 -0.1761
 6558TIP3    H141309   6.305   5.033   0.639  1.7298 -0.0964 -0.4295
 6558TIP3    H241310   6.192   4.987   0.549  0.1513  1.0458  0.9099
 6559TIP3   OH241311   2.651   4.807   8.040  0.0500  0.5500 -0.0845
 6559TIP3    H141312   2.562   4.837   8.018 -0.0278 -0.7582 -1.7246
 6559TIP3    H241313   2.648   4.712   8.027  1.2016  0.2273  1.6803
 6560TIP3   OH241314   1.399   1.295   6.954 -0.3467 -0.5047 -0.4240
 6560TIP3    H141315   1.323   1.348   6.975  0.4829  0.9111 -0.8718
 6560TIP3    H241316   1.472   1.357   6.951  0.7809 -1.7747 -0.2987
 6561TIP3   OH241317   3.921   2.578   8.033  0.1029 -0.5549  0.4843
 6561TIP3    H141318   3.997   2.521   8.030  2.1493  2.0246 -0.2979
 6561TIP3    H241319   3.863   2.546   7.964  2.6032  0.0731 -2.0724
 6562TIP3   OH241320   4.395   1.553   1.158  0.4064  0.2005 -0.4625
 6562TIP3    H141321   4.491   1.551   1.165  0.3183 -0.1162  1.0338
 6562TIP3    H241322   4.376   1.501   1.080  1.4511  0.1643 -0.7088
 6563TIP3   OH241323   1.220   0.108   0.873  0.1164  0.3114  0.2635
 6563TIP3    H141324   1.189   0.018   0.865 -2.0552  0.5039  4.0905
 6563TIP3    H241325   1.157   0.160   0.823  0.6043 -0.1202 -0.8425
 6564TIP3   OH241326   3.807   3.413   1.135 -0.2429 -0.0789  0.0187
 6564TIP3    H141327   3.737   3.391   1.196  0.7058  0.0048  1.1689
 6564TIP3    H241328   3.780   3.496   1.096 -1.4000 -0.6965 -0.5398
 6565TIP3   OH241329   0.274   6.286   7.729  0.2548  0.0987  0.0122
 6565TIP3    H141330   0.246   6.338   7.805  1.6054  1.1296 -0.1561
 6565TIP3    H241331   0.346   6.232   7.763  0.3603  0.0037 -0.3653
 6566TIP3   OH241332   3.616   1.374   0.651 -0.1720  0.6188 -0.8841
 6566TIP3    H141333   3.577   1.357   0.565  1.2225  0.0643 -1.4336
 6566TIP3    H241334   3.675   1.448   0.636 -1.3658  1.8154  0.0602
 6567TIP3   OH241335   0.710   4.211   0.532  0.6906 -0.4886  0.2381
 6567TIP3    H141336   0.660   4.214   0.451  0.0643 -0.8706  0.6031
 6567TIP3    H241337   0.728   4.303   0.552 -0.6559 -0.2666  0.5698
 6568TIP3   OH241338   6.765   1.989   8.504 -0.2244  0.6676 -0.2108
 6568TIP3    H141339   6.818   1.932   8.448 -0.8847 -0.6164  0.4148
 6568TIP3    H241340   6.720   2.048   8.442  0.3784  0.4306 -0.8877
 6569TIP3   OH241341   2.523   6.827   2.510  0.1888 -0.3664  0.5101
 6569TIP3    H141342   2.432   6.855   2.519  0.5326  1.0846 -0.2283
 6569TIP3    H241343   2.567   6.901   2.467  1.8056 -0.8621  1.2232
 6570TIP3   OH241344   0.534   6.276   7.181 -0.5289  0.0638 -0.3654
 6570TIP3    H141345   0.447   6.316   7.180 -1.4048 -1.3503  3.2268
 6570TIP3    H241346   0.563   6.282   7.272  1.9153 -1.9879 -0.8784
 6571TIP3   OH241347   4.003   3.765   6.638 -0.0518 -0.7148 -0.2112
 6571TIP3    H141348   4.002   3.673   6.667 -0.8856 -1.2368 -1.7672
 6571TIP3    H241349   3.925   3.803   6.677  0.3191 -0.6495  0.4757
 6572TIP3   OH241350   3.219   6.833   6.999  0.6684 -0.0540 -0.1726
 6572TIP3    H141351   3.181   6.908   7.045 -1.6214 -1.5037  0.4524
 6572TIP3    H241352   3.185   6.840   6.910  1.5737  0.3644 -0.4991
 6573TIP3   OH241353   2.296   0.889   0.894  0.0438 -0.2376 -0.2231
 6573TIP3    H141354   2.273   0.824   0.827  0.6618 -0.0466 -0.6329
 6573TIP3    H241355   2.326   0.965   0.844 -0.3054  0.2196  0.2612
 6574TIP3   OH241356   3.059   1.439   1.007 -0.0183  0.6424 -0.1699
 6574TIP3    H141357   3.043   1.528   0.975  1.7221  1.3682  0.8309
 6574TIP3    H241358   3.113   1.451   1.085  1.5381 -1.3455 -0.8508
 6575TIP3   OH241359   6.765   6.233   7.518 -0.2681 -0.0433  0.4017
 6575TIP3    H141360   6.800   6.316   7.485 -0.9975  0.1804  0.1706
 6575TIP3    H241361   6.675   6.231   7.487 -0.0135 -1.3398 -0.3369
 6576TIP3   OH241362   4.078   4.668   0.533  0.5268  0.0547 -0.5397
 6576TIP3    H141363   4.071   4.634   0.622 -0.3896  1.6512  0.0514
 6576TIP3    H241364   4.171   4.661   0.511  1.3445  2.2858  1.7060
 6577TIP3   OH241365   5.461   5.959   1.742 -0.4761  0.0475 -0.1055
 6577TIP3    H141366   5.374   5.930   1.714 -0.6864  0.7244 -0.1724
 6577TIP3    H241367   5.449   5.982   1.835 -0.7171  1.4275 -0.4470
 6578TIP3   OH241368   0.002   2.143   7.026  0.6389  0.5588  0.1296
 6578TIP3    H141369  -0.082   2.165   7.066 -0.2527  0.7429 -1.7804
 6578TIP3    H241370  -0.014   2.062   6.978  2.1768 -0.6904  1.5845
 6579TIP3   OH241371   2.142   2.456   8.382 -0.2714  0.0501 -0.4493
 6579TIP3    H141372   2.047   2.446   8.375 -0.5096  1.8804 -0.4106
 6579TIP3    H241373   2.172   2.467   8.292 -0.7289  3.7365 -0.3069
 6580TIP3   OH241374   2.401   4.124   8.680 -0.0399  0.0267  0.4034
 6580TIP3    H141375   2.377   4.090   8.594 -4.3220  0.8114  1.0720
 6580TIP3    H241376   2.378   4.216   8.678  0.7090  0.2973  2.1084
 6581TIP3   OH241377   3.207   2.715   8.232  0.2013  0.3441 -0.1495
 6581TIP3    H141378   3.257   2.738   8.311  0.3724  0.5993 -0.3305
 6581TIP3    H241379   3.141   2.653   8.263  1.3820 -0.9434 -0.1009
 6582TIP3   OH241380   3.339   3.117   1.016 -0.1532  0.5410  0.2121
 6582TIP3    H141381   3.279   3.056   0.972  0.2077  0.1742  0.2246
 6582TIP3    H241382   3.389   3.157   0.945  0.3385  0.0450  0.2680
 6583TIP3   OH241383   2.457   0.113   8.586 -0.9353 -0.2629 -0.1558
 6583TIP3    H141384   2.392   0.129   8.655 -0.5009  1.4999 -0.1001
 6583TIP3    H241385   2.430   0.171   8.514  0.2996  0.1556 -0.3072
 6584TIP3   OH241386   4.123   0.845   8.457 -0.4542  0.0364 -0.1343
 6584TIP3    H141387   4.121   0.841   8.552 -1.7929  0.3227 -0.1279
 6584TIP3    H241388   4.112   0.755   8.428  1.6304 -0.3001 -0.0538
 6585TIP3   OH241389   1.631   6.121   1.292  0.2117 -0.9173 -0.3067
 6585TIP3    H141390   1.706   6.096   1.238 -0.7417 -2.5027 -1.0070
 6585TIP3    H241391   1.632   6.216   1.293  1.4265 -0.8842 -1.4735
 6586TIP3   OH241392   0.953   1.345   2.368 -0.3279 -0.1176 -0.6591
 6586TIP3    H141393   1.016   1.272   2.372 -0.1591  0.0636  0.0798
 6586TIP3    H241394   0.998   1.412   2.317  0.5427  0.4370  0.7733
 6587TIP3   OH241395   4.251   1.641   2.254  0.1886  0.0499 -0.5313
 6587TIP3    H141396   4.306   1.593   2.315 -0.9769 -0.8611 -0.1785
 6587TIP3    H241397   4.202   1.702   2.309 -0.7073 -0.6262 -0.5614
 6588TIP3   OH241398   0.203   5.870   2.020  0.1454  0.4415  0.0950
 6588TIP3    H141399   0.174   5.803   2.081  0.7503 -0.1592 -0.2656
 6588TIP3    H241400   0.272   5.828   1.969  0.8136  1.4608  0.1300
 6589TIP3   OH241401   2.652   3.510   0.351 -0.0126  0.7673  0.2726
 6589TIP3    H141402   2.570   3.512   0.400  0.8792  0.5958  1.8457
 6589TIP3    H241403   2.719   3.490   0.417  1.0479 -1.2071 -1.2898
 6590TIP3   OH241404   1.141   4.753   8.223 -0.6338  0.2309  0.2690
 6590TIP3    H141405   1.080   4.728   8.293 -1.5891 -0.9459 -0.9425
 6590TIP3    H241406   1.215   4.693   8.234 -1.9746 -1.8438 -1.3117
 6591TIP3   OH241407   4.626   4.631   0.641 -0.4070 -0.2906  0.3597
 6591TIP3    H141408   4.687   4.654   0.571 -1.2756 -2.0060 -1.0467
 6591TIP3    H241409   4.582   4.713   0.664  2.1303  0.9160  1.1941
 6592TIP3   OH241410   6.038   6.577   7.503 -0.5241 -0.1108 -0.7610
 6592TIP3    H141411   5.945   6.579   7.479 -0.1525  1.7132 -2.3048
 6592TIP3    H241412   6.076   6.509   7.447 -0.3315  1.6422 -2.8810
 6593TIP3   OH241413   1.836   2.967   6.980  0.5187  0.1818 -0.2511
 6593TIP3    H141414   1.927   2.942   6.991  0.8448  1.4195  0.0013
 6593TIP3    H241415   1.789   2.884   6.973  1.3929 -0.5351  1.6557
 6594TIP3   OH241416   5.861   5.602   2.502  0.1432 -0.0394 -0.3749
 6594TIP3    H141417   5.936   5.660   2.512  0.8409 -0.8329 -0.8898
 6594TIP3    H241418   5.873   5.535   2.570 -0.7291  0.4714  0.3090
 6595TIP3   OH241419   5.443   1.729   2.390  0.2752  0.4733  0.0999
 6595TIP3    H141420   5.490   1.733   2.308 -0.0491 -0.6572 -0.1632
 6595TIP3    H241421   5.510   1.739   2.458  0.7847 -0.3092 -0.2792
 6596TIP3   OH241422   6.543   2.565   0.918 -0.5125  0.7538  0.5099
 6596TIP3    H141423   6.479   2.518   0.865  0.2852  1.9759 -1.6267
 6596TIP3    H241424   6.505   2.565   1.006 -2.0202 -1.0861 -0.0630
 6597TIP3   OH241425   2.332   6.796   0.756  0.4919 -0.1972  0.2463
 6597TIP3    H141426   2.264   6.864   0.761  1.8641  1.3725 -1.2420
 6597TIP3    H241427   2.320   6.758   0.669  2.6681  1.4642 -0.8667
 6598TIP3   OH241428   3.762   2.272   7.067  0.6734 -0.3619 -0.4875
 6598TIP3    H141429   3.691   2.208   7.080  1.3512 -1.1540 -0.5673
 6598TIP3    H241430   3.734   2.324   6.992  0.4755 -1.0987 -0.9328
 6599TIP3   OH241431   3.761   5.615   7.284  0.2352  0.2260 -0.1962
 6599TIP3    H141432   3.762   5.526   7.319 -2.2824  0.9993  2.1332
 6599TIP3    H241433   3.729   5.605   7.194  0.4838 -1.2303 -0.1478
 6600TIP3   OH241434   4.352   5.999   7.651  0.1313  0.4964 -0.1446
 6600TIP3    H141435   4.352   6.093   7.635 -1.0225  0.6680  0.7531
 6600TIP3    H241436   4.275   5.967   7.604 -0.0629  0.1608  0.3913
 6601TIP3   OH241437   3.575   1.842   8.551  0.1455  0.3849  0.0963
 6601TIP3    H141438   3.554   1.899   8.625 -1.3409  0.7709 -0.5736
 6601TIP3    H241439   3.668   1.823   8.561  0.1139  0.8851  1.7376
 6602TIP3   OH241440   2.769   5.969   8.603 -0.1866 -0.0366  0.3195
 6602TIP3    H141441   2.804   5.909   8.669 -0.2003  0.2140  0.5578
 6602TIP3    H241442   2.680   5.938   8.588 -0.2371  0.0025  0.5368
 6603TIP3   OH241443   5.233   0.230   1.885 -0.3191 -0.5642  0.4312
 6603TIP3    H141444   5.195   0.317   1.894 -0.9731 -0.6035 -1.5417
 6603TIP3    H241445   5.269   0.228   1.797  1.6954 -1.5625  1.2028
 6604TIP3   OH241446   3.583   1.512   7.574  0.0013 -0.4233  0.0130
 6604TIP3    H141447   3.547   1.457   7.643 -1.5832 -0.0383 -0.4617
 6604TIP3    H241448   3.513   1.575   7.554  0.1519 -0.9165 -2.3627
 6605TIP3   OH241449   2.109   3.575   8.751  0.2268  0.2878 -0.8872
 6605TIP3    H141450   2.191   3.529   8.770  0.2891  0.8641  0.2775
 6605TIP3    H241451   2.083   3.542   8.665  1.1051 -0.7247 -0.7820
 6606TIP3   OH241452   4.691   2.218   1.979  0.4930  0.5796 -0.2482
 6606TIP3    H141453   4.614   2.169   2.006 -0.1511  1.8586  0.3133
 6606TIP3    H241454   4.746   2.221   2.058  0.6576  0.5083 -0.3613
 6607TIP3   OH241455   1.936   6.470   1.841  0.1579  0.4634 -0.4405
 6607TIP3    H141456   1.976   6.463   1.754  1.2985  0.2323  0.0893
 6607TIP3    H241457   1.882   6.391   1.849 -1.8094  1.5809 -1.8204
 6608TIP3   OH241458   1.278   4.623   7.222  0.0506 -0.2361  0.0206
 6608TIP3    H141459   1.210   4.686   7.245  1.6457  1.6061 -0.0473
 6608TIP3    H241460   1.231   4.541   7.208 -1.9154  0.5233  1.7237
 6609TIP3   OH241461   3.340   4.215   8.670 -0.1103 -0.5438  0.1539
 6609TIP3    H141462   3.404   4.260   8.614 -0.1664 -1.4028 -0.6347
 6609TIP3    H241463   3.322   4.277   8.741 -0.2638  0.7121 -0.9406
 6610TIP3   OH241464   3.485   4.201   2.519 -0.0088  0.3133 -0.3206
 6610TIP3    H141465   3.412   4.214   2.459  0.8481  0.0317 -1.4544
 6610TIP3    H241466   3.470   4.264   2.589 -1.8263 -0.3792 -0.0419
 6611TIP3   OH241467   2.033   1.128   0.010 -0.2272  0.1256  0.2455
 6611TIP3    H141468   1.964   1.178  -0.033 -0.9225 -0.5215  0.5849
 6611TIP3    H241469   2.033   1.160   0.101  0.3522  0.5673  0.0955
 6612TIP3   OH241470   3.268   3.654   8.751  0.2324 -0.0300 -0.7192
 6612TIP3    H141471   3.284   3.747   8.738 -1.5374  0.2205 -1.5235
 6612TIP3    H241472   3.220   3.627   8.672  1.0627 -1.7246 -0.6979
 6613TIP3   OH241473   4.125   3.999   1.176 -0.1905  0.1949  0.0342
 6613TIP3    H141474   4.052   4.055   1.202  0.1903  0.2949  0.9509
 6613TIP3    H241475   4.163   4.043   1.100 -0.8707  0.3232 -0.2361
 6614TIP3   OH241476   4.018   2.487   1.719 -0.5626  0.4858  0.2693
 6614TIP3    H141477   4.049   2.525   1.801 -1.4469 -0.0092  0.8396
 6614TIP3    H241478   4.017   2.560   1.658 -0.7399  1.0491  0.9354
 6615TIP3   OH241479   3.985   0.700   7.244 -0.2733 -0.7963  0.4019
 6615TIP3    H141480   3.938   0.623   7.211 -0.1811 -0.3341 -0.8551
 6615TIP3    H241481   3.919   0.770   7.242  0.9242  0.5309 -3.8722
 6616TIP3   OH241482   5.493   4.779   2.469  0.4124 -0.0387 -0.0116
 6616TIP3    H141483   5.450   4.788   2.554  1.6157 -1.3502  0.7817
 6616TIP3    H241484   5.536   4.863   2.454  0.2946  0.1602  0.7426
 6617TIP3   OH241485   4.852   0.082   1.948 -0.0820  0.3437 -0.3611
 6617TIP3    H141486   4.933   0.031   1.945 -0.2130  0.0846  0.2900
 6617TIP3    H241487   4.852   0.120   2.036 -1.3798 -0.8256  0.1738
 6618TIP3   OH241488   2.958   1.570   8.099 -0.2561 -0.0032  0.0520
 6618TIP3    H141489   2.921   1.532   8.019  1.7739 -0.3732 -0.7773
 6618TIP3    H241490   2.895   1.637   8.125 -1.5520 -0.6818 -1.1776
 6619TIP3   OH241491   2.615   0.820   1.847 -0.5534 -0.4647  0.3349
 6619TIP3    H141492   2.602   0.845   1.938 -1.6942 -1.7938  0.5552
 6619TIP3    H241493   2.705   0.848   1.828 -0.7202  0.9563  1.4661
 6620TIP3   OH241494   3.254   5.772   7.600 -1.5372  0.2356 -0.2689
 6620TIP3    H141495   3.302   5.744   7.678 -1.6495  0.8539  0.0342
 6620TIP3    H241496   3.162   5.772   7.628 -1.8865 -2.1836 -1.2196
 6621TIP3   OH241497   1.548   5.714   2.039 -0.0014 -0.3514  0.0297
 6621TIP3    H141498   1.511   5.659   2.108 -0.0449 -0.7984 -0.3428
 6621TIP3    H241499   1.641   5.690   2.037  0.4247  1.0200  1.2022
 6622TIP3   OH241500   3.391   3.935   1.543  0.6915 -0.5375  0.2398
 6622TIP3    H141501   3.325   3.992   1.502  1.1207  1.0810  1.7017
 6622TIP3    H241502   3.469   3.991   1.551  1.1826 -1.3727  1.5593
 6623TIP3   OH241503   3.777   6.160   0.703 -0.3727  0.7768 -0.1901
 6623TIP3    H141504   3.736   6.081   0.667 -1.6136  0.8964  0.8901
 6623TIP3    H241505   3.716   6.191   0.770  0.6896  1.9523  0.2854
 6624TIP3   OH241506   4.765   2.154   8.556  0.4646  0.0285  0.5903
 6624TIP3    H141507   4.773   2.239   8.513  1.0911 -0.2802  0.0852
 6624TIP3    H241508   4.742   2.175   8.647  1.2453  0.7643  0.6268
 6625TIP3   OH241509   0.191   6.667   7.685 -0.3481 -0.1805 -0.3674
 6625TIP3    H141510   0.180   6.760   7.707 -3.0627 -0.3619 -0.6790
 6625TIP3    H241511   0.106   6.639   7.653  0.4033 -2.8152 -0.3156
 6626TIP3   OH241512   2.003   4.825   0.639 -0.6502 -0.0046  0.0538
 6626TIP3    H141513   1.941   4.893   0.663 -1.0327 -0.2117 -0.3278
 6626TIP3    H241514   2.056   4.864   0.570 -0.1202  0.2934  0.6238
 6627TIP3   OH241515   2.185   3.332   0.514  0.1982  0.4730  0.3595
 6627TIP3    H141516   2.119   3.285   0.564 -0.9726  0.6143 -0.9739
 6627TIP3    H241517   2.176   3.423   0.542 -0.5319  0.5704 -0.1516
 6628TIP3   OH241518   6.434   6.687   7.579 -0.5713 -0.6211  0.2950
 6628TIP3    H141519   6.373   6.637   7.633  0.4344 -2.0011  0.1966
 6628TIP3    H241520   6.471   6.623   7.518  2.1072 -0.2003  1.3392
 6629TIP3   OH241521   4.585   4.197   8.540  0.3407 -0.1716 -0.0223
 6629TIP3    H141522   4.574   4.107   8.571  2.2167 -0.3783  0.1853
 6629TIP3    H241523   4.583   4.190   8.445 -1.3763 -0.1344 -0.0138
 6630TIP3   OH241524   2.770   1.935   8.645  0.2409 -0.4922  0.3535
 6630TIP3    H141525   2.735   1.910   8.560 -0.5418 -0.0167  0.5176
 6630TIP3    H241526   2.758   1.858   8.700 -0.1893 -0.4680  0.2973
 6631TIP3   OH241527   2.936   2.737   8.451 -0.3720 -0.3962  0.5497
 6631TIP3    H141528   2.923   2.667   8.387 -1.9727  0.9077 -0.6152
 6631TIP3    H241529   2.901   2.702   8.533 -0.5560 -1.1753  0.1429
 6632TIP3   OH241530   0.464   5.476   8.751 -0.0631  0.1072  0.1425
 6632TIP3    H141531   0.410   5.405   8.786  2.1474 -1.3654  0.8185
 6632TIP3    H241532   0.434   5.488   8.661 -1.8544 -0.2450  0.6621
 6633TIP3   OH241533   6.579   4.464   8.424  0.1901 -0.3767  0.3267
 6633TIP3    H141534   6.514   4.444   8.491 -1.2826  1.3982 -0.4758
 6633TIP3    H241535   6.609   4.552   8.446  1.7346 -0.8361  0.1833
 6634TIP3   OH241536   2.818   4.263   0.108 -0.0305  0.0686 -0.0508
 6634TIP3    H141537   2.909   4.250   0.083  0.4095  1.0821  0.9391
 6634TIP3    H241538   2.770   4.193   0.063  1.1841 -0.3019 -0.8117
 6635TIP3   OH241539   5.229   6.625   0.086  0.4869 -0.3996 -0.0271
 6635TIP3    H141540   5.300   6.655   0.143  0.4481  0.8994 -0.6381
 6635TIP3    H241541   5.156   6.607   0.146  1.0323 -0.8640  0.5114
 6636TIP3   OH241542   4.860   4.333   7.314 -0.0632 -0.0402 -0.3046
 6636TIP3    H141543   4.808   4.404   7.352 -0.2350 -0.4843  0.3156
 6636TIP3    H241544   4.803   4.256   7.320  1.4224 -1.0480  2.4680
 6637TIP3   OH241545   4.483   0.712   6.790 -0.7380 -0.0789  0.1495
 6637TIP3    H141546   4.444   0.741   6.708 -0.0107 -0.2803 -0.2819
 6637TIP3    H241547   4.569   0.755   6.793 -0.5349 -0.4891  0.5388
 6638TIP3   OH241548   4.326   1.122   8.630 -0.1961  0.1832  0.3555
 6638TIP3    H141549   4.251   1.157   8.581 -0.2803  0.5495  0.7370
 6638TIP3    H241550   4.379   1.078   8.564  0.8195  2.5208 -0.4850
 6639TIP3   OH241551   0.917   6.696   0.229  0.0155  0.1138 -0.2587
 6639TIP3    H141552   0.990   6.634   0.233 -1.6538 -2.2825 -3.2019
 6639TIP3    H241553   0.929   6.740   0.145 -0.5464  1.6295  0.4255
 6640TIP3   OH241554   3.440   1.996   8.788  0.0943 -0.3327 -0.4768
 6640TIP3    H141555   3.520   2.038   8.756 -0.5642  1.2642 -0.1327
 6640TIP3    H241556   3.468   1.909   8.815  1.4459 -0.2864 -1.6212
 6641TIP3   OH241557   1.010   3.468   1.148  0.6849  0.5433 -0.0581
 6641TIP3    H141558   0.962   3.412   1.087  0.4873  0.4885  0.1436
 6641TIP3    H241559   1.086   3.416   1.174 -0.5444 -0.4761  1.6864
 6642TIP3   OH241560   1.094   6.840   7.046  0.6188 -0.0389 -0.4891
 6642TIP3    H141561   1.006   6.827   7.011  0.3394 -1.3667  0.6113
 6642TIP3    H241562   1.138   6.893   6.980 -0.0231 -2.0280 -2.6513
 6643TIP3   OH241563   5.961   1.695   1.325  0.1878  0.0842 -0.2411
 6643TIP3    H141564   5.952   1.777   1.373  1.5694  1.4445 -2.1634
 6643TIP3    H241565   5.882   1.689   1.272 -0.1511 -0.1139  0.2765
 6644TIP3   OH241566   6.012   4.661   2.593  0.1086  0.2952 -0.0787
 6644TIP3    H141567   6.040   4.586   2.646  1.1230  0.4595 -0.3469
 6644TIP3    H241568   6.094   4.697   2.559 -0.3759  1.4480 -0.0673
 6645TIP3   OH241569   0.512   0.677   0.357 -0.4131 -0.7032  0.3256
 6645TIP3    H141570   0.417   0.675   0.368 -0.8026  1.8231 -1.6124
 6645TIP3    H241571   0.528   0.615   0.285 -0.6223 -0.9524  0.4906
 6646TIP3   OH241572   4.690   5.432   7.603 -0.0924 -0.3232  0.2926
 6646TIP3    H141573   4.643   5.352   7.626 -0.0778 -0.0507  1.3670
 6646TIP3    H241574   4.778   5.419   7.637 -0.4818  0.6974  1.8323
 6647TIP3   OH241575   2.694   5.082   8.705 -0.1924  0.2963 -0.0575
 6647TIP3    H141576   2.616   5.037   8.673 -1.4310  2.4250 -0.2172
 6647TIP3    H241577   2.767   5.038   8.660 -1.4941 -0.0488 -1.9653
 6648TIP3   OH241578   0.822   2.114   1.219  0.4210 -0.0158 -0.2022
 6648TIP3    H141579   0.742   2.132   1.269  0.1774 -0.4559 -0.4268
 6648TIP3    H241580   0.890   2.164   1.264  0.5696 -1.7497  1.6311
 6649TIP3   OH241581   0.914   0.081   8.195  0.0942 -0.2184  0.9749
 6649TIP3    H141582   0.975   0.146   8.231 -0.1257  0.8180 -0.4257
 6649TIP3    H241583   0.838   0.086   8.252  0.7483 -0.4979  1.8939
 6650TIP3   OH241584   6.182   2.567   8.586 -0.5675 -0.2151 -0.2849
 6650TIP3    H141585   6.216   2.529   8.667  1.0206  1.1130 -0.2898
 6650TIP3    H241586   6.117   2.631   8.615 -1.1564 -0.8605 -0.1542
 6651TIP3   OH241587   3.858   1.924   0.549 -0.3454  0.0992  0.2245
 6651TIP3    H141588   3.921   1.945   0.480 -2.2816 -1.5854 -2.2929
 6651TIP3    H241589   3.792   1.994   0.543 -1.6186 -1.1343 -1.2500
 6652TIP3   OH241590   5.771   6.451   0.348 -0.9683 -0.1099 -0.5710
 6652TIP3    H141591   5.858   6.479   0.377 -0.6372  0.1447 -1.7466
 6652TIP3    H241592   5.745   6.383   0.410  0.5120 -0.9229 -0.8148
 6653TIP3   OH241593   1.444   4.869   1.072  0.0128 -0.5057  0.1179
 6653TIP3    H141594   1.406   4.824   0.996 -2.2274 -0.1181  0.9358
 6653TIP3    H241595   1.384   4.850   1.144  0.6428  1.3241  1.1852
 6654TIP3   OH241596   4.278   6.429   1.932  0.0170  0.2880 -0.0933
 6654TIP3    H141597   4.278   6.515   1.974 -0.6004 -0.2956  1.1651
 6654TIP3    H241598   4.367   6.397   1.943  0.0229  0.4080  0.2219
 6655TIP3   OH241599   1.428   0.088   1.090 -0.5053  0.1586  0.0608
 6655TIP3    H141600   1.361   0.140   1.046 -1.1228 -0.7800 -0.1171
 6655TIP3    H241601   1.428   0.120   1.181 -1.2116  0.1465  0.0656
 6656TIP3   OH241602   5.204   4.458   1.147 -0.4148 -0.3003  0.9476
 6656TIP3    H141603   5.287   4.456   1.195  1.1134  1.6845 -1.3553
 6656TIP3    H241604   5.218   4.400   1.072 -1.3708 -0.4784  0.8915
 6657TIP3   OH241605   4.355   0.654   0.828  0.2272 -0.2903  0.5175
 6657TIP3    H141606   4.266   0.659   0.794  0.5975 -3.1368 -1.2641
 6657TIP3    H241607   4.344   0.634   0.921 -0.9426  0.7545  0.6271
 6658TIP3   OH241608   6.076   0.033   1.687  0.4785 -0.1173 -0.4818
 6658TIP3    H141609   6.086   0.122   1.723  0.6850 -0.7535  1.1373
 6658TIP3    H241610   6.135  -0.021   1.740 -0.4408 -1.3993 -0.7139
 6659TIP3   OH241611   6.168   3.659   1.847 -0.8516 -1.0138  0.0914
 6659TIP3    H141612   6.230   3.625   1.911 -0.5389 -2.6748 -1.0034
 6659TIP3    H241613   6.188   3.610   1.767 -1.5672  0.6165 -1.1306
 6660TIP3   OH241614   3.532   5.083   0.322  0.2517 -0.0492  0.0390
 6660TIP3    H141615   3.613   5.033   0.321 -0.0606 -0.5532 -0.1985
 6660TIP3    H241616   3.555   5.164   0.368 -0.0687 -1.8547  3.7824
 6661TIP3   OH241617   0.275   2.634   6.354 -0.3766  0.0046 -0.1605
 6661TIP3    H141618   0.188   2.673   6.364  0.0881  0.9161  0.4605
 6661TIP3    H241619   0.335   2.709   6.357  0.5692 -0.7687  1.5122
 6662TIP3   OH241620   6.133   5.860   6.698 -0.0793  0.0879 -0.0058
 6662TIP3    H141621   6.159   5.897   6.614 -0.2455 -0.3336 -0.2440
 6662TIP3    H241622   6.101   5.772   6.677 -2.2717  0.7918  0.1965
 6663TIP3   OH241623   1.606   3.822   1.075  0.1544  0.4662 -0.5401
 6663TIP3    H141624   1.687   3.779   1.048  0.7782  1.1450  0.1874
 6663TIP3    H241625   1.571   3.859   0.995 -0.5469 -1.5729 -1.2474
 6664TIP3   OH241626   3.703   3.962   2.329 -0.8647  0.1171  0.7835
 6664TIP3    H141627   3.759   3.968   2.252 -2.8051  1.7346 -0.6051
 6664TIP3    H241628   3.666   3.874   2.326  1.0680 -0.7763  1.4229
 6665TIP3   OH241629   5.057   0.729   0.033  0.3195 -0.1681  0.6075
 6665TIP3    H141630   5.128   0.694   0.086  0.6716  1.5837  1.3557
 6665TIP3    H241631   4.981   0.675   0.057  0.8200 -0.3977  1.7497
 6666TIP3   OH241632   4.827   5.192   7.718  0.1080  0.3890  0.1556
 6666TIP3    H141633   4.823   5.123   7.784 -2.6172 -0.1983 -0.4874
 6666TIP3    H241634   4.816   5.145   7.635 -0.3619  1.4557 -0.3999
 6667TIP3   OH241635   3.497   6.363   8.182 -0.4648  0.1380 -0.4826
 6667TIP3    H141636   3.486   6.458   8.176 -1.6943  0.0222 -0.3732
 6667TIP3    H241637   3.428   6.328   8.126 -1.6714 -0.7116  1.4268
 6668TIP3   OH241638   5.251   3.453   1.791  0.4020  0.1896 -0.6901
 6668TIP3    H141639   5.265   3.361   1.767 -0.0452 -0.1218  0.1974
 6668TIP3    H241640   5.280   3.502   1.714  0.7137 -0.6877 -1.1528
 6669TIP3   OH241641   1.333   1.666   0.614  0.0596  0.5264 -1.0352
 6669TIP3    H141642   1.427   1.645   0.608  0.6745  2.5161  0.2857
 6669TIP3    H241643   1.330   1.761   0.604 -1.3008  1.1017  2.9461
 6670TIP3   OH241644   5.789   2.456   1.243 -0.5153 -0.0008 -0.0357
 6670TIP3    H141645   5.816   2.520   1.177 -0.9845  1.1095  0.8136
 6670TIP3    H241646   5.710   2.416   1.208 -0.4694  0.2031 -0.3765
 6671TIP3   OH241647   6.376   0.926   1.945 -0.2138 -0.4383 -0.1555
 6671TIP3    H141648   6.409   0.892   2.028  1.2123  1.6137  0.1840
 6671TIP3    H241649   6.392   1.021   1.949  0.1379 -0.2952 -2.8725
 6672TIP3   OH241650   6.363   5.578   1.935  0.0366  0.2006  0.1554
 6672TIP3    H141651   6.359   5.591   2.030  1.2473  0.4504  0.1926
 6672TIP3    H241652   6.412   5.496   1.925 -1.3088 -0.5805 -0.2367
 6673TIP3   OH241653   3.385   2.139   0.387 -0.0177 -0.2087  0.0211
 6673TIP3    H141654   3.370   2.112   0.478  0.4601 -0.9987 -0.1241
 6673TIP3    H241655   3.470   2.101   0.365  0.9697  1.8988 -0.0440
 6674TIP3   OH241656   3.123   1.306   0.778  0.0068  0.0739 -0.0787
 6674TIP3    H141657   3.100   1.352   0.860 -0.6422 -0.7053  0.1871
 6674TIP3    H241658   3.216   1.288   0.787  0.0663  0.4971  0.2364
 6675TIP3   OH241659   0.132   2.366   7.232  0.8221 -0.1739 -0.3348
 6675TIP3    H141660   0.112   2.414   7.152 -0.0194  0.6847  0.3658
 6675TIP3    H241661   0.176   2.286   7.202  2.0589  0.9118 -1.5449
 6676TIP3   OH241662   4.226   0.920   7.609 -0.1944  0.2692  0.2345
 6676TIP3    H141663   4.254   0.873   7.688 -1.4572 -0.5520  0.2258
 6676TIP3    H241664   4.220   0.852   7.542 -0.9859  0.6222 -0.0604
 6677TIP3   OH241665   0.438   2.631   8.700 -0.7194  0.4987 -0.3453
 6677TIP3    H141666   0.407   2.604   8.786  1.0709 -0.3984  0.0760
 6677TIP3    H241667   0.523   2.673   8.717 -0.3080  0.2489 -1.6671
 6678TIP3   OH241668   3.037   6.399   6.963 -0.3095  0.0108 -0.0198
 6678TIP3    H141669   3.005   6.470   6.908  0.1316  1.4105  1.4463
 6678TIP3    H241670   3.024   6.320   6.911  1.2726  1.3609 -2.6708
 6679TIP3   OH241671   1.328   5.878   1.001 -0.2193  0.1340  0.2112
 6679TIP3    H141672   1.349   5.823   1.077  0.2765  0.5224  0.3620
 6679TIP3    H241673   1.314   5.965   1.038 -0.1816  0.2838 -0.1241
 6680TIP3   OH241674   3.369   5.805   7.069 -0.9058 -0.2233  0.7396
 6680TIP3    H141675   3.390   5.818   7.162 -1.4850 -2.9791  1.3410
 6680TIP3    H241676   3.277   5.830   7.062 -1.1399 -0.9261  1.1594
 6681TIP3   OH241677   1.577   1.099   8.215  0.2161  0.9110 -0.1685
 6681TIP3    H141678   1.657   1.113   8.166 -0.4345 -3.0311 -2.8905
 6681TIP3    H241679   1.515   1.162   8.179  1.1279  1.4642 -0.7920
 6682TIP3   OH241680   2.900   5.869   6.528  0.1422  0.1466  0.0728
 6682TIP3    H141681   2.931   5.936   6.467  1.1109  2.5021  2.8996
 6682TIP3    H241682   2.960   5.795   6.514 -0.1544  0.2567 -2.2408
 6683TIP3   OH241683   5.100   6.533   8.462  0.4995  0.0336 -0.2909
 6683TIP3    H141684   5.155   6.460   8.488  0.7070  0.0761 -0.6039
 6683TIP3    H241685   5.038   6.544   8.534 -1.2791 -2.1723 -1.3619
 6684TIP3   OH241686   3.593   4.179   8.225  0.3109  0.0437 -0.4855
 6684TIP3    H141687   3.646   4.259   8.225 -0.1018  0.3250 -0.9828
 6684TIP3    H241688   3.518   4.199   8.168 -1.3060  0.2914  1.5922
 6685TIP3   OH241689   4.911   3.713   8.161  0.2759  0.6324 -0.2665
 6685TIP3    H141690   4.980   3.754   8.213 -0.4754  0.3149  1.0538
 6685TIP3    H241691   4.830   3.741   8.204 -0.3872  0.4075 -1.3353
 6686TIP3   OH241692   1.778   2.927   1.774 -0.3250  0.1428 -0.4683
 6686TIP3    H141693   1.689   2.928   1.809 -0.2391 -1.8893 -0.0791
 6686TIP3    H241694   1.770   2.965   1.687 -1.6438 -0.3435 -0.5844
 6687TIP3   OH241695   1.479   6.588   7.617 -0.3195  0.3440  0.1137
 6687TIP3    H141696   1.385   6.602   7.607 -0.8981 -2.9386 -0.1285
 6687TIP3    H241697   1.498   6.613   7.707 -1.7732 -0.4143  0.6540
 6688TIP3   OH241698   1.555   2.027   8.521 -0.0357 -0.8998  0.7381
 6688TIP3    H141699   1.613   2.099   8.497  0.4919 -2.1507 -2.1760
 6688TIP3    H241700   1.554   2.028   8.617  2.5531  0.9251  0.8477
 6689TIP3   OH241701   5.502   1.427   0.275 -0.6851 -0.3945  0.2735
 6689TIP3    H141702   5.418   1.442   0.319 -1.0126 -0.0307 -0.4564
 6689TIP3    H241703   5.560   1.395   0.344 -1.5470 -1.0883  0.6989
 6690TIP3   OH241704   0.190   5.055   8.237  0.3830 -0.0697  0.4719
 6690TIP3    H141705   0.100   5.024   8.245  0.2799  0.4268  1.3278
 6690TIP3    H241706   0.243   4.975   8.235 -0.0910 -0.3791 -0.4368
 6691TIP3   OH241707   2.501   4.503   7.830  0.2540  0.3369  0.4454
 6691TIP3    H141708   2.448   4.569   7.786  1.5179 -0.1978 -2.0085
 6691TIP3    H241709   2.466   4.419   7.800 -0.6975 -0.1791  2.7676
 6692TIP3   OH241710   2.847   1.299   8.188  0.1384  0.1266 -0.3782
 6692TIP3    H141711   2.915   1.365   8.178  0.9367 -0.6281  0.0172
 6692TIP3    H241712   2.770   1.348   8.219  0.6992  0.8672 -0.1390
 6693TIP3   OH241713   3.392   0.956   6.357  0.5602 -0.1227  0.3674
 6693TIP3    H141714   3.343   0.883   6.319  1.6134  0.8277 -3.1642
 6693TIP3    H241715   3.336   1.032   6.344  0.7652  0.1695  1.1563
 6694TIP3   OH241716   2.160   5.347   0.396 -0.2561 -0.3424  0.4011
 6694TIP3    H141717   2.171   5.294   0.316 -1.8936 -1.8349  1.0843
 6694TIP3    H241718   2.106   5.421   0.368 -0.5170 -0.6620  0.0364
 6695TIP3   OH241719   5.301   3.389   0.054  0.2496 -0.1539 -0.4786
 6695TIP3    H141720   5.270   3.380  -0.036  1.3260  1.7469 -1.1019
 6695TIP3    H241721   5.395   3.368   0.050  0.1762 -0.7018  0.3369
 6696TIP3   OH241722   4.453   2.753   7.899 -0.3593  0.1760 -0.2307
 6696TIP3    H141723   4.475   2.803   7.820 -1.5953  0.4767 -0.4052
 6696TIP3    H241724   4.367   2.716   7.880 -0.4003 -0.2462  0.7448
 6697TIP3   OH241725   4.470   2.566   8.268 -0.7939  0.3162 -0.4900
 6697TIP3    H141726   4.449   2.652   8.231 -1.4402  1.1661  1.6732
 6697TIP3    H241727   4.525   2.586   8.344 -2.2530 -1.0446  0.9968
 6698TIP3   OH241728   2.747   0.889   7.871 -0.2721  0.2671  0.1515
 6698TIP3    H141729   2.807   0.921   7.939 -1.0609  0.1512  0.9272
 6698TIP3    H241730   2.792   0.906   7.789  1.1494 -0.4775  0.7294
 6699TIP3   OH241731   5.290   4.476   7.035  0.0962  0.0785  0.4143
 6699TIP3    H141732   5.200   4.476   7.066 -0.0673  0.4208 -0.0556
 6699TIP3    H241733   5.342   4.496   7.113 -0.3085  0.9444  0.4729
 6700TIP3   OH241734   0.687   6.220   1.470 -0.5541 -0.1052 -0.1744
 6700TIP3    H141735   0.715   6.185   1.555 -1.4628 -0.0663  0.1584
 6700TIP3    H241736   0.755   6.282   1.446 -0.6404  0.4264  0.8852
 6701TIP3   OH241737   1.411   0.522   0.394  0.0296 -0.5559  0.0750
 6701TIP3    H141738   1.370   0.567   0.468 -0.0193 -1.7922  0.8281
 6701TIP3    H241739   1.375   0.433   0.397 -2.0451  0.0076 -3.0307
 6702TIP3   OH241740   1.510   2.575   1.331 -0.3767  0.7495  0.1521
 6702TIP3    H141741   1.542   2.592   1.420  0.8212  1.7046 -0.4226
 6702TIP3    H241742   1.508   2.662   1.290  1.7014  0.0850 -1.5614
 6703TIP3   OH241743   0.426   0.273   8.189  0.1796 -0.2110  0.0164
 6703TIP3    H141744   0.413   0.282   8.094  1.6339  0.6092 -0.1406
 6703TIP3    H241745   0.518   0.296   8.202  0.2539 -1.2762  1.5166
 6704TIP3   OH241746   5.750   2.629   0.796  0.0907  0.2522  0.1732
 6704TIP3    H141747   5.844   2.647   0.790  0.2591 -0.4346  0.6278
 6704TIP3    H241748   5.710   2.688   0.731  0.7750  0.9315  0.3556
 6705TIP3   OH241749   1.727   2.620   8.492  0.9295 -0.5089 -0.3612
 6705TIP3    H141750   1.769   2.657   8.415  0.2576 -2.1132 -1.5543
 6705TIP3    H241751   1.772   2.660   8.566  1.2873  1.4262 -1.5557
 6706TIP3   OH241752   6.240   4.621   1.774  0.0886  0.1149 -0.2538
 6706TIP3    H141753   6.208   4.532   1.755 -1.9329  0.3276  1.6934
 6706TIP3    H241754   6.332   4.610   1.794  0.2543 -1.2884 -1.5877
 6707TIP3   OH241755   3.461   1.134   7.539  0.1783 -0.1340 -0.1392
 6707TIP3    H141756   3.519   1.173   7.474 -0.4794  1.9085  0.4251
 6707TIP3    H241757   3.464   1.194   7.614 -1.4665 -0.7809  0.5080
 6708TIP3   OH241758   6.238   6.373   7.416 -0.0004 -0.3828  0.0640
 6708TIP3    H141759   6.331   6.397   7.423  0.4902 -2.4535  1.6868
 6708TIP3    H241760   6.217   6.386   7.324  1.1782  2.4708  0.0988
 6709TIP3   OH241761   3.149   0.787   8.645 -0.3306  0.5243 -0.6387
 6709TIP3    H141762   3.173   0.862   8.591  1.1983  1.7690  1.5991
 6709TIP3    H241763   3.054   0.791   8.651 -0.5360  0.5035 -2.8973
 6710TIP3   OH241764   5.733   0.900   1.660 -0.1677  0.4443 -0.7335
 6710TIP3    H141765   5.773   0.929   1.742 -1.6241  1.3506 -0.2924
 6710TIP3    H241766   5.799   0.920   1.593  1.0965 -0.4348  0.1945
 6711TIP3   OH241767   3.650   6.689   1.915 -0.2030 -0.1141 -0.3238
 6711TIP3    H141768   3.671   6.781   1.925  1.9835 -0.6831  0.9892
 6711TIP3    H241769   3.614   6.662   1.999 -0.4266 -0.5597 -0.5534
 6712TIP3   OH241770   0.028   2.902   0.570 -0.1065 -0.2836 -0.2676
 6712TIP3    H141771  -0.031   2.865   0.635  0.9248 -0.2521  0.7028
 6712TIP3    H241772   0.091   2.953   0.620  0.4570  0.0912 -1.3247
 6713TIP3   OH241773   0.638   4.285   6.898 -0.2915  0.3009 -0.7765
 6713TIP3    H141774   0.591   4.339   6.834 -0.8817  0.3595 -0.2997
 6713TIP3    H241775   0.575   4.218   6.925 -0.6144  1.2104  0.9075
 6714TIP3   OH241776   1.297   2.093   7.429 -0.0891  0.1768  0.1182
 6714TIP3    H141777   1.365   2.038   7.388  0.4359  0.1471  0.9957
 6714TIP3    H241778   1.320   2.093   7.522 -1.5886 -0.2472  0.5109
 6715TIP3   OH241779   2.361   4.250   7.739  0.0609 -0.3867 -0.1620
 6715TIP3    H141780   2.296   4.302   7.786 -0.2411  0.5581 -1.5597
 6715TIP3    H241781   2.346   4.160   7.769 -0.9564  0.0071  0.5697
 6716TIP3   OH241782   5.401   4.782   6.544 -0.0953 -0.2097 -0.0675
 6716TIP3    H141783   5.380   4.740   6.627  0.4360  1.3900  0.9147
 6716TIP3    H241784   5.350   4.734   6.479  2.0937 -3.7860  0.6235
 6717TIP3   OH241785   0.389   1.148   0.483  0.2947  0.2465 -0.0784
 6717TIP3    H141786   0.320   1.082   0.488 -0.6953  1.2356 -0.3146
 6717TIP3    H241787   0.443   1.120   0.408 -0.7805  0.3141 -0.9089
 6718TIP3   OH241788   5.389   5.487   7.325  0.4933 -0.1312 -0.1112
 6718TIP3    H141789   5.316   5.545   7.346 -0.5363 -1.1417 -0.7634
 6718TIP3    H241790   5.434   5.473   7.408 -0.5836 -0.1724  0.4749
 6719TIP3   OH241791   2.919   4.651   8.466  0.1880 -0.9710 -0.0486
 6719TIP3    H141792   2.944   4.715   8.533  3.5743  1.2025 -3.0776
 6719TIP3    H241793   2.870   4.702   8.401 -0.8952 -2.5036 -0.4996
 6720TIP3   OH241794   5.218   3.120   2.219 -0.4351  0.0214 -0.1924
 6720TIP3    H141795   5.259   3.039   2.191  0.4130  0.5648 -0.5589
 6720TIP3    H241796   5.138   3.126   2.167 -1.7426 -1.7184  1.4776
 6721TIP3   OH241797   6.371   2.570   7.629 -0.0880 -0.1884 -0.1157
 6721TIP3    H141798   6.387   2.476   7.630 -1.5962 -0.4762 -0.3548
 6721TIP3    H241799   6.277   2.579   7.645  0.2828  1.3613  1.5511
 6722TIP3   OH241800   1.691   5.881   7.858 -0.0504 -0.0553  0.8561
 6722TIP3    H141801   1.598   5.872   7.838 -0.5911  0.6726  2.8776
 6722TIP3    H241802   1.705   5.827   7.936  0.8528  1.1448  1.5558
 6723TIP3   OH241803   2.327   0.061   1.500  0.1686  0.6156 -0.1686
 6723TIP3    H141804   2.371   0.115   1.434  0.2428 -0.5890 -1.1640
 6723TIP3    H241805   2.314   0.119   1.574  0.6704  1.8530 -1.0073
 6724TIP3   OH241806   6.300   4.755   7.666 -0.3338 -0.0110 -0.4083
 6724TIP3    H141807   6.222   4.797   7.631 -1.3878 -1.6746 -0.1631
 6724TIP3    H241808   6.314   4.680   7.608  0.5859 -0.2157  0.0679
 6725TIP3   OH241809   5.106   0.745   1.743  1.0609  0.0891 -0.5651
 6725TIP3    H141810   5.175   0.802   1.776  1.1982  0.0743 -0.8212
 6725TIP3    H241811   5.039   0.805   1.711  0.0345  0.1398  1.4860
 6726TIP3   OH241812   2.640   2.730   7.414 -0.0512  0.2759  0.1104
 6726TIP3    H141813   2.717   2.739   7.358  0.0868  2.8763  0.5967
 6726TIP3    H241814   2.570   2.774   7.366 -0.2195  1.4652  1.3707
 6727TIP3   OH241815   1.432   3.292   2.156 -0.1943  0.3377  0.0983
 6727TIP3    H141816   1.452   3.294   2.063  0.8298  0.0396  0.2962
 6727TIP3    H241817   1.516   3.313   2.199  0.1431 -2.4340  1.0124
 6728TIP3   OH241818   3.233   3.337   6.754  0.0009 -0.6725 -0.0443
 6728TIP3    H141819   3.155   3.354   6.806 -1.2525 -1.4381 -1.5790
 6728TIP3    H241820   3.239   3.413   6.695  0.5808 -0.4854  0.2508
 6729TIP3   OH241821   2.158   0.873   0.043 -0.1747 -0.4217 -0.1570
 6729TIP3    H141822   2.076   0.833   0.072 -0.7922  0.0061 -1.2417
 6729TIP3    H241823   2.141   0.967   0.043  0.7320 -0.2462  0.7965
 6730TIP3   OH241824   0.666   1.083   8.098 -0.2856 -0.1415 -0.1429
 6730TIP3    H141825   0.756   1.065   8.068  0.2189  0.3419  1.0116
 6730TIP3    H241826   0.616   1.006   8.071  1.2436 -2.1724  2.3356
 6731TIP3   OH241827   5.508   3.492   1.492  0.7555 -0.1497  0.5319
 6731TIP3    H141828   5.441   3.556   1.515  1.1191 -0.0883  1.4850
 6731TIP3    H241829   5.460   3.414   1.465  0.2807  0.8550 -1.7634
 6732TIP3   OH241830   4.558   4.241   7.611 -0.1788 -0.4074 -0.4915
 6732TIP3    H141831   4.633   4.298   7.591 -0.3725  0.2073  0.4883
 6732TIP3    H241832   4.530   4.208   7.525  1.4345 -0.9478 -0.8600
 6733TIP3   OH241833   2.664   3.159   0.930 -0.5788 -0.0174 -0.1534
 6733TIP3    H141834   2.573   3.189   0.941 -0.6097  0.3354 -1.2880
 6733TIP3    H241835   2.714   3.211   0.993 -0.4342  3.4307 -2.8446
 6734TIP3   OH241836   6.317   4.388   2.680 -0.3626  0.0945  0.4377
 6734TIP3    H141837   6.401   4.430   2.661 -0.4343  0.7768  1.5234
 6734TIP3    H241838   6.335   4.294   2.677  0.3330  0.2311  0.2120
 6735TIP3   OH241839   4.037   5.256   7.022 -0.0081  0.0006  0.1338
 6735TIP3    H141840   3.991   5.184   7.065  0.8250 -2.1899 -2.3777
 6735TIP3    H241841   4.125   5.254   7.058 -0.1666  0.2036  0.5367
 6736TIP3   OH241842   5.536   5.575   1.054  0.0172 -0.0471  0.3709
 6736TIP3    H141843   5.562   5.644   1.115  0.7915 -1.0056  1.1757
 6736TIP3    H241844   5.442   5.586   1.044  0.2607  1.7440 -0.3336
 6737TIP3   OH241845   2.434   3.634   2.064 -0.7649  0.4957  0.4839
 6737TIP3    H141846   2.355   3.590   2.035 -0.1137 -0.0755 -0.4885
 6737TIP3    H241847   2.459   3.588   2.145 -0.7167 -0.1811  0.0882
 6738TIP3   OH241848   4.307   3.813   8.450  0.2541 -0.3304 -0.1835
 6738TIP3    H141849   4.220   3.841   8.424  0.8252  3.1158  1.1554
 6738TIP3    H241850   4.316   3.841   8.541  2.6409 -0.8203 -0.1911
 6739TIP3   OH241851   0.371   5.809   8.579 -0.0582  0.4971 -0.6582
 6739TIP3    H141852   0.337   5.884   8.627 -0.9306 -0.4381  0.2137
 6739TIP3    H241853   0.443   5.845   8.527  1.2103  1.5017  1.6201
 6740TIP3   OH241854   3.964   2.564   6.583 -0.4435 -0.3349  0.4656
 6740TIP3    H141855   4.048   2.539   6.622 -0.6359  0.8457  1.7105
 6740TIP3    H241856   3.944   2.650   6.622 -1.0834  0.5164 -1.5946
 6741TIP3   OH241857   4.838   6.349   1.454  0.0815 -0.1053  0.4163
 6741TIP3    H141858   4.927   6.383   1.466 -0.3797  0.5835  2.1746
 6741TIP3    H241859   4.844   6.256   1.476  0.8279 -0.6855 -1.9291
 6742TIP3   OH241860   2.295   6.605   1.256  0.3212  0.1511 -0.0071
 6742TIP3    H141861   2.229   6.666   1.288  0.1313 -0.4931  0.8638
 6742TIP3    H241862   2.361   6.661   1.215  0.6847  1.0696  1.7060
 6743TIP3   OH241863   6.228   0.567   7.312 -0.0490  0.2722 -0.2710
 6743TIP3    H141864   6.236   0.625   7.236 -0.0384  1.0091  0.2818
 6743TIP3    H241865   6.297   0.502   7.299  1.0443  1.3535 -0.0718
 6744TIP3   OH241866   4.829   6.452   0.852  0.3230 -0.1425  0.3814
 6744TIP3    H141867   4.923   6.444   0.837 -0.0154  0.3778 -2.6474
 6744TIP3    H241868   4.822   6.513   0.926  2.4016  1.8156 -0.8921
 6745TIP3   OH241869   5.829   0.987   0.647  0.1427 -0.5065  0.4865
 6745TIP3    H141870   5.775   0.927   0.699  1.0771 -1.8383 -0.0225
 6745TIP3    H241871   5.768   1.055   0.617 -1.0626 -1.4938  0.6274
 6746TIP3   OH241872   0.636   2.457   1.099  0.3289 -0.2230 -0.2344
 6746TIP3    H141873   0.560   2.502   1.136  0.8814  0.8345 -0.3384
 6746TIP3    H241874   0.711   2.500   1.139  0.9164  0.1978 -1.7251
 6747TIP3   OH241875   3.362   0.238   0.266  0.6075  0.2256  0.1760
 6747TIP3    H141876   3.433   0.190   0.223 -0.9099 -2.6116  0.6207
 6747TIP3    H241877   3.399   0.265   0.350  1.6961  0.4165 -0.3412
 6748TIP3   OH241878   1.584   2.176   0.478 -0.0270 -0.1425  0.0210
 6748TIP3    H141879   1.521   2.168   0.549 -2.1826 -0.9894 -1.8905
 6748TIP3    H241880   1.589   2.089   0.439  0.9747  0.3315 -0.9889
 6749TIP3   OH241881   3.876   3.648   7.453  0.2521  0.1926  0.0900
 6749TIP3    H141882   3.851   3.585   7.386  0.6120 -0.5001  0.5896
 6749TIP3    H241883   3.860   3.733   7.413  2.1780 -0.1449 -1.5797
 6750TIP3   OH241884   2.534   6.641   8.437 -0.1231 -0.2657 -0.3592
 6750TIP3    H141885   2.599   6.573   8.420  0.9857  0.9933 -1.3737
 6750TIP3    H241886   2.519   6.681   8.351 -4.1904 -2.1054 -0.7349
 6751TIP3   OH241887   1.321   0.510   7.407  0.0109 -1.1229  0.6835
 6751TIP3    H141888   1.388   0.496   7.340  0.0485 -1.5481  0.8044
 6751TIP3    H241889   1.362   0.571   7.469 -0.2049 -0.3391  0.0702
 6752TIP3   OH241890   1.370   2.926   0.378 -0.4442 -0.3969  0.4921
 6752TIP3    H141891   1.401   2.980   0.305 -1.1948 -0.2993  0.2355
 6752TIP3    H241892   1.354   2.988   0.449 -0.5893 -0.3732  0.4396
 6753TIP3   OH241893   5.889   5.972   6.938 -0.4089  0.0078 -0.3375
 6753TIP3    H141894   5.799   5.998   6.956  0.1093  1.0420  0.9328
 6753TIP3    H241895   5.884   5.924   6.856 -1.9372  1.1367 -0.9569
 6754TIP3   OH241896   4.090   2.037   7.830  0.5824 -0.5270  0.2109
 6754TIP3    H141897   4.013   1.987   7.858 -1.5156  1.8697 -0.8562
 6754TIP3    H241898   4.136   2.057   7.912 -0.1107 -1.6864  0.9197
 6755TIP3   OH241899   0.268   0.594   8.436 -0.3340 -0.7607 -0.5533
 6755TIP3    H141900   0.349   0.609   8.386 -0.3401 -1.3791 -0.7574
 6755TIP3    H241901   0.233   0.682   8.451  0.7128 -0.4324  0.0992
 6756TIP3   OH241902   3.211   5.450   8.238 -0.0266 -0.0890  0.8862
 6756TIP3    H141903   3.165   5.517   8.289  0.4949  0.0483  1.1833
 6756TIP3    H241904   3.303   5.477   8.241  0.0190 -0.1280 -0.0638
 6757TIP3   OH241905   1.030   6.429   7.861  0.4523  0.2913  0.5187
 6757TIP3    H141906   0.970   6.441   7.934  0.4851 -0.3589  0.6642
 6757TIP3    H241907   0.987   6.473   7.787 -0.3405 -0.3796  0.5556
 6758TIP3   OH241908   1.271   2.417   1.321  0.1950 -0.7430  0.3092
 6758TIP3    H141909   1.349   2.471   1.334 -1.2636  1.2108  1.4709
 6758TIP3    H241910   1.214   2.439   1.395 -0.8107 -3.3719  0.4392
 6759TIP3   OH241911   6.703   3.868   0.558  0.6698 -0.7589 -0.2767
 6759TIP3    H141912   6.620   3.868   0.607  0.4936 -2.6287 -0.5086
 6759TIP3    H241913   6.683   3.918   0.478  0.2421  0.1649  0.3822
 6760TIP3   OH241914   0.002   2.085   2.535  0.5444 -0.0525  0.1732
 6760TIP3    H141915  -0.005   1.993   2.509  2.2304 -0.7729  2.0074
 6760TIP3    H241916  -0.061   2.096   2.605  0.0273  0.3352 -0.3426
 6761TIP3   OH241917   5.069   2.702   7.805 -0.6235 -0.6880  0.5604
 6761TIP3    H141918   4.999   2.665   7.858 -2.0138  0.0166 -0.7209
 6761TIP3    H241919   5.025   2.755   7.739  1.0635 -0.9640 -0.8822
 6762TIP3   OH241920   1.843   6.447   0.648  0.0466  0.3975  0.5492
 6762TIP3    H141921   1.768   6.406   0.691 -0.6929  2.0291  0.8936
 6762TIP3    H241922   1.823   6.541   0.648  2.0750  0.8830  0.6152
 6763TIP3   OH241923   0.943   3.714   8.769  0.2411 -0.2442  0.1867
 6763TIP3    H141924   0.997   3.690   8.844 -0.4858 -1.4566  0.3526
 6763TIP3    H241925   0.911   3.630   8.734 -0.5881  0.3732 -0.6002
 6764TIP3   OH241926   2.367   4.053   0.272 -0.1332 -0.5653  0.0627
 6764TIP3    H141927   2.291   4.056   0.214 -0.8280  1.3811  1.0127
 6764TIP3    H241928   2.374   3.960   0.296 -1.9444 -0.8545 -0.3632
 6765TIP3   OH241929   1.853   0.521   6.951 -0.4692  0.1532  0.1915
 6765TIP3    H141930   1.944   0.550   6.946 -0.5794  0.3950 -0.5109
 6765TIP3    H241931   1.816   0.543   6.865 -0.5828 -1.9583 -0.3505
 6766TIP3   OH241932   6.280   4.234   8.268 -0.1152  0.7726  0.0195
 6766TIP3    H141933   6.311   4.208   8.354  0.7049 -2.0036 -1.0045
 6766TIP3    H241934   6.359   4.264   8.222  0.2305 -1.3045 -0.8815
 6767TIP3   OH241935   3.463   3.026   0.028 -0.3014  0.1387 -0.1565
 6767TIP3    H141936   3.417   3.073  -0.042  0.3815  2.0249  0.6064
 6767TIP3    H241937   3.478   3.092   0.096  2.0785 -0.7812  0.3124
 6768TIP3   OH241938   5.106   0.365   8.735 -0.5387  0.0850  0.3859
 6768TIP3    H141939   5.188   0.345   8.690 -0.6450  0.7595 -0.1255
 6768TIP3    H241940   5.132   0.410   8.814 -0.4596  2.3400 -0.8526
 6769TIP3   OH241941   6.268   5.879   1.737 -0.1652  0.0300 -0.2081
 6769TIP3    H141942   6.233   5.790   1.736  1.5002 -0.6646  0.6260
 6769TIP3    H241943   6.239   5.916   1.820  0.7965 -0.4403  0.3465
 6770TIP3   OH241944   5.780   4.309   6.486 -0.1000 -0.0133  0.8651
 6770TIP3    H141945   5.832   4.358   6.423  0.1235  0.8348  1.6953
 6770TIP3    H241946   5.701   4.285   6.437  0.9229 -1.1400 -0.3450
 6771TIP3   OH241947   4.861   4.903   1.904  0.4825 -1.0101 -0.4211
 6771TIP3    H141948   4.893   4.970   1.964  1.2283 -0.5125 -1.3659
 6771TIP3    H241949   4.934   4.841   1.897  0.1933 -1.3573 -0.4010
 6772TIP3   OH241950   1.982   2.537   0.155  0.2477  0.3408  0.1872
 6772TIP3    H141951   1.951   2.586   0.079 -0.9009  0.9410  0.9947
 6772TIP3    H241952   2.070   2.571   0.172  1.4392 -1.3177 -2.1014
 6773TIP3   OH241953   0.214   2.180   0.799 -0.1083 -0.7210  0.3102
 6773TIP3    H141954   0.195   2.270   0.773 -0.5597 -0.5806  1.0761
 6773TIP3    H241955   0.277   2.149   0.734 -1.5230 -0.5635 -1.2039
 6774TIP3   OH241956   0.984   0.791   0.672  0.1118 -0.0434  0.1840
 6774TIP3    H141957   0.912   0.814   0.731  0.7544 -1.8077  1.7692
 6774TIP3    H241958   1.062   0.825   0.716  0.4065  0.4899 -0.7348
 6775TIP3   OH241959   2.033   5.284   1.302 -0.9201  0.1940 -0.0237
 6775TIP3    H141960   2.071   5.341   1.235  0.4150 -2.0206 -1.2678
 6775TIP3    H241961   2.106   5.265   1.361 -1.2756 -0.4484  0.2179
 6776TIP3   OH241962   1.002   1.535   1.697 -0.1539  0.0332  0.0429
 6776TIP3    H141963   0.950   1.503   1.771 -0.2600 -0.4003 -0.2142
 6776TIP3    H241964   0.941   1.588   1.645 -0.1231  0.1970  0.1714
 6777TIP3   OH241965   2.674   0.503   1.995  0.0135 -0.1564 -0.1752
 6777TIP3    H141966   2.734   0.506   1.920 -0.2908  0.0115 -0.4136
 6777TIP3    H241967   2.728   0.471   2.068  0.2424 -0.5909 -0.5305
 6778TIP3   OH241968   0.751   5.673   2.488  0.7816  0.4547  0.3492
 6778TIP3    H141969   0.662   5.710   2.491  0.3798 -0.5182  1.1409
 6778TIP3    H241970   0.739   5.581   2.512  1.8983  0.0926 -0.4161
 6779TIP3   OH241971   6.516   6.124   8.355  0.4780  0.2315 -0.2919
 6779TIP3    H141972   6.437   6.173   8.376 -0.5471 -0.9991 -1.1473
 6779TIP3    H241973   6.491   6.032   8.361  2.3090 -0.2347  1.1077
 6780TIP3   OH241974   1.701   5.267   0.067  0.3255  0.2700  0.2031
 6780TIP3    H141975   1.631   5.201   0.068  0.7314 -0.1749  1.4583
 6780TIP3    H241976   1.692   5.311  -0.017  0.5530 -1.9525 -1.0638
 6781TIP3   OH241977   0.341   2.961   2.102  0.1099  0.0978 -0.3416
 6781TIP3    H141978   0.416   2.979   2.159  0.9417  1.3490 -1.7530
 6781TIP3    H241979   0.280   2.913   2.157  1.2486  0.5018  1.3437
 6782TIP3   OH241980   4.395   1.423   8.733  0.0241 -0.2340  0.2303
 6782TIP3    H141981   4.403   1.470   8.815  1.1537 -2.0122  1.2049
 6782TIP3    H241982   4.425   1.334   8.753 -1.1533 -1.1451 -1.7268
 6783TIP3   OH241983   5.370   3.706   8.371 -0.1952 -0.5417 -0.3780
 6783TIP3    H141984   5.368   3.611   8.363  1.6648 -0.6427 -0.0362
 6783TIP3    H241985   5.440   3.723   8.434  0.1208  1.0885 -1.1189
 6784TIP3   OH241986   2.405   6.318   2.151 -0.6552 -0.0776 -0.4214
 6784TIP3    H141987   2.437   6.244   2.099 -0.4659 -0.3306  0.0452
 6784TIP3    H241988   2.317   6.293   2.177  0.6830 -1.9596  2.9947
 6785TIP3   OH241989   5.079   5.395   0.945 -0.0387 -0.6684 -0.8064
 6785TIP3    H141990   5.168   5.361   0.944  0.7370  1.0606  1.1029
 6785TIP3    H241991   5.073   5.450   0.867  1.0607  0.2367 -0.2856
 6786TIP3   OH241992   3.520   4.022   8.430 -0.1866  0.2480 -0.2058
 6786TIP3    H141993   3.542   4.058   8.344 -2.8314  2.3130 -0.1503
 6786TIP3    H241994   3.509   3.929   8.415  2.1742  0.1050 -1.4405
 6787TIP3   OH241995   1.392   0.506   1.550  0.3673 -0.5864 -0.0895
 6787TIP3    H141996   1.348   0.506   1.635 -0.7025 -0.1788 -0.6195
 6787TIP3    H241997   1.483   0.483   1.570  0.9557  2.5921  1.5944
 6788TIP3   OH241998   3.924   0.829   0.301 -0.9100  0.0744 -0.1419
 6788TIP3    H141999   3.853   0.775   0.334 -1.2769  0.1070 -0.8621
 6788TIP3    H242000   3.991   0.824   0.368 -0.9069 -1.3187 -0.2170
 6789TIP3   OH242001   1.986   6.849   2.501 -0.1853  0.1579 -0.2149
 6789TIP3    H142002   1.936   6.890   2.572  0.0684  0.0113  0.0543
 6789TIP3    H242003   1.921   6.828   2.434 -0.5226 -0.2202  0.2217
 6790TIP3   OH242004   5.647   3.015   8.559  0.4557 -0.1552 -0.1749
 6790TIP3    H142005   5.716   3.072   8.592  1.0878 -0.4629 -0.9557
 6790TIP3    H242006   5.566   3.058   8.589  0.9659 -0.1709  1.3506
 6791TIP3   OH242007   1.482   0.608   0.829  0.1221  0.0053 -0.2893
 6791TIP3    H142008   1.573   0.602   0.855  0.5725  2.5330 -1.0624
 6791TIP3    H242009   1.482   0.661   0.749 -2.2232  3.2806  1.6225
 6792TIP3   OH242010   6.414   4.078   7.515  0.3822 -0.2106 -0.1883
 6792TIP3    H142011   6.453   4.145   7.459  1.2610 -0.1831  0.4449
 6792TIP3    H242012   6.323   4.073   7.486  0.3580  1.0928 -0.3930
 6793TIP3   OH242013   4.663   5.749   1.146 -0.4612  0.1245 -0.1660
 6793TIP3    H142014   4.671   5.744   1.051 -3.1472  0.0943 -0.4760
 6793TIP3    H242015   4.603   5.678   1.169 -0.2790  0.4675  1.4891
 6794TIP3   OH242016   3.117   3.099   1.813 -0.0487  0.1199  0.2845
 6794TIP3    H142017   3.121   3.095   1.909  1.2644  0.5265  0.2657
 6794TIP3    H242018   3.182   3.165   1.789  0.6338 -0.9394 -0.9377
 6795TIP3   OH242019   1.847   5.093   6.375 -0.3163 -0.8050 -0.0368
 6795TIP3    H142020   1.834   5.166   6.314 -0.0708 -2.1593 -1.7626
 6795TIP3    H242021   1.777   5.104   6.440 -0.7391  0.5447 -0.6781
 6796TIP3   OH242022   6.643   2.098   0.170  0.1055  0.3840 -1.1288
 6796TIP3    H142023   6.587   2.171   0.197 -0.7497 -0.3140 -0.9733
 6796TIP3    H242024   6.704   2.087   0.242 -1.4496 -0.7392  0.0877
 6797TIP3   OH242025   2.102   0.098   2.802 -0.3521 -0.1850 -0.1056
 6797TIP3    H142026   2.010   0.106   2.826  0.0825  0.4545  1.5113
 6797TIP3    H242027   2.117   0.004   2.797 -1.2687 -0.2880 -1.1959
 6798TIP3   OH242028   1.443   4.073   0.105 -0.0730 -0.2910 -0.1323
 6798TIP3    H142029   1.423   4.131   0.031 -0.9151  1.3344  1.2819
 6798TIP3    H242030   1.525   4.031   0.081  0.0307  0.7257 -1.6951
 6799TIP3   OH242031   4.282   3.253   8.488 -0.4515 -0.0987 -0.4594
 6799TIP3    H142032   4.238   3.252   8.403 -0.3513  0.7180 -0.5316
 6799TIP3    H242033   4.250   3.332   8.531  1.4633  0.9328 -0.8209
 6800TIP3   OH242034   6.346   4.176   6.659  0.3322  0.2411 -0.1546
 6800TIP3    H142035   6.441   4.160   6.659  0.2675 -0.2406  1.5435
 6800TIP3    H242036   6.330   4.224   6.740 -1.2814 -2.3693  1.1957
 6801TIP3   OH242037   0.605   1.480   0.563 -0.4177 -0.0740 -1.0301
 6801TIP3    H142038   0.550   1.542   0.516 -2.1845 -2.2026 -1.9868
 6801TIP3    H242039   0.561   1.467   0.647 -0.0166  0.0175 -0.8017
 6802TIP3   OH242040   5.810   4.344   8.610 -0.2576 -0.3586 -0.6785
 6802TIP3    H142041   5.728   4.383   8.578  0.0390  1.1243  0.2613
 6802TIP3    H242042   5.873   4.416   8.607  0.3041 -0.7077  1.2541
 6803TIP3   OH242043   2.407   2.697   1.809 -0.4499  0.7793  0.0426
 6803TIP3    H142044   2.383   2.789   1.803 -1.5349  0.4979 -0.1122
 6803TIP3    H242045   2.342   2.658   1.867 -0.3307  0.0094 -0.3169
 6804TIP3   OH242046   3.737   2.131   2.312  0.0541  0.4101  0.9356
 6804TIP3    H142047   3.774   2.079   2.240  0.1820  0.5415  0.9075
 6804TIP3    H242048   3.690   2.067   2.365  0.6997  0.1730  1.2257
 6805TIP3   OH242049   2.698   3.736   7.369 -0.0802 -0.7332 -0.4527
 6805TIP3    H142050   2.768   3.746   7.304 -0.8180  2.3260 -0.9698
 6805TIP3    H242051   2.729   3.787   7.445 -0.2564 -2.3282  0.7399
 6806TIP3   OH242052   0.407   1.482   0.059  0.3298  0.0341  0.3521
 6806TIP3    H142053   0.379   1.396   0.091  0.6342 -0.3554 -0.4000
 6806TIP3    H242054   0.479   1.507   0.117 -0.1276  0.0466  0.9250
 6807TIP3   OH242055   4.744   5.095   6.762  0.2570  0.5837  0.1246
 6807TIP3    H142056   4.820   5.037   6.758  0.6128  1.1034 -1.7038
 6807TIP3    H242057   4.774   5.171   6.811  0.0347 -0.3817  1.8323
 6808TIP3   OH242058   2.157   5.243   2.342 -0.1896 -0.8848 -0.1284
 6808TIP3    H142059   2.083   5.230   2.402  0.0565 -0.6570  0.2253
 6808TIP3    H242060   2.118   5.284   2.265 -0.4321 -0.7468  0.0661
 6809TIP3   OH242061   3.864   0.437   7.158 -0.6836  0.2135  0.0942
 6809TIP3    H142062   3.866   0.363   7.220 -3.2257  1.7227  2.1886
 6809TIP3    H242063   3.794   0.414   7.097 -0.5934  0.3179 -0.0468
 6810TIP3   OH242064   0.443   0.925   8.785  0.1770 -0.1768  0.1444
 6810TIP3    H142065   0.383   0.974   8.729 -0.3250 -0.3967  0.4831
 6810TIP3    H242066   0.428   0.833   8.763  0.6966 -0.2136 -0.0702
 6811TIP3   OH242067   6.243   4.564   0.192 -0.1496 -0.2702 -0.6529
 6811TIP3    H142068   6.298   4.506   0.246  0.4684 -0.6635 -1.6801
 6811TIP3    H242069   6.238   4.646   0.241  1.6808 -0.0971 -0.7048
 6812TIP3   OH242070   3.748   6.002   1.696  0.1947 -0.4153  0.4016
 6812TIP3    H142071   3.712   6.029   1.781 -0.0899 -0.5510  0.3261
 6812TIP3    H242072   3.676   6.016   1.635  0.0019 -1.4459  0.3762
 6813TIP3   OH242073   3.798   3.564   0.669  0.0899 -0.1830  0.4064
 6813TIP3    H142074   3.856   3.488   0.673 -0.6011 -1.0182 -2.6666
 6813TIP3    H242075   3.728   3.543   0.731  0.0341 -2.0010 -0.2105
 6814TIP3   OH242076   4.803   0.068   0.667 -0.5415  0.3005 -0.3770
 6814TIP3    H142077   4.730   0.035   0.719  1.1211  1.8773  3.2666
 6814TIP3    H242078   4.806   0.161   0.686  0.7896  0.7785 -2.6267
 6815TIP3   OH242079   1.831   5.097   7.098  0.2836 -0.0821 -0.2737
 6815TIP3    H142080   1.820   5.092   7.003 -0.4208  0.2739 -0.2209
 6815TIP3    H242081   1.916   5.056   7.115  0.5437  0.1035 -1.0810
 6816TIP3   OH242082   1.834   5.366   1.821 -0.0910  0.9329 -0.2989
 6816TIP3    H142083   1.884   5.426   1.766 -3.4146  1.9677 -2.5115
 6816TIP3    H242084   1.822   5.288   1.766  1.0354 -0.3258  1.1387
 6817TIP3   OH242085   4.456   6.141   8.031  0.3802 -0.6476  0.2880
 6817TIP3    H142086   4.476   6.076   7.964 -1.0590 -0.8159 -0.0070
 6817TIP3    H242087   4.428   6.091   8.107 -0.0668 -0.4073  0.2886
 6818TIP3   OH242088   5.375   1.432   8.628 -0.4079  0.1761 -0.1386
 6818TIP3    H142089   5.294   1.381   8.619 -0.7246  0.4749  0.8182
 6818TIP3    H242090   5.390   1.469   8.541 -0.5837 -0.9318 -0.6568
 6819TIP3   OH242091   3.999   2.724   1.535 -0.1128 -0.4683  0.5762
 6819TIP3    H142092   4.002   2.673   1.455 -1.2355  0.7394 -0.2825
 6819TIP3    H242093   4.090   2.748   1.552  0.1654 -0.9327 -0.2099
 6820TIP3   OH242094   4.990   4.624   8.335 -0.1089  0.0800  0.1250
 6820TIP3    H142095   5.068   4.590   8.291 -0.1749  0.1161 -0.0196
 6820TIP3    H242096   4.953   4.548   8.381 -0.3180 -0.0721 -0.2884
 6821TIP3   OH242097   3.537   5.486   7.582 -0.6220  0.0828  0.0517
 6821TIP3    H142098   3.499   5.549   7.521  0.7151 -0.7643 -1.7446
 6821TIP3    H242099   3.576   5.419   7.526  0.4741 -0.8721  1.8633
 6822TIP3   OH242100   4.019   0.969   1.272 -0.1865 -0.2869  0.3733
 6822TIP3    H142101   4.027   0.936   1.362 -1.7073 -0.8045  0.3565
 6822TIP3    H242102   4.056   1.057   1.275  2.2604 -1.2588  0.8667
 6823TIP3   OH242103   4.717   2.713   2.651 -0.1798 -0.2359  0.8079
 6823TIP3    H142104   4.782   2.660   2.605 -0.4497  0.5404 -0.5117
 6823TIP3    H242105   4.766   2.754   2.722  1.0414  1.0752 -0.7203
 6824TIP3   OH242106   3.469   3.498   7.742 -0.1128  0.4336  0.0067
 6824TIP3    H142107   3.424   3.454   7.814 -0.0598  0.0402 -0.1937
 6824TIP3    H242108   3.407   3.494   7.669  0.6249 -1.0855 -0.6005
 6825TIP3   OH242109   1.615   2.595   2.063  0.2044  0.2222  0.4798
 6825TIP3    H142110   1.613   2.642   2.146  1.0872 -0.5810  0.9842
 6825TIP3    H242111   1.650   2.509   2.086  1.1880  0.2414 -0.8503
 6826TIP3   OH242112   6.199   2.086   2.509  0.7129 -0.2533  0.6071
 6826TIP3    H142113   6.239   2.053   2.429 -0.3619 -0.7830  0.2746
 6826TIP3    H242114   6.272   2.098   2.570  1.2981 -1.7630  0.2206
 6827TIP3   OH242115   1.901   0.579   1.237  0.0920  0.3354 -0.1887
 6827TIP3    H142116   1.951   0.526   1.174  0.1095  0.7150 -0.4994
 6827TIP3    H242117   1.874   0.656   1.187 -0.9804  0.0431 -0.0796
 6828TIP3   OH242118   2.086   5.337   8.746 -0.1493  1.0610 -0.0571
 6828TIP3    H142119   2.114   5.307   8.832  1.3661  1.7044 -0.2934
 6828TIP3    H242120   1.991   5.327   8.746 -0.1510  0.8956  1.6231
 6829TIP3   OH242121   4.399   4.409   8.613 -0.2146  0.9677 -0.5269
 6829TIP3    H142122   4.374   4.389   8.703 -1.0095  0.9318 -0.7450
 6829TIP3    H242123   4.434   4.327   8.579 -2.9711 -0.0514 -1.2542
 6830TIP3   OH242124   5.891   3.048   1.942  0.0818  0.4942  0.3845
 6830TIP3    H142125   5.981   3.080   1.942  0.7705 -1.2628 -0.7369
 6830TIP3    H242126   5.900   2.952   1.946 -1.6143  0.1174 -2.2768
 6831TIP3   OH242127   4.590   2.711   1.020 -0.5150  0.1592 -0.0976
 6831TIP3    H142128   4.648   2.641   1.049 -2.9901 -2.5483 -1.2436
 6831TIP3    H242129   4.629   2.791   1.057  1.8490 -1.8729  2.1995
 6832TIP3   OH242130   3.150   4.607   8.609 -0.2839 -0.4588  0.3651
 6832TIP3    H142131   3.114   4.685   8.566 -0.3832 -0.9866 -0.5553
 6832TIP3    H242132   3.177   4.550   8.536  1.3305 -0.5854  1.0222
 6833TIP3   OH242133   2.564   3.678   7.995 -0.9876  0.1677  0.0405
 6833TIP3    H142134   2.626   3.637   8.055 -0.4595  0.3554 -0.3682
 6833TIP3    H242135   2.615   3.694   7.915 -1.4633  0.6737 -0.1658
 6834TIP3   OH242136   6.393   3.076   1.308 -0.1108 -0.6409 -0.7846
 6834TIP3    H142137   6.313   3.104   1.263 -0.2175 -0.8006 -0.6930
 6834TIP3    H242138   6.366   3.001   1.361  0.3734 -1.5771 -1.8037
 6835TIP3   OH242139   6.294   1.240   6.831  0.0503  0.3088  0.4227
 6835TIP3    H142140   6.279   1.330   6.802  2.6032  0.9609  0.8980
 6835TIP3    H242141   6.241   1.186   6.772 -1.1665  2.0730 -0.1624
 6836TIP3   OH242142   2.089   4.035   1.752  0.2286  0.4345  0.4950
 6836TIP3    H142143   2.152   3.969   1.779  1.2091  1.8437  1.7939
 6836TIP3    H242144   2.142   4.103   1.710 -0.5784  1.0317  0.4238
 6837TIP3   OH242145   1.546   0.807   8.639 -0.4353  0.6679  0.1190
 6837TIP3    H142146   1.506   0.850   8.714  0.4061  0.1945  0.8625
 6837TIP3    H242147   1.568   0.878   8.579 -1.5478  1.0072  0.1012
 6838TIP3   OH242148   1.461   0.649   7.061  0.1018  0.4169 -0.2674
 6838TIP3    H142149   1.472   0.704   6.983  0.4913 -0.8167 -1.1053
 6838TIP3    H242150   1.375   0.610   7.052  0.1193  0.3198 -0.0362
 6839TIP3   OH242151   1.988   2.724   0.890  0.6537 -0.3708 -0.3233
 6839TIP3    H142152   2.019   2.633   0.895 -1.2658 -1.1918 -1.8303
 6839TIP3    H242153   1.994   2.746   0.797  1.7990  1.3489  0.1233
 6840TIP3   OH242154   1.713   3.665   0.562 -0.1110  0.0839  0.2455
 6840TIP3    H142155   1.696   3.669   0.468  2.5279  0.8764 -0.2682
 6840TIP3    H242156   1.765   3.585   0.574  3.6405  2.3074  0.1669
 6841TIP3   OH242157   3.304   2.580   6.408  0.2207  0.0766  0.6328
 6841TIP3    H142158   3.270   2.503   6.362  0.7022 -0.3732  1.0129
 6841TIP3    H242159   3.366   2.544   6.472  2.1869  0.9374 -0.7084
 6842TIP3   OH242160   0.529   2.582   7.035  0.1249 -0.2762 -0.2751
 6842TIP3    H142161   0.439   2.577   7.002 -0.0171  1.0958 -0.1680
 6842TIP3    H242162   0.581   2.612   6.960  0.1558  0.7633  0.1331
 6843TIP3   OH242163   4.424   3.544   1.178  0.4368  0.4172  0.0197
 6843TIP3    H142164   4.440   3.629   1.219  2.2399 -0.0517  0.3727
 6843TIP3    H242165   4.500   3.531   1.121 -0.8892  0.0042 -1.7215
 6844TIP3   OH242166   5.715   2.903   1.787  0.3303  0.3157 -0.4516
 6844TIP3    H142167   5.787   2.917   1.726  0.1014  1.1333 -0.5462
 6844TIP3    H242168   5.643   2.872   1.732  0.3778  0.2492 -0.4758
 6845TIP3   OH242169   0.891   6.197   8.445 -0.6829  0.2578  0.1038
 6845TIP3    H142170   0.913   6.207   8.537 -0.7919  1.3730  0.0164
 6845TIP3    H242171   0.828   6.125   8.443  0.2386 -0.6094  0.7482
 6846TIP3   OH242172   3.964   0.134   8.175 -0.5089  0.0263 -0.3839
 6846TIP3    H142173   3.952   0.225   8.202 -3.0798  0.5313 -2.7579
 6846TIP3    H242174   3.910   0.083   8.236  0.4127  0.1223  0.5387
 6847TIP3   OH242175   6.618   6.518   0.515 -0.5205 -0.0865  0.0144
 6847TIP3    H142176   6.658   6.431   0.522 -0.3468  0.0010  0.1247
 6847TIP3    H242177   6.646   6.564   0.595  1.0127  0.7408 -0.9456
 6848TIP3   OH242178   3.564   2.973   7.621 -0.4574  0.0274 -0.4337
 6848TIP3    H142179   3.537   3.014   7.703  0.7253 -0.4731  0.2438
 6848TIP3    H242180   3.660   2.969   7.628 -0.3757 -0.3555 -1.6825
 6849TIP3   OH242181   6.377   3.566   8.365  0.1034 -0.0436  0.1669
 6849TIP3    H142182   6.461   3.524   8.342  0.6296  0.9563  0.2232
 6849TIP3    H242183   6.372   3.642   8.308 -1.2365 -0.6113 -0.5049
 6850TIP3   OH242184   6.135   6.493   2.026 -0.0399 -0.5052  0.3791
 6850TIP3    H142185   6.100   6.552   2.093 -0.2609  0.0843 -0.2395
 6850TIP3    H242186   6.080   6.508   1.950  2.4542  1.6490 -1.1840
 6851TIP3   OH242187   3.299   4.535   0.607 -0.1899  0.0460  0.7010
 6851TIP3    H142188   3.350   4.473   0.555  0.8401  0.8436  0.7308
 6851TIP3    H242189   3.266   4.483   0.680 -1.3589 -1.0097 -0.5140
 6852TIP3   OH242190   2.917   5.092   8.502  0.2132  0.4638  0.1023
 6852TIP3    H142191   2.854   5.163   8.514  1.4669  1.4831  0.9306
 6852TIP3    H242192   2.975   5.122   8.433 -0.5900 -0.7832 -1.1663
 6853TIP3   OH242193   2.519   4.195   1.956 -0.1736  0.2286 -0.2220
 6853TIP3    H142194   2.604   4.239   1.967 -0.5254  1.2820 -1.4741
 6853TIP3    H242195   2.485   4.187   2.045  1.2808 -0.3294  0.3168
 6854TIP3   OH242196   3.813   3.444   8.599  0.2790  0.2511  0.1066
 6854TIP3    H142197   3.755   3.462   8.525  0.6267 -1.2201 -0.5493
 6854TIP3    H242198   3.764   3.382   8.653  0.2888  0.8305  0.7917
 6855TIP3   OH242199   4.675   2.511   1.170 -0.2447  0.4685  0.5046
 6855TIP3    H142200   4.697   2.551   1.255  1.1612 -0.9769  0.8605
 6855TIP3    H242201   4.730   2.433   1.165 -0.6337  0.2731 -1.5574
 6856TIP3   OH242202   0.893   4.406   6.931  0.0009 -0.6073 -0.0081
 6856TIP3    H142203   0.954   4.379   6.863 -0.8753  1.8483 -1.9075
 6856TIP3    H242204   0.808   4.372   6.902 -0.7663  2.2175 -1.4346
 6857TIP3   OH242205   3.913   5.585   1.055  0.1117 -0.1743  0.0466
 6857TIP3    H142206   3.832   5.550   1.018 -1.2755  1.4828  1.3611
 6857TIP3    H242207   3.898   5.680   1.059  2.0717  0.1477  0.4716
 6858TIP3   OH242208   2.175   6.009   6.979 -0.4000 -0.1455 -0.4386
 6858TIP3    H142209   2.102   6.053   7.021  0.8700  2.0114 -0.3433
 6858TIP3    H242210   2.248   6.018   7.041  0.5378 -0.2216 -1.4888
 6859TIP3   OH242211   0.713   2.485   7.911 -0.4101 -0.1429 -0.4923
 6859TIP3    H142212   0.688   2.560   7.856  1.0754 -0.3488 -1.5089
 6859TIP3    H242213   0.801   2.461   7.880 -0.7641 -2.1865 -0.0430
 6860TIP3   OH242214   5.995   6.624   6.568 -0.1190  0.0991  0.6884
 6860TIP3    H142215   5.964   6.574   6.494  0.7093 -2.2028  1.8139
 6860TIP3    H242216   5.935   6.602   6.639  0.3021  0.6550  1.2319
 6861TIP3   OH242217   6.195   4.166   2.154  0.5801 -0.0951  0.1716
 6861TIP3    H142218   6.286   4.143   2.175  0.4571 -1.2832 -0.5099
 6861TIP3    H242219   6.149   4.083   2.156 -0.4348  0.4584  0.1480
 6862TIP3   OH242220   4.757   3.643   1.391  0.1802  0.2251 -0.2243
 6862TIP3    H142221   4.703   3.641   1.469  0.9340  2.0473  0.4086
 6862TIP3    H242222   4.845   3.622   1.422  0.6399  1.7701 -0.3760
 6863TIP3   OH242223   0.725   2.560   2.161 -0.0954 -0.3801  0.0036
 6863TIP3    H142224   0.630   2.555   2.151 -0.3910  0.9876  1.6224
 6863TIP3    H242225   0.738   2.609   2.243  2.0031 -0.5057 -0.1989
 6864TIP3   OH242226   4.752   3.980   6.524  0.0882 -0.0729 -0.3250
 6864TIP3    H142227   4.840   3.945   6.536  0.7420  1.9923  1.5506
 6864TIP3    H242228   4.754   4.020   6.437  0.7396 -0.7008 -0.6136
 6865TIP3   OH242229   0.625   1.919   6.882  0.4035  0.1336  0.0620
 6865TIP3    H142230   0.599   1.856   6.814 -0.2848  0.3332  0.1340
 6865TIP3    H242231   0.707   1.884   6.917 -0.8041 -1.6549  1.2619
 6866TIP3   OH242232   5.139   6.572   1.112 -0.0683  0.2912 -0.2095
 6866TIP3    H142233   5.156   6.551   1.203 -0.4567  0.7647 -0.0205
 6866TIP3    H242234   5.058   6.624   1.114 -0.6884 -0.6090 -0.9203
 6867TIP3   OH242235   6.251   6.749   1.495  0.0609 -0.2451 -0.1543
 6867TIP3    H142236   6.225   6.718   1.582 -1.3030 -0.4907 -0.6312
 6867TIP3    H242237   6.191   6.821   1.475 -0.9444 -1.4353 -1.6748
 6868TIP3   OH242238   4.689   1.792   7.766 -0.1659  1.0231  0.8751
 6868TIP3    H142239   4.614   1.737   7.790  0.6144 -1.7524 -2.2901
 6868TIP3    H242240   4.764   1.750   7.808  0.2602  0.4104 -0.4479
 6869TIP3   OH242241   5.204   6.315   7.419  0.2105 -0.5273 -0.0458
 6869TIP3    H142242   5.239   6.226   7.419  2.9436  0.4472 -0.7862
 6869TIP3    H242243   5.268   6.367   7.467  1.0867  1.7963 -3.3769
 6870TIP3   OH242244   1.425   4.897   2.121  0.1381 -0.0325 -0.3758
 6870TIP3    H142245   1.432   4.984   2.083  1.0183  0.0370 -0.0804
 6870TIP3    H242246   1.434   4.837   2.047  1.0883  0.1133 -0.3947
 6871TIP3   OH242247   6.049   3.398   1.566 -0.2969 -0.0540 -0.5873
 6871TIP3    H142248   6.048   3.395   1.662 -0.2691 -0.2208 -0.5918
 6871TIP3    H242249   6.077   3.311   1.540 -0.5621 -0.0894 -0.7538
 6872TIP3   OH242250   6.531   6.522   8.378 -0.0952 -0.1361 -0.1249
 6872TIP3    H142251   6.487   6.515   8.293 -1.7006 -1.1476  0.7119
 6872TIP3    H242252   6.578   6.439   8.387  0.0197 -0.0586 -0.0135
 6873TIP3   OH242253   1.606   0.676   8.282 -0.1065 -0.4528 -0.1790
 6873TIP3    H142254   1.681   0.726   8.314 -0.4563  1.1402 -1.7162
 6873TIP3    H242255   1.534   0.739   8.278 -0.9115 -1.3775 -1.0089
 6874TIP3   OH242256   1.475   2.351   1.053  0.3576 -0.5946 -0.1585
 6874TIP3    H142257   1.451   2.404   0.978 -1.4106  2.9765  2.6201
 6874TIP3    H242258   1.399   2.358   1.112  1.8509 -2.7280  2.2167
 6875TIP3   OH242259   4.053   0.397   1.490 -0.2467  0.7241  0.3295
 6875TIP3    H142260   4.078   0.401   1.582  0.7002  0.3965  0.1048
 6875TIP3    H242261   3.964   0.431   1.487 -0.1118  1.1897  1.2988
 6876TIP3   OH242262   1.469   0.202   8.092 -0.4199 -0.2081 -0.0514
 6876TIP3    H142263   1.426   0.118   8.108  1.1219 -0.6576  2.3626
 6876TIP3    H242264   1.447   0.255   8.169 -0.5276  1.2423 -1.0520
 6877TIP3   OH242265   6.165   5.940   1.173 -0.4902  0.0918  0.6011
 6877TIP3    H142266   6.122   6.009   1.122 -2.3169  0.0006  1.9408
 6877TIP3    H242267   6.220   5.895   1.109 -1.1005  1.2832 -0.8343
 6878TIP3   OH242268   0.449   4.805   2.158 -0.0634 -0.2679  0.8322
 6878TIP3    H142269   0.367   4.762   2.180  0.1718  0.2822  3.0344
 6878TIP3    H242270   0.516   4.738   2.171  0.0779  0.0646  2.0081
 6879TIP3   OH242271   3.144   4.001   1.343 -0.0998 -0.5825  0.4993
 6879TIP3    H142272   3.081   4.071   1.360  0.1278 -0.1978 -0.1812
 6879TIP3    H242273   3.184   4.025   1.259 -0.0610 -1.5656  0.2269
 6880TIP3   OH242274   4.269   5.605   0.126  0.6842  0.1090  0.5662
 6880TIP3    H142275   4.216   5.544   0.177  1.6513 -0.6024  0.7565
 6880TIP3    H242276   4.359   5.590   0.157  1.7339 -2.0962 -2.9452
 6881TIP3   OH242277   4.597   4.533   1.151  0.2947  0.1593  0.1784
 6881TIP3    H142278   4.652   4.463   1.188 -2.1437 -1.8704  0.2509
 6881TIP3    H242279   4.607   4.524   1.056  0.4319  0.0882  0.1998
 6882TIP3   OH242280   1.391   0.382   0.675 -0.6396 -0.2375 -0.2376
 6882TIP3    H142281   1.300   0.411   0.670 -0.3978  0.7638  0.7123
 6882TIP3    H242282   1.434   0.448   0.729  0.5126 -1.0493 -0.1267
 6883TIP3   OH242283   2.919   0.589   1.143 -0.1641 -0.2358  0.5536
 6883TIP3    H142284   2.931   0.607   1.050 -1.2390  2.8771  0.8894
 6883TIP3    H242285   2.833   0.547   1.149  1.2215 -3.4169 -0.0259
 6884TIP3   OH242286   5.194   5.369   6.676 -0.1711 -0.3429  0.1062
 6884TIP3    H142287   5.160   5.279   6.674  2.3494 -1.3892 -0.1764
 6884TIP3    H242288   5.147   5.410   6.748  0.5504 -2.8147  2.1516
 6885TIP3   OH242289   5.233   1.407   0.391  0.2690  0.1174 -0.0605
 6885TIP3    H142290   5.142   1.432   0.378  0.7615  1.7406 -0.6775
 6885TIP3    H242291   5.238   1.381   0.483 -0.5514  1.3146  0.3440
 6886TIP3   OH242292   6.706   5.100   7.334 -0.1355  0.4991  0.1195
 6886TIP3    H142293   6.790   5.067   7.365 -1.2857 -1.3008  1.6277
 6886TIP3    H242294   6.654   5.021   7.319 -1.8571  1.5609  0.1744
 6887TIP3   OH242295   4.798   1.280   0.541  0.0258 -0.1471  0.7334
 6887TIP3    H142296   4.721   1.231   0.511  0.3462  0.2369 -0.8180
 6887TIP3    H242297   4.783   1.294   0.634 -2.1955  0.6476  0.3056
 6888TIP3   OH242298   4.680   1.615   0.937  0.8203  0.4095  0.0786
 6888TIP3    H142299   4.701   1.705   0.963  1.9647  0.4696 -0.9541
 6888TIP3    H242300   4.724   1.560   1.003 -0.7698  0.5776  1.3399
 6889TIP3   OH242301   0.334   1.310   0.989 -0.0310  0.1031 -0.5198
 6889TIP3    H142302   0.324   1.252   0.913  2.4989  1.5080 -2.0918
 6889TIP3    H242303   0.418   1.286   1.027 -0.2388  0.9155  0.5048
 6890TIP3   OH242304   2.968   0.201   7.635 -0.0554 -0.0780 -0.5312
 6890TIP3    H142305   2.933   0.176   7.550 -0.7501  0.1425 -0.3203
 6890TIP3    H242306   3.063   0.200   7.624 -0.1371  1.5259 -1.7819
 6891TIP3   OH242307   6.701   3.182   0.009  0.2769  0.1725  0.1713
 6891TIP3    H142308   6.786   3.185  -0.034  0.4908 -0.0071  0.5752
 6891TIP3    H242309   6.708   3.244   0.082 -0.8452  2.2452 -1.3695
 6892TIP3   OH242310   3.366   5.660   2.137 -0.1843 -0.2408 -0.1186
 6892TIP3    H142311   3.342   5.676   2.046  2.0590  1.4668 -0.4832
 6892TIP3    H242312   3.307   5.717   2.187 -0.3049  0.0776 -0.6156
 6893TIP3   OH242313   0.958   4.230   0.061 -0.5421 -0.5509  0.4234
 6893TIP3    H142314   0.952   4.197  -0.028 -0.3278 -1.5545  0.7660
 6893TIP3    H242315   1.047   4.266   0.067  0.4163 -2.8275  0.9679
 6894TIP3   OH242316   4.194   5.151   1.506 -0.2114  0.5441  0.0489
 6894TIP3    H142317   4.278   5.137   1.462 -0.9699  0.9137 -1.5914
 6894TIP3    H242318   4.206   5.113   1.593  2.0329  1.6433  0.2968
 6895TIP3   OH242319   0.483   2.985   8.247  0.4313  0.3872  0.6777
 6895TIP3    H142320   0.414   3.030   8.199  0.7594  0.9161  0.6913
 6895TIP3    H242321   0.559   2.986   8.188  0.8937  1.2172  1.2728
 6896TIP3   OH242322   1.599   6.156   0.632 -0.1536 -0.5127  0.8540
 6896TIP3    H142323   1.616   6.225   0.696 -0.1439 -1.6599  2.1468
 6896TIP3    H242324   1.507   6.167   0.608  0.1574  0.6566  0.1344
 6897TIP3   OH242325   5.109   1.363   2.758 -0.0917 -0.4175 -0.1885
 6897TIP3    H142326   5.118   1.431   2.691  0.9166  0.0336  0.3795
 6897TIP3    H242327   5.062   1.405   2.830 -1.7470 -1.0875 -0.8267
 6898TIP3   OH242328   5.013   2.033   8.470  0.4784 -0.4356 -0.1081
 6898TIP3    H142329   4.949   2.091   8.512  0.5251 -0.1094 -0.4873
 6898TIP3    H242330   5.094   2.048   8.519  0.4144 -0.4103 -0.0087
 6899TIP3   OH242331   0.949   6.257   6.812  0.3021 -0.0182 -0.4876
 6899TIP3    H142332   0.961   6.340   6.766 -0.4402 -0.1891 -0.9996
 6899TIP3    H242333   0.855   6.250   6.825  0.3326 -0.8988 -0.6680
 6900TIP3   OH242334   2.866   2.227   1.028  0.1469  0.5413  0.4081
 6900TIP3    H142335   2.788   2.180   1.058  0.7303 -1.0024 -0.3800
 6900TIP3    H242336   2.833   2.310   0.994 -1.1986 -0.2663 -0.3257
 6901TIP3   OH242337   6.733   0.534   1.081  0.2402 -0.0287  0.8604
 6901TIP3    H142338   6.793   0.586   1.134 -0.1772  1.0176  0.3385
 6901TIP3    H242339   6.728   0.449   1.125  0.7912  0.4350  1.8330
 6902TIP3   OH242340   5.197   1.719   7.763 -0.0763 -0.4480  0.2467
 6902TIP3    H142341   5.202   1.641   7.709  2.1566 -0.8586  0.9214
 6902TIP3    H242342   5.204   1.792   7.702 -0.3576 -0.8311 -0.2423
 6903TIP3   OH242343   6.719   3.283   6.963  0.1262  0.7538 -0.6114
 6903TIP3    H142344   6.677   3.352   7.014 -0.1401 -1.3160  2.1777
 6903TIP3    H242345   6.674   3.285   6.878 -0.1696  3.6287 -0.4939
 6904TIP3   OH242346   1.527   2.511   8.202  0.3003 -0.4131 -0.2748
 6904TIP3    H142347   1.581   2.469   8.135  0.8298 -2.0207  1.1132
 6904TIP3    H242348   1.503   2.441   8.262 -0.4397  0.9198  1.0541
 6905TIP3   OH242349   3.456   1.870   7.392 -0.0249 -0.3423  0.3269
 6905TIP3    H142350   3.475   1.841   7.481 -1.2783  1.8625  1.3866
 6905TIP3    H242351   3.383   1.815   7.365  1.2341 -1.9626  0.0798
 6906TIP3   OH242352   4.820   0.778   8.385  0.1990  0.1547  0.1602
 6906TIP3    H142353   4.856   0.863   8.359 -1.6442  0.9985  0.2133
 6906TIP3    H242354   4.897   0.725   8.405  1.4576  1.4027 -1.0938
 6907TIP3   OH242355   0.766   3.910   7.403 -0.7030  0.1117  0.0068
 6907TIP3    H142356   0.799   3.921   7.314  2.2459 -0.3918  0.9346
 6907TIP3    H242357   0.789   3.992   7.447  0.6619 -0.7714  1.0331
 6908TIP3   OH242358   1.205   5.523   2.228 -0.1688  0.0984  0.4283
 6908TIP3    H142359   1.299   5.540   2.237  0.0885 -0.7117 -0.5745
 6908TIP3    H242360   1.200   5.439   2.182 -1.3573  1.1834 -1.5664
 6909TIP3   OH242361   4.762   5.825   0.901  0.1095 -0.0283  0.1066
 6909TIP3    H142362   4.740   5.910   0.861  1.6437  0.1187 -0.5080
 6909TIP3    H242363   4.814   5.848   0.978 -0.7324 -0.3937  0.8070
 6910TIP3   OH242364   3.870   0.135   7.216 -0.3042 -0.0769 -0.3837
 6910TIP3    H142365   3.845   0.127   7.124  0.3334 -0.7603 -0.5103
 6910TIP3    H242366   3.789   0.157   7.261 -0.9283 -1.1603 -0.9210
 6911TIP3   OH242367   0.107   3.748   0.378 -0.3283  0.3685  0.3469
 6911TIP3    H142368   0.158   3.668   0.365 -0.7648  0.0265  0.7198
 6911TIP3    H242369   0.110   3.793   0.294 -0.9197 -0.5306 -0.1635
 6912TIP3   OH242370   0.554   1.083   0.274  0.1176  0.0309 -0.2826
 6912TIP3    H142371   0.637   1.082   0.227 -0.2399 -1.8476 -0.9737
 6912TIP3    H242372   0.487   1.078   0.205 -0.5474  0.6865  0.2997
 6913TIP3   OH242373   4.888   2.657   8.624  0.0074  0.6190  0.0802
 6913TIP3    H142374   4.970   2.655   8.574 -1.0898 -0.1976 -1.7761
 6913TIP3    H242375   4.912   2.622   8.710  1.4116 -0.6243 -0.7737
 6914TIP3   OH242376   6.486   1.187   1.160 -0.0153  0.1881 -0.5342
 6914TIP3    H142377   6.559   1.180   1.099  1.1695 -1.0248  0.9049
 6914TIP3    H242378   6.417   1.134   1.121  0.9958 -1.2182 -0.5050
 6915TIP3   OH242379   5.042   2.993   1.627  0.1365 -0.4622 -0.3548
 6915TIP3    H142380   5.005   2.972   1.542 -1.3568 -0.3227  0.2325
 6915TIP3    H242381   4.978   3.051   1.668  1.5647  0.7560  0.2628
 6916TIP3   OH242382   5.520   2.609   0.376  0.1762 -0.2014 -0.2347
 6916TIP3    H142383   5.597   2.574   0.421  0.1582  0.2737  0.1747
 6916TIP3    H242384   5.495   2.686   0.427 -0.9515 -0.7057  0.0180
 6917TIP3   OH242385   5.241   4.982   6.805  0.1468 -0.3431 -0.2604
 6917TIP3    H142386   5.237   4.986   6.709 -0.2392  0.5597 -0.2254
 6917TIP3    H242387   5.191   4.904   6.828 -1.5304  0.5331 -0.7308
 6918TIP3   OH242388   1.854   6.053   0.756  0.2336  0.0235  0.1608
 6918TIP3    H142389   1.763   6.064   0.782  0.3601 -2.5758  2.1266
 6918TIP3    H242390   1.884   6.141   0.734 -2.4477  1.0896  0.4049
 6919TIP3   OH242391   4.840   0.945   1.159  0.3726  0.4998  0.6233
 6919TIP3    H142392   4.778   0.881   1.193 -0.8116  1.6298  0.6524
 6919TIP3    H242393   4.908   0.892   1.118 -1.6008 -0.7941 -1.1985
 6920TIP3   OH242394   5.531   5.826   7.616  0.5143 -0.2060 -0.4934
 6920TIP3    H142395   5.462   5.768   7.649 -0.4239  1.3090  0.3318
 6920TIP3    H242396   5.612   5.790   7.653  0.1372 -1.7042 -1.0442
 6921TIP3   OH242397   0.748   0.776   0.948 -0.0580  0.1968  0.2820
 6921TIP3    H142398   0.721   0.725   0.872  0.4571  0.1233  0.1437
 6921TIP3    H242399   0.759   0.865   0.913  1.8449 -0.1593 -0.1324
 6922TIP3   OH242400   3.045   5.945   1.033  0.4478  0.0588 -0.2835
 6922TIP3    H142401   2.977   5.897   1.082  0.8835 -0.2644  0.0206
 6922TIP3    H242402   3.021   5.934   0.941  1.4309 -2.2060 -0.3415
 6923TIP3   OH242403   4.320   3.093   7.066 -0.2331 -0.1065 -0.3154
 6923TIP3    H142404   4.388   3.160   7.054 -0.6471  0.6999  1.4945
 6923TIP3    H242405   4.368   3.016   7.097  0.1480 -0.4385 -1.6493
 6924TIP3   OH242406   5.657   0.345   8.018  0.3522  0.1961  0.9517
 6924TIP3    H142407   5.707   0.427   8.024 -0.0220  0.7911 -2.1333
 6924TIP3    H242408   5.655   0.325   7.924 -1.9938 -1.8503  1.3212
 6925TIP3   OH242409   6.406   1.590   1.133  0.4868 -0.0158  0.0835
 6925TIP3    H142410   6.341   1.609   1.066 -1.1587  0.7992  1.8147
 6925TIP3    H242411   6.473   1.539   1.088 -0.7701  0.0985 -2.0416
 6926TIP3   OH242412   4.036   1.243   1.345  0.0449  0.9418  0.1499
 6926TIP3    H142413   3.981   1.229   1.423  0.4854  1.2636  0.5197
 6926TIP3    H242414   4.102   1.306   1.373  0.0834  1.2222 -0.5477
 6927TIP3   OH242415   2.370   0.521   0.981  0.4785 -0.3896 -0.0012
 6927TIP3    H142416   2.457   0.552   1.004  0.3821 -0.7207  0.8437
 6927TIP3    H242417   2.355   0.553   0.892  1.5008 -0.4155 -0.1876
 6928TIP3   OH242418   3.630   1.542   6.795  0.6305  0.0321  0.1232
 6928TIP3    H142419   3.553   1.598   6.786  1.3154  1.0886  0.5074
 6928TIP3    H242420   3.703   1.596   6.764  1.4456 -0.2957  1.3683
 6929TIP3   OH242421   5.705   4.454   2.200 -0.0508  0.4034  0.6201
 6929TIP3    H142422   5.786   4.403   2.194 -0.4688 -0.0688 -2.4973
 6929TIP3    H242423   5.734   4.541   2.231  1.6052  0.1693 -0.1646
 6930TIP3   OH242424   1.474   1.740   1.140 -0.1702 -0.7055  0.4016
 6930TIP3    H142425   1.500   1.824   1.103  0.4176 -2.0141 -2.4441
 6930TIP3    H242426   1.400   1.711   1.085 -0.1552 -2.1700  1.0996
 6931TIP3   OH242427   4.857   6.649   6.674  0.0565  0.2817  0.5599
 6931TIP3    H142428   4.786   6.711   6.691 -0.3997 -0.6724  2.5288
 6931TIP3    H242429   4.935   6.691   6.710  0.3193  0.8827 -0.6629
 6932TIP3   OH242430   3.644   4.752   2.134  0.0021  0.7372 -0.0037
 6932TIP3    H142431   3.713   4.806   2.173  1.1091  0.0822 -0.9703
 6932TIP3    H242432   3.627   4.684   2.199 -0.5419  1.5278  0.7058
 6933TIP3   OH242433   3.724   5.279   1.630 -0.2726  0.0896  0.2894
 6933TIP3    H142434   3.783   5.214   1.591  0.8510  1.8281 -1.0723
 6933TIP3    H242435   3.679   5.318   1.555 -0.9774  0.8274  1.0783
 6934TIP3   OH242436   6.195   6.772   6.660 -0.9302  0.0556  0.0818
 6934TIP3    H142437   6.154   6.856   6.641 -0.7552  0.4479  1.3424
 6934TIP3    H242438   6.134   6.707   6.627 -0.8988  0.6768 -1.2386
 6935TIP3   OH242439   5.456   4.745   7.873  0.3153 -0.1180  0.3454
 6935TIP3    H142440   5.504   4.692   7.938  0.6536  1.3316  1.3368
 6935TIP3    H242441   5.434   4.825   7.920 -1.2714  0.1241 -0.7411
 6936TIP3   OH242442   5.482   5.850   7.324  1.2292  0.4289  0.1885
 6936TIP3    H142443   5.529   5.844   7.407  1.8243 -1.8046 -0.2431
 6936TIP3    H242444   5.546   5.889   7.264  2.4277 -1.9780 -0.2287
 6937TIP3   OH242445   2.706   0.778   1.368  0.3573 -0.7189 -0.0047
 6937TIP3    H142446   2.801   0.788   1.374  0.1699  0.4228  1.9799
 6937TIP3    H242447   2.672   0.868   1.368 -0.7716 -1.1049  1.4202
 6938TIP3   OH242448   4.463   1.638   1.999  0.7976 -0.4240 -0.3181
 6938TIP3    H142449   4.541   1.646   2.054 -0.8637 -0.3360  2.2103
 6938TIP3    H242450   4.452   1.543   1.987  1.5415 -0.4208 -1.1419
 6939TIP3   OH242451   3.370   2.817   2.332 -0.4550  0.3553  0.0460
 6939TIP3    H142452   3.459   2.805   2.299 -0.7737 -1.4789 -0.2276
 6939TIP3    H242453   3.370   2.906   2.369  2.6309 -0.9291  3.7479
 6940TIP3   OH242454   4.593   6.240   0.008 -0.6102  0.2932  0.2022
 6940TIP3    H142455   4.628   6.323  -0.023 -1.6888  1.3885  1.7862
 6940TIP3    H242456   4.603   6.180  -0.067  1.6760  1.3697 -0.4250
 6941TIP3   OH242457   3.950   2.871   7.088 -0.1624  0.2449 -0.6876
 6941TIP3    H142458   3.988   2.919   7.162  2.5911 -1.3297 -0.9378
 6941TIP3    H242459   3.901   2.938   7.039  1.2542  2.2013  0.3980
 6942TIP3   OH242460   2.993   5.032   0.521  0.0224 -0.0849 -0.0463
 6942TIP3    H142461   2.950   5.112   0.492  0.5386 -0.4949 -2.0797
 6942TIP3    H242462   3.066   5.019   0.460 -0.1732 -2.2043  0.0748
 6943TIP3   OH242463   3.388   5.266   7.721  0.4250 -0.4245  0.5110
 6943TIP3    H142464   3.430   5.185   7.695  0.3643  0.2305 -1.7967
 6943TIP3    H242465   3.461   5.326   7.740  0.4781 -0.5203  0.6117
 6944TIP3   OH242466   4.223   2.630   7.819 -0.3109  0.0454 -0.3530
 6944TIP3    H142467   4.172   2.551   7.836  0.5039 -0.6507 -1.0693
 6944TIP3    H242468   4.251   2.621   7.728  0.3292  0.8539 -0.2429
 6945TIP3   OH242469   4.435   1.674   7.754 -0.3499 -0.5859 -0.0801
 6945TIP3    H142470   4.340   1.664   7.765 -0.5064 -0.0647 -0.8590
 6945TIP3    H242471   4.462   1.594   7.709 -0.5630 -0.3833 -0.5834
 6946TIP3   OH242472   5.642   3.380   6.847  0.2084  0.6558 -0.3481
 6946TIP3    H142473   5.651   3.286   6.830  2.0462  0.6328  0.5882
 6946TIP3    H242474   5.703   3.422   6.786  0.5783  1.1232  0.3319
 6947TIP3   OH242475   5.968   1.208   7.914 -0.4670 -0.5334 -0.6993
 6947TIP3    H142476   6.021   1.136   7.949 -1.5544 -0.4781  1.2015
 6947TIP3    H242477   6.000   1.220   7.825  2.5382 -0.6747  0.2450
 6948TIP3   OH242478   3.879   5.588   7.772  0.2559  0.5816  0.0652
 6948TIP3    H142479   3.888   5.508   7.720 -1.7019  0.2448  0.1788
 6948TIP3    H242480   3.956   5.588   7.829  1.5766  0.0991 -1.6311
 6949TIP3   OH242481   4.036   4.563   0.784  0.1718 -0.2192 -0.0458
 6949TIP3    H142482   4.129   4.551   0.803  0.0930  0.4489  0.7929
 6949TIP3    H242483   3.999   4.598   0.865 -0.4024  1.5051 -1.0003
 6950TIP3   OH242484   2.298   5.780   1.434 -0.5188 -0.0125 -0.2582
 6950TIP3    H142485   2.350   5.747   1.508 -0.1377 -0.9241 -0.9188
 6950TIP3    H242486   2.225   5.719   1.428  0.2843 -0.8912 -1.6016
 6951TIP3   OH242487   0.864   0.375   8.403 -0.1854 -0.2542  0.1609
 6951TIP3    H142488   0.880   0.379   8.497  0.1210  4.4304  0.1406
 6951TIP3    H242489   0.933   0.429   8.365 -2.7850  1.6901 -2.2078
 6952TIP3   OH242490   1.935   5.604   0.687  0.0537  0.1882 -0.3170
 6952TIP3    H142491   1.842   5.614   0.709 -0.1419 -2.2403  0.1786
 6952TIP3    H242492   1.952   5.511   0.697  2.3626  0.4589 -1.2480
 6953TIP3   OH242493   0.989   4.872   1.698 -0.3966 -0.6540 -0.1488
 6953TIP3    H142494   1.071   4.835   1.731 -0.6606 -0.6979  0.4715
 6953TIP3    H242495   0.934   4.883   1.776 -0.6759  0.1543 -0.4417
 6954TIP3   OH242496   6.844   4.029   7.911 -0.2644  0.2260  0.3418
 6954TIP3    H142497   6.809   3.949   7.873 -2.6228  0.4018  1.9443
 6954TIP3    H242498   6.797   4.099   7.866  1.2686  0.7266 -0.5476
 6955TIP3   OH242499   3.631   2.899   8.233 -0.5455  0.0434  0.8354
 6955TIP3    H142500   3.549   2.879   8.188 -1.3111  2.2822  1.0834
 6955TIP3    H242501   3.630   2.995   8.242  1.0956 -0.0519  2.7364
 6956TIP3   OH242502   4.742   2.883   2.423 -0.4012 -0.2791  0.1514
 6956TIP3    H142503   4.706   2.795   2.434  0.8614 -0.8665 -0.2974
 6956TIP3    H242504   4.834   2.874   2.448  0.0048  0.6672 -0.9385
 6957TIP3   OH242505   2.346   2.849   2.122  0.6128  0.5837 -0.0970
 6957TIP3    H142506   2.340   2.934   2.166  0.6837  0.2304  0.6013
 6957TIP3    H242507   2.338   2.870   2.029  0.3897  1.3314  0.0852
 6958TIP3   OH242508   6.376   0.239   1.259  0.7372  0.1103 -0.2222
 6958TIP3    H142509   6.385   0.243   1.163  1.3308 -1.5129 -0.2620
 6958TIP3    H242510   6.453   0.191   1.288  0.5992  0.6626  1.1024
 6959TIP3   OH242511   6.628   3.693   7.952  0.1365 -0.2492 -0.0883
 6959TIP3    H142512   6.697   3.709   7.888  1.4933  2.3032  1.8122
 6959TIP3    H242513   6.586   3.778   7.964 -2.0188 -1.2921  0.3530
 6960TIP3   OH242514   2.134   0.717   2.494  0.1991  0.7371 -0.1309
 6960TIP3    H142515   2.115   0.785   2.559  1.0525  0.7112  0.1596
 6960TIP3    H242516   2.082   0.742   2.417  0.1607  1.4715  0.1280
 6961TIP3   OH242517   3.765   2.636   8.253  0.0412  0.3171 -0.4751
 6961TIP3    H142518   3.830   2.624   8.184  1.9331  0.5747  1.1710
 6961TIP3    H242519   3.742   2.729   8.248  0.7677  0.5161 -0.2859
 6962TIP3   OH242520   0.245   3.524   8.501  0.1510  0.4837 -0.3894
 6962TIP3    H142521   0.197   3.524   8.584  0.7307 -0.3505 -0.0383
 6962TIP3    H242522   0.337   3.522   8.526  0.4369  2.7232 -1.0501
 6963TIP3   OH242523   6.368   6.476   0.424  0.0360 -0.7994  0.2228
 6963TIP3    H142524   6.374   6.391   0.468  0.5080 -1.0340 -0.2893
 6963TIP3    H242525   6.447   6.523   0.451  1.0754 -1.4873 -1.4942
 6964TIP3   OH242526   0.689   6.651   0.368  0.0702  0.1979 -0.3403
 6964TIP3    H142527   0.756   6.657   0.300 -0.1955  0.6735 -0.5628
 6964TIP3    H242528   0.671   6.742   0.392 -0.5520  0.0783 -0.3361
 6965TIP3   OH242529   1.065   3.600   0.828  0.2501 -0.0881  0.2866
 6965TIP3    H142530   1.027   3.670   0.774  0.9674  0.3461  0.3289
 6965TIP3    H242531   0.992   3.566   0.879 -0.2088  0.2807 -0.1180
 6966TIP3   OH242532   5.059   6.162   1.235 -0.5138 -0.0611 -0.0037
 6966TIP3    H142533   5.101   6.077   1.237  1.2199  0.6440 -1.9865
 6966TIP3    H242534   5.076   6.201   1.321 -1.9705 -1.9153  1.2011
 6967TIP3   OH242535   5.035   1.340   8.730  0.0091 -0.6998  0.4235
 6967TIP3    H142536   5.091   1.326   8.807  1.5952 -0.6762 -0.6638
 6967TIP3    H242537   5.041   1.257   8.681 -0.0507 -0.3363 -0.2190
 6968TIP3   OH242538   3.793   4.370   2.517  0.1875  0.1095 -0.5916
 6968TIP3    H142539   3.855   4.397   2.449  1.2654  0.4513  0.4943
 6968TIP3    H242540   3.803   4.435   2.586  0.9498 -1.5603  0.9726
 6969TIP3   OH242541   6.817   4.452   1.362  0.4572 -0.4963 -0.0149
 6969TIP3    H142542   6.811   4.414   1.275  1.0009  0.9706 -0.7227
 6969TIP3    H242543   6.807   4.546   1.348  0.3810 -0.2497  1.5301
 6970TIP3   OH242544   2.001   5.486   8.039  0.8037 -0.0982 -0.0962
 6970TIP3    H142545   1.985   5.409   8.094 -0.8930 -0.0065 -0.3869
 6970TIP3    H242546   2.094   5.504   8.048  0.4827  0.4189  3.4447
 6971TIP3   OH242547   0.440   5.601   7.297 -0.2163 -0.2809  0.5514
 6971TIP3    H142548   0.356   5.598   7.343  0.0180 -0.8948  0.9508
 6971TIP3    H242549   0.437   5.527   7.236 -0.1108 -0.0852  0.3080
 6972TIP3   OH242550   4.774   0.352   6.920  0.6903 -0.5261  0.0376
 6972TIP3    H142551   4.788   0.264   6.885 -0.5485  0.1346 -2.2791
 6972TIP3    H242552   4.862   0.383   6.942  1.1501 -2.2757  0.8500
 6973TIP3   OH242553   3.422   6.024   7.270 -0.0971 -0.1259  0.0393
 6973TIP3    H142554   3.344   6.056   7.223 -0.0017 -0.6856 -0.4964
 6973TIP3    H242555   3.391   6.012   7.360 -1.0825 -1.8691 -0.4836
 6974TIP3   OH242556   2.931   0.106   8.285 -0.4555 -0.5107  0.0692
 6974TIP3    H142557   2.988   0.144   8.218  0.8742 -1.3327  0.6840
 6974TIP3    H242558   2.858   0.168   8.293  0.8121  1.0679 -0.1050
 6975TIP3   OH242559   0.212   5.838   7.555  0.1812  0.0879 -0.5053
 6975TIP3    H142560   0.182   5.920   7.514  0.5927  1.1393  1.1787
 6975TIP3    H242561   0.302   5.856   7.580 -0.0721 -0.4811  0.8775
 6976TIP3   OH242562   0.786   2.513   2.814  0.6131 -0.1064 -0.2972
 6976TIP3    H142563   0.794   2.598   2.771 -0.3363  0.5880  0.8275
 6976TIP3    H242564   0.704   2.476   2.780 -0.1269  0.4326  0.8129
 6977TIP3   OH242565   4.808   3.686   6.387 -0.1153 -0.4942 -0.1297
 6977TIP3    H142566   4.866   3.659   6.316 -0.7852  0.6661 -1.1548
 6977TIP3    H242567   4.859   3.670   6.467  0.8910 -1.2334 -0.8951
 6978TIP3   OH242568   0.099   3.585   8.784 -0.6474 -0.0094 -0.1577
 6978TIP3    H142569   0.117   3.524   8.854  0.0095  1.4259  0.9805
 6978TIP3    H242570   0.138   3.668   8.813  0.8372  0.3179 -2.7929
 6979TIP3   OH242571   5.635   2.768   8.731 -0.0853  0.0242 -0.0385
 6979TIP3    H142572   5.683   2.734   8.656  0.4404  0.1036  0.2567
 6979TIP3    H242573   5.679   2.850   8.753 -1.2996  0.8900 -0.7100
 6980TIP3   OH242574   6.276   6.150   8.502 -0.2816 -0.2264 -0.2182
 6980TIP3    H142575   6.234   6.064   8.506  1.3158 -1.2036 -2.1865
 6980TIP3    H242576   6.213   6.206   8.458 -0.8539 -0.7292 -0.0489
 6981TIP3   OH242577   1.461   5.941   1.392  0.5199 -0.3910 -0.0323
 6981TIP3    H142578   1.504   5.997   1.328  0.6695 -1.3201 -0.7726
 6981TIP3    H242579   1.532   5.907   1.446  0.6243 -1.0488 -0.5558
 6982TIP3   OH242580   5.310   2.538   0.209  0.3490 -0.5902 -0.1556
 6982TIP3    H142581   5.383   2.566   0.264 -0.0763 -0.4509  0.3460
 6982TIP3    H242582   5.330   2.447   0.187 -0.2611 -1.1795  1.5726
 6983TIP3   OH242583   2.428   0.208   1.240  0.0982  0.1702  0.1229
 6983TIP3    H142584   2.455   0.200   1.148 -2.9205 -0.1168 -0.8526
 6983TIP3    H242585   2.502   0.174   1.289  1.4652 -0.5584 -2.2489
 6984TIP3   OH242586   5.107   4.131   0.265  0.5639  0.2512 -0.4863
 6984TIP3    H142587   5.120   4.137   0.360  0.6930 -0.3270 -0.4643
 6984TIP3    H242588   5.024   4.084   0.255 -0.1303  1.4894 -0.6526
 6985TIP3   OH242589   2.997   3.841   1.154  0.1584  0.7167  0.1315
 6985TIP3    H142590   3.018   3.900   1.082  0.4724  0.6810  0.1921
 6985TIP3    H242591   3.077   3.838   1.207  0.5454 -0.6636 -0.5036
 6986TIP3   OH242592   6.749   1.254   1.371 -0.0548  0.3247 -0.2222
 6986TIP3    H142593   6.823   1.296   1.327  1.2193  0.0794  1.5989
 6986TIP3    H242594   6.691   1.327   1.394  0.5047  0.7279 -0.0574
 6987TIP3   OH242595   4.030   5.457   7.319 -0.3725 -0.2744  0.4884
 6987TIP3    H142596   3.994   5.480   7.233  0.7651  1.6833  0.4666
 6987TIP3    H242597   4.117   5.422   7.300 -0.5584 -0.9027  0.7826
 6988TIP3   OH242598   1.810   5.695   8.351  0.3725 -0.1736  0.0213
 6988TIP3    H142599   1.895   5.739   8.359  0.0573  0.5203 -0.2797
 6988TIP3    H242600   1.828   5.603   8.368  1.2791 -0.1123 -0.5486
 6989TIP3   OH242601   5.058   2.164   7.278 -0.0023 -0.0934  0.1558
 6989TIP3    H142602   5.052   2.138   7.186  1.3851  1.1684 -0.3154
 6989TIP3    H242603   5.047   2.259   7.278 -0.6811 -0.1447  1.3898
 6990TIP3   OH242604   3.846   1.562   2.234  0.4012 -0.6233 -0.0151
 6990TIP3    H142605   3.775   1.499   2.242 -1.7858  1.6836 -0.0799
 6990TIP3    H242606   3.834   1.621   2.309  1.8972  0.1546 -0.3535
 6991TIP3   OH242607   2.651   2.439   0.718 -0.2159  0.0824  0.4855
 6991TIP3    H142608   2.658   2.351   0.754 -0.0202 -0.3622 -0.5839
 6991TIP3    H242609   2.727   2.486   0.752 -0.2393 -0.2034  0.9369
 6992TIP3   OH242610   0.054   2.548   8.401 -0.0914 -0.3441  0.7434
 6992TIP3    H142611   0.039   2.541   8.495  0.1859 -0.0314  0.8083
 6992TIP3    H242612  -0.019   2.499   8.362 -0.5552  0.0596  1.1028
 6993TIP3   OH242613   0.746   4.894   7.811 -0.2645 -0.7959 -0.1370
 6993TIP3    H142614   0.745   4.881   7.906 -2.9046 -1.2962 -0.1570
 6993TIP3    H242615   0.708   4.981   7.799  0.4053 -0.5790 -0.7443
 6994TIP3   OH242616   1.749   5.284   2.558 -0.1599 -0.0372  0.6451
 6994TIP3    H142617   1.696   5.342   2.503 -0.1981 -1.8467 -1.3724
 6994TIP3    H242618   1.696   5.272   2.637 -1.1070  1.0026  0.2108
 6995TIP3   OH242619   5.890   5.214   1.432 -0.0450 -0.6070  0.1721
 6995TIP3    H142620   5.796   5.194   1.434 -0.1640 -0.8653 -2.6692
 6995TIP3    H242621   5.895   5.300   1.390  0.9921 -0.8387 -0.2098
 6996TIP3   OH242622   0.678   3.920   0.116 -0.1666 -0.0979  0.6394
 6996TIP3    H142623   0.768   3.939   0.143 -0.2740  0.3585  0.6822
 6996TIP3    H242624   0.667   3.827   0.135  0.0873 -0.0092  1.2459
 6997TIP3   OH242625   6.846   1.411   1.798  0.1924 -0.3587 -0.4992
 6997TIP3    H142626   6.826   1.442   1.886  2.3143  2.3969 -0.8371
 6997TIP3    H242627   6.813   1.321   1.795  0.1208 -0.5646  3.0855
 6998TIP3   OH242628   2.281   6.649   7.199 -0.3905 -0.3996  0.1289
 6998TIP3    H142629   2.291   6.563   7.241  0.3466  0.3814  1.6610
 6998TIP3    H242630   2.273   6.710   7.273  3.0872  1.3321 -0.7060
 6999TIP3   OH242631   5.118   3.927   1.322  0.2384  0.3686 -0.3240
 6999TIP3    H142632   5.213   3.932   1.324  0.2389  1.1461 -1.3673
 6999TIP3    H242633   5.093   3.970   1.240 -0.9944 -0.0615 -0.2011
 7000TIP3   OH242634   2.845   0.454   2.221  0.2098 -0.0299  0.0670
 7000TIP3    H142635   2.867   0.505   2.299 -0.5613  0.6963 -0.1817
 7000TIP3    H242636   2.858   0.363   2.248 -1.3699  0.1165  1.4864
 7001TIP3   OH242637   1.922   2.787   1.202  0.5306  0.3028 -0.0376
 7001TIP3    H142638   1.951   2.714   1.258  0.8575  0.1018 -0.4591
 7001TIP3    H242639   1.956   2.764   1.115 -0.0486  0.5670 -0.3337
 7002TIP3   OH242640   1.979   5.706   8.691 -0.1098 -0.6865  0.6591
 7002TIP3    H142641   1.968   5.801   8.693 -1.0605 -0.7752  0.3657
 7002TIP3    H242642   2.035   5.690   8.615 -1.8645 -0.4916 -0.7616
 7003TIP3   OH242643   6.011   2.416   8.775 -0.4132 -0.2578 -0.4203
 7003TIP3    H142644   5.975   2.381   8.856 -0.8493 -0.3550 -0.6524
 7003TIP3    H242645   6.082   2.356   8.753 -1.3925 -1.2417 -1.0118
 7004TIP3   OH242646   1.318   1.186   1.370 -0.0292  0.3180 -0.0391
 7004TIP3    H142647   1.260   1.174   1.444  0.9717 -1.3858  0.5194
 7004TIP3    H242648   1.402   1.148   1.398 -0.0800 -1.9623 -2.6003
 7005TIP3   OH242649   6.352   6.266   2.452 -0.0131 -0.3927  0.7155
 7005TIP3    H142650   6.389   6.178   2.447 -0.4785 -0.6343  1.3957
 7005TIP3    H242651   6.404   6.310   2.519 -1.9287 -1.2499  2.8862
 7006TIP3   OH242652   3.743   6.258   6.933 -0.4121 -0.2001 -0.2937
 7006TIP3    H142653   3.764   6.167   6.953 -1.9229 -1.3781 -3.5197
 7006TIP3    H242654   3.649   6.266   6.950 -0.3553  0.6727 -0.3360
 7007TIP3   OH242655   4.011   3.052   7.309 -0.3323  0.1527 -0.1066
 7007TIP3    H142656   4.012   3.099   7.393  0.0323  1.7631 -0.9797
 7007TIP3    H242657   3.953   3.103   7.253  0.8803  0.1679 -1.4076
 7008TIP3   OH242658   1.261   5.539   1.834  0.1623  0.0071  0.1802
 7008TIP3    H142659   1.353   5.519   1.850  0.5049  1.3147 -0.0843
 7008TIP3    H242660   1.216   5.455   1.845  1.0950 -0.2531  2.4574
 7009TIP3   OH242661   0.671   5.493   0.910  0.5443 -0.0013  0.4267
 7009TIP3    H142662   0.701   5.584   0.915  0.5746  0.1180 -1.3803
 7009TIP3    H242663   0.578   5.499   0.888  0.5660 -0.4102  0.2112
 7010TIP3   OH242664   4.549   3.087   2.155 -0.2733 -0.4419 -0.4331
 7010TIP3    H142665   4.469   3.097   2.104 -2.6766 -1.3845  2.8626
 7010TIP3    H242666   4.558   3.168   2.203  1.6537  0.2128 -1.7685
 7011TIP3   OH242667   5.313   1.339   1.712 -0.2271  0.4064 -0.1711
 7011TIP3    H142668   5.288   1.430   1.699 -1.5069  0.0003 -0.7513
 7011TIP3    H242669   5.236   1.289   1.684 -0.0672 -0.8135  1.4140
 7012TIP3   OH242670   3.700   3.914   1.948  0.4294 -0.2232  0.0980
 7012TIP3    H142671   3.748   3.883   2.026 -1.6665 -2.8640  0.4840
 7012TIP3    H242672   3.707   3.842   1.886 -0.8993  0.3670 -0.7725
 7013TIP3   OH242673   1.472   4.855   7.308 -0.0764 -0.5615 -0.4771
 7013TIP3    H142674   1.407   4.785   7.306  0.1346 -0.7703 -0.1475
 7013TIP3    H242675   1.434   4.924   7.254 -0.5729 -0.6783 -0.2827
 7014TIP3   OH242676   2.785   2.904   2.530 -0.3595 -0.0081 -0.2203
 7014TIP3    H142677   2.725   2.883   2.459 -1.1073 -0.0932  0.4199
 7014TIP3    H242678   2.732   2.895   2.609  0.3504  0.4765  0.3212
 7015TIP3   OH242679   2.241   5.690   8.136  0.1123 -0.2610 -0.1329
 7015TIP3    H142680   2.323   5.717   8.095  0.4868 -0.6331  0.3511
 7015TIP3    H242681   2.266   5.616   8.192 -0.7218 -0.9940 -0.7092
 7016TIP3   OH242682   0.859   1.117   1.516  0.2135 -0.1125  0.5085
 7016TIP3    H142683   0.934   1.165   1.481  0.0061 -0.3974 -0.3531
 7016TIP3    H242684   0.820   1.074   1.440 -1.4798  0.9084  0.7485
 7017TIP3   OH242685   3.380   2.312   0.826  0.1337  0.5937  0.2084
 7017TIP3    H142686   3.366   2.221   0.851 -1.2139  0.4420 -1.0073
 7017TIP3    H242687   3.333   2.362   0.893 -0.4341  0.3353  0.0078
 7018TIP3   OH242688   3.787   2.192   1.539  0.3363 -0.3205  0.9664
 7018TIP3    H142689   3.776   2.257   1.609  2.0269 -1.3512  2.2745
 7018TIP3    H242690   3.861   2.225   1.488  0.2333 -0.4721  0.7162
 7019TIP3   OH242691   6.772   2.983   8.484 -0.8526  0.2491  0.4723
 7019TIP3    H142692   6.692   3.033   8.464 -1.1869 -0.8894 -1.3352
 7019TIP3    H242693   6.775   2.916   8.416  0.6778 -0.9002  1.6101
 7020TIP3   OH242694   6.303   4.880   0.059 -0.0537  0.2287  0.2638
 7020TIP3    H142695   6.276   4.827  -0.015 -1.9513  0.6329  0.6128
 7020TIP3    H242696   6.306   4.969   0.025 -0.8551  0.4045  0.6224
 7021TIP3   OH242697   4.564   3.942   8.637 -0.4687 -0.1171 -0.2635
 7021TIP3    H142698   4.610   3.939   8.721  0.2537 -0.0387 -0.6439
 7021TIP3    H242699   4.483   3.894   8.652 -0.1195 -0.5346  0.3427
 7022TIP3   OH242700   5.436   0.567   7.274  0.1599 -0.1123 -0.1554
 7022TIP3    H142701   5.516   0.546   7.322 -0.8777 -1.3953  1.1117
 7022TIP3    H242702   5.375   0.599   7.342 -0.9229 -0.7219 -0.8160
 7023TIP3   OH242703   5.074   3.584   0.802 -0.2109  0.0112 -1.0774
 7023TIP3    H142704   5.061   3.592   0.896  0.1562  0.9919 -1.0982
 7023TIP3    H242705   5.001   3.631   0.763 -0.9198 -1.2306 -1.3196
 7024TIP3   OH242706   5.543   5.314   1.693  0.1153 -0.0820 -0.5606
 7024TIP3    H142707   5.621   5.259   1.698  1.5689  1.9481  0.4602
 7024TIP3    H242708   5.573   5.401   1.716 -2.4870  0.7903 -0.0682
 7025TIP3   OH242709   6.336   2.250   0.505  0.0009 -0.4478 -0.1482
 7025TIP3    H142710   6.381   2.320   0.553 -0.7406  0.4735 -0.7583
 7025TIP3    H242711   6.364   2.170   0.549 -0.1806  0.3164  1.4494
 7026TIP3   OH242712   3.221   0.822   0.120  0.2914  0.0550  0.2522
 7026TIP3    H142713   3.228   0.735   0.159 -0.3535 -0.5442 -0.9343
 7026TIP3    H242714   3.226   0.807   0.026  1.1658  1.4158  0.0554
 7027TIP3   OH242715   5.721   2.991   0.775 -0.1464 -0.0385  0.4669
 7027TIP3    H142716   5.772   3.070   0.793 -1.4398  0.9233  0.0152
 7027TIP3    H242717   5.739   2.970   0.683  2.1684 -1.7926  1.2082
 7028TIP3   OH242718   2.965   0.385   8.004 -0.1465  0.2929  0.1154
 7028TIP3    H142719   3.052   0.346   7.997 -0.6010 -0.7753  0.2724
 7028TIP3    H242720   2.938   0.401   7.914  0.0738  0.3313  0.0555
 7029TIP3   OH242721   0.051   1.795   2.088 -0.3060  0.0037 -0.6397
 7029TIP3    H142722  -0.043   1.817   2.088 -0.4644 -0.6494 -1.7349
 7029TIP3    H242723   0.073   1.790   2.181 -1.5339 -0.5673 -0.3532
 7030TIP3   OH242724   6.365   0.273   7.981 -0.2309  0.3677 -0.0412
 7030TIP3    H142725   6.398   0.281   7.891 -0.2015  2.3073  0.0960
 7030TIP3    H242726   6.270   0.268   7.970 -0.2406  0.7871 -0.1906
 7031TIP3   OH242727   3.897   2.193   7.431  0.3244  0.2027 -0.1048
 7031TIP3    H142728   3.802   2.200   7.439  0.2420  1.0195 -1.4529
 7031TIP3    H242729   3.911   2.103   7.400 -0.0217  0.1403 -0.0856
 7032TIP3   OH242730   1.993   0.049   0.012  1.2181  0.1231 -0.2174
 7032TIP3    H142731   1.990  -0.047   0.008 -0.0660  0.1563 -0.5817
 7032TIP3    H242732   1.971   0.078  -0.076  0.4528  0.7499  0.1601
 7033TIP3   OH242733   0.687   2.949   0.216  0.1219  0.2589  0.2771
 7033TIP3    H142734   0.779   2.949   0.190 -0.4383  0.2623 -1.8364
 7033TIP3    H242735   0.688   2.910   0.304  2.2058  1.0390  0.6802
 7034TIP3   OH242736   4.569   3.204   7.259 -0.5475 -0.0561  0.4097
 7034TIP3    H142737   4.599   3.294   7.264 -0.7671 -0.0185  1.1654
 7034TIP3    H242738   4.624   3.164   7.191  1.4718 -0.0996  1.9996
 7035TIP3   OH242739   3.146   0.702   6.561 -0.5187 -0.0772  0.2423
 7035TIP3    H142740   3.158   0.631   6.498  0.2277  0.9998 -0.8942
 7035TIP3    H242741   3.052   0.715   6.566 -0.5840 -0.1459 -0.7113
 7036TIP3   OH242742   0.306   3.537   1.162 -0.1608 -0.5040 -0.2971
 7036TIP3    H142743   0.215   3.510   1.156  0.0876 -1.2506 -0.8923
 7036TIP3    H242744   0.348   3.470   1.216  0.2753 -0.8204 -1.0187
 7037TIP3   OH242745   1.838   1.612   7.983  0.4102 -0.2482 -0.5580
 7037TIP3    H142746   1.880   1.529   8.006  3.0686  1.4381  1.2559
 7037TIP3    H242747   1.752   1.607   8.023  0.9605 -1.6818  0.5522
 7038TIP3   OH242748   6.684   5.716   2.809  0.2182 -0.4992  0.1125
 7038TIP3    H142749   6.640   5.798   2.788  0.1462 -0.9143 -1.5079
 7038TIP3    H242750   6.670   5.661   2.732  1.9991 -1.3150  0.3172
 7039TIP3   OH242751   3.177   4.301   1.873  0.5049  0.0003 -0.2814
 7039TIP3    H142752   3.227   4.362   1.927  0.1130 -0.4822  0.6625
 7039TIP3    H242753   3.172   4.221   1.925  0.3840 -0.5964 -1.1822
 7040TIP3   OH242754   1.990   0.493   1.555  0.4324 -0.0048  0.6840
 7040TIP3    H142755   1.952   0.526   1.473  1.7001  1.2743  0.5774
 7040TIP3    H242756   1.948   0.546   1.623  0.1931 -0.3087  0.7740
 7041TIP3   OH242757   6.130   0.819   8.491 -0.5848 -0.0385  0.4605
 7041TIP3    H142758   6.132   0.860   8.577 -0.3290  1.5350 -0.2551
 7041TIP3    H242759   6.181   0.738   8.501 -0.8782 -0.0685  1.8588
 7042TIP3   OH242760   1.009   1.774   8.258  0.6915  0.2066 -0.0798
 7042TIP3    H142761   1.047   1.797   8.173  1.6940 -1.2147 -0.0599
 7042TIP3    H242762   1.067   1.705   8.292 -1.8449 -2.0331  0.0210
 7043TIP3   OH242763   2.193   6.011   0.624 -0.3304 -0.0730  0.5381
 7043TIP3    H142764   2.118   5.953   0.612 -1.3240  1.5671 -2.0358
 7043TIP3    H242765   2.163   6.075   0.689 -1.4900  0.9442 -0.9275
 7044TIP3   OH242766   3.912   3.187   1.306 -0.0883 -0.5695  0.4360
 7044TIP3    H142767   3.916   3.117   1.241  1.1661 -0.2456  0.1464
 7044TIP3    H242768   3.889   3.265   1.255  3.0411  0.1400 -0.0613
 7045TIP3   OH242769   3.985   5.640   0.319  0.4086  0.2238 -0.2639
 7045TIP3    H142770   3.964   5.661   0.410  0.9406  1.7484 -0.4699
 7045TIP3    H242771   4.071   5.600   0.323  1.7620  2.9234 -0.3066
 7046TIP3   OH242772   1.166   3.248   1.146  0.7486 -0.0144 -0.0119
 7046TIP3    H142773   1.261   3.250   1.133  0.9042  1.1434  1.1249
 7046TIP3    H242774   1.138   3.169   1.099  1.7956  1.3801 -3.3110
 7047TIP3   OH242775   0.189   0.067   2.627 -0.2039 -0.5003 -0.5898
 7047TIP3    H142776   0.263   0.126   2.608 -0.1439 -0.4276 -0.1305
 7047TIP3    H242777   0.112   0.115   2.596 -0.3053  0.3976  0.9420
 7048TIP3   OH242778   3.463   3.071   0.423 -0.6671  0.4216 -0.3299
 7048TIP3    H142779   3.522   3.147   0.421 -1.6422  1.2098 -2.9593
 7048TIP3    H242780   3.389   3.101   0.476  0.1080  0.3100  0.8708
 7049TIP3   OH242781   6.476   3.705   1.916  0.0506  0.0068  0.5515
 7049TIP3    H142782   6.564   3.678   1.944  0.8155  0.6817 -1.0951
 7049TIP3    H242783   6.423   3.626   1.925  1.4427 -1.1563 -0.9209
 7050TIP3   OH242784   1.781   2.208   7.003 -0.0319 -0.7538 -0.2948
 7050TIP3    H142785   1.781   2.291   6.954  0.8358 -0.3256  0.4024
 7050TIP3    H242786   1.813   2.144   6.940  1.8746 -0.0561 -0.0979
 7051TIP3   OH242787   3.151   2.965   0.432  0.0290 -0.5090 -0.7474
 7051TIP3    H142788   3.139   2.878   0.471 -0.4571 -0.5983 -1.0934
 7051TIP3    H242789   3.194   3.016   0.501  0.4996 -1.0744 -0.6060
 7052TIP3   OH242790   5.911   4.270   2.215 -0.5582  0.3758 -0.2462
 7052TIP3    H142791   5.999   4.251   2.181  0.1246  1.4739  0.8412
 7052TIP3    H242792   5.890   4.195   2.270  0.1130  0.5375  0.2443
 7053TIP3   OH242793   6.412   6.738   0.726 -0.3371  0.0864 -0.1115
 7053TIP3    H142794   6.382   6.769   0.812  1.5821 -0.9457  1.0142
 7053TIP3    H242795   6.483   6.677   0.747 -1.8687 -2.6498 -2.2972
 7054TIP3   OH242796   4.690   3.777   0.159  0.2782 -0.5192 -0.5477
 7054TIP3    H142797   4.670   3.684   0.155  0.3250 -0.4723 -2.1200
 7054TIP3    H242798   4.777   3.786   0.120 -0.7843  0.4537 -2.8856
 7055TIP3   OH242799   4.072   6.085   6.366  0.2743 -0.4618 -0.1909
 7055TIP3    H142800   4.165   6.088   6.391  1.3403 -0.6735 -3.6290
 7055TIP3    H242801   4.049   5.993   6.370  1.4172 -0.9514 -2.8131
 7056TIP3   OH242802   0.181   1.099   1.292  0.7281 -0.4345 -0.8672
 7056TIP3    H142803   0.208   1.166   1.355  3.3165 -1.4192 -0.7909
 7056TIP3    H242804   0.119   1.044   1.340 -0.9953  1.4687 -0.7515
 7057TIP3   OH242805   3.562   6.272   0.491 -0.0803 -0.1203  0.1216
 7057TIP3    H142806   3.510   6.324   0.552 -1.0244 -0.3119 -0.5094
 7057TIP3    H242807   3.557   6.183   0.525 -0.2232 -0.1515  0.0169
 7058TIP3   OH242808   3.485   1.557   8.037  0.0032 -0.5061  0.5971
 7058TIP3    H142809   3.395   1.544   8.006  0.4590 -0.2533 -0.8735
 7058TIP3    H242810   3.481   1.636   8.090 -0.8105 -1.0020  1.3036
 7059TIP3   OH242811   3.269   4.367   1.192 -0.1691  0.0312  0.2404
 7059TIP3    H142812   3.350   4.335   1.232 -0.2897 -1.4826 -0.6350
 7059TIP3    H242813   3.298   4.409   1.110 -0.0743  1.6554  1.0748
 7060TIP3   OH242814   1.962   0.451   0.994 -0.0082 -0.3219 -0.7104
 7060TIP3    H142815   1.949   0.439   0.900 -0.6907  0.4631 -0.7289
 7060TIP3    H242816   1.884   0.413   1.034  0.6429 -1.3611 -0.4044
 7061TIP3   OH242817   1.571   3.004   6.803  0.0998  0.2098  0.0612
 7061TIP3    H142818   1.608   3.083   6.841 -0.3854  1.1169 -1.2961
 7061TIP3    H242819   1.477   3.020   6.799  0.0197 -0.3256 -0.4541
 7062TIP3   OH242820   0.902   0.713   6.300  0.3003 -0.8188  0.1124
 7062TIP3    H142821   0.879   0.626   6.266  1.5132 -0.7379 -1.0158
 7062TIP3    H242822   0.819   0.760   6.305 -0.2379 -1.7043 -0.2853
 7063TIP3   OH242823   0.307   4.055   7.729  0.0970 -0.5473 -0.4048
 7063TIP3    H142824   0.219   4.048   7.693 -0.3001  0.5742  0.2972
 7063TIP3    H242825   0.294   4.069   7.823  1.0622 -1.5724 -0.0841
 7064TIP3   OH242826   0.032   2.214   1.263 -0.6510  0.1646  0.5960
 7064TIP3    H142827   0.030   2.297   1.312  0.2069  0.3548  0.3207
 7064TIP3    H242828   0.084   2.155   1.317 -0.3488  0.1420  0.2861
 7065TIP3   OH242829   3.861   1.489   8.274  0.0276 -0.0556  0.3947
 7065TIP3    H142830   3.777   1.482   8.318 -0.2688 -0.3054 -0.2023
 7065TIP3    H242831   3.846   1.452   8.187  1.0092 -1.0842  0.6341
 7066TIP3   OH242832   1.211   2.343   8.144  0.6605 -0.3265  0.0165
 7066TIP3    H142833   1.274   2.309   8.080  2.0597 -0.0779  1.2237
 7066TIP3    H242834   1.181   2.265   8.191 -0.2976 -0.4981 -0.8535
 7067TIP3   OH242835   2.159   0.411   2.207 -0.1703 -0.0666 -0.0197
 7067TIP3    H142836   2.106   0.354   2.261  0.6311 -2.4496 -1.6082
 7067TIP3    H242837   2.205   0.468   2.269  0.1140 -2.1339  1.7648
 7068TIP3   OH242838   3.667   3.059   1.394  0.3066  0.0603  0.4460
 7068TIP3    H142839   3.598   3.056   1.327 -2.5755  4.5566  2.7090
 7068TIP3    H242840   3.745   3.088   1.347 -0.8143  0.2080 -1.4118
 7069TIP3   OH242841   4.481   6.748   1.262 -0.2954  0.0864  0.4183
 7069TIP3    H142842   4.464   6.713   1.175 -1.7341  2.5658 -0.3889
 7069TIP3    H242843   4.424   6.698   1.321 -1.6326  0.4458 -0.5467
 7070TIP3   OH242844   2.394   2.270   6.531 -0.1283 -0.2305 -0.4361
 7070TIP3    H142845   2.475   2.244   6.576 -1.0551 -1.7061  0.4541
 7070TIP3    H242846   2.399   2.365   6.526  1.3329 -0.2450  0.2529
 7071TIP3   OH242847   1.151   3.738   6.785  0.1529  0.1388  0.2871
 7071TIP3    H142848   1.141   3.648   6.815  1.0938  0.5316  1.8958
 7071TIP3    H242849   1.244   3.757   6.797  0.2343  0.9082 -1.3126
 7072TIP3   OH242850   3.628   0.408   7.955 -0.4971  0.6791  0.1053
 7072TIP3    H142851   3.685   0.484   7.950  0.4996 -0.0452  0.2036
 7072TIP3    H242852   3.668   0.352   8.021 -0.7340 -0.3244 -0.5755
 7073TIP3   OH242853   5.575   1.204   7.371 -0.4413  0.2017  0.3251
 7073TIP3    H142854   5.594   1.234   7.282 -2.1354  0.5745  0.0498
 7073TIP3    H242855   5.620   1.120   7.378 -1.0399 -0.2905 -1.2341
 7074TIP3   OH242856   6.759   3.404   1.754 -0.8273  0.2516  0.4013
 7074TIP3    H142857   6.748   3.456   1.834 -0.0070 -2.0438  2.1200
 7074TIP3    H242858   6.854   3.407   1.737 -1.0132  0.8531 -0.6337
 7075TIP3   OH242859   0.224   2.854   8.280 -0.0326  0.1239  0.4748
 7075TIP3    H142860   0.136   2.824   8.258 -0.6905  1.5926  0.9858
 7075TIP3    H242861   0.211   2.914   8.354  0.9769  2.8354 -1.3982
 7076TIP3   OH242862   0.202   0.680   0.731  0.4699 -0.0248  0.9198
 7076TIP3    H142863   0.119   0.640   0.708  0.5697 -0.6023  1.5246
 7076TIP3    H242864   0.185   0.775   0.730 -0.2021 -0.1409  1.0699
 7077TIP3   OH242865   1.448   0.226   0.341  0.0974 -0.1615  0.7357
 7077TIP3    H142866   1.498   0.272   0.274  0.0380 -0.7468  0.2840
 7077TIP3    H242867   1.507   0.218   0.415  0.2066  0.3760  0.7077
 7078TIP3   OH242868   4.835   4.324   1.414  0.1610 -0.1705  0.6906
 7078TIP3    H142869   4.824   4.401   1.470  1.9774  0.1005  0.7303
 7078TIP3    H242870   4.928   4.321   1.395 -0.1810 -1.1587 -1.0708
 7079TIP3   OH242871   4.394   2.863   6.715  0.2996  0.7151  0.5177
 7079TIP3    H142872   4.401   2.769   6.697  1.2640  0.9175 -0.2265
 7079TIP3    H242873   4.310   2.872   6.761  0.1278 -0.4853  0.4803
 7080TIP3   OH242874   5.090   1.880   0.693  0.1921 -0.0551  0.0628
 7080TIP3    H142875   5.005   1.924   0.687  0.3883  0.4475  0.8234
 7080TIP3    H242876   5.082   1.805   0.635 -0.1615  0.9758 -1.2841
 7081TIP3   OH242877   4.656   3.003   1.672 -0.6522  0.3684 -0.6517
 7081TIP3    H142878   4.613   2.943   1.732  0.4842  0.3405  0.1620
 7081TIP3    H242879   4.687   2.948   1.600  1.5460 -0.3035  0.7174
 7082TIP3   OH242880   5.606   0.838   0.508  0.7024  0.1231 -0.4097
 7082TIP3    H142881   5.600   0.782   0.431 -0.5397 -0.9930  0.4646
 7082TIP3    H242882   5.624   0.778   0.580 -1.2186  0.7481  0.6508
 7083TIP3   OH242883   0.469   4.859   8.782 -0.0920 -0.1468 -0.3854
 7083TIP3    H142884   0.454   4.859   8.876  0.0733 -0.4910 -0.3600
 7083TIP3    H242885   0.561   4.835   8.771 -0.0055  0.2816 -0.6179
 7084TIP3   OH242886   3.096   1.987   6.845  0.1911 -0.3064  0.4243
 7084TIP3    H142887   3.057   1.904   6.819  1.9515 -1.3392  0.8724
 7084TIP3    H242888   3.144   2.017   6.767 -0.5261  0.3818  0.2271
 7085TIP3   OH242889   1.434   3.316   1.618  0.2740 -0.5435 -0.4411
 7085TIP3    H142890   1.448   3.307   1.524  0.9297 -0.1806 -0.3833
 7085TIP3    H242891   1.491   3.249   1.657  0.4584 -0.3002 -0.2836
 7086TIP3   OH242892   0.285   1.272   1.823  0.6368 -0.1427  0.4327
 7086TIP3    H142893   0.203   1.312   1.853  1.9807  3.4615 -0.1825
 7086TIP3    H242894   0.339   1.267   1.902 -0.2068 -2.8620  0.9101
 7087TIP3   OH242895   6.696   5.820   7.015  0.4860 -0.1557 -0.4138
 7087TIP3    H142896   6.731   5.787   6.932 -1.4455 -0.5688 -1.1174
 7087TIP3    H242897   6.607   5.847   6.994  0.9300  2.5965  0.8853
 7088TIP3   OH242898   1.048   4.586   0.699  0.0420  0.0728  0.1299
 7088TIP3    H142899   0.994   4.520   0.655 -2.8835  0.3056  3.0040
 7088TIP3    H242900   1.124   4.538   0.731 -0.3344 -1.1412 -0.7083
 7089TIP3   OH242901   1.748   5.039   6.815 -0.1781  0.1396  0.1479
 7089TIP3    H142902   1.748   5.021   6.721  3.5037 -0.3705  0.0944
 7089TIP3    H242903   1.724   4.955   6.855  0.7102 -0.3698 -0.3437
 7090TIP3   OH242904   2.550   5.569   8.531 -0.3208  0.5069 -0.5277
 7090TIP3    H142905   2.641   5.597   8.541 -0.2784 -0.2418  1.9710
 7090TIP3    H242906   2.545   5.487   8.580 -2.8151  1.6892  1.4678
 7091TIP3   OH242907   6.726   5.434   1.056  0.5094  0.5223  0.6297
 7091TIP3    H142908   6.737   5.340   1.044  0.3281  0.4317  1.1446
 7091TIP3    H242909   6.689   5.443   1.144 -0.9061  0.9906  0.0106
 7092TIP3   OH242910   0.727   2.990   1.741 -0.4143  0.1823 -0.0160
 7092TIP3    H142911   0.809   2.946   1.721  0.0456  0.8512  0.3740
 7092TIP3    H242912   0.722   2.991   1.837 -0.1244  1.4673  0.0123
 7093TIP3   OH242913   1.819   1.997   0.966  0.2957 -1.0492  0.0472
 7093TIP3    H142914   1.832   2.061   1.037  0.8408 -0.8338 -0.2379
 7093TIP3    H242915   1.895   1.939   0.973  0.8703 -0.4517 -0.9470
 7094TIP3   OH242916   6.448   3.855   0.675 -0.6959 -0.2944  0.1559
 7094TIP3    H142917   6.362   3.899   0.670  0.0427  1.2508  0.4674
 7094TIP3    H242918   6.434   3.771   0.630 -2.1036  0.3605 -0.7153
 7095TIP3   OH242919   4.508   3.747   7.983 -0.8055  0.5597  0.3538
 7095TIP3    H142920   4.483   3.764   8.074  0.0619  0.5807  0.6044
 7095TIP3    H242921   4.438   3.693   7.948 -0.2669 -1.0381  1.6043
 7096TIP3   OH242922   3.279   4.030   0.166 -0.4693 -0.2538  0.7445
 7096TIP3    H142923   3.371   4.039   0.192 -0.6744  0.9233  1.1208
 7096TIP3    H242924   3.281   3.970   0.092  0.7312  0.6397  0.0225
 7097TIP3   OH242925   3.294   4.184   2.281  0.3665 -0.1227  0.0058
 7097TIP3    H142926   3.349   4.114   2.246  0.2811  0.8703 -2.2568
 7097TIP3    H242927   3.326   4.264   2.239 -0.0527  1.1262  1.9131
 7098TIP3   OH242928   0.621   2.224   7.700  0.1276  0.1657 -0.2273
 7098TIP3    H142929   0.694   2.273   7.737 -0.0757  0.7308 -0.5581
 7098TIP3    H242930   0.661   2.146   7.661  0.1404 -1.8222  3.2706
 7099TIP3   OH242931   0.067   4.804   7.876  0.1079  0.5855  0.3630
 7099TIP3    H142932   0.035   4.769   7.960  1.1371 -1.4228 -0.0207
 7099TIP3    H242933   0.027   4.748   7.810  2.7687 -0.7746 -0.2227
 7100TIP3   OH242934   6.122   5.871   8.124 -0.0757 -0.3393 -0.1349
 7100TIP3    H142935   6.110   5.830   8.038  2.6415 -1.1697 -0.2149
 7100TIP3    H242936   6.206   5.838   8.155  1.5600  3.8120  0.5557
 7101TIP3   OH242937   5.136   2.973   0.639 -0.0495  0.4715  0.0909
 7101TIP3    H142938   5.142   2.927   0.555  0.5643 -0.7314  0.7749
 7101TIP3    H242939   5.149   3.065   0.617  0.2128  0.1573 -1.1190
 7102TIP3   OH242940   3.676   5.397   6.869 -0.0812 -0.2873 -0.1073
 7102TIP3    H142941   3.695   5.346   6.791 -2.4496 -2.4581  0.6105
 7102TIP3    H242942   3.712   5.345   6.941 -1.0393 -0.1044  0.5146
 7103TIP3   OH242943   3.254   3.090   0.642 -1.0098  0.3380  0.1014
 7103TIP3    H142944   3.182   3.078   0.705 -1.4860 -1.2336 -0.7130
 7103TIP3    H242945   3.328   3.045   0.682 -1.6237 -1.6850 -0.9511
 7104TIP3   OH242946   2.609   4.016   2.246  0.0793  0.5855  1.1734
 7104TIP3    H142947   2.678   4.062   2.293  1.2968  0.5909 -0.5283
 7104TIP3    H242948   2.538   4.080   2.237 -0.6164  0.2838  3.7715
 7105TIP3   OH242949   6.482   5.873   0.249 -0.4460  0.0618 -0.2363
 7105TIP3    H142950   6.409   5.814   0.270 -0.2375 -0.3189 -0.5590
 7105TIP3    H242951   6.468   5.949   0.305  0.0863 -0.9032  1.2897
 7106TIP3   OH242952   5.550   5.726   0.329  0.0022  0.6046  0.2079
 7106TIP3    H142953   5.604   5.656   0.291 -0.7865 -0.5490  1.1349
 7106TIP3    H242954   5.602   5.805   0.316  1.0473 -0.1803 -0.6463
 7107TIP3   OH242955   6.007   2.825   7.163  0.2618  1.1020  0.3137
 7107TIP3    H142956   5.933   2.764   7.157  0.7432  0.6176 -1.6907
 7107TIP3    H242957   6.057   2.794   7.238 -0.9840  0.7613  1.0356
 7108TIP3   OH242958   2.612   3.013   1.865 -0.4055  0.1283  0.1249
 7108TIP3    H142959   2.535   3.054   1.825 -0.2010  0.1067 -0.3061
 7108TIP3    H242960   2.657   2.971   1.791  0.5689  1.0144  0.1748
 7109TIP3   OH242961   3.859   1.485   2.752 -0.5212  0.3659 -0.1102
 7109TIP3    H142962   3.916   1.541   2.698 -0.2073  0.8509  0.6948
 7109TIP3    H242963   3.817   1.426   2.690  0.3362  0.4653 -0.8056
 7110TIP3   OH242964   0.420   2.573   2.602  0.2559  0.7530 -0.1947
 7110TIP3    H142965   0.381   2.558   2.516 -0.3642  1.7490 -0.1062
 7110TIP3    H242966   0.346   2.571   2.663  0.4103  1.9109  0.0641
 7111TIP3   OH242967   1.177   6.377   1.093 -0.4280 -0.2982  0.0311
 7111TIP3    H142968   1.219   6.379   1.007  0.5444  0.5381  0.5074
 7111TIP3    H242969   1.200   6.461   1.133  0.2801 -1.2115  1.6271
 7112TIP3   OH242970   1.962   6.631   6.479  0.2648 -0.4958  0.0592
 7112TIP3    H142971   1.887   6.577   6.452 -0.2102 -0.2177  0.7787
 7112TIP3    H242972   2.021   6.570   6.522  0.4314 -0.7104 -0.4738
 7113TIP3   OH242973   5.780   0.442   7.187 -0.4726  0.1695 -0.2035
 7113TIP3    H142974   5.875   0.457   7.187 -0.2126 -1.3179  0.2308
 7113TIP3    H242975   5.754   0.456   7.278 -0.5471 -0.0875 -0.1843
 7114TIP3   OH242976   2.653   4.528   7.251  0.0583  0.1929  0.6127
 7114TIP3    H142977   2.664   4.449   7.197 -2.6167 -0.0559  0.2715
 7114TIP3    H242978   2.675   4.600   7.193  2.7573 -0.2002  0.9882
 7115TIP3   OH242979   1.509   1.360   7.465  0.1180  0.0657 -0.7294
 7115TIP3    H142980   1.423   1.401   7.454  0.5732  1.1597 -0.3905
 7115TIP3    H242981   1.524   1.312   7.383 -0.9650 -0.4421 -0.6382
 7116TIP3   OH242982   1.534   4.758   1.468  0.3937  0.3922 -0.2621
 7116TIP3    H142983   1.525   4.672   1.427 -0.1259  0.5592 -0.5058
 7116TIP3    H242984   1.622   4.758   1.506  0.5021 -0.1366 -0.5134
 7117TIP3   OH242985   3.636   4.047   1.026  0.8601  0.5457 -0.5997
 7117TIP3    H142986   3.567   3.996   0.982  1.4243  1.6697 -2.9905
 7117TIP3    H242987   3.654   3.999   1.107 -1.3797 -0.8188 -0.8132
 7118TIP3   OH242988   0.538   6.787   8.138  0.1015  0.0971  0.7159
 7118TIP3    H142989   0.453   6.830   8.145  0.2000  0.3102  0.5953
 7118TIP3    H242990   0.588   6.822   8.211 -0.1700 -0.6138  1.2583
 7119TIP3   OH242991   4.233   5.321   7.641 -0.0712 -0.3016  0.6461
 7119TIP3    H142992   4.201   5.395   7.693 -0.5421 -2.1031  3.0613
 7119TIP3    H242993   4.166   5.254   7.651  0.4867 -1.2139 -1.2531
 7120TIP3   OH242994   5.686   0.738   7.559  0.7654  0.0474 -0.0479
 7120TIP3    H142995   5.740   0.716   7.635 -0.5367  0.5568  1.0814
 7120TIP3    H242996   5.597   0.713   7.586  0.1059  1.3345 -0.9561
 7121TIP3   OH242997   6.725   1.390   2.056  0.1042  0.1867 -0.0860
 7121TIP3    H142998   6.791   1.384   2.124  0.0752  1.3493  0.0772
 7121TIP3    H242999   6.673   1.310   2.064  0.2059  0.2376  1.1435
 7122TIP3   OH243000   6.843   6.751   8.347 -0.5727  0.0293 -0.9225
 7122TIP3    H143001   6.891   6.752   8.429  1.2523 -0.1090 -1.9260
 7122TIP3    H243002   6.851   6.661   8.315 -1.3029  0.0662 -1.2426
 7123TIP3   OH243003   0.100   0.313   6.388  0.4357  0.0751  0.6952
 7123TIP3    H143004   0.025   0.325   6.446  0.0339  0.9472  0.0063
 7123TIP3    H243005   0.104   0.218   6.375 -0.9224  0.0504  0.2657
 7124TIP3   OH243006   2.964   4.300   1.684 -1.0393 -0.2848  0.0897
 7124TIP3    H143007   2.930   4.387   1.664 -0.6194 -0.0212  0.4866
 7124TIP3    H243008   3.032   4.316   1.750 -1.1668 -0.9462  0.3837
 7125TIP3   OH243009   0.848   5.953   2.713  0.0258  0.6195 -0.1207
 7125TIP3    H143010   0.831   5.889   2.644  0.3749 -0.0431  0.3944
 7125TIP3    H243011   0.767   5.955   2.764 -0.9173  2.4464 -1.5581
 7126TIP3   OH243012   6.786   2.967   7.838 -0.1011 -0.4534 -0.5983
 7126TIP3    H143013   6.752   3.008   7.918  0.8736 -1.0753  0.1583
 7126TIP3    H243014   6.711   2.919   7.803 -0.6501  0.1438 -0.2762
 7127TIP3   OH243015   0.323   3.773   0.638 -0.1727 -0.2708  0.5280
 7127TIP3    H143016   0.376   3.780   0.559 -1.7921 -1.0502 -0.6745
 7127TIP3    H243017   0.380   3.726   0.700  0.4575 -1.3705 -0.8196
 7128TIP3   OH243018   3.229   2.876   0.908 -0.0504 -0.0990 -0.7585
 7128TIP3    H143019   3.294   2.808   0.892 -2.0234 -2.1294 -0.5090
 7128TIP3    H243020   3.170   2.872   0.833 -2.8110 -1.9196  1.2849
 7129TIP3   OH243021   1.990   1.874   0.068 -1.0403  0.1802  0.0803
 7129TIP3    H143022   2.039   1.954   0.086 -0.1447 -0.4287  0.4170
 7129TIP3    H243023   2.025   1.843  -0.016 -1.3014  0.0761  0.0085
 7130TIP3   OH243024   6.843   3.858   6.774  0.1116 -0.6189 -0.3355
 7130TIP3    H143025   6.751   3.863   6.750  0.4173  0.3786 -1.3916
 7130TIP3    H243026   6.851   3.911   6.853 -0.1478 -0.3780 -0.4698
 7131TIP3   OH243027   2.625   3.341   1.337 -0.2292  0.3729 -0.2294
 7131TIP3    H143028   2.569   3.290   1.396  0.9351  1.5725  2.0494
 7131TIP3    H243029   2.609   3.432   1.362  0.0576  0.9551 -2.0556
 7132TIP3   OH243030   5.433   2.315   0.108 -0.0256  0.0308  0.3658
 7132TIP3    H143031   5.500   2.382   0.094  3.9126 -3.3788  0.9803
 7132TIP3    H243032   5.426   2.271   0.023 -1.1833  0.0005  0.4598
 7133TIP3   OH243033   0.235   5.299   6.561 -0.0926 -0.4215 -0.4557
 7133TIP3    H143034   0.289   5.376   6.576 -0.1559 -0.3715 -0.4810
 7133TIP3    H243035   0.280   5.251   6.492 -1.3445  0.8833 -2.3092
 7134TIP3   OH243036   3.565   0.807   0.222  0.1426  0.2399  0.2759
 7134TIP3    H143037   3.548   0.870   0.292  0.6323 -1.2235  1.7843
 7134TIP3    H243038   3.604   0.859   0.152 -0.3944  1.7666  1.0611
 7135TIP3   OH243039   5.061   0.449   6.987  0.3242  0.2060  0.6282
 7135TIP3    H143040   5.068   0.354   6.978  0.6700  0.3425 -0.7970
 7135TIP3    H243041   5.151   0.481   6.978  0.1500  0.7031  0.5965
 7136TIP3   OH243042   3.460   5.487   1.468  0.4073 -0.0575  0.1479
 7136TIP3    H143043   3.474   5.408   1.415  1.2096 -0.7244  1.2982
 7136TIP3    H243044   3.443   5.453   1.556 -1.3586  1.0096  0.2479
 7137TIP3   OH243045   6.368   4.855   1.770 -0.0105  0.0385  0.2633
 7137TIP3    H143046   6.388   4.934   1.720 -1.9873 -0.3553 -1.2725
 7137TIP3    H243047   6.289   4.820   1.729  0.7413 -2.7166  0.9225
 7138TIP3   OH243048   1.101   3.478   8.533 -0.4582  0.0742 -0.7178
 7138TIP3    H143049   1.014   3.459   8.569 -0.1973 -2.6014 -1.2922
 7138TIP3    H243050   1.085   3.497   8.441 -0.4293 -0.4026 -0.8199
 7139TIP3   OH243051   0.318   5.554   1.997  0.3078 -0.0440 -0.2097
 7139TIP3    H143052   0.339   5.554   1.903  0.9669 -0.8196 -0.0722
 7139TIP3    H243053   0.344   5.467   2.027  0.3241  0.2875  0.7528
 7140TIP3   OH243054   1.039   2.747   8.618 -0.5916 -0.2314 -0.5500
 7140TIP3    H143055   0.960   2.696   8.598  0.0919 -0.3816 -3.2428
 7140TIP3    H243056   1.111   2.685   8.604  0.0974  0.0183  1.5020
 7141TIP3   OH243057   2.034   2.856   1.927  0.1758 -0.0653 -0.5215
 7141TIP3    H143058   1.942   2.881   1.938  0.3781 -0.1057  1.8976
 7141TIP3    H243059   2.034   2.761   1.936  0.1443 -0.4499 -3.6698
 7142TIP3   OH243060   3.766   4.412   7.454 -0.1044  0.1253 -0.0910
 7142TIP3    H143061   3.854   4.411   7.493  0.2911  0.7334 -0.9506
 7142TIP3    H243062   3.736   4.502   7.467 -0.3995  0.0470 -0.2443
 7143TIP3   OH243063   2.122   1.725   8.197 -0.0147  0.1464 -0.1054
 7143TIP3    H143064   2.047   1.704   8.253  0.5076  0.1434  0.6236
 7143TIP3    H243065   2.093   1.705   8.109 -0.4111 -1.2139  0.3038
 7144TIP3   OH243066   5.956   4.079   0.366  0.0907  0.4630 -0.0945
 7144TIP3    H143067   5.878   4.038   0.328 -0.7936  1.0731  0.9909
 7144TIP3    H243068   5.921   4.139   0.432  1.5275 -0.2077  1.3353
 7145TIP3   OH243069   5.745   1.784   8.319 -0.5973 -0.2077  0.0158
 7145TIP3    H143070   5.774   1.818   8.234 -0.7575  0.8853  0.3842
 7145TIP3    H243071   5.679   1.719   8.297 -0.6669  0.0942 -0.6940
 7146TIP3   OH243072   1.417   5.547   8.183  0.1135  0.2699  0.1222
 7146TIP3    H143073   1.374   5.632   8.173 -0.7007 -0.3592 -2.4197
 7146TIP3    H243074   1.446   5.524   8.095 -0.8299 -2.6394  0.4502
 7147TIP3   OH243075   5.364   3.180   0.506 -0.5323  0.1120  0.4359
 7147TIP3    H143076   5.388   3.115   0.572 -2.6654 -0.7996  0.3885
 7147TIP3    H243077   5.314   3.246   0.555  0.5397  1.0770  0.2575
 7148TIP3   OH243078   3.362   1.710   0.420  0.1018  0.0197  0.6057
 7148TIP3    H143079   3.410   1.644   0.369  0.8585 -0.1910  1.5478
 7148TIP3    H243080   3.416   1.789   0.414 -0.3448  0.3026  0.2242
 7149TIP3   OH243081   2.444   0.762   2.365 -0.3255  0.2956  0.4190
 7149TIP3    H143082   2.470   0.775   2.457 -0.0209 -0.1720  0.4054
 7149TIP3    H243083   2.350   0.747   2.368 -0.3717  0.6252  0.6210
 7150TIP3   OH243084   4.071   5.643   7.981  0.2889 -0.7949 -0.4058
 7150TIP3    H143085   4.141   5.591   8.020  0.2174  0.0841  0.9770
 7150TIP3    H243086   4.049   5.707   8.049 -1.6688 -0.8778 -0.9278
 7151TIP3   OH243087   5.476   6.097   0.511 -0.1225 -0.3353  0.3785
 7151TIP3    H143088   5.445   6.008   0.494  0.9456 -0.6146 -0.1508
 7151TIP3    H243089   5.501   6.130   0.425  0.5434  0.0733  0.7241
 7152TIP3   OH243090   3.982   4.008   7.202  0.1566  0.2978 -0.1345
 7152TIP3    H143091   3.888   4.020   7.217 -0.3230 -0.5841 -2.0935
 7152TIP3    H243092   3.987   3.953   7.124  2.3052 -1.1294  0.9141
 7153TIP3   OH243093   4.367   0.327   7.183 -0.3310  0.2508 -0.0450
 7153TIP3    H143094   4.442   0.346   7.126  0.1769 -0.3581  0.4072
 7153TIP3    H243095   4.301   0.391   7.158 -0.1836 -0.1108 -1.4603
 7154TIP3   OH243096   4.687   3.964   8.056 -0.3059 -0.4227 -0.3355
 7154TIP3    H143097   4.714   3.908   8.129 -1.6651  0.5422  0.9961
 7154TIP3    H243098   4.632   3.908   8.002  0.4659 -1.0721 -0.4660
 7155TIP3   OH243099   0.668   2.136   8.421 -0.0802 -0.0683 -0.1431
 7155TIP3    H143100   0.585   2.146   8.467 -0.0288 -1.2203  0.2508
 7155TIP3    H243101   0.675   2.041   8.406  1.3142 -0.0305  0.1363
 7156TIP3   OH243102   1.413   0.762   1.488  0.3132 -0.3217  0.1331
 7156TIP3    H143103   1.391   0.671   1.468  1.1092 -0.2519 -1.1792
 7156TIP3    H243104   1.481   0.784   1.424  1.8287  0.4732  1.9352
 7157TIP3   OH243105   5.641   5.156   6.530  0.4150  0.2927 -0.6900
 7157TIP3    H143106   5.583   5.178   6.457  0.1308  1.9861  0.0013
 7157TIP3    H243107   5.646   5.236   6.582  1.3332 -0.6014  0.6738
 7158TIP3   OH243108   5.060   1.190   6.756 -0.1221  0.2325 -0.3158
 7158TIP3    H143109   5.095   1.215   6.670 -0.7041  0.9695 -0.3580
 7158TIP3    H243110   5.124   1.130   6.792 -0.0329 -0.3688 -1.4185
 7159TIP3   OH243111   4.791   5.352   0.143 -0.5181  0.4823  0.3565
 7159TIP3    H143112   4.702   5.332   0.173  0.5236 -1.5798  2.2901
 7159TIP3    H243113   4.826   5.269   0.112  1.5098  0.7120  1.8118
 7160TIP3   OH243114   0.928   5.338   1.797 -0.3572  0.4994 -0.5085
 7160TIP3    H143115   0.854   5.278   1.805  0.9649 -1.2664 -0.9205
 7160TIP3    H243116   0.974   5.309   1.718  1.8202  0.2866  0.7488
 7161TIP3   OH243117   1.881   5.268   2.220 -0.9928 -0.1059  0.0716
 7161TIP3    H143118   1.823   5.331   2.262  1.1944  1.3085  1.1986
 7161TIP3    H243119   1.952   5.321   2.184  1.1041 -1.8653  1.3254
 7162TIP3   OH243120   0.762   6.620   7.332 -0.1862 -0.4583  0.1169
 7162TIP3    H143121   0.694   6.565   7.371 -1.9794  1.4666 -0.0648
 7162TIP3    H243122   0.715   6.699   7.304  1.7926  0.1180 -1.9072
 7163TIP3   OH243123   1.488   6.081   8.184 -0.2977 -0.2492 -0.3935
 7163TIP3    H143124   1.562   6.045   8.232  0.9576  1.6342 -0.7988
 7163TIP3    H243125   1.435   6.124   8.251 -1.9225 -2.8455  0.1273
 7164TIP3   OH243126   2.705   5.621   1.222 -0.6047  0.6254  0.0720
 7164TIP3    H143127   2.635   5.635   1.158 -0.2932 -0.4031 -0.5164
 7164TIP3    H243128   2.662   5.578   1.296 -0.6025  0.0175 -0.2784
 7165TIP3   OH243129   3.060   6.761   8.099  0.2220 -0.5522 -0.1975
 7165TIP3    H143130   3.143   6.724   8.127  0.7014  0.2459 -0.5406
 7165TIP3    H243131   3.030   6.813   8.173  0.5701  0.0468 -0.4759
 7166TIP3   OH243132   3.730   0.224   8.577  0.0454  0.2140  0.3881
 7166TIP3    H143133   3.666   0.166   8.617 -0.7895  1.5981  1.1529
 7166TIP3    H243134   3.741   0.294   8.641  1.2650  0.7312 -0.3611
 7167TIP3   OH243135   3.717   0.661   7.675 -0.2379 -0.0184 -0.2371
 7167TIP3    H143136   3.630   0.631   7.701  0.5887 -2.0509  0.3909
 7167TIP3    H243137   3.732   0.619   7.590 -1.0779  2.8829 -1.9376
 7168TIP3   OH243138   0.932   4.789   0.057  0.5490  0.2828  0.0863
 7168TIP3    H143139   1.027   4.794   0.041  0.5410 -0.9049 -0.4970
 7168TIP3    H243140   0.916   4.850   0.129  2.0480 -0.7154  1.3499
 7169TIP3   OH243141   6.149   6.345   0.891  0.3774  0.0903  0.6038
 7169TIP3    H143142   6.085   6.415   0.877 -1.3645 -0.9535  2.6998
 7169TIP3    H243143   6.190   6.367   0.974  1.0256 -0.5352  0.4546
 7170TIP3   OH243144   6.238   3.353   7.793  0.0719  0.2373  0.5844
 7170TIP3    H143145   6.229   3.263   7.763  0.0826  0.4721 -0.1411
 7170TIP3    H243146   6.276   3.346   7.880  1.0427 -0.4296  0.1245
 7171TIP3   OH243147   2.639   0.189   2.383 -0.5684 -0.2423  0.2833
 7171TIP3    H143148   2.729   0.213   2.360 -0.3124 -0.4760  1.0290
 7171TIP3    H243149   2.618   0.242   2.460 -0.3725 -1.5844  1.3054
 7172TIP3   OH243150   6.397   1.854   0.883  0.0592  0.3834  0.0881
 7172TIP3    H143151   6.465   1.799   0.843 -0.4123  0.4410 -0.8054
 7172TIP3    H243152   6.332   1.792   0.916 -0.6054  0.3896 -1.1579
 7173TIP3   OH243153   2.419   6.141   0.471 -0.1165 -0.1873 -0.4632
 7173TIP3    H143154   2.365   6.083   0.524  1.3263 -0.2054  1.0864
 7173TIP3    H243155   2.414   6.226   0.515  0.8172 -0.1031 -0.4978
 7174TIP3   OH243156   0.336   0.333   7.925 -0.1698  0.0947 -0.0521
 7174TIP3    H143157   0.255   0.382   7.912 -0.0979  0.4716  0.8487
 7174TIP3    H243158   0.392   0.360   7.852 -0.5201  0.5143 -0.1708
 7175TIP3   OH243159   0.455   4.566   2.696 -0.3958  0.4669 -0.0973
 7175TIP3    H143160   0.414   4.580   2.611  0.0095 -0.0486 -0.3761
 7175TIP3    H243161   0.489   4.652   2.720  2.4726  0.0100 -2.0147
 7176TIP3   OH243162   6.278   4.713   8.540 -0.4685  0.1437  0.2181
 7176TIP3    H143163   6.371   4.710   8.516 -0.6000  0.6361 -0.3523
 7176TIP3    H243164   6.240   4.636   8.498 -0.7679  1.1776 -1.5035
 7177LIG     O143165   4.537   0.234   2.126 -0.5289  0.4355  0.4688
 7177LIG     O243166   4.509   0.149   1.671  0.8617  0.2664  0.2338
 7177LIG     N143167   4.406   0.002   1.818 -0.6965  0.5954  1.2181
 7177LIG     N243168   4.365  -0.016   2.172 -0.1723 -0.1339  0.4337
 7177LIG     N343169   4.518   0.193   1.899 -0.1551  0.1955 -0.2028
 7177LIG     N443170   4.301  -0.145   1.995  0.1795 -0.6689 -0.1584
 7177LIG     C143171   4.417   0.049   2.060 -0.8054 -0.8545 -0.5664
 7177LIG     C243172   4.371  -0.028   1.951  0.3183  0.4018  0.4432
 7177LIG     C343173   4.490   0.163   2.038 -0.0692 -0.1197  0.0081
 7177LIG     C443174   4.470   0.120   1.787 -0.4547  0.1394  0.1616
 7177LIG     C543175   4.297  -0.127   2.127 -0.1587  0.1676 -0.5897
 7177LIG     C643176   4.358  -0.083   1.704 -0.0109 -0.0180  0.8577
 7177LIG     C743177   4.377   0.027   2.308 -0.3718  0.0298 -0.9174
 7177LIG     C843178   4.594   0.316   1.878  0.0616  0.0514 -0.3594
 7177LIG     H143179   4.246  -0.199   2.192  1.4361 -0.8808 -0.4559
 7177LIG     H243180   4.262  -0.044   1.663  1.1626 -0.4058 -2.4905
 7177LIG     H343181   4.324  -0.184   1.735 -0.8512  0.3825  1.2895
 7177LIG     H443182   4.425  -0.093   1.616 -1.2847 -0.2862 -0.1051
 7177LIG     H543183   4.282   0.073   2.341  0.6605  0.3152  1.9340
 7177LIG     H643184   4.462   0.096   2.325 -0.4530 -0.1458  0.3095
 7177LIG     H743185   4.396  -0.050   2.386 -1.2166  0.1057 -0.6332
 7177LIG     H843186   4.529   0.405   1.876 -0.1320  0.1303  3.2569
 7177LIG     H943187   4.638   0.310   1.776  0.0749 -1.0650 -0.3104
 7177LIG    H1043188   4.675   0.329   1.953  0.5428 -0.1019 -0.8429
   6.85031   6.85031   8.80264
