Title
43170
    1CHL1    C3    1   1.470   3.025   6.648 -0.4006  0.3184  0.1967
    1CHL1    H3    2   1.376   3.072   6.611 -0.2782  0.4318  0.0266
    1CHL1    O3    3   1.441   2.964   6.777  0.0776  0.6653  0.0347
    1CHL1   H3'    4   1.521   2.927   6.816 -1.0533 -2.5328 -0.3790
    1CHL1    C4    5   1.512   2.920   6.543 -0.2560  0.5404  0.1720
    1CHL1   H4A    6   1.584   2.852   6.593  0.8101  1.5979  0.1151
    1CHL1   H4B    7   1.422   2.855   6.536 -2.0262  2.7201  1.1095
    1CHL1    C5    8   1.558   2.967   6.406  0.1892  0.1566  0.0881
    1CHL1    C6    9   1.506   2.916   6.295  0.2052 -0.1508 -0.2150
    1CHL1    H6   10   1.442   2.827   6.307 -2.1318  1.6337  1.3225
    1CHL1    C7   11   1.553   2.947   6.160 -0.6957 -0.1255 -1.1312
    1CHL1   H7A   12   1.564   2.850   6.107  1.1749 -0.0068 -1.0396
    1CHL1   H7B   13   1.480   3.013   6.108 -1.8004  0.1687  0.7246
    1CHL1    C8   14   1.685   3.029   6.159  0.5426  0.0557 -0.5143
    1CHL1    H8   15   1.776   2.970   6.183  1.9107  1.1679 -2.5717
    1CHL1   C14   16   1.706   3.091   6.025 -1.0421  0.2519 -0.1220
    1CHL1   H14   17   1.616   3.150   5.997  1.0441  2.2406 -3.2342
    1CHL1   C15   18   1.715   2.975   5.914  0.0476 -0.5401  0.5911
    1CHL1  H15A   19   1.765   2.883   5.951  0.4349 -0.1649  1.0018
    1CHL1  H15B   20   1.615   2.942   5.877  0.1726 -1.2499  0.8635
    1CHL1   C16   21   1.808   3.043   5.807  0.1100  0.6400 -0.5825
    1CHL1  H16A   22   1.894   2.975   5.788 -1.0512 -1.0846  0.1040
    1CHL1  H16B   23   1.754   3.050   5.710 -0.6861 -2.8133 -0.5255
    1CHL1   C17   24   1.841   3.184   5.860 -0.0909 -0.2999 -0.4818
    1CHL1   H17   25   1.755   3.250   5.834  0.8789  0.8830 -0.7907
    1CHL1   C13   26   1.834   3.170   6.012 -0.8125 -0.3691 -0.2701
    1CHL1   C18   27   1.959   3.090   6.044 -0.1568  0.2199  0.1110
    1CHL1  H18A   28   1.963   3.065   6.152  2.8379  1.6964  0.4368
    1CHL1  H18B   29   1.960   2.992   5.990  0.3794  0.8632 -1.0904
    1CHL1  H18C   30   2.055   3.145   6.031 -0.0183 -0.3356 -1.4647
    1CHL1   C12   31   1.808   3.295   6.103 -0.2513  0.1122  0.7086
    1CHL1  H12A   32   1.881   3.378   6.097 -0.1241 -0.0563 -0.4937
    1CHL1  H12B   33   1.712   3.344   6.079 -1.3175 -1.8951  0.6109
    1CHL1   C11   34   1.780   3.255   6.245 -0.9724 -0.0024  0.2154
    1CHL1  H11A   35   1.877   3.218   6.286 -1.7504 -0.7098  1.4858
    1CHL1  H11B   36   1.754   3.347   6.301 -0.6772  0.5492 -0.5409
    1CHL1    C9   37   1.668   3.144   6.263 -0.9843 -0.6032  0.7791
    1CHL1    H9   38   1.570   3.197   6.258 -0.7829 -0.1291  1.6207
    1CHL1   C10   39   1.662   3.082   6.410 -0.5359 -0.2378  0.0229
    1CHL1   C19   40   1.794   3.023   6.463  0.9080  0.3095  0.4448
    1CHL1  H19A   41   1.831   2.946   6.392  0.0171 -1.7980  2.1621
    1CHL1  H19B   42   1.857   3.113   6.478  1.1784 -0.0292  1.3785
    1CHL1  H19C   43   1.791   2.978   6.564  1.6266 -1.1438 -0.1528
    1CHL1    C1   44   1.625   3.187   6.518 -0.3233  0.8288 -0.4223
    1CHL1   H1A   45   1.712   3.253   6.537 -0.2056  0.7034 -0.5328
    1CHL1   H1B   46   1.541   3.244   6.471 -1.0137 -1.2657 -1.8722
    1CHL1    C2   47   1.583   3.126   6.654 -0.0761  0.1762 -0.7066
    1CHL1   H2A   48   1.556   3.214   6.717  1.3248 -1.2777  2.1529
    1CHL1   H2B   49   1.673   3.084   6.705  1.4710  1.2636 -2.4319
    1CHL1   C20   50   1.956   3.253   5.791 -0.1137 -0.2461  0.3470
    1CHL1   H20   51   2.051   3.198   5.807  1.8230  2.4983 -0.9869
    1CHL1   C21   52   1.976   3.397   5.847 -0.0184 -0.5287  0.3873
    1CHL1  H21A   53   2.047   3.456   5.785  0.1935 -0.1075  1.0166
    1CHL1  H21B   54   2.012   3.390   5.952 -2.1684  0.5317  1.2516
    1CHL1  H21C   55   1.880   3.452   5.855 -0.6254 -1.6926  1.6955
    1CHL1   C22   56   1.935   3.269   5.644 -0.5878 -0.0356  0.2950
    1CHL1  H22A   57   1.888   3.179   5.599  0.4100 -1.4477  1.9485
    1CHL1  H22B   58   1.869   3.358   5.634 -1.8288 -1.1118 -1.7034
    1CHL1   C23   59   2.072   3.290   5.569 -0.0131  0.0305  0.2946
    1CHL1  H23A   60   2.128   3.371   5.620 -0.2228  0.7185 -0.5503
    1CHL1  H23B   61   2.139   3.202   5.579  1.8023  1.2658 -0.3594
    1CHL1   C24   62   2.046   3.319   5.413 -0.0771 -0.3845  0.3593
    1CHL1  H24A   63   2.018   3.224   5.362  0.4153 -0.7297  0.7114
    1CHL1  H24B   64   1.964   3.393   5.406 -0.4258 -0.6641  1.2500
    1CHL1   C25   65   2.166   3.369   5.330 -0.7633  0.1597 -0.2628
    1CHL1   H25   66   2.205   3.463   5.375 -2.2603  0.5258  0.3360
    1CHL1   C26   67   2.275   3.269   5.357 -1.5599 -0.0001  1.4421
    1CHL1  H26A   68   2.257   3.168   5.314 -1.3693 -0.4399  2.3795
    1CHL1  H26B   69   2.371   3.298   5.307 -2.0769 -0.5926  0.0466
    1CHL1  H26C   70   2.301   3.259   5.464  1.0061 -0.8225  0.8170
    1CHL1   C27   71   2.129   3.394   5.183 -0.3425 -0.0163  0.1735
    1CHL1  H27A   72   2.219   3.443   5.140 -1.1420  0.5282 -0.9270
    1CHL1  H27B   73   2.110   3.299   5.128 -3.5683  0.3406  0.4783
    1CHL1  H27C   74   2.040   3.459   5.170  0.0718  0.8929  1.6430
    2CHL1    C3   75   4.258   2.559   6.688 -0.4359 -0.4262 -0.6964
    2CHL1    H3   76   4.287   2.463   6.640  1.3629 -1.1360  1.6203
    2CHL1    O3   77   4.203   2.531   6.815  0.1314  0.4767  0.9385
    2CHL1   H3'   78   4.206   2.613   6.864  0.4124 -1.2642  4.0695
    2CHL1    C4   79   4.375   2.652   6.707  0.1748  0.4331 -0.2886
    2CHL1   H4A   80   4.330   2.737   6.763 -0.2459  0.0698 -0.0672
    2CHL1   H4B   81   4.452   2.596   6.765 -0.5798 -1.1007 -0.7051
    2CHL1    C5   82   4.428   2.699   6.578  0.4157 -0.0515 -0.0814
    2CHL1    C6   83   4.557   2.679   6.549  0.3975  0.8977  0.0297
    2CHL1    H6   84   4.633   2.636   6.615  2.0400  1.3592 -1.4643
    2CHL1    C7   85   4.623   2.716   6.419 -0.3301  0.3133  0.6041
    2CHL1   H7A   86   4.716   2.771   6.444  0.0043 -0.1210  0.3350
    2CHL1   H7B   87   4.640   2.618   6.369 -0.9058  1.3500 -1.7662
    2CHL1    C8   88   4.526   2.811   6.339  0.9930 -0.1370 -0.2828
    2CHL1    H8   89   4.537   2.914   6.381  0.9465  0.8182 -2.4418
    2CHL1   C14   90   4.573   2.825   6.194  0.6572  0.8374  1.1667
    2CHL1   H14   91   4.560   2.727   6.143 -1.5421  2.5975 -1.9716
    2CHL1   C15   92   4.722   2.852   6.165 -0.1401 -0.0944  0.0982
    2CHL1  H15A   93   4.753   2.931   6.237 -1.7757 -1.8732  2.9873
    2CHL1  H15B   94   4.787   2.762   6.172 -0.2260 -0.4614 -2.6972
    2CHL1   C16   95   4.723   2.897   6.020  0.0173  0.4159  0.7928
    2CHL1  H16A   96   4.783   2.991   6.017 -1.9161  1.7325  1.2949
    2CHL1  H16B   97   4.763   2.812   5.962  1.7608  0.6055  1.6613
    2CHL1   C17   98   4.574   2.908   5.978 -0.2912  0.5564  0.2511
    2CHL1   H17   99   4.542   2.811   5.934 -1.5645 -0.5295  3.2546
    2CHL1   C13  100   4.491   2.919   6.108  0.0682 -0.2222 -0.2417
    2CHL1   C18  101   4.507   3.066   6.165  0.6916  0.6056  0.2172
    2CHL1  H18A  102   4.614   3.087   6.182  0.9366 -0.6615  0.3703
    2CHL1  H18B  103   4.457   3.138   6.097  1.5795  1.5336  0.5293
    2CHL1  H18C  104   4.457   3.093   6.260  0.9680 -0.6560  0.7451
    2CHL1   C12  105   4.340   2.871   6.100  0.3718  0.4377 -0.8849
    2CHL1  H12A  106   4.268   2.940   6.052 -0.0036  0.1426 -0.7551
    2CHL1  H12B  107   4.350   2.772   6.052 -0.9984  0.2896 -0.9200
    2CHL1   C11  108   4.292   2.847   6.246 -0.3858 -0.5919  0.6120
    2CHL1  H11A  109   4.277   2.948   6.289  1.6897 -0.7187  1.7747
    2CHL1  H11B  110   4.199   2.786   6.241 -1.3355  0.7884  1.0368
    2CHL1    C9  111   4.378   2.760   6.339 -1.0757 -0.3951  0.1073
    2CHL1    H9  112   4.393   2.660   6.294 -0.4249  0.3049 -1.3023
    2CHL1   C10  113   4.325   2.751   6.478  0.2799  0.0598 -1.1304
    2CHL1   C19  114   4.301   2.892   6.540  0.1924  0.0641 -0.0352
    2CHL1  H19A  115   4.252   2.883   6.640  0.0083 -3.1523 -0.2929
    2CHL1  H19B  116   4.391   2.957   6.539  0.4701 -0.3126 -1.7117
    2CHL1  H19C  117   4.222   2.938   6.477  1.4387 -0.6437 -2.2184
    2CHL1    C1  118   4.199   2.659   6.468  0.5100  0.0995 -0.3477
    2CHL1   H1A  119   4.120   2.709   6.409  1.0114 -1.0162 -2.0457
    2CHL1   H1B  120   4.225   2.566   6.413  0.7118 -0.1531  0.1679
    2CHL1    C2  121   4.138   2.625   6.603 -0.4412  0.2753  0.1714
    2CHL1   H2A  122   4.057   2.550   6.588 -1.5090  1.6541 -1.4150
    2CHL1   H2B  123   4.098   2.720   6.646  2.9181  2.6193 -1.4566
    2CHL1   C20  124   4.550   3.009   5.861  0.0105  0.6511 -0.1122
    2CHL1   H20  125   4.593   3.100   5.907  0.2440 -0.4813  2.0441
    2CHL1   C21  126   4.408   3.029   5.810  0.1712  0.3631  0.7367
    2CHL1  H21A  127   4.329   3.057   5.883 -1.0150 -0.5922 -0.1376
    2CHL1  H21B  128   4.373   2.936   5.760 -0.5261  0.7047  0.5710
    2CHL1  H21C  129   4.425   3.102   5.727  0.1162 -0.7631 -0.2874
    2CHL1   C22  130   4.652   2.978   5.750 -0.8361  0.7758 -0.7763
    2CHL1  H22A  131   4.652   3.065   5.681  0.9907 -0.1787 -2.0780
    2CHL1  H22B  132   4.756   2.985   5.788  0.2260  1.3446 -3.5758
    2CHL1   C23  133   4.632   2.851   5.670 -0.0249 -0.3847  0.5877
    2CHL1  H23A  134   4.688   2.766   5.716  1.7015  0.6628  0.4877
    2CHL1  H23B  135   4.524   2.825   5.671 -0.5593  1.5832  2.9408
    2CHL1   C24  136   4.680   2.866   5.526 -0.2832 -0.6243 -0.5830
    2CHL1  H24A  137   4.634   2.960   5.488  0.7529  0.0323 -0.2529
    2CHL1  H24B  138   4.790   2.880   5.531 -0.2739 -0.3183  5.5890
    2CHL1   C25  139   4.645   2.762   5.414 -0.2194 -1.0945  0.0864
    2CHL1   H25  140   4.539   2.733   5.401 -0.9268  2.2160 -3.4965
    2CHL1   C26  141   4.680   2.832   5.284 -0.5618 -0.2803  0.1647
    2CHL1  H26A  142   4.789   2.841   5.268 -0.8304  2.0287 -0.6646
    2CHL1  H26B  143   4.646   2.768   5.200  0.8864 -1.8802  0.7395
    2CHL1  H26C  144   4.626   2.924   5.254  1.8906  0.0424 -3.9802
    2CHL1   C27  145   4.736   2.636   5.427  0.5009 -0.0664 -0.1052
    2CHL1  H27A  146   4.711   2.559   5.352 -0.1491  0.5358 -0.5191
    2CHL1  H27B  147   4.839   2.675   5.410 -0.2410  2.3725  0.5089
    2CHL1  H27C  148   4.729   2.595   5.530 -1.3172 -1.2646 -0.6805
    3CHL1    C3  149   3.846   1.474   6.837 -0.0743 -0.4256 -0.3918
    3CHL1    H3  150   3.739   1.479   6.808  0.1290 -0.7260 -1.2218
    3CHL1    O3  151   3.851   1.416   6.965 -0.3364  0.5842 -0.3662
    3CHL1   H3'  152   3.936   1.447   6.995 -0.3284  0.1944  0.0110
    3CHL1    C4  153   3.936   1.385   6.749 -0.1639  0.1679  0.1331
    3CHL1   H4A  154   4.039   1.375   6.789  0.7650  1.1507 -1.8828
    3CHL1   H4B  155   3.906   1.278   6.753 -0.7764  0.3223 -0.2764
    3CHL1    C5  156   3.940   1.427   6.601  0.0356 -0.0528 -0.0513
    3CHL1    C6  157   3.904   1.345   6.503 -0.4112 -0.0759 -0.1624
    3CHL1    H6  158   3.873   1.244   6.534  2.4971 -0.6224  1.3045
    3CHL1    C7  159   3.924   1.371   6.358  0.8783  0.3068 -0.3128
    3CHL1   H7A  160   3.976   1.284   6.312 -0.3448  0.1183 -1.4003
    3CHL1   H7B  161   3.822   1.372   6.315 -0.3116 -0.3040  2.3089
    3CHL1    C8  162   3.999   1.504   6.337 -0.8367  0.9380 -0.1340
    3CHL1    H8  163   4.106   1.480   6.322 -1.1992  0.6174 -2.6720
    3CHL1   C14  164   3.958   1.564   6.200  0.7429  0.3935  0.3266
    3CHL1   H14  165   3.852   1.598   6.207  0.6114 -0.0454  0.5016
    3CHL1   C15  166   3.941   1.471   6.076  0.1769 -0.1044 -0.2176
    3CHL1  H15A  167   4.031   1.407   6.062  0.3829 -0.2141  1.4588
    3CHL1  H15B  168   3.860   1.396   6.089 -2.0300  2.3345  1.0884
    3CHL1   C16  169   3.938   1.572   5.963  0.4422 -0.8974  0.2784
    3CHL1  H16A  170   4.012   1.538   5.887 -0.1040 -2.9141  0.5864
    3CHL1  H16B  171   3.834   1.581   5.923 -0.3037 -0.2279  2.2672
    3CHL1   C17  172   3.976   1.716   6.013  0.7898  0.3104 -0.4723
    3CHL1   H17  173   3.879   1.767   6.033  1.5878  1.2148  1.3049
    3CHL1   C13  174   4.040   1.681   6.154  0.5833  0.6006  0.3934
    3CHL1   C18  175   4.185   1.636   6.130 -0.2560  0.8841  0.3069
    3CHL1  H18A  176   4.182   1.574   6.037 -2.2365  0.0918  0.8638
    3CHL1  H18B  177   4.249   1.726   6.115  0.0445  0.2588 -3.0668
    3CHL1  H18C  178   4.234   1.574   6.208  0.5703 -0.3911 -1.1522
    3CHL1   C12  179   4.021   1.792   6.262 -0.1768 -0.1351 -0.1413
    3CHL1  H12A  180   4.081   1.884   6.247  0.0398 -0.0220  1.2205
    3CHL1  H12B  181   3.915   1.825   6.256 -0.5253 -0.8760  1.3951
    3CHL1   C11  182   4.045   1.746   6.403  0.2603  0.0573  0.3057
    3CHL1  H11A  183   4.153   1.721   6.417  0.1879  0.7890  2.5499
    3CHL1  H11B  184   4.014   1.831   6.468 -0.6569  1.3805 -1.7675
    3CHL1    C9  185   3.973   1.614   6.446  0.3730 -0.7970  0.8706
    3CHL1    H9  186   3.862   1.625   6.447  0.2791 -1.6920  1.8904
    3CHL1   C10  187   3.997   1.568   6.590 -0.2244  0.6287  0.2989
    3CHL1   C19  188   4.149   1.561   6.620 -0.4689 -0.5474  0.1438
    3CHL1  H19A  189   4.169   1.527   6.725 -0.2487 -1.4236 -0.1690
    3CHL1  H19B  190   4.191   1.491   6.544 -2.3812 -0.8664 -0.6749
    3CHL1  H19C  191   4.199   1.660   6.624  0.4889 -1.0255  0.3521
    3CHL1    C1  192   3.935   1.669   6.697  0.1164 -0.7552  0.1498
    3CHL1   H1A  193   3.977   1.772   6.702 -3.6582  0.9749 -0.1815
    3CHL1   H1B  194   3.836   1.693   6.653 -1.7987 -0.8187  3.9628
    3CHL1    C2  195   3.905   1.620   6.840  0.4563 -0.1872  0.0248
    3CHL1   H2A  196   3.827   1.685   6.885 -0.1411 -0.5214 -0.5133
    3CHL1   H2B  197   3.999   1.630   6.899 -0.1951  1.1191  0.8937
    3CHL1   C20  198   4.050   1.808   5.914  0.4355 -0.0491 -0.0819
    3CHL1   H20  199   4.148   1.760   5.893  0.4582  0.6108 -1.6693
    3CHL1   C21  200   4.068   1.946   5.977  0.4513  0.4892 -0.5975
    3CHL1  H21A  201   3.975   2.003   5.999  0.4628 -0.3781  2.0522
    3CHL1  H21B  202   4.141   2.008   5.921  0.7340  0.3243 -0.4088
    3CHL1  H21C  203   4.120   1.935   6.074  0.3088 -0.1057 -0.5869
    3CHL1   C22  204   3.982   1.811   5.772 -0.3198 -0.5665 -0.4500
    3CHL1  H22A  205   3.971   1.707   5.734 -0.9380 -0.5560 -0.3121
    3CHL1  H22B  206   3.879   1.852   5.781  0.0234 -0.0958  2.3781
    3CHL1   C23  207   4.051   1.888   5.661  0.3663 -0.3001  0.1621
    3CHL1  H23A  208   4.161   1.885   5.673  0.5297  2.4260 -0.1409
    3CHL1  H23B  209   4.034   1.837   5.564 -1.4756 -2.0193  1.2894
    3CHL1   C24  210   4.008   2.035   5.644  0.2187 -0.2781  0.6579
    3CHL1  H24A  211   3.902   2.042   5.612  0.2929  0.2153  0.5071
    3CHL1  H24B  212   4.019   2.101   5.732 -0.9434  3.8424 -2.0068
    3CHL1   C25  213   4.089   2.113   5.535 -0.3463  0.2904  0.2258
    3CHL1   H25  214   4.038   2.212   5.525 -2.9734 -0.9742  0.2812
    3CHL1   C26  215   4.230   2.148   5.580 -0.4889 -0.3314 -0.2214
    3CHL1  H26A  216   4.299   2.066   5.550 -2.9067 -2.0316 -1.4074
    3CHL1  H26B  217   4.269   2.238   5.528  0.2596  0.3495  1.4363
    3CHL1  H26C  218   4.233   2.171   5.689  0.4278  0.9613 -0.4875
    3CHL1   C27  219   4.094   2.047   5.391 -0.2946  0.1485 -0.6930
    3CHL1  H27A  220   4.168   1.964   5.392  0.5780  0.9111  0.5970
    3CHL1  H27B  221   3.993   2.018   5.354 -0.2483 -1.5628  0.4125
    3CHL1  H27C  222   4.138   2.120   5.319 -0.6019  2.2692  1.1760
    4CHL1    C3  223   1.406   2.615   6.872 -0.2277 -0.1572  0.2812
    4CHL1    H3  224   1.464   2.705   6.843 -0.0906 -1.2953 -3.3539
    4CHL1    O3  225   1.402   2.605   7.013 -0.4829 -0.6826 -0.2250
    4CHL1   H3'  226   1.491   2.620   7.045  1.0831 -2.6188 -3.2695
    4CHL1    C4  227   1.263   2.637   6.825  0.3241  0.7036  0.3967
    4CHL1   H4A  228   1.202   2.558   6.872 -0.5409  0.2339 -1.4343
    4CHL1   H4B  229   1.234   2.736   6.868  1.2316  1.0820  0.1531
    4CHL1    C5  230   1.245   2.624   6.673  0.4593 -0.4486 -0.4279
    4CHL1    C6  231   1.197   2.726   6.607 -0.4008  0.1598  0.7838
    4CHL1    H6  232   1.149   2.806   6.665  1.7104  2.9927 -1.0836
    4CHL1    C7  233   1.180   2.737   6.455  0.2978  0.7274  0.1254
    4CHL1   H7A  234   1.076   2.760   6.423 -0.3036 -0.9089  0.8189
    4CHL1   H7B  235   1.255   2.810   6.418  1.3799 -0.9413 -1.0896
    4CHL1    C8  236   1.214   2.596   6.394  0.2595  0.9007  0.2014
    4CHL1    H8  237   1.124   2.534   6.415 -0.4749  2.4672  2.0943
    4CHL1   C14  238   1.227   2.612   6.242 -0.1607 -0.1470  0.4531
    4CHL1   H14  239   1.317   2.677   6.237  0.2046 -0.1536  3.9627
    4CHL1   C15  240   1.107   2.682   6.172  0.3188 -0.3383 -0.3000
    4CHL1  H15A  241   1.010   2.656   6.219  0.1134  1.9107  0.6860
    4CHL1  H15B  242   1.117   2.792   6.186 -1.4458 -0.1664 -0.1600
    4CHL1   C16  243   1.120   2.627   6.025 -0.4243 -0.6765  1.0156
    4CHL1  H16A  244   1.024   2.580   5.994 -0.7161  1.4199 -1.6799
    4CHL1  H16B  245   1.148   2.705   5.950  1.0709 -0.5098  1.7171
    4CHL1   C17  246   1.235   2.523   6.020  0.3658 -0.1917 -0.0787
    4CHL1   H17  247   1.330   2.577   6.002  0.2192  0.8104  1.8257
    4CHL1   C13  248   1.239   2.476   6.168 -0.6357 -0.7057  0.1482
    4CHL1   C18  249   1.111   2.379   6.183 -0.2912 -0.3667 -0.5342
    4CHL1  H18A  250   1.018   2.430   6.148  0.9283  0.3333 -2.9892
    4CHL1  H18B  251   1.131   2.279   6.139 -0.0356 -1.0697  1.1063
    4CHL1  H18C  252   1.092   2.356   6.290  0.2481 -2.4781 -0.8526
    4CHL1   C12  253   1.368   2.401   6.221  0.3365  0.5618  0.2414
    4CHL1  H12A  254   1.368   2.294   6.191 -0.7520 -0.2493  2.8705
    4CHL1  H12B  255   1.460   2.454   6.187  0.5280 -0.0652 -0.2384
    4CHL1   C11  256   1.361   2.385   6.370  0.4668 -0.1601 -0.6311
    4CHL1  H11A  257   1.280   2.314   6.400 -0.4982  1.9858  2.3827
    4CHL1  H11B  258   1.459   2.350   6.407  1.0679  0.7562 -1.3321
    4CHL1    C9  259   1.328   2.520   6.449 -0.7398  0.1601  0.1045
    4CHL1    H9  260   1.415   2.588   6.438  0.5295 -0.8311  3.1602
    4CHL1   C10  261   1.314   2.505   6.604 -1.0859 -0.5111 -0.4650
    4CHL1   C19  262   1.235   2.378   6.643 -0.1118  0.3275 -0.9952
    4CHL1  H19A  263   1.146   2.364   6.578 -1.1076 -2.5372  0.7733
    4CHL1  H19B  264   1.297   2.287   6.624 -0.9730  0.0163 -2.4515
    4CHL1  H19C  265   1.204   2.385   6.749 -0.0320 -0.5431 -0.9090
    4CHL1    C1  266   1.460   2.497   6.664  0.8045  0.5600 -0.3515
    4CHL1   H1A  267   1.496   2.402   6.620 -0.0819 -0.8841  1.8234
    4CHL1   H1B  268   1.521   2.580   6.622  1.1434  0.1568 -0.6598
    4CHL1    C2  269   1.474   2.491   6.813  0.7158 -0.1705 -0.0887
    4CHL1   H2A  270   1.578   2.484   6.850  0.5523  1.1710  0.7099
    4CHL1   H2B  271   1.418   2.404   6.852 -0.1755  0.9532  1.2764
    4CHL1   C20  272   1.209   2.423   5.909  0.2170 -0.2303 -0.0977
    4CHL1   H20  273   1.123   2.359   5.937  0.4221 -0.2317  0.5495
    4CHL1   C21  274   1.330   2.334   5.891  0.9171 -0.9210 -0.6190
    4CHL1  H21A  275   1.300   2.252   5.821 -2.1597  0.7134 -1.3848
    4CHL1  H21B  276   1.347   2.286   5.990  0.5414  2.3343  1.1448
    4CHL1  H21C  277   1.417   2.400   5.868  0.0411  0.4046 -0.2211
    4CHL1   C22  278   1.172   2.491   5.777  0.0115  0.1088  0.7248
    4CHL1  H22A  279   1.071   2.537   5.787 -0.4483  0.0576 -2.6023
    4CHL1  H22B  280   1.255   2.561   5.757  1.9792 -2.3019 -0.0411
    4CHL1   C23  281   1.151   2.401   5.647 -0.1950 -0.0739  0.0190
    4CHL1  H23A  282   1.236   2.335   5.625 -1.0677 -0.2115 -3.3900
    4CHL1  H23B  283   1.075   2.328   5.683  2.3656 -2.6502  0.4854
    4CHL1   C24  284   1.124   2.488   5.520  0.6461  0.5793 -0.4570
    4CHL1  H24A  285   1.081   2.586   5.550 -0.9065 -0.1106 -0.3035
    4CHL1  H24B  286   1.224   2.520   5.485  1.1908  0.1182  0.6079
    4CHL1   C25  287   1.036   2.423   5.414 -0.5837  0.2137  0.2405
    4CHL1   H25  288   0.948   2.368   5.454 -0.3510 -0.1414  0.2704
    4CHL1   C26  289   0.986   2.515   5.303 -0.0561 -0.6104 -0.1573
    4CHL1  H26A  290   0.940   2.467   5.214 -1.2992 -0.4906  0.3974
    4CHL1  H26B  291   0.932   2.603   5.345  0.7386 -0.4229  0.5129
    4CHL1  H26C  292   1.081   2.554   5.261 -0.0891 -0.4921 -0.1227
    4CHL1   C27  293   1.109   2.299   5.342  0.2766  0.7929  0.2304
    4CHL1  H27A  294   1.150   2.234   5.421  3.2928  0.5165 -1.4082
    4CHL1  H27B  295   1.037   2.247   5.276  1.8962 -1.1944 -0.0447
    4CHL1  H27C  296   1.191   2.351   5.286  0.8069  1.1904  1.3458
    5CHL1    C3  297   0.208   5.376   6.584  0.4534 -0.1678  0.0294
    5CHL1    H3  298   0.271   5.285   6.572  1.0225 -0.0043  1.5461
    5CHL1    O3  299   0.177   5.391   6.721  0.0744 -0.0438 -0.6760
    5CHL1   H3'  300   0.209   5.480   6.739  1.2095 -0.4928 -0.3790
    5CHL1    C4  301   0.288   5.494   6.519  0.5036  0.3475  0.2562
    5CHL1   H4A  302   0.226   5.585   6.534 -1.2248 -0.5585 -0.9916
    5CHL1   H4B  303   0.384   5.491   6.574  0.5993  0.1059  0.0763
    5CHL1    C5  304   0.319   5.489   6.376  0.3118 -0.5040  0.1033
    5CHL1    C6  305   0.447   5.497   6.331 -0.1944  0.3270  0.0817
    5CHL1    H6  306   0.530   5.510   6.402  0.6187 -0.0492 -0.7849
    5CHL1    C7  307   0.477   5.481   6.184 -0.1667 -0.2906 -0.0264
    5CHL1   H7A  308   0.546   5.560   6.147  0.2980 -1.8549 -2.8493
    5CHL1   H7B  309   0.521   5.379   6.176 -1.8100 -1.0155 -0.1600
    5CHL1    C8  310   0.359   5.482   6.087 -0.1235 -0.1767 -0.2092
    5CHL1    H8  311   0.329   5.588   6.070  0.6776 -0.0568 -0.9343
    5CHL1   C14  312   0.403   5.427   5.956  0.8966  0.6384 -0.1101
    5CHL1   H14  313   0.424   5.319   5.970  0.5286  0.8241  2.1700
    5CHL1   C15  314   0.517   5.492   5.881  0.2879  0.2601 -0.1473
    5CHL1  H15A  315   0.526   5.599   5.907 -0.4889  1.0260 -2.7459
    5CHL1  H15B  316   0.612   5.452   5.922 -0.2071 -0.5864  0.2016
    5CHL1   C16  317   0.489   5.454   5.729 -0.1544  0.7258 -0.0531
    5CHL1  H16A  318   0.507   5.543   5.665  0.2036  1.0733  0.5130
    5CHL1  H16B  319   0.559   5.374   5.697  1.4083  0.6183  3.2306
    5CHL1   C17  320   0.349   5.389   5.718  0.0549  0.6832  0.4086
    5CHL1   H17  321   0.363   5.279   5.733 -2.5829  0.5505  2.6429
    5CHL1   C13  322   0.283   5.434   5.854  0.0757 -0.2960  0.2499
    5CHL1   C18  323   0.227   5.579   5.829  0.2346 -0.1519  0.3093
    5CHL1  H18A  324   0.308   5.640   5.782 -1.7354  2.8260  0.4943
    5CHL1  H18B  325   0.135   5.584   5.767  0.4849  1.5756  0.0334
    5CHL1  H18C  326   0.196   5.635   5.920 -1.9255 -1.1350  0.2434
    5CHL1   C12  327   0.171   5.345   5.909  0.1803 -0.4157 -0.5439
    5CHL1  H12A  328   0.083   5.347   5.842  1.6703 -1.4075 -2.6436
    5CHL1  H12B  329   0.203   5.238   5.908  1.4763 -0.1053  1.6329
    5CHL1   C11  330   0.127   5.383   6.051  0.1731  0.4659  0.5270
    5CHL1  H11A  331   0.075   5.477   6.024  0.1966  0.0809 -0.9067
    5CHL1  H11B  332   0.058   5.298   6.073  0.2300  0.1714 -0.3840
    5CHL1    C9  333   0.243   5.401   6.146 -0.1312  0.2851  1.1174
    5CHL1    H9  334   0.281   5.298   6.162  3.0544  1.1240 -0.2080
    5CHL1   C10  335   0.195   5.449   6.286  0.2554 -0.5800  0.3591
    5CHL1   C19  336   0.102   5.571   6.263  1.0833 -0.3883  0.2080
    5CHL1  H19A  337   0.081   5.627   6.356 -0.6740  3.1325 -2.0856
    5CHL1  H19B  338   0.141   5.646   6.192 -1.5053  0.6977 -0.1685
    5CHL1  H19C  339   0.003   5.545   6.219  0.5620  2.5827 -0.6020
    5CHL1    C1  340   0.111   5.329   6.355  0.1096  0.2919 -0.0229
    5CHL1   H1A  341   0.009   5.319   6.312  0.1271 -2.4808  0.4239
    5CHL1   H1B  342   0.165   5.234   6.339 -0.3134  0.2640 -1.4550
    5CHL1    C2  343   0.076   5.349   6.511 -0.2429 -0.2648  0.2543
    5CHL1   H2A  344   0.022   5.259   6.548 -1.3525  0.4904  0.5284
    5CHL1   H2B  345   0.001   5.430   6.525 -2.0297 -1.7170 -0.4679
    5CHL1   C20  346   0.285   5.420   5.579  0.0568  0.4968  1.0953
    5CHL1   H20  347   0.253   5.526   5.576  0.4260  0.5867 -1.3464
    5CHL1   C21  348   0.160   5.330   5.558  0.3390  0.1979  0.0848
    5CHL1  H21A  349   0.170   5.229   5.604  2.4426  0.3318  0.0092
    5CHL1  H21B  350   0.140   5.308   5.451  0.1482 -0.7538  0.3115
    5CHL1  H21C  351   0.063   5.372   5.593  0.7296  0.2796  1.1265
    5CHL1   C22  352   0.377   5.409   5.459 -0.6363 -0.5106 -0.0048
    5CHL1  H22A  353   0.330   5.447   5.366  2.0179 -0.3675 -1.4022
    5CHL1  H22B  354   0.461   5.482   5.468  0.3877 -1.3440 -2.1170
    5CHL1   C23  355   0.402   5.263   5.408 -0.2899  0.8451 -0.0782
    5CHL1  H23A  356   0.421   5.196   5.495 -1.3834 -0.5313 -0.8375
    5CHL1  H23B  357   0.321   5.214   5.349 -0.9860 -2.2608  3.0904
    5CHL1   C24  358   0.527   5.271   5.319 -0.3548 -0.9022 -0.5192
    5CHL1  H24A  359   0.500   5.327   5.227  0.1755 -0.3420 -0.3398
    5CHL1  H24B  360   0.606   5.333   5.367 -2.2309  2.3006 -1.2907
    5CHL1   C25  361   0.584   5.139   5.285 -0.0039 -0.0357 -0.0459
    5CHL1   H25  362   0.577   5.074   5.374  0.3225  1.2031  0.9039
    5CHL1   C26  363   0.513   5.071   5.167  0.2794 -0.5370 -0.5419
    5CHL1  H26A  364   0.403   5.061   5.175 -0.4420  3.3789 -3.0243
    5CHL1  H26B  365   0.538   5.126   5.074 -0.7322 -1.2788 -1.2648
    5CHL1  H26C  366   0.561   4.973   5.145 -0.9944 -1.1965 -0.4408
    5CHL1   C27  367   0.732   5.151   5.247 -0.4072 -0.0796  0.5634
    5CHL1  H27A  368   0.779   5.059   5.207 -0.7827  0.0366 -0.1682
    5CHL1  H27B  369   0.749   5.224   5.165 -0.7067 -1.3168 -0.6248
    5CHL1  H27C  370   0.797   5.185   5.331  0.3198 -1.7773  0.7108
    6CHL1    C3  371   1.914   2.717   6.711 -0.4514 -0.4107  0.1797
    6CHL1    H3  372   1.861   2.802   6.662  0.7471 -0.9483 -2.2257
    6CHL1    O3  373   1.893   2.697   6.851 -0.4108  0.1040 -0.2640
    6CHL1   H3'  374   1.903   2.606   6.879 -0.7763  0.8401  2.5692
    6CHL1    C4  375   1.862   2.588   6.641 -0.2501 -0.4261 -0.0289
    6CHL1   H4A  376   1.918   2.505   6.690  0.1351  1.0046  2.1054
    6CHL1   H4B  377   1.755   2.581   6.673 -0.5771 -2.2545 -1.3750
    6CHL1    C5  378   1.872   2.603   6.491 -0.3922  0.3561 -0.2635
    6CHL1    C6  379   1.763   2.598   6.412  0.0039  0.5198 -0.2018
    6CHL1    H6  380   1.664   2.575   6.452 -0.4431  2.6563  0.0288
    6CHL1    C7  381   1.765   2.610   6.261  0.1128 -0.2489 -0.0159
    6CHL1   H7A  382   1.715   2.531   6.202 -1.5374  2.5037 -2.5761
    6CHL1   H7B  383   1.728   2.708   6.223 -0.0826 -0.0907  0.5563
    6CHL1    C8  384   1.912   2.607   6.211 -0.0934  0.8836 -0.5620
    6CHL1    H8  385   1.930   2.497   6.216  0.0942  0.8861 -1.1169
    6CHL1   C14  386   1.926   2.647   6.060 -0.8932 -0.2769 -0.9010
    6CHL1   H14  387   1.903   2.755   6.070  0.9625  0.0541  0.3519
    6CHL1   C15  388   1.829   2.583   5.962 -0.2255  0.5268  0.5655
    6CHL1  H15A  389   1.816   2.474   5.978  1.0111  0.0065 -1.5604
    6CHL1  H15B  390   1.727   2.626   5.975  0.0606  0.7592  2.4774
    6CHL1   C16  391   1.894   2.610   5.823 -0.2960  0.1984  0.5762
    6CHL1  H16A  392   1.907   2.508   5.781 -2.9027  0.0498 -0.0301
    6CHL1  H16B  393   1.829   2.664   5.751  0.6127 -0.0781 -0.4739
    6CHL1   C17  394   2.029   2.676   5.850 -0.4228 -0.1295 -0.1732
    6CHL1   H17  395   2.007   2.785   5.851  0.6062  0.0887 -0.5635
    6CHL1   C13  396   2.063   2.639   6.000 -0.6969 -0.2545 -0.1788
    6CHL1   C18  397   2.122   2.493   5.997  0.0131 -0.4761 -0.7810
    6CHL1  H18A  398   2.222   2.496   5.949  0.8687 -1.1235  0.8768
    6CHL1  H18B  399   2.146   2.460   6.100  0.0941  1.8119 -0.0280
    6CHL1  H18C  400   2.053   2.422   5.944  1.2498 -1.2949 -1.3367
    6CHL1   C12  401   2.150   2.744   6.080 -0.2684  0.2732  0.0748
    6CHL1  H12A  402   2.253   2.744   6.040 -0.2650 -0.0267  0.0823
    6CHL1  H12B  403   2.125   2.852   6.069  1.3934  0.6171 -0.5856
    6CHL1   C11  404   2.150   2.705   6.224  0.2642 -0.1274 -0.7107
    6CHL1  H11A  405   2.200   2.606   6.228  0.7124  0.0826 -0.9446
    6CHL1  H11B  406   2.207   2.781   6.282 -1.9286  1.9310 -1.1191
    6CHL1    C9  407   2.008   2.693   6.292 -0.2457  0.1889  0.1810
    6CHL1    H9  408   1.970   2.797   6.280  3.4664  1.5398 -1.2860
    6CHL1   C10  409   2.014   2.647   6.440  0.0202 -0.0120 -0.9048
    6CHL1   C19  410   2.095   2.514   6.459 -0.2106  0.2208 -0.7322
    6CHL1  H19A  411   2.203   2.521   6.435 -0.0823  1.0426  0.0429
    6CHL1  H19B  412   2.094   2.486   6.566 -0.9052  3.1040  0.0947
    6CHL1  H19C  413   2.057   2.426   6.402  0.6342 -0.4289 -0.3096
    6CHL1    C1  414   2.074   2.762   6.525 -0.4113 -0.2783  0.9696
    6CHL1   H1A  415   2.180   2.767   6.492 -0.9266 -0.1610 -0.7571
    6CHL1   H1B  416   2.027   2.857   6.493  0.7095 -0.3615 -1.0690
    6CHL1    C2  417   2.061   2.734   6.678 -0.9881  0.7682  0.5606
    6CHL1   H2A  418   2.098   2.822   6.734  1.9901 -0.1708  0.2386
    6CHL1   H2B  419   2.122   2.651   6.720  2.0518  0.3525 -3.9789
    6CHL1   C20  420   2.132   2.645   5.742  0.7531  0.7169  0.4829
    6CHL1   H20  421   2.161   2.539   5.754  0.7152  0.8235  1.6122
    6CHL1   C21  422   2.264   2.723   5.756  0.5487 -0.0663  0.3467
    6CHL1  H21A  423   2.316   2.738   5.659 -0.8612 -0.7058 -0.5325
    6CHL1  H21B  424   2.329   2.676   5.833 -0.0246  0.1763  0.9847
    6CHL1  H21C  425   2.241   2.825   5.794 -0.9448  1.0828 -3.2354
    6CHL1   C22  426   2.077   2.654   5.601  0.0888  0.3307  0.2644
    6CHL1  H22A  427   2.164   2.627   5.537  0.5348  0.2231  0.9148
    6CHL1  H22B  428   1.995   2.584   5.575 -0.8700  1.4366  0.2432
    6CHL1   C23  429   2.031   2.796   5.557 -0.6743  0.7923  0.5524
    6CHL1  H23A  430   1.945   2.822   5.623  0.5692  0.6198  2.3096
    6CHL1  H23B  431   2.120   2.858   5.580  0.6911 -0.0198 -2.1390
    6CHL1   C24  432   2.007   2.794   5.404 -0.3495  0.2430 -0.3135
    6CHL1  H24A  433   2.099   2.758   5.354  0.7754  2.3124  0.1714
    6CHL1  H24B  434   1.929   2.718   5.381  1.8644 -1.3284 -3.3972
    6CHL1   C25  435   1.971   2.935   5.354  0.1415  0.4418 -0.2694
    6CHL1   H25  436   2.050   2.995   5.403  1.5600 -1.8782  0.4774
    6CHL1   C26  437   1.983   2.944   5.204  0.4324 -0.2465 -0.6935
    6CHL1  H26A  438   1.898   2.888   5.161 -0.5408  1.1606 -0.6846
    6CHL1  H26B  439   1.980   3.052   5.176 -0.5562  0.2737  1.2799
    6CHL1  H26C  440   2.077   2.912   5.155 -0.4126  0.0424 -2.6213
    6CHL1   C27  441   1.831   2.969   5.387 -0.4507  0.5004 -0.7013
    6CHL1  H27A  442   1.795   3.069   5.352  0.5900  1.5463  1.0467
    6CHL1  H27B  443   1.757   2.891   5.357 -1.0898  1.7786 -2.6390
    6CHL1  H27C  444   1.824   2.965   5.498  1.1549 -2.7691 -0.6274
    7CHL1    C3  445   4.889   0.965   6.483 -0.5007 -0.6706  0.5071
    7CHL1    H3  446   4.887   1.073   6.457 -0.3626 -0.5616  0.9387
    7CHL1    O3  447   4.906   0.951   6.625 -0.3208 -0.5499 -0.4987
    7CHL1   H3'  448   4.818   0.930   6.656 -0.9600  0.1140 -1.7630
    7CHL1    C4  449   4.751   0.904   6.455  0.5042 -0.8832  0.5019
    7CHL1   H4A  450   4.733   0.806   6.502 -1.9959 -0.8338 -0.1785
    7CHL1   H4B  451   4.669   0.970   6.492 -0.3547 -0.8115 -1.3970
    7CHL1    C5  452   4.721   0.889   6.308 -0.2225  0.3292  0.0817
    7CHL1    C6  453   4.616   0.941   6.247 -0.5546  0.6414  0.0675
    7CHL1    H6  454   4.548   0.989   6.318  1.3732  0.6133  2.0515
    7CHL1    C7  455   4.588   0.938   6.095  0.0328  0.2843  0.1977
    7CHL1   H7A  456   4.482   0.911   6.079  0.2712 -0.0297 -0.9217
    7CHL1   H7B  457   4.623   1.025   6.036 -1.6956  0.4145 -0.6878
    7CHL1    C8  458   4.670   0.817   6.025  0.8755 -0.8695 -0.0977
    7CHL1    H8  459   4.617   0.725   6.057  0.3990 -0.5210  0.1211
    7CHL1   C14  460   4.667   0.821   5.874  0.3255 -0.0220  0.9470
    7CHL1   H14  461   4.701   0.921   5.837 -0.0680 -0.3060 -0.2347
    7CHL1   C15  462   4.529   0.811   5.811  0.3923 -0.1445 -0.6687
    7CHL1  H15A  463   4.469   0.734   5.864  0.7698  0.4912  0.7255
    7CHL1  H15B  464   4.464   0.902   5.806  1.3771  0.5342 -1.6611
    7CHL1   C16  465   4.555   0.775   5.667 -0.4510  0.6987  0.2771
    7CHL1  H16A  466   4.486   0.690   5.646 -2.1283  2.2469 -0.7844
    7CHL1  H16B  467   4.518   0.863   5.610 -1.6420  0.2729  0.3604
    7CHL1   C17  468   4.705   0.741   5.655 -0.3099 -0.1629  0.1330
    7CHL1   H17  469   4.751   0.839   5.631  0.3790 -0.5898 -0.3212
    7CHL1   C13  470   4.752   0.710   5.803  0.1412 -0.1813 -0.3517
    7CHL1   C18  471   4.710   0.563   5.828  0.2057  0.4154 -1.3047
    7CHL1  H18A  472   4.769   0.485   5.776 -0.2178 -0.4742 -0.4833
    7CHL1  H18B  473   4.728   0.541   5.936 -0.3531  3.9734 -0.3431
    7CHL1  H18C  474   4.601   0.545   5.819 -0.0457  0.8564  0.3603
    7CHL1   C12  475   4.901   0.738   5.839 -0.1090 -0.4287 -0.4446
    7CHL1  H12A  476   4.973   0.663   5.800 -1.1277 -1.6822  0.0270
    7CHL1  H12B  477   4.930   0.842   5.812 -2.1396 -0.0529 -1.4208
    7CHL1   C11  478   4.911   0.729   5.995  0.5071 -0.7213  0.5739
    7CHL1  H11A  479   4.906   0.622   6.024  1.9464 -1.3368 -1.2622
    7CHL1  H11B  480   5.017   0.751   6.020  0.7106 -0.7232 -0.2638
    7CHL1    C9  481   4.814   0.825   6.074  0.4387 -0.9020 -0.2014
    7CHL1    H9  482   4.839   0.930   6.049 -0.4715 -0.6044  0.1109
    7CHL1   C10  483   4.831   0.819   6.230 -0.0245 -0.8016 -0.4627
    7CHL1   C19  484   4.819   0.675   6.275 -0.3024  0.1744 -0.3769
    7CHL1  H19A  485   4.730   0.622   6.235 -0.9522  0.1116  1.0557
    7CHL1  H19B  486   4.905   0.618   6.236 -1.7330 -1.4095 -1.3562
    7CHL1  H19C  487   4.816   0.663   6.386 -0.7046 -0.3104 -0.4366
    7CHL1    C1  488   4.966   0.885   6.263  0.1757  0.5612 -0.5254
    7CHL1   H1A  489   5.052   0.841   6.207  0.3772  0.1426  0.1083
    7CHL1   H1B  490   4.956   0.990   6.227 -0.5445  1.0120  0.9293
    7CHL1    C2  491   4.999   0.889   6.412  0.2337  0.0816  0.3509
    7CHL1   H2A  492   5.088   0.956   6.421  0.6859  0.3370 -3.9265
    7CHL1   H2B  493   5.012   0.789   6.458 -0.2464  0.1576  0.6502
    7CHL1   C20  494   4.738   0.651   5.541 -0.0832  0.4070  0.1989
    7CHL1   H20  495   4.694   0.550   5.560  0.7704 -0.4915 -2.2206
    7CHL1   C21  496   4.894   0.641   5.523 -0.1956 -0.0108  0.1044
    7CHL1  H21A  497   4.933   0.592   5.614 -0.1737  0.5306  0.3912
    7CHL1  H21B  498   4.934   0.744   5.519 -1.4667  0.5097  0.2299
    7CHL1  H21C  499   4.923   0.582   5.434  0.7033 -0.6096  0.7870
    7CHL1   C22  500   4.673   0.699   5.402  0.3543  0.1833  0.2102
    7CHL1  H22A  501   4.567   0.726   5.425  0.5527  0.2303  1.1034
    7CHL1  H22B  502   4.722   0.790   5.363  1.5370 -0.3584  0.3893
    7CHL1   C23  503   4.664   0.580   5.298 -0.2034 -0.0325 -0.0929
    7CHL1  H23A  504   4.767   0.569   5.259 -0.5346  1.2123 -1.4180
    7CHL1  H23B  505   4.619   0.491   5.348 -1.1207  0.8454  0.6774
    7CHL1   C24  506   4.570   0.607   5.185 -1.0011 -0.7788 -0.1896
    7CHL1  H24A  507   4.472   0.633   5.232 -0.8584 -0.9659  0.2199
    7CHL1  H24B  508   4.591   0.699   5.126 -0.3279  0.1227  1.3744
    7CHL1   C25  509   4.573   0.498   5.078 -0.0849  0.7594  0.6479
    7CHL1   H25  510   4.674   0.462   5.050 -0.9906 -0.7882 -0.7975
    7CHL1   C26  511   4.480   0.383   5.132 -0.1766  0.5640  0.4722
    7CHL1  H26A  512   4.477   0.301   5.057 -1.1846  0.8418  0.1845
    7CHL1  H26B  513   4.516   0.349   5.231 -1.1881  0.9650  1.0006
    7CHL1  H26C  514   4.381   0.431   5.152 -0.4551 -0.5685  2.0158
    7CHL1   C27  515   4.523   0.547   4.942 -0.1012 -1.2349 -0.0304
    7CHL1  H27A  516   4.581   0.635   4.905 -2.6429  0.9817  0.9925
    7CHL1  H27B  517   4.528   0.476   4.856 -0.2653  1.8890 -2.8479
    7CHL1  H27C  518   4.422   0.590   4.952  1.2931  2.6271 -0.6045
    8CHL1    C3  519   0.628   1.439   6.558 -0.0024  0.4282 -0.0938
    8CHL1    H3  520   0.573   1.346   6.532 -0.8074  0.9681 -0.3638
    8CHL1    O3  521   0.587   1.446   6.697  0.3011 -0.1789 -0.0426
    8CHL1   H3'  522   0.625   1.531   6.721  1.7377 -0.4308 -1.2995
    8CHL1    C4  523   0.779   1.431   6.533  0.3391 -0.6612 -0.2811
    8CHL1   H4A  524   0.810   1.527   6.579  2.2611 -1.8726  1.0935
    8CHL1   H4B  525   0.815   1.352   6.602  0.2439  1.1459  1.9368
    8CHL1    C5  526   0.813   1.412   6.386  0.3214  1.1041 -0.5154
    8CHL1    C6  527   0.884   1.301   6.344  0.4480 -0.2140  0.2075
    8CHL1    H6  528   0.913   1.228   6.421 -0.1729 -1.3927 -0.6424
    8CHL1    C7  529   0.917   1.269   6.201  0.0194  0.2352 -0.1145
    8CHL1   H7A  530   1.026   1.248   6.210  0.2879  2.0638  1.7119
    8CHL1   H7B  531   0.867   1.173   6.175  0.8889 -0.1730 -0.3094
    8CHL1    C8  532   0.878   1.379   6.101 -0.6054  0.2158 -0.4251
    8CHL1    H8  533   0.965   1.447   6.114 -0.3972 -0.0778 -0.2777
    8CHL1   C14  534   0.876   1.331   5.962  0.7450 -0.5351 -0.1652
    8CHL1   H14  535   0.799   1.252   5.967  0.6492 -0.8408 -3.6279
    8CHL1   C15  536   0.995   1.254   5.908  0.0929 -1.0076  0.3801
    8CHL1  H15A  537   1.099   1.288   5.928 -0.3043  0.5981 -0.1565
    8CHL1  H15B  538   0.978   1.158   5.961 -2.6507 -0.8059 -0.0240
    8CHL1   C16  539   0.968   1.247   5.757 -0.3471  0.0465  0.0228
    8CHL1  H16A  540   1.057   1.281   5.700  2.8911 -2.6823  2.9610
    8CHL1  H16B  541   0.948   1.144   5.721 -1.8492  0.8093 -1.4906
    8CHL1   C17  542   0.843   1.344   5.731  0.4339 -0.1256 -0.5866
    8CHL1   H17  543   0.752   1.280   5.730  0.0458  0.3288  1.4362
    8CHL1   C13  544   0.832   1.431   5.861  0.4771  0.2995  0.5144
    8CHL1   C18  545   0.921   1.559   5.861 -0.3118  0.3959  0.4926
    8CHL1  H18A  546   0.937   1.601   5.962  0.1736  1.3266  0.0409
    8CHL1  H18B  547   1.022   1.535   5.821 -0.2851  1.6877 -0.2959
    8CHL1  H18C  548   0.882   1.642   5.798  2.5021  0.2582 -1.6375
    8CHL1   C12  549   0.686   1.460   5.902 -0.3523  0.6951 -0.1375
    8CHL1  H12A  550   0.631   1.524   5.829 -0.7548  0.5202  0.0116
    8CHL1  H12B  551   0.635   1.363   5.918  1.1433  0.2136  2.0464
    8CHL1   C11  552   0.678   1.529   6.041  0.9607 -0.2616 -0.2874
    8CHL1  H11A  553   0.735   1.625   6.041  0.6002 -0.0084  1.7488
    8CHL1  H11B  554   0.571   1.545   6.065  0.8522 -2.1710  0.7525
    8CHL1    C9  555   0.743   1.443   6.150  0.0621  0.6983  0.1579
    8CHL1    H9  556   0.675   1.357   6.164 -0.9971  1.3641 -0.7098
    8CHL1   C10  557   0.749   1.510   6.292  0.2555 -0.1146  0.2864
    8CHL1   C19  558   0.837   1.644   6.285  0.8467  1.3767 -0.0723
    8CHL1  H19A  559   0.864   1.682   6.386 -0.3454  1.6525  0.1571
    8CHL1  H19B  560   0.934   1.632   6.231  0.6817 -2.0677  0.1965
    8CHL1  H19C  561   0.768   1.722   6.245 -2.1579 -0.5806  0.9280
    8CHL1    C1  562   0.593   1.541   6.328 -0.6146 -0.0890 -0.7772
    8CHL1   H1A  563   0.556   1.635   6.284  0.4865  0.9634  0.4602
    8CHL1   H1B  564   0.535   1.453   6.292 -0.9497 -0.1769 -0.0374
    8CHL1    C2  565   0.568   1.556   6.481 -0.4142 -0.2883  0.0624
    8CHL1   H2A  566   0.459   1.577   6.480 -0.5745 -0.8581 -2.6091
    8CHL1   H2B  567   0.631   1.640   6.517 -1.6889  1.5002 -1.6493
    8CHL1   C20  568   0.864   1.408   5.597  0.6472  0.2861 -0.2793
    8CHL1   H20  569   0.958   1.466   5.606  0.7060 -0.0402  1.6516
    8CHL1   C21  570   0.744   1.509   5.572 -0.5352  0.3024  0.6151
    8CHL1  H21A  571   0.647   1.460   5.595 -0.1342 -0.6160  0.3999
    8CHL1  H21B  572   0.738   1.567   5.477  1.0455 -0.8261 -0.2044
    8CHL1  H21C  573   0.745   1.589   5.649 -1.4514  0.2905  0.6515
    8CHL1   C22  574   0.872   1.310   5.476 -0.3825  0.6153  0.4639
    8CHL1  H22A  575   0.950   1.233   5.493 -0.0239  0.9341  0.2867
    8CHL1  H22B  576   0.777   1.260   5.448 -1.1144  2.3297 -0.2676
    8CHL1   C23  577   0.923   1.388   5.351  0.2312 -0.2188 -0.3184
    8CHL1  H23A  578   0.829   1.424   5.304  0.6093  0.6091 -0.4433
    8CHL1  H23B  579   0.986   1.473   5.384 -1.0550  0.0091  1.7795
    8CHL1   C24  580   0.991   1.293   5.243 -0.0743  0.2614 -0.1523
    8CHL1  H24A  581   1.075   1.247   5.299 -0.3240  0.8372  0.6971
    8CHL1  H24B  582   0.914   1.217   5.217 -0.3637  0.3830  0.3377
    8CHL1   C25  583   1.052   1.359   5.117  0.2612  0.5110 -0.8102
    8CHL1   H25  584   1.101   1.455   5.143 -0.8645  0.6827  0.7955
    8CHL1   C26  585   1.161   1.269   5.052 -0.5446  0.2061 -0.2969
    8CHL1  H26A  586   1.118   1.175   5.013  1.2254 -1.8238  2.2869
    8CHL1  H26B  587   1.213   1.333   4.977 -0.9977  2.1622  0.9933
    8CHL1  H26C  588   1.231   1.222   5.124 -1.8248 -1.8745 -0.3242
    8CHL1   C27  589   0.933   1.369   5.014 -0.0799  0.2536 -0.2786
    8CHL1  H27A  590   0.968   1.400   4.913  2.6265  1.0272  0.8022
    8CHL1  H27B  591   0.894   1.268   4.989  0.2488  0.1929 -0.5571
    8CHL1  H27C  592   0.854   1.440   5.046 -0.2294 -0.4957  1.0573
    9CHL1    C3  593   3.444   1.910   6.851  1.3000 -0.0520  0.2674
    9CHL1    H3  594   3.352   1.847   6.852 -0.0625  1.8519  0.0090
    9CHL1    O3  595   3.481   1.924   6.988 -0.0240  0.0872  0.2935
    9CHL1   H3'  596   3.468   2.019   7.000  0.5193  0.1028  0.8367
    9CHL1    C4  597   3.559   1.845   6.776  1.0095 -0.0927  0.3718
    9CHL1   H4A  598   3.658   1.892   6.796  0.9188  1.4955 -2.4769
    9CHL1   H4B  599   3.563   1.739   6.811  1.1908 -0.0076  0.6133
    9CHL1    C5  600   3.520   1.845   6.630 -0.4640 -0.1189  0.3157
    9CHL1    C6  601   3.506   1.725   6.559  0.3974 -0.4448 -0.1730
    9CHL1    H6  602   3.521   1.632   6.616 -0.6650 -1.7256 -1.8762
    9CHL1    C7  603   3.505   1.714   6.410  0.3638 -0.1905  0.5028
    9CHL1   H7A  604   3.578   1.638   6.376  2.0466  1.4673  0.2923
    9CHL1   H7B  605   3.409   1.672   6.372  0.3827  1.0581 -0.9851
    9CHL1    C8  606   3.538   1.844   6.341  0.2826  0.1213 -0.0732
    9CHL1    H8  607   3.647   1.865   6.347  0.4393 -0.8463  0.8773
    9CHL1   C14  608   3.503   1.833   6.191 -0.0643  0.5608  0.3213
    9CHL1   H14  609   3.395   1.808   6.197  0.4168 -1.3251  2.5686
    9CHL1   C15  610   3.566   1.710   6.122 -0.1897 -0.6555  0.6305
    9CHL1  H15A  611   3.671   1.699   6.157  0.6197 -1.5571 -1.8735
    9CHL1  H15B  612   3.509   1.617   6.142  0.1958 -1.5987 -2.1711
    9CHL1   C16  613   3.550   1.753   5.973 -0.5501  0.5788  0.4266
    9CHL1  H16A  614   3.643   1.749   5.912 -0.6207 -2.5879  0.3134
    9CHL1  H16B  615   3.476   1.694   5.916 -0.4610  1.1004 -0.2323
    9CHL1   C17  616   3.497   1.902   5.978  0.8284 -0.2399  0.2576
    9CHL1   H17  617   3.388   1.879   5.972  1.2548 -2.3821 -0.1367
    9CHL1   C13  618   3.522   1.958   6.118 -1.1590  0.2720  0.2927
    9CHL1   C18  619   3.670   2.001   6.116 -0.0930 -0.1053 -0.1549
    9CHL1  H18A  620   3.723   1.940   6.039 -0.4736 -1.2029  0.4410
    9CHL1  H18B  621   3.659   2.107   6.082 -1.4701  0.5655  2.1807
    9CHL1  H18C  622   3.714   1.997   6.218 -2.7733  1.4755  1.1766
    9CHL1   C12  623   3.419   2.055   6.176  0.1929 -0.3013 -0.2681
    9CHL1  H12A  624   3.414   2.144   6.111 -0.0322  1.3938  1.9595
    9CHL1  H12B  625   3.315   2.015   6.177  0.6298 -1.5010  0.7903
    9CHL1   C11  626   3.464   2.095   6.317 -0.2761 -0.2104  0.4463
    9CHL1  H11A  627   3.562   2.146   6.314  0.0614 -0.8178  0.8856
    9CHL1  H11B  628   3.389   2.166   6.360  2.4373  3.1747 -0.0297
    9CHL1    C9  629   3.471   1.964   6.414 -0.0016 -0.1365  0.0569
    9CHL1    H9  630   3.364   1.936   6.418  0.4353 -1.8061  1.5530
    9CHL1   C10  631   3.510   1.983   6.563  0.7893  0.3762  0.3127
    9CHL1   C19  632   3.641   2.065   6.562  0.0485  0.5252 -0.1882
    9CHL1  H19A  633   3.674   2.064   6.668 -3.6613 -1.6166  1.1467
    9CHL1  H19B  634   3.713   2.009   6.498 -0.9710 -1.0778 -0.0128
    9CHL1  H19C  635   3.631   2.169   6.524  0.9692  0.9441  0.6966
    9CHL1    C1  636   3.396   2.059   6.638  0.9348 -0.0622 -0.7245
    9CHL1   H1A  637   3.389   2.164   6.602 -0.1025  0.6735  1.4579
    9CHL1   H1B  638   3.302   2.003   6.619  0.2562  1.6076 -2.6800
    9CHL1    C2  639   3.412   2.053   6.795  0.4064  0.3203 -0.3708
    9CHL1   H2A  640   3.328   2.100   6.850  0.6087  0.6611 -0.3510
    9CHL1   H2B  641   3.505   2.110   6.816 -0.1701  1.3215 -0.5024
    9CHL1   C20  642   3.533   1.983   5.852  0.2011  0.2568  0.5364
    9CHL1   H20  643   3.643   1.997   5.851  0.2061  0.2139  0.1814
    9CHL1   C21  644   3.455   2.119   5.864  0.2148  0.2192 -0.0884
    9CHL1  H21A  645   3.499   2.189   5.937  0.0014 -0.2390  0.4936
    9CHL1  H21B  646   3.352   2.093   5.896 -0.2873 -1.2660 -2.5978
    9CHL1  H21C  647   3.444   2.180   5.771 -0.6527  1.4462  0.7834
    9CHL1   C22  648   3.486   1.912   5.722 -0.0344 -0.3283  0.5981
    9CHL1  H22A  649   3.539   1.815   5.709 -1.5927 -1.3845  1.8724
    9CHL1  H22B  650   3.378   1.888   5.712  0.4656 -1.6361 -2.9420
    9CHL1   C23  651   3.520   1.999   5.600  1.2508  0.3324 -0.2488
    9CHL1  H23A  652   3.440   2.075   5.590  2.5694  1.6755 -1.2010
    9CHL1  H23B  653   3.616   2.052   5.621  0.6378  0.7454  1.7642
    9CHL1   C24  654   3.541   1.906   5.476 -0.0487 -0.2476 -0.7847
    9CHL1  H24A  655   3.629   1.838   5.474  1.3061  1.4036  0.1088
    9CHL1  H24B  656   3.452   1.839   5.470  0.5842 -1.6901  3.0551
    9CHL1   C25  657   3.537   1.970   5.338  0.8262 -0.1623  0.2666
    9CHL1   H25  658   3.438   2.019   5.326  0.2619 -1.5337 -1.0122
    9CHL1   C26  659   3.646   2.074   5.317  0.1339 -0.0369 -0.0396
    9CHL1  H26A  660   3.628   2.167   5.375  2.2549  0.0654  0.5314
    9CHL1  H26B  661   3.737   2.039   5.369  0.3148  2.9169  1.8616
    9CHL1  H26C  662   3.670   2.103   5.212 -2.4781  0.1371 -0.6710
    9CHL1   C27  663   3.547   1.870   5.224 -0.6091  0.7456  0.1236
    9CHL1  H27A  664   3.650   1.836   5.202 -1.4527 -1.4257 -0.7489
    9CHL1  H27B  665   3.474   1.789   5.246  0.0803  0.3011  0.7885
    9CHL1  H27C  666   3.513   1.924   5.133 -1.8700  1.0959  0.7705
   10CHL1    C3  667   2.857   5.636   6.369 -0.4530 -0.2558 -0.2079
   10CHL1    H3  668   2.816   5.736   6.347 -0.3335 -0.2399 -0.3614
   10CHL1    O3  669   2.934   5.641   6.482 -0.4306  0.1553  0.3489
   10CHL1   H3'  670   2.962   5.550   6.492 -1.2517 -0.3820 -1.7515
   10CHL1    C4  671   2.757   5.523   6.367  0.2024  1.1958 -0.9424
   10CHL1   H4A  672   2.794   5.423   6.399 -1.3192  1.0653  0.5509
   10CHL1   H4B  673   2.684   5.540   6.449  0.9945 -0.9216  0.2774
   10CHL1    C5  674   2.690   5.510   6.235  0.4778 -0.1126  0.4475
   10CHL1    C6  675   2.557   5.520   6.228  0.2797 -0.3001  0.6749
   10CHL1    H6  676   2.500   5.518   6.323 -0.2894 -1.4119  0.3243
   10CHL1    C7  677   2.478   5.507   6.099 -0.1409 -0.8890 -0.0209
   10CHL1   H7A  678   2.402   5.426   6.104 -0.3345 -0.6713  0.6729
   10CHL1   H7B  679   2.429   5.606   6.086 -0.1774 -0.8529  0.3799
   10CHL1    C8  680   2.555   5.478   5.966  0.0950 -0.1684  0.1298
   10CHL1    H8  681   2.561   5.367   5.955  0.6921 -0.0893 -0.4038
   10CHL1   C14  682   2.481   5.527   5.847 -0.5132  0.3279  0.1323
   10CHL1   H14  683   2.469   5.637   5.864  2.5023  0.8162 -0.2118
   10CHL1   C15  684   2.341   5.476   5.819 -0.3696 -0.4072  0.9265
   10CHL1  H15A  685   2.335   5.367   5.840  1.7142 -0.6635  0.4279
   10CHL1  H15B  686   2.282   5.530   5.896  0.9382  1.8291  0.4553
   10CHL1   C16  687   2.324   5.504   5.667  0.3099 -0.1948 -0.6701
   10CHL1  H16A  688   2.297   5.414   5.608 -3.0479  0.3391 -0.1811
   10CHL1  H16B  689   2.244   5.581   5.661  1.1769  1.2909  3.5144
   10CHL1   C17  690   2.461   5.568   5.618 -0.5498 -0.0658 -0.0166
   10CHL1   H17  691   2.451   5.678   5.629  0.7700  0.2658 -1.6546
   10CHL1   C13  692   2.565   5.512   5.716  0.0664 -1.2500 -0.7377
   10CHL1   C18  693   2.586   5.362   5.687 -0.1210 -0.0617 -0.9960
   10CHL1  H18A  694   2.642   5.351   5.591 -0.4617 -4.3728 -0.8843
   10CHL1  H18B  695   2.646   5.313   5.766 -0.1038 -0.5789 -1.3229
   10CHL1  H18C  696   2.490   5.306   5.677  0.4454 -1.1373 -0.5482
   10CHL1   C12  697   2.700   5.588   5.723  0.1994 -0.1683 -0.0699
   10CHL1  H12A  698   2.768   5.583   5.635  0.4660  0.4233  0.0964
   10CHL1  H12B  699   2.681   5.697   5.736 -0.7952 -0.4245  0.6915
   10CHL1   C11  700   2.783   5.547   5.845 -0.2089  0.1861  0.4949
   10CHL1  H11A  701   2.827   5.447   5.822 -2.5739 -0.6749 -0.5632
   10CHL1  H11B  702   2.866   5.621   5.848 -0.7092  0.8985 -1.5244
   10CHL1    C9  703   2.696   5.537   5.978 -0.1824  0.0688  0.4986
   10CHL1    H9  704   2.676   5.646   5.989  1.2807  0.4638 -0.4122
   10CHL1   C10  705   2.777   5.499   6.112  0.7481 -0.8079  0.0838
   10CHL1   C19  706   2.836   5.366   6.096  0.2340 -0.2623  1.1278
   10CHL1  H19A  707   2.755   5.295   6.069  1.4246 -1.0363 -0.4806
   10CHL1  H19B  708   2.896   5.359   6.003  0.5680 -0.5772  1.3669
   10CHL1  H19C  709   2.897   5.334   6.183  0.8177  0.2389  0.9129
   10CHL1    C1  710   2.894   5.600   6.125  0.3569 -0.4280  0.3273
   10CHL1   H1A  711   2.968   5.569   6.048  1.0778 -1.0724  1.2585
   10CHL1   H1B  712   2.856   5.701   6.099 -1.1060 -1.2340 -0.8074
   10CHL1    C2  713   2.959   5.601   6.259  0.0020 -0.5593 -0.0209
   10CHL1   H2A  714   3.042   5.676   6.264 -2.2005  2.0543 -0.1121
   10CHL1   H2B  715   3.000   5.504   6.294 -1.1706 -0.8219  0.6670
   10CHL1   C20  716   2.478   5.543   5.460  0.3903  0.4855 -0.3620
   10CHL1   H20  717   2.465   5.433   5.459 -1.4151  0.5799  2.5761
   10CHL1   C21  718   2.618   5.578   5.406  0.4326 -0.4134  0.2828
   10CHL1  H21A  719   2.617   5.560   5.296 -1.1882  2.8111 -0.3368
   10CHL1  H21B  720   2.696   5.508   5.444  0.3608  0.5318  2.2920
   10CHL1  H21C  721   2.650   5.681   5.432  0.2449 -0.1024 -0.6918
   10CHL1   C22  722   2.360   5.596   5.374 -0.2081  0.6477  0.2136
   10CHL1  H22A  723   2.269   5.608   5.438  0.1418  1.2451  0.6089
   10CHL1  H22B  724   2.379   5.700   5.338  0.1130  0.2160 -0.9002
   10CHL1   C23  725   2.320   5.502   5.258  0.2871  0.4296 -0.0738
   10CHL1  H23A  726   2.252   5.560   5.192  0.2045  0.9564  0.4681
   10CHL1  H23B  727   2.403   5.475   5.188 -0.3291  0.3215 -0.7751
   10CHL1   C24  728   2.247   5.378   5.311 -0.2099 -0.5172  0.3763
   10CHL1  H24A  729   2.331   5.317   5.350 -0.6509 -1.8806 -0.6947
   10CHL1  H24B  730   2.172   5.402   5.389 -0.7102 -0.5165 -0.0958
   10CHL1   C25  731   2.156   5.313   5.204  0.5296 -0.5082  0.5110
   10CHL1   H25  732   2.097   5.394   5.157  0.4705 -0.8153  0.0473
   10CHL1   C26  733   2.224   5.227   5.094 -0.3901 -0.4838 -0.3097
   10CHL1  H26A  734   2.284   5.293   5.027 -1.5203  1.3269  0.3718
   10CHL1  H26B  735   2.283   5.147   5.143  1.8559  1.1666 -0.1467
   10CHL1  H26C  736   2.142   5.179   5.037  0.6266 -2.8886  0.1163
   10CHL1   C27  737   2.044   5.224   5.267 -0.6366  0.8061 -0.6984
   10CHL1  H27A  738   1.986   5.164   5.193 -2.1921  1.9550 -0.4645
   10CHL1  H27B  739   2.087   5.145   5.333 -1.4585  0.8135 -0.1406
   10CHL1  H27C  740   1.975   5.285   5.329 -1.4859 -1.4662  0.7326
   11CHL1    C3  741   6.699   6.674   6.645 -0.2511  0.4647 -0.7337
   11CHL1    H3  742   6.617   6.748   6.636  0.0859  0.5990 -4.1217
   11CHL1    O3  743   6.724   6.646   6.778 -0.0682 -0.3601 -0.0955
   11CHL1   H3'  744   6.817   6.624   6.778  0.2959  1.0759  0.2115
   11CHL1    C4  745   6.666   6.547   6.579  0.1587  0.8474  0.5228
   11CHL1   H4A  746   6.726   6.463   6.623 -3.3932 -1.5268  1.2791
   11CHL1   H4B  747   6.566   6.508   6.608  0.4885 -1.4369 -1.1544
   11CHL1    C5  748   6.676   6.553   6.427  0.4032 -0.6791  0.1397
   11CHL1    C6  749   6.574   6.502   6.359 -0.1518 -1.1456  0.3784
   11CHL1    H6  750   6.491   6.460   6.418 -1.4663 -0.5810 -0.9849
   11CHL1    C7  751   6.578   6.499   6.214  0.2299 -0.0975  0.2938
   11CHL1   H7A  752   6.534   6.401   6.185  2.4475 -0.0628 -4.0150
   11CHL1   H7B  753   6.506   6.568   6.165  0.8546  1.4922  1.5559
   11CHL1    C8  754   6.714   6.522   6.143  0.0631 -0.6695 -0.3931
   11CHL1    H8  755   6.772   6.431   6.168  0.0220 -0.8391 -0.8953
   11CHL1   C14  756   6.697   6.537   5.992  0.4401 -0.5806  0.4242
   11CHL1   H14  757   6.639   6.632   5.991  1.4320  0.0598  1.7109
   11CHL1   C15  758   6.613   6.431   5.916  0.3665 -0.0880 -0.0939
   11CHL1  H15A  759   6.637   6.329   5.954  1.3015  0.5374  1.0807
   11CHL1  H15B  760   6.506   6.443   5.941 -0.1696  1.8610 -2.9820
   11CHL1   C16  761   6.645   6.462   5.766  0.0832 -0.1703 -0.3499
   11CHL1  H16A  762   6.706   6.378   5.725  0.5546  0.7624 -1.6415
   11CHL1  H16B  763   6.555   6.474   5.702 -1.4341 -0.6923  1.5952
   11CHL1   C17  764   6.748   6.580   5.768 -0.5673 -0.1285 -0.6992
   11CHL1   H17  765   6.691   6.675   5.775  1.2775  0.9623  0.5576
   11CHL1   C13  766   6.820   6.572   5.904 -0.4314 -0.0539 -0.6878
   11CHL1   C18  767   6.926   6.462   5.915  0.2655  0.1426  0.0602
   11CHL1  H18A  768   6.916   6.422   6.018 -0.2343  1.4519  0.5523
   11CHL1  H18B  769   6.919   6.378   5.843  2.8111  2.4896 -3.2286
   11CHL1  H18C  770   7.027   6.506   5.911 -1.1705  3.6768 -1.9055
   11CHL1   C12  771   6.881   6.699   5.967 -0.1675  0.0565  0.1675
   11CHL1  H12A  772   6.969   6.728   5.907  1.7586 -1.3195  2.1643
   11CHL1  H12B  773   6.814   6.788   5.965 -0.8106 -0.4262 -0.9464
   11CHL1   C11  774   6.908   6.680   6.121 -1.2464 -0.0413  0.8712
   11CHL1  H11A  775   6.984   6.600   6.132 -0.6581  0.4486  0.4164
   11CHL1  H11B  776   6.951   6.775   6.160  1.3179 -0.7901  0.0427
   11CHL1    C9  777   6.784   6.644   6.204 -0.6740  0.1837  0.4786
   11CHL1    H9  778   6.712   6.729   6.203  3.1480  3.7663  1.1896
   11CHL1   C10  779   6.803   6.624   6.360  0.0983 -0.1128  0.4120
   11CHL1   C19  780   6.924   6.534   6.389 -0.2658 -0.2962 -0.4225
   11CHL1  H19A  781   7.021   6.583   6.362 -0.6837 -0.4694 -2.4418
   11CHL1  H19B  782   6.927   6.487   6.489 -1.3182 -1.2848 -0.8313
   11CHL1  H19C  783   6.917   6.442   6.327  1.0322 -0.7249  0.0291
   11CHL1    C1  784   6.819   6.757   6.435 -0.3737 -0.3684  0.4118
   11CHL1   H1A  785   6.918   6.789   6.395 -0.6308 -0.5506 -0.4070
   11CHL1   H1B  786   6.741   6.833   6.411 -0.5842 -0.8490 -0.4856
   11CHL1    C2  787   6.828   6.744   6.586 -0.3148 -0.5702 -0.0840
   11CHL1   H2A  788   6.836   6.838   6.645  0.8499 -1.6749  1.6512
   11CHL1   H2B  789   6.918   6.686   6.619 -0.6325 -0.3627  1.1941
   11CHL1   C20  790   6.832   6.587   5.639  0.4420 -0.2895  0.0827
   11CHL1   H20  791   6.918   6.519   5.653  0.1433 -1.0671 -1.6236
   11CHL1   C21  792   6.895   6.737   5.633  0.2574  0.7447  0.5476
   11CHL1  H21A  793   6.977   6.751   5.708  1.0893 -0.4692 -0.0945
   11CHL1  H21B  794   6.813   6.811   5.636  0.0837  0.5349  2.0894
   11CHL1  H21C  795   6.952   6.748   5.539  1.7381 -1.4859  1.1070
   11CHL1   C22  796   6.760   6.551   5.512 -0.6244 -0.0447  0.6101
   11CHL1  H22A  797   6.711   6.452   5.523  1.5523 -1.0177  2.0363
   11CHL1  H22B  798   6.678   6.622   5.486 -0.8286 -0.8760 -1.1649
   11CHL1   C23  799   6.865   6.539   5.393 -0.6041 -0.7762  0.6794
   11CHL1  H23A  800   6.894   6.637   5.349 -1.0135  0.3646  2.8326
   11CHL1  H23B  801   6.955   6.491   5.436  0.6770 -0.7396 -1.8006
   11CHL1   C24  802   6.795   6.444   5.285 -0.6084 -0.1830 -0.0136
   11CHL1  H24A  803   6.787   6.343   5.330 -2.9012 -0.9060 -1.8842
   11CHL1  H24B  804   6.692   6.483   5.272 -1.2099 -1.4703  0.7493
   11CHL1   C25  805   6.867   6.429   5.148  0.2128 -0.1828 -0.5389
   11CHL1   H25  806   6.921   6.525   5.136 -0.1913  0.2456  0.8973
   11CHL1   C26  807   6.962   6.310   5.145 -0.4271  0.2743  0.7568
   11CHL1  H26A  808   7.016   6.296   5.049 -0.2138  0.4847  0.8468
   11CHL1  H26B  809   7.041   6.310   5.223  0.7717 -0.8280 -0.3858
   11CHL1  H26C  810   6.910   6.213   5.161 -2.2439  1.1771  0.6196
   11CHL1   C27  811   6.766   6.422   5.037 -0.2074  0.5736  0.4020
   11CHL1  H27A  812   6.706   6.515   5.032 -0.6488  0.3385  1.2385
   11CHL1  H27B  813   6.825   6.410   4.943  0.4435 -1.1295  0.9902
   11CHL1  H27C  814   6.695   6.339   5.056 -2.9062  2.6944  0.0638
   12CHL1    C3  815   1.360   0.335   6.652  0.5789 -0.1673  0.1511
   12CHL1    H3  816   1.349   0.445   6.645 -1.4013 -0.3151  0.3881
   12CHL1    O3  817   1.343   0.279   6.781 -0.2407  0.1618  0.6615
   12CHL1   H3'  818   1.268   0.332   6.810 -1.6307  0.7709 -3.4694
   12CHL1    C4  819   1.259   0.272   6.557 -0.7905 -0.5312  0.0674
   12CHL1   H4A  820   1.258   0.162   6.571 -0.7285 -0.4418  0.8461
   12CHL1   H4B  821   1.157   0.296   6.595 -1.9204 -0.1997 -2.9519
   12CHL1    C5  822   1.281   0.314   6.413 -0.2620 -0.1849  0.3921
   12CHL1    C6  823   1.199   0.389   6.338 -0.6699 -0.5483 -0.0342
   12CHL1    H6  824   1.099   0.414   6.375 -0.5695 -0.7749  0.3937
   12CHL1    C7  825   1.219   0.421   6.187  0.4652  0.0400 -0.0724
   12CHL1   H7A  826   1.121   0.393   6.143 -0.5791  1.4345  1.2847
   12CHL1   H7B  827   1.234   0.531   6.179  0.8112 -0.0061 -0.0822
   12CHL1    C8  828   1.340   0.336   6.115 -0.4258 -0.2076 -0.2597
   12CHL1    H8  829   1.301   0.237   6.083 -3.9571  1.0362 -0.2560
   12CHL1   C14  830   1.391   0.406   5.988  0.6970  0.0802 -0.2027
   12CHL1   H14  831   1.427   0.505   6.022  1.4143  0.1269 -1.0595
   12CHL1   C15  832   1.289   0.445   5.874 -0.1832 -0.0153 -0.9225
   12CHL1  H15A  833   1.220   0.361   5.851  2.3578 -2.2079 -0.9115
   12CHL1  H15B  834   1.216   0.519   5.915 -1.6812 -2.6702  1.5212
   12CHL1   C16  835   1.386   0.466   5.757 -0.1098 -0.7635  0.4065
   12CHL1  H16A  836   1.345   0.404   5.675  1.7150 -1.1286 -0.2828
   12CHL1  H16B  837   1.386   0.572   5.726  2.2252 -0.8896 -0.1843
   12CHL1   C17  838   1.530   0.421   5.791  0.2066 -0.7475 -0.6144
   12CHL1   H17  839   1.577   0.511   5.837  0.1000 -0.9939 -0.0198
   12CHL1   C13  840   1.507   0.333   5.921  1.2410  0.3604  0.2283
   12CHL1   C18  841   1.471   0.188   5.872  0.0364 -0.6527  0.5844
   12CHL1  H18A  842   1.392   0.187   5.794  0.9670 -2.4342 -0.3982
   12CHL1  H18B  843   1.561   0.137   5.834 -0.4067  0.0008 -1.4372
   12CHL1  H18C  844   1.425   0.132   5.957 -0.2342  0.2033  1.0201
   12CHL1   C12  845   1.628   0.335   6.017 -0.1687  0.7202 -0.8833
   12CHL1  H12A  846   1.718   0.294   5.966 -0.6183  0.1193 -1.2029
   12CHL1  H12B  847   1.656   0.441   6.038 -2.8207  1.1680  0.9332
   12CHL1   C11  848   1.587   0.261   6.148 -0.0719 -0.5569 -0.1199
   12CHL1  H11A  849   1.569   0.152   6.142  1.0489 -0.6996 -1.5463
   12CHL1  H11B  850   1.666   0.286   6.222  0.1430  0.5653 -0.6984
   12CHL1    C9  851   1.459   0.329   6.214  0.1005  0.5386  0.0725
   12CHL1    H9  852   1.485   0.436   6.228 -0.8994  0.9181 -0.8778
   12CHL1   C10  853   1.419   0.271   6.354 -0.1873 -0.0278 -0.1521
   12CHL1   C19  854   1.418   0.113   6.345 -0.0190 -0.5093 -0.1921
   12CHL1  H19A  855   1.520   0.073   6.329 -0.6176 -2.0861 -0.2310
   12CHL1  H19B  856   1.397   0.067   6.444 -0.2882  0.1657  0.0694
   12CHL1  H19C  857   1.347   0.068   6.273 -1.3010  1.9101 -0.5192
   12CHL1    C1  858   1.525   0.335   6.452  0.0261  0.2356  0.1708
   12CHL1   H1A  859   1.628   0.296   6.436 -0.0436 -0.4053  1.1527
   12CHL1   H1B  860   1.533   0.444   6.435  1.0800  0.1618  0.1405
   12CHL1    C2  861   1.504   0.297   6.605  0.4118  0.0828  0.3420
   12CHL1   H2A  862   1.571   0.360   6.668  1.2320 -0.5912  0.1604
   12CHL1   H2B  863   1.521   0.193   6.641  2.6956  0.2594 -0.0879
   12CHL1   C20  864   1.619   0.384   5.678  1.3227 -0.3161  0.0141
   12CHL1   H20  865   1.586   0.282   5.648 -1.4568  0.2012  0.9790
   12CHL1   C21  866   1.767   0.370   5.723  0.1606  0.1068  0.3432
   12CHL1  H21A  867   1.802   0.450   5.792  2.0000 -0.5151  0.1746
   12CHL1  H21B  868   1.821   0.363   5.626  1.7468 -0.4088  1.2262
   12CHL1  H21C  869   1.784   0.274   5.776  1.1723  0.4844  0.7110
   12CHL1   C22  870   1.608   0.471   5.547  0.3988  0.2797 -0.1092
   12CHL1  H22A  871   1.658   0.424   5.460  0.1250 -2.9821  1.3303
   12CHL1  H22B  872   1.503   0.481   5.511 -0.2062  3.1523  2.0712
   12CHL1   C23  873   1.660   0.612   5.562  0.3076  0.2183 -0.6255
   12CHL1  H23A  874   1.585   0.659   5.629  0.2101 -0.3732 -0.3173
   12CHL1  H23B  875   1.759   0.620   5.612 -0.5202  2.3011  0.8263
   12CHL1   C24  876   1.675   0.702   5.439 -0.2136 -0.0395  0.9015
   12CHL1  H24A  877   1.737   0.660   5.357  0.9408  0.0978  1.6800
   12CHL1  H24B  878   1.571   0.707   5.401 -0.6002 -0.3521  1.8866
   12CHL1   C25  879   1.707   0.847   5.474 -0.2502 -0.0894  0.3459
   12CHL1   H25  880   1.623   0.878   5.541 -0.4171 -3.3048  1.7936
   12CHL1   C26  881   1.840   0.861   5.551  0.0100  0.8672 -0.4756
   12CHL1  H26A  882   1.860   0.967   5.578  1.3718  0.5551 -0.1843
   12CHL1  H26B  883   1.838   0.805   5.647  1.8016 -1.2003 -1.5677
   12CHL1  H26C  884   1.926   0.829   5.489  0.2940 -0.8039  0.7257
   12CHL1   C27  885   1.687   0.938   5.352  0.1425  0.1617  0.5168
   12CHL1  H27A  886   1.700   1.046   5.378 -0.0917  0.1257  0.7858
   12CHL1  H27B  887   1.753   0.916   5.265 -3.0300 -0.1535 -1.9821
   12CHL1  H27C  888   1.585   0.924   5.310  1.0758 -0.1660 -1.8388
   13CHL1    C3  889   0.729   0.464   6.784 -0.0206 -0.3644 -0.1018
   13CHL1    H3  890   0.638   0.406   6.808 -0.9360  1.7375  1.9247
   13CHL1    O3  891   0.790   0.497   6.909 -0.6246  0.0247  0.1416
   13CHL1   H3'  892   0.742   0.575   6.937 -2.0507 -0.6051 -0.4543
   13CHL1    C4  893   0.835   0.379   6.703  1.0944 -0.2986 -0.0504
   13CHL1   H4A  894   0.929   0.438   6.710  0.4700  0.5906  1.2142
   13CHL1   H4B  895   0.858   0.289   6.764  1.0568  0.2947  0.8654
   13CHL1    C5  896   0.798   0.358   6.559  0.7701  0.2374  0.8157
   13CHL1    C6  897   0.803   0.239   6.498  0.1175 -0.3029  0.0028
   13CHL1    H6  898   0.831   0.153   6.561  0.5464 -0.4158 -0.3361
   13CHL1    C7  899   0.770   0.209   6.360 -0.3098 -0.4982  0.4360
   13CHL1   H7A  900   0.838   0.127   6.328  0.3045 -0.4883  1.6530
   13CHL1   H7B  901   0.665   0.173   6.358 -1.3946  2.4317 -1.0466
   13CHL1    C8  902   0.770   0.340   6.273 -0.0801 -0.3278  0.2684
   13CHL1    H8  903   0.875   0.373   6.259  0.5009 -2.0854  0.2204
   13CHL1   C14  904   0.700   0.303   6.145 -0.3454  0.2187 -0.4912
   13CHL1   H14  905   0.597   0.287   6.184 -0.5721  1.4065 -0.5602
   13CHL1   C15  906   0.759   0.190   6.067 -0.4029 -0.1331 -0.7700
   13CHL1  H15A  907   0.869   0.175   6.074 -0.4134  0.5085  1.7163
   13CHL1  H15B  908   0.716   0.094   6.102  2.8377 -1.5440 -0.3038
   13CHL1   C16  909   0.713   0.220   5.923 -0.3646  0.2262 -0.2964
   13CHL1  H16A  910   0.800   0.215   5.854 -1.0366 -0.6455 -1.1191
   13CHL1  H16B  911   0.647   0.140   5.884  1.9972 -1.5036 -0.9700
   13CHL1   C17  912   0.638   0.352   5.928  0.1674 -0.4889 -0.5813
   13CHL1   H17  913   0.534   0.321   5.951  0.2728 -0.4244 -0.0025
   13CHL1   C13  914   0.694   0.430   6.051 -0.6405 -0.1093 -0.7526
   13CHL1   C18  915   0.838   0.471   6.007  0.4170  0.2677 -0.5224
   13CHL1  H18A  916   0.903   0.501   6.093 -0.0705 -1.7864  0.6367
   13CHL1  H18B  917   0.891   0.401   5.939 -0.5232  0.2924 -1.2929
   13CHL1  H18C  918   0.814   0.558   5.944 -0.2812 -0.0672 -0.7209
   13CHL1   C12  919   0.620   0.540   6.127 -0.2251 -0.1169  0.2656
   13CHL1  H12A  920   0.633   0.629   6.061 -0.2380 -0.0781  0.3150
   13CHL1  H12B  921   0.514   0.513   6.148  1.0128 -4.5302  1.8398
   13CHL1   C11  922   0.684   0.578   6.254  0.0566 -0.2722 -0.5721
   13CHL1  H11A  923   0.775   0.639   6.231 -0.9585  0.3950 -3.2579
   13CHL1  H11B  924   0.621   0.651   6.309  1.2730  2.2737 -2.2990
   13CHL1    C9  925   0.699   0.458   6.347  0.2169  0.8653  0.4977
   13CHL1    H9  926   0.598   0.414   6.360  0.0717  0.0495 -2.7314
   13CHL1   C10  927   0.754   0.482   6.488  0.6761 -0.7358 -0.2392
   13CHL1   C19  928   0.877   0.570   6.467  0.4800  0.2373  0.0274
   13CHL1  H19A  929   0.945   0.575   6.555 -1.8189 -0.5050  1.9521
   13CHL1  H19B  930   0.932   0.551   6.372 -2.8556 -0.3118 -1.9827
   13CHL1  H19C  931   0.841   0.675   6.457  1.8669  0.7302  0.0195
   13CHL1    C1  932   0.642   0.552   6.573 -0.0026  0.1701 -0.3725
   13CHL1   H1A  933   0.596   0.634   6.514 -3.7258 -2.1378 -1.0238
   13CHL1   H1B  934   0.561   0.476   6.587  0.7073 -0.3291  1.2222
   13CHL1    C2  935   0.686   0.594   6.710  0.3510  0.6457  0.0398
   13CHL1   H2A  936   0.610   0.647   6.771  0.0034 -0.7086  0.8175
   13CHL1   H2B  937   0.773   0.661   6.696  0.4162  0.8955  1.5074
   13CHL1   C20  938   0.645   0.421   5.789 -0.6317 -0.3727 -0.2940
   13CHL1   H20  939   0.746   0.464   5.771 -0.2996 -1.2391 -0.5732
   13CHL1   C21  940   0.541   0.532   5.796 -0.5148 -0.5394 -0.0282
   13CHL1  H21A  941   0.548   0.594   5.703  1.6308 -0.1339  0.3659
   13CHL1  H21B  942   0.547   0.593   5.889 -0.6413 -1.6533  0.7268
   13CHL1  H21C  943   0.436   0.495   5.804 -1.7814  2.7958  0.5971
   13CHL1   C22  944   0.608   0.330   5.667  0.0918 -0.0996  0.4567
   13CHL1  H22A  945   0.662   0.232   5.662  0.7785  0.3318 -1.3149
   13CHL1  H22B  946   0.499   0.312   5.654 -0.6067  3.8217 -0.3741
   13CHL1   C23  947   0.661   0.385   5.533  0.1868  0.0148  0.2948
   13CHL1  H23A  948   0.628   0.489   5.514  0.8878  0.0849 -0.6216
   13CHL1  H23B  949   0.771   0.405   5.532  0.2481 -0.2152  1.1609
   13CHL1   C24  950   0.616   0.296   5.420  0.6681 -0.6372 -0.2776
   13CHL1  H24A  951   0.632   0.188   5.444  0.5329 -0.2655  1.6058
   13CHL1  H24B  952   0.505   0.306   5.413  0.7110  1.2566  1.0539
   13CHL1   C25  953   0.699   0.336   5.294  0.3698  0.4012 -0.1583
   13CHL1   H25  954   0.807   0.349   5.315  0.5016 -1.1821  0.3325
   13CHL1   C26  955   0.678   0.219   5.190  0.4269 -0.7458 -0.0221
   13CHL1  H26A  956   0.715   0.118   5.217 -1.8020 -1.5502  0.2666
   13CHL1  H26B  957   0.568   0.214   5.173  0.5167 -2.5659 -0.2635
   13CHL1  H26C  958   0.721   0.251   5.093 -0.9734 -1.4085 -0.8995
   13CHL1   C27  959   0.658   0.466   5.224 -0.0441  0.3358  0.7401
   13CHL1  H27A  960   0.737   0.503   5.155 -1.8737 -0.0873 -1.6763
   13CHL1  H27B  961   0.563   0.455   5.168  0.6189  0.1909 -0.3828
   13CHL1  H27C  962   0.645   0.542   5.304  0.4563 -0.4788  1.6137
   14CHL1    C3  963   0.672   3.713   6.341 -0.3581  0.0780  0.7009
   14CHL1    H3  964   0.635   3.783   6.263 -2.0918 -0.9053  0.5813
   14CHL1    O3  965   0.674   3.780   6.464 -0.3490  0.7280 -0.0372
   14CHL1   H3'  966   0.682   3.710   6.529  0.4464  0.7703 -0.0749
   14CHL1    C4  967   0.587   3.586   6.344 -0.0021 -0.4892 -0.2387
   14CHL1   H4A  968   0.636   3.508   6.406  0.9812  0.5172  0.2862
   14CHL1   H4B  969   0.487   3.611   6.388 -0.8831 -2.6224 -0.9038
   14CHL1    C5  970   0.581   3.540   6.207 -0.3066 -0.1417  0.0818
   14CHL1    C6  971   0.462   3.542   6.147  0.0675 -0.4265  0.0862
   14CHL1    H6  972   0.371   3.572   6.202 -0.7125 -0.1428 -1.3246
   14CHL1    C7  973   0.434   3.501   6.009 -0.2829  0.9690 -0.5903
   14CHL1   H7A  974   0.349   3.429   6.002 -0.1916  0.5952  1.4032
   14CHL1   H7B  975   0.399   3.589   5.952 -2.4598  0.2797 -0.4360
   14CHL1    C8  976   0.553   3.441   5.939 -0.9625  0.0011 -0.2150
   14CHL1    H8  977   0.549   3.333   5.963 -0.1494 -0.3875 -1.7194
   14CHL1   C14  978   0.544   3.461   5.786 -0.6521 -0.1609 -0.0785
   14CHL1   H14  979   0.565   3.566   5.758 -0.1255  0.1409  1.3710
   14CHL1   C15  980   0.405   3.439   5.721  0.3802  0.6684 -0.0342
   14CHL1  H15A  981   0.358   3.346   5.760 -2.6783  2.4543  0.8702
   14CHL1  H15B  982   0.330   3.522   5.723 -2.4492 -1.7375  1.7840
   14CHL1   C16  983   0.440   3.424   5.573  0.6765  0.4811 -0.3565
   14CHL1  H16A  984   0.389   3.330   5.543  0.9148  0.2435 -0.0255
   14CHL1  H16B  985   0.396   3.499   5.504 -1.5217  1.6497  2.1450
   14CHL1   C17  986   0.597   3.429   5.555 -0.2805 -0.0116 -0.1698
   14CHL1   H17  987   0.631   3.531   5.529  0.5897 -0.6117 -1.4783
   14CHL1   C13  988   0.651   3.387   5.702  0.1633 -0.1688  0.2235
   14CHL1   C18  989   0.644   3.232   5.732  0.1225  0.6059  0.6291
   14CHL1  H18A  990   0.547   3.182   5.712 -0.1554  0.7205  1.6336
   14CHL1  H18B  991   0.724   3.177   5.678  0.1679 -0.9081  2.1440
   14CHL1  H18C  992   0.665   3.220   5.841  0.7999 -1.1350  0.3370
   14CHL1   C12  993   0.795   3.448   5.744  0.8495 -0.6646  0.1146
   14CHL1  H12A  994   0.878   3.386   5.705  0.1677 -1.2400 -0.4716
   14CHL1  H12B  995   0.806   3.554   5.714 -0.5063 -0.1464  1.3055
   14CHL1   C11  996   0.811   3.446   5.897 -0.2541 -0.1650  0.2793
   14CHL1  H11A  997   0.832   3.342   5.931 -1.2982  0.1915  2.1201
   14CHL1  H11B  998   0.901   3.505   5.926  0.9677 -0.8168 -1.9068
   14CHL1    C9  999   0.689   3.505   5.980 -0.3302  0.5447  0.3369
   14CHL1    H9 1000   0.696   3.613   5.953  4.5705  0.0592 -1.2980
   14CHL1   C10 1001   0.714   3.502   6.133  0.1451 -0.7370  0.4678
   14CHL1   C19 1002   0.761   3.362   6.172  0.1662  0.5561  0.4774
   14CHL1  H19A 1003   0.851   3.326   6.118  0.7587 -0.1502  1.8748
   14CHL1  H19B 1004   0.784   3.354   6.280 -0.0365 -1.9593  0.3826
   14CHL1  H19C 1005   0.687   3.283   6.148 -2.2829  3.0105 -0.5134
   14CHL1    C1 1006   0.828   3.611   6.165  0.3601  0.1536 -0.3899
   14CHL1   H1A 1007   0.931   3.569   6.156  0.5362 -0.0118  1.9306
   14CHL1   H1B 1008   0.829   3.694   6.090  1.7404  1.6208  1.1663
   14CHL1    C2 1009   0.816   3.677   6.301  0.4685 -0.4976 -0.5557
   14CHL1   H2A 1010   0.894   3.755   6.314  0.3437  0.0066 -2.4282
   14CHL1   H2B 1011   0.863   3.604   6.370  1.7276  2.3664  1.8182
   14CHL1   C20 1012   0.644   3.333   5.438  0.1073  0.1985 -0.5579
   14CHL1   H20 1013   0.628   3.227   5.466  1.9140 -0.4832 -1.9382
   14CHL1   C21 1014   0.795   3.352   5.424  0.4937 -0.0872  0.1657
   14CHL1  H21A 1015   0.824   3.455   5.396 -0.7080  0.1893 -0.1245
   14CHL1  H21B 1016   0.836   3.280   5.350  1.5712 -2.2640  2.7055
   14CHL1  H21C 1017   0.844   3.317   5.518  2.3253  0.5995 -0.4878
   14CHL1   C22 1018   0.566   3.368   5.311  0.3968  0.1038  0.5639
   14CHL1  H22A 1019   0.460   3.343   5.332  0.1182  1.2913  0.6694
   14CHL1  H22B 1020   0.566   3.474   5.279  0.6895 -0.3481 -1.0159
   14CHL1   C23 1021   0.615   3.290   5.191 -0.6010 -0.6167 -0.6615
   14CHL1  H23A 1022   0.721   3.322   5.177 -0.7635 -0.2106 -0.9914
   14CHL1  H23B 1023   0.606   3.181   5.210 -0.6187 -0.5515 -0.2885
   14CHL1   C24 1024   0.525   3.330   5.070 -0.2152 -0.6235 -0.0438
   14CHL1  H24A 1025   0.422   3.309   5.105 -0.0417 -1.9479 -0.2801
   14CHL1  H24B 1026   0.534   3.439   5.047 -1.9030  0.1005  2.3229
   14CHL1   C25 1027   0.560   3.251   4.947  0.4043 -0.2300 -0.0471
   14CHL1   H25 1028   0.657   3.292   4.910  0.1844  1.7766  1.4395
   14CHL1   C26 1029   0.570   3.098   4.971 -0.2052  0.7409  0.0930
   14CHL1  H26A 1030   0.484   3.062   5.032  0.4684 -1.9561 -0.4193
   14CHL1  H26B 1031   0.565   3.034   4.880 -1.1008 -1.5744  1.6901
   14CHL1  H26C 1032   0.659   3.062   5.026 -1.4784 -1.5487  0.8068
   14CHL1   C27 1033   0.451   3.281   4.846  0.2641 -0.0686 -0.5568
   14CHL1  H27A 1034   0.478   3.232   4.750 -0.6631 -0.6017 -0.5631
   14CHL1  H27B 1035   0.350   3.252   4.882  0.2342 -0.8002 -1.1958
   14CHL1  H27C 1036   0.442   3.391   4.837  0.8958  0.1888  1.4558
   15CHL1    C3 1037   6.491   5.217   6.888  0.0542  0.0668  0.6110
   15CHL1    H3 1038   6.598   5.226   6.916 -0.4874  2.1657  2.2420
   15CHL1    O3 1039   6.424   5.202   7.006 -0.8227  0.0591 -0.3769
   15CHL1   H3' 1040   6.441   5.288   7.047  1.2992  0.4909 -1.9561
   15CHL1    C4 1041   6.429   5.339   6.820  0.1145  0.2021  0.1505
   15CHL1   H4A 1042   6.320   5.318   6.807  0.7295 -3.4692 -0.2680
   15CHL1   H4B 1043   6.430   5.423   6.892 -2.9541 -0.9248  1.6680
   15CHL1    C5 1044   6.465   5.365   6.678 -0.0847 -0.3319  0.1765
   15CHL1    C6 1045   6.505   5.485   6.637 -0.5378 -0.7640  0.3254
   15CHL1    H6 1046   6.496   5.569   6.708 -0.8597 -1.8635  1.6310
   15CHL1    C7 1047   6.543   5.507   6.488 -0.4964 -0.3392  0.0521
   15CHL1   H7A 1048   6.508   5.604   6.448 -1.0022 -0.4066  0.3256
   15CHL1   H7B 1049   6.654   5.511   6.483 -0.5155 -0.0828 -0.1616
   15CHL1    C8 1050   6.495   5.402   6.388  0.8376 -0.2373  0.8839
   15CHL1    H8 1051   6.387   5.425   6.377  1.0782  0.3248 -0.5768
   15CHL1   C14 1052   6.549   5.417   6.254 -1.2227  0.1109  0.2815
   15CHL1   H14 1053   6.659   5.407   6.253 -1.0829  0.3964 -3.8239
   15CHL1   C15 1054   6.532   5.555   6.198  0.2743 -0.2045  0.3350
   15CHL1  H15A 1055   6.433   5.599   6.219  0.4993  1.3828 -1.6365
   15CHL1  H15B 1056   6.605   5.619   6.252 -0.9709 -0.9999  3.1784
   15CHL1   C16 1057   6.560   5.531   6.050 -0.0917 -0.5401 -0.4118
   15CHL1  H16A 1058   6.471   5.572   5.998 -1.4221 -1.1257  1.2984
   15CHL1  H16B 1059   6.648   5.589   6.014 -0.8448  1.4847  0.8115
   15CHL1   C17 1060   6.582   5.384   6.031 -0.0612  0.0275 -1.1388
   15CHL1   H17 1061   6.690   5.362   6.038  0.0934  0.6954 -1.4126
   15CHL1   C13 1062   6.511   5.314   6.150 -0.4325  0.6488 -0.0435
   15CHL1   C18 1063   6.357   5.320   6.118 -0.4474 -0.1808 -0.0848
   15CHL1  H18A 1064   6.335   5.230   6.057  0.0600 -1.4231  1.4845
   15CHL1  H18B 1065   6.298   5.306   6.212  1.7042  1.1131  1.5705
   15CHL1  H18C 1066   6.320   5.414   6.073  0.0225  0.2899  0.4827
   15CHL1   C12 1067   6.570   5.182   6.196 -0.5512  0.0513 -0.6667
   15CHL1  H12A 1068   6.560   5.094   6.129  0.8701 -0.0633 -0.7680
   15CHL1  H12B 1069   6.681   5.193   6.200 -0.3240 -1.5932 -1.5433
   15CHL1   C11 1070   6.521   5.148   6.340  0.0736 -0.2208  0.4189
   15CHL1  H11A 1071   6.412   5.128   6.328  0.0578  0.9214 -1.7437
   15CHL1  H11B 1072   6.577   5.058   6.375 -0.9020 -0.9609  0.1138
   15CHL1    C9 1073   6.533   5.261   6.442  0.4644 -0.3511 -0.2197
   15CHL1    H9 1074   6.641   5.262   6.468  1.2782 -2.0569 -3.0520
   15CHL1   C10 1075   6.460   5.239   6.581 -0.2303 -0.4242  0.4074
   15CHL1   C19 1076   6.304   5.227   6.550  0.3491  0.1340 -0.2570
   15CHL1  H19A 1077   6.237   5.215   6.638 -1.4358  1.6810 -1.3257
   15CHL1  H19B 1078   6.271   5.319   6.498  0.2544 -0.7685 -1.8625
   15CHL1  H19C 1079   6.276   5.137   6.491  0.0363  1.5446 -2.3691
   15CHL1    C1 1080   6.513   5.115   6.649 -0.0937  0.3416  0.5004
   15CHL1   H1A 1081   6.494   5.029   6.581  0.8444  1.8047 -1.7343
   15CHL1   H1B 1082   6.623   5.121   6.660 -0.2139  1.5663  1.1360
   15CHL1    C2 1083   6.470   5.094   6.792 -0.2378  0.6291  0.1654
   15CHL1   H2A 1084   6.518   5.005   6.838 -0.9317 -0.0051 -0.3131
   15CHL1   H2B 1085   6.359   5.090   6.784 -0.1863  1.3339 -1.2204
   15CHL1   C20 1086   6.541   5.331   5.892 -0.0074 -1.0296 -0.1379
   15CHL1   H20 1087   6.433   5.349   5.871  0.4126  4.4625  0.7861
   15CHL1   C21 1088   6.587   5.184   5.872 -0.0855 -0.6284  0.2059
   15CHL1  H21A 1089   6.516   5.115   5.924 -0.0266 -1.8100 -1.1863
   15CHL1  H21B 1090   6.688   5.172   5.917  0.7179  2.2102 -0.6543
   15CHL1  H21C 1091   6.607   5.158   5.766 -1.1948 -0.2832 -0.0977
   15CHL1   C22 1092   6.610   5.419   5.778 -0.4480 -1.0415 -0.5549
   15CHL1  H22A 1093   6.590   5.525   5.803 -0.0703 -1.2482  0.6993
   15CHL1  H22B 1094   6.721   5.414   5.770 -0.3317 -0.0453  0.2065
   15CHL1   C23 1095   6.547   5.407   5.634  0.5062  0.0732 -0.1468
   15CHL1  H23A 1096   6.542   5.299   5.606  0.2137  0.0929 -0.1692
   15CHL1  H23B 1097   6.446   5.451   5.639  0.4930  0.6651 -3.3618
   15CHL1   C24 1098   6.635   5.473   5.526  0.5433  0.2306  0.1312
   15CHL1  H24A 1099   6.650   5.580   5.552 -2.9570  0.5527  1.3487
   15CHL1  H24B 1100   6.731   5.419   5.511 -0.8718 -2.3866  0.0455
   15CHL1   C25 1101   6.570   5.464   5.384 -0.0372  0.8144  0.0303
   15CHL1   H25 1102   6.559   5.355   5.364 -0.2948  0.6316  1.0893
   15CHL1   C26 1103   6.432   5.530   5.392  0.0141 -0.2763 -0.2843
   15CHL1  H26A 1104   6.373   5.509   5.301 -0.8078 -0.3591  0.2592
   15CHL1  H26B 1105   6.362   5.480   5.463  0.3377  0.9279  0.9374
   15CHL1  H26C 1106   6.452   5.639   5.401  2.3293 -0.6488 -0.1462
   15CHL1   C27 1107   6.665   5.511   5.273 -0.4718 -0.6187 -0.8331
   15CHL1  H27A 1108   6.618   5.501   5.172 -0.0333  0.6141 -1.1778
   15CHL1  H27B 1109   6.670   5.621   5.288 -1.2076 -0.4551 -1.6584
   15CHL1  H27C 1110   6.759   5.453   5.280 -0.7043 -0.8102  2.0864
   16CHL1    C3 1111   5.570   1.123   6.473  0.0122 -0.7452 -0.1161
   16CHL1    H3 1112   5.660   1.089   6.418  1.0141  0.6552  0.5932
   16CHL1    O3 1113   5.600   1.140   6.613  0.2512  0.2155  0.6028
   16CHL1   H3' 1114   5.514   1.162   6.650  0.8717  2.2068  0.9574
   16CHL1    C4 1115   5.539   1.262   6.420 -0.3092  0.1911  0.1369
   16CHL1   H4A 1116   5.457   1.310   6.477 -0.7391  0.2888 -0.5551
   16CHL1   H4B 1117   5.633   1.319   6.436 -0.4559  1.0177 -1.6995
   16CHL1    C5 1118   5.506   1.249   6.272  0.3341 -0.3983 -0.0097
   16CHL1    C6 1119   5.576   1.311   6.178 -0.5783  0.4170 -0.4801
   16CHL1    H6 1120   5.652   1.387   6.201 -0.6333  0.6090 -0.9186
   16CHL1    C7 1121   5.547   1.295   6.034  0.1039 -0.7720  0.3635
   16CHL1   H7A 1122   5.566   1.392   5.983 -1.7364 -1.6917 -2.3032
   16CHL1   H7B 1123   5.624   1.234   5.983  1.8250  2.5209 -1.3228
   16CHL1    C8 1124   5.404   1.250   6.005  0.7371  0.0964 -0.6096
   16CHL1    H8 1125   5.331   1.324   6.044  1.7659  0.2598  1.1200
   16CHL1   C14 1126   5.377   1.234   5.856 -0.0982  0.0909 -0.2144
   16CHL1   H14 1127   5.447   1.153   5.826  0.2835 -0.3973  1.8564
   16CHL1   C15 1128   5.394   1.358   5.765  0.0445 -0.2083 -0.5567
   16CHL1  H15A 1129   5.347   1.443   5.820 -1.0986  1.3918 -3.7575
   16CHL1  H15B 1130   5.500   1.390   5.758 -0.1108  0.4973  0.1742
   16CHL1   C16 1131   5.329   1.324   5.635 -0.7175 -0.0331 -0.2486
   16CHL1  H16A 1132   5.280   1.420   5.610  1.1457  0.8290 -0.7911
   16CHL1  H16B 1133   5.399   1.304   5.551 -2.3827  1.9263 -2.2270
   16CHL1   C17 1134   5.240   1.194   5.665 -0.6112 -0.3029 -0.2672
   16CHL1   H17 1135   5.292   1.100   5.636 -1.6374 -1.0664  0.3017
   16CHL1   C13 1136   5.236   1.189   5.819  0.3751 -0.0327 -0.3507
   16CHL1   C18 1137   5.126   1.285   5.882 -0.4934 -0.1721 -0.2727
   16CHL1  H18A 1138   5.025   1.250   5.849 -0.8121 -0.6281  1.1367
   16CHL1  H18B 1139   5.118   1.289   5.993 -1.7138  3.1059 -0.3710
   16CHL1  H18C 1140   5.139   1.387   5.841 -0.6684  0.8008  1.9510
   16CHL1   C12 1141   5.227   1.050   5.884  0.3223 -0.2744  0.2681
   16CHL1  H12A 1142   5.129   0.998   5.874 -0.6357  1.7561 -2.0226
   16CHL1  H12B 1143   5.303   0.978   5.847  0.9797 -0.2150  1.4821
   16CHL1   C11 1144   5.251   1.047   6.030 -0.5260 -0.4314  0.2231
   16CHL1  H11A 1145   5.161   1.099   6.070 -0.6162  1.5782 -2.3462
   16CHL1  H11B 1146   5.265   0.940   6.058  0.6128 -1.2394 -2.9933
   16CHL1    C9 1147   5.381   1.120   6.081 -0.2207  0.0233 -0.3581
   16CHL1    H9 1148   5.474   1.066   6.053  0.6341  1.2542  0.0405
   16CHL1   C10 1149   5.403   1.143   6.233  0.0710  0.0173 -1.0981
   16CHL1   C19 1150   5.268   1.193   6.289  1.1115 -0.6795 -0.1494
   16CHL1  H19A 1151   5.216   1.264   6.221 -0.6821 -1.9086 -0.1160
   16CHL1  H19B 1152   5.196   1.112   6.310  2.5064 -1.6429  1.1693
   16CHL1  H19C 1153   5.279   1.243   6.388 -3.0005  0.8373 -0.2527
   16CHL1    C1 1154   5.432   1.001   6.303 -0.3012 -0.0018  0.1403
   16CHL1   H1A 1155   5.340   0.939   6.292  0.0678 -0.7636  1.2348
   16CHL1   H1B 1156   5.515   0.954   6.246 -0.5256  1.3971 -1.4561
   16CHL1    C2 1157   5.460   1.016   6.454 -0.4283  0.2032  0.8307
   16CHL1   H2A 1158   5.498   0.917   6.486  1.2242 -0.5035 -2.7869
   16CHL1   H2B 1159   5.364   1.041   6.504 -0.5286  1.3548  0.1265
   16CHL1   C20 1160   5.110   1.200   5.587 -0.4453 -0.6052  0.0737
   16CHL1   H20 1161   5.070   1.301   5.608  1.0161  0.2634 -1.1187
   16CHL1   C21 1162   5.012   1.083   5.624  0.3662 -0.1962  0.0654
   16CHL1  H21A 1163   4.905   1.101   5.600 -0.1930 -1.3342  1.6050
   16CHL1  H21B 1164   5.016   1.067   5.733  0.7792 -1.8261 -0.1614
   16CHL1  H21C 1165   5.051   0.986   5.586 -0.1723 -0.0325 -0.9590
   16CHL1   C22 1166   5.123   1.210   5.433  0.2472  0.4815 -0.1434
   16CHL1  H22A 1167   5.025   1.220   5.382  0.6723  0.8665 -0.9152
   16CHL1  H22B 1168   5.179   1.302   5.406  0.6783  0.2509 -0.0462
   16CHL1   C23 1169   5.201   1.097   5.359  0.3171  0.2365 -0.1921
   16CHL1  H23A 1170   5.309   1.087   5.385 -0.0525 -0.3004  1.2429
   16CHL1  H23B 1171   5.154   1.004   5.396  0.3182  0.7274  1.1149
   16CHL1   C24 1172   5.175   1.115   5.208  0.3040 -0.8330  0.1982
   16CHL1  H24A 1173   5.071   1.154   5.200 -0.1093 -1.9652 -0.0883
   16CHL1  H24B 1174   5.232   1.202   5.168 -1.2055  0.1096  0.0105
   16CHL1   C25 1175   5.208   0.992   5.124 -0.4022  0.1633  0.5362
   16CHL1   H25 1176   5.300   0.947   5.166 -0.1400  0.7569  0.6137
   16CHL1   C26 1177   5.108   0.876   5.120 -0.0825 -0.4096 -0.0427
   16CHL1  H26A 1178   5.006   0.916   5.100 -0.4593 -1.7244 -0.8328
   16CHL1  H26B 1179   5.144   0.797   5.051  0.3707 -0.5140  0.3077
   16CHL1  H26C 1180   5.099   0.828   5.219 -1.6989 -0.2316 -0.0701
   16CHL1   C27 1181   5.242   1.040   4.975 -0.8064 -0.5314 -0.2296
   16CHL1  H27A 1182   5.331   1.107   4.979  0.8261 -2.2529 -3.6334
   16CHL1  H27B 1183   5.274   0.951   4.916 -0.3648 -1.4057  1.2693
   16CHL1  H27C 1184   5.151   1.088   4.933  0.3991  0.0191 -2.3438
   17CHL1    C3 1185   6.494   6.132   6.545 -0.4549 -0.0409  0.6213
   17CHL1    H3 1186   6.456   6.232   6.518  0.0613 -0.2673 -1.0797
   17CHL1    O3 1187   6.450   6.132   6.678 -0.2727  0.1574 -0.2927
   17CHL1   H3' 1188   6.475   6.046   6.712  1.0372  0.5568 -0.1831
   17CHL1    C4 1189   6.429   6.011   6.476 -0.4025  0.3283  0.1803
   17CHL1   H4A 1190   6.479   5.921   6.519  0.7206  0.5301 -0.6580
   17CHL1   H4B 1191   6.320   6.011   6.499 -0.3232  1.2274  0.5843
   17CHL1    C5 1192   6.471   5.999   6.328 -0.0003 -0.0206  0.2374
   17CHL1    C6 1193   6.380   5.984   6.240 -0.6570 -0.1453  0.6399
   17CHL1    H6 1194   6.277   5.993   6.277 -0.3982 -0.5869  1.4883
   17CHL1    C7 1195   6.397   5.967   6.092  0.1356  0.6851  0.2331
   17CHL1   H7A 1196   6.344   5.875   6.059 -1.4560  1.3475  0.8272
   17CHL1   H7B 1197   6.379   6.059   6.032  0.7619 -0.1011 -1.2118
   17CHL1    C8 1198   6.553   5.944   6.067  0.1021 -0.1388 -0.0911
   17CHL1    H8 1199   6.582   5.841   6.098  1.4080 -0.0961 -1.0742
   17CHL1   C14 1200   6.587   5.963   5.915  0.3020 -0.1110  0.0094
   17CHL1   H14 1201   6.562   6.070   5.898  2.8131  0.5376 -0.0358
   17CHL1   C15 1202   6.510   5.890   5.804 -0.6955  0.1624  0.1628
   17CHL1  H15A 1203   6.508   5.782   5.832 -1.4750 -0.4492 -1.9972
   17CHL1  H15B 1204   6.403   5.920   5.797 -0.5555  0.7765  0.5662
   17CHL1   C16 1205   6.596   5.912   5.674  0.1342  0.6701  0.0589
   17CHL1  H16A 1206   6.627   5.809   5.646 -0.8705  0.1778  0.6629
   17CHL1  H16B 1207   6.537   5.953   5.589  0.3494  0.0420 -0.4090
   17CHL1   C17 1208   6.714   5.997   5.726  0.2682 -0.2894  0.2135
   17CHL1   H17 1209   6.671   6.099   5.716  0.5814 -0.2602 -0.9713
   17CHL1   C13 1210   6.733   5.957   5.872 -0.2853  0.9222 -0.9421
   17CHL1   C18 1211   6.791   5.807   5.883  0.0200  0.1990  0.1121
   17CHL1  H18A 1212   6.730   5.743   5.816 -0.4010  1.2502 -0.5262
   17CHL1  H18B 1213   6.901   5.814   5.867 -0.3213  1.2543 -2.1194
   17CHL1  H18C 1214   6.783   5.769   5.987 -1.2871 -0.3841 -0.1789
   17CHL1   C12 1215   6.819   6.055   5.963 -0.1303 -0.1216  0.4745
   17CHL1  H12A 1216   6.927   6.047   5.938 -0.6587 -0.0630 -2.0897
   17CHL1  H12B 1217   6.790   6.161   5.945  0.9159  0.3307  1.3401
   17CHL1   C11 1218   6.793   6.029   6.114 -0.0357 -0.5800  0.0198
   17CHL1  H11A 1219   6.829   5.926   6.133  1.2232 -0.1984 -0.2631
   17CHL1  H11B 1220   6.865   6.094   6.168 -0.4143  0.7109 -0.9991
   17CHL1    C9 1221   6.642   6.038   6.152  0.3991 -0.0900  0.1734
   17CHL1    H9 1222   6.611   6.142   6.127  0.2196  0.5608  2.7956
   17CHL1   C10 1223   6.617   6.018   6.304  0.2336 -0.2921  0.2608
   17CHL1   C19 1224   6.690   5.882   6.348 -0.6766  0.8148  0.1478
   17CHL1  H19A 1225   6.653   5.835   6.442  1.0561  2.1241  1.5617
   17CHL1  H19B 1226   6.687   5.806   6.267 -1.1858  0.8639  0.1154
   17CHL1  H19C 1227   6.797   5.901   6.369 -0.4331 -2.5471  2.6627
   17CHL1    C1 1228   6.683   6.134   6.382  0.2214  0.1457 -0.3527
   17CHL1   H1A 1229   6.793   6.135   6.374  0.2892 -3.5518 -1.4364
   17CHL1   H1B 1230   6.644   6.230   6.341 -0.5167 -0.4034 -0.9647
   17CHL1    C2 1231   6.649   6.133   6.534  0.5814 -0.2636  0.0506
   17CHL1   H2A 1232   6.692   6.222   6.585  1.1292 -0.8420  0.6196
   17CHL1   H2B 1233   6.698   6.047   6.585 -0.3601  0.1968  1.7940
   17CHL1   C20 1234   6.844   5.999   5.638 -0.8934 -0.5194  0.0084
   17CHL1   H20 1235   6.930   5.948   5.686 -0.4644 -0.7967 -1.0214
   17CHL1   C21 1236   6.884   6.144   5.621 -0.2328 -0.0806 -0.6726
   17CHL1  H21A 1237   6.914   6.190   5.717 -0.8233  0.6135 -0.8073
   17CHL1  H21B 1238   6.795   6.194   5.578 -0.8919 -1.7056 -1.2767
   17CHL1  H21C 1239   6.973   6.151   5.554  0.1558 -2.4817 -0.5073
   17CHL1   C22 1240   6.834   5.931   5.501 -0.4520  0.3319  0.1211
   17CHL1  H22A 1241   6.791   5.830   5.514 -1.6746  0.9336  0.9648
   17CHL1  H22B 1242   6.776   5.980   5.419  0.7210  1.5213 -0.0454
   17CHL1   C23 1243   6.976   5.896   5.449  0.0238  0.0824  0.2946
   17CHL1  H23A 1244   7.027   5.994   5.453 -0.2729  0.2705 -0.3906
   17CHL1  H23B 1245   7.023   5.826   5.520  3.8776  1.4507 -0.6624
   17CHL1   C24 1246   6.978   5.834   5.308  0.2376 -0.7656 -0.4097
   17CHL1  H24A 1247   6.943   5.729   5.315  0.9563 -0.9266  1.2810
   17CHL1  H24B 1248   6.910   5.885   5.237  0.7635  0.2658 -0.1923
   17CHL1   C25 1249   7.116   5.830   5.236  0.2687  0.0101  0.6009
   17CHL1   H25 1250   7.165   5.922   5.273  1.8714 -0.2217 -0.7996
   17CHL1   C26 1251   7.211   5.712   5.275  0.6827  1.1525 -0.7475
   17CHL1  H26A 1252   7.306   5.712   5.219  1.3979  0.8488  0.4282
   17CHL1  H26B 1253   7.230   5.702   5.384 -0.8532  0.3283 -0.5183
   17CHL1  H26C 1254   7.158   5.621   5.238  0.0519  1.2053 -0.0132
   17CHL1   C27 1255   7.098   5.822   5.074 -1.1750 -0.1881 -1.1520
   17CHL1  H27A 1256   7.190   5.856   5.022 -0.3792  0.3246  0.4937
   17CHL1  H27B 1257   7.075   5.716   5.050 -0.3803 -0.7300  0.3458
   17CHL1  H27C 1258   7.011   5.884   5.044 -0.6143 -0.0329 -2.5103
   18CHL1    C3 1259   0.201   5.966   6.584  0.2386  0.0660  1.0451
   18CHL1    H3 1260   0.122   5.912   6.528 -1.3330  0.2735  2.9759
   18CHL1    O3 1261   0.178   5.929   6.719 -0.3263 -0.7187  0.3093
   18CHL1   H3' 1262   0.260   5.962   6.757  1.8757 -2.3201 -2.6164
   18CHL1    C4 1263   0.349   5.924   6.538 -0.7292 -0.4452  0.1394
   18CHL1   H4A 1264   0.426   5.975   6.598 -2.6284 -0.1147  2.4182
   18CHL1   H4B 1265   0.372   5.817   6.560  2.5560  0.4852  1.8727
   18CHL1    C5 1266   0.371   5.953   6.392  0.4165  0.2844  0.5357
   18CHL1    C6 1267   0.405   5.856   6.308 -0.4912  0.4655  0.5039
   18CHL1    H6 1268   0.417   5.761   6.362 -0.8511  0.8787  1.3195
   18CHL1    C7 1269   0.426   5.869   6.159 -0.2575  0.0401 -0.2839
   18CHL1   H7A 1270   0.513   5.805   6.133 -1.0840 -1.2593  0.0527
   18CHL1   H7B 1271   0.346   5.818   6.101  1.1751 -2.3381 -0.2688
   18CHL1    C8 1272   0.434   6.018   6.120 -0.4302 -0.7530 -0.4948
   18CHL1    H8 1273   0.532   6.065   6.145 -1.2612  0.1046  1.3802
   18CHL1   C14 1274   0.415   6.027   5.970 -1.1174  0.4366  0.7673
   18CHL1   H14 1275   0.316   5.981   5.951  0.1428 -1.8714 -0.6492
   18CHL1   C15 1276   0.523   5.955   5.880 -0.2896  0.5422 -0.7008
   18CHL1  H15A 1277   0.629   5.978   5.904  0.0893 -2.7713  1.4490
   18CHL1  H15B 1278   0.506   5.845   5.888 -0.1386  0.5842  0.2371
   18CHL1   C16 1279   0.495   6.001   5.738 -0.0439 -0.2304 -0.5718
   18CHL1  H16A 1280   0.589   6.045   5.699  0.8339  0.6812  2.3485
   18CHL1  H16B 1281   0.447   5.920   5.678  0.0151 -1.6762  1.2492
   18CHL1   C17 1282   0.403   6.128   5.763 -0.0717  0.3800  0.4168
   18CHL1   H17 1283   0.298   6.094   5.758  0.0856 -0.3628  1.6623
   18CHL1   C13 1284   0.415   6.168   5.913  0.3526  0.2222 -0.1026
   18CHL1   C18 1285   0.544   6.247   5.925  0.2917  0.0445  0.0928
   18CHL1  H18A 1286   0.630   6.189   5.885 -0.3521 -0.4360 -0.6332
   18CHL1  H18B 1287   0.543   6.345   5.873 -0.6264  0.2572  0.4894
   18CHL1  H18C 1288   0.570   6.263   6.032  1.1202 -0.4345 -0.0271
   18CHL1   C12 1289   0.296   6.241   5.988 -0.1645  0.3114  0.2066
   18CHL1  H12A 1290   0.296   6.346   5.952 -0.0878  0.4433  0.5931
   18CHL1  H12B 1291   0.199   6.196   5.957  0.1079 -2.0242  2.4044
   18CHL1   C11 1292   0.306   6.247   6.137 -0.0800  0.4466 -0.8592
   18CHL1  H11A 1293   0.388   6.310   6.176  1.1955 -1.5215 -0.2039
   18CHL1  H11B 1294   0.213   6.289   6.180  1.1646  3.7149 -1.1271
   18CHL1    C9 1295   0.322   6.102   6.193  0.3259  0.0145  0.2738
   18CHL1    H9 1296   0.227   6.048   6.171 -0.1653  1.4584 -1.4166
   18CHL1   C10 1297   0.337   6.093   6.345  0.4697 -0.3141  0.9022
   18CHL1   C19 1298   0.459   6.168   6.398  0.1101 -0.0085  0.5169
   18CHL1  H19A 1299   0.456   6.279   6.386 -0.6809 -0.0510  0.2122
   18CHL1  H19B 1300   0.453   6.158   6.509  1.2301 -0.1997  0.5637
   18CHL1  H19C 1301   0.557   6.134   6.359 -0.1569  1.3969 -1.5354
   18CHL1    C1 1302   0.207   6.141   6.410 -0.7394  0.3880  0.2614
   18CHL1   H1A 1303   0.208   6.250   6.388  3.4981 -0.1676 -4.0860
   18CHL1   H1B 1304   0.114   6.107   6.359 -0.5884  1.0805 -0.5039
   18CHL1    C2 1305   0.182   6.114   6.560  0.0130 -0.0449  0.0775
   18CHL1   H2A 1306   0.084   6.149   6.600 -0.9570 -2.1778 -0.2778
   18CHL1   H2B 1307   0.251   6.177   6.621 -0.0817 -0.0822  0.2239
   18CHL1   C20 1308   0.418   6.225   5.646 -0.5561 -0.0564 -0.7113
   18CHL1   H20 1309   0.521   6.264   5.666 -1.5028  1.8366  0.8611
   18CHL1   C21 1310   0.316   6.334   5.670  0.1825  0.1778 -0.4888
   18CHL1  H21A 1311   0.216   6.288   5.679 -0.1610  0.9416 -0.2612
   18CHL1  H21B 1312   0.306   6.413   5.592  2.0039 -0.4757 -1.4490
   18CHL1  H21C 1313   0.351   6.390   5.759 -3.4248 -2.9652  3.3470
   18CHL1   C22 1314   0.424   6.169   5.505  0.1236 -0.7340  0.2573
   18CHL1  H22A 1315   0.499   6.087   5.505  1.6633  0.5564  2.5082
   18CHL1  H22B 1316   0.324   6.128   5.482 -0.2855  0.0647  0.5774
   18CHL1   C23 1317   0.443   6.260   5.382  1.3149 -0.3999  0.2206
   18CHL1  H23A 1318   0.371   6.345   5.380  3.6528  1.7340  0.6013
   18CHL1  H23B 1319   0.534   6.323   5.394  1.1954 -0.5111  1.8848
   18CHL1   C24 1320   0.469   6.181   5.251  0.1573 -1.0699  0.1625
   18CHL1  H24A 1321   0.533   6.093   5.271  0.6265 -0.6979  0.3270
   18CHL1  H24B 1322   0.374   6.132   5.220  0.1506 -0.5668 -0.6491
   18CHL1   C25 1323   0.545   6.254   5.138 -0.3400  0.2840 -0.2862
   18CHL1   H25 1324   0.562   6.181   5.057 -0.9017 -0.9475  0.6683
   18CHL1   C26 1325   0.474   6.383   5.087  0.4236 -0.7289 -0.2438
   18CHL1  H26A 1326   0.364   6.369   5.075  0.2177  0.3098  0.3221
   18CHL1  H26B 1327   0.489   6.466   5.159  1.1069 -1.9573  1.0683
   18CHL1  H26C 1328   0.529   6.419   4.998  0.8409 -0.0344  0.2846
   18CHL1   C27 1329   0.691   6.288   5.180 -1.2911 -0.4064 -0.3730
   18CHL1  H27A 1330   0.701   6.363   5.262 -1.4268  0.8224 -1.4495
   18CHL1  H27B 1331   0.748   6.203   5.224 -0.7421  0.4369  0.6030
   18CHL1  H27C 1332   0.750   6.321   5.092  1.8204 -1.9959  0.9702
   19CHL1    C3 1333   6.220   0.295   6.724 -0.2811  0.0003  0.1958
   19CHL1    H3 1334   6.190   0.191   6.746 -0.6903 -0.0319 -0.5055
   19CHL1    O3 1335   6.223   0.375   6.843 -0.4516 -0.3170 -0.1033
   19CHL1   H3' 1336   6.248   0.461   6.811  1.7074 -1.4267 -1.6601
   19CHL1    C4 1337   6.357   0.304   6.650 -0.3951  0.5823 -0.1494
   19CHL1   H4A 1338   6.392   0.409   6.649  1.0293  0.2061  2.3787
   19CHL1   H4B 1339   6.433   0.257   6.717  0.4183  1.3176 -0.5419
   19CHL1    C5 1340   6.350   0.245   6.513 -0.4308  0.5530 -0.5800
   19CHL1    C6 1341   6.437   0.150   6.484  0.3786  0.9368  0.7268
   19CHL1    H6 1342   6.503   0.114   6.564 -0.6552 -1.6297  0.5209
   19CHL1    C7 1343   6.454   0.083   6.352  0.6957  0.0664  0.3608
   19CHL1   H7A 1344   6.560   0.100   6.322  0.8575  0.7659  1.2801
   19CHL1   H7B 1345   6.422  -0.023   6.360  0.7092  0.0671  0.4233
   19CHL1    C8 1346   6.360   0.148   6.241 -0.0427 -0.2810 -0.3078
   19CHL1    H8 1347   6.412   0.240   6.207  1.0041 -0.2204  1.3439
   19CHL1   C14 1348   6.349   0.047   6.122  0.1625  0.3084  0.0126
   19CHL1   H14 1349   6.301  -0.044   6.165 -2.0813  2.6512  2.9461
   19CHL1   C15 1350   6.474  -0.014   6.050 -0.5896  0.1147  0.2528
   19CHL1  H15A 1351   6.541   0.071   6.024 -0.2371 -0.3501 -0.3943
   19CHL1  H15B 1352   6.517  -0.075   6.132  0.0151 -0.9335 -0.8089
   19CHL1   C16 1353   6.415  -0.082   5.932 -0.6818  0.3077  0.1028
   19CHL1  H16A 1354   6.483  -0.051   5.850  1.6662 -0.9086  1.4696
   19CHL1  H16B 1355   6.422  -0.193   5.935 -1.8301  0.2391  0.6079
   19CHL1   C17 1356   6.274  -0.029   5.918  0.6613 -0.2924 -0.0072
   19CHL1   H17 1357   6.207  -0.101   5.970  0.0404  1.1037  1.2034
   19CHL1   C13 1358   6.257   0.095   6.013 -0.3410  0.1251 -0.5040
   19CHL1   C18 1359   6.314   0.225   5.946  0.3190  0.4862  0.0848
   19CHL1  H18A 1360   6.242   0.261   5.870  1.4613  1.1364 -0.7101
   19CHL1  H18B 1361   6.318   0.307   6.021 -2.0232  0.4187  0.3816
   19CHL1  H18C 1362   6.407   0.188   5.899 -0.4009 -2.2104  0.5866
   19CHL1   C12 1363   6.115   0.120   6.077 -0.8142  0.0154  0.0974
   19CHL1  H12A 1364   6.035   0.137   6.002 -0.4534 -2.1175 -0.8656
   19CHL1  H12B 1365   6.077   0.026   6.123 -0.4460 -0.1084  0.1550
   19CHL1   C11 1366   6.121   0.222   6.194 -0.1652 -0.0026 -0.3794
   19CHL1  H11A 1367   6.142   0.321   6.148  0.3682 -0.0097 -0.1597
   19CHL1  H11B 1368   6.027   0.222   6.253  1.4237 -0.4407  2.3149
   19CHL1    C9 1369   6.227   0.184   6.299  0.6734  0.1376  0.6441
   19CHL1    H9 1370   6.192   0.089   6.345  2.3541 -0.6901  0.2966
   19CHL1   C10 1371   6.240   0.286   6.419  0.0641  0.0210  0.3704
   19CHL1   C19 1372   6.271   0.424   6.365 -0.0872 -0.7797 -0.0541
   19CHL1  H19A 1373   6.289   0.496   6.448 -1.0760 -0.1805 -0.3441
   19CHL1  H19B 1374   6.367   0.424   6.309  0.0078  2.5075 -0.1209
   19CHL1  H19C 1375   6.192   0.466   6.300 -0.2105  2.4493  1.9206
   19CHL1    C1 1376   6.103   0.283   6.495  0.1576  0.1711 -0.7876
   19CHL1   H1A 1377   6.029   0.339   6.434  0.7382  0.9677 -0.7668
   19CHL1   H1B 1378   6.077   0.177   6.518  0.1953  0.4182  0.4980
   19CHL1    C2 1379   6.116   0.358   6.634 -0.3740  0.3203 -0.9470
   19CHL1   H2A 1380   6.025   0.363   6.698 -0.9673  0.8976 -1.8038
   19CHL1   H2B 1381   6.133   0.467   6.618 -3.9859  1.3979  1.3002
   19CHL1   C20 1382   6.224  -0.011   5.774  0.0098 -0.3041  0.0659
   19CHL1   H20 1383   6.279   0.074   5.728 -0.5467 -0.0775 -0.1932
   19CHL1   C21 1384   6.078   0.036   5.754  0.7563 -0.6264  0.0248
   19CHL1  H21A 1385   6.006  -0.043   5.782 -1.0045  0.4785 -1.1822
   19CHL1  H21B 1386   6.060   0.041   5.644  1.1139  2.3825  0.0235
   19CHL1  H21C 1387   6.054   0.139   5.789  2.3579  0.3975 -1.7008
   19CHL1   C22 1388   6.252  -0.139   5.688  0.3358  0.1948 -0.4767
   19CHL1  H22A 1389   6.256  -0.230   5.751 -0.4585  0.0068 -0.6820
   19CHL1  H22B 1390   6.159  -0.150   5.628  1.6955  0.9081 -2.8566
   19CHL1   C23 1391   6.371  -0.118   5.589  0.1118 -0.0635 -0.3876
   19CHL1  H23A 1392   6.354  -0.020   5.540 -2.9097 -0.2236  0.1520
   19CHL1  H23B 1393   6.463  -0.131   5.650 -0.5032 -0.1293  0.5450
   19CHL1   C24 1394   6.379  -0.209   5.465 -0.1982  0.0417 -1.1052
   19CHL1  H24A 1395   6.449  -0.289   5.496 -0.5062  0.4642  0.8141
   19CHL1  H24B 1396   6.281  -0.261   5.466  0.7996 -1.9930  1.1575
   19CHL1   C25 1397   6.398  -0.140   5.331 -0.1359  0.6094 -0.0062
   19CHL1   H25 1398   6.310  -0.074   5.319 -1.1237 -0.9399 -1.8298
   19CHL1   C26 1399   6.523  -0.050   5.330 -0.1068  0.5074  0.2744
   19CHL1  H26A 1400   6.532   0.018   5.417  1.3096 -0.8713  1.2431
   19CHL1  H26B 1401   6.619  -0.106   5.333  0.1179  0.8554 -0.1069
   19CHL1  H26C 1402   6.527   0.011   5.236 -3.6031 -0.2271 -0.4962
   19CHL1   C27 1403   6.390  -0.234   5.217 -0.9795  0.4693 -0.3322
   19CHL1  H27A 1404   6.293  -0.289   5.219 -0.9044  0.3503  1.4012
   19CHL1  H27B 1405   6.401  -0.175   5.124 -1.6195  1.5748  0.2699
   19CHL1  H27C 1406   6.477  -0.303   5.208 -0.1169  1.1685  1.8648
   20CHL1    C3 1407   5.665   2.958   6.552 -0.6318 -0.3712  0.8089
   20CHL1    H3 1408   5.720   3.054   6.537 -0.0725 -0.6218  1.2135
   20CHL1    O3 1409   5.625   2.964   6.688  0.2365  0.2082  0.0395
   20CHL1   H3' 1410   5.680   3.028   6.735 -0.5820  1.0248 -0.0737
   20CHL1    C4 1411   5.538   2.963   6.465 -1.0332  0.0137  0.3098
   20CHL1   H4A 1412   5.478   2.882   6.510 -1.6093 -0.0926 -0.6067
   20CHL1   H4B 1413   5.485   3.060   6.481 -0.4045  0.4390 -0.1201
   20CHL1    C5 1414   5.565   2.951   6.320 -0.1582  0.8624 -0.9156
   20CHL1    C6 1415   5.529   3.045   6.228 -0.2806 -0.4540  0.2978
   20CHL1    H6 1416   5.474   3.131   6.270  0.4365 -0.9345  2.3536
   20CHL1    C7 1417   5.538   3.029   6.081 -0.2618  0.6470  0.0020
   20CHL1   H7A 1418   5.452   3.071   6.025  0.8693  2.1694 -0.6819
   20CHL1   H7B 1419   5.617   3.099   6.045  1.3170 -0.7037  0.7469
   20CHL1    C8 1420   5.582   2.890   6.031 -0.0204  0.4987 -0.3694
   20CHL1    H8 1421   5.489   2.828   6.026 -0.3523  0.3890  3.8745
   20CHL1   C14 1422   5.652   2.905   5.895  0.7334  0.3366  0.2794
   20CHL1   H14 1423   5.739   2.971   5.915 -0.5611  2.2442 -0.0498
   20CHL1   C15 1424   5.570   2.976   5.787 -0.6378  0.1021  0.2781
   20CHL1  H15A 1425   5.473   2.921   5.781  0.7118 -2.2263 -1.9135
   20CHL1  H15B 1426   5.562   3.086   5.785 -1.4170  0.0534  0.2887
   20CHL1   C16 1427   5.636   2.938   5.654 -0.7529  0.2611  0.1080
   20CHL1  H16A 1428   5.563   2.900   5.579 -0.6893 -0.3806  0.3673
   20CHL1  H16B 1429   5.685   3.030   5.614 -0.4929  0.6143  1.2019
   20CHL1   C17 1430   5.746   2.830   5.689 -0.8808 -0.2539 -0.7400
   20CHL1   H17 1431   5.836   2.890   5.712 -0.0529 -1.6447 -0.2398
   20CHL1   C13 1432   5.711   2.774   5.830  0.1327  1.1626 -0.2019
   20CHL1   C18 1433   5.602   2.669   5.808 -0.6145  1.3486 -0.5122
   20CHL1  H18A 1434   5.533   2.663   5.895 -0.0358  0.9527 -0.0677
   20CHL1  H18B 1435   5.549   2.688   5.713  0.1649  1.5454 -0.9148
   20CHL1  H18C 1436   5.651   2.569   5.808 -1.1244  1.0936 -0.0474
   20CHL1   C12 1437   5.817   2.735   5.927 -0.0413 -0.1306  0.0518
   20CHL1  H12A 1438   5.867   2.641   5.897 -1.0450 -0.9311  0.8172
   20CHL1  H12B 1439   5.888   2.821   5.929  0.0954 -0.2250 -0.6691
   20CHL1   C11 1440   5.765   2.708   6.071  0.0140  0.3590  0.0542
   20CHL1  H11A 1441   5.696   2.620   6.067 -1.1341  1.1454  1.6226
   20CHL1  H11B 1442   5.845   2.667   6.135 -0.5233 -1.1866 -0.2169
   20CHL1    C9 1443   5.692   2.829   6.130 -0.0984  0.2297  0.4667
   20CHL1    H9 1444   5.768   2.909   6.138 -0.4951  0.8256 -1.2611
   20CHL1   C10 1445   5.642   2.825   6.277  0.0044  0.7036 -0.4278
   20CHL1   C19 1446   5.557   2.697   6.288  0.1062 -0.0250  0.6329
   20CHL1  H19A 1447   5.519   2.693   6.392 -0.5816 -0.3672  0.3731
   20CHL1  H19B 1448   5.473   2.704   6.217 -0.4231 -0.1822  1.2395
   20CHL1  H19C 1449   5.621   2.607   6.274 -0.1500 -0.1126  0.0140
   20CHL1    C1 1450   5.765   2.811   6.375 -0.3994  0.1599  0.1136
   20CHL1   H1A 1451   5.820   2.716   6.354  1.7798  1.2039  0.8717
   20CHL1   H1B 1452   5.830   2.893   6.338  0.3527 -0.6466 -0.3985
   20CHL1    C2 1453   5.742   2.828   6.517 -0.1653  0.1669 -0.6921
   20CHL1   H2A 1454   5.839   2.824   6.572 -1.0921  0.3303  1.0183
   20CHL1   H2B 1455   5.682   2.747   6.565  3.2069 -0.8874  2.2195
   20CHL1   C20 1456   5.785   2.734   5.581 -0.0163 -0.1481  0.4150
   20CHL1   H20 1457   5.689   2.678   5.568  0.4382 -0.9928  0.5804
   20CHL1   C21 1458   5.885   2.628   5.619 -0.1980 -1.0526 -0.2933
   20CHL1  H21A 1459   5.924   2.582   5.526  0.5625 -0.3753 -0.3189
   20CHL1  H21B 1460   5.834   2.550   5.679 -0.6023 -0.4594  0.1398
   20CHL1  H21C 1461   5.969   2.671   5.678  0.3166  0.9804 -2.3666
   20CHL1   C22 1462   5.812   2.806   5.445 -0.3331  0.2723 -0.1386
   20CHL1  H22A 1463   5.716   2.855   5.418 -0.9514 -1.1241 -0.5656
   20CHL1  H22B 1464   5.896   2.875   5.465  0.3819  0.0280 -2.1399
   20CHL1   C23 1465   5.829   2.728   5.314  0.3360  0.0320 -0.3540
   20CHL1  H23A 1466   5.922   2.666   5.318 -0.5684 -1.4579 -1.3720
   20CHL1  H23B 1467   5.739   2.665   5.298  0.4112 -0.8295  2.2016
   20CHL1   C24 1468   5.840   2.820   5.193  0.6038  0.5260 -0.2533
   20CHL1  H24A 1469   5.741   2.869   5.182  0.6664  0.5578 -0.7103
   20CHL1  H24B 1470   5.911   2.904   5.206  1.5197 -0.2848  0.1193
   20CHL1   C25 1471   5.882   2.744   5.064 -0.3591 -0.0724 -0.8021
   20CHL1   H25 1472   5.814   2.660   5.040  1.4122 -1.8479  0.1032
   20CHL1   C26 1473   5.887   2.839   4.943  0.0785 -0.0990 -0.1097
   20CHL1  H26A 1474   5.919   2.774   4.859  0.4551 -1.4096  1.0019
   20CHL1  H26B 1475   5.784   2.869   4.916 -1.1129 -3.5362  0.1045
   20CHL1  H26C 1476   5.948   2.929   4.965 -1.0309  0.5943  0.2273
   20CHL1   C27 1477   6.021   2.681   5.072 -0.4860 -0.8819  0.1253
   20CHL1  H27A 1478   6.076   2.674   5.168  0.5023 -1.7501 -0.4867
   20CHL1  H27B 1479   6.007   2.572   5.057 -1.5715 -1.0775  2.2042
   20CHL1  H27C 1480   6.092   2.731   5.003 -0.0907 -0.3830  0.8773
   21CHL1    C3 1481   5.845   1.810   6.237  0.5067 -0.5016 -0.2554
   21CHL1    H3 1482   5.827   1.919   6.232 -0.2391 -0.6736 -1.9415
   21CHL1    O3 1483   5.869   1.779   6.372  0.6933 -0.2341 -0.1515
   21CHL1   H3' 1484   5.860   1.685   6.386 -2.7674 -0.2073 -1.2627
   21CHL1    C4 1485   5.719   1.737   6.187 -0.1787  0.1911 -0.4897
   21CHL1   H4A 1486   5.713   1.628   6.211  0.8064  0.2905  0.2559
   21CHL1   H4B 1487   5.633   1.782   6.242 -2.5836 -1.4825 -2.6224
   21CHL1    C5 1488   5.694   1.757   6.033 -0.1338 -0.4535 -1.2386
   21CHL1    C6 1489   5.582   1.803   5.976  0.1730 -0.4203 -0.4223
   21CHL1    H6 1490   5.499   1.832   6.041  2.3400 -1.4532  3.1154
   21CHL1    C7 1491   5.561   1.813   5.829  0.0941 -0.2643  0.7261
   21CHL1   H7A 1492   5.455   1.783   5.815 -0.3288 -0.1945  3.2984
   21CHL1   H7B 1493   5.565   1.923   5.811 -3.4120 -0.1570 -0.1915
   21CHL1    C8 1494   5.659   1.724   5.750  0.1190  0.6744 -0.6295
   21CHL1    H8 1495   5.626   1.621   5.776  0.9644  0.0762 -1.8260
   21CHL1   C14 1496   5.654   1.755   5.609  0.5673 -0.2000  0.7577
   21CHL1   H14 1497   5.685   1.862   5.603 -0.2207 -0.0211 -0.3841
   21CHL1   C15 1498   5.515   1.757   5.529 -0.5512 -0.8099  0.3108
   21CHL1  H15A 1499   5.461   1.667   5.566 -0.5654 -1.3605 -0.9962
   21CHL1  H15B 1500   5.457   1.849   5.554  0.2427 -0.0782 -0.5032
   21CHL1   C16 1501   5.557   1.752   5.379  0.0257 -0.0530 -0.2137
   21CHL1  H16A 1502   5.508   1.661   5.338 -1.1917  0.7634 -0.6344
   21CHL1  H16B 1503   5.534   1.843   5.319  1.9320  0.5473 -0.0890
   21CHL1   C17 1504   5.717   1.741   5.382 -0.1822 -0.1340  0.5176
   21CHL1   H17 1505   5.758   1.844   5.392  0.8076 -0.5929  1.2142
   21CHL1   C13 1506   5.748   1.683   5.519  0.6325 -0.1565 -0.5118
   21CHL1   C18 1507   5.704   1.531   5.522 -0.5513  0.4265 -0.1334
   21CHL1  H18A 1508   5.736   1.476   5.613 -0.6643 -1.8567 -1.4059
   21CHL1  H18B 1509   5.595   1.514   5.510 -0.2765 -2.8857  1.0591
   21CHL1  H18C 1510   5.750   1.478   5.436 -0.2990 -0.8443  0.7554
   21CHL1   C12 1511   5.886   1.717   5.571  0.4337 -0.3423  0.0020
   21CHL1  H12A 1512   5.967   1.671   5.510  0.5431  0.4005 -0.4380
   21CHL1  H12B 1513   5.893   1.828   5.562 -2.4033  0.3324  3.7406
   21CHL1   C11 1514   5.916   1.691   5.719  0.4323 -0.2870 -0.7063
   21CHL1  H11A 1515   5.918   1.582   5.740 -0.8185  0.2308  2.6251
   21CHL1  H11B 1516   6.012   1.742   5.740  0.7496 -0.9046 -0.6312
   21CHL1    C9 1517   5.797   1.752   5.808  0.0303 -0.3596  0.1853
   21CHL1    H9 1518   5.805   1.863   5.808 -0.7131 -0.2979  1.0587
   21CHL1   C10 1519   5.815   1.722   5.955 -0.1567  0.2029 -0.1428
   21CHL1   C19 1520   5.832   1.564   5.973  0.1697  0.0192 -0.4580
   21CHL1  H19A 1521   5.817   1.532   6.079 -2.4520 -0.3833 -0.8730
   21CHL1  H19B 1522   5.753   1.518   5.910 -2.3746 -1.4927  3.4820
   21CHL1  H19C 1523   5.933   1.537   5.936  0.4629  0.9076 -0.3269
   21CHL1    C1 1524   5.942   1.802   5.999 -0.2663 -0.2184 -0.1331
   21CHL1   H1A 1525   6.038   1.783   5.947  1.7539  2.0712  2.4202
   21CHL1   H1B 1526   5.916   1.909   5.985  1.0600  0.0732 -0.5136
   21CHL1    C2 1527   5.969   1.796   6.156 -0.8406  0.5156  0.5243
   21CHL1   H2A 1528   6.055   1.860   6.188  0.0470 -0.9807  1.2634
   21CHL1   H2B 1529   5.988   1.687   6.167 -3.0094 -0.2833 -2.3591
   21CHL1   C20 1530   5.772   1.673   5.254 -0.5365 -0.3043  0.1506
   21CHL1   H20 1531   5.747   1.565   5.251  1.7936 -0.9112  0.6367
   21CHL1   C21 1532   5.923   1.688   5.259 -0.4150 -0.0954  0.5792
   21CHL1  H21A 1533   5.966   1.670   5.158  0.1905 -1.1991  1.0160
   21CHL1  H21B 1534   5.961   1.605   5.322 -0.3186 -0.6230 -0.1609
   21CHL1  H21C 1535   5.973   1.779   5.298  0.6262 -0.0751 -0.7110
   21CHL1   C22 1536   5.711   1.726   5.121  0.2985 -1.0280  1.2825
   21CHL1  H22A 1537   5.691   1.834   5.139  4.2851  0.0643  0.0875
   21CHL1  H22B 1538   5.796   1.723   5.050 -1.1823 -1.0667 -0.5382
   21CHL1   C23 1539   5.591   1.653   5.056 -0.3635 -0.5279 -0.2650
   21CHL1  H23A 1540   5.644   1.560   5.026  0.8879  0.1030 -0.0773
   21CHL1  H23B 1541   5.509   1.615   5.121 -0.2092 -0.6149 -0.1157
   21CHL1   C24 1542   5.538   1.735   4.946 -0.8557 -0.3168 -0.0623
   21CHL1  H24A 1543   5.628   1.785   4.904 -1.5422  0.2099 -0.9233
   21CHL1  H24B 1544   5.498   1.659   4.876 -1.5102  0.2192 -0.2815
   21CHL1   C25 1545   5.434   1.851   4.967  0.1262 -1.1046 -0.5225
   21CHL1   H25 1546   5.470   1.911   5.054  2.0402 -0.3623 -1.7445
   21CHL1   C26 1547   5.441   1.960   4.851  0.2585 -0.3780 -0.1315
   21CHL1  H26A 1548   5.428   1.919   4.749 -3.5062 -0.9670  0.4430
   21CHL1  H26B 1549   5.363   2.039   4.862  1.1082  0.8410 -2.2292
   21CHL1  H26C 1550   5.540   2.010   4.859  0.6263 -1.1392  0.0930
   21CHL1   C27 1551   5.292   1.805   4.999 -0.1315 -0.1538  0.2279
   21CHL1  H27A 1552   5.295   1.728   5.079 -2.1583 -0.0707  0.4372
   21CHL1  H27B 1553   5.230   1.886   5.044 -0.3101 -0.0713 -0.1682
   21CHL1  H27C 1554   5.241   1.752   4.916  1.4305 -4.7363  1.8981
   22CHL1    C3 1555   5.755   4.347   6.707 -0.7236 -0.3276  0.2156
   22CHL1    H3 1556   5.862   4.318   6.700 -0.6119 -1.1256  3.5463
   22CHL1    O3 1557   5.704   4.350   6.835 -0.1310 -0.4991 -0.4538
   22CHL1   H3' 1558   5.610   4.355   6.815 -0.2782  0.4089  0.3924
   22CHL1    C4 1559   5.711   4.476   6.636  0.5275 -0.5783 -0.7748
   22CHL1   H4A 1560   5.601   4.490   6.638  0.4563 -0.4807  3.0475
   22CHL1   H4B 1561   5.769   4.556   6.686 -0.2737 -0.4932  0.0469
   22CHL1    C5 1562   5.753   4.470   6.493  0.2845 -0.0876  0.6311
   22CHL1    C6 1563   5.835   4.566   6.449  0.6360  0.0062  0.4591
   22CHL1    H6 1564   5.847   4.644   6.526  0.4020 -2.0668  2.7098
   22CHL1    C7 1565   5.883   4.584   6.309  0.5870  0.1476 -0.4310
   22CHL1   H7A 1566   5.870   4.690   6.281 -0.0161 -0.0549 -0.9402
   22CHL1   H7B 1567   5.993   4.568   6.303  1.1854  3.2849  0.2883
   22CHL1    C8 1568   5.819   4.480   6.212  0.9737 -0.2618 -0.0438
   22CHL1    H8 1569   5.715   4.510   6.187  0.6352 -0.5551  0.9452
   22CHL1   C14 1570   5.903   4.472   6.080  0.0523  0.3100 -0.6419
   22CHL1   H14 1571   5.992   4.421   6.123 -0.5564 -1.8852 -1.8240
   22CHL1   C15 1572   5.958   4.598   6.013  0.0356  0.4779  0.9001
   22CHL1  H15A 1573   5.869   4.662   5.994 -0.5592 -0.3694  0.7621
   22CHL1  H15B 1574   6.040   4.639   6.075 -1.0763  1.8414  1.5385
   22CHL1   C16 1575   6.009   4.541   5.874 -0.0361  0.1541 -0.0242
   22CHL1  H16A 1576   5.974   4.613   5.797  1.9998  0.5767 -0.6287
   22CHL1  H16B 1577   6.120   4.538   5.867  0.0186  1.1151  0.1665
   22CHL1   C17 1578   5.959   4.398   5.860  0.3539 -0.4740  0.5742
   22CHL1   H17 1579   6.043   4.334   5.895  0.3614  0.4921  2.3872
   22CHL1   C13 1580   5.849   4.375   5.971 -0.3244 -0.5739 -0.0632
   22CHL1   C18 1581   5.709   4.422   5.917  0.2342 -0.6568 -0.5296
   22CHL1  H18A 1582   5.729   4.525   5.880 -0.8408 -0.5545 -0.8514
   22CHL1  H18B 1583   5.682   4.358   5.831  1.7904 -0.4754 -1.1768
   22CHL1  H18C 1584   5.635   4.437   5.999  0.6923 -4.2279  0.7139
   22CHL1   C12 1585   5.840   4.236   6.027 -0.0691 -0.2006 -0.4582
   22CHL1  H12A 1586   5.803   4.147   5.972  0.7168 -1.7796  1.4195
   22CHL1  H12B 1587   5.942   4.203   6.056 -1.0272 -1.2159  2.0522
   22CHL1   C11 1588   5.765   4.230   6.165 -0.5619  0.0201  0.8083
   22CHL1  H11A 1589   5.659   4.245   6.135  0.3399  0.4969 -2.5027
   22CHL1  H11B 1590   5.775   4.133   6.217 -0.4869 -0.8589 -0.7948
   22CHL1    C9 1591   5.811   4.339   6.277 -0.2514 -0.4366  0.3991
   22CHL1    H9 1592   5.912   4.313   6.315 -0.1495  3.5414  3.6001
   22CHL1   C10 1593   5.723   4.348   6.399 -1.2155  0.0225 -0.4789
   22CHL1   C19 1594   5.568   4.352   6.369 -1.0442 -0.3451 -0.0698
   22CHL1  H19A 1595   5.535   4.442   6.313 -0.3906  0.5143  0.9031
   22CHL1  H19B 1596   5.534   4.259   6.318 -1.5881 -0.6093  0.7493
   22CHL1  H19C 1597   5.510   4.365   6.463  1.0337  1.7062  1.0089
   22CHL1    C1 1598   5.745   4.226   6.490  0.0898  0.5920 -0.6596
   22CHL1   H1A 1599   5.697   4.140   6.439  1.4608 -1.5799  1.4728
   22CHL1   H1B 1600   5.854   4.203   6.484 -0.6556 -3.5629 -1.2485
   22CHL1    C2 1601   5.695   4.228   6.630  0.4395 -0.7299 -0.1480
   22CHL1   H2A 1602   5.715   4.129   6.676 -0.8309 -1.3880 -0.9624
   22CHL1   H2B 1603   5.585   4.225   6.620  0.4542  0.4712 -0.9332
   22CHL1   C20 1604   5.931   4.357   5.713 -0.1283  0.6416 -0.0440
   22CHL1   H20 1605   5.851   4.421   5.671 -0.7495 -0.1370 -0.0667
   22CHL1   C21 1606   5.891   4.209   5.714  0.3598  0.7738  0.2243
   22CHL1  H21A 1607   5.972   4.144   5.753 -0.4547 -0.8217 -0.6390
   22CHL1  H21B 1608   5.868   4.173   5.612  3.1052 -1.9468  0.4250
   22CHL1  H21C 1609   5.804   4.182   5.778  2.1617 -2.7470  1.4695
   22CHL1   C22 1610   6.061   4.387   5.623 -0.5437  0.4780  0.4679
   22CHL1  H22A 1611   6.085   4.495   5.622 -0.6668  0.5181 -1.8416
   22CHL1  H22B 1612   6.149   4.331   5.663  0.7512  2.4875  0.5686
   22CHL1   C23 1613   6.057   4.337   5.473  0.3088 -0.2513  0.6973
   22CHL1  H23A 1614   6.078   4.229   5.491 -0.0243 -0.2953  0.8173
   22CHL1  H23B 1615   5.959   4.352   5.423  0.7395  2.0225  0.4574
   22CHL1   C24 1616   6.174   4.389   5.392  0.1388  0.1789 -0.2095
   22CHL1  H24A 1617   6.167   4.500   5.379 -0.2909 -0.0659 -2.6855
   22CHL1  H24B 1618   6.272   4.365   5.437  0.6764  1.0933 -0.8431
   22CHL1   C25 1619   6.170   4.335   5.243 -0.4777  0.1340 -0.2381
   22CHL1   H25 1620   6.067   4.343   5.204 -0.0204  2.5000 -1.1598
   22CHL1   C26 1621   6.274   4.415   5.167  0.1067 -0.3959 -0.8476
   22CHL1  H26A 1622   6.275   4.376   5.063  0.3369 -0.8069 -0.6951
   22CHL1  H26B 1623   6.251   4.524   5.172  0.7080 -0.3118  0.4678
   22CHL1  H26C 1624   6.374   4.408   5.215 -0.6567  1.1946  1.0879
   22CHL1   C27 1625   6.196   4.186   5.233  0.0376  0.4537  0.0032
   22CHL1  H27A 1626   6.292   4.156   5.281  0.3464  0.1756 -0.7737
   22CHL1  H27B 1627   6.113   4.131   5.282  0.1559  0.0429 -0.2543
   22CHL1  H27C 1628   6.208   4.155   5.127  1.3052  0.3550  0.1613
   23CHL1    C3 1629   6.276   2.825   6.650 -0.1814 -0.2657  0.9812
   23CHL1    H3 1630   6.341   2.903   6.605 -1.5431  0.3975  0.0809
   23CHL1    O3 1631   6.256   2.865   6.783 -0.0911 -1.0520 -0.1464
   23CHL1   H3' 1632   6.344   2.865   6.821 -0.8373 -2.1289  1.6508
   23CHL1    C4 1633   6.145   2.819   6.570  0.5337  0.4647 -0.1294
   23CHL1   H4A 1634   6.081   2.749   6.627 -1.5440  0.3299 -2.4601
   23CHL1   H4B 1635   6.086   2.913   6.560 -1.2287 -0.6181 -0.2714
   23CHL1    C5 1636   6.162   2.772   6.428 -0.0403  0.0825  0.0187
   23CHL1    C6 1637   6.126   2.849   6.320  0.4000  0.0247  0.4020
   23CHL1    H6 1638   6.091   2.953   6.331  2.7165  0.7726  1.3469
   23CHL1    C7 1639   6.136   2.806   6.173  0.0758 -0.2332  0.1178
   23CHL1   H7A 1640   6.039   2.821   6.121  0.1502  1.3492  0.4049
   23CHL1   H7B 1641   6.205   2.883   6.133 -1.6218  1.1038 -0.3227
   23CHL1    C8 1642   6.187   2.663   6.154 -0.1677 -0.2347  0.3385
   23CHL1    H8 1643   6.101   2.595   6.167 -0.7677  0.6371  1.0087
   23CHL1   C14 1644   6.249   2.653   6.012  0.4514 -0.4102 -0.3894
   23CHL1   H14 1645   6.338   2.719   6.019  0.3634 -0.4134  1.0938
   23CHL1   C15 1646   6.166   2.682   5.884 -0.2013  0.0674 -0.0289
   23CHL1  H15A 1647   6.074   2.622   5.895  0.2783 -0.9438 -1.3530
   23CHL1  H15B 1648   6.139   2.789   5.872  0.0119  0.5108  2.7814
   23CHL1   C16 1649   6.256   2.635   5.767 -0.3697  0.4881  1.1053
   23CHL1  H16A 1650   6.181   2.584   5.704 -0.4402  2.0401 -0.1042
   23CHL1  H16B 1651   6.299   2.722   5.713 -3.2016  1.3074 -0.0040
   23CHL1   C17 1652   6.358   2.537   5.826  0.1896  0.2284 -0.1051
   23CHL1   H17 1653   6.443   2.610   5.829 -0.9380  1.5675  0.1668
   23CHL1   C13 1654   6.317   2.515   5.976 -0.3372  0.0133  0.0734
   23CHL1   C18 1655   6.208   2.404   5.986  0.3298 -0.4388 -0.5806
   23CHL1  H18A 1656   6.142   2.414   6.075  0.7142 -2.1523 -0.0574
   23CHL1  H18B 1657   6.136   2.415   5.903 -0.8700  0.2854  0.5072
   23CHL1  H18C 1658   6.267   2.309   5.989  1.2815  0.1416 -0.5033
   23CHL1   C12 1659   6.431   2.499   6.083  0.4150 -0.8743 -0.1290
   23CHL1  H12A 1660   6.490   2.409   6.053 -0.5996 -2.2110  1.6416
   23CHL1  H12B 1661   6.502   2.584   6.088  0.0121 -0.5369 -0.2173
   23CHL1   C11 1662   6.370   2.493   6.227  0.7120 -0.1571 -0.2134
   23CHL1  H11A 1663   6.313   2.399   6.241  0.2295  0.1839  0.1423
   23CHL1  H11B 1664   6.451   2.489   6.304 -0.1967  0.5432  0.8061
   23CHL1    C9 1665   6.288   2.622   6.260 -0.0047 -1.2293  0.2835
   23CHL1    H9 1666   6.364   2.702   6.245 -1.5437  0.0202 -1.1666
   23CHL1   C10 1667   6.235   2.638   6.409  0.3222  0.0903 -0.5804
   23CHL1   C19 1668   6.144   2.515   6.434  0.3243  0.5897  0.5117
   23CHL1  H19A 1669   6.189   2.414   6.425 -1.7590 -0.2785 -0.9511
   23CHL1  H19B 1670   6.101   2.520   6.537  0.7601 -1.9338  0.8765
   23CHL1  H19C 1671   6.063   2.518   6.358  0.6084  1.0909  0.2238
   23CHL1    C1 1672   6.355   2.633   6.517  0.3109  0.2824  0.1809
   23CHL1   H1A 1673   6.406   2.534   6.517  0.2539  0.2259  1.7211
   23CHL1   H1B 1674   6.435   2.695   6.470 -0.8109  0.9721 -0.8807
   23CHL1    C2 1675   6.331   2.682   6.658  0.6715  0.5205  0.7841
   23CHL1   H2A 1676   6.429   2.678   6.709 -0.1364 -2.2746  2.3300
   23CHL1   H2B 1677   6.263   2.612   6.712  1.0399  0.5443  1.2878
   23CHL1   C20 1678   6.390   2.417   5.739  0.5190  0.1560  0.5900
   23CHL1   H20 1679   6.299   2.354   5.735  0.8114 -0.2057 -0.8081
   23CHL1   C21 1680   6.509   2.333   5.785  0.3308 -0.2365 -0.2303
   23CHL1  H21A 1681   6.602   2.393   5.772  0.3588 -0.2316 -0.0174
   23CHL1  H21B 1682   6.513   2.251   5.710  0.0694 -1.0814  0.6469
   23CHL1  H21C 1683   6.500   2.296   5.889  0.7900  1.5306  0.4753
   23CHL1   C22 1684   6.415   2.462   5.588  0.0862 -0.1859  0.4960
   23CHL1  H22A 1685   6.332   2.525   5.547 -1.0643 -0.9411  1.6078
   23CHL1  H22B 1686   6.508   2.522   5.580 -0.8268  1.5391  2.0153
   23CHL1   C23 1687   6.422   2.349   5.479  0.2636  0.6805 -0.0831
   23CHL1  H23A 1688   6.526   2.311   5.468  0.8853  2.1627  0.4836
   23CHL1  H23B 1689   6.359   2.269   5.525 -1.1839  2.6724  1.6119
   23CHL1   C24 1690   6.384   2.399   5.343  0.9152  0.2685 -0.1085
   23CHL1  H24A 1691   6.280   2.436   5.348  0.7144 -0.1141 -1.1719
   23CHL1  H24B 1692   6.442   2.490   5.315  1.3483 -0.5468 -2.0125
   23CHL1   C25 1693   6.394   2.303   5.224  0.1597  0.7496  0.2667
   23CHL1   H25 1694   6.500   2.274   5.211 -0.4649 -2.4518  1.1864
   23CHL1   C26 1695   6.311   2.173   5.236 -0.0396  0.1906  0.5443
   23CHL1  H26A 1696   6.301   2.119   5.139  2.2709  2.5989 -1.1705
   23CHL1  H26B 1697   6.342   2.102   5.315 -4.1604 -1.1171  1.2315
   23CHL1  H26C 1698   6.208   2.208   5.261 -1.2777 -0.3600 -3.1166
   23CHL1   C27 1699   6.359   2.368   5.087 -0.0261  0.7834 -0.2544
   23CHL1  H27A 1700   6.252   2.398   5.090 -0.7449 -1.5975  0.0563
   23CHL1  H27B 1701   6.430   2.449   5.062  2.4056 -1.1008  0.1914
   23CHL1  H27C 1702   6.361   2.288   5.009  1.1924 -0.0881  0.6396
   24CHL1    C3 1703   4.740   4.931   6.875  0.1135  1.0268 -0.1013
   24CHL1    H3 1704   4.632   4.953   6.864 -0.1028  0.7006  1.2380
   24CHL1    O3 1705   4.765   4.899   7.013  0.4482 -0.1050  0.0965
   24CHL1   H3' 1706   4.762   4.803   7.015 -0.1498 -0.0818  1.3932
   24CHL1    C4 1707   4.779   4.803   6.797  0.0102  0.1962  0.7227
   24CHL1   H4A 1708   4.889   4.797   6.809  0.5158  0.9866 -2.4613
   24CHL1   H4B 1709   4.718   4.720   6.838 -1.6700  1.5769  1.1403
   24CHL1    C5 1710   4.757   4.820   6.647  0.0178 -0.7720 -0.3648
   24CHL1    C6 1711   4.693   4.721   6.574  0.3792 -0.3785  0.3664
   24CHL1    H6 1712   4.656   4.629   6.621 -2.4006  0.3486 -0.2431
   24CHL1    C7 1713   4.665   4.724   6.424  0.3408  0.2197  0.9879
   24CHL1   H7A 1714   4.715   4.639   6.372  1.2779  0.9050  0.7465
   24CHL1   H7B 1715   4.557   4.730   6.396  0.5810 -1.6205 -0.5321
   24CHL1    C8 1716   4.745   4.850   6.363  0.4461  0.3265  0.4027
   24CHL1    H8 1717   4.849   4.814   6.357  0.6073  0.7925  0.3170
   24CHL1   C14 1718   4.698   4.884   6.221  0.7374  0.1969  0.6645
   24CHL1   H14 1719   4.603   4.940   6.234  2.2944  2.8344  1.5241
   24CHL1   C15 1720   4.679   4.763   6.125  0.1471  0.7112 -1.1793
   24CHL1  H15A 1721   4.747   4.684   6.164  1.0333  2.2484  0.5115
   24CHL1  H15B 1722   4.574   4.727   6.133  0.7901 -1.0005  0.3907
   24CHL1   C16 1723   4.718   4.816   5.985  0.1044  0.1242  0.5570
   24CHL1  H16A 1724   4.810   4.767   5.948  0.3340  1.2482 -0.4275
   24CHL1  H16B 1725   4.636   4.794   5.913  0.7965 -1.6970  0.2665
   24CHL1   C17 1726   4.735   4.969   5.993  0.0895 -0.1234 -0.6940
   24CHL1   H17 1727   4.632   5.010   5.982  0.5395  0.4884 -3.2417
   24CHL1   C13 1728   4.784   4.982   6.144 -1.1294  0.1985 -0.1322
   24CHL1   C18 1729   4.940   4.942   6.135  0.9629 -0.1106 -0.0001
   24CHL1  H18A 1730   4.955   4.851   6.073  1.3652 -1.1794  1.5792
   24CHL1  H18B 1731   5.005   5.019   6.089  1.4916 -1.1015 -0.9508
   24CHL1  H18C 1732   4.982   4.930   6.237  2.7716 -1.2181 -0.8189
   24CHL1   C12 1733   4.755   5.116   6.224  0.4273 -0.3198  0.5882
   24CHL1  H12A 1734   4.806   5.205   6.181 -0.4300 -0.9857 -1.9890
   24CHL1  H12B 1735   4.645   5.134   6.228  0.1177 -2.2587  1.9812
   24CHL1   C11 1736   4.801   5.101   6.376  0.1746 -0.9193  0.0285
   24CHL1  H11A 1737   4.912   5.101   6.374  0.1906  0.8670 -0.5322
   24CHL1  H11B 1738   4.765   5.194   6.425 -0.9455 -0.2976 -1.8775
   24CHL1    C9 1739   4.744   4.972   6.454  0.7405 -0.6064 -0.3088
   24CHL1    H9 1740   4.634   4.989   6.466  0.1992 -3.0488 -1.2962
   24CHL1   C10 1741   4.813   4.945   6.588 -0.0281  0.1943 -0.1598
   24CHL1   C19 1742   4.965   4.931   6.570 -0.0408  0.0349 -0.1891
   24CHL1  H19A 1743   5.010   5.028   6.536 -0.3744 -0.8629 -3.5910
   24CHL1  H19B 1744   5.012   4.899   6.665 -1.3982 -1.4352  0.0197
   24CHL1  H19C 1745   4.998   4.853   6.498 -1.8769 -1.3970  0.4641
   24CHL1    C1 1746   4.778   5.067   6.683 -0.2669 -0.3278  0.7298
   24CHL1   H1A 1747   4.837   5.148   6.635 -0.5463 -1.3637 -1.5065
   24CHL1   H1B 1748   4.672   5.087   6.654  0.1381 -0.5978 -1.0670
   24CHL1    C2 1749   4.816   5.054   6.826  0.3336 -0.3358  0.0456
   24CHL1   H2A 1750   4.794   5.143   6.889 -1.4916 -0.0011 -1.0125
   24CHL1   H2B 1751   4.925   5.043   6.845  0.0957 -2.7420  0.3406
   24CHL1   C20 1752   4.813   5.033   5.878  0.1409 -1.1130 -0.5737
   24CHL1   H20 1753   4.922   5.011   5.882  1.2795  3.6853  0.8202
   24CHL1   C21 1754   4.826   5.188   5.911 -0.0043 -0.3959 -0.4544
   24CHL1  H21A 1755   4.867   5.230   5.817 -0.7208 -1.9173 -1.5004
   24CHL1  H21B 1756   4.893   5.207   5.997 -1.0391  1.6477 -0.0556
   24CHL1  H21C 1757   4.728   5.238   5.926  1.1245  3.3582 -3.9592
   24CHL1   C22 1758   4.753   4.995   5.742 -0.7489  0.1025 -0.0320
   24CHL1  H22A 1759   4.773   4.886   5.736  0.8573  0.4039 -0.7450
   24CHL1  H22B 1760   4.646   5.022   5.746 -0.4097  1.4067  2.2745
   24CHL1   C23 1761   4.815   5.055   5.608 -0.4869 -0.4943 -0.7785
   24CHL1  H23A 1762   4.799   5.165   5.605  0.8273 -0.2143  1.1878
   24CHL1  H23B 1763   4.924   5.038   5.614 -0.7090 -1.8838 -0.1210
   24CHL1   C24 1764   4.758   4.988   5.492 -0.5738  0.2935 -0.6533
   24CHL1  H24A 1765   4.759   4.879   5.514  1.6241  0.0627 -1.6417
   24CHL1  H24B 1766   4.655   5.018   5.463 -0.1273  0.7527 -1.8562
   24CHL1   C25 1767   4.851   5.004   5.371 -0.1217  0.2378 -1.1990
   24CHL1   H25 1768   4.956   5.008   5.409 -0.6505  1.2095  0.2483
   24CHL1   C26 1769   4.836   4.893   5.268 -0.6072  0.3976  0.4205
   24CHL1  H26A 1770   4.858   4.793   5.310 -2.8912 -1.2003 -1.9019
   24CHL1  H26B 1771   4.739   4.884   5.215  0.9458  0.8809 -2.7504
   24CHL1  H26C 1772   4.913   4.897   5.187 -2.1221  2.1544 -1.0137
   24CHL1   C27 1773   4.814   5.136   5.300  0.8176 -0.0124 -0.0572
   24CHL1  H27A 1774   4.881   5.149   5.213  1.4557  1.6865  0.6444
   24CHL1  H27B 1775   4.712   5.134   5.255  0.2142  2.5939  0.9929
   24CHL1  H27C 1776   4.831   5.216   5.375  0.1106 -0.0181  0.1155
   25CHL1    C3 1777   2.777   0.509   6.892  0.3340  0.3752 -0.6002
   25CHL1    H3 1778   2.696   0.444   6.851  0.1119  1.8552 -2.6491
   25CHL1    O3 1779   2.821   0.442   7.007 -0.0824 -0.0250 -0.5369
   25CHL1   H3' 1780   2.740   0.430   7.057  1.4888  1.2238  2.6160
   25CHL1    C4 1781   2.882   0.519   6.789  0.4017  0.7388  0.0057
   25CHL1   H4A 1782   2.980   0.554   6.829  0.5859  1.3156 -0.9144
   25CHL1   H4B 1783   2.913   0.417   6.758  0.4477  0.5270  0.7324
   25CHL1    C5 1784   2.844   0.603   6.668  0.5741 -0.0345  0.1778
   25CHL1    C6 1785   2.859   0.553   6.542 -0.6109 -0.6585 -0.3116
   25CHL1    H6 1786   2.896   0.451   6.526 -2.0621 -1.4344  1.0066
   25CHL1    C7 1787   2.834   0.634   6.419 -0.5945 -0.6661  0.1347
   25CHL1   H7A 1788   2.919   0.627   6.348  0.1168  0.1336  0.8877
   25CHL1   H7B 1789   2.734   0.608   6.378 -0.5020  0.3591 -0.7926
   25CHL1    C8 1790   2.829   0.791   6.451  0.2172 -0.2898 -0.1448
   25CHL1    H8 1791   2.931   0.834   6.458 -0.0599  1.1384 -3.2035
   25CHL1   C14 1792   2.774   0.863   6.329  0.2321 -0.6207 -0.0865
   25CHL1   H14 1793   2.664   0.848   6.318  0.1317 -1.1484  1.4232
   25CHL1   C15 1794   2.828   0.826   6.192 -0.3401  0.0765 -0.1203
   25CHL1  H15A 1795   2.939   0.831   6.192 -0.3879  2.0400 -0.5062
   25CHL1  H15B 1796   2.784   0.730   6.155 -4.8474  1.9969 -0.4673
   25CHL1   C16 1797   2.771   0.947   6.107 -0.3501  0.8530 -0.5793
   25CHL1  H16A 1798   2.846   0.980   6.032 -0.5802 -2.7132 -2.6028
   25CHL1  H16B 1799   2.691   0.919   6.036  1.4850  0.6476 -2.6951
   25CHL1   C17 1800   2.713   1.054   6.207 -0.5574  0.3306 -0.0806
   25CHL1   H17 1801   2.604   1.038   6.217 -0.9792  0.3188 -3.4898
   25CHL1   C13 1802   2.778   1.016   6.338  0.4860 -0.2860 -0.0053
   25CHL1   C18 1803   2.920   1.070   6.342 -0.0348  0.0797  0.0375
   25CHL1  H18A 1804   2.980   1.031   6.258  2.9824 -2.0856  2.9321
   25CHL1  H18B 1805   2.905   1.180   6.339 -2.0183 -0.1720 -0.1073
   25CHL1  H18C 1806   2.966   1.045   6.440  2.1449  1.8175 -0.4286
   25CHL1   C12 1807   2.695   1.047   6.468  0.1629 -0.5359  0.2653
   25CHL1  H12A 1808   2.691   1.154   6.498 -0.7679 -0.4669 -0.0893
   25CHL1  H12B 1809   2.589   1.020   6.449  0.5159 -1.5871 -0.3166
   25CHL1   C11 1810   2.738   0.974   6.600 -0.1265  0.2087  0.2764
   25CHL1  H11A 1811   2.833   1.019   6.638  1.2401  0.5347 -3.1272
   25CHL1  H11B 1812   2.658   0.999   6.673 -1.2717  0.6067 -1.0838
   25CHL1    C9 1813   2.748   0.820   6.577  0.3247 -0.4936  0.5635
   25CHL1    H9 1814   2.644   0.788   6.556 -0.2876 -0.0216  2.6921
   25CHL1   C10 1815   2.796   0.744   6.702 -0.2806 -0.4320 -0.2511
   25CHL1   C19 1816   2.910   0.817   6.762 -0.6383  0.5398  0.0936
   25CHL1  H19A 1817   2.878   0.902   6.826  2.5843  0.5318  1.9574
   25CHL1  H19B 1818   2.957   0.753   6.840 -2.1224 -0.5883  0.1176
   25CHL1  H19C 1819   2.995   0.846   6.697 -0.1835  2.0566  1.3034
   25CHL1    C1 1820   2.680   0.729   6.811 -1.1428 -0.3486 -0.1403
   25CHL1   H1A 1821   2.664   0.831   6.851  1.5060  0.8994 -1.9666
   25CHL1   H1B 1822   2.591   0.700   6.751 -1.9311  0.0957  0.7935
   25CHL1    C2 1823   2.724   0.648   6.939  0.5050  0.4507 -0.0526
   25CHL1   H2A 1824   2.639   0.625   7.006 -0.0937 -0.9715 -1.2183
   25CHL1   H2B 1825   2.805   0.697   6.996  0.8681  0.5858 -0.6731
   25CHL1   C20 1826   2.717   1.198   6.157 -0.4928 -0.7076  0.0500
   25CHL1   H20 1827   2.822   1.234   6.156 -1.1004  1.2236 -0.7704
   25CHL1   C21 1828   2.623   1.281   6.253 -0.0354  0.3391  0.4299
   25CHL1  H21A 1829   2.689   1.305   6.339  0.5437 -1.3859  0.4999
   25CHL1  H21B 1830   2.539   1.215   6.284 -1.5188  2.2120  0.6324
   25CHL1  H21C 1831   2.577   1.376   6.219 -0.4133  0.4907  1.3556
   25CHL1   C22 1832   2.667   1.215   6.013  0.2938 -0.4936  0.4057
   25CHL1  H22A 1833   2.721   1.149   5.942  0.2517  0.1526 -0.2397
   25CHL1  H22B 1834   2.560   1.187   6.001  0.9584 -2.7706 -0.8055
   25CHL1   C23 1835   2.683   1.358   5.960 -0.2769 -0.3742 -0.3292
   25CHL1  H23A 1836   2.604   1.430   5.993  1.9782  1.5178  1.2568
   25CHL1  H23B 1837   2.774   1.406   6.000  0.8493 -1.1730 -1.8564
   25CHL1   C24 1838   2.700   1.353   5.807 -0.0592  0.4656  0.0745
   25CHL1  H24A 1839   2.769   1.267   5.801  0.6381  0.9398  1.0635
   25CHL1  H24B 1840   2.604   1.317   5.763 -1.2194  2.0615  1.1509
   25CHL1   C25 1841   2.766   1.472   5.735 -0.0306 -0.6722  0.0494
   25CHL1   H25 1842   2.872   1.470   5.767 -0.4090 -1.5310  1.3148
   25CHL1   C26 1843   2.762   1.471   5.576 -0.3585  0.1214 -0.4829
   25CHL1  H26A 1844   2.659   1.494   5.542 -1.1933  1.5469  2.6544
   25CHL1  H26B 1845   2.825   1.555   5.540  2.1636 -2.3096 -2.1095
   25CHL1  H26C 1846   2.795   1.376   5.529  1.7320  0.9417 -0.7620
   25CHL1   C27 1847   2.702   1.608   5.772 -0.3676 -0.4464  0.1097
   25CHL1  H27A 1848   2.764   1.635   5.860  0.6129 -1.0384 -0.3810
   25CHL1  H27B 1849   2.717   1.692   5.701 -3.0323  0.5170  0.5915
   25CHL1  H27C 1850   2.598   1.595   5.810  0.0889 -1.6345  1.0420
   26CHL1    C3 1851   1.984   6.265   6.714 -0.5122 -0.9584 -0.9377
   26CHL1    H3 1852   1.880   6.304   6.708  0.1203  1.4396  1.3479
   26CHL1    O3 1853   1.996   6.201   6.837 -0.4675 -0.3735 -0.3433
   26CHL1   H3' 1854   1.923   6.140   6.844 -0.8963  0.0223 -1.2149
   26CHL1    C4 1855   2.012   6.160   6.605  0.0324  0.3529 -0.6812
   26CHL1   H4A 1856   2.112   6.118   6.628  0.1110  2.1404  2.7855
   26CHL1   H4B 1857   1.945   6.073   6.623 -1.2144  1.3002 -0.6079
   26CHL1    C5 1858   2.009   6.212   6.463 -1.1193  0.5795 -0.4047
   26CHL1    C6 1859   1.924   6.163   6.371 -0.3161 -0.5668  0.2165
   26CHL1    H6 1860   1.861   6.077   6.399  0.7528 -0.7656  2.2513
   26CHL1    C7 1861   1.910   6.221   6.231  0.8604 -0.4514  0.9427
   26CHL1   H7A 1862   1.882   6.149   6.152 -1.3684  0.9517  0.3678
   26CHL1   H7B 1863   1.830   6.297   6.220  0.3673 -1.1651 -0.8073
   26CHL1    C8 1864   2.045   6.287   6.200 -0.2875 -0.2679 -0.3644
   26CHL1    H8 1865   2.119   6.204   6.208  0.5119  0.4881  0.2275
   26CHL1   C14 1866   2.041   6.331   6.056 -0.3520  0.1902  0.1469
   26CHL1   H14 1867   1.965   6.412   6.050  0.7390  1.1843 -0.8234
   26CHL1   C15 1868   2.021   6.234   5.944  0.0413 -0.0550  0.2755
   26CHL1  H15A 1869   2.086   6.144   5.953  0.2839  0.1479  0.5865
   26CHL1  H15B 1870   1.912   6.212   5.935 -0.6472  3.0400  0.0187
   26CHL1   C16 1871   2.057   6.305   5.816 -1.5049 -0.8686  0.3561
   26CHL1  H16A 1872   2.120   6.240   5.751  1.1634  0.8450  1.0366
   26CHL1  H16B 1873   1.962   6.342   5.771 -0.2153  3.8796  0.9538
   26CHL1   C17 1874   2.144   6.432   5.867 -0.3620 -0.4118 -0.2231
   26CHL1   H17 1875   2.075   6.519   5.865 -1.1062 -0.9920 -1.2042
   26CHL1   C13 1876   2.174   6.407   6.016 -0.0201  0.8292  0.4361
   26CHL1   C18 1877   2.293   6.318   6.026 -0.4494 -0.3914  0.2776
   26CHL1  H18A 1878   2.298   6.237   5.951 -0.2466  0.9836 -1.2592
   26CHL1  H18B 1879   2.379   6.382   5.996 -2.0784  1.0039 -1.7338
   26CHL1  H18C 1880   2.297   6.283   6.131  1.4314 -1.2830 -0.0504
   26CHL1   C12 1881   2.182   6.537   6.102 -0.3669 -0.2453  0.3239
   26CHL1  H12A 1882   2.270   6.592   6.062 -0.8531 -1.4635 -2.7826
   26CHL1  H12B 1883   2.088   6.595   6.090 -1.1695 -1.6617 -0.5637
   26CHL1   C11 1884   2.186   6.500   6.259 -0.4898 -0.1947 -0.0036
   26CHL1  H11A 1885   2.291   6.465   6.273 -0.4483  0.2181  0.7513
   26CHL1  H11B 1886   2.173   6.590   6.321 -1.6153 -0.7058  0.5196
   26CHL1    C9 1887   2.080   6.394   6.306  0.4531  0.2966  1.1786
   26CHL1    H9 1888   1.983   6.449   6.306 -1.1087 -2.1711 -1.6817
   26CHL1   C10 1889   2.112   6.327   6.441  0.6555  0.3483  0.3704
   26CHL1   C19 1890   2.255   6.270   6.434 -0.2836 -0.0683  0.0750
   26CHL1  H19A 1891   2.277   6.228   6.334  0.1082  0.2261  0.0339
   26CHL1  H19B 1892   2.330   6.353   6.435 -0.7833  0.3936  0.9260
   26CHL1  H19C 1893   2.272   6.196   6.515 -0.1240 -0.4826 -0.3367
   26CHL1    C1 1894   2.091   6.436   6.557 -0.4563 -0.2752 -0.0646
   26CHL1   H1A 1895   2.183   6.495   6.539  1.8747 -3.6472 -0.2893
   26CHL1   H1B 1896   2.000   6.490   6.526 -0.1857  0.6915  0.7797
   26CHL1    C2 1897   2.088   6.382   6.696 -0.1828  0.3824 -0.3132
   26CHL1   H2A 1898   2.056   6.469   6.758 -2.0486 -0.8720  0.5818
   26CHL1   H2B 1899   2.188   6.339   6.715 -0.8691 -1.9870 -1.7574
   26CHL1   C20 1900   2.239   6.479   5.760 -0.2933  0.4356 -1.1722
   26CHL1   H20 1901   2.308   6.392   5.750  0.3263  1.0059 -2.0427
   26CHL1   C21 1902   2.325   6.590   5.808 -0.3792 -0.2888 -0.1980
   26CHL1  H21A 1903   2.392   6.557   5.889 -3.2654  0.6192  2.7653
   26CHL1  H21B 1904   2.264   6.673   5.851 -0.0659 -0.0421 -0.2303
   26CHL1  H21C 1905   2.385   6.626   5.722  1.2811  0.1353  1.1109
   26CHL1   C22 1906   2.173   6.516   5.624 -0.2378  0.5908  0.5528
   26CHL1  H22A 1907   2.093   6.439   5.615 -0.2744  0.5085  1.4195
   26CHL1  H22B 1908   2.122   6.615   5.634  1.2251  1.4542 -0.2461
   26CHL1   C23 1909   2.262   6.529   5.494 -0.0166  0.6369 -0.0016
   26CHL1  H23A 1910   2.305   6.632   5.489 -0.4682  0.8343  0.1741
   26CHL1  H23B 1911   2.339   6.449   5.495 -0.4034  0.2283 -1.4557
   26CHL1   C24 1912   2.174   6.522   5.365 -0.6614  0.0702 -0.3222
   26CHL1  H24A 1913   2.118   6.426   5.370  0.4009 -0.8052 -3.1262
   26CHL1  H24B 1914   2.100   6.604   5.375 -1.3514 -0.7833  2.1895
   26CHL1   C25 1915   2.261   6.518   5.238  0.0009  0.4968 -0.2056
   26CHL1   H25 1916   2.356   6.463   5.255 -0.6077 -0.1525  1.2632
   26CHL1   C26 1917   2.183   6.425   5.143  0.3428  0.2324 -0.2517
   26CHL1  H26A 1918   2.187   6.323   5.187 -0.4674  0.2240 -0.1794
   26CHL1  H26B 1919   2.081   6.469   5.141  0.5471  0.9880  2.5459
   26CHL1  H26C 1920   2.228   6.425   5.041  1.3114 -0.2641  0.1654
   26CHL1   C27 1921   2.278   6.661   5.171  0.1238 -0.3672 -0.1072
   26CHL1  H27A 1922   2.176   6.675   5.128 -0.0014 -0.0112  0.2904
   26CHL1  H27B 1923   2.291   6.734   5.254 -2.4701 -2.4198  2.3159
   26CHL1  H27C 1924   2.356   6.678   5.095 -1.8879  0.0258 -2.1951
   27CHL1    C3 1925   5.145   3.857   6.741  0.1003 -0.0177 -0.2478
   27CHL1    H3 1926   5.246   3.877   6.699  0.2788 -0.6133 -0.1047
   27CHL1    O3 1927   5.150   3.867   6.886 -0.1978  0.0512  0.5407
   27CHL1   H3' 1928   5.059   3.868   6.915 -0.4199  2.7962 -0.0519
   27CHL1    C4 1929   5.048   3.951   6.677  0.5358  0.6036  0.1002
   27CHL1   H4A 1930   4.946   3.954   6.721 -0.3988 -0.0380 -1.8737
   27CHL1   H4B 1931   5.082   4.054   6.702 -0.8513  1.2876 -0.7234
   27CHL1    C5 1932   5.046   3.942   6.524 -0.2568  0.2097 -0.0179
   27CHL1    C6 1933   5.083   4.042   6.443  0.1132 -0.1031 -0.0680
   27CHL1    H6 1934   5.099   4.137   6.497  1.6481 -1.3627  1.8555
   27CHL1    C7 1935   5.073   4.032   6.295 -0.9353 -1.1991 -0.4355
   27CHL1   H7A 1936   5.019   4.119   6.251  2.3510  1.3300  0.0610
   27CHL1   H7B 1937   5.173   4.037   6.248 -0.6191  0.9153  0.3283
   27CHL1    C8 1938   4.995   3.907   6.245 -0.1335 -0.4252  0.8539
   27CHL1    H8 1939   4.885   3.916   6.257 -0.6883  0.8606 -3.4044
   27CHL1   C14 1940   5.021   3.891   6.101 -0.6996 -0.2241  0.3288
   27CHL1   H14 1941   5.130   3.870   6.092 -0.5344  1.4373 -3.1812
   27CHL1   C15 1942   5.004   4.014   6.014  0.2028 -0.4247 -0.0671
   27CHL1  H15A 1943   4.910   4.070   6.038 -1.4062 -2.4667 -1.2955
   27CHL1  H15B 1944   5.094   4.077   6.032 -0.4928  0.2150  1.3982
   27CHL1   C16 1945   4.996   3.956   5.875 -0.5360  0.3282  0.7771
   27CHL1  H16A 1946   4.894   3.990   5.848 -0.3930  0.2151  0.0845
   27CHL1  H16B 1947   5.076   3.996   5.809 -1.5460  1.6058  0.2688
   27CHL1   C17 1948   5.014   3.797   5.895  0.5903 -0.4638 -0.0487
   27CHL1   H17 1949   5.122   3.775   5.892  0.7425 -0.1006  1.8076
   27CHL1   C13 1950   4.954   3.772   6.036  0.4751 -0.0067  0.8094
   27CHL1   C18 1951   4.804   3.792   6.028  0.4917  0.4523  0.7367
   27CHL1  H18A 1952   4.761   3.723   5.951 -0.3928  1.0252  0.7074
   27CHL1  H18B 1953   4.759   3.774   6.128  0.7671 -0.4449  0.7146
   27CHL1  H18C 1954   4.784   3.896   5.994  1.8384  0.3810 -0.3362
   27CHL1   C12 1955   4.999   3.643   6.110  0.0681  0.3758  0.6716
   27CHL1  H12A 1956   4.949   3.556   6.064  1.5993 -0.7500  1.0554
   27CHL1  H12B 1957   5.108   3.628   6.090 -0.1073 -0.9147  0.5898
   27CHL1   C11 1958   4.973   3.659   6.260 -0.4034  0.2019 -0.2704
   27CHL1  H11A 1959   4.864   3.661   6.284 -0.0963  0.8611  1.2272
   27CHL1  H11B 1960   5.000   3.568   6.317 -1.0084 -0.2242 -0.6534
   27CHL1    C9 1961   5.036   3.784   6.322 -0.0179 -0.3441  0.4077
   27CHL1    H9 1962   5.145   3.774   6.302  0.5470 -0.2231  3.0631
   27CHL1   C10 1963   5.020   3.803   6.474 -0.0437  1.1368  0.0981
   27CHL1   C19 1964   4.861   3.782   6.498 -0.0949 -1.0454  0.4408
   27CHL1  H19A 1965   4.824   3.813   6.599 -0.1490  0.3370  0.0258
   27CHL1  H19B 1966   4.803   3.841   6.424  0.2331  0.3413  1.2273
   27CHL1  H19C 1967   4.839   3.674   6.500 -1.5562 -0.7801  2.5021
   27CHL1    C1 1968   5.094   3.695   6.564 -0.0580 -0.0175  0.3183
   27CHL1   H1A 1969   5.035   3.602   6.545  0.2609  0.1841 -1.9970
   27CHL1   H1B 1970   5.197   3.691   6.522 -0.3620  2.8602 -0.8973
   27CHL1    C2 1971   5.102   3.717   6.711  0.3170  0.6483  0.1652
   27CHL1   H2A 1972   5.182   3.651   6.751  1.8426  2.8081  0.8296
   27CHL1   H2B 1973   5.004   3.686   6.754 -0.6617  2.1141 -0.9058
   27CHL1   C20 1974   4.948   3.727   5.768 -0.0271 -0.5282  0.4290
   27CHL1   H20 1975   4.840   3.717   5.792  0.6828 -1.9497  3.4036
   27CHL1   C21 1976   5.003   3.588   5.769  0.2355  0.0737 -0.0445
   27CHL1  H21A 1977   5.114   3.585   5.776  0.4874  0.9086 -2.6411
   27CHL1  H21B 1978   4.959   3.536   5.681  0.7949 -1.6952  0.6765
   27CHL1  H21C 1979   4.971   3.536   5.862 -0.1799  2.1749  1.0236
   27CHL1   C22 1980   4.962   3.795   5.627 -0.2088 -0.5163 -0.1202
   27CHL1  H22A 1981   4.928   3.901   5.637  2.8741  0.4488  1.2074
   27CHL1  H22B 1982   5.070   3.810   5.608  0.4954 -1.2468  2.8126
   27CHL1   C23 1983   4.897   3.727   5.509 -0.0773  0.4221  0.2970
   27CHL1  H23A 1984   4.928   3.622   5.490  0.2981  0.7308 -0.8797
   27CHL1  H23B 1985   4.788   3.720   5.530 -0.1862 -0.4174 -0.4925
   27CHL1   C24 1986   4.917   3.805   5.373  0.1894  0.5893 -1.4720
   27CHL1  H24A 1987   4.952   3.905   5.409 -2.0400  0.9786 -0.1955
   27CHL1  H24B 1988   4.996   3.750   5.318  1.4281 -0.3007  1.0810
   27CHL1   C25 1989   4.784   3.816   5.292 -0.1840  0.4401  0.5244
   27CHL1   H25 1990   4.705   3.863   5.355  0.1541  1.8629 -0.0649
   27CHL1   C26 1991   4.798   3.911   5.176 -0.6110 -0.3259 -0.0738
   27CHL1  H26A 1992   4.892   3.873   5.129 -0.0292 -0.6119  1.2939
   27CHL1  H26B 1993   4.719   3.895   5.099 -3.0481 -2.1635  2.6386
   27CHL1  H26C 1994   4.817   4.016   5.208  0.5408 -0.2247 -0.9944
   27CHL1   C27 1995   4.735   3.685   5.233 -0.1668 -0.2374 -0.3280
   27CHL1  H27A 1996   4.635   3.698   5.186  0.4550  2.1438 -1.1828
   27CHL1  H27B 1997   4.814   3.652   5.162  0.1898  1.2729 -0.6686
   27CHL1  H27C 1998   4.744   3.607   5.311 -0.5401 -0.8145 -0.8589
   28CHL1    C3 1999   4.940   0.143   6.466  0.5298 -0.5569 -0.3825
   28CHL1    H3 2000   5.016   0.065   6.487 -1.4014 -1.8103  2.6491
   28CHL1    O3 2001   4.902   0.166   6.598 -0.1877 -0.1050 -0.3508
   28CHL1   H3' 2002   4.983   0.181   6.646 -0.8191 -2.0582  1.4719
   28CHL1    C4 2003   4.991   0.273   6.405 -0.4711 -0.5475  0.2472
   28CHL1   H4A 2004   4.908   0.348   6.402 -0.9818 -1.1297 -1.0714
   28CHL1   H4B 2005   5.078   0.307   6.466 -1.4436  0.5312  1.0888
   28CHL1    C5 2006   5.034   0.257   6.262  0.5063 -0.4315  0.1338
   28CHL1    C6 2007   5.154   0.290   6.216 -0.3898 -0.8812  0.3013
   28CHL1    H6 2008   5.228   0.332   6.285  0.7955 -2.5527  0.0853
   28CHL1    C7 2009   5.206   0.272   6.073  0.6741 -0.6604 -0.0439
   28CHL1   H7A 2010   5.262   0.360   6.034 -2.2440  2.0161  1.3376
   28CHL1   H7B 2011   5.284   0.193   6.070  0.9821 -0.4689  1.8252
   28CHL1    C8 2012   5.093   0.228   5.977  0.3710 -0.3677  0.5832
   28CHL1    H8 2013   5.029   0.318   5.964  0.8511 -0.1659 -0.4930
   28CHL1   C14 2014   5.149   0.177   5.843  0.1255 -0.0278  0.8881
   28CHL1   H14 2015   5.204   0.086   5.876  0.4898  0.1483  0.7776
   28CHL1   C15 2016   5.233   0.264   5.752  0.2953  1.0009 -0.4620
   28CHL1  H15A 2017   5.197   0.369   5.753  0.6949  1.1416 -0.2164
   28CHL1  H15B 2018   5.336   0.278   5.791 -0.5381  1.3642  1.7715
   28CHL1   C16 2019   5.234   0.193   5.616 -0.2897 -0.6238  0.1278
   28CHL1  H16A 2020   5.217   0.276   5.544  1.7659 -0.1328  0.1656
   28CHL1  H16B 2021   5.336   0.149   5.615 -0.3331 -1.0665  3.4858
   28CHL1   C17 2022   5.125   0.083   5.623  0.0341  0.0303  0.0978
   28CHL1   H17 2023   5.166  -0.015   5.656 -0.9775  0.3776  2.6324
   28CHL1   C13 2024   5.042   0.125   5.746  0.0968  0.1553  0.6160
   28CHL1   C18 2025   4.958   0.250   5.696  0.1879  0.2289 -0.1108
   28CHL1  H18A 2026   4.865   0.208   5.651  1.5079 -0.5059 -2.2717
   28CHL1  H18B 2027   4.935   0.322   5.777  2.0543 -0.7773  1.3919
   28CHL1  H18C 2028   5.019   0.294   5.615  1.0854 -1.2021 -0.2502
   28CHL1   C12 2029   4.954   0.011   5.817 -0.5090  0.2928  0.0760
   28CHL1  H12A 2030   4.881  -0.021   5.740  0.2817  0.1705 -0.6379
   28CHL1  H12B 2031   5.020  -0.076   5.835 -0.0676  0.8836  1.4428
   28CHL1   C11 2032   4.894   0.062   5.945 -0.1443  0.2670 -0.2319
   28CHL1  H11A 2033   4.825   0.144   5.916 -1.9365 -1.8838 -2.5252
   28CHL1  H11B 2034   4.834  -0.019   5.991  3.6532 -1.5169  2.1349
   28CHL1    C9 2035   5.001   0.127   6.047  0.0353  0.0902  0.1451
   28CHL1    H9 2036   5.065   0.042   6.077 -2.1599 -1.8950 -0.5558
   28CHL1   C10 2037   4.930   0.178   6.175 -0.2465 -0.0154  0.7463
   28CHL1   C19 2038   4.814   0.268   6.133 -0.8928 -0.1094  0.1370
   28CHL1  H19A 2039   4.728   0.210   6.093 -1.3215  0.2931  0.4650
   28CHL1  H19B 2040   4.768   0.324   6.217 -1.2659 -0.4873  0.1887
   28CHL1  H19C 2041   4.850   0.346   6.063  2.1828 -0.2916  1.3411
   28CHL1    C1 2042   4.865   0.058   6.250  0.2616 -0.3705  0.1834
   28CHL1   H1A 2043   4.771   0.027   6.198  1.4582 -0.0355 -2.3624
   28CHL1   H1B 2044   4.934  -0.028   6.260 -1.2355 -1.9244 -1.7933
   28CHL1    C2 2045   4.819   0.084   6.393  0.1957  0.0351  0.8396
   28CHL1   H2A 2046   4.788  -0.018   6.424 -0.4385  0.2043  0.7911
   28CHL1   H2B 2047   4.729   0.149   6.403 -0.0470  0.0276 -0.9349
   28CHL1   C20 2048   5.058   0.055   5.486  0.6903 -0.5737  0.2893
   28CHL1   H20 2049   4.984   0.136   5.471 -0.3394 -1.3154  1.1217
   28CHL1   C21 2050   4.961  -0.070   5.481 -0.7404  0.0982 -0.2401
   28CHL1  H21A 2051   4.863  -0.047   5.527 -1.2910 -1.3176 -0.6392
   28CHL1  H21B 2052   5.012  -0.160   5.522 -0.3224 -0.6314 -2.2235
   28CHL1  H21C 2053   4.943  -0.075   5.371 -1.2460 -3.1250 -0.1141
   28CHL1   C22 2054   5.144   0.046   5.364 -1.2380 -0.4451  0.1669
   28CHL1  H22A 2055   5.093   0.055   5.265  0.5496 -1.0965 -0.8688
   28CHL1  H22B 2056   5.215   0.132   5.366 -1.1210 -0.3601 -2.6692
   28CHL1   C23 2057   5.223  -0.085   5.349 -0.0699  0.4759 -0.0110
   28CHL1  H23A 2058   5.268  -0.105   5.448  0.6099  1.1862 -0.1692
   28CHL1  H23B 2059   5.153  -0.164   5.314 -0.4978  1.9374 -2.7317
   28CHL1   C24 2060   5.327  -0.095   5.232  0.6225  0.1795 -0.4286
   28CHL1  H24A 2061   5.273  -0.036   5.154  0.2154  0.4520  0.0479
   28CHL1  H24B 2062   5.415  -0.029   5.249  0.4185  0.9575 -2.1434
   28CHL1   C25 2063   5.370  -0.234   5.185  0.5475 -0.1418  0.1385
   28CHL1   H25 2064   5.410  -0.290   5.273 -0.5721  1.2999  1.6316
   28CHL1   C26 2065   5.256  -0.323   5.139  0.3036  0.4548  0.1241
   28CHL1  H26A 2066   5.216  -0.302   5.037 -1.9529 -0.1736  0.8263
   28CHL1  H26B 2067   5.293  -0.427   5.133 -0.6842  0.1031 -0.1655
   28CHL1  H26C 2068   5.166  -0.332   5.204 -0.7700  0.1176 -1.3513
   28CHL1   C27 2069   5.471  -0.225   5.065  0.4911 -0.3257 -0.0925
   28CHL1  H27A 2070   5.405  -0.175   4.991 -2.1266  0.4884  2.6165
   28CHL1  H27B 2071   5.554  -0.156   5.095  2.3493 -2.7761  0.7071
   28CHL1  H27C 2072   5.501  -0.325   5.028  1.5138 -0.4698  1.0560
   29CHL1    C3 2073   0.875   4.447   3.069 -0.4800  1.0120  0.0574
   29CHL1    H3 2074   0.923   4.355   3.109  0.1329  0.9316 -0.8384
   29CHL1    O3 2075   0.896   4.449   2.927 -0.3333  0.4475 -0.1953
   29CHL1   H3' 2076   0.871   4.539   2.903 -0.3743 -0.0329 -2.0794
   29CHL1    C4 2077   0.727   4.448   3.092  0.3490  0.0768  0.8252
   29CHL1   H4A 2078   0.690   4.546   3.055 -0.3517 -0.7814 -0.8592
   29CHL1   H4B 2079   0.671   4.370   3.034 -2.5430 -0.2126  3.7157
   29CHL1    C5 2080   0.679   4.445   3.237 -0.1515  1.2091  0.0176
   29CHL1    C6 2081   0.608   4.342   3.284 -0.1705 -0.1554  0.4042
   29CHL1    H6 2082   0.585   4.263   3.211 -1.5439  2.5641 -2.3432
   29CHL1    C7 2083   0.559   4.334   3.425  0.4858 -0.3944  0.5445
   29CHL1   H7A 2084   0.451   4.313   3.433 -0.1592  2.8488  2.0841
   29CHL1   H7B 2085   0.615   4.259   3.485  0.6272  0.5429  1.6271
   29CHL1    C8 2086   0.595   4.467   3.505 -0.1498  0.7820 -0.0525
   29CHL1    H8 2087   0.517   4.544   3.486 -0.8994  0.3186  1.0205
   29CHL1   C14 2088   0.604   4.439   3.654  0.2878 -0.1873  0.3436
   29CHL1   H14 2089   0.693   4.374   3.667  0.2411 -0.5127 -0.8639
   29CHL1   C15 2090   0.476   4.377   3.726 -0.4272  0.4418  0.2700
   29CHL1  H15A 2091   0.384   4.419   3.680 -0.4035  1.8628  1.4552
   29CHL1  H15B 2092   0.454   4.269   3.712 -0.7931  0.7094 -1.4811
   29CHL1   C16 2093   0.502   4.394   3.874 -0.1749 -0.0269 -0.3069
   29CHL1  H16A 2094   0.410   4.431   3.924 -0.3028  1.1634 -1.3441
   29CHL1  H16B 2095   0.524   4.300   3.928  0.6240  0.1888 -0.2357
   29CHL1   C17 2096   0.614   4.508   3.881 -0.6557  0.0188 -0.4080
   29CHL1   H17 2097   0.700   4.444   3.909 -0.7593  0.0960  0.0933
   29CHL1   C13 2098   0.629   4.564   3.737 -0.2466  0.2769 -0.5015
   29CHL1   C18 2099   0.518   4.670   3.714 -0.0614 -0.8847 -0.4437
   29CHL1  H18A 2100   0.549   4.756   3.778 -2.1409  0.6551 -1.4018
   29CHL1  H18B 2101   0.501   4.716   3.615  0.8968  0.9267  0.1857
   29CHL1  H18C 2102   0.428   4.617   3.752  1.1908 -2.6787  0.1670
   29CHL1   C12 2103   0.765   4.618   3.705 -0.8042 -0.2056 -0.0342
   29CHL1  H12A 2104   0.788   4.710   3.762  2.5748 -0.5614 -0.6227
   29CHL1  H12B 2105   0.851   4.556   3.739 -0.4645  0.0923 -0.3302
   29CHL1   C11 2106   0.771   4.653   3.555  0.0185  0.6473  0.0933
   29CHL1  H11A 2107   0.708   4.740   3.527  3.7283  3.7325  0.5576
   29CHL1  H11B 2108   0.876   4.676   3.525  0.2079  0.4612  0.5988
   29CHL1    C9 2109   0.730   4.530   3.467 -0.0285  0.0887  0.1450
   29CHL1    H9 2110   0.807   4.454   3.490  1.0035  1.3766  1.1008
   29CHL1   C10 2111   0.737   4.562   3.318 -0.4699  0.6129  0.7140
   29CHL1   C19 2112   0.650   4.688   3.274  0.7088  0.5745  0.4431
   29CHL1  H19A 2113   0.545   4.682   3.311 -0.1692  1.4672 -1.7540
   29CHL1  H19B 2114   0.695   4.782   3.313  1.5597 -0.8206  3.1435
   29CHL1  H19C 2115   0.637   4.703   3.165  0.5071 -1.2247  0.1822
   29CHL1    C1 2116   0.888   4.577   3.282  0.1148  0.4217 -0.3101
   29CHL1   H1A 2117   0.945   4.662   3.326 -1.1798  1.4314 -0.5277
   29CHL1   H1B 2118   0.945   4.496   3.333 -0.8422 -0.0071  0.0855
   29CHL1    C2 2119   0.933   4.570   3.136  0.3849  0.5358  0.4063
   29CHL1   H2A 2120   1.044   4.573   3.130  0.3648  1.1046  0.3085
   29CHL1   H2B 2121   0.888   4.662   3.095 -1.4989  0.8298  2.8688
   29CHL1   C20 2122   0.586   4.591   4.006  0.2622 -0.8281 -0.1696
   29CHL1   H20 2123   0.491   4.647   3.991  0.8613  0.4677  0.7038
   29CHL1   C21 2124   0.676   4.711   4.029 -1.0714 -0.1110 -0.7923
   29CHL1  H21A 2125   0.780   4.672   4.020 -0.7094 -0.1111  2.3189
   29CHL1  H21B 2126   0.660   4.739   4.135 -1.6703 -1.7049 -0.4238
   29CHL1  H21C 2127   0.676   4.800   3.963  2.8350  0.5609 -0.1746
   29CHL1   C22 2128   0.569   4.502   4.141 -0.0642  0.1454 -0.0859
   29CHL1  H22A 2129   0.566   4.581   4.220 -1.6102 -2.0506  2.2056
   29CHL1  H22B 2130   0.470   4.452   4.144  0.0434 -0.2672 -1.9862
   29CHL1   C23 2131   0.701   4.422   4.169 -0.1593  0.2982 -0.3502
   29CHL1  H23A 2132   0.716   4.361   4.077 -2.7114  2.1784 -2.1904
   29CHL1  H23B 2133   0.781   4.497   4.187 -0.4685  0.2416  1.4432
   29CHL1   C24 2134   0.684   4.327   4.289  0.3155  0.1187 -0.0743
   29CHL1  H24A 2135   0.645   4.370   4.384  0.2593 -1.0947  0.4750
   29CHL1  H24B 2136   0.608   4.250   4.265  1.1083 -0.6813 -0.0759
   29CHL1   C25 2137   0.809   4.247   4.319 -0.0654  0.2915  0.2268
   29CHL1   H25 2138   0.843   4.209   4.220 -1.6638 -2.3567  0.5903
   29CHL1   C26 2139   0.924   4.334   4.365 -0.0571 -0.1436 -0.1602
   29CHL1  H26A 2140   0.902   4.377   4.465 -3.4094 -3.8414  0.9318
   29CHL1  H26B 2141   1.025   4.289   4.374 -0.1966 -0.6413 -1.0033
   29CHL1  H26C 2142   0.929   4.413   4.287 -0.3237 -0.0356 -0.0707
   29CHL1   C27 2143   0.775   4.123   4.409 -0.5021  0.3036 -0.0456
   29CHL1  H27A 2144   0.726   4.162   4.500 -1.1144 -1.1657  0.2881
   29CHL1  H27B 2145   0.707   4.057   4.351  0.3998 -0.4688 -0.2562
   29CHL1  H27C 2146   0.868   4.068   4.437 -1.4559 -0.4509  1.7682
   30CHL1    C3 2147   1.488   4.487   3.122 -0.3959 -0.1962 -0.0464
   30CHL1    H3 2148   1.579   4.425   3.140 -0.0714  1.0090  3.4143
   30CHL1    O3 2149   1.467   4.501   2.982  0.1192 -0.7903  0.5753
   30CHL1   H3' 2150   1.379   4.537   2.971 -0.0633 -0.9515  1.3793
   30CHL1    C4 2151   1.365   4.439   3.192  0.4321  0.2644 -0.2803
   30CHL1   H4A 2152   1.283   4.512   3.173  0.3125  0.0739 -0.4983
   30CHL1   H4B 2153   1.343   4.344   3.138  1.9774  0.6049 -1.5849
   30CHL1    C5 2154   1.364   4.419   3.340  0.5358  0.8062 -1.0095
   30CHL1    C6 2155   1.352   4.297   3.407 -0.6007  0.1335  0.7222
   30CHL1    H6 2156   1.321   4.209   3.348  1.0622 -1.5577  2.2633
   30CHL1    C7 2157   1.358   4.270   3.556  0.6419 -0.1066  0.8143
   30CHL1   H7A 2158   1.283   4.196   3.589  2.3724 -4.3275 -3.5954
   30CHL1   H7B 2159   1.456   4.223   3.581  0.3961 -2.2511 -1.9310
   30CHL1    C8 2160   1.369   4.411   3.628  0.0045  0.3586  0.1136
   30CHL1    H8 2161   1.267   4.455   3.631 -0.4125 -0.6174  0.4933
   30CHL1   C14 2162   1.399   4.379   3.774  0.9596  0.1362  0.4491
   30CHL1   H14 2163   1.498   4.329   3.778  1.5591  1.3129  0.8348
   30CHL1   C15 2164   1.307   4.293   3.848  0.1708  0.6620 -0.4228
   30CHL1  H15A 2165   1.198   4.311   3.834 -0.6538 -3.6397 -0.8340
   30CHL1  H15B 2166   1.313   4.188   3.812  1.5499  0.5438  0.0988
   30CHL1   C16 2167   1.356   4.310   3.999  0.1979 -0.3577 -0.1404
   30CHL1  H16A 2168   1.269   4.330   4.065  0.9770 -0.7653  1.0579
   30CHL1  H16B 2169   1.407   4.218   4.035  0.8586  0.9537  2.5302
   30CHL1   C17 2170   1.462   4.432   3.995 -0.5107 -1.1200  0.1297
   30CHL1   H17 2171   1.564   4.388   3.986  0.7455  1.3746  1.0660
   30CHL1   C13 2172   1.428   4.505   3.865 -0.4474  0.2227  0.3869
   30CHL1   C18 2173   1.300   4.586   3.877 -0.3478 -0.5029 -0.1703
   30CHL1  H18A 2174   1.308   4.676   3.941 -1.1967  0.5478 -1.4795
   30CHL1  H18B 2175   1.283   4.625   3.774 -2.9290 -1.9790 -0.3805
   30CHL1  H18C 2176   1.207   4.527   3.886 -1.2081  0.6775 -0.9902
   30CHL1   C12 2177   1.543   4.578   3.800  0.8307 -0.6512  0.6967
   30CHL1  H12A 2178   1.578   4.662   3.863  0.7628  1.0795 -1.4568
   30CHL1  H12B 2179   1.637   4.519   3.803  0.0682 -1.9901 -0.5650
   30CHL1   C11 2180   1.513   4.620   3.651  0.0581  0.0728 -0.8720
   30CHL1  H11A 2181   1.435   4.698   3.661 -1.6452 -1.4424 -1.8354
   30CHL1  H11B 2182   1.607   4.668   3.615  0.9491 -0.8687  0.1361
   30CHL1    C9 2183   1.469   4.507   3.557  0.0049 -0.4187 -0.2185
   30CHL1    H9 2184   1.558   4.448   3.525 -0.5732 -0.4614 -1.8579
   30CHL1   C10 2185   1.420   4.545   3.414 -0.1581 -0.8625  0.1280
   30CHL1   C19 2186   1.299   4.646   3.428 -0.3763  0.4292  0.4030
   30CHL1  H19A 2187   1.337   4.742   3.470  1.1695  0.1387 -0.2863
   30CHL1  H19B 2188   1.244   4.666   3.333 -0.0599 -0.6798 -0.0337
   30CHL1  H19C 2189   1.220   4.611   3.499 -2.1541  1.1567 -1.1156
   30CHL1    C1 2190   1.543   4.606   3.338  0.6070 -0.3302  0.0064
   30CHL1   H1A 2191   1.548   4.710   3.376 -0.6786  0.3076 -1.4502
   30CHL1   H1B 2192   1.636   4.556   3.372  0.0400 -2.0720 -0.8494
   30CHL1    C2 2193   1.521   4.623   3.189 -0.1615  0.0038  0.3254
   30CHL1   H2A 2194   1.599   4.689   3.144 -0.2414  2.7865  3.7946
   30CHL1   H2B 2195   1.427   4.683   3.181  0.1511  0.2843 -1.9917
   30CHL1   C20 2196   1.460   4.515   4.125 -0.2887 -0.3330 -0.5069
   30CHL1   H20 2197   1.370   4.579   4.128  0.0674  0.1889 -0.6721
   30CHL1   C21 2198   1.593   4.594   4.131  0.2167  0.0427 -0.4178
   30CHL1  H21A 2199   1.671   4.518   4.150  0.9150  1.1720  1.5043
   30CHL1  H21B 2200   1.586   4.662   4.219 -1.7888  1.5101 -1.6043
   30CHL1  H21C 2201   1.617   4.661   4.045  1.5940 -0.9044 -0.8031
   30CHL1   C22 2202   1.454   4.425   4.256 -0.1568  0.0077  0.5819
   30CHL1  H22A 2203   1.358   4.368   4.260 -0.4853  0.5514  0.5624
   30CHL1  H22B 2204   1.544   4.362   4.273 -0.2070  0.1337  1.3859
   30CHL1   C23 2205   1.437   4.504   4.389 -0.0820  0.0496  0.4930
   30CHL1  H23A 2206   1.517   4.576   4.415 -1.1814  1.3521  0.4094
   30CHL1  H23B 2207   1.342   4.560   4.377 -1.0805 -2.0164 -2.8475
   30CHL1   C24 2208   1.398   4.410   4.502  0.2564 -0.5439 -0.7270
   30CHL1  H24A 2209   1.288   4.395   4.491  0.0943 -2.1337  2.1407
   30CHL1  H24B 2210   1.441   4.311   4.476  2.5037  0.3990 -0.7790
   30CHL1   C25 2211   1.418   4.462   4.643 -0.3344  0.0831 -0.0429
   30CHL1   H25 2212   1.362   4.557   4.656 -2.6336 -1.1135 -0.7572
   30CHL1   C26 2213   1.369   4.375   4.755 -0.0238  0.2721 -0.4401
   30CHL1  H26A 2214   1.439   4.289   4.770  0.6379  0.7561 -0.7145
   30CHL1  H26B 2215   1.379   4.426   4.853 -1.7450 -0.0979 -0.0288
   30CHL1  H26C 2216   1.263   4.347   4.739  0.3255  0.2761 -3.2361
   30CHL1   C27 2217   1.567   4.499   4.665  0.3027 -0.1490  0.0267
   30CHL1  H27A 2218   1.579   4.590   4.602  1.8231  0.5697  1.2890
   30CHL1  H27B 2219   1.593   4.518   4.771 -0.3185 -0.7128  0.2872
   30CHL1  H27C 2220   1.632   4.414   4.635  0.7666  0.2721 -0.1740
   31CHL1    C3 2221   3.327   1.775   3.730  0.9151  0.9409  0.0171
   31CHL1    H3 2222   3.222   1.809   3.734 -0.1671 -2.1036  0.4623
   31CHL1    O3 2223   3.374   1.809   3.605 -0.5337 -0.6895 -0.5234
   31CHL1   H3' 2224   3.447   1.751   3.582 -0.4157  0.0127 -2.0014
   31CHL1    C4 2225   3.405   1.840   3.850 -0.4302 -0.0628  0.2551
   31CHL1   H4A 2226   3.511   1.807   3.846  0.0511  1.3461  0.5920
   31CHL1   H4B 2227   3.405   1.950   3.835  2.0697  0.2555  1.9405
   31CHL1    C5 2228   3.331   1.796   3.975  0.1473  0.4368  0.0392
   31CHL1    C6 2229   3.275   1.886   4.053 -0.6925 -0.3345  0.4346
   31CHL1    H6 2230   3.297   1.983   4.007 -0.0848 -0.8680 -0.4235
   31CHL1    C7 2231   3.209   1.859   4.186 -0.0312  0.2723 -0.1025
   31CHL1   H7A 2232   3.238   1.934   4.262  0.0453  0.4110 -0.2689
   31CHL1   H7B 2233   3.101   1.861   4.162 -0.1273 -1.9920 -0.0728
   31CHL1    C8 2234   3.229   1.721   4.239 -0.0967 -0.7034  0.0187
   31CHL1    H8 2235   3.327   1.733   4.289 -1.5467  3.6583  2.3422
   31CHL1   C14 2236   3.111   1.680   4.331  0.5603 -0.2547 -0.6681
   31CHL1   H14 2237   3.019   1.672   4.269 -1.5873 -3.0575  2.5638
   31CHL1   C15 2238   3.070   1.774   4.443 -0.5389 -0.0193 -0.1520
   31CHL1  H15A 2239   3.162   1.800   4.499  0.5590  0.3864 -2.0673
   31CHL1  H15B 2240   3.024   1.871   4.413 -3.9520 -2.0258 -2.1195
   31CHL1   C16 2241   2.969   1.693   4.533 -0.6907 -0.2909 -0.4793
   31CHL1  H16A 2242   2.999   1.715   4.638  0.5620 -1.4979 -0.5723
   31CHL1  H16B 2243   2.866   1.726   4.507 -0.5514 -0.1838 -0.8942
   31CHL1   C17 2244   2.994   1.543   4.491  0.1891 -0.0729  0.1230
   31CHL1   H17 2245   2.916   1.518   4.416 -0.9809 -1.0959  1.6302
   31CHL1   C13 2246   3.121   1.541   4.399  0.2724  0.2910  0.5144
   31CHL1   C18 2247   3.240   1.530   4.490 -0.2291 -0.5472  0.3195
   31CHL1  H18A 2248   3.235   1.607   4.569  3.6227 -0.3620  0.5511
   31CHL1  H18B 2249   3.247   1.434   4.545 -0.4186 -0.4327  0.5477
   31CHL1  H18C 2250   3.336   1.545   4.436  0.1902  1.6758  1.5943
   31CHL1   C12 2251   3.124   1.439   4.285  0.0829  0.0983 -0.0587
   31CHL1  H12A 2252   3.158   1.343   4.331  0.3053  1.1500  2.1419
   31CHL1  H12B 2253   3.032   1.434   4.223  0.9022 -0.0555 -1.2969
   31CHL1   C11 2254   3.238   1.471   4.190  0.1773  0.4012 -0.2952
   31CHL1  H11A 2255   3.327   1.464   4.256 -1.0518 -1.8016  1.2447
   31CHL1  H11B 2256   3.234   1.396   4.109 -1.1915  1.2399 -1.0398
   31CHL1    C9 2257   3.232   1.616   4.128  0.2505 -0.0766  0.5992
   31CHL1    H9 2258   3.132   1.626   4.080  0.7404 -0.3457 -0.5113
   31CHL1   C10 2259   3.328   1.648   4.008 -0.1770  0.0072 -0.1811
   31CHL1   C19 2260   3.480   1.616   4.050  0.3645  0.3489  0.1126
   31CHL1  H19A 2261   3.482   1.507   4.073  0.8589  0.4111  0.3752
   31CHL1  H19B 2262   3.552   1.623   3.966  1.2202 -2.1489  0.5424
   31CHL1  H19C 2263   3.512   1.676   4.138  0.6753  0.2267  0.0821
   31CHL1    C1 2264   3.283   1.564   3.878  0.1875 -0.5274  0.4533
   31CHL1   H1A 2265   3.314   1.459   3.900 -0.8601 -0.3682  3.0836
   31CHL1   H1B 2266   3.173   1.582   3.872 -0.0615 -2.2999 -1.3406
   31CHL1    C2 2267   3.344   1.623   3.745 -0.3914  0.6158 -0.0421
   31CHL1   H2A 2268   3.281   1.578   3.665 -2.3381 -0.3507  1.9086
   31CHL1   H2B 2269   3.452   1.598   3.747 -0.6256 -0.4080  1.2680
   31CHL1   C20 2270   2.982   1.437   4.606 -0.6675 -0.7683 -0.4673
   31CHL1   H20 2271   3.071   1.443   4.672 -2.0823 -1.2249  1.5804
   31CHL1   C21 2272   2.970   1.298   4.541 -0.2442  0.0077 -0.0123
   31CHL1  H21A 2273   3.053   1.278   4.470 -0.9347 -0.1841 -0.7817
   31CHL1  H21B 2274   2.881   1.293   4.476  0.3022  3.8963 -1.2758
   31CHL1  H21C 2275   2.975   1.211   4.610  1.7587 -0.1093 -0.2378
   31CHL1   C22 2276   2.856   1.473   4.695 -0.9940  0.1716  0.6352
   31CHL1  H22A 2277   2.873   1.566   4.753  2.3697  0.5901 -0.8217
   31CHL1  H22B 2278   2.772   1.490   4.624 -0.3945  1.2729  0.1800
   31CHL1   C23 2279   2.809   1.370   4.795  0.5843 -0.1366 -0.0878
   31CHL1  H23A 2280   2.804   1.273   4.741  1.0493  1.3218 -2.9605
   31CHL1  H23B 2281   2.888   1.360   4.872  1.4312 -0.3942 -0.9761
   31CHL1   C24 2282   2.671   1.408   4.856 -0.2322  0.3278  0.1051
   31CHL1  H24A 2283   2.661   1.512   4.893 -0.0571 -0.1553  1.5909
   31CHL1  H24B 2284   2.590   1.404   4.780  0.3445 -1.1397 -0.4770
   31CHL1   C25 2285   2.612   1.313   4.968 -0.1588 -0.4662 -0.0316
   31CHL1   H25 2286   2.519   1.365   5.000 -0.2399  0.4735 -1.7098
   31CHL1   C26 2287   2.569   1.179   4.911 -0.4241  0.6794  0.0702
   31CHL1  H26A 2288   2.656   1.109   4.906  0.4455  1.7161  0.4756
   31CHL1  H26B 2289   2.497   1.133   4.982  1.4674  0.9309  2.2607
   31CHL1  H26C 2290   2.528   1.195   4.809 -1.1246  1.7891  0.5245
   31CHL1   C27 2291   2.705   1.300   5.082  0.6516 -0.3444  0.9709
   31CHL1  H27A 2292   2.739   1.403   5.107  0.0512 -0.4474  2.3168
   31CHL1  H27B 2293   2.653   1.248   5.166 -1.6649  0.7925  0.3193
   31CHL1  H27C 2294   2.793   1.234   5.070  1.2671  0.0315  3.0223
   32CHL1    C3 2295   0.321   2.508   3.620 -0.0639  0.2571 -0.1764
   32CHL1    H3 2296   0.210   2.506   3.621 -0.0651  0.3162  1.1253
   32CHL1    O3 2297   0.370   2.553   3.498  0.0962  0.3767 -0.6218
   32CHL1   H3' 2298   0.464   2.569   3.507  0.1622 -0.9369  1.5273
   32CHL1    C4 2299   0.374   2.601   3.728  0.0059 -0.2051 -0.2738
   32CHL1   H4A 2300   0.485   2.592   3.731  0.0912  0.6897 -0.5476
   32CHL1   H4B 2301   0.342   2.704   3.701  0.1477 -0.0011  0.3349
   32CHL1    C5 2302   0.322   2.553   3.862  0.4734  1.1519 -0.9402
   32CHL1    C6 2303   0.247   2.633   3.936  0.4125 -0.1362 -0.2993
   32CHL1    H6 2304   0.224   2.734   3.900  1.9670  0.0857 -0.7371
   32CHL1    C7 2305   0.212   2.599   4.080 -0.4407 -0.4578 -0.3447
   32CHL1   H7A 2306   0.235   2.693   4.133 -2.9087  0.9603 -1.6085
   32CHL1   H7B 2307   0.103   2.585   4.096 -0.7852  2.8401  0.8180
   32CHL1    C8 2308   0.284   2.477   4.124 -0.6576  0.1202  0.2867
   32CHL1    H8 2309   0.391   2.505   4.137 -0.3678 -1.1227  0.6232
   32CHL1   C14 2310   0.227   2.429   4.256  0.2996 -0.2075  0.3441
   32CHL1   H14 2311   0.122   2.399   4.234  0.7246 -1.8173  0.4126
   32CHL1   C15 2312   0.212   2.537   4.368  0.4003 -0.3042 -0.6450
   32CHL1  H15A 2313   0.305   2.596   4.370  1.6970 -2.2576 -0.8106
   32CHL1  H15B 2314   0.125   2.602   4.345  1.3180  1.5953  0.9707
   32CHL1   C16 2315   0.194   2.452   4.491  0.2757 -0.2653 -0.7749
   32CHL1  H16A 2316   0.275   2.481   4.563 -0.1397 -0.2019 -0.3280
   32CHL1  H16B 2317   0.098   2.472   4.544  1.1318 -1.5633  1.4161
   32CHL1   C17 2318   0.217   2.304   4.453  0.3693  0.9071 -0.4225
   32CHL1   H17 2319   0.115   2.270   4.427  0.3784 -1.9086  2.6182
   32CHL1   C13 2320   0.295   2.304   4.322 -0.4068  0.1999 -0.4038
   32CHL1   C18 2321   0.441   2.343   4.353  0.3302  0.2033 -0.0719
   32CHL1  H18A 2322   0.453   2.434   4.415 -1.6558  0.7259 -0.3885
   32CHL1  H18B 2323   0.488   2.252   4.395  1.4162  0.4675 -0.6746
   32CHL1  H18C 2324   0.487   2.379   4.258  0.9226  0.3682  0.2750
   32CHL1   C12 2325   0.273   2.182   4.222  0.2129 -0.1418  0.0603
   32CHL1  H12A 2326   0.312   2.092   4.274 -1.2859 -0.8669 -0.0133
   32CHL1  H12B 2327   0.163   2.167   4.216  0.4412 -1.8391 -0.6126
   32CHL1   C11 2328   0.331   2.222   4.085  0.2804 -0.0911 -0.3060
   32CHL1  H11A 2329   0.441   2.223   4.100 -0.0169  2.6578  2.9543
   32CHL1  H11B 2330   0.314   2.134   4.020 -0.8805 -0.8024  0.8864
   32CHL1    C9 2331   0.283   2.363   4.027  0.5166  0.6455  0.0546
   32CHL1    H9 2332   0.178   2.344   3.998  0.4811 -0.4098  0.8026
   32CHL1   C10 2333   0.358   2.405   3.901 -0.2531  0.1799 -0.0604
   32CHL1   C19 2334   0.516   2.392   3.918 -0.1270 -0.1601  0.8810
   32CHL1  H19A 2335   0.561   2.449   3.834 -0.0386 -0.5128  0.6881
   32CHL1  H19B 2336   0.544   2.447   4.010 -1.4989  1.1530  0.5520
   32CHL1  H19C 2337   0.539   2.283   3.913  1.1661  0.1442 -0.2269
   32CHL1    C1 2338   0.324   2.317   3.782 -0.0023  0.1214  0.2309
   32CHL1   H1A 2339   0.364   2.216   3.802  0.9481 -0.1267 -2.5385
   32CHL1   H1B 2340   0.214   2.304   3.776  0.0898 -0.1786 -1.1234
   32CHL1    C2 2341   0.367   2.362   3.639  0.0718 -0.4613 -0.3606
   32CHL1   H2A 2342   0.330   2.294   3.559 -2.7793  1.8286 -1.1846
   32CHL1   H2B 2343   0.478   2.365   3.635  0.1126  0.3160  0.8285
   32CHL1   C20 2344   0.264   2.208   4.567  0.1547  0.3144  0.0288
   32CHL1   H20 2345   0.322   2.125   4.521 -1.8935 -0.9081 -0.4658
   32CHL1   C21 2346   0.146   2.142   4.636 -0.2897  0.5219  0.8485
   32CHL1  H21A 2347   0.183   2.081   4.722 -0.1444 -0.6368 -0.0097
   32CHL1  H21B 2348   0.088   2.070   4.575  0.3980 -0.5849  1.4423
   32CHL1  H21C 2349   0.077   2.211   4.688 -1.1232  1.0772 -0.9344
   32CHL1   C22 2350   0.358   2.269   4.675  0.2780  0.0476 -0.2761
   32CHL1  H22A 2351   0.430   2.334   4.622  0.4678  0.1952  0.1598
   32CHL1  H22B 2352   0.302   2.347   4.730  2.1078  0.9073  0.4433
   32CHL1   C23 2353   0.430   2.180   4.777  0.1100  0.4041  0.3678
   32CHL1  H23A 2354   0.360   2.116   4.835  1.1903  0.0015  1.2726
   32CHL1  H23B 2355   0.492   2.107   4.721 -2.4481 -0.3987 -1.5701
   32CHL1   C24 2356   0.513   2.260   4.877 -0.2201  0.1618  0.4078
   32CHL1  H24A 2357   0.577   2.340   4.835  0.2764 -0.6812 -0.4768
   32CHL1  H24B 2358   0.460   2.318   4.956 -1.0893 -2.0733  1.5398
   32CHL1   C25 2359   0.621   2.172   4.936 -0.2438  1.1844  0.3064
   32CHL1   H25 2360   0.676   2.118   4.856 -1.7892  0.3449 -0.2244
   32CHL1   C26 2361   0.733   2.245   5.015 -0.1761  0.2604 -0.0678
   32CHL1  H26A 2362   0.684   2.318   5.082 -0.8208 -0.6765  0.5068
   32CHL1  H26B 2363   0.794   2.173   5.075 -2.6140 -1.2448  0.7479
   32CHL1  H26C 2364   0.792   2.292   4.933  0.2207 -1.3174 -0.7331
   32CHL1   C27 2365   0.549   2.070   5.028 -0.8412  0.2172  0.3770
   32CHL1  H27A 2366   0.619   1.991   5.063  2.8043  1.7714 -2.6325
   32CHL1  H27B 2367   0.515   2.138   5.110  1.2529  0.4097  1.1628
   32CHL1  H27C 2368   0.472   2.012   4.973  0.8793 -2.2642  0.3876
   33CHL1    C3 2369   6.195   4.349   3.329 -0.5098  0.2456 -0.1345
   33CHL1    H3 2370   6.176   4.450   3.371  2.1195  0.5125  0.5868
   33CHL1    O3 2371   6.160   4.340   3.192  0.0981 -0.8070 -0.4789
   33CHL1   H3' 2372   6.208   4.265   3.156  0.5160 -1.2068  0.8669
   33CHL1    C4 2373   6.348   4.334   3.347 -0.1574 -0.3318  0.1684
   33CHL1   H4A 2374   6.378   4.230   3.321  0.0128 -0.3960  0.6207
   33CHL1   H4B 2375   6.408   4.396   3.277  1.4943 -1.3815  0.6082
   33CHL1    C5 2376   6.393   4.330   3.488 -1.4342 -0.7106 -0.4504
   33CHL1    C6 2377   6.498   4.410   3.522  0.7771 -0.0421  0.0788
   33CHL1    H6 2378   6.548   4.462   3.439  2.7125 -0.6339  0.8204
   33CHL1    C7 2379   6.555   4.433   3.661  0.1798 -0.2726  0.3964
   33CHL1   H7A 2380   6.664   4.440   3.647  0.4627 -0.0594  2.3498
   33CHL1   H7B 2381   6.524   4.534   3.697 -1.6068 -0.0542 -1.5385
   33CHL1    C8 2382   6.508   4.320   3.752 -0.2214  1.0969  0.9208
   33CHL1    H8 2383   6.573   4.237   3.717  1.1441  2.3169  0.4858
   33CHL1   C14 2384   6.542   4.350   3.890  0.2335 -0.0632 -0.7328
   33CHL1   H14 2385   6.487   4.442   3.920  0.0239 -0.2007 -0.6944
   33CHL1   C15 2386   6.689   4.384   3.914  0.5621 -0.6679 -0.0075
   33CHL1  H15A 2387   6.753   4.320   3.851 -0.8685 -2.5657  0.3609
   33CHL1  H15B 2388   6.711   4.488   3.882  0.0559 -1.0848 -1.8171
   33CHL1   C16 2389   6.722   4.364   4.061 -0.3772 -0.6902 -0.1705
   33CHL1  H16A 2390   6.797   4.282   4.072 -1.1653 -1.6550 -1.6609
   33CHL1  H16B 2391   6.758   4.451   4.119  0.1491 -1.0123  0.0019
   33CHL1   C17 2392   6.586   4.308   4.123 -0.4318 -0.1493 -0.3187
   33CHL1   H17 2393   6.533   4.402   4.151 -2.1419 -1.6887  2.0453
   33CHL1   C13 2394   6.508   4.246   3.999 -0.1508 -0.9344 -0.2351
   33CHL1   C18 2395   6.583   4.105   3.977 -0.2951 -0.4761 -0.2488
   33CHL1  H18A 2396   6.582   4.073   3.870 -1.8605 -1.9117  0.1541
   33CHL1  H18B 2397   6.685   4.122   4.018 -1.4219  2.3165  1.6861
   33CHL1  H18C 2398   6.543   4.026   4.044 -1.5118 -0.7656 -1.2728
   33CHL1   C12 2399   6.352   4.239   3.991 -0.4957 -0.8688 -0.0105
   33CHL1  H12A 2400   6.317   4.172   4.073  1.5258 -1.1195  0.6845
   33CHL1  H12B 2401   6.322   4.340   4.027 -3.3700 -2.3043  2.0523
   33CHL1   C11 2402   6.300   4.202   3.852 -0.6041  0.5508  0.4594
   33CHL1  H11A 2403   6.332   4.097   3.837 -1.5128  0.0771  1.6360
   33CHL1  H11B 2404   6.189   4.200   3.849 -0.6166  0.4958  0.9154
   33CHL1    C9 2405   6.357   4.287   3.735 -0.2917 -0.4321  0.0733
   33CHL1    H9 2406   6.311   4.387   3.751  1.3299  0.2613  0.6096
   33CHL1   C10 2407   6.326   4.242   3.596  0.8100 -1.3021  0.0719
   33CHL1   C19 2408   6.375   4.097   3.567  0.3209  0.4509 -0.2579
   33CHL1  H19A 2409   6.365   4.064   3.461  2.4978  0.2066 -0.4340
   33CHL1  H19B 2410   6.481   4.089   3.598  0.8830 -0.0069 -2.1811
   33CHL1  H19C 2411   6.323   4.018   3.625  0.3462 -0.3901 -1.3473
   33CHL1    C1 2412   6.164   4.249   3.568 -0.9132  0.4592  0.0955
   33CHL1   H1A 2413   6.120   4.164   3.624  1.3187 -0.2360  0.8929
   33CHL1   H1B 2414   6.120   4.344   3.607 -2.6923 -0.3122  0.0542
   33CHL1    C2 2415   6.123   4.242   3.417  0.4674 -0.0396 -0.3034
   33CHL1   H2A 2416   6.013   4.251   3.401  0.2096 -1.6559  0.3274
   33CHL1   H2B 2417   6.153   4.139   3.388 -0.6928  0.0359 -1.9322
   33CHL1   C20 2418   6.606   4.236   4.254 -0.1744  0.1301  0.3198
   33CHL1   H20 2419   6.670   4.147   4.236  2.4082  1.5202  1.9213
   33CHL1   C21 2420   6.462   4.197   4.311  0.2030  0.0472  0.0372
   33CHL1  H21A 2421   6.477   4.141   4.406  0.4529  1.3949  0.8263
   33CHL1  H21B 2422   6.416   4.124   4.242 -0.8801  1.2499 -0.5577
   33CHL1  H21C 2423   6.398   4.286   4.331 -0.7832 -0.5017 -0.6304
   33CHL1   C22 2424   6.677   4.321   4.365  0.7350  0.3773  0.1368
   33CHL1  H22A 2425   6.681   4.276   4.466 -1.1092  0.6138  0.3541
   33CHL1  H22B 2426   6.781   4.334   4.327  1.2819 -0.3415  1.3345
   33CHL1   C23 2427   6.617   4.452   4.407 -0.4481  0.2165  0.6261
   33CHL1  H23A 2428   6.610   4.523   4.322 -2.7830  0.1837  0.7220
   33CHL1  H23B 2429   6.510   4.436   4.433 -1.0798 -3.4013 -3.0710
   33CHL1   C24 2430   6.686   4.516   4.525  0.2090 -0.3181  0.8316
   33CHL1  H24A 2431   6.686   4.452   4.616 -2.9488 -1.1185  0.3917
   33CHL1  H24B 2432   6.791   4.543   4.503 -0.0036 -0.8538 -0.9834
   33CHL1   C25 2433   6.628   4.652   4.569  0.6477  0.7106  0.3547
   33CHL1   H25 2434   6.655   4.717   4.483  1.4412 -0.2083 -0.1231
   33CHL1   C26 2435   6.472   4.647   4.584  0.4439 -1.0006  0.0160
   33CHL1  H26A 2436   6.426   4.621   4.487 -1.7808 -1.8870  1.2193
   33CHL1  H26B 2437   6.440   4.571   4.659  0.7461  0.8888  2.1924
   33CHL1  H26C 2438   6.443   4.750   4.614 -1.6122 -1.4664 -0.2500
   33CHL1   C27 2439   6.688   4.686   4.705 -1.1872 -0.5230  0.0591
   33CHL1  H27A 2440   6.651   4.784   4.741 -0.6497 -1.4017  3.3311
   33CHL1  H27B 2441   6.667   4.611   4.784  2.7393 -0.1769  1.6696
   33CHL1  H27C 2442   6.797   4.711   4.705 -1.4684  1.1079 -2.5005
   34CHL1    C3 2443   3.225   0.899   3.665 -0.0805 -0.1351 -0.6035
   34CHL1    H3 2444   3.315   0.965   3.670 -0.6184  0.5559  0.1916
   34CHL1    O3 2445   3.176   0.867   3.536  0.0711 -0.4119 -0.4019
   34CHL1   H3' 2446   3.144   0.779   3.557 -0.0789  0.0406  1.5192
   34CHL1    C4 2447   3.257   0.768   3.732  0.8064 -0.7330 -0.4626
   34CHL1   H4A 2448   3.167   0.703   3.726 -0.2518  0.4131  1.6225
   34CHL1   H4B 2449   3.342   0.713   3.687  2.6512  2.5263 -1.2928
   34CHL1    C5 2450   3.296   0.783   3.883 -0.0098 -0.1946  0.0701
   34CHL1    C6 2451   3.407   0.730   3.934 -0.3047 -0.3098 -0.1777
   34CHL1    H6 2452   3.476   0.677   3.867  2.4138  1.0163  1.4201
   34CHL1    C7 2453   3.437   0.727   4.082  0.0731  0.3329 -0.4719
   34CHL1   H7A 2454   3.469   0.627   4.118  0.6410  0.9266  0.7394
   34CHL1   H7B 2455   3.520   0.799   4.097 -0.2362  1.0434 -2.0139
   34CHL1    C8 2456   3.330   0.777   4.171 -0.4362 -0.0441 -0.6559
   34CHL1    H8 2457   3.260   0.693   4.188  0.6300 -0.7623  0.3161
   34CHL1   C14 2458   3.380   0.817   4.312 -0.0198 -0.6654 -0.1654
   34CHL1   H14 2459   3.454   0.898   4.297  0.1370 -1.0440 -1.5610
   34CHL1   C15 2460   3.447   0.703   4.386  0.4223  0.3003 -0.1539
   34CHL1  H15A 2461   3.390   0.608   4.375  0.8822  0.1396 -1.3125
   34CHL1  H15B 2462   3.546   0.680   4.341  1.3384  1.2994  1.2681
   34CHL1   C16 2463   3.446   0.747   4.532 -0.0684 -0.0580 -0.5439
   34CHL1  H16A 2464   3.386   0.668   4.583  2.2893 -1.2609  0.5360
   34CHL1  H16B 2465   3.552   0.745   4.566  0.6514  0.4607 -2.5862
   34CHL1   C17 2466   3.378   0.885   4.534  0.0597  0.3503 -0.2736
   34CHL1   H17 2467   3.455   0.961   4.508  1.7518 -1.2985 -0.2893
   34CHL1   C13 2468   3.286   0.876   4.414  0.1121  0.2441 -0.0419
   34CHL1   C18 2469   3.172   0.772   4.441 -0.4218 -0.6318 -0.8653
   34CHL1  H18A 2470   3.100   0.804   4.520  0.9259 -1.6937  0.8711
   34CHL1  H18B 2471   3.113   0.759   4.347 -0.0095  0.4590 -1.2919
   34CHL1  H18C 2472   3.208   0.670   4.464  1.4583 -0.2338 -1.8796
   34CHL1   C12 2473   3.226   1.004   4.347  0.5447 -0.4896  0.5799
   34CHL1  H12A 2474   3.148   1.045   4.416  0.5734 -1.0221  0.9357
   34CHL1  H12B 2475   3.311   1.074   4.331 -0.7049  0.5330 -2.1602
   34CHL1   C11 2476   3.160   0.974   4.206 -0.0281  0.1279 -0.1494
   34CHL1  H11A 2477   3.066   0.917   4.217 -0.5360  0.8657 -0.6053
   34CHL1  H11B 2478   3.134   1.077   4.171  0.8407  0.1656 -0.7275
   34CHL1    C9 2479   3.260   0.903   4.108  0.4360  0.4554  0.0393
   34CHL1    H9 2480   3.335   0.981   4.085 -0.5455  1.1321 -0.9777
   34CHL1   C10 2481   3.197   0.870   3.966  0.1339 -0.2125  0.2976
   34CHL1   C19 2482   3.077   0.778   3.988 -0.5351  0.5218  0.6362
   34CHL1  H19A 2483   3.042   0.738   3.891  2.8136 -1.7465  0.1891
   34CHL1  H19B 2484   3.103   0.695   4.057 -0.3240  0.3061  0.3006
   34CHL1  H19C 2485   2.998   0.847   4.026 -1.9613  0.7285 -2.3993
   34CHL1    C1 2486   3.149   0.996   3.887  0.3415  0.4101  0.3759
   34CHL1   H1A 2487   3.066   1.044   3.944  0.5272  2.6315 -1.1180
   34CHL1   H1B 2488   3.231   1.070   3.877  0.6716 -0.1554 -1.3540
   34CHL1    C2 2489   3.115   0.974   3.738 -0.1702  0.7574 -1.0852
   34CHL1   H2A 2490   3.105   1.072   3.688 -1.3780  0.6000 -1.1889
   34CHL1   H2B 2491   3.012   0.933   3.740 -0.2056  0.8719  0.9132
   34CHL1   C20 2492   3.323   0.918   4.671  0.4445  0.2125  0.8947
   34CHL1   H20 2493   3.223   0.874   4.693 -0.0860  1.0552  0.1836
   34CHL1   C21 2494   3.303   1.077   4.670 -0.7716  1.3109  0.0299
   34CHL1  H21A 2495   3.400   1.128   4.654  0.3000  0.6590  3.5399
   34CHL1  H21B 2496   3.253   1.115   4.762 -2.3011 -2.1221  0.7908
   34CHL1  H21C 2497   3.240   1.102   4.582  0.7106 -0.9250 -1.7727
   34CHL1   C22 2498   3.407   0.876   4.793 -0.1764  0.1293  0.3305
   34CHL1  H22A 2499   3.358   0.905   4.888 -0.1393 -0.0269  0.3986
   34CHL1  H22B 2500   3.420   0.766   4.806 -0.5784  0.2513  2.0638
   34CHL1   C23 2501   3.550   0.942   4.799  0.9616  0.2770 -0.0310
   34CHL1  H23A 2502   3.610   0.899   4.716  1.8340  2.3936 -0.5613
   34CHL1  H23B 2503   3.543   1.053   4.786  0.8961  0.3030  0.2286
   34CHL1   C24 2504   3.628   0.906   4.928  0.4277 -0.3007  0.7818
   34CHL1  H24A 2505   3.602   0.986   5.000 -2.9505 -1.1289  0.6376
   34CHL1  H24B 2506   3.602   0.804   4.963  0.5682 -1.3076 -1.8558
   34CHL1   C25 2507   3.781   0.918   4.918 -0.3274  0.4872 -0.0936
   34CHL1   H25 2508   3.806   0.898   5.024 -1.5386 -2.1220 -0.2173
   34CHL1   C26 2509   3.848   0.812   4.831 -0.7780 -0.2923 -0.6306
   34CHL1  H26A 2510   3.958   0.819   4.845 -1.2345 -0.2708  5.0408
   34CHL1  H26B 2511   3.821   0.711   4.870 -1.8096 -0.9152 -2.7682
   34CHL1  H26C 2512   3.810   0.820   4.727  0.2690 -0.4913 -1.0391
   34CHL1   C27 2513   3.817   1.066   4.883 -0.2126 -0.2683 -0.1528
   34CHL1  H27A 2514   3.787   1.129   4.970  0.7620 -0.8275  0.6153
   34CHL1  H27B 2515   3.928   1.076   4.880 -0.3142  1.0211 -0.3763
   34CHL1  H27C 2516   3.772   1.113   4.793 -1.1921  1.0896  1.0049
   35CHL1    C3 2517   6.874   0.114   3.489  0.4850  0.1989 -0.7765
   35CHL1    H3 2518   6.791   0.185   3.470 -0.9559 -0.9814  0.7114
   35CHL1    O3 2519   6.948   0.088   3.370 -1.0847  0.1659  0.2337
   35CHL1   H3' 2520   7.032   0.050   3.398 -0.1020  0.8222 -1.6504
   35CHL1    C4 2521   6.970   0.193   3.579 -0.1017  0.1346  0.3458
   35CHL1   H4A 2522   7.057   0.128   3.602 -0.9169 -1.5294 -1.0535
   35CHL1   H4B 2523   7.010   0.283   3.527 -0.0271 -1.4153 -2.4372
   35CHL1    C5 2524   6.904   0.216   3.717  0.8607 -0.0277 -0.5899
   35CHL1    C6 2525   6.895   0.340   3.762 -0.4636  0.4851 -0.4144
   35CHL1    H6 2526   6.938   0.417   3.697  1.2928 -1.6277 -1.9208
   35CHL1    C7 2527   6.844   0.383   3.894 -0.2757  0.4085  0.2113
   35CHL1   H7A 2528   6.920   0.445   3.946  1.7817 -1.3305 -0.5297
   35CHL1   H7B 2529   6.750   0.442   3.885 -1.0121 -0.8152 -0.3055
   35CHL1    C8 2530   6.820   0.259   3.985 -0.8065  0.0309 -0.2485
   35CHL1    H8 2531   6.919   0.228   4.026  0.0129  2.1643 -0.4661
   35CHL1   C14 2532   6.734   0.305   4.101 -0.7108  0.3523  0.1274
   35CHL1   H14 2533   6.648   0.349   4.046 -1.5023 -1.2057  0.0497
   35CHL1   C15 2534   6.792   0.413   4.195  0.6930  0.2894  0.3709
   35CHL1  H15A 2535   6.898   0.395   4.224 -0.1764 -2.8781  1.9576
   35CHL1  H15B 2536   6.790   0.511   4.143  1.8357 -0.3962 -1.0272
   35CHL1   C16 2537   6.714   0.397   4.322 -0.3016 -0.1037 -0.4476
   35CHL1  H16A 2538   6.775   0.385   4.415 -2.0972  0.4164  0.8512
   35CHL1  H16B 2539   6.658   0.489   4.348  1.3585  0.1799  2.6168
   35CHL1   C17 2540   6.610   0.278   4.310  1.0867 -0.0035  0.0363
   35CHL1   H17 2541   6.516   0.319   4.267  1.5286 -0.3975 -1.3779
   35CHL1   C13 2542   6.675   0.194   4.191  0.6608  0.6136 -0.2961
   35CHL1   C18 2543   6.790   0.120   4.256 -0.1262 -0.5813  0.1608
   35CHL1  H18A 2544   6.754   0.044   4.329  1.3448  1.5634  3.3398
   35CHL1  H18B 2545   6.854   0.072   4.179 -1.1493 -0.6497 -0.6665
   35CHL1  H18C 2546   6.844   0.195   4.318 -0.4458  0.2006 -0.4894
   35CHL1   C12 2547   6.585   0.101   4.104  0.5410 -0.0354  0.0016
   35CHL1  H12A 2548   6.543   0.011   4.154  1.3935 -1.9652 -2.5346
   35CHL1  H12B 2549   6.496   0.154   4.063  0.2493 -1.2590 -1.0118
   35CHL1   C11 2550   6.659   0.046   3.976  0.4628  0.2871 -0.1672
   35CHL1  H11A 2551   6.735  -0.017   4.026  1.4521  0.8461 -0.9205
   35CHL1  H11B 2552   6.588  -0.014   3.915 -0.6388  0.8172  0.5638
   35CHL1    C9 2553   6.745   0.155   3.900 -0.5523  0.0360  0.2618
   35CHL1    H9 2554   6.670   0.220   3.850 -0.6019 -0.6881 -0.6425
   35CHL1   C10 2555   6.833   0.095   3.784  0.1434  0.0519 -0.6430
   35CHL1   C19 2556   6.940   0.011   3.846  0.0576  0.1717 -0.0928
   35CHL1  H19A 2557   6.903  -0.091   3.866  0.1564  0.6695  3.0502
   35CHL1  H19B 2558   7.025  -0.005   3.775 -0.2199 -1.2383 -0.1304
   35CHL1  H19C 2559   6.985   0.051   3.939 -0.9435 -1.6603  1.2262
   35CHL1    C1 2560   6.741   0.023   3.681 -0.1454 -0.3277  0.5007
   35CHL1   H1A 2561   6.699  -0.071   3.723 -4.0779  1.3195  0.6381
   35CHL1   H1B 2562   6.656   0.092   3.666  0.8965  0.8053 -0.4927
   35CHL1    C2 2563   6.823  -0.011   3.550  0.2482  0.1811  0.1730
   35CHL1   H2A 2564   6.767  -0.080   3.483 -1.1291 -1.9967  3.3105
   35CHL1   H2B 2565   6.918  -0.055   3.588  1.9307  1.4273 -2.3676
   35CHL1   C20 2566   6.575   0.211   4.444  0.2779  0.0981  0.2314
   35CHL1   H20 2567   6.665   0.158   4.481 -1.0079 -1.7968  0.7695
   35CHL1   C21 2568   6.471   0.103   4.412  0.4445 -0.4697 -1.0408
   35CHL1  H21A 2569   6.392   0.137   4.342 -0.1131 -0.9624 -0.6665
   35CHL1  H21B 2570   6.427   0.067   4.508  1.5520  0.8514  0.0166
   35CHL1  H21C 2571   6.523   0.015   4.368 -1.4181 -1.3390 -1.5765
   35CHL1   C22 2572   6.523   0.309   4.551  0.1968 -0.1192 -0.0912
   35CHL1  H22A 2573   6.595   0.390   4.575 -0.6329  0.1141  1.8354
   35CHL1  H22B 2574   6.425   0.352   4.523  0.8385  2.2882  1.1215
   35CHL1   C23 2575   6.493   0.241   4.689  0.0371 -0.2751 -0.7726
   35CHL1  H23A 2576   6.383   0.231   4.707 -0.2508  1.3252 -1.4384
   35CHL1  H23B 2577   6.534   0.139   4.708 -1.0335 -0.7845 -1.0717
   35CHL1   C24 2578   6.551   0.317   4.804  0.0564 -0.0951 -0.2638
   35CHL1  H24A 2579   6.646   0.363   4.772 -0.7732  2.4406  0.6181
   35CHL1  H24B 2580   6.475   0.395   4.828 -1.8715 -2.2158  0.9369
   35CHL1   C25 2581   6.569   0.233   4.934  0.3024  0.0362  0.2351
   35CHL1   H25 2582   6.645   0.154   4.914  0.7291  0.8373 -1.5184
   35CHL1   C26 2583   6.635   0.310   5.046  0.4113  0.7129 -0.5932
   35CHL1  H26A 2584   6.578   0.405   5.061 -0.6139 -0.0233  0.3260
   35CHL1  H26B 2585   6.641   0.244   5.135  0.1570  1.4591 -0.0014
   35CHL1  H26C 2586   6.742   0.335   5.030  0.5316  1.2170  0.8482
   35CHL1   C27 2587   6.438   0.171   4.977 -0.0402  0.2186  0.3667
   35CHL1  H27A 2588   6.430   0.084   4.909 -0.6496  0.4888  0.0819
   35CHL1  H27B 2589   6.435   0.122   5.077  1.4129 -3.2564 -1.1661
   35CHL1  H27C 2590   6.358   0.247   4.962 -0.2150 -0.2930 -1.4819
   36CHL1    C3 2591   1.304   1.077   3.371 -0.9522 -0.1147 -0.2089
   36CHL1    H3 2592   1.214   1.016   3.350 -2.1054  0.8290  1.7760
   36CHL1    O3 2593   1.359   1.147   3.258 -0.7959  0.4905 -0.0449
   36CHL1   H3' 2594   1.441   1.180   3.296 -0.9482  0.3448  0.4211
   36CHL1    C4 2595   1.269   1.171   3.486  0.0940  0.5457 -0.3548
   36CHL1   H4A 2596   1.352   1.244   3.501  0.3754  0.4625 -1.4508
   36CHL1   H4B 2597   1.184   1.227   3.441 -0.0812  0.4771 -0.1128
   36CHL1    C5 2598   1.233   1.105   3.619 -0.4546  0.4328  0.4429
   36CHL1    C6 2599   1.130   1.142   3.694  0.0039  0.2145 -0.1662
   36CHL1    H6 2600   1.093   1.242   3.665  1.1797  0.8348  0.3735
   36CHL1    C7 2601   1.093   1.092   3.830  0.3389  0.8238  0.0681
   36CHL1   H7A 2602   1.079   1.177   3.900  0.1186  1.7020 -0.9976
   36CHL1   H7B 2603   0.996   1.038   3.828  0.2091  1.0099 -2.7775
   36CHL1    C8 2604   1.203   0.997   3.888 -0.1690 -0.5805 -0.1787
   36CHL1    H8 2605   1.282   1.068   3.923 -1.4500  0.2492  1.1595
   36CHL1   C14 2606   1.152   0.917   4.003 -0.2933 -0.0046 -0.0788
   36CHL1   H14 2607   1.070   0.853   3.965 -2.5507  1.2947  2.2815
   36CHL1   C15 2608   1.090   0.992   4.121 -0.5533 -0.2484 -0.1827
   36CHL1  H15A 2609   1.156   1.071   4.163 -0.7165 -0.1829 -0.0463
   36CHL1  H15B 2610   0.996   1.038   4.083 -0.9630 -1.6049 -0.8589
   36CHL1   C16 2611   1.073   0.882   4.229 -0.5356  0.5994 -0.0926
   36CHL1  H16A 2612   1.121   0.924   4.319  1.0310 -0.6882 -0.2805
   36CHL1  H16B 2613   0.963   0.869   4.238 -0.3037 -1.3088  0.4368
   36CHL1   C17 2614   1.158   0.756   4.183  0.4952  0.3029  0.2388
   36CHL1   H17 2615   1.094   0.680   4.133  0.7102  1.5695 -2.0872
   36CHL1   C13 2616   1.242   0.806   4.064  0.2373  0.7477  0.3182
   36CHL1   C18 2617   1.368   0.881   4.116  0.1913  0.0304 -0.2466
   36CHL1  H18A 2618   1.354   0.943   4.207 -1.2032  0.7127 -0.8970
   36CHL1  H18B 2619   1.439   0.810   4.163  0.2622 -0.8078 -1.5494
   36CHL1  H18C 2620   1.425   0.943   4.042  1.3631  0.3971  0.9263
   36CHL1   C12 2621   1.283   0.708   3.951  0.3143 -0.1404 -0.6557
   36CHL1  H12A 2622   1.355   0.632   3.987  0.4350  0.6014  0.7298
   36CHL1  H12B 2623   1.192   0.664   3.905  0.9803 -0.5298 -1.6464
   36CHL1   C11 2624   1.351   0.786   3.831  0.2018  0.9306  0.8909
   36CHL1  H11A 2625   1.447   0.827   3.869  0.6473 -0.2084  1.0236
   36CHL1  H11B 2626   1.369   0.715   3.748  0.1141  0.7317  1.0429
   36CHL1    C9 2627   1.258   0.902   3.780  0.0526  0.3582  0.1032
   36CHL1    H9 2628   1.173   0.842   3.741  0.4456 -0.1218 -0.0224
   36CHL1   C10 2629   1.317   0.988   3.659 -0.7738 -0.5071  0.2262
   36CHL1   C19 2630   1.452   1.049   3.714  0.7285 -0.3011  0.1021
   36CHL1  H19A 2631   1.438   1.104   3.810 -0.8496  0.5409 -0.5923
   36CHL1  H19B 2632   1.532   0.979   3.749  0.4340  0.2876  2.1103
   36CHL1  H19C 2633   1.494   1.121   3.642  0.4977  0.6151  0.8638
   36CHL1    C1 2634   1.356   0.898   3.542 -0.5395  0.1693  0.0763
   36CHL1   H1A 2635   1.429   0.821   3.576 -0.3630 -0.8399 -2.3505
   36CHL1   H1B 2636   1.264   0.841   3.518 -0.8542  0.0053  1.5711
   36CHL1    C2 2637   1.406   0.968   3.418  0.4782 -1.1987 -0.7335
   36CHL1   H2A 2638   1.425   0.904   3.329  0.7058 -1.1616 -0.7126
   36CHL1   H2B 2639   1.502   1.017   3.445 -0.8465  0.5633  1.0603
   36CHL1   C20 2640   1.219   0.678   4.301 -0.0172  0.1256  0.0115
   36CHL1   H20 2641   1.286   0.748   4.355 -3.0316  1.8008  1.8601
   36CHL1   C21 2642   1.303   0.563   4.249 -0.0494 -0.0021 -0.2784
   36CHL1  H21A 2643   1.339   0.500   4.333  1.9469  1.2871 -0.1192
   36CHL1  H21B 2644   1.392   0.600   4.193 -0.8026 -1.3208 -2.5065
   36CHL1  H21C 2645   1.243   0.501   4.178 -0.6692 -0.3180  0.5017
   36CHL1   C22 2646   1.113   0.635   4.411  0.1867  0.5309  0.1775
   36CHL1  H22A 2647   1.022   0.697   4.402  0.1329  0.4237 -0.0352
   36CHL1  H22B 2648   1.074   0.534   4.385 -2.1775  1.2235  0.7936
   36CHL1   C23 2649   1.164   0.631   4.549  0.2951  0.6161 -0.5935
   36CHL1  H23A 2650   1.250   0.561   4.555 -1.1402 -1.5791 -2.9267
   36CHL1  H23B 2651   1.203   0.727   4.588  2.4827 -0.5126  0.1283
   36CHL1   C24 2652   1.050   0.572   4.647 -0.9367 -0.4646 -0.0848
   36CHL1  H24A 2653   0.972   0.650   4.659  1.4351  2.3715 -1.6344
   36CHL1  H24B 2654   1.008   0.484   4.593 -2.9765  0.0084  0.6440
   36CHL1   C25 2655   1.101   0.532   4.783 -0.4082 -0.1837 -0.1929
   36CHL1   H25 2656   1.189   0.593   4.811 -1.2114  0.3538  1.2311
   36CHL1   C26 2657   0.997   0.559   4.894 -0.2422  0.4026  0.5874
   36CHL1  H26A 2658   0.968   0.666   4.902 -3.5312 -0.2080 -1.0010
   36CHL1  H26B 2659   0.905   0.508   4.857  1.7270 -3.2132  0.2366
   36CHL1  H26C 2660   1.049   0.517   4.982  0.1855 -0.1959  0.0663
   36CHL1   C27 2661   1.141   0.381   4.779  0.0713  0.1579 -0.0202
   36CHL1  H27A 2662   1.061   0.313   4.744 -0.2978  0.7755 -0.3956
   36CHL1  H27B 2663   1.221   0.367   4.703 -1.6246  1.8874 -2.2255
   36CHL1  H27C 2664   1.176   0.348   4.879  0.1073  0.6442  0.1283
   37CHL1    C3 2665   2.359   6.003   3.231  0.5461  0.6000  0.5752
   37CHL1    H3 2666   2.306   5.912   3.267  2.0399 -0.5836 -0.0988
   37CHL1    O3 2667   2.360   5.994   3.089  0.1607 -0.5852  0.3906
   37CHL1   H3' 2668   2.404   6.076   3.069 -0.1073 -0.2267  1.2256
   37CHL1    C4 2669   2.262   6.121   3.263 -0.0605  0.8705  0.4361
   37CHL1   H4A 2670   2.289   6.208   3.200 -1.4601  1.5625  0.7319
   37CHL1   H4B 2671   2.161   6.089   3.228  0.1886 -0.0040  0.5014
   37CHL1    C5 2672   2.261   6.166   3.412 -0.6537  0.5897  0.3962
   37CHL1    C6 2673   2.158   6.187   3.478  0.6234 -1.1253  0.2757
   37CHL1    H6 2674   2.067   6.188   3.416  0.5290 -0.5900  0.4146
   37CHL1    C7 2675   2.148   6.225   3.625 -0.0887  0.7591  0.1148
   37CHL1   H7A 2676   2.085   6.315   3.645  1.2376  1.2657  2.2908
   37CHL1   H7B 2677   2.100   6.146   3.687 -0.4452 -0.4730 -1.6668
   37CHL1    C8 2678   2.284   6.256   3.688 -0.0143 -0.3335 -0.2427
   37CHL1    H8 2679   2.303   6.364   3.668 -0.9053 -0.3651 -1.3814
   37CHL1   C14 2680   2.278   6.237   3.841 -0.0271 -0.7264 -0.0067
   37CHL1   H14 2681   2.268   6.129   3.863  2.8409 -1.1978 -0.5903
   37CHL1   C15 2682   2.165   6.312   3.919 -0.3093  0.5039  0.3740
   37CHL1  H15A 2683   2.157   6.418   3.884  1.5498  1.2517  2.0064
   37CHL1  H15B 2684   2.066   6.263   3.907  0.2009 -0.3683 -0.3544
   37CHL1   C16 2685   2.205   6.306   4.067  0.1303 -0.6097 -0.3293
   37CHL1  H16A 2686   2.198   6.412   4.098  3.4495 -0.2993 -0.2334
   37CHL1  H16B 2687   2.137   6.246   4.131  0.0903 -1.4344 -1.1211
   37CHL1   C17 2688   2.353   6.252   4.059 -0.0019 -0.0256 -0.6799
   37CHL1   H17 2689   2.353   6.143   4.082  2.8964 -0.2927 -1.4969
   37CHL1   C13 2690   2.409   6.268   3.913 -0.7265  0.2310  0.0762
   37CHL1   C18 2691   2.457   6.410   3.896  0.2258 -0.5913  0.0520
   37CHL1  H18A 2692   2.484   6.431   3.791  1.9395 -2.4445  0.0481
   37CHL1  H18B 2693   2.382   6.489   3.919  2.3210  1.5236  0.0252
   37CHL1  H18C 2694   2.552   6.440   3.947  0.9530 -1.7372 -0.5757
   37CHL1   C12 2695   2.518   6.171   3.858 -0.3854  0.3962  0.4566
   37CHL1  H12A 2696   2.622   6.175   3.897 -0.3698 -1.6017  0.7589
   37CHL1  H12B 2697   2.490   6.064   3.869 -0.0064  0.1302 -0.8859
   37CHL1   C11 2698   2.528   6.190   3.706  0.8477 -0.4111  0.2231
   37CHL1  H11A 2699   2.558   6.294   3.682  0.6968 -0.1494  1.1537
   37CHL1  H11B 2700   2.603   6.119   3.664  2.0635  1.3334 -0.6746
   37CHL1    C9 2701   2.394   6.167   3.630  0.3819 -1.0200  0.4305
   37CHL1    H9 2702   2.363   6.066   3.664 -0.3955 -1.5326 -1.6652
   37CHL1   C10 2703   2.406   6.173   3.475  0.2744  0.3949 -0.1512
   37CHL1   C19 2704   2.483   6.304   3.440 -0.1571  0.4774 -0.0135
   37CHL1  H19A 2705   2.463   6.341   3.337 -1.8912  1.0269  0.4851
   37CHL1  H19B 2706   2.434   6.389   3.492 -0.5249  1.2432 -1.5294
   37CHL1  H19C 2707   2.594   6.300   3.442 -0.0531 -0.7435 -2.9089
   37CHL1    C1 2708   2.493   6.050   3.431  0.0750  0.3320  0.5044
   37CHL1   H1A 2709   2.597   6.056   3.469  0.1128 -0.0464  0.4613
   37CHL1   H1B 2710   2.446   5.959   3.474  0.0770  0.0524 -0.0781
   37CHL1    C2 2711   2.495   6.023   3.284  0.2831  0.3145 -0.3603
   37CHL1   H2A 2712   2.553   5.931   3.261  0.5664  0.0570  1.2682
   37CHL1   H2B 2713   2.537   6.109   3.227  1.4989  0.1575  0.2669
   37CHL1   C20 2714   2.441   6.319   4.175  0.4791 -1.0678  0.4890
   37CHL1   H20 2715   2.455   6.424   4.143 -0.0791 -1.6319 -1.8461
   37CHL1   C21 2716   2.571   6.247   4.185 -0.4912  0.4034  0.4457
   37CHL1  H21A 2717   2.627   6.257   4.090 -1.1890  0.9562  0.0862
   37CHL1  H21B 2718   2.553   6.139   4.200 -0.2272  0.4457  1.1515
   37CHL1  H21C 2719   2.634   6.299   4.261 -0.2213  1.6619 -0.5992
   37CHL1   C22 2720   2.370   6.311   4.311  0.3662 -0.5084  0.6997
   37CHL1  H22A 2721   2.261   6.332   4.303  0.2849 -0.7264  1.1994
   37CHL1  H22B 2722   2.392   6.208   4.346 -2.6866 -1.7703 -0.7282
   37CHL1   C23 2723   2.413   6.418   4.404  0.6089 -1.1529  0.5596
   37CHL1  H23A 2724   2.524   6.415   4.409  0.6880 -0.9604 -0.9019
   37CHL1  H23B 2725   2.372   6.516   4.373 -1.4743 -2.3208 -0.5886
   37CHL1   C24 2726   2.361   6.394   4.544 -0.4072  0.0460 -0.9550
   37CHL1  H24A 2727   2.252   6.376   4.539 -0.5894 -0.4608  2.3976
   37CHL1  H24B 2728   2.413   6.298   4.565 -1.4605 -0.4815 -0.6936
   37CHL1   C25 2729   2.377   6.502   4.650 -0.0441 -0.9305  0.0566
   37CHL1   H25 2730   2.303   6.583   4.634 -1.2134 -1.3348  2.8634
   37CHL1   C26 2731   2.344   6.436   4.784 -0.2253  0.1468  0.2014
   37CHL1  H26A 2732   2.419   6.361   4.820  1.0646  1.6729  0.8257
   37CHL1  H26B 2733   2.355   6.521   4.854  1.0271  1.7323 -1.7902
   37CHL1  H26C 2734   2.242   6.397   4.765  0.1313 -1.8919  2.0402
   37CHL1   C27 2735   2.521   6.564   4.654  0.1235 -0.0772  0.0939
   37CHL1  H27A 2736   2.545   6.606   4.554  0.7216 -0.2333  0.1671
   37CHL1  H27B 2737   2.512   6.643   4.731 -1.5505 -1.3013  1.2221
   37CHL1  H27C 2738   2.596   6.490   4.689  0.3047 -0.0638 -0.2596
   38CHL1    C3 2739   6.819   5.332   3.423  1.2842  0.2996 -0.4149
   38CHL1    H3 2740   6.918   5.336   3.372  0.4431  0.9992 -2.0639
   38CHL1    O3 2741   6.719   5.341   3.321  0.3096  0.5126  0.1050
   38CHL1   H3' 2742   6.631   5.323   3.357  0.8367 -0.5142  0.9277
   38CHL1    C4 2743   6.794   5.196   3.494  0.3080 -0.2757 -0.2888
   38CHL1   H4A 2744   6.691   5.193   3.535  0.4834  2.4397  0.5421
   38CHL1   H4B 2745   6.793   5.117   3.415  2.3032  0.1746 -0.8070
   38CHL1    C5 2746   6.884   5.163   3.610 -0.9160  0.2559  1.1292
   38CHL1    C6 2747   6.948   5.045   3.624 -0.5531 -0.8806  0.0706
   38CHL1    H6 2748   6.927   4.960   3.556 -0.4014  0.0174 -1.1295
   38CHL1    C7 2749   7.024   5.016   3.746  0.2248 -0.9631  0.3642
   38CHL1   H7A 2750   6.990   4.918   3.785 -1.5743 -0.6244 -0.2802
   38CHL1   H7B 2751   7.128   5.012   3.707  0.7501  4.1920  0.4774
   38CHL1    C8 2752   7.014   5.121   3.865 -0.2831 -0.2237  0.2108
   38CHL1    H8 2753   6.924   5.112   3.930  1.0182  1.8236  2.4558
   38CHL1   C14 2754   7.134   5.097   3.954  0.4122 -0.8449 -0.4916
   38CHL1   H14 2755   7.219   5.124   3.888  0.3619  2.4174  0.6033
   38CHL1   C15 2756   7.167   4.960   4.011  0.3621 -0.1524  0.2670
   38CHL1  H15A 2757   7.090   4.916   4.078 -0.9073  1.1569 -0.2768
   38CHL1  H15B 2758   7.200   4.903   3.921  3.0310 -0.0884  1.1200
   38CHL1   C16 2759   7.278   4.993   4.115  0.2984 -0.2534  0.4303
   38CHL1  H16A 2760   7.270   4.940   4.213  1.3354 -0.9433  0.1576
   38CHL1  H16B 2761   7.379   4.968   4.076 -0.0312 -0.3317 -0.4042
   38CHL1   C17 2762   7.274   5.144   4.144  0.0452 -0.3389 -0.1324
   38CHL1   H17 2763   7.359   5.186   4.087 -1.3215  4.0414  0.6740
   38CHL1   C13 2764   7.143   5.199   4.068 -0.2081  0.8047  0.0822
   38CHL1   C18 2765   7.020   5.172   4.162  0.0800  0.6438  0.5608
   38CHL1  H18A 2766   7.029   5.237   4.252 -1.8320  0.2410  1.0971
   38CHL1  H18B 2767   6.920   5.193   4.118 -0.6903  1.6730  2.6499
   38CHL1  H18C 2768   7.006   5.067   4.196  1.8659 -0.4241 -1.6955
   38CHL1   C12 2769   7.138   5.344   4.016  0.5247 -0.2959  0.3670
   38CHL1  H12A 2770   7.107   5.407   4.102 -1.5117  1.3886 -1.4864
   38CHL1  H12B 2771   7.233   5.387   3.977 -0.8050  0.3410 -2.4440
   38CHL1   C11 2772   7.023   5.369   3.917 -0.2108  0.3682 -0.5953
   38CHL1  H11A 2773   6.929   5.344   3.970  0.7580 -4.0683 -0.5342
   38CHL1  H11B 2774   7.016   5.474   3.881 -0.8161  0.4868 -0.1455
   38CHL1    C9 2775   7.015   5.266   3.807 -0.0035  0.0360 -0.4125
   38CHL1    H9 2776   7.107   5.269   3.745 -0.2059  2.5685 -0.6875
   38CHL1   C10 2777   6.901   5.288   3.704  0.0459  0.1978 -0.5310
   38CHL1   C19 2778   6.762   5.281   3.779  0.0923 -0.1099 -0.3787
   38CHL1  H19A 2779   6.742   5.184   3.830  0.3843  1.1978  2.4240
   38CHL1  H19B 2780   6.752   5.360   3.857 -0.2745 -0.3264 -0.2064
   38CHL1  H19C 2781   6.680   5.290   3.705 -0.0742 -1.6622 -0.4253
   38CHL1    C1 2782   6.914   5.427   3.635 -0.4328 -0.1936 -0.1464
   38CHL1   H1A 2783   6.896   5.505   3.712  1.6260 -0.0633  0.2621
   38CHL1   H1B 2784   7.014   5.427   3.586 -1.2294  2.3368 -1.9622
   38CHL1    C2 2785   6.817   5.451   3.521  0.3969 -0.3384  0.2443
   38CHL1   H2A 2786   6.845   5.542   3.463 -4.0273  1.2325  0.1220
   38CHL1   H2B 2787   6.713   5.468   3.557 -0.2472  1.6941 -2.2359
   38CHL1   C20 2788   7.313   5.186   4.288  0.5416  1.0009  0.8595
   38CHL1   H20 2789   7.222   5.165   4.347 -1.1432 -0.6130 -2.0695
   38CHL1   C21 2790   7.340   5.338   4.284 -0.7821  0.1815  0.2257
   38CHL1  H21A 2791   7.365   5.364   4.389 -0.1452  0.9054 -0.0922
   38CHL1  H21B 2792   7.252   5.393   4.243 -0.2317 -0.4027 -1.8656
   38CHL1  H21C 2793   7.421   5.378   4.220 -0.3092  1.9832  1.8423
   38CHL1   C22 2794   7.423   5.103   4.357 -0.1502  0.1082  0.1270
   38CHL1  H22A 2795   7.396   4.996   4.370 -0.2009  0.0345 -0.5646
   38CHL1  H22B 2796   7.518   5.117   4.303  0.1322 -2.0968 -0.0425
   38CHL1   C23 2797   7.444   5.152   4.506 -0.0781  0.6961  0.4619
   38CHL1  H23A 2798   7.477   5.258   4.510  0.4521  0.6445 -1.4831
   38CHL1  H23B 2799   7.357   5.145   4.574  0.9440 -0.9779  1.6535
   38CHL1   C24 2800   7.548   5.062   4.574  0.0093 -0.0411 -0.0493
   38CHL1  H24A 2801   7.502   4.961   4.578 -0.3530  0.1316  0.2555
   38CHL1  H24B 2802   7.647   5.081   4.526  0.6917  0.7969  1.5859
   38CHL1   C25 2803   7.570   5.083   4.726  0.0556  0.1456  0.2931
   38CHL1   H25 2804   7.474   5.055   4.774  1.0286 -1.8360  1.1859
   38CHL1   C26 2805   7.677   4.982   4.784 -0.1996  0.9640 -0.6434
   38CHL1  H26A 2806   7.691   5.000   4.893  0.1723  0.7312 -0.6522
   38CHL1  H26B 2807   7.638   4.878   4.780  0.4070  0.6421  0.8609
   38CHL1  H26C 2808   7.781   4.987   4.746 -0.2605  0.9678 -0.8077
   38CHL1   C27 2809   7.600   5.225   4.770 -0.0720  0.5775  0.2136
   38CHL1  H27A 2810   7.686   5.259   4.708 -0.6824  0.9880 -0.4273
   38CHL1  H27B 2811   7.508   5.284   4.752 -0.4049  0.9326  2.6970
   38CHL1  H27C 2812   7.619   5.243   4.878  2.9400 -0.3614 -0.0544
   39CHL1    C3 2813   0.839   3.373   3.119 -0.0786  0.0218  0.6179
   39CHL1    H3 2814   0.941   3.329   3.112 -0.4878 -0.7684 -0.8068
   39CHL1    O3 2815   0.791   3.379   2.985 -0.0120  0.2188  0.0419
   39CHL1   H3' 2816   0.704   3.420   2.980 -0.1787 -0.3026 -3.5254
   39CHL1    C4 2817   0.744   3.293   3.202  0.9295  0.4756 -0.6767
   39CHL1   H4A 2818   0.644   3.334   3.176  1.4325  1.0158 -1.8176
   39CHL1   H4B 2819   0.739   3.191   3.158 -2.8195  0.1082  0.3322
   39CHL1    C5 2820   0.779   3.282   3.349 -0.6245  0.4082 -0.0336
   39CHL1    C6 2821   0.796   3.162   3.412  0.5871 -0.3577  0.0176
   39CHL1    H6 2822   0.784   3.067   3.357 -0.7746 -1.3311  1.8900
   39CHL1    C7 2823   0.835   3.146   3.558  0.0469  0.5271  0.6097
   39CHL1   H7A 2824   0.761   3.079   3.606 -1.5792  1.7744 -0.0614
   39CHL1   H7B 2825   0.935   3.099   3.568 -0.4332 -1.8624 -3.3728
   39CHL1    C8 2826   0.820   3.283   3.631 -0.8622  0.0048  1.2924
   39CHL1    H8 2827   0.713   3.308   3.651 -0.1419  2.2606  2.7858
   39CHL1   C14 2828   0.898   3.271   3.756  0.8910  0.6185 -0.3291
   39CHL1   H14 2829   1.005   3.262   3.730  1.6824  0.0586  2.7599
   39CHL1   C15 2830   0.871   3.146   3.849  0.0570 -0.0689  1.0027
   39CHL1  H15A 2831   0.762   3.131   3.828  0.8823 -1.8749 -3.0069
   39CHL1  H15B 2832   0.924   3.054   3.817 -1.1638 -0.3136 -0.4415
   39CHL1   C16 2833   0.925   3.192   3.985  0.2254 -1.0649  0.1472
   39CHL1  H16A 2834   0.837   3.177   4.051 -0.9726 -0.0057 -1.1487
   39CHL1  H16B 2835   1.007   3.126   4.021  0.0464 -1.3247  0.0815
   39CHL1   C17 2836   0.960   3.345   3.975  0.3419  0.0462  0.0707
   39CHL1   H17 2837   1.068   3.349   3.951  0.3429 -0.9023 -0.1099
   39CHL1   C13 2838   0.883   3.395   3.853  0.0116  0.3058 -0.1694
   39CHL1   C18 2839   0.731   3.414   3.890  0.5125 -0.3811 -0.2038
   39CHL1  H18A 2840   0.674   3.435   3.796 -2.4137 -0.9478  1.3256
   39CHL1  H18B 2841   0.666   3.332   3.927 -1.1899  1.4262  0.9748
   39CHL1  H18C 2842   0.716   3.497   3.961 -1.3996 -0.2164 -0.7478
   39CHL1   C12 2843   0.951   3.512   3.779  0.2270  0.0814 -0.1355
   39CHL1  H12A 2844   0.928   3.606   3.835 -0.5543  0.9434 -1.8383
   39CHL1  H12B 2845   1.057   3.483   3.765 -0.0146 -1.1334  0.4623
   39CHL1   C11 2846   0.880   3.529   3.640 -0.4367  0.5929 -0.1936
   39CHL1  H11A 2847   0.777   3.557   3.669 -0.7787 -0.8857  0.0960
   39CHL1  H11B 2848   0.934   3.611   3.587 -0.7843 -0.6802 -2.6591
   39CHL1    C9 2849   0.873   3.406   3.546 -0.2487  0.2135 -0.3555
   39CHL1    H9 2850   0.978   3.379   3.523 -0.2655 -1.8566  1.6263
   39CHL1   C10 2851   0.812   3.419   3.409 -0.4764 -0.1925  0.2659
   39CHL1   C19 2852   0.677   3.481   3.433 -0.5540  0.1866 -0.2799
   39CHL1  H19A 2853   0.617   3.419   3.502 -1.0650 -0.9416 -1.7051
   39CHL1  H19B 2854   0.687   3.578   3.487  1.1673 -0.9318  1.5520
   39CHL1  H19C 2855   0.615   3.504   3.344 -3.7488  0.3521  1.8600
   39CHL1    C1 2856   0.904   3.511   3.322  0.2552  0.3674 -0.1703
   39CHL1   H1A 2857   0.912   3.611   3.370 -1.0444  1.2623 -1.7015
   39CHL1   H1B 2858   1.008   3.476   3.334  0.7525  1.0342 -2.2084
   39CHL1    C2 2859   0.847   3.517   3.178 -0.7438  0.4697 -0.4579
   39CHL1   H2A 2860   0.905   3.586   3.113  1.7402 -1.8454 -0.8963
   39CHL1   H2B 2861   0.745   3.559   3.183 -1.0506 -0.3738  0.7029
   39CHL1   C20 2862   0.932   3.429   4.107 -0.4665 -0.0743  0.4578
   39CHL1   H20 2863   0.823   3.434   4.126 -0.6251 -0.8357 -0.2169
   39CHL1   C21 2864   0.967   3.576   4.090  0.4507  0.4633 -0.0480
   39CHL1  H21A 2865   0.972   3.625   4.189  0.7767 -0.6732  0.5241
   39CHL1  H21B 2866   0.886   3.631   4.037  1.3925  1.0270 -0.9266
   39CHL1  H21C 2867   1.057   3.582   4.026  1.1318 -1.5161  0.6334
   39CHL1   C22 2868   1.003   3.358   4.228  0.8102 -0.3276  0.0716
   39CHL1  H22A 2869   1.006   3.247   4.220 -0.8485 -0.3180 -1.0586
   39CHL1  H22B 2870   1.106   3.399   4.220  0.6249  0.4035  1.2988
   39CHL1   C23 2871   0.950   3.397   4.361 -0.7809  0.2646 -0.4744
   39CHL1  H23A 2872   1.019   3.362   4.441  0.1501  2.5895 -0.1822
   39CHL1  H23B 2873   0.947   3.508   4.367 -2.5373  0.2116  0.3462
   39CHL1   C24 2874   0.814   3.344   4.392 -0.2678  0.8580 -0.2896
   39CHL1  H24A 2875   0.744   3.373   4.311 -0.5775  0.4161 -0.1895
   39CHL1  H24B 2876   0.818   3.233   4.386  0.9669  0.8204  0.8227
   39CHL1   C25 2877   0.764   3.399   4.527 -0.5481 -0.3919  0.8433
   39CHL1   H25 2878   0.793   3.506   4.526 -0.2004 -0.4043 -2.6253
   39CHL1   C26 2879   0.612   3.395   4.539  0.4803 -0.5280 -0.4262
   39CHL1  H26A 2880   0.574   3.291   4.527  3.5386 -1.9777  1.2429
   39CHL1  H26B 2881   0.574   3.449   4.628  4.5111  1.3894  0.3659
   39CHL1  H26C 2882   0.571   3.447   4.450  2.8056  0.4935 -0.9732
   39CHL1   C27 2883   0.830   3.324   4.645  0.5108  0.2805  0.1293
   39CHL1  H27A 2884   0.941   3.322   4.632  0.3071 -1.3838 -1.8472
   39CHL1  H27B 2885   0.803   3.364   4.745 -2.8675 -2.4383  0.4662
   39CHL1  H27C 2886   0.796   3.219   4.642  1.2358  0.0633 -1.7148
   40CHL1    C3 2887   4.558   1.679   2.990 -0.0688 -0.0983 -0.2556
   40CHL1    H3 2888   4.613   1.591   3.031 -0.0513 -0.5056 -1.1336
   40CHL1    O3 2889   4.565   1.666   2.850 -0.0538  0.5531 -0.0699
   40CHL1   H3' 2890   4.649   1.705   2.826 -0.2675  0.9828 -0.1239
   40CHL1    C4 2891   4.413   1.685   3.033 -0.4980  0.0152 -0.4708
   40CHL1   H4A 2892   4.370   1.779   2.992 -0.0041 -0.1922 -1.5191
   40CHL1   H4B 2893   4.351   1.602   2.991 -0.9592  0.1442 -0.0585
   40CHL1    C5 2894   4.409   1.680   3.184 -0.3344  0.2426 -0.8493
   40CHL1    C6 2895   4.345   1.580   3.242 -0.5036 -0.0589 -0.0811
   40CHL1    H6 2896   4.289   1.510   3.178 -0.7911  1.7834 -1.9695
   40CHL1    C7 2897   4.331   1.578   3.387 -0.2963  0.1359  0.4597
   40CHL1   H7A 2898   4.228   1.547   3.415 -0.1643 -0.9389 -0.1865
   40CHL1   H7B 2899   4.392   1.491   3.416 -1.0295 -1.1736 -1.7090
   40CHL1    C8 2900   4.382   1.701   3.461  0.4263  0.1721  1.2633
   40CHL1    H8 2901   4.305   1.780   3.445  1.9869  1.5033  0.0261
   40CHL1   C14 2902   4.395   1.676   3.607 -0.3810 -0.5585 -0.3534
   40CHL1   H14 2903   4.482   1.607   3.619 -1.3970 -1.5637  1.8947
   40CHL1   C15 2904   4.271   1.619   3.676  0.2874  0.3948 -0.8161
   40CHL1  H15A 2905   4.176   1.664   3.641 -0.8711 -2.3869 -1.6040
   40CHL1  H15B 2906   4.252   1.511   3.655  1.9359  0.0244 -0.5682
   40CHL1   C16 2907   4.297   1.641   3.829  0.6359 -0.1093  0.1255
   40CHL1  H16A 2908   4.214   1.691   3.883 -0.7097  0.8942 -2.6547
   40CHL1  H16B 2909   4.305   1.545   3.885 -1.9209 -1.3284 -1.4015
   40CHL1   C17 2910   4.423   1.739   3.828 -0.1376 -0.4259  0.0542
   40CHL1   H17 2911   4.515   1.677   3.835  0.4793  0.5447  0.8890
   40CHL1   C13 2912   4.435   1.805   3.690  0.0592 -0.4192 -0.0013
   40CHL1   C18 2913   4.319   1.910   3.681  0.5005 -0.1776 -0.5547
   40CHL1  H18A 2914   4.285   1.937   3.579 -2.5271  0.1337  0.4570
   40CHL1  H18B 2915   4.235   1.885   3.749  0.5522  0.7207 -0.1410
   40CHL1  H18C 2916   4.359   2.001   3.731  0.4164  0.2540 -1.2618
   40CHL1   C12 2917   4.568   1.860   3.640 -0.5007  0.2625  0.1366
   40CHL1  H12A 2918   4.589   1.959   3.686 -2.8569  0.4151  1.0023
   40CHL1  H12B 2919   4.653   1.791   3.659  0.9665  2.2615  1.2665
   40CHL1   C11 2920   4.555   1.883   3.486 -0.1228  0.8759  0.0441
   40CHL1  H11A 2921   4.467   1.951   3.480 -1.4754 -0.8101  0.0577
   40CHL1  H11B 2922   4.648   1.931   3.449  0.0874  0.3845 -0.0652
   40CHL1    C9 2923   4.501   1.767   3.401 -0.4330 -0.2974  0.2700
   40CHL1    H9 2924   4.587   1.698   3.411 -1.4905 -1.6433  0.3232
   40CHL1   C10 2925   4.489   1.798   3.250  1.0888 -0.7254  1.0419
   40CHL1   C19 2926   4.412   1.930   3.223 -0.2606 -0.5154 -0.2200
   40CHL1  H19A 2927   4.479   2.017   3.239 -0.5291 -0.6195  1.7075
   40CHL1  H19B 2928   4.372   1.935   3.119 -2.9303 -1.3094  0.6746
   40CHL1  H19C 2929   4.327   1.935   3.295 -0.5073  0.9216 -0.5914
   40CHL1    C1 2930   4.633   1.799   3.190 -0.7555 -0.8472 -0.2352
   40CHL1   H1A 2931   4.684   1.886   3.238 -0.9080 -1.1560  0.4893
   40CHL1   H1B 2932   4.690   1.710   3.224 -0.6090 -0.1473  1.4137
   40CHL1    C2 2933   4.644   1.800   3.039 -0.4395  0.6119  0.4970
   40CHL1   H2A 2934   4.751   1.776   3.019 -0.4536 -0.6343  1.7857
   40CHL1   H2B 2935   4.612   1.896   2.994  0.0829  1.2328  1.4183
   40CHL1   C20 2936   4.410   1.833   3.953  0.2185 -0.6709  0.3241
   40CHL1   H20 2937   4.328   1.906   3.935 -0.5816 -1.8218 -0.8801
   40CHL1   C21 2938   4.543   1.902   3.963  0.0810  0.2038  0.2173
   40CHL1  H21A 2939   4.550   1.982   3.886  0.9200  1.5800  1.6808
   40CHL1  H21B 2940   4.623   1.826   3.955 -1.2259 -1.3718  1.3742
   40CHL1  H21C 2941   4.551   1.948   4.064  0.2968 -0.0335  0.3107
   40CHL1   C22 2942   4.377   1.758   4.083  0.2279  0.6343  0.1621
   40CHL1  H22A 2943   4.292   1.686   4.074  0.4082  0.6019 -1.5715
   40CHL1  H22B 2944   4.469   1.702   4.112 -1.5069 -2.3351  0.3824
   40CHL1   C23 2945   4.355   1.845   4.208  0.3651  0.2637  0.2009
   40CHL1  H23A 2946   4.375   1.953   4.191  1.4096  0.0592  0.0849
   40CHL1  H23B 2947   4.246   1.826   4.217  0.1888  0.1609 -1.7206
   40CHL1   C24 2948   4.423   1.788   4.334  0.2672  0.3935 -0.1713
   40CHL1  H24A 2949   4.419   1.677   4.328 -1.0232  0.4437 -0.8878
   40CHL1  H24B 2950   4.530   1.812   4.323  1.3225 -3.3213  0.5678
   40CHL1   C25 2951   4.374   1.844   4.471  0.0879  0.0513  0.3591
   40CHL1   H25 2952   4.265   1.826   4.477  0.4479 -2.1412  1.4868
   40CHL1   C26 2953   4.434   1.785   4.598 -0.6053 -0.4031  0.2482
   40CHL1  H26A 2954   4.369   1.804   4.687 -1.7854  0.7485 -0.8138
   40CHL1  H26B 2955   4.455   1.678   4.580 -1.2865 -0.5012  0.0207
   40CHL1  H26C 2956   4.536   1.828   4.611  0.9269 -3.0288 -2.0464
   40CHL1   C27 2957   4.397   1.992   4.469 -0.1722 -0.5067 -0.4951
   40CHL1  H27A 2958   4.338   2.044   4.391  1.3015  1.0001 -0.6811
   40CHL1  H27B 2959   4.383   2.046   4.566  3.8612  0.1945 -0.1211
   40CHL1  H27C 2960   4.499   2.017   4.432 -0.7080 -0.6426 -2.1080
   41CHL1    C3 2961   3.050   6.637   3.436  0.2766  0.0836  0.0573
   41CHL1    H3 2962   2.972   6.614   3.512  1.0071 -2.4056  0.1340
   41CHL1    O3 2963   3.048   6.548   3.326 -0.8486  0.0150  0.1578
   41CHL1   H3' 2964   3.096   6.600   3.261  0.5719  0.3756  1.4509
   41CHL1    C4 2965   3.039   6.784   3.384 -0.3055  0.7740 -0.9004
   41CHL1   H4A 2966   3.122   6.805   3.313 -1.7596 -1.2427 -3.3741
   41CHL1   H4B 2967   2.954   6.797   3.314 -1.0974  0.4909 -0.0172
   41CHL1    C5 2968   3.018   6.874   3.507  0.5169  0.1574  0.4420
   41CHL1    C6 2969   2.910   6.949   3.528 -0.1089 -0.6186 -0.0616
   41CHL1    H6 2970   2.833   6.971   3.452  0.7786  0.0100 -0.8077
   41CHL1    C7 2971   2.904   7.038   3.650  0.1662  0.2517 -0.3997
   41CHL1   H7A 2972   2.870   7.134   3.607 -0.8720 -0.3227 -0.9173
   41CHL1   H7B 2973   2.819   6.991   3.705 -0.8555  1.3865 -0.9462
   41CHL1    C8 2974   3.034   7.048   3.737  0.2544  0.5000 -0.3254
   41CHL1    H8 2975   3.109   7.106   3.678  0.6493 -1.1760 -1.5383
   41CHL1   C14 2976   3.002   7.109   3.872 -0.3760  0.1092  0.3549
   41CHL1   H14 2977   2.930   7.036   3.915  1.6864 -1.0601  2.0421
   41CHL1   C15 2978   2.932   7.250   3.883  0.1101 -0.3324  0.1912
   41CHL1  H15A 2979   2.992   7.315   3.816 -0.7253 -1.6235 -1.9223
   41CHL1  H15B 2980   2.827   7.254   3.846  0.5821  1.2411 -1.0761
   41CHL1   C16 2981   2.945   7.284   4.028 -0.9374  0.0996 -0.7000
   41CHL1  H16A 2982   2.985   7.387   4.032  2.2795 -0.9920 -1.7231
   41CHL1  H16B 2983   2.851   7.269   4.085  0.6620 -2.2793  1.5421
   41CHL1   C17 2984   3.053   7.180   4.095  0.2389 -0.6778  1.1668
   41CHL1   H17 2985   2.987   7.104   4.142  1.9430 -1.4806  2.3465
   41CHL1   C13 2986   3.125   7.113   3.966 -0.1901 -0.4309 -0.4633
   41CHL1   C18 2987   3.238   7.209   3.901  0.7891 -0.0042  0.4323
   41CHL1  H18A 2988   3.188   7.308   3.901 -2.1926 -1.3994  0.5667
   41CHL1  H18B 2989   3.322   7.214   3.974  1.7187  0.4328 -0.6453
   41CHL1  H18C 2990   3.265   7.182   3.797  1.0566  0.0662  0.4833
   41CHL1   C12 2991   3.157   6.964   3.990 -0.0943 -1.0332 -0.0345
   41CHL1  H12A 2992   3.244   6.959   4.060  0.5802  1.0089 -0.6555
   41CHL1  H12B 2993   3.073   6.907   4.035 -0.1342  0.4029  1.8304
   41CHL1   C11 2994   3.198   6.895   3.859  0.1001 -0.4039 -0.4536
   41CHL1  H11A 2995   3.293   6.939   3.822  0.0525 -0.4616 -0.6454
   41CHL1  H11B 2996   3.209   6.787   3.882  0.2008 -0.8206 -2.2935
   41CHL1    C9 2997   3.096   6.913   3.750 -0.6979  0.6707 -0.3041
   41CHL1    H9 2998   3.006   6.855   3.779 -0.5989  0.5259 -0.2889
   41CHL1   C10 2999   3.131   6.848   3.610  0.1935 -0.1000 -0.6031
   41CHL1   C19 3000   3.258   6.907   3.553 -0.0591  0.0007 -0.0706
   41CHL1  H19A 3001   3.349   6.887   3.613  0.6488  0.4405 -0.9791
   41CHL1  H19B 3002   3.279   6.863   3.453  2.0060  0.1334  0.2648
   41CHL1  H19C 3003   3.256   7.013   3.523 -0.2864 -0.8983 -3.6323
   41CHL1    C1 3004   3.150   6.698   3.644 -0.0955 -0.1325  0.6790
   41CHL1   H1A 3005   3.236   6.689   3.713  0.1852 -0.2374  0.3212
   41CHL1   H1B 3006   3.063   6.659   3.700 -1.0011  2.2196  1.0280
   41CHL1    C2 3007   3.181   6.623   3.513 -0.2040 -0.3151 -1.2040
   41CHL1   H2A 3008   3.207   6.516   3.529  2.7110  0.5997  1.0729
   41CHL1   H2B 3009   3.267   6.658   3.453  0.2242  0.9938  0.1210
   41CHL1   C20 3010   3.143   7.250   4.196 -0.1509  0.3748  0.5267
   41CHL1   H20 3011   3.198   7.333   4.146 -0.1224  0.3184  0.4645
   41CHL1   C21 3012   3.258   7.164   4.243 -0.7795  0.0134 -0.2224
   41CHL1  H21A 3013   3.314   7.221   4.320 -1.7098 -1.0733  1.3089
   41CHL1  H21B 3014   3.338   7.148   4.168  1.7077  1.3837  1.9680
   41CHL1  H21C 3015   3.216   7.069   4.282  2.0027 -1.5540 -0.7757
   41CHL1   C22 3016   3.068   7.320   4.308  0.7563  0.9238  0.2336
   41CHL1  H22A 3017   3.138   7.391   4.357  1.0813  1.5797 -1.1257
   41CHL1  H22B 3018   2.971   7.361   4.273  0.1093  0.1781  1.0992
   41CHL1   C23 3019   3.024   7.224   4.425  0.3877  0.1668  0.7822
   41CHL1  H23A 3020   2.928   7.173   4.400  0.5756  0.9653 -1.8262
   41CHL1  H23B 3021   3.105   7.155   4.458  0.8548 -0.6764 -1.8760
   41CHL1   C24 3022   2.972   7.306   4.550 -0.8190 -0.2450  0.3065
   41CHL1  H24A 3023   3.049   7.385   4.564 -1.2781  0.7414 -2.2013
   41CHL1  H24B 3024   2.874   7.349   4.519 -0.9094 -2.0786 -2.4251
   41CHL1   C25 3025   2.965   7.239   4.681 -0.3937  0.3008 -0.3518
   41CHL1   H25 3026   3.068   7.198   4.694 -0.3760  0.5020  0.1928
   41CHL1   C26 3027   2.955   7.337   4.801 -0.3130  0.5240  0.8882
   41CHL1  H26A 3028   2.958   7.288   4.901 -0.9276  1.1537  1.2279
   41CHL1  H26B 3029   3.023   7.425   4.803  0.1921  0.1406  0.6758
   41CHL1  H26C 3030   2.860   7.395   4.790 -0.5888  0.0735  0.8825
   41CHL1   C27 3031   2.865   7.124   4.694  0.3163  0.1809  0.2824
   41CHL1  H27A 3032   2.888   7.062   4.783  0.4969  0.0543  0.1470
   41CHL1  H27B 3033   2.760   7.159   4.705 -0.7910 -2.3725 -1.3395
   41CHL1  H27C 3034   2.866   7.056   4.606  1.9616  1.6995 -0.9439
   42CHL1    C3 3035   5.554   6.058   3.196  0.4389  0.0237 -0.1163
   42CHL1    H3 3036   5.524   6.159   3.231  2.3066  0.3758  0.5920
   42CHL1    O3 3037   5.588   6.067   3.059 -0.5337 -0.0368  0.4114
   42CHL1   H3' 3038   5.508   6.075   3.007 -1.3184 -0.5135  1.5296
   42CHL1    C4 3039   5.677   6.024   3.283 -0.3267  0.6794 -0.0350
   42CHL1   H4A 3040   5.729   5.933   3.246  1.1627  0.9136  1.3414
   42CHL1   H4B 3041   5.751   6.104   3.265  0.4496  0.0176  0.1528
   42CHL1    C5 3042   5.642   6.002   3.427 -0.0684  0.8006  0.0244
   42CHL1    C6 3043   5.704   6.074   3.520 -0.0015  1.4041 -0.3782
   42CHL1    H6 3044   5.773   6.148   3.478 -1.7304  2.6419 -1.1669
   42CHL1    C7 3045   5.676   6.065   3.665 -0.5224 -0.5219  0.3904
   42CHL1   H7A 3046   5.777   6.066   3.713 -0.6444  1.0677  0.6660
   42CHL1   H7B 3047   5.621   6.153   3.705 -0.2016  0.6774 -1.6860
   42CHL1    C8 3048   5.593   5.941   3.699 -0.5368 -0.1739 -0.8997
   42CHL1    H8 3049   5.669   5.861   3.705  1.7349  1.8999 -0.1053
   42CHL1   C14 3050   5.530   5.954   3.841  0.1630  0.0889  0.2165
   42CHL1   H14 3051   5.456   6.037   3.839  0.3236  0.2608  1.1178
   42CHL1   C15 3052   5.629   6.004   3.946  0.0232 -0.0784 -0.7460
   42CHL1  H15A 3053   5.734   5.969   3.945  0.5220  1.3650 -1.5912
   42CHL1  H15B 3054   5.635   6.114   3.936  0.4433 -0.1724 -1.6376
   42CHL1   C16 3055   5.564   5.960   4.078  0.2630 -0.2815  0.4227
   42CHL1  H16A 3056   5.640   5.893   4.125 -0.5200 -0.7467  1.0538
   42CHL1  H16B 3057   5.534   6.053   4.131 -2.2145  0.0850 -1.4714
   42CHL1   C17 3058   5.437   5.879   4.036  0.2851  0.1379  0.0940
   42CHL1   H17 3059   5.362   5.960   4.019  1.0975  0.9187  0.1735
   42CHL1   C13 3060   5.471   5.825   3.892 -0.1029 -0.4978  0.3755
   42CHL1   C18 3061   5.573   5.706   3.886  0.4350  0.4062 -0.5585
   42CHL1  H18A 3062   5.652   5.729   3.961  0.5200 -2.3798  0.3291
   42CHL1  H18B 3063   5.517   5.617   3.922  2.4988 -0.5105  0.5581
   42CHL1  H18C 3064   5.617   5.689   3.785  0.4720 -0.5396 -0.3992
   42CHL1   C12 3065   5.349   5.799   3.801 -0.3905  0.3829 -0.7187
   42CHL1  H12A 3066   5.302   5.699   3.812 -0.5650  0.4118 -1.1765
   42CHL1  H12B 3067   5.271   5.876   3.818 -1.4939 -0.0426 -3.4469
   42CHL1   C11 3068   5.387   5.793   3.652 -0.7255 -0.1180  0.0648
   42CHL1  H11A 3069   5.455   5.707   3.640  1.7600  1.6666  0.5089
   42CHL1  H11B 3070   5.302   5.777   3.583 -1.0017 -1.5548  0.7033
   42CHL1    C9 3071   5.476   5.905   3.599 -1.0273 -0.7588 -0.2809
   42CHL1    H9 3072   5.407   5.992   3.601 -0.2196 -0.1077 -0.2202
   42CHL1   C10 3073   5.526   5.898   3.452  0.0819 -0.5457  0.3744
   42CHL1   C19 3074   5.571   5.751   3.428  0.2658 -0.2020  0.4938
   42CHL1  H19A 3075   5.653   5.713   3.493  2.3514  0.5339 -1.5325
   42CHL1  H19B 3076   5.490   5.676   3.437  0.1317  0.0003  1.0118
   42CHL1  H19C 3077   5.622   5.749   3.329  1.5088 -0.7644  1.1120
   42CHL1    C1 3078   5.410   5.923   3.357  0.9147  0.6279 -0.2893
   42CHL1   H1A 3079   5.344   5.834   3.364 -1.0744  2.1343  0.9380
   42CHL1   H1B 3080   5.332   5.995   3.390  1.5668  1.1840  0.0770
   42CHL1    C2 3081   5.442   5.951   3.211  0.4956 -0.6506 -0.3409
   42CHL1   H2A 3082   5.346   5.972   3.161  0.6793 -0.9426 -0.8175
   42CHL1   H2B 3083   5.487   5.856   3.176  1.0905 -1.4127  2.2898
   42CHL1   C20 3084   5.394   5.780   4.148  0.1402 -0.6475  0.0194
   42CHL1   H20 3085   5.483   5.714   4.160  2.4134  2.1900 -0.1225
   42CHL1   C21 3086   5.265   5.712   4.106 -0.5169 -0.0114 -0.2296
   42CHL1  H21A 3087   5.200   5.780   4.046  2.9042  1.3816 -2.6641
   42CHL1  H21B 3088   5.202   5.678   4.191 -0.3893  0.8828  0.2225
   42CHL1  H21C 3089   5.286   5.617   4.052 -1.8121 -0.4381 -0.0236
   42CHL1   C22 3090   5.377   5.849   4.288  0.6244  0.4354  0.6878
   42CHL1  H22A 3091   5.473   5.904   4.299  1.6389 -1.2638  0.6257
   42CHL1  H22B 3092   5.293   5.921   4.280 -0.6066 -0.8241  1.7487
   42CHL1   C23 3093   5.371   5.750   4.406  0.1334 -0.0001  0.1760
   42CHL1  H23A 3094   5.305   5.663   4.386 -1.7126  1.7727 -2.1477
   42CHL1  H23B 3095   5.473   5.708   4.418  0.3010  0.4684  0.4357
   42CHL1   C24 3096   5.333   5.807   4.534  0.3895 -0.4526 -0.3101
   42CHL1  H24A 3097   5.393   5.900   4.539 -1.4417  0.7804 -0.4886
   42CHL1  H24B 3098   5.226   5.833   4.526  0.3539  0.3629  1.9655
   42CHL1   C25 3099   5.360   5.717   4.663 -0.6437  0.0509  0.2716
   42CHL1   H25 3100   5.471   5.716   4.656 -0.4528  2.7148  1.7470
   42CHL1   C26 3101   5.307   5.787   4.789 -0.3459  0.3206 -0.0029
   42CHL1  H26A 3102   5.368   5.878   4.807 -0.5967  0.7499 -1.2317
   42CHL1  H26B 3103   5.199   5.810   4.781  0.1555  2.3358 -2.3178
   42CHL1  H26C 3104   5.330   5.731   4.882  1.7777  0.9500 -0.0914
   42CHL1   C27 3105   5.288   5.582   4.659  0.3453  0.2995  0.0626
   42CHL1  H27A 3106   5.290   5.537   4.761 -0.8722 -0.3739 -0.1965
   42CHL1  H27B 3107   5.179   5.598   4.645  0.3853  0.4605 -0.0643
   42CHL1  H27C 3108   5.324   5.508   4.584  0.2550 -0.0599  0.3713
   43CHL1    C3 3109   0.751   0.295   3.529  0.4475  0.0375 -0.2853
   43CHL1    H3 3110   0.769   0.376   3.603  0.0572 -1.0885  1.0936
   43CHL1    O3 3111   0.798   0.324   3.401 -0.0273 -0.1958 -0.0069
   43CHL1   H3' 3112   0.762   0.250   3.351  0.7092 -1.2812  1.0184
   43CHL1    C4 3113   0.817   0.166   3.561  0.7189 -0.5781  0.3331
   43CHL1   H4A 3114   0.787   0.087   3.490  0.3114 -1.3399  1.3270
   43CHL1   H4B 3115   0.927   0.172   3.552  0.9185 -2.2640  1.1989
   43CHL1    C5 3116   0.772   0.116   3.696 -0.6235 -0.4251  0.3355
   43CHL1    C6 3117   0.859   0.094   3.802  0.6756 -0.1297 -0.9098
   43CHL1    H6 3118   0.966   0.115   3.790  0.7790 -0.4277 -0.5538
   43CHL1    C7 3119   0.805   0.031   3.932  0.0520  0.6916  0.3774
   43CHL1   H7A 3120   0.873  -0.049   3.968 -1.0816 -0.6497 -0.3463
   43CHL1   H7B 3121   0.803   0.111   4.009  2.4851  0.1580  1.0838
   43CHL1    C8 3122   0.670  -0.035   3.925  0.1747 -0.0641 -0.7625
   43CHL1    H8 3123   0.670  -0.132   3.870 -0.9116 -1.7221  1.9355
   43CHL1   C14 3124   0.611  -0.062   4.068 -0.0229 -0.0679  0.0327
   43CHL1   H14 3125   0.594   0.034   4.122 -0.4111 -1.6754  2.9675
   43CHL1   C15 3126   0.699  -0.152   4.163  0.5394 -0.0542  0.0473
   43CHL1  H15A 3127   0.728  -0.245   4.109  2.1478  0.7742 -0.5550
   43CHL1  H15B 3128   0.791  -0.102   4.199  1.5857 -1.9288  0.1038
   43CHL1   C16 3129   0.599  -0.188   4.281 -0.1739  0.4522  0.1196
   43CHL1  H16A 3130   0.591  -0.299   4.289  1.4242  0.3183  0.2369
   43CHL1  H16B 3131   0.629  -0.148   4.380  2.4461 -1.2342  0.1187
   43CHL1   C17 3132   0.460  -0.131   4.236 -0.5378  1.1674  0.4954
   43CHL1   H17 3133   0.456  -0.031   4.284  1.4526  0.8628  1.3977
   43CHL1   C13 3134   0.472  -0.117   4.079  0.3450  0.3695 -0.0842
   43CHL1   C18 3135   0.474  -0.254   4.016 -0.3907 -0.6476 -0.7904
   43CHL1  H18A 3136   0.510  -0.248   3.911  3.0204  0.2861  0.2782
   43CHL1  H18B 3137   0.544  -0.322   4.069  1.4271  0.7788 -1.2598
   43CHL1  H18C 3138   0.375  -0.304   4.022  0.3749 -2.0337  1.4710
   43CHL1   C12 3139   0.377  -0.019   4.002 -0.0473 -0.0887  0.6896
   43CHL1  H12A 3140   0.273  -0.060   4.005 -0.8626  1.6512 -1.4048
   43CHL1  H12B 3141   0.371   0.075   4.060  0.4973  0.7394 -0.5588
   43CHL1   C11 3142   0.427   0.011   3.863  0.0776 -0.5114  0.2937
   43CHL1  H11A 3143   0.401  -0.083   3.808 -2.9742 -0.4689  1.5322
   43CHL1  H11B 3144   0.357   0.086   3.821  0.7726 -0.4553 -0.8438
   43CHL1    C9 3145   0.569   0.061   3.850 -0.8899  0.0732  0.3361
   43CHL1    H9 3146   0.575   0.160   3.899  0.7667  1.3210 -2.1999
   43CHL1   C10 3147   0.616   0.087   3.704 -0.4290 -0.0897 -0.3316
   43CHL1   C19 3148   0.580  -0.030   3.606 -0.2885 -0.6122 -0.6143
   43CHL1  H19A 3149   0.606   0.006   3.504  0.6785  2.7793  0.6726
   43CHL1  H19B 3150   0.648  -0.113   3.633  1.9860  1.4481  0.3531
   43CHL1  H19C 3151   0.471  -0.051   3.604 -0.8439  1.7198  0.7829
   43CHL1    C1 3152   0.539   0.216   3.652  0.0185 -0.9283  0.0001
   43CHL1   H1A 3153   0.431   0.190   3.645  0.3877 -2.2562 -1.1810
   43CHL1   H1B 3154   0.566   0.292   3.729  0.7514 -0.0130 -1.1127
   43CHL1    C2 3155   0.601   0.272   3.515 -0.6540 -0.3210  0.0809
   43CHL1   H2A 3156   0.552   0.369   3.492 -1.0410 -0.3515  0.7537
   43CHL1   H2B 3157   0.598   0.200   3.430  3.3018  0.8019 -1.2435
   43CHL1   C20 3158   0.343  -0.203   4.301  0.7510  0.0503 -0.4545
   43CHL1   H20 3159   0.340  -0.304   4.255  1.5628 -0.9536  1.5752
   43CHL1   C21 3160   0.215  -0.135   4.269  0.5863  0.0634  0.0503
   43CHL1  H21A 3161   0.129  -0.180   4.324  0.9106  1.0713  1.4461
   43CHL1  H21B 3162   0.188  -0.156   4.163  0.6948 -1.3275  0.2710
   43CHL1  H21C 3163   0.220  -0.027   4.294 -1.3384  0.0691  0.5946
   43CHL1   C22 3164   0.353  -0.224   4.459  0.4615 -0.4270  0.3823
   43CHL1  H22A 3165   0.448  -0.270   4.491  0.4054  1.2092  3.2338
   43CHL1  H22B 3166   0.361  -0.122   4.502  0.0916  0.7648 -2.1525
   43CHL1   C23 3167   0.247  -0.317   4.519 -0.5791 -0.0726 -0.2813
   43CHL1  H23A 3168   0.145  -0.273   4.514 -1.2219 -1.5590 -0.9861
   43CHL1  H23B 3169   0.253  -0.419   4.474  1.4743 -1.4051  2.7061
   43CHL1   C24 3170   0.282  -0.344   4.665  0.1387 -0.2798 -0.0356
   43CHL1  H24A 3171   0.228  -0.435   4.698  0.8361 -1.7236 -2.5608
   43CHL1  H24B 3172   0.384  -0.389   4.667 -0.6837 -2.4004 -1.8828
   43CHL1   C25 3173   0.250  -0.230   4.765 -0.8753 -0.4605  0.1053
   43CHL1   H25 3174   0.322  -0.148   4.745 -2.3214  1.0552  0.8888
   43CHL1   C26 3175   0.117  -0.166   4.741 -0.0263  0.5196  0.4328
   43CHL1  H26A 3176   0.107  -0.108   4.647 -1.9918 -0.6057 -0.1061
   43CHL1  H26B 3177   0.038  -0.244   4.746  1.0997 -0.5862  1.5058
   43CHL1  H26C 3178   0.086  -0.088   4.813 -2.8924 -0.5934  0.5465
   43CHL1   C27 3179   0.281  -0.268   4.914  0.1295  0.9314 -0.3492
   43CHL1  H27A 3180   0.386  -0.298   4.934 -0.5516  0.2244  2.5068
   43CHL1  H27B 3181   0.262  -0.185   4.986  3.8974  0.2536  1.6365
   43CHL1  H27C 3182   0.227  -0.359   4.945  3.0017  0.1920  3.0262
   44CHL1    C3 3183   3.791   0.890   3.400 -0.3036 -0.3835 -0.8052
   44CHL1    H3 3184   3.851   0.983   3.412 -0.0625 -0.6663  0.2748
   44CHL1    O3 3185   3.741   0.882   3.270  0.1949 -0.3359  0.8854
   44CHL1   H3' 3186   3.671   0.816   3.266 -0.9217  0.8371  0.5634
   44CHL1    C4 3187   3.891   0.779   3.431  0.5187 -0.3859 -0.7220
   44CHL1   H4A 3188   3.855   0.676   3.413  0.6285 -0.1849 -2.2186
   44CHL1   H4B 3189   3.970   0.777   3.353  0.2520 -3.1226 -0.9859
   44CHL1    C5 3190   3.944   0.795   3.581  0.1835 -0.0089  0.7863
   44CHL1    C6 3191   4.075   0.811   3.602  0.2373 -0.2361  0.8406
   44CHL1    H6 3192   4.143   0.811   3.515 -2.7373  1.6032 -1.7028
   44CHL1    C7 3193   4.133   0.834   3.736 -0.1701  0.7464  0.7470
   44CHL1   H7A 3194   4.219   0.765   3.751  0.9849  1.8561 -0.5592
   44CHL1   H7B 3195   4.170   0.938   3.744  1.5444  0.2025  0.1541
   44CHL1    C8 3196   4.033   0.808   3.853  0.7042 -0.1350  0.7216
   44CHL1    H8 3197   4.028   0.697   3.858  0.7550 -0.1836 -0.1234
   44CHL1   C14 3198   4.073   0.881   3.977  0.0833  0.2588 -0.2329
   44CHL1   H14 3199   4.042   0.986   3.957 -2.1814 -0.4086 -0.4180
   44CHL1   C15 3200   4.214   0.873   4.025 -0.0164 -0.1216 -0.0008
   44CHL1  H15A 3201   4.271   0.778   4.012 -1.2451 -1.5875  3.8002
   44CHL1  H15B 3202   4.276   0.950   3.975 -0.8474  1.4040  1.2463
   44CHL1   C16 3203   4.219   0.905   4.175 -0.0567 -0.1577  0.6248
   44CHL1  H16A 3204   4.256   0.817   4.232  0.5550 -1.3012 -1.4284
   44CHL1  H16B 3205   4.278   0.994   4.203  1.1126 -1.0370  1.0184
   44CHL1   C17 3206   4.075   0.930   4.207 -0.9007 -0.6329  0.1520
   44CHL1   H17 3207   4.064   1.039   4.187  0.2667 -0.5415 -0.0316
   44CHL1   C13 3208   3.998   0.846   4.106  0.3967  0.3460  0.8588
   44CHL1   C18 3209   4.008   0.696   4.133  0.0485 -1.3310  0.0785
   44CHL1  H18A 3210   3.962   0.664   4.229 -0.9331 -0.9243 -0.2415
   44CHL1  H18B 3211   3.964   0.642   4.046 -0.9980  2.1719 -1.7626
   44CHL1  H18C 3212   4.114   0.662   4.131 -0.0475 -1.6307 -2.1850
   44CHL1   C12 3213   3.840   0.867   4.089 -0.1491  0.0501  0.3256
   44CHL1  H12A 3214   3.785   0.811   4.167 -0.4841 -0.9500 -0.6113
   44CHL1  H12B 3215   3.832   0.978   4.098 -2.0204  0.0856 -1.1013
   44CHL1   C11 3216   3.791   0.827   3.949  0.0798  0.5691 -0.7372
   44CHL1  H11A 3217   3.775   0.717   3.955 -2.2878  0.9543  2.5075
   44CHL1  H11B 3218   3.696   0.880   3.926 -0.3666 -0.2442 -0.8011
   44CHL1    C9 3219   3.888   0.858   3.822  0.3353  0.0892  0.6573
   44CHL1    H9 3220   3.891   0.968   3.815 -1.4514  0.1177 -0.3122
   44CHL1   C10 3221   3.832   0.808   3.690 -0.5880 -0.1000  0.6547
   44CHL1   C19 3222   3.775   0.666   3.702  0.9601  0.8283  0.1328
   44CHL1  H19A 3223   3.682   0.660   3.763  1.9064  2.0254  1.7782
   44CHL1  H19B 3224   3.752   0.618   3.605 -0.7598  0.2027  0.8084
   44CHL1  H19C 3225   3.851   0.605   3.755  0.3032  0.4536  0.6668
   44CHL1    C1 3226   3.719   0.910   3.646 -0.2645 -0.2095  0.0061
   44CHL1   H1A 3227   3.633   0.906   3.715 -0.8782 -0.5636 -0.7624
   44CHL1   H1B 3228   3.771   1.007   3.659 -0.6728  0.2432 -1.5270
   44CHL1    C2 3229   3.673   0.901   3.501 -0.1849 -0.0407  0.3756
   44CHL1   H2A 3230   3.600   0.978   3.469  2.0141  1.6832 -0.7694
   44CHL1   H2B 3231   3.619   0.809   3.472  0.6025 -0.5511  0.4877
   44CHL1   C20 3232   4.044   0.913   4.361 -0.2854 -0.0573 -0.1220
   44CHL1   H20 3233   4.064   0.807   4.387  1.1295  0.0277 -0.8004
   44CHL1   C21 3234   3.897   0.954   4.394 -1.1602 -0.0943  0.2313
   44CHL1  H21A 3235   3.826   0.902   4.327  0.4606 -0.3640 -1.3717
   44CHL1  H21B 3236   3.890   1.064   4.376 -1.6694  0.2860  2.4346
   44CHL1  H21C 3237   3.875   0.945   4.503  2.0762  1.3625  1.1542
   44CHL1   C22 3238   4.139   0.992   4.457  0.4043  0.4727 -0.5788
   44CHL1  H22A 3239   4.243   0.988   4.417  0.8401 -3.0786  0.5489
   44CHL1  H22B 3240   4.111   1.100   4.460  3.5771  1.3879  1.4293
   44CHL1   C23 3241   4.154   0.942   4.606  0.4860 -0.1435  0.2792
   44CHL1  H23A 3242   4.060   0.957   4.663  0.3361  1.6233 -0.3916
   44CHL1  H23B 3243   4.179   0.834   4.617  2.1989  0.3500  1.6852
   44CHL1   C24 3244   4.252   1.027   4.691  0.3869 -0.1222 -0.1685
   44CHL1  H24A 3245   4.351   1.040   4.641 -0.8343  2.1422 -2.2713
   44CHL1  H24B 3246   4.218   1.133   4.698  2.0035  0.3595  0.9966
   44CHL1   C25 3247   4.274   0.971   4.834  0.2416  0.2526  0.8995
   44CHL1   H25 3248   4.170   0.953   4.868  0.6203  1.6631  2.9712
   44CHL1   C26 3249   4.349   0.841   4.836  0.6187  0.5241  0.3952
   44CHL1  H26A 3250   4.328   0.764   4.758  3.0290 -1.4770  1.5584
   44CHL1  H26B 3251   4.458   0.859   4.849  0.2090  1.7017  2.7162
   44CHL1  H26C 3252   4.329   0.782   4.929  2.1361 -1.7770 -0.6507
   44CHL1   C27 3253   4.342   1.079   4.923 -0.4408 -0.7035 -0.0563
   44CHL1  H27A 3254   4.331   1.048   5.029 -2.7546  0.7026  0.1882
   44CHL1  H27B 3255   4.448   1.091   4.890 -0.2625  1.9166  1.1967
   44CHL1  H27C 3256   4.296   1.179   4.906  1.5001  0.6292  1.9207
   45CHL1    C3 3257   3.433   5.756   3.308 -0.1988  0.2389 -0.1260
   45CHL1    H3 3258   3.526   5.815   3.321 -0.3942  0.8299 -1.3422
   45CHL1    O3 3259   3.394   5.724   3.175 -0.0148 -0.2099  0.2423
   45CHL1   H3' 3260   3.471   5.741   3.119  0.5127  1.7823  1.4807
   45CHL1    C4 3261   3.457   5.617   3.379  0.7019  0.0907 -0.5023
   45CHL1   H4A 3262   3.371   5.550   3.358 -0.5726  1.2344  0.8490
   45CHL1   H4B 3263   3.537   5.554   3.334 -0.0658  0.1060 -1.9448
   45CHL1    C5 3264   3.473   5.635   3.531 -0.2897 -0.1786  0.0597
   45CHL1    C6 3265   3.584   5.585   3.593  0.6821  0.0029  0.6600
   45CHL1    H6 3266   3.669   5.554   3.530 -0.5866 -0.7118 -0.7804
   45CHL1    C7 3267   3.601   5.591   3.739 -0.0656 -0.0211  0.1954
   45CHL1   H7A 3268   3.667   5.509   3.775  2.7710  1.2210 -1.7775
   45CHL1   H7B 3269   3.661   5.681   3.763 -1.6075  0.3996  2.9021
   45CHL1    C8 3270   3.468   5.606   3.812  0.1929 -0.2386 -0.3804
   45CHL1    H8 3271   3.418   5.508   3.796  1.6435 -1.1531  0.5604
   45CHL1   C14 3272   3.490   5.630   3.966 -0.0569 -0.4632  0.0646
   45CHL1   H14 3273   3.542   5.728   3.960 -1.6892  0.3996 -0.7829
   45CHL1   C15 3274   3.592   5.539   4.040 -0.0598 -0.1694  0.1386
   45CHL1  H15A 3275   3.575   5.433   4.009 -0.1552 -0.6125  1.6268
   45CHL1  H15B 3276   3.694   5.573   4.014  0.9335 -0.8303  2.8740
   45CHL1   C16 3277   3.548   5.556   4.187  0.3487  0.0624 -0.3565
   45CHL1  H16A 3278   3.533   5.458   4.237  1.6644  0.0117 -0.0055
   45CHL1  H16B 3279   3.633   5.601   4.244  1.4942 -2.6097  0.1916
   45CHL1   C17 3280   3.420   5.648   4.188 -0.1813  0.3441 -0.0349
   45CHL1   H17 3281   3.457   5.752   4.200 -1.9832  0.7174  3.5307
   45CHL1   C13 3282   3.365   5.651   4.049  0.3456  0.2971  0.5986
   45CHL1   C18 3283   3.277   5.524   4.043 -0.0271  1.0468  0.5990
   45CHL1  H18A 3284   3.185   5.552   4.099 -1.3769  0.2508 -1.0893
   45CHL1  H18B 3285   3.236   5.500   3.942 -1.5439  0.1817  1.3848
   45CHL1  H18C 3286   3.320   5.427   4.076 -0.8440  0.0845 -1.0047
   45CHL1   C12 3287   3.293   5.774   3.996  0.1174 -0.0605 -0.2008
   45CHL1  H12A 3288   3.206   5.807   4.056  0.9631  2.8141 -0.4238
   45CHL1  H12B 3289   3.362   5.861   3.994 -0.8196  0.7063 -2.6474
   45CHL1   C11 3290   3.259   5.760   3.838  0.1157  0.0045 -0.5049
   45CHL1  H11A 3291   3.175   5.688   3.847  0.9447 -0.8259  1.1269
   45CHL1  H11B 3292   3.220   5.859   3.807  1.4536  0.9383  0.6421
   45CHL1    C9 3293   3.379   5.721   3.753 -0.2753 -0.2217 -1.1472
   45CHL1    H9 3294   3.448   5.808   3.750 -0.8409  0.3506  0.9544
   45CHL1   C10 3295   3.350   5.704   3.601 -0.0576 -0.2786 -0.3159
   45CHL1   C19 3296   3.233   5.614   3.580  0.2256  0.1038 -0.6821
   45CHL1  H19A 3297   3.250   5.508   3.610 -0.8230 -0.5064 -2.1263
   45CHL1  H19B 3298   3.144   5.637   3.642 -0.0098 -0.3648 -0.8372
   45CHL1  H19C 3299   3.220   5.599   3.471  2.9094 -0.6397 -0.9663
   45CHL1    C1 3300   3.327   5.834   3.529  0.7171  0.4126 -0.1699
   45CHL1   H1A 3301   3.232   5.869   3.573  1.1348  0.2035  0.9332
   45CHL1   H1B 3302   3.402   5.910   3.560  0.7367 -0.2756  1.5820
   45CHL1    C2 3303   3.314   5.830   3.377 -0.6181 -0.9105  0.3426
   45CHL1   H2A 3304   3.314   5.936   3.341 -0.7807 -0.4024  1.7660
   45CHL1   H2B 3305   3.214   5.795   3.342 -0.4480 -1.1788  0.1157
   45CHL1   C20 3306   3.334   5.626   4.315 -0.2577 -0.0900 -0.1141
   45CHL1   H20 3307   3.281   5.529   4.317  0.7293 -0.6663  2.1854
   45CHL1   C21 3308   3.237   5.749   4.317 -0.3481 -0.5236  0.0373
   45CHL1  H21A 3309   3.178   5.743   4.411 -0.2952  0.9432  0.1805
   45CHL1  H21B 3310   3.173   5.748   4.227  2.5962  0.3052 -2.2312
   45CHL1  H21C 3311   3.287   5.848   4.328 -1.9407  0.6363 -2.3377
   45CHL1   C22 3312   3.429   5.634   4.440  0.3515  0.7457 -0.4318
   45CHL1  H22A 3313   3.474   5.533   4.446  0.9760  1.0429 -0.0486
   45CHL1  H22B 3314   3.514   5.704   4.432  0.1316  1.3271  1.6060
   45CHL1   C23 3315   3.365   5.672   4.579  0.5998  0.4703  0.2636
   45CHL1  H23A 3316   3.338   5.779   4.572 -0.8161  0.0726 -0.7660
   45CHL1  H23B 3317   3.264   5.627   4.581  0.8360 -0.2738 -1.7725
   45CHL1   C24 3318   3.454   5.641   4.696 -0.0226  0.0308 -0.5955
   45CHL1  H24A 3319   3.478   5.533   4.693  1.8450  0.4051 -0.7612
   45CHL1  H24B 3320   3.555   5.686   4.684  0.0831 -0.6484 -2.5946
   45CHL1   C25 3321   3.407   5.668   4.834  0.4769 -0.8042 -0.0727
   45CHL1   H25 3322   3.368   5.772   4.835  2.4240  0.0017  2.0110
   45CHL1   C26 3323   3.287   5.579   4.875  0.4334 -0.4155 -0.1822
   45CHL1  H26A 3324   3.308   5.470   4.884 -0.7249 -0.6706 -0.3275
   45CHL1  H26B 3325   3.243   5.621   4.968  1.5501  1.9058 -0.6249
   45CHL1  H26C 3326   3.211   5.585   4.794  0.4462 -1.8161 -0.3174
   45CHL1   C27 3327   3.521   5.663   4.934 -0.5730  0.4448  0.3279
   45CHL1  H27A 3328   3.601   5.732   4.902  0.2930 -1.0341 -0.7904
   45CHL1  H27B 3329   3.495   5.697   5.037  2.8696  2.7001  0.6279
   45CHL1  H27C 3330   3.566   5.562   4.947 -2.1535 -0.2219  0.9437
   46CHL1    C3 3331   2.825   2.552   3.579  0.1424  0.5112  0.4637
   46CHL1    H3 3332   2.866   2.650   3.612 -1.5244  1.6840 -0.7360
   46CHL1    O3 3333   2.876   2.531   3.454  0.0007  0.6441 -0.8381
   46CHL1   H3' 3334   2.816   2.477   3.402  0.0972  0.2211 -0.5121
   46CHL1    C4 3335   2.860   2.436   3.662 -0.0169 -0.6218 -0.0332
   46CHL1   H4A 3336   2.836   2.343   3.606  0.0726  0.2758 -1.6298
   46CHL1   H4B 3337   2.971   2.441   3.662 -0.0825  1.9059 -0.4125
   46CHL1    C5 3338   2.797   2.446   3.798 -0.1222 -0.1502 -0.6945
   46CHL1    C6 3339   2.866   2.459   3.914  0.1146 -0.0117  0.0954
   46CHL1    H6 3340   2.975   2.453   3.925  0.2856 -0.7017 -1.6585
   46CHL1    C7 3341   2.805   2.476   4.046  0.7262  0.6628 -0.5774
   46CHL1   H7A 3342   2.867   2.411   4.110  0.5754 -0.0695 -1.1587
   46CHL1   H7B 3343   2.822   2.575   4.094 -0.2894 -0.3784  2.1646
   46CHL1    C8 3344   2.656   2.420   4.052  0.0815 -0.0015  0.3728
   46CHL1    H8 3345   2.661   2.309   4.049  0.0165 -0.0237  0.9742
   46CHL1   C14 3346   2.597   2.456   4.177  0.2460 -0.3581  0.7500
   46CHL1   H14 3347   2.593   2.567   4.180 -0.4638 -0.3331 -0.3783
   46CHL1   C15 3348   2.672   2.417   4.304 -0.0269 -0.5057  0.2075
   46CHL1  H15A 3349   2.707   2.313   4.287  2.1850  0.4423 -1.7356
   46CHL1  H15B 3350   2.765   2.473   4.330 -0.7386  1.1008 -0.5515
   46CHL1   C16 3351   2.554   2.420   4.409  0.0079 -0.0222 -0.3255
   46CHL1  H16A 3352   2.551   2.325   4.468 -2.4446  0.2581  0.0921
   46CHL1  H16B 3353   2.584   2.500   4.479  1.5460 -0.8423  0.0030
   46CHL1   C17 3354   2.426   2.451   4.338  0.4530 -0.2349 -0.2985
   46CHL1   H17 3355   2.410   2.560   4.327 -2.5526 -0.7435 -2.4308
   46CHL1   C13 3356   2.449   2.411   4.194  0.0567  0.2201  0.2615
   46CHL1   C18 3357   2.429   2.257   4.187  0.3703  0.8804 -0.9224
   46CHL1  H18A 3358   2.320   2.238   4.195  0.1585  1.3693 -2.3129
   46CHL1  H18B 3359   2.475   2.211   4.097  0.3971  0.8176 -0.8762
   46CHL1  H18C 3360   2.477   2.202   4.270 -1.9760 -0.4756 -0.3569
   46CHL1   C12 3361   2.368   2.487   4.088  0.5743  0.6049 -0.2492
   46CHL1  H12A 3362   2.259   2.463   4.085  0.7910 -0.3346 -1.4570
   46CHL1  H12B 3363   2.375   2.597   4.101 -1.8694  0.8858 -0.7462
   46CHL1   C11 3364   2.425   2.471   3.944  0.1589 -0.2643  0.2045
   46CHL1  H11A 3365   2.393   2.369   3.910  0.6006 -0.7872  1.3091
   46CHL1  H11B 3366   2.381   2.548   3.877  0.5660  0.5060  0.8079
   46CHL1    C9 3367   2.574   2.483   3.941  0.6157  0.5026  0.0376
   46CHL1    H9 3368   2.596   2.590   3.958 -2.8647  1.2109  1.0212
   46CHL1   C10 3369   2.641   2.454   3.803 -0.4463  0.3714  0.4887
   46CHL1   C19 3370   2.582   2.318   3.751  0.3523 -0.0524 -0.1602
   46CHL1  H19A 3371   2.472   2.318   3.736  0.2388  0.7202  0.5901
   46CHL1  H19B 3372   2.629   2.300   3.652 -0.3994 -2.6788 -0.1037
   46CHL1  H19C 3373   2.606   2.234   3.819  0.0131  0.7009  0.9080
   46CHL1    C1 3374   2.602   2.568   3.708 -0.1290 -0.0698  0.5784
   46CHL1   H1A 3375   2.492   2.578   3.699  0.0020  0.5024 -0.6408
   46CHL1   H1B 3376   2.624   2.660   3.765  3.1696 -0.9462  0.9395
   46CHL1    C2 3377   2.672   2.564   3.569  0.6923 -0.2918 -0.7306
   46CHL1   H2A 3378   2.640   2.661   3.525 -0.5992 -0.1477  0.4635
   46CHL1   H2B 3379   2.633   2.479   3.508 -0.9667  1.5321 -2.3518
   46CHL1   C20 3380   2.305   2.401   4.423 -0.7013  0.2397 -0.2372
   46CHL1   H20 3381   2.318   2.291   4.421  0.4775  0.3739 -0.9610
   46CHL1   C21 3382   2.163   2.433   4.364 -0.0504  0.5005  0.7770
   46CHL1  H21A 3383   2.084   2.381   4.424  1.0166 -2.3405 -0.1029
   46CHL1  H21B 3384   2.155   2.388   4.263 -1.1405 -2.7419  2.1615
   46CHL1  H21C 3385   2.139   2.540   4.346 -0.1901 -0.0606 -3.3801
   46CHL1   C22 3386   2.296   2.445   4.576 -0.1680 -0.1844  0.3479
   46CHL1  H22A 3387   2.229   2.371   4.625 -1.2778 -0.5394 -1.5944
   46CHL1  H22B 3388   2.396   2.443   4.624  0.5229  1.5242 -0.9168
   46CHL1   C23 3389   2.235   2.580   4.611  0.4450  0.3400 -0.4621
   46CHL1  H23A 3390   2.282   2.671   4.566  3.2169 -1.7298 -2.1163
   46CHL1  H23B 3391   2.131   2.577   4.574  0.3648 -0.4302 -0.1806
   46CHL1   C24 3392   2.226   2.596   4.763 -0.1196  1.0118  0.1664
   46CHL1  H24A 3393   2.203   2.496   4.806 -0.6807  1.8104  1.8141
   46CHL1  H24B 3394   2.317   2.625   4.820 -1.3904 -0.9038  3.4370
   46CHL1   C25 3395   2.115   2.698   4.806  0.0669  0.5082 -0.1380
   46CHL1   H25 3396   2.020   2.659   4.765 -0.3030 -2.1823  2.9167
   46CHL1   C26 3397   2.085   2.670   4.957  0.3702 -0.4263 -0.0840
   46CHL1  H26A 3398   2.000   2.735   4.987  0.3171 -0.2009 -0.7026
   46CHL1  H26B 3399   2.060   2.563   4.971 -0.3763  0.0148  2.4226
   46CHL1  H26C 3400   2.169   2.693   5.025 -2.1690 -0.6040  3.3538
   46CHL1   C27 3401   2.149   2.848   4.781  0.0671  0.4114  0.4271
   46CHL1  H27A 3402   2.240   2.875   4.839 -0.5072  2.1173  0.5943
   46CHL1  H27B 3403   2.172   2.864   4.674 -2.2495  0.0020 -0.1975
   46CHL1  H27C 3404   2.067   2.915   4.816  0.8443  0.9789  1.2061
   47CHL1    C3 3405   6.320   1.081   3.442 -0.1903 -1.1499 -1.1791
   47CHL1    H3 3406   6.209   1.088   3.437 -0.1015  0.3920 -1.5615
   47CHL1    O3 3407   6.362   1.040   3.314 -0.0998 -0.6516  0.1130
   47CHL1   H3' 3408   6.418   1.111   3.280  0.1385 -0.2155  1.3832
   47CHL1    C4 3409   6.388   1.213   3.472 -0.5317 -0.5669  0.2441
   47CHL1   H4A 3410   6.496   1.194   3.487 -0.1898  0.3906 -0.8503
   47CHL1   H4B 3411   6.376   1.280   3.384 -2.6936 -0.5896  0.4598
   47CHL1    C5 3412   6.329   1.267   3.598  0.1885 -0.5085  0.2960
   47CHL1    C6 3413   6.265   1.384   3.593 -0.5555  0.5486 -0.6641
   47CHL1    H6 3414   6.256   1.443   3.501 -1.2368 -0.2928 -1.1448
   47CHL1    C7 3415   6.178   1.431   3.709 -0.1151 -0.1818  0.3911
   47CHL1   H7A 3416   6.187   1.541   3.718  1.7981 -0.2890  0.2701
   47CHL1   H7B 3417   6.078   1.392   3.681  0.6626 -1.1250 -1.2490
   47CHL1    C8 3418   6.214   1.365   3.843 -0.0253 -0.6789  0.0173
   47CHL1    H8 3419   6.307   1.412   3.881 -1.4536  1.9530  0.4972
   47CHL1   C14 3420   6.104   1.399   3.954 -0.7830 -0.0726  0.3960
   47CHL1   H14 3421   6.009   1.358   3.913 -0.2741 -0.4638 -0.4149
   47CHL1   C15 3422   6.067   1.544   3.991 -0.4531 -0.2299 -0.6580
   47CHL1  H15A 3423   6.160   1.603   4.006 -1.0675  0.5272  0.2623
   47CHL1  H15B 3424   6.007   1.598   3.915 -1.6431  1.1367  1.1669
   47CHL1   C16 3425   5.992   1.533   4.126 -0.0096 -0.6213  0.1147
   47CHL1  H16A 3426   6.050   1.606   4.187  1.6128 -2.5338  0.9704
   47CHL1  H16B 3427   5.884   1.557   4.119 -0.0386 -0.2773  1.3827
   47CHL1   C17 3428   6.020   1.384   4.173  0.4133  0.1907  0.1265
   47CHL1   H17 3429   5.934   1.328   4.130  1.2253 -1.0276  0.0522
   47CHL1   C13 3430   6.137   1.331   4.093  0.2742 -0.3522  0.5572
   47CHL1   C18 3431   6.272   1.381   4.152 -0.4090 -0.8521  0.2267
   47CHL1  H18A 3432   6.303   1.326   4.242 -0.4459 -1.3967 -0.0909
   47CHL1  H18B 3433   6.349   1.378   4.071 -1.1899  1.4325 -0.7178
   47CHL1  H18C 3434   6.253   1.486   4.183 -0.4941 -0.8531  0.1793
   47CHL1   C12 3435   6.137   1.176   4.068 -0.5538 -0.5056 -0.7991
   47CHL1  H12A 3436   6.165   1.122   4.161  0.6454  0.6809 -0.4352
   47CHL1  H12B 3437   6.043   1.141   4.021  0.2879 -2.7775 -0.9491
   47CHL1   C11 3438   6.250   1.146   3.970 -0.0745 -0.3119  1.0506
   47CHL1  H11A 3439   6.348   1.166   4.018 -0.0741 -1.3431  1.5072
   47CHL1  H11B 3440   6.252   1.035   3.964 -0.9193 -0.3702  1.6978
   47CHL1    C9 3441   6.233   1.216   3.834  0.6736 -0.1383 -0.5410
   47CHL1    H9 3442   6.137   1.175   3.795  0.2747 -0.4528  0.7129
   47CHL1   C10 3443   6.334   1.175   3.717  0.7074  0.5268 -0.7735
   47CHL1   C19 3444   6.474   1.178   3.786  0.9237 -0.5079  0.3510
   47CHL1  H19A 3445   6.551   1.153   3.709 -0.7102  1.8107 -2.2345
   47CHL1  H19B 3446   6.489   1.282   3.823  5.7535  0.9017 -4.2293
   47CHL1  H19C 3447   6.479   1.096   3.861 -1.8205 -1.2906 -0.2222
   47CHL1    C1 3448   6.296   1.032   3.682  0.3167  0.2448  0.7102
   47CHL1   H1A 3449   6.335   0.962   3.759 -0.6080 -1.2195 -0.0999
   47CHL1   H1B 3450   6.186   1.017   3.673 -0.1427  0.4091  4.4609
   47CHL1    C2 3451   6.362   0.982   3.547  0.0419  0.7743 -0.2922
   47CHL1   H2A 3452   6.332   0.879   3.518 -2.5643  0.9535  1.4688
   47CHL1   H2B 3453   6.467   0.953   3.568  0.5654  0.7514 -2.6227
   47CHL1   C20 3454   6.024   1.371   4.321  0.4612  0.3164  0.3378
   47CHL1   H20 3455   6.112   1.423   4.365  0.7109  0.0378  0.1710
   47CHL1   C21 3456   6.027   1.223   4.366 -0.1577 -0.1323 -0.0682
   47CHL1  H21A 3457   5.964   1.156   4.305 -0.7225  1.0891 -0.8664
   47CHL1  H21B 3458   6.011   1.202   4.474  0.3941 -2.7638 -0.4188
   47CHL1  H21C 3459   6.123   1.178   4.333 -0.0397  1.5950 -2.3364
   47CHL1   C22 3460   5.906   1.452   4.397 -0.2496 -0.2944  0.6917
   47CHL1  H22A 3461   5.917   1.561   4.376 -0.6665 -0.6029 -1.3372
   47CHL1  H22B 3462   5.809   1.434   4.346  0.8350  1.7675 -2.3999
   47CHL1   C23 3463   5.896   1.429   4.548  0.8123  0.2047 -0.2284
   47CHL1  H23A 3464   5.802   1.476   4.585 -0.3911 -0.3607 -2.4042
   47CHL1  H23B 3465   5.877   1.320   4.560 -2.3785  0.6672 -0.2956
   47CHL1   C24 3466   6.006   1.482   4.636 -0.6030 -0.9838  0.0471
   47CHL1  H24A 3467   6.096   1.432   4.593 -1.3028 -0.4819 -2.0927
   47CHL1  H24B 3468   6.019   1.590   4.615 -2.5615 -0.9402 -1.1275
   47CHL1   C25 3469   5.993   1.451   4.780  0.1169 -0.4085 -0.1615
   47CHL1   H25 3470   5.949   1.350   4.800 -0.6855 -0.0117  0.1083
   47CHL1   C26 3471   6.126   1.458   4.856  0.3414  0.1204  0.0731
   47CHL1  H26A 3472   6.162   1.562   4.866 -0.2248  0.2255  1.2105
   47CHL1  H26B 3473   6.116   1.423   4.961 -1.1188 -0.5849 -0.2749
   47CHL1  H26C 3474   6.197   1.388   4.807  0.6968 -0.1582  0.9606
   47CHL1   C27 3475   5.897   1.547   4.842  0.0452  0.1452  0.3023
   47CHL1  H27A 3476   5.813   1.565   4.771  0.5867 -1.4161 -0.8088
   47CHL1  H27B 3477   5.858   1.505   4.937 -1.1847  0.4694 -0.0315
   47CHL1  H27C 3478   5.946   1.645   4.860  1.5595 -0.1487 -1.8368
   48CHL1    C3 3479   4.720   4.000   3.645  0.0455  0.1426  0.1595
   48CHL1    H3 3480   4.659   3.910   3.669 -1.9963  0.8076 -2.1693
   48CHL1    O3 3481   4.732   4.013   3.503 -0.5035  0.3085 -0.2913
   48CHL1   H3' 3482   4.642   4.022   3.471 -0.4574 -2.4492 -1.4980
   48CHL1    C4 3483   4.656   4.126   3.699  0.3961 -0.4032  0.6596
   48CHL1   H4A 3484   4.724   4.210   3.673  0.3583 -0.5064  0.2261
   48CHL1   H4B 3485   4.559   4.152   3.652  0.8179 -0.7900 -0.4573
   48CHL1    C5 3486   4.634   4.113   3.847 -0.2871  0.2400 -0.0772
   48CHL1    C6 3487   4.511   4.125   3.901  0.8387  0.5616 -0.2875
   48CHL1    H6 3488   4.424   4.135   3.834  0.5660 -1.4866 -0.3026
   48CHL1    C7 3489   4.483   4.110   4.044 -0.4304  0.0877 -0.2518
   48CHL1   H7A 3490   4.397   4.178   4.064 -0.8283  0.1635 -2.0787
   48CHL1   H7B 3491   4.461   4.003   4.063  0.4196 -0.1456 -0.5179
   48CHL1    C8 3492   4.602   4.142   4.143 -0.6512  0.1114  0.2535
   48CHL1    H8 3493   4.617   4.252   4.139  2.3353 -0.2039  0.5000
   48CHL1   C14 3494   4.582   4.105   4.286  0.1905  0.5830 -0.2046
   48CHL1   H14 3495   4.567   3.995   4.278  0.6800  0.5460 -0.6339
   48CHL1   C15 3496   4.447   4.165   4.349  0.2294  0.0264 -0.3970
   48CHL1  H15A 3497   4.434   4.267   4.307  1.4733  0.8281  1.0611
   48CHL1  H15B 3498   4.363   4.095   4.329  1.0650 -0.8426 -0.9316
   48CHL1   C16 3499   4.487   4.155   4.502 -0.0185 -0.2433 -0.2755
   48CHL1  H16A 3500   4.484   4.259   4.541  0.0843  0.1080 -1.1841
   48CHL1  H16B 3501   4.411   4.087   4.545 -1.5110  1.1550 -0.6179
   48CHL1   C17 3502   4.633   4.098   4.517 -0.5700 -0.5583 -0.1966
   48CHL1   H17 3503   4.624   3.988   4.506  1.4280 -0.6929 -0.9335
   48CHL1   C13 3504   4.702   4.135   4.379  0.3223 -0.0150  0.1534
   48CHL1   C18 3505   4.743   4.283   4.373 -0.9101  0.0496 -0.4926
   48CHL1  H18A 3506   4.647   4.339   4.376 -0.8103  0.2900 -1.4978
   48CHL1  H18B 3507   4.823   4.299   4.449 -1.6497 -1.3733  0.6203
   48CHL1  H18C 3508   4.778   4.308   4.271 -0.4590 -2.7321 -1.0884
   48CHL1   C12 3509   4.822   4.051   4.327  0.2814  0.6776 -0.1416
   48CHL1  H12A 3510   4.903   4.071   4.400  1.4242 -1.1583 -0.8384
   48CHL1  H12B 3511   4.805   3.941   4.327 -0.4667  0.7852 -0.7198
   48CHL1   C11 3512   4.857   4.073   4.178 -0.0025 -0.5488  0.2977
   48CHL1  H11A 3513   4.905   4.173   4.170 -0.8585 -0.0260  1.3459
   48CHL1  H11B 3514   4.929   3.996   4.143 -0.4722 -0.5864 -0.5985
   48CHL1    C9 3515   4.729   4.066   4.088 -0.1357 -0.3168 -0.2427
   48CHL1    H9 3516   4.693   3.960   4.087  1.4261 -0.9281  1.9704
   48CHL1   C10 3517   4.763   4.088   3.934  0.2606 -0.4806 -0.1789
   48CHL1   C19 3518   4.847   4.224   3.921 -0.0322  0.1585 -0.3975
   48CHL1  H19A 3519   4.850   4.262   3.817 -0.4597  0.0456 -0.4540
   48CHL1  H19B 3520   4.800   4.304   3.982 -1.4225  0.6515 -2.0367
   48CHL1  H19C 3521   4.955   4.207   3.942 -0.4034 -0.5480  1.1511
   48CHL1    C1 3522   4.836   3.971   3.866  0.0177  0.6448 -0.4516
   48CHL1   H1A 3523   4.932   3.962   3.921  0.7406 -1.5222 -1.9410
   48CHL1   H1B 3524   4.773   3.882   3.887 -0.6223  1.2386  0.1812
   48CHL1    C2 3525   4.861   3.979   3.712  0.4544  0.0180  0.0567
   48CHL1   H2A 3526   4.897   3.878   3.681  0.1149  0.2316 -1.0740
   48CHL1   H2B 3527   4.932   4.059   3.684 -0.0660  0.7873  0.9122
   48CHL1   C20 3528   4.715   4.119   4.645 -0.5877 -0.5507  0.2293
   48CHL1   H20 3529   4.821   4.092   4.629 -0.9797 -1.0637 -1.7015
   48CHL1   C21 3530   4.651   4.018   4.754  0.5018 -0.9777 -0.0040
   48CHL1  H21A 3531   4.647   3.918   4.706 -0.8306  0.8510 -4.1506
   48CHL1  H21B 3532   4.548   4.058   4.759 -0.6248 -3.4758 -1.5261
   48CHL1  H21C 3533   4.699   4.017   4.855 -0.5469 -1.9768  0.5118
   48CHL1   C22 3534   4.720   4.264   4.706  0.5822  0.6992  0.0203
   48CHL1  H22A 3535   4.728   4.340   4.626  1.1523  1.7391  1.0318
   48CHL1  H22B 3536   4.618   4.281   4.746  0.2958  0.2516 -0.5089
   48CHL1   C23 3537   4.818   4.287   4.825  0.6017 -0.4557 -0.4290
   48CHL1  H23A 3538   4.795   4.212   4.904  1.4795  0.7038  0.9952
   48CHL1  H23B 3539   4.919   4.274   4.781  0.2077 -0.1099 -1.4666
   48CHL1   C24 3540   4.813   4.430   4.888 -0.1414 -0.3729  0.0427
   48CHL1  H24A 3541   4.903   4.485   4.853 -0.6505 -0.2193 -1.0799
   48CHL1  H24B 3542   4.731   4.489   4.841  0.1658 -0.8747 -1.1639
   48CHL1   C25 3543   4.830   4.427   5.042 -0.3010 -0.2694 -0.9546
   48CHL1   H25 3544   4.732   4.385   5.074 -0.1327 -0.1289 -0.2301
   48CHL1   C26 3545   4.948   4.336   5.086 -0.3844  0.1291 -0.3748
   48CHL1  H26A 3546   5.037   4.373   5.030  0.6342  0.0642  1.1256
   48CHL1  H26B 3547   4.956   4.350   5.196 -1.2525  2.1054 -0.5210
   48CHL1  H26C 3548   4.924   4.230   5.063  1.4460 -0.8098  1.7253
   48CHL1   C27 3549   4.840   4.562   5.109  0.1249  0.0714 -0.2321
   48CHL1  H27A 3550   4.749   4.619   5.083 -1.1019 -1.1706  1.1009
   48CHL1  H27B 3551   4.838   4.552   5.220  0.3487 -1.7370 -0.3605
   48CHL1  H27C 3552   4.928   4.627   5.094 -1.4817  2.8282  1.4917
   49CHL1    C3 3553   5.052   0.186   2.910 -0.3482 -0.3315 -1.5056
   49CHL1    H3 3554   5.107   0.090   2.898 -0.0523 -0.2851 -0.5719
   49CHL1    O3 3555   5.013   0.241   2.787 -0.5418  0.1312  0.0844
   49CHL1   H3' 3556   5.101   0.256   2.750 -0.1246 -3.7475 -0.9227
   49CHL1    C4 3557   4.913   0.168   2.984 -0.6262  0.1531  0.2401
   49CHL1   H4A 3558   4.856   0.263   2.986 -0.7765  0.2548 -3.0844
   49CHL1   H4B 3559   4.841   0.109   2.923 -0.5144 -2.0610  2.1034
   49CHL1    C5 3560   4.942   0.110   3.129  0.1057 -0.1879  0.0040
   49CHL1    C6 3561   4.888  -0.002   3.173 -0.2267 -0.8831 -0.2604
   49CHL1    H6 3562   4.819  -0.066   3.116 -1.3761  0.2359 -0.1623
   49CHL1    C7 3563   4.909  -0.050   3.318 -0.7822 -0.3762 -0.0575
   49CHL1   H7A 3564   4.819  -0.093   3.366 -2.8969  2.5545 -1.0618
   49CHL1   H7B 3565   4.987  -0.129   3.312  0.7770  1.1313 -0.9019
   49CHL1    C8 3566   4.965   0.059   3.406  0.4677  0.2303  0.3071
   49CHL1    H8 3567   4.883   0.132   3.419 -0.3970 -0.8051  0.8446
   49CHL1   C14 3568   5.010  -0.005   3.535 -0.2096  0.6580  0.4012
   49CHL1   H14 3569   5.089  -0.078   3.506 -1.4194 -0.3279 -0.5097
   49CHL1   C15 3570   4.907  -0.091   3.607  0.6411 -0.5285 -0.6617
   49CHL1  H15A 3571   4.807  -0.044   3.597  0.4174 -0.9077 -0.2472
   49CHL1  H15B 3572   4.906  -0.200   3.583  0.2227 -0.1905 -2.2712
   49CHL1   C16 3573   4.956  -0.098   3.753  0.0682 -0.1702  0.3364
   49CHL1  H16A 3574   4.880  -0.060   3.824  0.1448 -0.1583  0.4115
   49CHL1  H16B 3575   4.990  -0.200   3.780 -1.7890 -1.5684 -2.1283
   49CHL1   C17 3576   5.075   0.005   3.759 -0.9518 -0.4019 -0.2376
   49CHL1   H17 3577   5.170  -0.052   3.751 -0.4343  0.3366  0.5484
   49CHL1   C13 3578   5.066   0.095   3.633 -0.1841 -0.8396  0.2149
   49CHL1   C18 3579   4.961   0.200   3.656 -0.6964 -0.0765  0.8165
   49CHL1  H18A 3580   4.989   0.251   3.751  0.9095 -1.8107  1.3494
   49CHL1  H18B 3581   4.959   0.285   3.584  0.2297  2.6521  3.7719
   49CHL1  H18C 3582   4.860   0.157   3.674 -0.9283 -0.1555 -0.6044
   49CHL1   C12 3583   5.195   0.151   3.582 -0.6734  0.0532 -0.2211
   49CHL1  H12A 3584   5.241   0.235   3.639  0.9560 -0.9262 -0.0404
   49CHL1  H12B 3585   5.271   0.071   3.569 -0.9765 -0.2825  0.0426
   49CHL1   C11 3586   5.173   0.212   3.435  0.3726 -0.3263 -0.0254
   49CHL1  H11A 3587   5.119   0.304   3.465  1.2501 -0.0112  0.6269
   49CHL1  H11B 3588   5.274   0.236   3.394  0.3099 -0.0837 -0.0398
   49CHL1    C9 3589   5.083   0.129   3.335  0.4494 -0.3270 -0.2023
   49CHL1    H9 3590   5.150   0.045   3.308  0.3465 -0.2318 -0.7667
   49CHL1   C10 3591   5.045   0.201   3.208  0.3554 -0.0579 -0.4206
   49CHL1   C19 3592   4.974   0.339   3.235 -0.4660 -0.9155  0.4850
   49CHL1  H19A 3593   4.909   0.363   3.148  0.2526  0.3770  0.2707
   49CHL1  H19B 3594   4.919   0.349   3.331  1.0228 -1.1487  1.3950
   49CHL1  H19C 3595   5.047   0.422   3.228 -1.0773 -0.3919  0.1851
   49CHL1    C1 3596   5.180   0.236   3.124 -0.2433 -0.6887  0.2745
   49CHL1   H1A 3597   5.243   0.317   3.168  0.2384 -1.0929  0.3293
   49CHL1   H1B 3598   5.247   0.149   3.112  0.6995  0.2321 -1.5289
   49CHL1    C2 3599   5.141   0.291   2.985  0.5508  0.8287  0.4331
   49CHL1   H2A 3600   5.236   0.306   2.929 -0.4468  1.8007 -1.0759
   49CHL1   H2B 3601   5.091   0.387   3.008  1.3389  1.2263  0.5147
   49CHL1   C20 3602   5.087   0.064   3.902 -0.0501 -0.3102 -0.1277
   49CHL1   H20 3603   4.994   0.121   3.926  0.1922  0.0201  0.0370
   49CHL1   C21 3604   5.201   0.175   3.907  1.0701 -0.5590  0.2620
   49CHL1  H21A 3605   5.295   0.116   3.897  1.2875 -0.3938  1.2548
   49CHL1  H21B 3606   5.192   0.230   4.003 -1.3802 -1.5955  0.7021
   49CHL1  H21C 3607   5.188   0.257   3.832 -0.1618 -1.3029 -0.3542
   49CHL1   C22 3608   5.115  -0.045   4.006 -0.2294  0.0742  0.4322
   49CHL1  H22A 3609   5.038  -0.125   4.001  2.3977 -2.7986  2.2253
   49CHL1  H22B 3610   5.217  -0.086   3.988 -0.2705  0.2943 -0.3307
   49CHL1   C23 3611   5.112   0.016   4.145  0.4152 -0.1697 -0.3447
   49CHL1  H23A 3612   5.203   0.078   4.160  0.1205  0.1276  0.2474
   49CHL1  H23B 3613   5.026   0.085   4.156 -0.5090 -1.4017  0.3873
   49CHL1   C24 3614   5.098  -0.083   4.269  0.3320  0.6728  0.0771
   49CHL1  H24A 3615   4.990  -0.104   4.279 -0.0916  1.9218 -1.5322
   49CHL1  H24B 3616   5.148  -0.181   4.254 -1.3755 -0.1414 -0.4766
   49CHL1   C25 3617   5.158  -0.023   4.393 -0.2555  0.4488 -0.1551
   49CHL1   H25 3618   5.268  -0.005   4.397  0.0157 -1.2949  0.9832
   49CHL1   C26 3619   5.104   0.120   4.421 -0.2021 -0.6828  0.2571
   49CHL1  H26A 3620   5.126   0.195   4.342 -2.9970  0.9964  0.9178
   49CHL1  H26B 3621   4.993   0.108   4.422 -0.2153 -0.7353 -0.6473
   49CHL1  H26C 3622   5.144   0.155   4.518  1.8211  1.4920 -1.2640
   49CHL1   C27 3623   5.134  -0.112   4.511 -0.2104 -0.4312  0.4431
   49CHL1  H27A 3624   5.039  -0.095   4.565 -0.0783 -1.0786  0.8950
   49CHL1  H27B 3625   5.136  -0.220   4.484 -1.8887 -0.1395 -0.9902
   49CHL1  H27C 3626   5.221  -0.102   4.580  0.6729  0.7076 -0.7743
   50CHL1    C3 3627   3.574   4.193   3.500  0.1023  0.4481 -0.2131
   50CHL1    H3 3628   3.542   4.263   3.580  2.5086  0.8991  0.4522
   50CHL1    O3 3629   3.522   4.237   3.375 -0.1596  0.1110  0.1833
   50CHL1   H3' 3630   3.527   4.160   3.319 -0.7664 -0.2065  0.5464
   50CHL1    C4 3631   3.730   4.186   3.496  0.1658 -0.7072 -0.4277
   50CHL1   H4A 3632   3.762   4.124   3.410 -0.5508  0.8436 -1.8542
   50CHL1   H4B 3633   3.771   4.287   3.476 -2.5130  0.4767 -0.2991
   50CHL1    C5 3634   3.788   4.129   3.624  0.3615 -0.3457  0.1824
   50CHL1    C6 3635   3.871   4.202   3.694 -0.4636 -0.3974  0.0363
   50CHL1    H6 3636   3.911   4.298   3.657 -0.9288 -0.3523 -0.3570
   50CHL1    C7 3637   3.929   4.160   3.826 -0.2568  0.3795 -0.1605
   50CHL1   H7A 3638   4.034   4.193   3.844  0.1739 -0.2607 -1.3554
   50CHL1   H7B 3639   3.869   4.222   3.895  1.3179  1.2991  0.4342
   50CHL1    C8 3640   3.897   4.013   3.865 -0.6258 -0.0122  0.0670
   50CHL1    H8 3641   3.963   3.952   3.799  0.5115  1.2550 -0.0130
   50CHL1   C14 3642   3.933   3.986   4.011 -0.3616  1.0188 -0.5109
   50CHL1   H14 3643   3.874   4.052   4.078 -1.0429 -0.5487  0.4856
   50CHL1   C15 3644   4.074   4.009   4.070  0.6426 -0.1320 -0.0803
   50CHL1  H15A 3645   4.146   3.963   3.999 -1.4116 -0.8724 -1.7830
   50CHL1  H15B 3646   4.107   4.114   4.085  1.0874 -0.3442  0.4561
   50CHL1   C16 3647   4.071   3.927   4.200 -0.1616 -0.0344 -0.5738
   50CHL1  H16A 3648   4.173   3.883   4.203 -0.2053 -0.2021 -1.3576
   50CHL1  H16B 3649   4.060   3.995   4.287  0.8580  1.7848 -1.7804
   50CHL1   C17 3650   3.946   3.834   4.199  0.4222 -0.1404  0.3288
   50CHL1   H17 3651   3.863   3.890   4.247  0.9204  0.4037  0.5646
   50CHL1   C13 3652   3.902   3.835   4.057 -0.4557 -0.3315  0.2347
   50CHL1   C18 3653   3.989   3.727   3.978  0.1491  0.3473  0.4232
   50CHL1  H18A 3654   4.095   3.744   4.007  0.4705  1.6651 -1.3220
   50CHL1  H18B 3655   3.964   3.621   4.000  1.8612 -0.1671  0.0850
   50CHL1  H18C 3656   3.965   3.739   3.870 -0.7706 -1.0002  0.4506
   50CHL1   C12 3657   3.746   3.813   4.032  0.3134 -0.3211  0.4042
   50CHL1  H12A 3658   3.722   3.708   4.059 -1.2679  0.1242  0.8542
   50CHL1  H12B 3659   3.682   3.880   4.094 -1.1062  1.2061 -2.5428
   50CHL1   C11 3660   3.713   3.837   3.888  0.2475 -0.9358  0.0042
   50CHL1  H11A 3661   3.752   3.754   3.826 -0.0976 -1.6746  0.7607
   50CHL1  H11B 3662   3.603   3.823   3.887  0.1118  0.0418 -0.9388
   50CHL1    C9 3663   3.754   3.977   3.831 -0.3681  0.3688  0.2238
   50CHL1    H9 3664   3.688   4.054   3.874  0.8106  1.6723 -0.2400
   50CHL1   C10 3665   3.727   3.994   3.676  0.4505  0.3179 -0.5824
   50CHL1   C19 3666   3.792   3.872   3.607 -0.8380  0.0402  0.4855
   50CHL1  H19A 3667   3.798   3.898   3.499  0.2512 -0.9278  0.3002
   50CHL1  H19B 3668   3.896   3.848   3.637  0.1906  2.0060 -1.2612
   50CHL1  H19C 3669   3.727   3.784   3.625  0.8228 -1.5455 -0.9211
   50CHL1    C1 3670   3.568   3.992   3.661  0.0404  0.6909  0.3496
   50CHL1   H1A 3671   3.537   3.885   3.672  0.9110  0.4672  0.6926
   50CHL1   H1B 3672   3.523   4.047   3.747 -1.5949  2.6600 -1.6554
   50CHL1    C2 3673   3.522   4.052   3.530  0.2109  0.4690  0.0698
   50CHL1   H2A 3674   3.412   4.063   3.529  0.3057  2.3419 -2.8583
   50CHL1   H2B 3675   3.550   3.986   3.444 -1.4700 -0.2287  0.0172
   50CHL1   C20 3676   3.956   3.702   4.276 -0.1619 -0.5074 -0.0947
   50CHL1   H20 3677   4.004   3.620   4.218 -1.7148 -1.2753 -0.3622
   50CHL1   C21 3678   3.818   3.649   4.315  0.6834 -0.1214  0.4789
   50CHL1  H21A 3679   3.748   3.733   4.331  0.3148  0.1894 -2.2972
   50CHL1  H21B 3680   3.827   3.580   4.402 -0.8813 -1.7066 -0.5544
   50CHL1  H21C 3681   3.779   3.582   4.236  1.0722 -0.8455  0.8820
   50CHL1   C22 3682   4.045   3.716   4.406 -0.5062  0.1817  0.4408
   50CHL1  H22A 3683   4.081   3.618   4.443  0.3746  0.3480  0.0519
   50CHL1  H22B 3684   4.139   3.768   4.375 -0.2751  1.0189  2.4010
   50CHL1   C23 3685   3.980   3.786   4.526  0.1293 -0.3114 -0.3428
   50CHL1  H23A 3686   3.963   3.887   4.483  0.4559 -0.9276 -2.0192
   50CHL1  H23B 3687   3.892   3.727   4.560 -0.0299 -0.2330 -0.6148
   50CHL1   C24 3688   4.092   3.786   4.639 -0.0894  0.6116 -0.0427
   50CHL1  H24A 3689   4.108   3.679   4.662  0.0806  0.4161 -1.0212
   50CHL1  H24B 3690   4.182   3.830   4.591  0.3884 -0.1849  0.1156
   50CHL1   C25 3691   4.046   3.872   4.759 -0.0824  0.0194  0.0386
   50CHL1   H25 3692   4.023   3.974   4.721 -0.4353  0.0941  0.4419
   50CHL1   C26 3693   3.932   3.815   4.835  0.4604  0.7008 -0.4474
   50CHL1  H26A 3694   3.935   3.710   4.872  1.3782  0.7030 -0.5090
   50CHL1  H26B 3695   3.918   3.883   4.921  1.0694  0.5185 -0.2051
   50CHL1  H26C 3696   3.842   3.827   4.770  0.8502 -0.9119 -1.3276
   50CHL1   C27 3697   4.161   3.895   4.858  0.0361  0.4290 -0.1081
   50CHL1  H27A 3698   4.124   3.972   4.930 -2.3056 -0.4046 -0.3542
   50CHL1  H27B 3699   4.185   3.810   4.924  0.8668 -1.0382 -2.2143
   50CHL1  H27C 3700   4.252   3.938   4.810 -0.7685  1.9248 -0.3668
   51CHL1    C3 3701   5.173   6.251   3.269  0.6930  0.2216 -0.3901
   51CHL1    H3 3702   5.208   6.145   3.269  0.1218 -0.0129  1.8861
   51CHL1    O3 3703   5.142   6.294   3.134  0.4525 -0.1915  0.2462
   51CHL1   H3' 3704   5.095   6.377   3.144 -0.2316 -0.5778  0.3439
   51CHL1    C4 3705   5.045   6.262   3.351  0.0829  0.6786 -0.6520
   51CHL1   H4A 3706   5.007   6.365   3.336 -0.0065  1.1702  2.3233
   51CHL1   H4B 3707   4.967   6.193   3.310  0.0511  0.2837  0.0515
   51CHL1    C5 3708   5.067   6.241   3.507 -0.2704 -0.4463 -0.2827
   51CHL1    C6 3709   4.996   6.153   3.571 -0.4924  0.8081 -1.2781
   51CHL1    H6 3710   4.923   6.090   3.519 -2.3583  0.2069  1.8345
   51CHL1    C7 3711   5.010   6.129   3.719 -0.2807  0.6179 -0.1131
   51CHL1   H7A 3712   4.909   6.132   3.766 -0.3571  2.7671 -0.3598
   51CHL1   H7B 3713   5.048   6.026   3.741 -2.2068  0.1448  1.2898
   51CHL1    C8 3714   5.105   6.238   3.788  0.0305  0.3748  0.2629
   51CHL1    H8 3715   5.043   6.329   3.804  2.0865  2.2770 -1.6726
   51CHL1   C14 3716   5.150   6.183   3.916 -0.2585 -0.4600 -0.6195
   51CHL1   H14 3717   5.207   6.090   3.897  2.2865  0.3697  2.0395
   51CHL1   C15 3718   5.046   6.119   4.013  0.0988 -0.2429  0.7127
   51CHL1  H15A 3719   4.954   6.182   4.015 -1.1138 -1.9518  0.9893
   51CHL1  H15B 3720   5.031   6.012   3.987 -0.6769  0.0010  0.1154
   51CHL1   C16 3721   5.118   6.129   4.151  0.1295  0.2700  0.1844
   51CHL1  H16A 3722   5.044   6.168   4.224 -1.5183 -0.3838 -1.0897
   51CHL1  H16B 3723   5.137   6.023   4.176  1.9105  0.1799 -1.3357
   51CHL1   C17 3724   5.240   6.219   4.136 -1.1265  0.0587  0.7889
   51CHL1   H17 3725   5.328   6.154   4.118  0.1639  1.7189  0.9387
   51CHL1   C13 3726   5.224   6.290   3.997 -0.7557 -0.2879  0.0338
   51CHL1   C18 3727   5.135   6.408   4.026  0.3027 -0.4356  0.7529
   51CHL1  H18A 3728   5.186   6.485   4.088  0.8745 -1.5940  1.7799
   51CHL1  H18B 3729   5.097   6.462   3.937  0.0773 -0.6495  0.7206
   51CHL1  H18C 3730   5.038   6.372   4.065 -0.5376  0.6844 -0.2486
   51CHL1   C12 3731   5.349   6.330   3.917 -0.8737 -0.5656  0.7375
   51CHL1  H12A 3732   5.404   6.403   3.979  0.7003 -0.3249 -0.8571
   51CHL1  H12B 3733   5.408   6.236   3.904 -3.4203 -2.1338 -0.5303
   51CHL1   C11 3734   5.315   6.384   3.775 -0.4512  0.7341 -0.3851
   51CHL1  H11A 3735   5.275   6.487   3.788 -1.1792  0.7472 -2.4512
   51CHL1  H11B 3736   5.404   6.399   3.710  0.8540  2.1494  1.6072
   51CHL1    C9 3737   5.225   6.280   3.705  0.2894 -0.1376  0.2947
   51CHL1    H9 3738   5.292   6.194   3.684  1.9739  1.1947  0.0226
   51CHL1   C10 3739   5.186   6.327   3.562  0.3012 -0.3280  0.4362
   51CHL1   C19 3740   5.129   6.474   3.565 -0.1465 -0.0455 -0.0346
   51CHL1  H19A 3741   5.043   6.482   3.636 -1.3450  0.8919 -1.5237
   51CHL1  H19B 3742   5.200   6.555   3.591 -1.0624  0.8790 -0.3097
   51CHL1  H19C 3743   5.089   6.497   3.463 -1.3503 -0.6477  0.2751
   51CHL1    C1 3744   5.312   6.326   3.469  0.9308 -1.6273 -0.0870
   51CHL1   H1A 3745   5.392   6.399   3.494  0.7245 -0.8820 -1.4597
   51CHL1   H1B 3746   5.356   6.225   3.478  3.3735 -0.8545 -2.0773
   51CHL1    C2 3747   5.279   6.351   3.320  0.8298 -1.1076 -0.2839
   51CHL1   H2A 3748   5.373   6.337   3.263  3.7081 -0.3443  3.7910
   51CHL1   H2B 3749   5.231   6.448   3.296 -0.1725 -1.5244 -0.0053
   51CHL1   C20 3750   5.273   6.298   4.262  0.1879 -0.1263 -0.0118
   51CHL1   H20 3751   5.190   6.371   4.275 -0.8431 -0.6802 -2.8329
   51CHL1   C21 3752   5.409   6.377   4.254 -0.1787 -1.4498  0.5063
   51CHL1  H21A 3753   5.404   6.449   4.170 -1.0998  2.6240  3.7374
   51CHL1  H21B 3754   5.501   6.318   4.239  0.1891 -1.0996  1.3238
   51CHL1  H21C 3755   5.420   6.436   4.348 -0.5102  0.7145 -0.7665
   51CHL1   C22 3756   5.280   6.205   4.386 -0.1410  0.3751 -0.7444
   51CHL1  H22A 3757   5.184   6.155   4.412  0.4733 -0.0840  0.7639
   51CHL1  H22B 3758   5.362   6.135   4.359 -0.6436 -0.3048 -0.5594
   51CHL1   C23 3759   5.321   6.278   4.515 -0.3254  0.0101 -0.8282
   51CHL1  H23A 3760   5.426   6.313   4.506  0.5889 -1.4426  2.4315
   51CHL1  H23B 3761   5.250   6.363   4.530 -1.5142 -0.7804 -1.8092
   51CHL1   C24 3762   5.329   6.187   4.644  0.4364  0.1071  0.6548
   51CHL1  H24A 3763   5.232   6.137   4.665  1.3304 -2.7281 -1.3331
   51CHL1  H24B 3764   5.405   6.110   4.616  0.3205 -0.2823  1.3725
   51CHL1   C25 3765   5.378   6.270   4.765  0.1805 -0.1459  0.1678
   51CHL1   H25 3766   5.468   6.324   4.730 -0.0775  0.8894  1.0483
   51CHL1   C26 3767   5.278   6.376   4.811 -0.3731  0.4900  0.7117
   51CHL1  H26A 3768   5.249   6.435   4.722  0.1537 -1.7704 -1.0267
   51CHL1  H26B 3769   5.190   6.336   4.866 -1.9256  2.8456  0.0696
   51CHL1  H26C 3770   5.336   6.440   4.882  1.8918  1.6369 -2.0002
   51CHL1   C27 3771   5.431   6.180   4.879  0.2187 -0.1747 -0.6712
   51CHL1  H27A 3772   5.473   6.231   4.968  2.5068 -1.5345 -0.8965
   51CHL1  H27B 3773   5.337   6.127   4.904 -0.0933  0.4058 -0.5896
   51CHL1  H27C 3774   5.509   6.106   4.849  1.6592  1.4828 -1.1813
   52CHL1    C3 3775   3.449   4.641   3.535 -0.0886 -0.0982 -0.7307
   52CHL1    H3 3776   3.405   4.743   3.533 -1.3282 -0.5078  1.9593
   52CHL1    O3 3777   3.420   4.584   3.408 -0.3800  0.3207  0.2214
   52CHL1   H3' 3778   3.382   4.652   3.351 -2.4778 -0.4620  0.5991
   52CHL1    C4 3779   3.601   4.640   3.553 -0.2224 -0.0256  0.3299
   52CHL1   H4A 3780   3.645   4.539   3.538 -2.0377 -0.9639  1.0171
   52CHL1   H4B 3781   3.644   4.708   3.477  0.0258 -0.0626  0.4375
   52CHL1    C5 3782   3.659   4.682   3.680 -0.0826 -0.1606 -0.1445
   52CHL1    C6 3783   3.744   4.787   3.696  0.6246 -0.5405  0.6404
   52CHL1    H6 3784   3.745   4.839   3.599 -1.5687 -1.5178  0.0101
   52CHL1    C7 3785   3.824   4.836   3.816 -0.0805  0.1613 -0.5864
   52CHL1   H7A 3786   3.934   4.844   3.800  0.3193 -2.4149  0.3869
   52CHL1   H7B 3787   3.784   4.934   3.849  0.0244 -0.1624  0.5441
   52CHL1    C8 3788   3.799   4.730   3.931 -0.2322  0.0577  0.0642
   52CHL1    H8 3789   3.865   4.642   3.916  1.4482  1.1412  0.7926
   52CHL1   C14 3790   3.828   4.782   4.074  0.0276  0.6579  0.1545
   52CHL1   H14 3791   3.757   4.866   4.091 -0.7577  0.3254 -1.3242
   52CHL1   C15 3792   3.962   4.848   4.095 -0.0222 -0.7616 -0.0888
   52CHL1  H15A 3793   4.052   4.794   4.059  0.7737  0.7233 -0.4248
   52CHL1  H15B 3794   3.984   4.951   4.060  0.0984  0.6257  3.5721
   52CHL1   C16 3795   3.971   4.853   4.244 -0.0076  0.0385  0.5577
   52CHL1  H16A 3796   4.065   4.804   4.280  0.1163 -0.2472 -0.1450
   52CHL1  H16B 3797   3.957   4.959   4.275  1.4689 -0.3598  2.8367
   52CHL1   C17 3798   3.850   4.779   4.308  0.2502 -0.3139  0.1187
   52CHL1   H17 3799   3.770   4.855   4.314 -0.8409 -1.4614  0.7375
   52CHL1   C13 3800   3.809   4.681   4.199  1.3835  0.4886  0.8063
   52CHL1   C18 3801   3.902   4.559   4.195 -0.2644  0.0709  0.1387
   52CHL1  H18A 3802   4.006   4.598   4.200  0.1511 -1.0262  0.6012
   52CHL1  H18B 3803   3.890   4.494   4.285 -0.8856  0.3688  0.2804
   52CHL1  H18C 3804   3.883   4.506   4.099  0.8053 -0.5445  0.2486
   52CHL1   C12 3805   3.654   4.647   4.200 -1.0279 -0.0043 -0.4018
   52CHL1  H12A 3806   3.636   4.572   4.280 -0.2715 -0.6877 -0.8594
   52CHL1  H12B 3807   3.603   4.742   4.227 -2.3457 -1.3160  2.1757
   52CHL1   C11 3808   3.612   4.586   4.068 -0.0312  0.6557  0.6093
   52CHL1  H11A 3809   3.664   4.488   4.056 -0.4266  0.5914 -0.7234
   52CHL1  H11B 3810   3.502   4.571   4.063 -0.0957  1.4537 -1.3323
   52CHL1    C9 3811   3.659   4.674   3.938  0.2270  0.4531  0.0033
   52CHL1    H9 3812   3.598   4.767   3.944  0.5085  0.6365  0.0552
   52CHL1   C10 3813   3.605   4.610   3.804  0.2354 -0.2273  0.2384
   52CHL1   C19 3814   3.654   4.461   3.810  0.2197  0.2047 -1.0148
   52CHL1  H19A 3815   3.660   4.425   3.706  3.2106  2.7415 -1.8664
   52CHL1  H19B 3816   3.744   4.451   3.874 -0.4101 -2.8077 -0.4590
   52CHL1  H19C 3817   3.579   4.400   3.864 -1.0360  2.3991 -0.1113
   52CHL1    C1 3818   3.449   4.622   3.791  0.5567 -0.1393  0.8711
   52CHL1   H1A 3819   3.406   4.554   3.868 -0.7624  0.0092  0.3093
   52CHL1   H1B 3820   3.411   4.726   3.805 -1.1746 -0.5361 -0.5131
   52CHL1    C2 3821   3.389   4.563   3.662  0.2621  0.1046  0.0585
   52CHL1   H2A 3822   3.279   4.582   3.667 -0.0706 -1.5177 -0.4347
   52CHL1   H2B 3823   3.405   4.454   3.653 -0.6455  0.0397 -1.0648
   52CHL1   C20 3824   3.884   4.721   4.447  0.2263  0.1576 -0.1045
   52CHL1   H20 3825   3.969   4.650   4.439 -0.3250 -0.4895 -0.3602
   52CHL1   C21 3826   3.766   4.652   4.502  0.6743  0.5299 -0.4942
   52CHL1  H21A 3827   3.679   4.721   4.502  0.5554  0.4001  0.5643
   52CHL1  H21B 3828   3.781   4.621   4.608 -0.8250  0.3311 -0.3265
   52CHL1  H21C 3829   3.739   4.556   4.453  1.1182  0.1807 -0.0665
   52CHL1   C22 3830   3.923   4.840   4.537 -0.1688 -0.4665 -0.3423
   52CHL1  H22A 3831   4.014   4.893   4.500 -0.0689 -0.9637 -0.8086
   52CHL1  H22B 3832   3.844   4.918   4.546  2.0423  1.7146  2.5357
   52CHL1   C23 3833   3.960   4.797   4.680 -0.2022  0.0244 -0.0224
   52CHL1  H23A 3834   3.872   4.750   4.729  1.2010 -2.6152  0.1370
   52CHL1  H23B 3835   4.036   4.719   4.663  0.8006  0.4456  2.1498
   52CHL1   C24 3836   4.008   4.913   4.770  0.0598 -0.0837  0.5762
   52CHL1  H24A 3837   4.096   4.967   4.727  0.5935 -1.7455 -0.5241
   52CHL1  H24B 3838   3.919   4.979   4.772 -0.5917 -0.9403  0.7649
   52CHL1   C25 3839   4.047   4.888   4.920 -0.5870  0.1173  0.2073
   52CHL1   H25 3840   4.149   4.846   4.906 -0.5412  0.5453 -0.8209
   52CHL1   C26 3841   4.078   5.021   4.993  0.3949  0.3874  0.1322
   52CHL1  H26A 3842   4.147   5.089   4.938  0.8871  0.1933  0.5033
   52CHL1  H26B 3843   3.980   5.066   5.017  1.0644  1.2997  1.2588
   52CHL1  H26C 3844   4.127   5.003   5.091 -0.9931  2.5517  1.3134
   52CHL1   C27 3845   3.943   4.809   5.006  0.3898 -0.3757  0.1754
   52CHL1  H27A 3846   3.894   4.718   4.964 -1.2750  0.2215  0.7529
   52CHL1  H27B 3847   3.987   4.785   5.105  0.3698 -1.5384 -0.0832
   52CHL1  H27C 3848   3.851   4.871   5.011  1.3893  1.7751 -3.7680
   53CHL1    C3 3849   5.224   1.770   3.211  0.2301  0.2369 -0.0900
   53CHL1    H3 3850   5.211   1.671   3.260 -0.7152  0.0231 -0.7499
   53CHL1    O3 3851   5.245   1.740   3.069 -0.0639  0.3026 -0.3251
   53CHL1   H3' 3852   5.158   1.756   3.032 -0.9949 -0.6084  1.3430
   53CHL1    C4 3853   5.096   1.844   3.236  0.0707 -0.0164  0.2848
   53CHL1   H4A 3854   5.095   1.939   3.178  2.9931 -0.9074 -1.4000
   53CHL1   H4B 3855   5.011   1.783   3.196 -0.2686  0.5612  0.1079
   53CHL1    C5 3856   5.077   1.874   3.380 -0.1698  0.9133 -0.8883
   53CHL1    C6 3857   4.975   1.825   3.453  0.3584  0.3657  0.4595
   53CHL1    H6 3858   4.910   1.749   3.407  0.2729 -0.6876  2.2282
   53CHL1    C7 3859   4.949   1.861   3.595 -0.1356  0.1281 -0.7596
   53CHL1   H7A 3860   4.838   1.874   3.594 -0.2853 -0.5182 -4.3537
   53CHL1   H7B 3861   4.978   1.782   3.668  1.6664  2.9177  1.7248
   53CHL1    C8 3862   5.026   1.981   3.646  0.2123  0.2544  0.7975
   53CHL1    H8 3863   4.982   2.072   3.599  0.2145 -0.2367 -0.1875
   53CHL1   C14 3864   5.021   1.988   3.798 -0.0283 -0.1755  0.6567
   53CHL1   H14 3865   5.077   1.900   3.836  1.7996  0.0192 -1.4126
   53CHL1   C15 3866   4.880   1.977   3.860  0.0231 -0.2584 -0.2027
   53CHL1  H15A 3867   4.804   2.030   3.799 -0.7426 -0.5515  0.4852
   53CHL1  H15B 3868   4.861   1.868   3.860  0.3196 -0.3160  0.4331
   53CHL1   C16 3869   4.898   2.031   3.998 -0.2842 -0.6271 -0.1732
   53CHL1  H16A 3870   4.832   2.119   4.015 -0.2262 -0.6634  0.2507
   53CHL1  H16B 3871   4.888   1.954   4.077  1.3041  0.4135  1.1084
   53CHL1   C17 3872   5.044   2.084   4.008 -0.0860  0.7075  0.0604
   53CHL1   H17 3873   5.112   2.001   4.037  0.8843  1.2005 -0.7471
   53CHL1   C13 3874   5.089   2.107   3.862  0.4352 -0.0804  0.0372
   53CHL1   C18 3875   5.023   2.238   3.822 -0.2688  0.3718 -0.2853
   53CHL1  H18A 3876   4.919   2.240   3.861 -0.8069 -1.0106 -1.5497
   53CHL1  H18B 3877   5.072   2.317   3.882 -0.7791 -0.9507  2.0087
   53CHL1  H18C 3878   5.038   2.268   3.716  1.1876  0.1277 -0.1703
   53CHL1   C12 3879   5.241   2.094   3.836 -0.0336  0.5336  0.0064
   53CHL1  H12A 3880   5.290   2.187   3.869 -0.2278  0.1143  1.5704
   53CHL1  H12B 3881   5.295   2.010   3.885 -0.7618 -0.3075 -0.6036
   53CHL1   C11 3882   5.255   2.078   3.677 -0.8775 -0.6500 -0.3741
   53CHL1  H11A 3883   5.246   2.179   3.632 -0.7792 -0.0652  0.8682
   53CHL1  H11B 3884   5.361   2.046   3.666 -1.0253 -1.0734 -0.6235
   53CHL1    C9 3885   5.175   1.968   3.608 -0.5539  0.5682  0.6663
   53CHL1    H9 3886   5.203   1.867   3.643 -1.1864  0.5168  1.0303
   53CHL1   C10 3887   5.191   1.955   3.450 -0.0677  0.8112 -0.8954
   53CHL1   C19 3888   5.168   2.096   3.389 -0.1480 -0.0755 -0.1617
   53CHL1  H19A 3889   5.257   2.159   3.409 -1.3148  1.7875 -0.6077
   53CHL1  H19B 3890   5.168   2.089   3.278 -1.3732 -1.9951 -0.0877
   53CHL1  H19C 3891   5.081   2.156   3.422  1.1559  1.9868 -0.2977
   53CHL1    C1 3892   5.325   1.896   3.418 -0.2669  0.2325 -0.3487
   53CHL1   H1A 3893   5.410   1.964   3.440 -0.5897  0.8808 -1.0884
   53CHL1   H1B 3894   5.336   1.802   3.476 -0.9275  0.5727  0.3446
   53CHL1    C2 3895   5.346   1.848   3.269 -0.7329 -0.9895 -0.1032
   53CHL1   H2A 3896   5.443   1.795   3.264  0.8334  1.7397 -0.6175
   53CHL1   H2B 3897   5.363   1.938   3.205 -0.8345 -0.5656  0.4582
   53CHL1   C20 3898   5.064   2.190   4.121  0.3396  0.3921 -0.2299
   53CHL1   H20 3899   4.991   2.273   4.108  0.1821  0.1238 -1.1104
   53CHL1   C21 3900   5.212   2.242   4.123  0.3266  0.0313  0.5862
   53CHL1  H21A 3901   5.273   2.150   4.111 -0.4859 -0.3512 -0.7746
   53CHL1  H21B 3902   5.231   2.303   4.214  1.1207  1.4393 -0.4809
   53CHL1  H21C 3903   5.233   2.308   4.037 -2.2341  1.2504  0.8009
   53CHL1   C22 3904   5.032   2.125   4.263 -0.2542  0.2590  0.3519
   53CHL1  H22A 3905   4.923   2.105   4.272 -0.3386  0.1722 -0.6952
   53CHL1  H22B 3906   5.086   2.029   4.280 -1.5934 -0.7195 -0.7585
   53CHL1   C23 3907   5.079   2.203   4.381  0.3556 -0.4422 -0.6298
   53CHL1  H23A 3908   5.190   2.207   4.387  0.3320  3.5195 -0.4221
   53CHL1  H23B 3909   5.037   2.306   4.382 -0.6703 -0.8367  0.8369
   53CHL1   C24 3910   5.005   2.141   4.507  0.2071 -0.1928 -0.3246
   53CHL1  H24A 3911   4.899   2.163   4.486  0.7443 -0.0434 -3.3250
   53CHL1  H24B 3912   5.036   2.035   4.519  2.3865  0.5004  0.7783
   53CHL1   C25 3913   5.054   2.202   4.640  0.1563  0.5651 -0.1663
   53CHL1   H25 3914   5.147   2.149   4.670 -0.4336  0.5231  1.6805
   53CHL1   C26 3915   5.085   2.354   4.638 -0.6654 -0.2834  0.1832
   53CHL1  H26A 3916   5.113   2.395   4.738  3.2672  0.7066 -1.1407
   53CHL1  H26B 3917   5.173   2.376   4.575  1.2786  0.1183  2.8382
   53CHL1  H26C 3918   4.994   2.401   4.594 -0.2566  0.2833 -0.0644
   53CHL1   C27 3919   4.953   2.166   4.748  0.7167  0.0142 -0.7200
   53CHL1  H27A 3920   4.943   2.059   4.775  1.7534  0.3902  1.3973
   53CHL1  H27B 3921   4.958   2.226   4.842 -1.3508 -1.6513  0.5471
   53CHL1  H27C 3922   4.856   2.204   4.709  0.3313  0.7383  0.8311
   54CHL1    C3 3923   5.095   0.735   3.342 -0.3826  0.8890 -0.3182
   54CHL1    H3 3924   5.146   0.831   3.321  2.4099 -0.4696 -0.2699
   54CHL1    O3 3925   5.052   0.669   3.226 -0.5397 -0.5148  0.0331
   54CHL1   H3' 3926   5.118   0.696   3.161 -0.6055 -0.5631 -0.0542
   54CHL1    C4 3927   5.202   0.641   3.400 -0.4962 -0.4080 -0.2715
   54CHL1   H4A 3928   5.165   0.536   3.401  0.4890 -0.7651 -0.3860
   54CHL1   H4B 3929   5.286   0.645   3.327 -2.2741 -0.0051 -2.4211
   54CHL1    C5 3930   5.253   0.681   3.539  0.5432  1.3978  0.1468
   54CHL1    C6 3931   5.383   0.720   3.559  0.5771 -0.0217 -0.1925
   54CHL1    H6 3932   5.458   0.707   3.480 -0.3486  0.8155 -1.2333
   54CHL1    C7 3933   5.426   0.758   3.699  0.4379 -0.6934 -0.1136
   54CHL1   H7A 3934   5.528   0.722   3.723  0.0703 -0.5404  1.9063
   54CHL1   H7B 3935   5.425   0.869   3.707  1.0962 -0.7990  2.3805
   54CHL1    C8 3936   5.331   0.712   3.821  0.1730  0.5720  0.7870
   54CHL1    H8 3937   5.335   0.602   3.834  0.7860  0.5967  0.8672
   54CHL1   C14 3938   5.367   0.775   3.956 -0.0604  0.0244 -0.7930
   54CHL1   H14 3939   5.362   0.883   3.932  2.8770  1.2914  3.1457
   54CHL1   C15 3940   5.513   0.769   4.020  0.2192 -0.1185 -0.3421
   54CHL1  H15A 3941   5.554   0.666   4.014  0.0520 -0.1035 -2.8056
   54CHL1  H15B 3942   5.594   0.834   3.982  0.4807  0.1027  0.5834
   54CHL1   C16 3943   5.481   0.822   4.161  0.0682 -0.1353  0.1614
   54CHL1  H16A 3944   5.531   0.767   4.243 -0.7764  0.1415  0.8776
   54CHL1  H16B 3945   5.523   0.925   4.168 -0.6781  0.2467 -0.7899
   54CHL1   C17 3946   5.331   0.848   4.177  0.4305  0.8961  0.0476
   54CHL1   H17 3947   5.300   0.949   4.142 -2.3479  0.3889  0.7865
   54CHL1   C13 3948   5.270   0.759   4.075  0.6123  1.3607 -0.0602
   54CHL1   C18 3949   5.275   0.615   4.114  0.4453 -0.1987 -0.3856
   54CHL1  H18A 3950   5.259   0.539   4.034 -0.3309 -1.9054  1.3038
   54CHL1  H18B 3951   5.374   0.591   4.158  1.6291  2.5154 -1.3664
   54CHL1  H18C 3952   5.203   0.600   4.197  1.8965  1.9554  1.3640
   54CHL1   C12 3953   5.128   0.792   4.029  0.1224  0.2193  1.0198
   54CHL1  H12A 3954   5.043   0.782   4.100 -1.3770  0.2043 -0.7012
   54CHL1  H12B 3955   5.136   0.897   3.994  0.2092 -0.1904 -0.2135
   54CHL1   C11 3956   5.084   0.716   3.897 -0.2935  0.2995 -0.2924
   54CHL1  H11A 3957   5.090   0.608   3.923 -0.3880  0.6708  1.4283
   54CHL1  H11B 3958   4.984   0.749   3.863 -0.5908 -1.6403 -1.4644
   54CHL1    C9 3959   5.185   0.739   3.782  0.1787 -0.1147 -0.4083
   54CHL1    H9 3960   5.177   0.849   3.770  1.7307  0.0070 -0.4814
   54CHL1   C10 3961   5.137   0.676   3.640 -0.0880 -0.1508 -0.6710
   54CHL1   C19 3962   5.079   0.533   3.663  0.3131 -0.2115  0.4900
   54CHL1  H19A 3963   5.152   0.468   3.716 -0.6016 -0.6377  1.2428
   54CHL1  H19B 3964   4.984   0.552   3.716 -1.1501 -0.3847 -1.9090
   54CHL1  H19C 3965   5.047   0.478   3.572 -0.5826  0.3696  0.4432
   54CHL1    C1 3966   5.027   0.771   3.588 -0.2541  0.7112  0.4008
   54CHL1   H1A 3967   4.937   0.758   3.651  0.6690  2.0129  2.0851
   54CHL1   H1B 3968   5.066   0.875   3.595  2.5699 -0.0962 -1.3653
   54CHL1    C2 3969   4.979   0.744   3.442 -0.0347 -0.4931 -0.6374
   54CHL1   H2A 3970   4.905   0.826   3.438  1.3131  0.9575  1.7118
   54CHL1   H2B 3971   4.915   0.653   3.437 -0.6200 -0.3941  2.7033
   54CHL1   C20 3972   5.297   0.836   4.323  0.2605 -0.3130 -0.2103
   54CHL1   H20 3973   5.326   0.734   4.356  0.0563 -0.9473 -1.8681
   54CHL1   C21 3974   5.144   0.869   4.347  0.0836 -0.0327  0.2710
   54CHL1  H21A 3975   5.121   0.863   4.456  0.6411  0.7479  0.4448
   54CHL1  H21B 3976   5.082   0.796   4.291  1.5469 -1.3388  0.2778
   54CHL1  H21C 3977   5.108   0.970   4.319  1.4836  0.6546  0.8445
   54CHL1   C22 3978   5.381   0.934   4.413  0.1902  0.0914  0.2541
   54CHL1  H22A 3979   5.485   0.935   4.374  0.0756  2.5209 -0.1521
   54CHL1  H22B 3980   5.331   1.033   4.399 -1.4853 -1.0110 -2.4537
   54CHL1   C23 3981   5.375   0.891   4.562  0.6635  0.5098  0.4430
   54CHL1  H23A 3982   5.372   0.977   4.632 -2.9299 -0.6097  1.8658
   54CHL1  H23B 3983   5.274   0.850   4.581  0.7656 -0.8847 -1.6928
   54CHL1   C24 3984   5.485   0.792   4.609 -0.9220 -0.4362 -0.3322
   54CHL1  H24A 3985   5.484   0.710   4.535 -2.0766 -1.1239  0.4169
   54CHL1  H24B 3986   5.588   0.833   4.612 -0.6885 -0.9108 -1.3691
   54CHL1   C25 3987   5.469   0.724   4.745  0.5332 -0.6881  0.5202
   54CHL1   H25 3988   5.474   0.803   4.824  1.6188  0.0186 -0.2174
   54CHL1   C26 3989   5.331   0.655   4.760 -1.1735  0.1773  0.2942
   54CHL1  H26A 3990   5.303   0.608   4.663  1.2463  1.1866 -0.9978
   54CHL1  H26B 3991   5.333   0.590   4.850 -0.7909  2.2539  1.8648
   54CHL1  H26C 3992   5.272   0.745   4.787 -2.7274 -1.3178  2.1349
   54CHL1   C27 3993   5.582   0.629   4.779 -0.0736  0.2072 -0.2522
   54CHL1  H27A 3994   5.571   0.571   4.873  3.8514  0.4005  0.4744
   54CHL1  H27B 3995   5.593   0.555   4.696 -0.8776 -0.9685  0.6577
   54CHL1  H27C 3996   5.682   0.677   4.784  0.6554 -1.1945 -0.7744
   55CHL1    C3 3997   2.802   3.065   3.611 -0.3512 -0.1390  0.6014
   55CHL1    H3 3998   2.764   3.169   3.624  1.4202  0.5652  0.4201
   55CHL1    O3 3999   2.831   3.047   3.471  0.2243  0.4894  0.1068
   55CHL1   H3' 4000   2.751   3.042   3.418 -0.1461 -2.1270  0.7672
   55CHL1    C4 4001   2.929   3.052   3.693 -0.8500 -0.0381  0.2216
   55CHL1   H4A 4002   2.976   2.959   3.654 -1.7255 -0.4448  0.1151
   55CHL1   H4B 4003   2.995   3.135   3.659  0.1654 -0.6982  0.5376
   55CHL1    C5 4004   2.911   3.055   3.838  0.0005  0.6884 -0.0865
   55CHL1    C6 4005   2.979   3.134   3.919  0.2182 -0.2079 -0.2626
   55CHL1    H6 4006   3.055   3.205   3.882 -0.0479 -0.0289 -0.4645
   55CHL1    C7 4007   2.968   3.128   4.068 -0.0662 -0.0564 -0.5206
   55CHL1   H7A 4008   3.069   3.129   4.113  0.1499 -0.1030 -0.9985
   55CHL1   H7B 4009   2.915   3.222   4.096 -0.8608 -1.1304  1.9072
   55CHL1    C8 4010   2.892   3.015   4.134  0.5884  0.0953  0.3316
   55CHL1    H8 4011   2.944   2.917   4.127 -0.9940 -0.6889 -1.2434
   55CHL1   C14 4012   2.857   3.033   4.286  0.3616  0.2992 -0.0759
   55CHL1   H14 4013   2.816   3.136   4.285 -2.0464 -0.5701  0.9584
   55CHL1   C15 4014   2.978   3.029   4.377  0.1666  0.0628 -0.2747
   55CHL1  H15A 4015   3.043   2.944   4.346 -1.6014 -1.0983 -0.9350
   55CHL1  H15B 4016   3.047   3.114   4.365  1.6170 -1.3163 -2.3938
   55CHL1   C16 4017   2.909   2.998   4.511 -0.1212  0.9332  0.3713
   55CHL1  H16A 4018   2.963   2.905   4.538 -1.4269 -0.4919 -1.6539
   55CHL1  H16B 4019   2.931   3.083   4.579  0.6518  1.4773 -0.5261
   55CHL1   C17 4020   2.759   2.964   4.486 -0.0684  0.0589 -0.0654
   55CHL1   H17 4021   2.702   3.056   4.509 -0.5397  0.2250 -1.7965
   55CHL1   C13 4022   2.763   2.932   4.339  0.5637  0.3407 -0.1078
   55CHL1   C18 4023   2.824   2.792   4.323 -0.0364  0.9328 -0.1461
   55CHL1  H18A 4024   2.763   2.715   4.375 -0.7078 -0.2047 -2.4534
   55CHL1  H18B 4025   2.843   2.754   4.220  3.4176  0.0288  0.7144
   55CHL1  H18C 4026   2.922   2.783   4.375 -0.0734  1.2297 -0.0221
   55CHL1   C12 4027   2.628   2.948   4.257 -0.1804  0.4104  0.3449
   55CHL1  H12A 4028   2.557   2.872   4.294 -0.0421 -0.1995 -0.5982
   55CHL1  H12B 4029   2.591   3.053   4.255 -0.1712  0.4115  0.1414
   55CHL1   C11 4030   2.660   2.913   4.106  0.7054  1.2934  0.2050
   55CHL1  H11A 4031   2.680   2.805   4.093 -2.5017  0.8073 -1.5714
   55CHL1  H11B 4032   2.559   2.918   4.061  0.0735 -0.0822  1.3892
   55CHL1    C9 4033   2.770   2.996   4.044  0.4878  0.8480 -0.2590
   55CHL1    H9 4034   2.727   3.098   4.044  1.7556  1.4093  0.9300
   55CHL1   C10 4035   2.804   2.964   3.895  0.4499  0.5799  0.1873
   55CHL1   C19 4036   2.851   2.820   3.884 -0.3547  0.5421 -0.2466
   55CHL1  H19A 4037   2.770   2.759   3.930 -0.3143  0.9346  0.3461
   55CHL1  H19B 4038   2.879   2.785   3.782  0.7031 -1.4899  0.6969
   55CHL1  H19C 4039   2.943   2.793   3.939 -1.2333  1.6859  1.9144
   55CHL1    C1 4040   2.675   2.969   3.813  0.0941 -0.5510  0.5085
   55CHL1   H1A 4041   2.605   2.890   3.848  0.0085  0.4348  2.7205
   55CHL1   H1B 4042   2.632   3.068   3.839 -0.3096 -0.6435  0.2068
   55CHL1    C2 4043   2.700   2.960   3.661 -0.0525  0.2807  0.4799
   55CHL1   H2A 4044   2.600   2.970   3.614  0.9030 -3.3716 -2.8914
   55CHL1   H2B 4045   2.731   2.860   3.624 -3.8908 -0.9213  0.0232
   55CHL1   C20 4046   2.697   2.859   4.583 -0.0152  0.5313 -0.6642
   55CHL1   H20 4047   2.761   2.769   4.569 -0.5170 -0.2715  1.7385
   55CHL1   C21 4048   2.551   2.815   4.570 -0.6524 -0.1494 -0.1131
   55CHL1  H21A 4049   2.512   2.733   4.633 -0.2119  1.1689  1.9511
   55CHL1  H21B 4050   2.553   2.768   4.469  1.2580 -2.9565  1.1065
   55CHL1  H21C 4051   2.480   2.900   4.580 -1.0395 -0.4848  0.0002
   55CHL1   C22 4052   2.713   2.900   4.735  0.0814  0.9049 -0.0643
   55CHL1  H22A 4053   2.686   2.814   4.800  0.3398  1.4441  0.7802
   55CHL1  H22B 4054   2.817   2.937   4.749  0.7172  0.0739 -2.1750
   55CHL1   C23 4055   2.628   3.022   4.772 -0.2259 -0.8244 -0.4237
   55CHL1  H23A 4056   2.643   3.117   4.716  0.5360 -0.6252  0.1075
   55CHL1  H23B 4057   2.519   3.000   4.763 -0.8169  2.1016 -1.8468
   55CHL1   C24 4058   2.660   3.088   4.915 -0.7169 -0.0898  0.8890
   55CHL1  H24A 4059   2.648   3.004   4.987  6.3121  0.5699  3.6091
   55CHL1  H24B 4060   2.767   3.118   4.915 -0.8554  0.4332  0.1767
   55CHL1   C25 4061   2.572   3.207   4.964 -0.1133  0.0824 -0.5535
   55CHL1   H25 4062   2.571   3.290   4.890 -1.0180  1.3255  0.7970
   55CHL1   C26 4063   2.430   3.150   4.988  0.3734 -0.2702  0.3675
   55CHL1  H26A 4064   2.384   3.106   4.897 -0.1648  1.1824 -0.0998
   55CHL1  H26B 4065   2.425   3.079   5.073  3.4792 -1.0714  0.0014
   55CHL1  H26C 4066   2.360   3.233   5.010  0.3888  0.3773 -1.7362
   55CHL1   C27 4067   2.632   3.273   5.089  0.2572  0.2589  0.1084
   55CHL1  H27A 4068   2.671   3.195   5.158  0.8103  0.1852 -0.2802
   55CHL1  H27B 4069   2.719   3.338   5.067 -1.0761  1.8758 -0.6885
   55CHL1  H27C 4070   2.558   3.336   5.143  0.9339  1.1776 -0.0043
   56CHL1    C3 4071   3.841   2.730   3.431 -0.0605  0.1168  0.1823
   56CHL1    H3 4072   3.907   2.819   3.430 -2.4957  2.0473  1.0808
   56CHL1    O3 4073   3.809   2.699   3.294 -0.0714  0.4274 -0.0609
   56CHL1   H3' 4074   3.721   2.661   3.294  0.8931 -1.9987 -1.1987
   56CHL1    C4 4075   3.926   2.616   3.499 -0.5113 -0.0384  0.2249
   56CHL1   H4A 4076   3.867   2.525   3.477 -2.3712  1.1766 -0.0263
   56CHL1   H4B 4077   4.023   2.608   3.446 -1.3471  0.6550 -1.4696
   56CHL1    C5 4078   3.938   2.655   3.644  0.0314  0.3266  0.2495
   56CHL1    C6 4079   4.055   2.683   3.710  0.9665  0.0040  0.6128
   56CHL1    H6 4080   4.145   2.678   3.648  0.1734 -1.2009 -0.4984
   56CHL1    C7 4081   4.063   2.724   3.852 -0.2588 -0.2837  0.0503
   56CHL1   H7A 4082   4.145   2.677   3.910 -0.8239 -1.2761  0.0702
   56CHL1   H7B 4083   4.081   2.834   3.852  1.2033 -0.4473  2.5286
   56CHL1    C8 4084   3.938   2.690   3.932 -1.2051  0.4507  0.3795
   56CHL1    H8 4085   3.932   2.579   3.941 -0.2609  0.2930 -0.6379
   56CHL1   C14 4086   3.953   2.766   4.067 -0.1658  0.4655 -0.2071
   56CHL1   H14 4087   3.966   2.875   4.045  2.0733  0.4111  0.5869
   56CHL1   C15 4088   4.070   2.725   4.155  0.3280  0.1632 -0.0813
   56CHL1  H15A 4089   4.105   2.619   4.161  2.4885  0.7706 -0.8107
   56CHL1  H15B 4090   4.168   2.767   4.124 -0.1558  2.7597  1.6264
   56CHL1   C16 4091   4.023   2.760   4.298  0.3140 -0.0169 -0.1289
   56CHL1  H16A 4092   4.027   2.667   4.358 -0.2970 -0.0300 -0.1032
   56CHL1  H16B 4093   4.086   2.839   4.344 -0.3749  0.1466  0.5483
   56CHL1   C17 4094   3.871   2.798   4.288 -0.2208  0.0964 -0.4052
   56CHL1   H17 4095   3.871   2.907   4.268 -0.1862  0.3861  1.0700
   56CHL1   C13 4096   3.833   2.743   4.148 -0.1660 -0.0421  0.0064
   56CHL1   C18 4097   3.811   2.588   4.169  0.2829  0.0406  0.3692
   56CHL1  H18A 4098   3.723   2.580   4.236 -0.0068  0.6340  0.0706
   56CHL1  H18B 4099   3.788   2.535   4.074 -0.4740  0.7171  0.1586
   56CHL1  H18C 4100   3.890   2.541   4.232 -0.7071  1.5817  2.9237
   56CHL1   C12 4101   3.716   2.816   4.087  0.7961  0.1560  0.2333
   56CHL1  H12A 4102   3.620   2.810   4.143  0.9014  0.7950  0.4833
   56CHL1  H12B 4103   3.738   2.923   4.071 -2.5243  0.8265 -0.6627
   56CHL1   C11 4104   3.692   2.756   3.949  0.5693  0.1195  0.0222
   56CHL1  H11A 4105   3.652   2.653   3.959  1.9624 -0.3137  1.8514
   56CHL1  H11B 4106   3.618   2.819   3.896 -0.7031  0.0084  1.5904
   56CHL1    C9 4107   3.817   2.745   3.855  0.1678 -1.0804 -0.8382
   56CHL1    H9 4108   3.850   2.849   3.833  2.5502 -1.3101  1.1071
   56CHL1   C10 4109   3.798   2.673   3.718 -0.9986 -0.1774 -0.8278
   56CHL1   C19 4110   3.732   2.538   3.744  0.5251 -0.1952 -0.1852
   56CHL1  H19A 4111   3.628   2.549   3.784 -0.1988 -1.2535 -1.6996
   56CHL1  H19B 4112   3.726   2.470   3.657 -0.2859 -2.3778  1.4690
   56CHL1  H19C 4113   3.785   2.482   3.825  1.6722  3.7238  2.0714
   56CHL1    C1 4114   3.706   2.769   3.636 -0.3435 -0.6854  0.0375
   56CHL1   H1A 4115   3.610   2.750   3.688  1.0136 -2.2393  2.1323
   56CHL1   H1B 4116   3.741   2.874   3.640 -0.5264 -0.6550  0.9476
   56CHL1    C2 4117   3.704   2.743   3.490  0.3186  0.3890 -0.0271
   56CHL1   H2A 4118   3.638   2.816   3.437 -1.5756 -0.9325  0.3961
   56CHL1   H2B 4119   3.652   2.645   3.482 -0.6742  1.0401 -2.7545
   56CHL1   C20 4120   3.782   2.771   4.411  0.5114  0.3106 -0.0062
   56CHL1   H20 4121   3.679   2.753   4.374  0.7711 -0.9661 -0.1502
   56CHL1   C21 4122   3.794   2.904   4.493  0.0947 -0.0182 -0.0014
   56CHL1  H21A 4123   3.900   2.918   4.522  0.3617  1.4114 -1.5453
   56CHL1  H21B 4124   3.742   2.901   4.591  0.8961  1.4310  0.4983
   56CHL1  H21C 4125   3.764   2.992   4.432 -0.3741 -1.2950 -1.6819
   56CHL1   C22 4126   3.808   2.650   4.502 -0.1452  0.2216 -0.0951
   56CHL1  H22A 4127   3.790   2.561   4.438 -2.2245  0.6237 -0.1342
   56CHL1  H22B 4128   3.912   2.649   4.541 -0.4401 -0.6229  0.7228
   56CHL1   C23 4129   3.712   2.632   4.628 -0.0073 -0.0116  0.3563
   56CHL1  H23A 4130   3.721   2.720   4.695 -0.1828  0.2053  0.0959
   56CHL1  H23B 4131   3.610   2.632   4.585  0.4611 -1.3280 -0.8589
   56CHL1   C24 4132   3.750   2.504   4.703 -0.4572 -0.1463  0.2954
   56CHL1  H24A 4133   3.775   2.423   4.631  1.4293  0.2717  0.4258
   56CHL1  H24B 4134   3.853   2.530   4.737 -1.4608  2.2763  1.7420
   56CHL1   C25 4135   3.646   2.458   4.806 -0.5218 -0.4004 -0.3323
   56CHL1   H25 4136   3.550   2.442   4.753 -1.1581  3.3024 -0.5218
   56CHL1   C26 4137   3.696   2.330   4.876 -0.6298  0.2126  0.4627
   56CHL1  H26A 4138   3.729   2.258   4.798  2.2834  0.6668  1.1479
   56CHL1  H26B 4139   3.784   2.349   4.940 -0.6251  1.3500  0.1452
   56CHL1  H26C 4140   3.617   2.288   4.941  0.1355 -1.6039  0.2834
   56CHL1   C27 4141   3.620   2.564   4.909  1.0434 -0.1578 -0.4875
   56CHL1  H27A 4142   3.707   2.585   4.975  0.0456 -1.1237  1.2214
   56CHL1  H27B 4143   3.584   2.661   4.868 -0.2932 -0.9457 -1.2483
   56CHL1  H27C 4144   3.544   2.527   4.982  2.7911  1.4991  2.3672
   57SAPC     N 4145   3.915   0.655   7.566 -0.0588  0.3071  0.4069
   57SAPC   C12 4146   3.968   0.653   7.425  0.1396 -0.4452 -0.3623
   57SAPC  H12A 4147   3.924   0.566   7.378  1.0355 -2.4040  2.1878
   57SAPC  H12B 4148   4.075   0.645   7.423  0.1570 -0.2586 -2.1344
   57SAPC   C13 4149   3.764   0.641   7.563  0.4162  0.8954  0.2446
   57SAPC  H13A 4150   3.738   0.541   7.532  3.0539  1.0505 -3.1421
   57SAPC  H13B 4151   3.712   0.667   7.654 -0.3541  0.2202  0.0019
   57SAPC  H13C 4152   3.711   0.698   7.488 -4.6112 -3.0138  0.3002
   57SAPC   C14 4153   3.968   0.541   7.644 -0.4039 -0.1969  0.3718
   57SAPC  H14A 4154   4.071   0.549   7.673 -0.5922 -2.7506  2.0592
   57SAPC  H14B 4155   3.911   0.534   7.736 -0.0515  1.9715  0.8206
   57SAPC  H14C 4156   3.964   0.452   7.584 -0.1390  0.0704 -0.0478
   57SAPC   C15 4157   3.958   0.785   7.635  0.1539 -0.0398 -0.7138
   57SAPC  H15A 4158   3.940   0.870   7.570  0.4877 -0.5947 -1.5523
   57SAPC  H15B 4159   3.896   0.802   7.722  0.9340  0.5625 -0.2627
   57SAPC  H15C 4160   4.063   0.796   7.658 -0.1258  0.6728  0.2746
   57SAPC   C11 4161   3.940   0.779   7.331  0.7075 -0.2859 -0.7445
   57SAPC  H11A 4162   3.958   0.747   7.226  0.7774  1.0397 -1.1451
   57SAPC  H11B 4163   4.017   0.858   7.348 -0.1432  0.5591 -0.7765
   57SAPC     P 4164   3.750   0.963   7.385 -0.0944 -0.1057 -0.1095
   57SAPC   O13 4165   3.608   0.959   7.425  0.2335  0.7498  0.6182
   57SAPC   O14 4166   3.833   1.025   7.491  0.3748  0.1695  0.8231
   57SAPC   O12 4167   3.803   0.823   7.343  0.0517  0.1878  0.2729
   57SAPC   O11 4168   3.762   1.042   7.247 -0.1359 -0.4959  0.1805
   57SAPC    C1 4169   3.890   1.094   7.198 -0.0641 -0.3085  0.6826
   57SAPC    HA 4170   3.893   1.205   7.198  0.8956 -0.2998 -0.8044
   57SAPC    HB 4171   3.974   1.070   7.265  0.5592 -2.5429 -0.7650
   57SAPC    C2 4172   3.917   1.051   7.050  0.1949  0.0564  0.2730
   57SAPC    HS 4173   3.865   1.113   6.974  0.2231  0.9830  1.0057
   57SAPC   O21 4174   3.876   0.910   7.037 -0.4989  0.0296  0.0178
   57SAPC   C21 4175   3.750   0.892   7.001 -0.3308  0.7180 -0.2813
   57SAPC   O22 4176   3.676   0.985   6.982  0.7257  0.2543  0.2015
   57SAPC   C22 4177   3.716   0.742   7.001 -0.2389  0.2981 -1.2169
   57SAPC   H2R 4178   3.742   0.700   7.101 -2.0696  2.7158  0.4034
   57SAPC   H2S 4179   3.609   0.717   6.987 -0.2897 -0.0069 -0.3274
   57SAPC    C3 4180   4.065   1.075   7.017 -0.4233  0.1434 -0.0676
   57SAPC    HX 4181   4.134   1.026   7.090 -1.3154  0.0156  0.7125
   57SAPC    HY 4182   4.078   1.184   7.035 -1.4617  0.1422  0.8111
   57SAPC   O31 4183   4.094   1.053   6.875 -0.2902  0.4836  0.4381
   57SAPC   C31 4184   4.132   0.928   6.851 -0.1814  0.3779 -0.1171
   57SAPC   O32 4185   4.123   0.833   6.926  0.3785 -0.1291  0.1309
   57SAPC   C32 4186   4.169   0.915   6.705  0.3159  0.4965  0.0010
   57SAPC   H2X 4187   4.083   0.867   6.652  1.1953  0.2160 -1.2274
   57SAPC   H2Y 4188   4.257   0.848   6.709 -0.9380 -1.2175  0.3368
   57SAPC   C23 4189   3.801   0.678   6.888 -0.6718 -0.0896 -0.7474
   57SAPC   H3R 4190   3.807   0.568   6.903  0.2078  0.0621  0.1370
   57SAPC   H3S 4191   3.905   0.718   6.889  0.1592 -2.1185  0.9569
   57SAPC   C24 4192   3.757   0.697   6.743 -0.1205  0.4074 -0.8317
   57SAPC   H4R 4193   3.756   0.806   6.723  2.9802  0.6894  0.1100
   57SAPC   H4S 4194   3.656   0.653   6.722 -0.9794  1.0202  1.6718
   57SAPC   C25 4195   3.862   0.641   6.649  1.1352 -0.3228  0.3125
   57SAPC   H5R 4196   3.942   0.575   6.686  1.2300  0.2226  1.1299
   57SAPC   C26 4197   3.876   0.688   6.523  0.7322 -0.1865  0.0267
   57SAPC   H6R 4198   3.961   0.654   6.461 -1.4082  0.5510 -3.6062
   57SAPC   C27 4199   3.801   0.785   6.437  0.0122 -0.2946 -0.4983
   57SAPC   H7R 4200   3.695   0.778   6.471 -0.2153 -0.7575 -1.2602
   57SAPC   H7S 4201   3.793   0.748   6.332 -0.1259 -2.2703  0.1518
   57SAPC   C28 4202   3.852   0.922   6.448  0.1637 -0.0941  0.5728
   57SAPC   H8R 4203   3.890   0.957   6.545 -1.6509  0.4363  1.1369
   57SAPC   C29 4204   3.846   1.008   6.349 -0.1607 -0.4746  0.8401
   57SAPC   H9R 4205   3.904   1.101   6.353 -0.1066 -0.4904  0.5014
   57SAPC  C210 4206   3.792   0.986   6.215  0.3668 -0.0552  0.5426
   57SAPC  H10R 4207   3.682   0.972   6.223  0.2135  1.8748  3.7530
   57SAPC  H10S 4208   3.840   0.894   6.176  1.2951 -0.4359  2.4752
   57SAPC  C211 4209   3.811   1.101   6.120 -0.2184  0.6717  0.8773
   57SAPC  H11R 4210   3.843   1.197   6.162  0.8528  1.3189 -1.2646
   57SAPC  C212 4211   3.801   1.090   5.987 -0.1389 -0.0963  0.0446
   57SAPC  H12R 4212   3.838   1.170   5.922  0.2371 -0.3107 -0.0089
   57SAPC  C213 4213   3.754   0.968   5.907 -0.3210 -0.4223  0.1409
   57SAPC  H13R 4214   3.644   0.959   5.918 -0.3794 -0.3883 -0.3661
   57SAPC  H13S 4215   3.790   0.871   5.947 -1.2311 -0.2085  1.5203
   57SAPC  C214 4216   3.791   0.992   5.759 -1.3178  0.2707 -1.2920
   57SAPC  H14R 4217   3.897   1.018   5.746 -0.1488 -2.8413  0.8764
   57SAPC  C215 4218   3.709   1.004   5.654 -0.1410 -0.4249  0.6177
   57SAPC  H15R 4219   3.751   1.036   5.557  2.7212 -0.1388  1.8326
   57SAPC  C216 4220   3.557   0.980   5.657  0.3733 -0.3680  0.6545
   57SAPC  H16R 4221   3.513   0.953   5.755  0.4241  0.1270  0.8153
   57SAPC  H16S 4222   3.525   0.910   5.577  1.9580 -0.2181 -0.1469
   57SAPC  C217 4223   3.491   1.118   5.620 -0.4952 -0.4648  0.4387
   57SAPC  H17R 4224   3.523   1.184   5.703  0.8333 -2.9615  2.0594
   57SAPC  H17S 4225   3.380   1.106   5.626 -0.8792  2.3657  0.1055
   57SAPC  C218 4226   3.508   1.177   5.483 -0.3472  0.5155  0.2733
   57SAPC  H18R 4227   3.611   1.218   5.470  0.0062  0.3147  2.1996
   57SAPC  H18S 4228   3.440   1.264   5.468 -1.4425 -0.8139 -3.8787
   57SAPC  C219 4229   3.490   1.078   5.369  0.0843 -0.0264 -0.4213
   57SAPC  H19R 4230   3.394   1.025   5.390  0.5593  0.1228  2.6147
   57SAPC  H19S 4231   3.570   1.002   5.379 -0.6309 -0.7359  0.0645
   57SAPC  C220 4232   3.493   1.130   5.230 -0.1257  0.2127  0.1953
   57SAPC  H20R 4233   3.511   1.046   5.159  0.0819  0.8269 -0.4839
   57SAPC  H20S 4234   3.564   1.215   5.231 -0.9088  0.8837 -0.3890
   57SAPC  H20T 4235   3.394   1.170   5.198 -0.7912 -1.5915 -0.1280
   57SAPC   C33 4236   4.218   1.042   6.627  0.2228 -0.5656 -0.2156
   57SAPC   H3X 4237   4.316   1.068   6.674 -0.0664 -1.3308  0.8560
   57SAPC   H3Y 4238   4.146   1.127   6.631  0.2974 -0.4573 -1.0259
   57SAPC   C34 4239   4.242   1.006   6.477  0.0845  0.1233 -0.5712
   57SAPC   H4X 4240   4.146   0.966   6.437  0.8946  0.4148 -3.0030
   57SAPC   H4Y 4241   4.320   0.929   6.459 -0.2241  0.1625 -2.3089
   57SAPC   C35 4242   4.266   1.138   6.404  0.4104 -0.1796  0.0377
   57SAPC   H5X 4243   4.376   1.152   6.419  0.5239 -0.3862 -0.5662
   57SAPC   H5Y 4244   4.209   1.220   6.452  0.8327 -0.2831  0.7470
   57SAPC   C36 4245   4.250   1.140   6.247  0.2735 -0.4312  0.4110
   57SAPC   H6X 4246   4.151   1.101   6.214  2.0091 -3.0482 -2.1191
   57SAPC   H6Y 4247   4.322   1.067   6.205 -1.0714 -0.4128 -2.0879
   57SAPC   C37 4248   4.282   1.274   6.173 -1.0096 -0.3472 -0.4751
   57SAPC   H7X 4249   4.360   1.340   6.216 -0.8556  0.6987 -2.2603
   57SAPC   H7Y 4250   4.192   1.337   6.187 -0.0486  0.3754  4.0009
   57SAPC   C38 4251   4.301   1.267   6.022 -0.2452  0.2288 -0.0752
   57SAPC   H8X 4252   4.409   1.255   5.996 -1.0286  0.5408 -4.2077
   57SAPC   H8Y 4253   4.274   1.365   5.976 -0.9950  0.2023  0.2946
   57SAPC   C39 4254   4.213   1.162   5.946 -0.1678 -0.4908  0.1559
   57SAPC   H9X 4255   4.112   1.187   5.982  0.4058  0.2699  1.2682
   57SAPC   H9Y 4256   4.240   1.057   5.970  0.1545 -0.7955 -1.3742
   57SAPC  C310 4257   4.228   1.178   5.792  0.0687 -0.2458 -0.3338
   57SAPC  H10X 4258   4.176   1.096   5.738  0.5146  0.4178 -1.8466
   57SAPC  H10Y 4259   4.338   1.167   5.785  0.3107  0.6611  1.5242
   57SAPC  C311 4260   4.173   1.313   5.728 -0.1789  0.0382  0.1709
   57SAPC  H11X 4261   4.232   1.400   5.765 -0.2332  0.6529 -1.1327
   57SAPC  H11Y 4262   4.066   1.337   5.744 -0.0541  0.4120  0.4629
   57SAPC  C312 4263   4.207   1.321   5.578  0.0590 -0.1059 -0.4751
   57SAPC  H12X 4264   4.175   1.230   5.523 -1.5043 -0.4900  1.0141
   57SAPC  H12Y 4265   4.317   1.330   5.565 -0.1863 -0.1457 -3.2085
   57SAPC  C313 4266   4.148   1.449   5.503 -0.8381  0.4705 -0.1896
   57SAPC  H13X 4267   4.234   1.493   5.447  0.9613 -0.1930  1.9351
   57SAPC  H13Y 4268   4.128   1.524   5.582 -0.6862  0.9309 -0.5797
   57SAPC  C314 4269   4.022   1.414   5.423  0.1618 -0.1404 -0.5854
   57SAPC  H14X 4270   3.951   1.375   5.500 -1.6388  1.3912 -1.4039
   57SAPC  H14Y 4271   4.039   1.339   5.343 -1.7105 -1.2234 -0.0541
   57SAPC  C315 4272   3.957   1.535   5.348 -0.2080  0.2485 -0.1181
   57SAPC  H15X 4273   4.036   1.586   5.288 -1.4909  1.0091 -1.2141
   57SAPC  H15Y 4274   3.909   1.599   5.425  1.1297  0.6702  0.3982
   57SAPC  C316 4275   3.857   1.479   5.246  0.0684  0.1522  0.2533
   57SAPC  H16X 4276   3.810   1.395   5.301 -0.3513 -0.3452 -0.8284
   57SAPC  H16Y 4277   3.916   1.428   5.167 -0.4282  0.2400 -0.1794
   57SAPC  C317 4278   3.749   1.569   5.185  0.3324 -0.8523  0.1708
   57SAPC  H17X 4279   3.813   1.639   5.127 -2.8763  1.4010 -0.8944
   57SAPC  H17Y 4280   3.699   1.629   5.264  2.6959 -1.4846  2.3015
   57SAPC  C318 4281   3.651   1.488   5.088 -0.8963 -0.4843 -0.0044
   57SAPC  H18X 4282   3.709   1.437   5.009  0.1900  1.6368 -0.6414
   57SAPC  H18Y 4283   3.578   1.553   5.035 -0.7664  1.0080  1.5324
   57SAPC  H18Z 4284   3.602   1.405   5.143 -0.4472 -0.9896 -0.3606
   58SAPC     N 4285   0.362   0.851   7.522 -0.1121 -0.0426  0.0340
   58SAPC   C12 4286   0.210   0.863   7.519  0.2991 -0.2395 -0.4799
   58SAPC  H12A 4287   0.166   0.788   7.583  1.4438 -1.5575 -1.2011
   58SAPC  H12B 4288   0.168   0.839   7.423 -0.9717 -1.0012  0.2480
   58SAPC   C13 4289   0.419   0.953   7.426 -0.1498  0.4759  0.5795
   58SAPC  H13A 4290   0.394   0.931   7.324 -2.6412  0.8007  1.0530
   58SAPC  H13B 4291   0.387   1.053   7.452 -0.7002  0.1763  1.0943
   58SAPC  H13C 4292   0.526   0.956   7.435 -0.0146 -1.2728 -0.0225
   58SAPC   C14 4293   0.413   0.866   7.661  0.1764 -0.5184 -0.6461
   58SAPC  H14A 4294   0.515   0.831   7.672  0.2553  0.5299  4.2162
   58SAPC  H14B 4295   0.406   0.962   7.709  1.5657 -1.1198  0.8316
   58SAPC  H14C 4296   0.356   0.799   7.724 -0.4357 -1.6079 -2.2921
   58SAPC   C15 4297   0.402   0.717   7.473  0.2970  0.3641 -0.5435
   58SAPC  H15A 4298   0.338   0.642   7.516 -0.0504  2.0140  2.0498
   58SAPC  H15B 4299   0.380   0.720   7.367 -0.0565  0.2490 -0.4720
   58SAPC  H15C 4300   0.504   0.686   7.491  1.0843  2.0223 -1.7309
   58SAPC   C11 4301   0.158   1.007   7.544  0.0816 -0.0627  0.6058
   58SAPC  H11A 4302   0.214   1.059   7.624 -0.4003 -0.2669  1.0852
   58SAPC  H11B 4303   0.061   0.994   7.597 -0.8290 -0.5874 -1.1035
   58SAPC     P 4304   0.027   1.055   7.333  0.6487  0.2710 -0.0507
   58SAPC   O13 4305   0.012   0.909   7.318 -0.5484  0.5678 -0.7488
   58SAPC   O14 4306  -0.089   1.134   7.389 -0.2518 -0.2271  0.0084
   58SAPC   O12 4307   0.156   1.080   7.425 -0.2517 -0.2414  0.1048
   58SAPC   O11 4308   0.080   1.118   7.194  0.3233  0.4841 -0.3248
   58SAPC    C1 4309   0.183   1.062   7.117 -0.4245  0.1712  0.2206
   58SAPC    HA 4310   0.267   1.133   7.104  0.7629 -1.6084 -2.7585
   58SAPC    HB 4311   0.222   0.969   7.163 -0.3744  1.0950  2.1447
   58SAPC    C2 4312   0.137   1.019   6.974  0.7259  1.1372 -0.5986
   58SAPC    HS 4313   0.070   1.097   6.932 -0.3238 -0.3759 -1.8430
   58SAPC   O21 4314   0.081   0.885   6.985  0.0873  0.2090  0.3053
   58SAPC   C21 4315  -0.049   0.883   7.003  0.5788 -0.2289 -0.4433
   58SAPC   O22 4316  -0.122   0.980   7.009  0.1247  0.6831  0.0387
   58SAPC   C22 4317  -0.096   0.735   7.012  0.0217  0.6402 -0.2337
   58SAPC   H2R 4318  -0.018   0.678   7.066 -2.9014 -0.7057  2.8917
   58SAPC   H2S 4319  -0.185   0.747   7.078  0.5792  1.8260  0.3271
   58SAPC    C3 4320   0.267   1.018   6.887  0.2924 -0.0275 -0.4514
   58SAPC    HX 4321   0.320   0.933   6.935  3.5467  0.7533 -2.3936
   58SAPC    HY 4322   0.317   1.116   6.891 -1.6322  1.0512 -1.2123
   58SAPC   O31 4323   0.230   0.968   6.752 -0.1846  0.5976 -0.0452
   58SAPC   C31 4324   0.217   1.073   6.671 -0.3826  0.5467  0.5737
   58SAPC   O32 4325   0.235   1.186   6.709 -0.4414  0.0898 -0.1026
   58SAPC   C32 4326   0.204   1.040   6.524  0.4152  0.7566 -0.2845
   58SAPC   H2X 4327   0.104   0.994   6.510  1.0822 -0.6938 -0.4219
   58SAPC   H2Y 4328   0.288   0.973   6.496  1.7125  1.7483  1.0508
   58SAPC   C23 4329  -0.128   0.675   6.876 -0.5117  0.3824  0.0135
   58SAPC   H3R 4330  -0.165   0.571   6.893  0.4663  0.0878  0.3927
   58SAPC   H3S 4331  -0.032   0.676   6.820  0.8892 -0.3410  2.2934
   58SAPC   C24 4332  -0.238   0.733   6.789 -0.2166  0.0411 -0.7833
   58SAPC   H4R 4333  -0.210   0.839   6.769 -1.3577  0.6195  0.5463
   58SAPC   H4S 4334  -0.331   0.737   6.849  0.0190  1.5536 -0.4773
   58SAPC   C25 4335  -0.254   0.649   6.659  0.0687 -0.0524 -0.0514
   58SAPC   H5R 4336  -0.301   0.550   6.674 -2.1602  0.8808 -0.4693
   58SAPC   C26 4337  -0.236   0.692   6.530 -1.1208 -0.0678 -0.2118
   58SAPC   H6R 4338  -0.257   0.628   6.444  1.1450 -1.1619 -0.0268
   58SAPC   C27 4339  -0.182   0.823   6.473  0.3208  0.2655  0.5229
   58SAPC   H7R 4340  -0.112   0.804   6.388 -0.4250 -1.7807  0.3085
   58SAPC   H7S 4341  -0.125   0.883   6.547  0.4808  0.0305  0.5889
   58SAPC   C28 4342  -0.299   0.910   6.423  0.1360  0.0865 -0.1561
   58SAPC   H8R 4343  -0.396   0.863   6.402 -0.1468  0.5954 -0.0111
   58SAPC   C29 4344  -0.289   1.041   6.398  0.3309 -0.7347  0.2379
   58SAPC   H9R 4345  -0.378   1.090   6.355 -0.1136 -1.5982  0.1471
   58SAPC  C210 4346  -0.151   1.111   6.405 -0.2635  0.0064  0.5272
   58SAPC  H10R 4347  -0.081   1.058   6.337 -0.0519  1.0956 -0.1485
   58SAPC  H10S 4348  -0.121   1.107   6.512 -0.6233  2.7639  0.8025
   58SAPC  C211 4349  -0.152   1.259   6.362  0.1794 -0.0362  0.1212
   58SAPC  H11R 4350  -0.113   1.333   6.433 -2.1342  2.3314 -0.8607
   58SAPC  C212 4351  -0.199   1.315   6.253 -0.0769 -0.2114 -0.1021
   58SAPC  H12R 4352  -0.199   1.425   6.246  0.5690 -0.1806  0.2588
   58SAPC  C213 4353  -0.243   1.245   6.128  0.7429  0.2628  0.2687
   58SAPC  H13R 4354  -0.314   1.310   6.073 -1.5349 -1.8395  0.5535
   58SAPC  H13S 4355  -0.314   1.166   6.160  1.1420  0.0046  0.5326
   58SAPC  C214 4356  -0.143   1.190   6.028  0.1829  0.1007 -0.4681
   58SAPC  H14R 4357  -0.045   1.175   6.075  0.3264  1.5525 -0.2451
   58SAPC  C215 4358  -0.162   1.181   5.894 -0.0544  0.1306 -0.4653
   58SAPC  H15R 4359  -0.079   1.131   5.842  0.8616 -0.3202  1.3484
   58SAPC  C216 4360  -0.289   1.202   5.817 -0.4895 -0.8039  0.8194
   58SAPC  H16R 4361  -0.354   1.280   5.863  1.5055  1.0316  0.6556
   58SAPC  H16S 4362  -0.339   1.102   5.820 -3.3549  0.5194  0.8360
   58SAPC  C217 4363  -0.283   1.252   5.669 -0.0762  0.3840  0.4515
   58SAPC  H17R 4364  -0.246   1.356   5.670  0.5819  0.1653  2.2398
   58SAPC  H17S 4365  -0.387   1.246   5.631 -0.4119  1.7492  1.1232
   58SAPC  C218 4366  -0.180   1.175   5.585  0.1066  0.2052 -0.4248
   58SAPC  H18R 4367  -0.187   1.067   5.610 -3.6231  0.7551  1.5682
   58SAPC  H18S 4368  -0.073   1.190   5.610  0.3819 -0.8543 -0.9203
   58SAPC  C219 4369  -0.174   1.208   5.440 -0.2885  0.6064 -0.0358
   58SAPC  H19R 4370  -0.083   1.160   5.398 -0.1463  0.7347  0.1232
   58SAPC  H19S 4371  -0.156   1.316   5.421  1.1652  0.0839 -1.9771
   58SAPC  C220 4372  -0.306   1.164   5.374  0.1515  0.1424 -0.2966
   58SAPC  H20R 4373  -0.338   1.063   5.407 -1.2621  0.5517 -0.3621
   58SAPC  H20S 4374  -0.311   1.192   5.266  0.3873 -0.0657 -0.3655
   58SAPC  H20T 4375  -0.384   1.229   5.418 -0.8556 -0.6823 -0.8387
   58SAPC   C33 4376   0.223   1.160   6.424  0.4340 -0.0802  0.4891
   58SAPC   H3X 4377   0.317   1.216   6.442 -0.0958  1.0759 -0.2747
   58SAPC   H3Y 4378   0.139   1.232   6.434 -0.0985 -0.2297 -2.2550
   58SAPC   C34 4379   0.224   1.111   6.273 -0.0754  0.0120 -0.1042
   58SAPC   H4X 4380   0.131   1.050   6.267 -0.0708  0.0519 -0.6359
   58SAPC   H4Y 4381   0.308   1.039   6.268  0.4958  0.5391  1.3943
   58SAPC   C35 4382   0.238   1.225   6.173  0.1132 -0.4869  0.3722
   58SAPC   H5X 4383   0.321   1.297   6.191 -1.1613  1.0327  0.4640
   58SAPC   H5Y 4384   0.150   1.293   6.170 -0.0069 -0.6654 -0.5836
   58SAPC   C36 4385   0.249   1.178   6.018 -0.4461  0.8145  0.3459
   58SAPC   H6X 4386   0.148   1.133   6.005  0.0503 -0.5070  0.9209
   58SAPC   H6Y 4387   0.328   1.100   6.010 -0.5063  0.8713 -1.3154
   58SAPC   C37 4388   0.280   1.301   5.923 -0.0840  1.0651 -0.2337
   58SAPC   H7X 4389   0.376   1.348   5.954  0.1718  0.2888  0.1824
   58SAPC   H7Y 4390   0.195   1.370   5.942 -1.9972 -0.8286 -1.4999
   58SAPC   C38 4391   0.289   1.261   5.771  0.0380 -0.0062 -0.1237
   58SAPC   H8X 4392   0.207   1.189   5.748 -0.0497  0.0610 -0.0199
   58SAPC   H8Y 4393   0.385   1.207   5.757  0.2650  0.7440 -1.7117
   58SAPC   C39 4394   0.289   1.378   5.675  0.1465 -0.6171 -1.2428
   58SAPC   H9X 4395   0.369   1.449   5.703  0.1324  1.0682 -4.9429
   58SAPC   H9Y 4396   0.193   1.431   5.691  0.8485  1.2908 -2.8901
   58SAPC  C310 4397   0.312   1.341   5.528  0.0444  0.4729 -0.1218
   58SAPC  H10X 4398   0.419   1.314   5.512 -0.0729  0.2055 -0.4724
   58SAPC  H10Y 4399   0.298   1.436   5.473  2.6869  2.0704  1.7066
   58SAPC  C311 4400   0.238   1.217   5.467 -0.9634 -0.5759 -0.3549
   58SAPC  H11X 4401   0.241   1.230   5.356  2.7398 -3.1491 -0.7468
   58SAPC  H11Y 4402   0.135   1.210   5.507 -0.6737  1.1279  0.8117
   58SAPC  C312 4403   0.300   1.077   5.494 -0.4334  0.1696  0.1468
   58SAPC  H12X 4404   0.310   1.067   5.604 -1.8180  1.3986  0.4135
   58SAPC  H12Y 4405   0.398   1.069   5.443 -0.5452 -0.4023  0.0122
   58SAPC  C313 4406   0.219   0.960   5.432  0.0455  0.1342  0.3594
   58SAPC  H13X 4407   0.216   0.983   5.324  2.6741 -0.9855 -0.0205
   58SAPC  H13Y 4408   0.120   0.948   5.482 -0.0420 -3.0611 -0.3956
   58SAPC  C314 4409   0.285   0.824   5.462 -0.2239 -0.4690  0.0476
   58SAPC  H14X 4410   0.284   0.802   5.571  2.8649 -0.7697  0.1017
   58SAPC  H14Y 4411   0.391   0.831   5.430  0.0122 -1.0828  0.6811
   58SAPC  C315 4412   0.232   0.700   5.383  0.2772 -0.0335  0.2508
   58SAPC  H15X 4413   0.265   0.697   5.277  1.5882 -1.9816  0.6546
   58SAPC  H15Y 4414   0.121   0.705   5.375  0.2401 -0.1172  0.6667
   58SAPC  C316 4415   0.272   0.564   5.451  0.1419  0.0215  0.2453
   58SAPC  H16X 4416   0.226   0.553   5.552 -1.5612 -1.5657 -0.6479
   58SAPC  H16Y 4417   0.383   0.573   5.463  0.2915 -1.6203  0.3076
   58SAPC  C317 4418   0.223   0.428   5.389  0.2509 -0.2425 -0.4229
   58SAPC  H17X 4419   0.257   0.351   5.462  1.7178 -1.9345 -2.7543
   58SAPC  H17Y 4420   0.282   0.406   5.297 -0.0031 -0.8565 -0.4389
   58SAPC  C318 4421   0.069   0.414   5.365  0.1263  0.0259  0.0051
   58SAPC  H18X 4422   0.011   0.410   5.459 -1.6716  0.1713 -1.0497
   58SAPC  H18Y 4423   0.038   0.325   5.307 -3.5824  1.4076 -0.4059
   58SAPC  H18Z 4424   0.021   0.488   5.298 -0.0289  0.2096  0.3160
   59SAPC     N 4425   6.692   5.097   7.313 -0.1148 -0.2862 -0.4211
   59SAPC   C12 4426   6.796   5.102   7.199 -0.0044  0.7456  0.0057
   59SAPC  H12A 4427   6.891   5.118   7.248  0.2219 -0.8066  0.1001
   59SAPC  H12B 4428   6.791   5.186   7.130  1.1218  0.0058 -1.0181
   59SAPC   C13 4429   6.557   5.051   7.263  0.0043  0.1752 -0.2118
   59SAPC  H13A 4430   6.485   5.059   7.343 -0.8692  1.4334 -1.0802
   59SAPC  H13B 4431   6.511   5.117   7.191  0.2442  0.0891 -0.4448
   59SAPC  H13C 4432   6.571   4.952   7.223  1.0331  0.7493 -1.3327
   59SAPC   C14 4433   6.742   5.014   7.428 -0.6047 -0.4496  0.3744
   59SAPC  H14A 4434   6.673   5.014   7.511 -0.4175  1.8657  0.5947
   59SAPC  H14B 4435   6.768   4.913   7.401  0.6845 -0.0804  0.1878
   59SAPC  H14C 4436   6.828   5.063   7.472 -0.3838 -1.0016  0.5668
   59SAPC   C15 4437   6.676   5.240   7.367 -0.3444 -0.9984 -0.2820
   59SAPC  H15A 4438   6.589   5.239   7.430  0.1645 -0.9091  0.4268
   59SAPC  H15B 4439   6.765   5.269   7.421 -0.8859  0.4859 -0.1384
   59SAPC  H15C 4440   6.656   5.308   7.285 -0.7030 -1.0247 -0.2213
   59SAPC   C11 4441   6.820   4.969   7.125  0.0562  0.0680 -0.0168
   59SAPC  H11A 4442   6.890   4.989   7.041 -1.1358 -0.1985 -1.1104
   59SAPC  H11B 4443   6.725   4.934   7.079 -0.0336  0.6224 -0.2722
   59SAPC     P 4444   7.024   4.877   7.262  0.4443 -0.0517 -0.1692
   59SAPC   O13 4445   7.080   5.011   7.285 -0.4914 -0.0530  0.6827
   59SAPC   O14 4446   7.043   4.785   7.381  0.0200 -0.4456  0.4745
   59SAPC   O12 4447   6.871   4.871   7.215 -0.1258  0.1682 -0.4860
   59SAPC   O11 4448   7.102   4.819   7.139 -0.5479  0.0828 -0.1698
   59SAPC    C1 4449   7.078   4.692   7.084  0.6414  0.0299 -0.0458
   59SAPC    HA 4450   7.163   4.632   7.045  1.2315  0.5091  0.4711
   59SAPC    HB 4451   7.008   4.631   7.144 -0.1632 -1.3883 -2.3200
   59SAPC    C2 4452   6.995   4.703   6.955 -0.5416  0.2744  0.1964
   59SAPC    HS 4453   6.912   4.770   6.985 -0.0973  1.1469 -0.4659
   59SAPC   O21 4454   6.959   4.581   6.905 -0.5084  0.1186 -0.1372
   59SAPC   C21 4455   6.842   4.573   6.846  0.3223 -0.6425 -0.2651
   59SAPC   O22 4456   6.764   4.669   6.830 -0.3702  0.6508 -0.3486
   59SAPC   C22 4457   6.806   4.434   6.792 -0.0822 -0.7204 -0.2831
   59SAPC   H2R 4458   6.905   4.392   6.764  0.5342 -0.8048  1.8158
   59SAPC   H2S 4459   6.753   4.373   6.869  1.1570 -0.2298  0.9975
   59SAPC    C3 4460   7.067   4.790   6.844  0.2036 -0.3916  0.4005
   59SAPC    HX 4461   7.169   4.746   6.840  0.4216 -0.0529  1.7275
   59SAPC    HY 4462   7.073   4.895   6.880 -2.3598  0.2916 -0.8965
   59SAPC   O31 4463   6.997   4.783   6.719  0.0034 -0.0117 -0.4940
   59SAPC   C31 4464   6.909   4.881   6.699 -0.0840 -0.0113 -0.3110
   59SAPC   O32 4465   6.901   4.989   6.757  0.1745 -0.0656 -0.2908
   59SAPC   C32 4466   6.831   4.852   6.575 -0.0919 -0.8503  0.1136
   59SAPC   H2X 4467   6.757   4.932   6.553  0.7007 -0.6599 -2.2004
   59SAPC   H2Y 4468   6.763   4.764   6.582 -1.1761 -0.2536 -1.9220
   59SAPC   C23 4469   6.719   4.457   6.671  0.2187 -0.2474  0.0581
   59SAPC   H3R 4470   6.742   4.537   6.597 -0.1408 -0.2863 -0.0981
   59SAPC   H3S 4471   6.618   4.491   6.703 -0.7924 -1.1620 -1.9229
   59SAPC   C24 4472   6.696   4.332   6.579 -0.3490 -0.1226 -0.0995
   59SAPC   H4R 4473   6.612   4.371   6.518  0.1529  0.8241 -0.2027
   59SAPC   H4S 4474   6.657   4.259   6.653 -0.3937 -0.1291 -0.1299
   59SAPC   C25 4475   6.819   4.277   6.510  0.3234 -0.1682 -0.1820
   59SAPC   H5R 4476   6.896   4.247   6.582 -1.0309 -1.0735  0.9425
   59SAPC   C26 4477   6.843   4.297   6.379  0.4996 -0.5931  0.2191
   59SAPC   H6R 4478   6.935   4.250   6.339 -1.6505 -3.9036 -1.3335
   59SAPC   C27 4479   6.747   4.350   6.280 -0.1934 -0.1779  0.3779
   59SAPC   H7R 4480   6.784   4.453   6.264 -0.8196 -0.0019  0.0074
   59SAPC   H7S 4481   6.644   4.362   6.322  0.7003 -0.1036  2.7197
   59SAPC   C28 4482   6.740   4.267   6.156  0.6408  0.2190  0.5014
   59SAPC   H8R 4483   6.754   4.160   6.175  0.8702  0.6058  2.7019
   59SAPC   C29 4484   6.702   4.304   6.030 -0.4492  0.0745 -0.4658
   59SAPC   H9R 4485   6.712   4.232   5.948  0.7032 -1.4962  0.9666
   59SAPC  C210 4486   6.656   4.451   5.999  0.3660  1.2871  0.3550
   59SAPC  H10R 4487   6.745   4.500   5.954  0.8803 -1.0785 -1.4478
   59SAPC  H10S 4488   6.634   4.502   6.095 -2.0016 -1.5482  1.4959
   59SAPC  C211 4489   6.518   4.456   5.927 -0.2770 -0.4063  0.0402
   59SAPC  H11R 4490   6.433   4.461   5.996  0.7390 -2.0751  1.4691
   59SAPC  C212 4491   6.476   4.471   5.798  0.1739  0.1834 -0.8692
   59SAPC  H12R 4492   6.367   4.476   5.783 -0.1792 -1.8205  0.7076
   59SAPC  C213 4493   6.573   4.471   5.679  0.0269  0.5636 -1.0834
   59SAPC  H13R 4494   6.680   4.460   5.707 -0.3638  1.2566  0.8561
   59SAPC  H13S 4495   6.560   4.572   5.637 -0.8661  0.4451 -1.1052
   59SAPC  C214 4496   6.546   4.359   5.581 -0.1958 -0.0899 -0.2064
   59SAPC  H14R 4497   6.480   4.276   5.609  1.2586 -0.8126  1.2760
   59SAPC  C215 4498   6.595   4.351   5.452 -0.1670 -0.8124 -0.3225
   59SAPC  H15R 4499   6.580   4.262   5.390  0.8284 -0.5443 -0.9682
   59SAPC  C216 4500   6.694   4.455   5.403 -0.0737  0.0832  0.8757
   59SAPC  H16R 4501   6.794   4.408   5.408 -0.4683 -0.7081  1.4938
   59SAPC  H16S 4502   6.702   4.547   5.464 -0.8472  0.5960  0.2322
   59SAPC  C217 4503   6.657   4.506   5.262 -0.0328 -0.1085 -0.2604
   59SAPC  H17R 4504   6.730   4.586   5.237 -1.7012  1.4958 -0.2068
   59SAPC  H17S 4505   6.558   4.557   5.257  0.0220  0.0165 -0.0664
   59SAPC  C218 4506   6.666   4.394   5.159 -0.3175 -0.0199  0.4322
   59SAPC  H18R 4507   6.583   4.321   5.173  0.6318 -1.3383 -0.6816
   59SAPC  H18S 4508   6.756   4.330   5.171 -1.4622 -1.8128 -0.1523
   59SAPC  C219 4509   6.677   4.431   5.007 -0.2324  0.2848 -0.3525
   59SAPC  H19R 4510   6.772   4.488   5.002  2.9087 -4.4801 -1.3580
   59SAPC  H19S 4511   6.588   4.487   4.971 -0.0532 -0.4532 -2.0340
   59SAPC  C220 4512   6.692   4.298   4.927  0.1718 -0.1297 -0.2532
   59SAPC  H20R 4513   6.721   4.325   4.824 -1.7001 -0.3637 -0.8911
   59SAPC  H20S 4514   6.595   4.244   4.927 -0.4484  0.9297 -1.6246
   59SAPC  H20T 4515   6.776   4.243   4.975  2.0339  3.7095  1.2711
   59SAPC   C33 4516   6.911   4.843   6.447  0.0735 -1.0753  0.1503
   59SAPC   H3X 4517   6.977   4.753   6.440 -0.8904 -1.7463 -0.5549
   59SAPC   H3Y 4518   6.981   4.929   6.436 -1.1275  0.2248  2.1345
   59SAPC   C34 4519   6.812   4.853   6.328 -0.3447 -1.3339 -0.3777
   59SAPC   H4X 4520   6.769   4.955   6.325 -2.6097 -2.1644  0.9273
   59SAPC   H4Y 4521   6.729   4.781   6.348 -1.2389  0.1848  1.7202
   59SAPC   C35 4522   6.881   4.823   6.196  0.3941 -0.3268 -0.0084
   59SAPC   H5X 4523   6.914   4.717   6.205 -2.2162 -1.2236  0.0065
   59SAPC   H5Y 4524   6.965   4.895   6.189  0.7320 -0.7330 -0.1747
   59SAPC   C36 4525   6.785   4.840   6.078  0.6210  0.0235 -0.7185
   59SAPC   H6X 4526   6.732   4.938   6.079 -0.8639 -0.7472  0.2103
   59SAPC   H6Y 4527   6.709   4.759   6.083  1.7278 -1.2991 -3.4059
   59SAPC   C37 4528   6.849   4.820   5.942 -0.0579  0.6206 -0.5773
   59SAPC   H7X 4529   6.885   4.715   5.931  1.4487  1.2654 -2.2115
   59SAPC   H7Y 4530   6.942   4.881   5.935  2.0220 -2.1532  0.8305
   59SAPC   C38 4531   6.749   4.836   5.825 -0.1674 -0.2064  0.4854
   59SAPC   H8X 4532   6.717   4.943   5.822  0.4991  0.0357 -3.2761
   59SAPC   H8Y 4533   6.664   4.765   5.826 -0.0598 -0.3356  0.4539
   59SAPC   C39 4534   6.817   4.816   5.693  0.6765  0.2475  1.0569
   59SAPC   H9X 4535   6.836   4.707   5.682 -0.0051  0.0524  1.7912
   59SAPC   H9Y 4536   6.918   4.860   5.711  1.2804 -1.1361  1.1732
   59SAPC  C310 4537   6.747   4.870   5.569  0.4497 -0.1478 -0.1872
   59SAPC  H10X 4538   6.641   4.890   5.593  0.4550  1.6047 -1.3943
   59SAPC  H10Y 4539   6.743   4.789   5.493 -0.9338  0.5397 -0.8788
   59SAPC  C311 4540   6.813   4.996   5.502 -0.0513  0.0881 -0.0958
   59SAPC  H11X 4541   6.916   4.967   5.470 -0.4580 -1.6229  0.0720
   59SAPC  H11Y 4542   6.818   5.078   5.576 -0.2519  0.1644 -0.1666
   59SAPC  C312 4543   6.741   5.040   5.376 -0.0580 -0.7267 -0.2171
   59SAPC  H12X 4544   6.639   5.066   5.412  0.7002  0.6790  1.0387
   59SAPC  H12Y 4545   6.732   4.951   5.310 -2.7918 -0.8248  0.1548
   59SAPC  C313 4546   6.790   5.164   5.303 -0.3491 -0.1202 -0.3069
   59SAPC  H13X 4547   6.811   5.244   5.377 -1.0705 -1.2731  1.1955
   59SAPC  H13Y 4548   6.711   5.210   5.240 -0.8678  1.5464  1.4585
   59SAPC  C314 4549   6.910   5.148   5.203  0.8245  0.4303 -0.3566
   59SAPC  H14X 4550   6.870   5.076   5.130  0.4397  1.2760 -0.9987
   59SAPC  H14Y 4551   6.992   5.091   5.252 -0.9610 -0.1876  2.1146
   59SAPC  C315 4552   6.944   5.287   5.149  0.0683 -0.3691  0.0109
   59SAPC  H15X 4553   6.959   5.351   5.238 -3.2193 -0.3130  0.6809
   59SAPC  H15Y 4554   6.869   5.327   5.077  0.4955 -0.6424 -0.5884
   59SAPC  C316 4555   7.070   5.283   5.060  0.0563  0.2240  0.6537
   59SAPC  H16X 4556   7.055   5.213   4.975 -2.5564  0.7625  0.5817
   59SAPC  H16Y 4557   7.157   5.249   5.119  1.8013  1.8472 -0.8609
   59SAPC  C317 4558   7.104   5.409   4.987 -0.8624 -0.3658 -0.0642
   59SAPC  H17X 4559   7.087   5.494   5.058 -0.4269 -1.4379  1.3761
   59SAPC  H17Y 4560   7.029   5.427   4.908 -1.0355  2.3153  0.6098
   59SAPC  C318 4561   7.248   5.404   4.937  1.0048  0.6625 -0.7679
   59SAPC  H18X 4562   7.319   5.393   5.022  1.2624  1.6577 -0.8446
   59SAPC  H18Y 4563   7.268   5.501   4.887 -1.0057  1.2627 -0.4873
   59SAPC  H18Z 4564   7.273   5.320   4.868  0.1536 -0.7266  0.5781
   60SAPC     N 4565   5.893   2.882   7.024 -0.5664 -0.3003 -0.3931
   60SAPC   C12 4566   6.019   2.948   6.962  0.5461 -0.1964 -0.6764
   60SAPC  H12A 4567   5.992   3.034   6.902  2.9427  2.3207  1.5553
   60SAPC  H12B 4568   6.068   2.876   6.898  1.2264 -1.7308  1.4660
   60SAPC   C13 4569   5.803   2.828   6.919 -0.3273  1.0864  0.0092
   60SAPC  H13A 4570   5.863   2.777   6.846 -0.5764 -1.2417  1.3595
   60SAPC  H13B 4571   5.729   2.763   6.963 -0.2194  2.1089  1.7995
   60SAPC  H13C 4572   5.749   2.906   6.866  0.9677  2.2992  0.3962
   60SAPC   C14 4573   5.931   2.769   7.121  0.6238  0.6283  0.3555
   60SAPC  H14A 4574   5.989   2.692   7.072 -2.0804 -2.2305  1.2751
   60SAPC  H14B 4575   5.986   2.813   7.202 -0.2930  1.3756  0.5956
   60SAPC  H14C 4576   5.841   2.719   7.154  0.7379  0.9158  1.1174
   60SAPC   C15 4577   5.805   2.979   7.099  0.5737 -0.0900  0.4969
   60SAPC  H15A 4578   5.713   2.934   7.134  1.0925 -0.2283  1.7661
   60SAPC  H15B 4579   5.847   3.025   7.188 -0.2701 -1.0588  1.4342
   60SAPC  H15C 4580   5.792   3.065   7.036  1.5791 -1.5246 -1.7960
   60SAPC   C11 4581   6.125   3.004   7.066  0.5359  0.2911  0.1176
   60SAPC  H11A 4582   6.219   3.031   7.014 -0.2029 -0.2520 -1.5476
   60SAPC  H11B 4583   6.154   2.915   7.127  1.2902  0.4896  0.0542
   60SAPC     P 4584   6.040   3.238   7.127 -0.1151  0.3084  0.0629
   60SAPC   O13 4585   5.923   3.283   7.205 -0.2368  0.0238  0.2313
   60SAPC   O14 4586   6.165   3.308   7.135  0.1402  0.0615  0.3280
   60SAPC   O12 4587   6.077   3.093   7.170 -0.2299  0.1697  0.1773
   60SAPC   O11 4588   5.983   3.223   6.983  0.3218 -0.5733 -0.6925
   60SAPC    C1 4589   6.068   3.263   6.871 -0.9162  0.0015 -0.1147
   60SAPC    HA 4590   6.175   3.248   6.897 -1.3959 -0.7648  1.5509
   60SAPC    HB 4591   6.044   3.203   6.780  1.0132 -0.2536 -0.4963
   60SAPC    C2 4592   6.051   3.423   6.838 -0.2303  0.2932  0.5021
   60SAPC    HS 4593   6.065   3.485   6.929 -5.0009 -0.7168  2.1988
   60SAPC   O21 4594   5.917   3.439   6.779  0.2180 -0.0485  0.3978
   60SAPC   C21 4595   5.853   3.550   6.822 -0.2868 -0.1208  0.1083
   60SAPC   O22 4596   5.881   3.620   6.918  0.3189 -0.3970  0.0652
   60SAPC   C22 4597   5.716   3.548   6.750  0.3189 -0.0681 -0.3536
   60SAPC   H2R 4598   5.726   3.505   6.648 -0.5147 -0.5216 -0.2589
   60SAPC   H2S 4599   5.653   3.474   6.803  0.6943 -0.8282 -0.9605
   60SAPC    C3 4600   6.159   3.470   6.730  0.3681  0.3070 -0.7038
   60SAPC    HX 4601   6.263   3.453   6.765  0.4169 -2.3139 -1.8886
   60SAPC    HY 4602   6.150   3.580   6.721 -1.5028  0.4518  1.7224
   60SAPC   O31 4603   6.131   3.383   6.616  0.5314 -0.1127 -0.3536
   60SAPC   C31 4604   6.043   3.425   6.530  0.0646 -0.0073 -0.0866
   60SAPC   O32 4605   5.997   3.536   6.521 -0.0431 -0.5630 -0.0747
   60SAPC   C32 4606   6.028   3.306   6.437  0.1131  0.5225  0.5865
   60SAPC   H2X 4607   5.954   3.244   6.491 -0.3906  1.5374  1.0896
   60SAPC   H2Y 4608   6.124   3.250   6.428  0.0328  0.3225  0.9513
   60SAPC   C23 4609   5.643   3.682   6.742 -0.5292 -0.0024 -0.3774
   60SAPC   H3R 4610   5.694   3.760   6.802  0.7001 -0.8644 -0.2693
   60SAPC   H3S 4611   5.539   3.668   6.778 -0.9176  0.1292 -1.4080
   60SAPC   C24 4612   5.643   3.740   6.604 -0.1567 -0.1521  1.0237
   60SAPC   H4R 4613   5.617   3.662   6.529 -0.4882 -0.4921  1.4887
   60SAPC   H4S 4614   5.741   3.782   6.570 -1.1306  1.0837 -0.3939
   60SAPC   C25 4615   5.538   3.853   6.586 -0.2057 -0.1465  0.2029
   60SAPC   H5R 4616   5.493   3.877   6.683  0.3140 -0.9093  0.6447
   60SAPC   C26 4617   5.504   3.919   6.476  0.0013  0.5831 -0.4230
   60SAPC   H6R 4618   5.439   4.007   6.488 -1.6655 -0.1232 -3.4259
   60SAPC   C27 4619   5.565   3.902   6.339  0.4259  0.5665  0.2794
   60SAPC   H7R 4620   5.658   3.841   6.343  0.4868  0.4841 -1.6005
   60SAPC   H7S 4621   5.589   3.996   6.285 -1.7626  2.0816  1.7894
   60SAPC   C28 4622   5.477   3.821   6.256 -0.0603 -0.3224 -0.2928
   60SAPC   H8R 4623   5.418   3.744   6.307  0.4519 -0.7472 -0.3442
   60SAPC   C29 4624   5.463   3.829   6.120  0.3526  0.2587  0.4847
   60SAPC   H9R 4625   5.393   3.755   6.080  0.4337 -0.3514  1.4545
   60SAPC  C210 4626   5.547   3.927   6.032 -0.3014 -0.1931 -0.1318
   60SAPC  H10R 4627   5.578   3.876   5.938 -0.7678 -2.7037  1.0034
   60SAPC  H10S 4628   5.644   3.953   6.080 -1.9611  2.3968  2.0885
   60SAPC  C211 4629   5.470   4.057   6.013 -0.7666 -0.3251 -0.1421
   60SAPC  H11R 4630   5.414   4.095   6.100 -0.0266  0.5883 -0.0540
   60SAPC  C212 4631   5.462   4.123   5.893 -0.7845 -0.8612 -1.1972
   60SAPC  H12R 4632   5.393   4.208   5.884 -2.1630 -1.6930  0.7514
   60SAPC  C213 4633   5.534   4.090   5.765  0.0427  0.2050  0.2760
   60SAPC  H13R 4634   5.641   4.061   5.778  0.1960  0.9610  0.8032
   60SAPC  H13S 4635   5.537   4.189   5.713 -0.7845  0.2343  0.2729
   60SAPC  C214 4636   5.468   3.986   5.681  0.7719  0.1510  0.3958
   60SAPC  H14R 4637   5.364   4.003   5.649  0.6994 -1.4102 -0.3254
   60SAPC  C215 4638   5.521   3.870   5.631 -0.1709 -0.1852 -0.2239
   60SAPC  H15R 4639   5.463   3.798   5.571 -0.8350  0.8929 -0.9084
   60SAPC  C216 4640   5.655   3.808   5.655  0.9474 -0.1996 -0.1601
   60SAPC  H16R 4641   5.650   3.699   5.630  1.3456  0.0844 -1.5924
   60SAPC  H16S 4642   5.691   3.827   5.758 -1.5761  2.1417  0.4026
   60SAPC  C217 4643   5.748   3.883   5.553 -0.6015  0.2999 -0.3856
   60SAPC  H17R 4644   5.760   3.992   5.571 -1.3250  0.1812  0.9927
   60SAPC  H17S 4645   5.719   3.868   5.447 -0.0588  2.0343 -0.8110
   60SAPC  C218 4646   5.890   3.819   5.561  0.4448 -0.3517  0.1899
   60SAPC  H18R 4647   5.882   3.713   5.527 -0.8639  0.2515 -1.5484
   60SAPC  H18S 4648   5.932   3.841   5.661  0.3653  0.9340 -0.0404
   60SAPC  C219 4649   5.995   3.882   5.459 -0.2302 -0.5347  0.2750
   60SAPC  H19R 4650   6.089   3.824   5.471  0.2185  0.4385  1.8850
   60SAPC  H19S 4651   6.010   3.991   5.478  3.0931 -0.7262 -0.5296
   60SAPC  C220 4652   5.961   3.856   5.312  0.3017 -0.5685 -0.5469
   60SAPC  H20R 4653   6.048   3.887   5.249 -0.1843  0.4572 -0.7399
   60SAPC  H20S 4654   5.877   3.920   5.279  0.8287  0.1921 -0.4505
   60SAPC  H20T 4655   5.933   3.751   5.293 -0.2932 -0.4452 -0.3788
   60SAPC   C33 4656   5.980   3.335   6.294  0.2650  0.3422 -0.4804
   60SAPC   H3X 4657   6.060   3.369   6.225  1.2268 -0.3191  0.2902
   60SAPC   H3Y 4658   5.898   3.411   6.304 -0.2889 -0.3787  0.8258
   60SAPC   C34 4659   5.926   3.206   6.235 -0.1829 -1.2196 -0.2535
   60SAPC   H4X 4660   5.831   3.178   6.285  0.1654 -0.5120  0.8384
   60SAPC   H4Y 4661   6.009   3.133   6.244  0.7146 -0.2672 -0.6018
   60SAPC   C35 4662   5.899   3.221   6.080 -0.2957  0.1284 -0.2399
   60SAPC   H5X 4663   5.852   3.320   6.063  0.7935  1.1723  2.3468
   60SAPC   H5Y 4664   5.828   3.141   6.051 -1.4206  1.4012 -1.0995
   60SAPC   C36 4665   6.017   3.178   5.995  0.1231  0.5116 -0.3372
   60SAPC   H6X 4666   6.035   3.072   6.026 -0.4257  0.8215  1.1464
   60SAPC   H6Y 4667   6.095   3.253   6.023 -0.9591  0.9705  1.6608
   60SAPC   C37 4668   5.982   3.169   5.839  0.0219 -0.1943 -0.3418
   60SAPC   H7X 4669   5.899   3.099   5.821  1.0704 -1.7570  0.6577
   60SAPC   H7Y 4670   6.074   3.128   5.792 -1.1308 -1.9558 -1.1716
   60SAPC   C38 4671   5.945   3.293   5.755 -0.3780 -0.1131 -0.0619
   60SAPC   H8X 4672   6.027   3.367   5.745  0.0069 -0.3656  1.0108
   60SAPC   H8Y 4673   5.852   3.346   5.786 -0.2972  0.4327 -0.7282
   60SAPC   C39 4674   5.910   3.250   5.614  0.9558  0.2832 -0.1784
   60SAPC   H9X 4675   5.883   3.340   5.555  0.7138  0.4639  0.2030
   60SAPC   H9Y 4676   5.816   3.194   5.634  0.2898  2.6124  4.8069
   60SAPC  C310 4677   6.001   3.155   5.544 -0.8532  1.0803 -0.1896
   60SAPC  H10X 4678   6.008   3.058   5.597  2.1142  0.4817 -1.4229
   60SAPC  H10Y 4679   6.107   3.190   5.546 -0.9998  1.5310  2.3950
   60SAPC  C311 4680   5.961   3.128   5.399  0.8369  0.1646  0.2716
   60SAPC  H11X 4681   5.872   3.061   5.404 -0.1482  1.3536 -0.4774
   60SAPC  H11Y 4682   6.029   3.057   5.347 -0.6712 -1.0912 -0.0655
   60SAPC  C312 4683   5.924   3.247   5.308  0.0735 -0.1376  0.2547
   60SAPC  H12X 4684   6.007   3.320   5.304 -0.5960  0.6158 -0.0876
   60SAPC  H12Y 4685   5.839   3.306   5.349 -0.6704 -0.6969 -0.4389
   60SAPC  C313 4686   5.891   3.211   5.158 -0.3623 -0.9475 -0.0888
   60SAPC  H13X 4687   5.791   3.166   5.147 -0.2473 -1.0376 -0.7843
   60SAPC  H13Y 4688   5.975   3.146   5.126  0.4857  0.2541 -0.3691
   60SAPC  C314 4689   5.882   3.329   5.061  0.4131 -0.0716 -0.4005
   60SAPC  H14X 4690   5.972   3.395   5.066  0.1094  0.2581  2.9576
   60SAPC  H14Y 4691   5.794   3.385   5.099  0.6866  0.8280 -1.0485
   60SAPC  C315 4692   5.840   3.299   4.920  0.2946  0.3841  0.7639
   60SAPC  H15X 4693   5.740   3.250   4.919 -0.0594  0.9981 -2.1561
   60SAPC  H15Y 4694   5.922   3.231   4.888 -0.4665 -0.0248 -0.3533
   60SAPC  C316 4695   5.811   3.414   4.826  0.3566  0.0006  0.8286
   60SAPC  H16X 4696   5.776   3.361   4.735 -0.1281 -0.4354  1.2637
   60SAPC  H16Y 4697   5.900   3.474   4.800  0.4977  0.3743  2.1036
   60SAPC  C317 4698   5.698   3.509   4.865 -0.7152  0.0735 -0.4348
   60SAPC  H17X 4699   5.720   3.600   4.924 -2.3343 -0.2607  0.7732
   60SAPC  H17Y 4700   5.621   3.464   4.932  0.1329  1.1699  1.3256
   60SAPC  C318 4701   5.619   3.542   4.739  0.6816  0.0209  0.0440
   60SAPC  H18X 4702   5.570   3.449   4.703  2.7090 -1.2548  0.3773
   60SAPC  H18Y 4703   5.681   3.577   4.654 -0.3929 -0.2952 -0.8848
   60SAPC  H18Z 4704   5.543   3.621   4.755  2.0850  2.3339 -3.5190
   61SAPC     N 4705   4.946   3.380   7.398 -0.0496  0.1818 -0.0282
   61SAPC   C12 4706   5.064   3.342   7.315 -0.5383 -0.2185 -0.0199
   61SAPC  H12A 4707   5.119   3.434   7.302 -0.4514 -0.4703 -1.6600
   61SAPC  H12B 4708   5.027   3.312   7.218 -2.2897  0.5900  0.3515
   61SAPC   C13 4709   4.856   3.263   7.421 -0.2985 -0.9188  0.3360
   61SAPC  H13A 4710   4.803   3.241   7.329  0.7959 -1.5163 -0.1767
   61SAPC  H13B 4711   4.909   3.173   7.446  0.9248  0.0602  1.3978
   61SAPC  H13C 4712   4.780   3.283   7.495  1.5522  1.0136  1.8651
   61SAPC   C14 4713   4.985   3.432   7.539 -0.2362 -0.1269  1.4216
   61SAPC  H14A 4714   5.059   3.364   7.577  0.3055 -0.5685 -0.3317
   61SAPC  H14B 4715   5.031   3.529   7.532 -2.2317  0.7410 -1.9493
   61SAPC  H14C 4716   4.897   3.437   7.602 -0.4674  0.8713  1.0501
   61SAPC   C15 4717   4.870   3.483   7.327  1.2932  0.0327  0.0361
   61SAPC  H15A 4718   4.928   3.570   7.300  2.4963 -1.2398 -1.5954
   61SAPC  H15B 4719   4.820   3.443   7.240  0.5011 -1.0504  0.9651
   61SAPC  H15C 4720   4.789   3.507   7.395  1.9433  0.0283  0.8344
   61SAPC   C11 4721   5.166   3.239   7.362  0.4757 -0.0242 -0.0989
   61SAPC  H11A 4722   5.196   3.255   7.468 -0.2733 -0.7300  0.2321
   61SAPC  H11B 4723   5.257   3.258   7.301  1.1610 -0.3680  0.7871
   61SAPC     P 4724   5.167   2.990   7.256 -0.3792  0.1209  0.3529
   61SAPC   O13 4725   5.307   2.953   7.297  0.0258  0.0143  0.0278
   61SAPC   O14 4726   5.075   2.871   7.248  0.6931  0.7795 -0.1188
   61SAPC   O12 4727   5.111   3.105   7.348  0.2569  0.5966 -1.0496
   61SAPC   O11 4728   5.164   3.062   7.117  0.3636  0.0686  0.8862
   61SAPC    C1 4729   5.042   3.074   7.039 -0.1331 -0.0251  0.0726
   61SAPC    HA 4730   4.956   3.017   7.079 -1.8067  1.9546 -0.5324
   61SAPC    HB 4731   5.004   3.179   7.035  0.5536  0.2291  0.0311
   61SAPC    C2 4732   5.067   3.049   6.885 -0.0235  0.0115  0.0688
   61SAPC    HS 4733   5.106   2.946   6.877  2.2371  0.7741  0.5465
   61SAPC   O21 4734   5.164   3.151   6.844  0.1700 -0.0217 -0.0668
   61SAPC   C21 4735   5.276   3.109   6.804  0.2885 -0.3756  0.3574
   61SAPC   O22 4736   5.313   2.991   6.807 -0.4624  0.8608  0.2170
   61SAPC   C22 4737   5.366   3.222   6.768 -0.9255 -0.1708 -0.5338
   61SAPC   H2R 4738   5.367   3.308   6.837 -0.1086  0.1907 -0.9845
   61SAPC   H2S 4739   5.465   3.175   6.754 -0.8052 -0.0233 -0.1740
   61SAPC    C3 4740   4.938   3.085   6.810  0.1515 -0.2379  0.2669
   61SAPC    HX 4741   4.933   3.195   6.801  1.7984 -0.1629 -0.1760
   61SAPC    HY 4742   4.855   3.038   6.867  0.3037 -2.7170 -1.4054
   61SAPC   O31 4743   4.945   3.006   6.685  0.3296 -0.8967 -0.0892
   61SAPC   C31 4744   4.885   3.073   6.583  0.0314  0.0706 -0.0884
   61SAPC   O32 4745   4.820   3.176   6.592 -0.4968  0.2462 -0.2302
   61SAPC   C32 4746   4.924   3.011   6.448  0.3838  0.8981  0.2866
   61SAPC   H2X 4747   4.854   3.059   6.377 -2.4073 -3.6651 -0.4528
   61SAPC   H2Y 4748   4.900   2.904   6.434 -0.9429  1.0306  1.2937
   61SAPC   C23 4749   5.330   3.297   6.633 -0.6869  0.9258 -0.7317
   61SAPC   H3R 4750   5.242   3.362   6.654  0.5760  2.4143  0.2279
   61SAPC   H3S 4751   5.323   3.222   6.552  4.2204 -1.6658  0.8846
   61SAPC   C24 4752   5.443   3.399   6.594  0.0705 -0.5156 -0.5269
   61SAPC   H4R 4753   5.461   3.474   6.674 -0.5133  0.3977 -1.2396
   61SAPC   H4S 4754   5.394   3.468   6.522  1.2441  0.0697 -0.7895
   61SAPC   C25 4755   5.566   3.335   6.532  0.1997  0.1065  0.1364
   61SAPC   H5R 4756   5.616   3.258   6.593  0.0048  0.0657  0.2447
   61SAPC   C26 4757   5.611   3.360   6.411  0.6185  0.1151  0.0625
   61SAPC   H6R 4758   5.702   3.311   6.373  0.3389 -0.3629  0.0055
   61SAPC   C27 4759   5.552   3.448   6.305 -0.5256 -0.3895  0.3801
   61SAPC   H7R 4760   5.629   3.465   6.227 -0.3236 -0.2764  0.6042
   61SAPC   H7S 4761   5.530   3.549   6.347 -2.8896 -0.2642 -0.9662
   61SAPC   C28 4762   5.424   3.392   6.247  0.2531 -0.5933  0.4586
   61SAPC   H8R 4763   5.368   3.318   6.306  0.1390 -2.9832 -2.4439
   61SAPC   C29 4764   5.398   3.401   6.115  0.0673 -0.2230 -0.3395
   61SAPC   H9R 4765   5.302   3.363   6.076 -0.4072 -0.0419  0.5982
   61SAPC  C210 4766   5.476   3.484   6.012 -0.1453  0.1888  0.0716
   61SAPC  H10R 4767   5.561   3.417   5.986 -0.9413 -0.7837 -0.1122
   61SAPC  H10S 4768   5.507   3.580   6.057  0.5572  0.5192 -1.0667
   61SAPC  C211 4769   5.393   3.532   5.898  0.0325 -0.6682 -1.0280
   61SAPC  H11R 4770   5.307   3.595   5.923  0.2990 -1.1550  1.2868
   61SAPC  C212 4771   5.406   3.492   5.769  0.2605  0.2765 -0.4382
   61SAPC  H12R 4772   5.339   3.535   5.694  0.6914 -1.1045 -1.6660
   61SAPC  C213 4773   5.495   3.387   5.710  0.0175 -0.4556 -0.1054
   61SAPC  H13R 4774   5.544   3.335   5.795 -0.0248  0.9094  0.7751
   61SAPC  H13S 4775   5.584   3.436   5.667 -0.8228 -0.3246 -1.7890
   61SAPC  C214 4776   5.433   3.297   5.605 -0.1382 -0.0774 -0.1844
   61SAPC  H14R 4777   5.392   3.202   5.643  1.6959 -0.6204  0.5315
   61SAPC  C215 4778   5.445   3.314   5.473 -0.2325  0.0998  0.0134
   61SAPC  H15R 4779   5.406   3.240   5.402  0.3106 -1.2747  1.1030
   61SAPC  C216 4780   5.521   3.424   5.408 -0.3125  0.1720  0.6669
   61SAPC  H16R 4781   5.575   3.386   5.319 -1.3639  2.5942 -1.1398
   61SAPC  H16S 4782   5.590   3.472   5.481 -0.5294  2.6649 -0.6390
   61SAPC  C217 4783   5.445   3.536   5.345 -0.0810 -0.1194  0.1907
   61SAPC  H17R 4784   5.387   3.576   5.431 -0.0238 -1.7899  1.0509
   61SAPC  H17S 4785   5.370   3.497   5.272 -2.0055  0.6339  1.6764
   61SAPC  C218 4786   5.538   3.644   5.274 -0.1963  0.7183 -0.1962
   61SAPC  H18R 4787   5.623   3.592   5.225 -0.4478 -0.9682  1.0667
   61SAPC  H18S 4788   5.574   3.721   5.345  0.0515  1.1417 -0.7714
   61SAPC  C219 4789   5.466   3.721   5.163  0.0673 -0.5375  0.0122
   61SAPC  H19R 4790   5.375   3.774   5.199 -0.7884 -1.9245 -0.0522
   61SAPC  H19S 4791   5.433   3.641   5.093 -0.4268 -0.9685  0.7264
   61SAPC  C220 4792   5.566   3.815   5.093 -0.0779  0.5294  0.1628
   61SAPC  H20R 4793   5.610   3.891   5.161 -1.0527  4.8086 -3.5138
   61SAPC  H20S 4794   5.506   3.880   5.025  1.8375  1.3534 -0.8061
   61SAPC  H20T 4795   5.642   3.764   5.029  1.8142  0.1478  2.5893
   61SAPC   C33 4796   5.072   3.061   6.414  0.2954  0.3904 -0.2632
   61SAPC   H3X 4797   5.153   3.009   6.469  0.2932  1.2275  0.5546
   61SAPC   H3Y 4798   5.062   3.171   6.424 -0.4837  0.3053 -0.0447
   61SAPC   C34 4799   5.119   3.037   6.267  0.4008 -0.1844  0.0149
   61SAPC   H4X 4800   5.148   2.932   6.249  2.2953  0.5144 -1.4462
   61SAPC   H4Y 4801   5.209   3.099   6.245  0.7594 -0.6857  0.0672
   61SAPC   C35 4802   5.022   3.094   6.162  0.2815  0.3228 -0.0044
   61SAPC   H5X 4803   4.981   3.190   6.200  0.2613  1.7111 -3.1739
   61SAPC   H5Y 4804   4.935   3.025   6.162  0.6102 -0.1758  2.5457
   61SAPC   C36 4805   5.073   3.104   6.020 -0.0628 -0.2199  0.0262
   61SAPC   H6X 4806   5.014   3.031   5.961 -0.5211 -0.0080  0.2168
   61SAPC   H6Y 4807   5.179   3.070   6.018 -0.3782 -1.1831 -0.7955
   61SAPC   C37 4808   5.074   3.242   5.944 -0.0123 -0.6904 -0.7446
   61SAPC   H7X 4809   5.109   3.325   6.008 -4.3560  2.3119 -1.8531
   61SAPC   H7Y 4810   4.966   3.266   5.930 -0.4932 -1.5392  1.2027
   61SAPC   C38 4811   5.169   3.242   5.830 -0.0775  0.2708 -0.2309
   61SAPC   H8X 4812   5.273   3.216   5.860  0.2588  0.5538 -1.1199
   61SAPC   H8Y 4813   5.179   3.350   5.806 -1.6412  0.6436  0.6514
   61SAPC   C39 4814   5.120   3.173   5.698  0.0936  0.5948 -0.8870
   61SAPC   H9X 4815   5.144   3.065   5.693  1.7544  0.8433  0.6651
   61SAPC   H9Y 4816   5.177   3.211   5.610  0.1761 -0.9339 -1.5268
   61SAPC  C310 4817   4.976   3.200   5.662  0.4665  0.4229  0.1425
   61SAPC  H10X 4818   4.960   3.310   5.673 -0.6782  0.2031  0.8092
   61SAPC  H10Y 4819   4.901   3.158   5.732 -0.6289  0.8231 -0.7535
   61SAPC  C311 4820   4.946   3.149   5.519 -0.1335  0.2994  0.5252
   61SAPC  H11X 4821   4.838   3.148   5.492  0.3984  1.1580 -1.7936
   61SAPC  H11Y 4822   4.988   3.047   5.509  0.1422  0.4503  0.1632
   61SAPC  C312 4823   5.003   3.250   5.414  0.3068 -0.4004 -0.1102
   61SAPC  H12X 4824   5.114   3.258   5.420  0.2822 -0.6616  0.7995
   61SAPC  H12Y 4825   4.961   3.351   5.434  1.5546  0.3569 -1.1224
   61SAPC  C313 4826   4.957   3.221   5.270 -0.0924 -0.4292 -0.2753
   61SAPC  H13X 4827   4.847   3.239   5.261 -0.1929 -1.1060 -0.4868
   61SAPC  H13Y 4828   4.965   3.111   5.257 -0.1518 -0.3952 -0.5974
   61SAPC  C314 4829   5.032   3.281   5.156 -0.3173  0.5116  0.0466
   61SAPC  H14X 4830   5.004   3.228   5.063 -0.1003  0.1534  0.1831
   61SAPC  H14Y 4831   5.139   3.255   5.171 -0.3206 -0.0423 -0.8068
   61SAPC  C315 4832   5.000   3.433   5.140 -0.1013  0.5428  0.7072
   61SAPC  H15X 4833   5.027   3.466   5.243  1.3147 -0.3854  0.6670
   61SAPC  H15Y 4834   4.890   3.440   5.127 -0.3510 -1.6438  1.3036
   61SAPC  C316 4835   5.079   3.509   5.029  0.3874  0.0258 -0.5948
   61SAPC  H16X 4836   5.095   3.437   4.946 -0.4131  0.2450 -0.9437
   61SAPC  H16Y 4837   5.180   3.520   5.075  0.9126 -1.3162 -1.3817
   61SAPC  C317 4838   5.032   3.641   4.979 -0.4278  1.0272  0.1583
   61SAPC  H17X 4839   5.011   3.700   5.071 -1.2614  1.6766 -0.4284
   61SAPC  H17Y 4840   4.939   3.627   4.921  0.5699 -2.1184 -0.8461
   61SAPC  C318 4841   5.126   3.712   4.885  0.4263 -0.3761  1.0571
   61SAPC  H18X 4842   5.081   3.810   4.859  0.4654 -0.7192 -0.4080
   61SAPC  H18Y 4843   5.135   3.647   4.795 -2.5556  0.7436 -0.1549
   61SAPC  H18Z 4844   5.223   3.729   4.938  1.2683 -1.6036 -0.0315
   62SAPC     N 4845   1.063   1.769   7.662  0.3386  0.2764 -0.2396
   62SAPC   C12 4846   1.090   1.815   7.521  0.1589 -0.2774 -0.0989
   62SAPC  H12A 4847   1.099   1.731   7.453 -1.1491 -0.8622  0.4199
   62SAPC  H12B 4848   1.184   1.866   7.514 -0.3603  0.5955 -1.0162
   62SAPC   C13 4849   0.928   1.712   7.675 -0.1346  0.5493 -0.3349
   62SAPC  H13A 4850   0.853   1.774   7.629  1.2295  1.3688 -1.5198
   62SAPC  H13B 4851   0.923   1.612   7.633  1.4681 -0.2882  1.3427
   62SAPC  H13C 4852   0.901   1.708   7.779 -2.2378  1.5928 -0.7864
   62SAPC   C14 4853   1.164   1.675   7.710  0.2738 -0.3123 -0.8618
   62SAPC  H14A 4854   1.133   1.576   7.680 -3.7457  0.2118  0.9532
   62SAPC  H14B 4855   1.256   1.709   7.663 -0.2993  1.1963 -0.9361
   62SAPC  H14C 4856   1.185   1.679   7.816 -1.8092  2.1832 -0.4534
   62SAPC   C15 4857   1.063   1.886   7.760  0.1452  0.0183  0.6937
   62SAPC  H15A 4858   1.045   1.859   7.863 -3.3160  1.0871  0.5261
   62SAPC  H15B 4859   1.146   1.954   7.749 -0.6875  0.6914 -2.5104
   62SAPC  H15C 4860   0.981   1.950   7.732  1.9416  2.1606  0.0824
   62SAPC   C11 4861   0.982   1.910   7.461 -0.2994 -0.5164 -0.2221
   62SAPC  H11A 4862   1.036   1.963   7.379  3.5200 -0.1381  2.3130
   62SAPC  H11B 4863   0.964   1.995   7.529 -0.2670 -0.7440  0.0749
   62SAPC     P 4864   0.724   1.911   7.412 -0.3645  0.1916 -0.0481
   62SAPC   O13 4865   0.633   1.837   7.502  0.8661 -0.0138 -0.1959
   62SAPC   O14 4866   0.730   2.055   7.431  0.5735 -0.4068  0.3640
   62SAPC   O12 4867   0.869   1.840   7.425 -0.3181 -0.2248  0.4511
   62SAPC   O11 4868   0.676   1.873   7.262 -0.0718  0.1653  0.4243
   62SAPC    C1 4869   0.698   1.743   7.208 -0.7464 -0.2776 -0.2036
   62SAPC    HA 4870   0.806   1.717   7.204 -0.7035 -0.0837 -0.3363
   62SAPC    HB 4871   0.650   1.658   7.261  1.1967 -1.9484 -0.9868
   62SAPC    C2 4872   0.643   1.731   7.066 -0.1182 -0.9689  0.8981
   62SAPC    HS 4873   0.663   1.627   7.033  0.4933 -0.4279 -0.5259
   62SAPC   O21 4874   0.710   1.827   6.981  0.7709 -0.1735  0.3067
   62SAPC   C21 4875   0.720   1.795   6.850 -0.9487  0.0932  0.0874
   62SAPC   O22 4876   0.702   1.682   6.810 -0.2997  0.0518 -0.2336
   62SAPC   C22 4877   0.765   1.916   6.767  0.1837  0.8928 -0.0474
   62SAPC   H2R 4878   0.695   2.000   6.785  0.8746  1.2004  1.3705
   62SAPC   H2S 4879   0.865   1.944   6.806 -0.9999  2.8821  1.7389
   62SAPC    C3 4880   0.489   1.754   7.069 -0.3188 -0.3198  0.1433
   62SAPC    HX 4881   0.481   1.835   7.145 -1.7476 -0.8854  0.6266
   62SAPC    HY 4882   0.433   1.673   7.121 -0.5302 -0.6583 -0.5903
   62SAPC   O31 4883   0.436   1.790   6.943  0.4413 -0.1735 -0.3296
   62SAPC   C31 4884   0.393   1.682   6.875 -0.3633  0.0067 -0.0720
   62SAPC   O32 4885   0.380   1.568   6.922 -0.6292 -0.2522 -0.5239
   62SAPC   C32 4886   0.356   1.731   6.733  0.5012  0.4947 -0.6903
   62SAPC   H2X 4887   0.446   1.748   6.671 -0.1242 -0.1841 -1.8095
   62SAPC   H2Y 4888   0.296   1.824   6.735 -1.3176 -0.6242 -0.6483
   62SAPC   C23 4889   0.775   1.875   6.613  0.1819  0.4086 -0.7278
   62SAPC   H3R 4890   0.678   1.830   6.582 -0.1916  0.3280  0.5075
   62SAPC   H3S 4891   0.858   1.805   6.588 -0.7549 -0.7298 -0.7684
   62SAPC   C24 4892   0.778   2.000   6.523 -0.0635  0.2570  0.4475
   62SAPC   H4R 4893   0.785   1.945   6.426 -0.6930  0.3086  0.3729
   62SAPC   H4S 4894   0.871   2.060   6.531 -0.8163  1.4374  0.5384
   62SAPC   C25 4895   0.656   2.089   6.540  0.3049  0.1354  0.6260
   62SAPC   H5R 4896   0.649   2.165   6.619  0.3839  1.2031 -0.3648
   62SAPC   C26 4897   0.548   2.067   6.459  0.4552 -0.0876 -1.1980
   62SAPC   H6R 4898   0.464   2.135   6.479  0.1631 -1.2292  1.9155
   62SAPC   C27 4899   0.552   1.998   6.324  0.0775 -0.1277 -0.3403
   62SAPC   H7R 4900   0.595   1.896   6.336  0.3968 -0.1983 -1.8023
   62SAPC   H7S 4901   0.608   2.065   6.255  0.9167 -0.3995  0.0720
   62SAPC   C28 4902   0.411   1.969   6.287  0.1399  0.0816  0.2847
   62SAPC   H8R 4903   0.335   1.979   6.366  0.4511  2.3661  0.3662
   62SAPC   C29 4904   0.374   1.914   6.171  0.8489  0.2252 -0.1570
   62SAPC   H9R 4905   0.267   1.906   6.148  0.9094  0.5568 -0.5773
   62SAPC  C210 4906   0.468   1.883   6.057  0.2270 -0.0640  0.1614
   62SAPC  H10R 4907   0.557   1.832   6.098  0.7474  2.3131  2.2218
   62SAPC  H10S 4908   0.515   1.972   6.010 -0.2502  0.7008  1.1086
   62SAPC  C211 4909   0.415   1.778   5.966 -0.1846  0.3088 -0.1249
   62SAPC  H11R 4910   0.388   1.684   6.016 -1.1425 -0.0012 -1.1876
   62SAPC  C212 4911   0.382   1.789   5.832 -0.6611  0.5258  1.0055
   62SAPC  H12R 4912   0.344   1.702   5.776  1.1440 -0.8541  1.8004
   62SAPC  C213 4913   0.421   1.903   5.746  0.1972  0.4153  0.2328
   62SAPC  H13R 4914   0.434   1.996   5.805  1.3702 -0.4661  1.4138
   62SAPC  H13S 4915   0.340   1.927   5.674  1.6481  0.8074 -1.3161
   62SAPC  C214 4916   0.556   1.869   5.679 -0.2651  0.5653  0.4998
   62SAPC  H14R 4917   0.647   1.868   5.741 -1.2821 -1.8829  2.1376
   62SAPC  C215 4918   0.563   1.839   5.546 -0.7959  0.0735 -0.1698
   62SAPC  H15R 4919   0.657   1.808   5.499 -1.7620  1.2642 -3.1631
   62SAPC  C216 4920   0.447   1.829   5.445 -0.2353 -0.3761 -0.4874
   62SAPC  H16R 4921   0.435   1.920   5.382 -1.0194  0.3444  0.6440
   62SAPC  H16S 4922   0.347   1.808   5.489 -0.5161  0.0464 -0.9089
   62SAPC  C217 4923   0.462   1.704   5.349 -0.1966  0.0362 -0.2905
   62SAPC  H17R 4924   0.456   1.612   5.412  0.5337 -0.3218 -0.7302
   62SAPC  H17S 4925   0.566   1.710   5.313  0.0702  0.5845  0.5648
   62SAPC  C218 4926   0.362   1.688   5.228  0.3700 -0.0919  0.0056
   62SAPC  H18R 4927   0.267   1.698   5.284  0.4904 -0.0402  0.1997
   62SAPC  H18S 4928   0.371   1.598   5.164  0.4518  1.3150 -2.0839
   62SAPC  C219 4929   0.367   1.810   5.138  0.0218  0.5590  0.2862
   62SAPC  H19R 4930   0.473   1.827   5.109 -0.4217 -0.2346 -1.9917
   62SAPC  H19S 4931   0.331   1.899   5.194 -0.7034  1.6379 -1.7961
   62SAPC  C220 4932   0.284   1.795   5.016  0.0277 -0.5522 -0.0370
   62SAPC  H20R 4933   0.295   1.884   4.951  1.7577 -2.0562 -1.9314
   62SAPC  H20S 4934   0.178   1.771   5.040  0.3466 -1.3380  0.6527
   62SAPC  H20T 4935   0.314   1.709   4.952 -0.3507 -0.0629 -0.8850
   62SAPC   C33 4936   0.253   1.631   6.658  0.6084 -0.0477  0.1181
   62SAPC   H3X 4937   0.174   1.605   6.731  1.0595 -0.9821  0.2835
   62SAPC   H3Y 4938   0.296   1.531   6.633  1.0411 -0.6893  3.0742
   62SAPC   C34 4939   0.185   1.695   6.541 -0.1032 -0.2746  0.2698
   62SAPC   H4X 4940   0.257   1.737   6.468  2.0087 -1.9032  1.3005
   62SAPC   H4Y 4941   0.124   1.772   6.592  0.2383 -0.6992  1.3337
   62SAPC   C35 4942   0.090   1.601   6.465  0.7817 -0.4461  0.7779
   62SAPC   H5X 4943   0.007   1.664   6.427 -0.7478 -2.7525  0.0686
   62SAPC   H5Y 4944   0.037   1.540   6.541 -2.1166 -0.4039 -1.0465
   62SAPC   C36 4945   0.156   1.517   6.346 -0.1544  0.1932  0.0497
   62SAPC   H6X 4946   0.081   1.440   6.319 -2.2489  2.2578 -0.2586
   62SAPC   H6Y 4947   0.247   1.462   6.378  0.3779  0.6797 -0.5823
   62SAPC   C37 4948   0.187   1.589   6.220  0.5945 -0.4982  0.9476
   62SAPC   H7X 4949   0.248   1.518   6.161 -0.8592 -0.5935 -0.4838
   62SAPC   H7Y 4950   0.247   1.682   6.236 -1.6656  1.3478 -0.6854
   62SAPC   C38 4951   0.059   1.630   6.143  0.0350 -0.7870  0.0379
   62SAPC   H8X 4952   0.011   1.716   6.195  2.6972  1.7247 -1.4047
   62SAPC   H8Y 4953  -0.006   1.539   6.140  0.3180 -1.0021  0.3694
   62SAPC   C39 4954   0.073   1.665   5.993 -0.2531 -0.0723  0.3023
   62SAPC   H9X 4955   0.122   1.581   5.942  0.1349  0.1589  0.2900
   62SAPC   H9Y 4956   0.137   1.755   6.002  0.0780 -0.1965 -0.7252
   62SAPC  C310 4957  -0.066   1.714   5.930 -0.5715  0.3933  0.5122
   62SAPC  H10X 4958  -0.105   1.799   5.990 -2.7022  0.3114 -0.6418
   62SAPC  H10Y 4959  -0.139   1.632   5.947 -0.6099  0.1548 -0.6753
   62SAPC  C311 4960  -0.053   1.755   5.785  0.8147  0.0628  0.0115
   62SAPC  H11X 4961   0.051   1.786   5.761  0.7452 -0.5313 -1.0867
   62SAPC  H11Y 4962  -0.120   1.844   5.773 -1.8410 -1.6371  1.3120
   62SAPC  C312 4963  -0.094   1.647   5.687 -0.5653 -0.0893  0.1718
   62SAPC  H12X 4964  -0.193   1.603   5.711 -0.4091  0.2753  1.5579
   62SAPC  H12Y 4965  -0.019   1.565   5.692  0.5964  0.9982  0.9489
   62SAPC  C313 4966  -0.079   1.696   5.537  0.2715  0.9923  0.4736
   62SAPC  H13X 4967   0.019   1.745   5.515 -0.2386  0.7856 -2.6897
   62SAPC  H13Y 4968  -0.151   1.774   5.503 -1.7881 -1.7538 -1.8753
   62SAPC  C314 4969  -0.092   1.578   5.440  0.0899 -0.6374 -0.6865
   62SAPC  H14X 4970  -0.198   1.547   5.435  0.6412 -2.6950 -0.1987
   62SAPC  H14Y 4971  -0.053   1.484   5.483 -0.7042 -0.8474 -0.4208
   62SAPC  C315 4972  -0.054   1.617   5.297 -0.3866  0.3196  0.7810
   62SAPC  H15X 4973   0.053   1.649   5.293 -1.1693  3.4757  2.4003
   62SAPC  H15Y 4974  -0.123   1.701   5.276 -1.3275 -0.2114  1.6410
   62SAPC  C316 4975  -0.045   1.496   5.198  0.1704  0.1979 -0.8692
   62SAPC  H16X 4976  -0.149   1.459   5.187  0.4088 -0.4356 -0.9960
   62SAPC  H16Y 4977   0.020   1.413   5.231  0.0620 -0.4839 -2.2775
   62SAPC  C317 4978   0.005   1.534   5.059 -0.5044 -0.2997  0.2353
   62SAPC  H17X 4979   0.112   1.563   5.061 -0.8276  0.9383  1.3445
   62SAPC  H17Y 4980  -0.051   1.626   5.031 -1.4757 -1.1699 -0.7891
   62SAPC  C318 4981  -0.016   1.431   4.935 -0.0352  0.2129 -0.4426
   62SAPC  H18X 4982  -0.124   1.418   4.913 -0.6003 -0.9288  2.5621
   62SAPC  H18Y 4983   0.018   1.331   4.969 -1.0070  0.0654  0.1103
   62SAPC  H18Z 4984   0.044   1.469   4.849 -0.7320  2.5285  0.0193
   63SAPC     N 4985   5.999   6.762   7.380 -0.4104 -0.9014  0.2742
   63SAPC   C12 4986   5.892   6.817   7.292  0.1896 -0.3079 -0.8259
   63SAPC  H12A 4987   5.927   6.909   7.247 -0.0166  0.3031  0.2281
   63SAPC  H12B 4988   5.801   6.831   7.349  0.3207 -0.8726 -0.4651
   63SAPC   C13 4989   6.059   6.874   7.470 -0.5953  0.3150  0.4084
   63SAPC  H13A 4990   5.991   6.915   7.543  0.8745  2.0224  0.9098
   63SAPC  H13B 4991   6.149   6.830   7.511  0.4618  1.0837 -0.9413
   63SAPC  H13C 4992   6.093   6.953   7.404  0.6863 -0.9415 -0.5132
   63SAPC   C14 4993   5.955   6.646   7.459 -0.1230 -0.0201 -0.2105
   63SAPC  H14A 4994   5.920   6.561   7.402  0.7708 -0.2433 -0.4478
   63SAPC  H14B 4995   6.049   6.614   7.502 -0.4096  1.1643  1.4087
   63SAPC  H14C 4996   5.887   6.666   7.540  0.3874 -2.0556  0.7807
   63SAPC   C15 4997   6.113   6.705   7.301 -0.4556 -0.1642 -0.2269
   63SAPC  H15A 4998   6.189   6.655   7.359 -0.4023  0.3541  0.1551
   63SAPC  H15B 4999   6.078   6.633   7.228  1.2973 -1.4249  0.1146
   63SAPC  H15C 5000   6.153   6.775   7.229 -1.7139 -1.6095 -2.4701
   63SAPC   C11 5001   5.842   6.725   7.180  0.2168 -0.3236  0.0946
   63SAPC  H11A 5002   5.924   6.727   7.106  0.7107 -1.4128  0.5810
   63SAPC  H11B 5003   5.750   6.771   7.138 -0.5060 -0.9366  0.9583
   63SAPC     P 5004   5.876   6.466   7.140  0.0198  0.1140  0.0186
   63SAPC   O13 5005   5.994   6.508   7.064 -0.7371 -0.2296  0.1630
   63SAPC   O14 5006   5.898   6.348   7.225  0.3253  0.0494 -0.0801
   63SAPC   O12 5007   5.815   6.592   7.221 -0.3193 -0.1622 -0.7735
   63SAPC   O11 5008   5.762   6.438   7.038  0.7951 -0.2000 -0.4487
   63SAPC    C1 5009   5.730   6.517   6.926  0.3290  0.1733 -0.8904
   63SAPC    HA 5010   5.624   6.551   6.931  0.2315 -0.3006  1.4658
   63SAPC    HB 5011   5.791   6.609   6.918 -1.2683  1.2198 -1.5282
   63SAPC    C2 5012   5.742   6.430   6.794 -0.0565 -0.7993 -0.3409
   63SAPC    HS 5013   5.806   6.486   6.723  0.7452 -3.2188 -1.6299
   63SAPC   O21 5014   5.609   6.412   6.737 -0.4528 -0.0369 -0.1845
   63SAPC   C21 5015   5.546   6.515   6.692  0.6218  0.5054  0.2283
   63SAPC   O22 5016   5.580   6.625   6.687 -0.6194 -0.2877 -0.3165
   63SAPC   C22 5017   5.406   6.462   6.642 -0.4411  0.0401 -1.2244
   63SAPC   H2R 5018   5.340   6.434   6.727 -0.5910 -1.7155 -1.8717
   63SAPC   H2S 5019   5.352   6.549   6.599 -1.6045  1.1381  2.1345
   63SAPC    C3 5020   5.804   6.290   6.803  0.3533  1.0431  0.0112
   63SAPC    HX 5021   5.727   6.214   6.825  2.1653 -1.0219 -0.4661
   63SAPC    HY 5022   5.875   6.294   6.887  0.4468 -1.4817  0.1028
   63SAPC   O31 5023   5.873   6.245   6.683 -0.2512  0.4349  0.1836
   63SAPC   C31 5024   5.970   6.153   6.689  0.3469 -0.2472 -0.0933
   63SAPC   O32 5025   5.988   6.077   6.783 -0.0992  0.0145 -0.3619
   63SAPC   C32 5026   6.046   6.152   6.561 -0.1257  0.1393 -0.0971
   63SAPC   H2X 5027   5.978   6.127   6.476 -0.7911  0.7195  0.2563
   63SAPC   H2Y 5028   6.123   6.072   6.563 -0.7217 -0.5155 -1.6431
   63SAPC   C23 5029   5.415   6.356   6.531 -0.2802  0.0673  0.3935
   63SAPC   H3R 5030   5.315   6.311   6.514 -2.0337  3.0398  1.8601
   63SAPC   H3S 5031   5.482   6.277   6.570  0.5103  0.3424 -0.3626
   63SAPC   C24 5032   5.469   6.414   6.402 -0.1165  0.0741 -0.4737
   63SAPC   H4R 5033   5.574   6.448   6.415 -0.0858 -0.7250  1.9978
   63SAPC   H4S 5034   5.401   6.499   6.380  1.1195  1.4581  0.8551
   63SAPC   C25 5035   5.452   6.320   6.286  0.6928 -0.4773 -0.0640
   63SAPC   H5R 5036   5.356   6.337   6.236  0.5865  0.1556  0.3493
   63SAPC   C26 5037   5.536   6.219   6.246 -0.5355 -0.4071  0.2148
   63SAPC   H6R 5038   5.517   6.153   6.159 -4.0614 -1.7199  1.7874
   63SAPC   C27 5039   5.658   6.173   6.321  0.2545  0.1134 -0.7856
   63SAPC   H7R 5040   5.663   6.062   6.317  1.4192  0.1341 -0.2655
   63SAPC   H7S 5041   5.649   6.208   6.427  2.2358  0.1875 -0.6069
   63SAPC   C28 5042   5.789   6.225   6.264  0.0113 -0.0567  0.1478
   63SAPC   H8R 5043   5.845   6.293   6.330  2.7887 -2.6289  0.6518
   63SAPC   C29 5044   5.846   6.182   6.146 -0.0452 -0.1984 -0.5389
   63SAPC   H9R 5045   5.948   6.213   6.118  0.1616 -0.4753 -0.1022
   63SAPC  C210 5046   5.798   6.088   6.038  0.0544 -0.3705  0.3337
   63SAPC  H10R 5047   5.694   6.121   6.014 -0.5692 -1.1532  1.8077
   63SAPC  H10S 5048   5.798   5.989   6.089  2.2183 -0.1393  0.8816
   63SAPC  C211 5049   5.888   6.096   5.915 -0.8987 -0.0401  0.9867
   63SAPC  H11R 5050   5.992   6.125   5.932 -0.5184 -0.5581 -0.3265
   63SAPC  C212 5051   5.849   6.053   5.795 -0.0597  0.0117 -0.0305
   63SAPC  H12R 5052   5.918   6.068   5.710 -1.2017 -1.1971 -1.2212
   63SAPC  C213 5053   5.720   5.993   5.765  0.1409  0.1436  0.0810
   63SAPC  H13R 5054   5.661   5.978   5.858 -0.9400  2.4824 -0.1465
   63SAPC  H13S 5055   5.728   5.890   5.724 -0.0617  0.3455 -0.4872
   63SAPC  C214 5056   5.645   6.093   5.677 -0.9192 -0.0680  0.0161
   63SAPC  H14R 5057   5.629   6.194   5.718 -3.0656 -0.7487  0.9761
   63SAPC  C215 5058   5.594   6.074   5.552 -0.5542 -0.3365  0.5105
   63SAPC  H15R 5059   5.540   6.159   5.506  2.5824  1.2017 -0.6579
   63SAPC  C216 5060   5.594   5.936   5.483  0.0420 -0.5765  0.4376
   63SAPC  H16R 5061   5.567   5.850   5.547  1.3050  0.5783  2.6304
   63SAPC  H16S 5062   5.696   5.908   5.449 -0.5805 -2.5309  0.0266
   63SAPC  C217 5063   5.498   5.932   5.363  0.0018  0.8106 -0.1028
   63SAPC  H17R 5064   5.517   6.021   5.299  0.2688  0.2423 -0.8363
   63SAPC  H17S 5065   5.390   5.939   5.388  0.5833  0.9122  2.7037
   63SAPC  C218 5066   5.514   5.817   5.270 -0.1249 -0.0697 -0.6301
   63SAPC  H18R 5067   5.430   5.805   5.198  0.2948 -2.1705 -0.8309
   63SAPC  H18S 5068   5.516   5.724   5.331 -0.2668 -1.3293 -2.4745
   63SAPC  C219 5069   5.640   5.824   5.192 -0.1702  0.4184 -0.3346
   63SAPC  H19R 5070   5.728   5.808   5.258  2.4866 -1.0969 -3.9165
   63SAPC  H19S 5071   5.640   5.909   5.121  0.4122 -0.0622 -0.9263
   63SAPC  C220 5072   5.640   5.703   5.090  0.5397  0.2444  0.2813
   63SAPC  H20R 5073   5.669   5.607   5.139  1.2748  0.6850  0.7400
   63SAPC  H20S 5074   5.715   5.728   5.012 -0.8958  3.1382 -0.3173
   63SAPC  H20T 5075   5.543   5.697   5.036  0.5844  0.6438  0.1489
   63SAPC   C33 5076   6.115   6.288   6.535 -0.2404 -0.2512  0.7526
   63SAPC   H3X 5077   6.200   6.304   6.605  0.4379  1.2445 -0.3440
   63SAPC   H3Y 5078   6.043   6.372   6.548 -0.1905  0.2409 -1.5665
   63SAPC   C34 5079   6.160   6.292   6.380 -0.1649 -0.2908  0.1021
   63SAPC   H4X 5080   6.077   6.252   6.318  0.1178 -1.2014  0.2962
   63SAPC   H4Y 5081   6.240   6.218   6.356  2.0425  1.8655  0.4022
   63SAPC   C35 5082   6.203   6.430   6.329 -0.6557 -0.0532  0.1253
   63SAPC   H5X 5083   6.311   6.451   6.349 -0.3377  0.8271 -2.2051
   63SAPC   H5Y 5084   6.130   6.499   6.378 -2.4028 -1.2175 -0.7503
   63SAPC   C36 5085   6.177   6.440   6.179 -1.0424 -0.6852 -0.1671
   63SAPC   H6X 5086   6.202   6.545   6.151  0.4389 -1.2200 -0.9662
   63SAPC   H6Y 5087   6.070   6.444   6.150 -1.2177  0.6905  0.5738
   63SAPC   C37 5088   6.242   6.341   6.087 -0.6514 -0.3375 -0.1831
   63SAPC   H7X 5089   6.235   6.232   6.111 -0.0257 -0.0462  1.4307
   63SAPC   H7Y 5090   6.348   6.375   6.088 -0.5642 -0.1687 -3.3753
   63SAPC   C38 5091   6.215   6.356   5.937  0.2754 -0.2231  0.6006
   63SAPC   H8X 5092   6.217   6.463   5.910 -0.0392 -0.4291 -0.2921
   63SAPC   H8Y 5093   6.108   6.327   5.933  0.1481  0.3387 -1.5952
   63SAPC   C39 5094   6.293   6.262   5.845  0.3622 -0.1780 -0.1003
   63SAPC   H9X 5095   6.262   6.157   5.860 -2.0743  0.2000 -1.8412
   63SAPC   H9Y 5096   6.398   6.267   5.881  1.0810 -2.1254 -1.7294
   63SAPC  C310 5097   6.280   6.296   5.696  0.0418 -0.6246 -0.0225
   63SAPC  H10X 5098   6.321   6.398   5.677  3.4490 -2.0287 -1.0693
   63SAPC  H10Y 5099   6.178   6.303   5.654  0.6475  0.7659 -1.3500
   63SAPC  C311 5100   6.366   6.200   5.617 -0.0595 -1.3028 -0.6751
   63SAPC  H11X 5101   6.325   6.097   5.620  1.5525 -1.9510  0.0299
   63SAPC  H11Y 5102   6.463   6.195   5.670 -0.6841  0.6308  0.8052
   63SAPC  C312 5103   6.387   6.241   5.471 -0.3486 -0.0735 -0.2167
   63SAPC  H12X 5104   6.463   6.322   5.468 -1.6390  1.1589 -1.0926
   63SAPC  H12Y 5105   6.295   6.283   5.425  0.9800  0.0282 -2.9191
   63SAPC  C313 5106   6.446   6.130   5.373 -0.2725 -0.0144 -0.1061
   63SAPC  H13X 5107   6.383   6.039   5.370 -1.4784  0.8118 -0.2190
   63SAPC  H13Y 5108   6.544   6.091   5.409  0.2265  0.4120 -0.9669
   63SAPC  C314 5109   6.469   6.196   5.242  0.5106 -0.2169 -0.2219
   63SAPC  H14X 5110   6.559   6.145   5.203  1.7462  1.9433 -0.3682
   63SAPC  H14Y 5111   6.493   6.304   5.242 -1.2660  0.2144 -0.0904
   63SAPC  C315 5112   6.351   6.165   5.157 -0.6725  0.2903 -0.2381
   63SAPC  H15X 5113   6.260   6.218   5.193 -0.2063  0.1903  1.1721
   63SAPC  H15Y 5114   6.336   6.055   5.157  1.9697 -0.1769  1.3749
   63SAPC  C316 5115   6.377   6.215   5.012 -0.0901 -0.3501  0.7041
   63SAPC  H16X 5116   6.411   6.319   4.996  0.1127 -0.6757 -1.3083
   63SAPC  H16Y 5117   6.283   6.213   4.954 -0.2312 -1.4851  0.9432
   63SAPC  C317 5118   6.474   6.135   4.926 -0.0399  0.1787 -0.2993
   63SAPC  H17X 5119   6.499   6.036   4.968  0.7823  0.5672  0.1494
   63SAPC  H17Y 5120   6.567   6.195   4.925 -1.4727  2.5211 -1.1424
   63SAPC  C318 5121   6.432   6.111   4.776  0.1464 -0.0105 -0.4098
   63SAPC  H18X 5122   6.424   6.210   4.728 -2.6327 -0.6085 -1.3518
   63SAPC  H18Y 5123   6.332   6.063   4.768 -0.0166  0.3697 -0.6333
   63SAPC  H18Z 5124   6.512   6.045   4.734  0.9777 -0.3250  1.5149
   64SAPC     N 5125   6.471   1.449   7.041  0.0104  0.7865  0.1401
   64SAPC   C12 5126   6.577   1.339   7.085 -0.1119 -0.1865  0.0225
   64SAPC  H12A 5127   6.629   1.384   7.168  2.4038 -1.6071 -0.6454
   64SAPC  H12B 5128   6.654   1.324   7.010 -1.4851  0.5833 -1.6053
   64SAPC   C13 5129   6.531   1.586   7.024 -0.1732  0.1655  0.5081
   64SAPC  H13A 5130   6.460   1.664   7.002  0.7219  0.9817  0.4631
   64SAPC  H13B 5131   6.583   1.623   7.111  2.7462  1.9927 -1.8551
   64SAPC  H13C 5132   6.604   1.601   6.946 -1.3705  0.8969 -0.5021
   64SAPC   C14 5133   6.424   1.406   6.901  0.1778  0.0707 -0.2242
   64SAPC  H14A 5134   6.341   1.464   6.865 -2.1999 -2.5877  0.6066
   64SAPC  H14B 5135   6.503   1.421   6.829  1.7388  0.4525  1.4904
   64SAPC  H14C 5136   6.396   1.302   6.909  1.3171 -0.2672 -0.3562
   64SAPC   C15 5137   6.356   1.465   7.139 -0.3172  0.4667 -0.5441
   64SAPC  H15A 5138   6.395   1.486   7.238 -2.1626 -2.8048  1.0173
   64SAPC  H15B 5139   6.294   1.545   7.102  2.8250  2.7215 -1.4223
   64SAPC  H15C 5140   6.325   1.366   7.166  0.3152  0.7149  1.2241
   64SAPC   C11 5141   6.527   1.195   7.117 -0.1425 -0.1211 -0.6379
   64SAPC  H11A 5142   6.621   1.146   7.152 -0.0082  1.7801  1.9461
   64SAPC  H11B 5143   6.487   1.148   7.024 -0.8804  1.8542 -1.3791
   64SAPC     P 5144   6.293   1.116   7.226  0.4935  0.2060  0.0049
   64SAPC   O13 5145   6.294   1.031   7.350 -0.1481  0.1210  0.0925
   64SAPC   O14 5146   6.177   1.212   7.216 -0.7425  0.8398 -1.0622
   64SAPC   O12 5147   6.429   1.195   7.220 -0.0903 -0.2485  0.0918
   64SAPC   O11 5148   6.291   1.024   7.103  0.4235  0.2714  0.3290
   64SAPC    C1 5149   6.349   0.899   7.086 -0.0646  0.1889 -0.5881
   64SAPC    HA 5150   6.451   0.905   7.042  1.1069 -0.0597  1.9010
   64SAPC    HB 5151   6.372   0.849   7.182  1.2024  1.6887 -0.0679
   64SAPC    C2 5152   6.257   0.805   6.998  0.1084 -0.6778  0.0319
   64SAPC    HS 5153   6.294   0.702   7.016  0.9754 -0.5788 -1.0733
   64SAPC   O21 5154   6.275   0.850   6.859  0.2221  0.7230  0.6976
   64SAPC   C21 5155   6.264   0.755   6.767  0.0769 -0.5855 -0.5248
   64SAPC   O22 5156   6.259   0.635   6.785 -0.2922  0.6723 -0.4606
   64SAPC   C22 5157   6.298   0.825   6.637  0.4669  0.3352  0.3839
   64SAPC   H2R 5158   6.276   0.934   6.642  1.5221  0.5380  4.1025
   64SAPC   H2S 5159   6.407   0.830   6.619  0.4141 -3.1528 -1.5389
   64SAPC    C3 5160   6.108   0.807   7.044  0.4800 -0.3450 -0.3118
   64SAPC    HX 5161   6.070   0.905   7.010  1.0749  1.0102  2.6236
   64SAPC    HY 5162   6.128   0.813   7.153  1.2879 -2.3986 -0.2942
   64SAPC   O31 5163   6.030   0.702   6.994  0.8110 -0.3762 -0.1671
   64SAPC   C31 5164   5.917   0.686   7.059 -0.0863 -0.1086  0.0264
   64SAPC   O32 5165   5.889   0.730   7.167  0.1136  0.3057  0.2020
   64SAPC   C32 5166   5.833   0.590   6.981  0.2332  0.4663 -0.2338
   64SAPC   H2X 5167   5.800   0.503   7.043 -0.3174  0.4774 -0.5063
   64SAPC   H2Y 5168   5.883   0.543   6.894 -2.1215 -0.2446 -1.2651
   64SAPC   C23 5169   6.221   0.751   6.532 -0.7940 -0.2866 -0.2113
   64SAPC   H3R 5170   6.163   0.660   6.558 -0.4909  0.5054  3.9968
   64SAPC   H3S 5171   6.295   0.716   6.457  1.4998  0.8381  1.4023
   64SAPC   C24 5172   6.126   0.844   6.461 -0.0846 -0.1115 -0.4257
   64SAPC   H4R 5173   6.087   0.793   6.371 -3.4682  1.5903 -0.0675
   64SAPC   H4S 5174   6.186   0.933   6.432  3.3336 -0.8720  3.4022
   64SAPC   C25 5175   6.007   0.883   6.539 -0.1579 -0.1502 -0.5714
   64SAPC   H5R 5176   6.030   0.940   6.630  1.6855 -0.0417 -1.0672
   64SAPC   C26 5177   5.877   0.842   6.521 -0.3021  0.3405  0.3622
   64SAPC   H6R 5178   5.801   0.876   6.593  0.8543  2.3978  0.6888
   64SAPC   C27 5179   5.829   0.760   6.407  0.3629  0.0268  0.2259
   64SAPC   H7R 5180   5.719   0.751   6.419  0.2405 -1.3255 -1.5580
   64SAPC   H7S 5181   5.871   0.657   6.403 -1.5287 -0.7314 -1.8479
   64SAPC   C28 5182   5.839   0.826   6.267  0.4262  0.4495  0.9265
   64SAPC   H8R 5183   5.890   0.923   6.260 -1.5407  1.4869 -0.0763
   64SAPC   C29 5184   5.803   0.769   6.153  0.1451 -0.6852  0.2161
   64SAPC   H9R 5185   5.804   0.831   6.062  1.0449 -0.7336  0.1852
   64SAPC  C210 5186   5.752   0.629   6.140 -0.0174  0.3533  0.3925
   64SAPC  H10R 5187   5.659   0.625   6.080  0.9396  0.1854 -1.1442
   64SAPC  H10S 5188   5.718   0.592   6.239 -1.7639 -0.0478 -0.3262
   64SAPC  C211 5189   5.855   0.535   6.086  0.5262 -0.0461  0.1438
   64SAPC  H11R 5190   5.936   0.518   6.159  0.6213  0.5987  0.1927
   64SAPC  C212 5191   5.859   0.478   5.961  0.3184  0.2695  0.4733
   64SAPC  H12R 5192   5.944   0.413   5.936 -1.3284 -2.0612  0.6391
   64SAPC  C213 5193   5.752   0.492   5.857  0.0990 -0.4402  0.0519
   64SAPC  H13R 5194   5.651   0.487   5.904 -1.3001 -0.0892 -2.7092
   64SAPC  H13S 5195   5.766   0.405   5.788  2.2300 -0.1018  0.0084
   64SAPC  C214 5196   5.762   0.617   5.775 -0.5365 -0.4573  0.2094
   64SAPC  H14R 5197   5.807   0.697   5.836  1.9100  0.0035 -2.0340
   64SAPC  C215 5198   5.732   0.630   5.643  0.5711 -0.4666 -0.2445
   64SAPC  H15R 5199   5.758   0.728   5.599  1.5245 -0.9885 -0.8895
   64SAPC  C216 5200   5.674   0.526   5.543 -0.8366  0.0195  0.0993
   64SAPC  H16R 5201   5.621   0.578   5.461 -0.4078 -0.2534 -0.3604
   64SAPC  H16S 5202   5.612   0.446   5.588 -0.3871 -2.2005 -2.8853
   64SAPC  C217 5203   5.786   0.445   5.461  0.4217  0.1120  0.4018
   64SAPC  H17R 5204   5.727   0.380   5.393  1.5002  0.1895 -0.6449
   64SAPC  H17S 5205   5.841   0.379   5.531  0.5403  0.0667  0.2678
   64SAPC  C218 5206   5.896   0.514   5.385 -0.2501  0.6569  0.3563
   64SAPC  H18R 5207   5.946   0.439   5.320 -1.6161 -0.9276  1.0684
   64SAPC  H18S 5208   5.969   0.553   5.458  2.4616 -1.1070 -1.2374
   64SAPC  C219 5209   5.852   0.625   5.288 -0.0455 -0.2191 -0.2997
   64SAPC  H19R 5210   5.944   0.675   5.251 -0.9514  3.3386  1.8460
   64SAPC  H19S 5211   5.798   0.705   5.342  0.4855  1.5450 -2.2229
   64SAPC  C220 5212   5.762   0.582   5.172 -1.1347 -0.5082  0.1559
   64SAPC  H20R 5213   5.675   0.531   5.219  0.8503 -1.3515  3.1492
   64SAPC  H20S 5214   5.809   0.521   5.092  1.0402  0.7050  0.4460
   64SAPC  H20T 5215   5.718   0.672   5.123 -1.5015 -1.5487 -1.5052
   64SAPC   C33 5216   5.701   0.667   6.929 -0.7382  0.1253 -0.4403
   64SAPC   H3X 5217   5.736   0.753   6.867  0.5038  0.8069  1.1053
   64SAPC   H3Y 5218   5.657   0.719   7.017 -0.6661  1.2744 -1.0584
   64SAPC   C34 5219   5.594   0.588   6.849 -0.3475  0.2029  0.9649
   64SAPC   H4X 5220   5.528   0.644   6.780 -0.7076  0.2183  1.3188
   64SAPC   H4Y 5221   5.527   0.545   6.927 -0.9777 -2.0600 -0.7192
   64SAPC   C35 5222   5.652   0.465   6.769  0.0319  0.4134  0.1636
   64SAPC   H5X 5223   5.569   0.412   6.719  0.2694  1.1002 -1.0135
   64SAPC   H5Y 5224   5.700   0.395   6.841  2.5416 -1.5434 -3.1584
   64SAPC   C36 5225   5.749   0.505   6.667  0.0510 -0.3035 -0.3404
   64SAPC   H6X 5226   5.849   0.540   6.702  0.5358 -1.0374 -0.9491
   64SAPC   H6Y 5227   5.709   0.597   6.619 -0.2359  0.0263  0.5180
   64SAPC   C37 5228   5.775   0.408   6.561 -0.1144 -0.5937 -0.1706
   64SAPC   H7X 5229   5.794   0.315   6.618  0.9039 -0.8470 -0.9080
   64SAPC   H7Y 5230   5.863   0.433   6.499  0.3070  0.2124  0.7276
   64SAPC   C38 5231   5.658   0.383   6.466 -0.1276 -0.7888  0.2885
   64SAPC   H8X 5232   5.641   0.481   6.417 -0.3468 -0.5711  0.7930
   64SAPC   H8Y 5233   5.558   0.349   6.501 -0.6656 -1.5685 -1.8452
   64SAPC   C39 5234   5.705   0.284   6.350 -0.0645 -0.1277 -0.6881
   64SAPC   H9X 5235   5.707   0.182   6.393 -0.1359 -0.6299 -1.8462
   64SAPC   H9Y 5236   5.809   0.314   6.328  0.7588 -0.4311  2.3942
   64SAPC  C310 5237   5.618   0.283   6.225  0.3176  0.1501 -0.4058
   64SAPC  H10X 5238   5.632   0.386   6.185  1.3922 -0.2085 -0.9861
   64SAPC  H10Y 5239   5.511   0.259   6.240  0.2446  0.1397 -0.9211
   64SAPC  C311 5240   5.678   0.185   6.127  0.7084  0.5615 -0.4582
   64SAPC  H11X 5241   5.674   0.080   6.163 -0.6077  0.1947 -1.5979
   64SAPC  H11Y 5242   5.784   0.209   6.105  0.7516  0.4081 -0.4182
   64SAPC  C312 5243   5.598   0.188   5.992 -0.0310  0.1808 -0.4119
   64SAPC  H12X 5244   5.613   0.288   5.948  0.4002  0.5937  0.6346
   64SAPC  H12Y 5245   5.491   0.158   5.988  0.0104  0.1557 -3.8083
   64SAPC  C313 5246   5.659   0.089   5.890  0.1711 -0.0534  0.1494
   64SAPC  H13X 5247   5.625  -0.014   5.915  0.4302  0.0956  1.1202
   64SAPC  H13Y 5248   5.770   0.082   5.894  0.5951 -2.0745 -5.3995
   64SAPC  C314 5249   5.608   0.127   5.747  0.3639  0.1151 -0.7531
   64SAPC  H14X 5250   5.631   0.235   5.735  2.0580  0.2278  2.3693
   64SAPC  H14Y 5251   5.499   0.113   5.761  0.0076  3.9488  1.7551
   64SAPC  C315 5252   5.676   0.036   5.642  0.1019 -0.4729  0.1773
   64SAPC  H15X 5253   5.667  -0.066   5.684  0.2914 -0.2376  0.8128
   64SAPC  H15Y 5254   5.783   0.068   5.639 -0.0891  0.1195 -1.1258
   64SAPC  C316 5255   5.614   0.041   5.498  0.0516 -0.0130  0.2491
   64SAPC  H16X 5256   5.633   0.143   5.459 -0.3647  0.2221  0.6485
   64SAPC  H16Y 5257   5.510   0.005   5.508  0.6804 -2.2149 -0.5919
   64SAPC  C317 5258   5.689  -0.053   5.399  0.6607 -0.1244  0.0691
   64SAPC  H17X 5259   5.633  -0.051   5.303 -1.2089  0.1519  1.1150
   64SAPC  H17Y 5260   5.668  -0.154   5.441  0.2542 -0.0055  0.1568
   64SAPC  C318 5261   5.840  -0.031   5.385  0.1366 -0.3583  0.0485
   64SAPC  H18X 5262   5.893  -0.097   5.313 -0.0211  1.4256 -1.7957
   64SAPC  H18Y 5263   5.888  -0.042   5.484  0.7345 -0.1549 -0.2163
   64SAPC  H18Z 5264   5.854   0.077   5.362 -0.7753 -0.2939 -0.2304
   65SAPC     N 5265   5.879   1.230   2.619  0.0510 -0.1354 -0.1654
   65SAPC   C12 5266   5.759   1.144   2.567 -0.6939 -0.6381 -0.8760
   65SAPC  H12A 5267   5.682   1.201   2.517 -2.0397 -1.1677  0.5138
   65SAPC  H12B 5268   5.718   1.112   2.662  0.2809 -0.8056 -0.5037
   65SAPC   C13 5269   5.823   1.329   2.716 -0.6726 -0.7161 -0.4881
   65SAPC  H13A 5270   5.881   1.419   2.704 -3.0371  0.9465 -0.1571
   65SAPC  H13B 5271   5.723   1.360   2.690 -0.3337  0.0016 -0.9684
   65SAPC  H13C 5272   5.820   1.287   2.815  0.2981  0.2944 -0.0195
   65SAPC   C14 5273   5.980   1.154   2.701 -0.3896 -0.3601 -0.9805
   65SAPC  H14A 5274   6.022   1.223   2.772 -1.8472 -1.0037  0.5757
   65SAPC  H14B 5275   5.932   1.075   2.756 -2.6877  2.2159  0.9830
   65SAPC  H14C 5276   6.048   1.104   2.633  1.5340  0.2016  0.4317
   65SAPC   C15 5277   5.953   1.296   2.503  0.4132 -0.6523 -0.0856
   65SAPC  H15A 5278   5.893   1.376   2.462  1.2242 -0.2993 -0.5906
   65SAPC  H15B 5279   6.049   1.334   2.535  0.1105 -0.1352  0.2133
   65SAPC  H15C 5280   5.953   1.227   2.420 -2.3397  0.0844 -0.7954
   65SAPC   C11 5281   5.777   1.002   2.502 -0.1158 -0.2702 -0.5869
   65SAPC  H11A 5282   5.829   0.933   2.572  2.1287 -0.5699 -2.3996
   65SAPC  H11B 5283   5.845   1.020   2.416  0.3227 -0.8315 -0.3673
   65SAPC     P 5284   5.566   0.865   2.562  0.2585  0.1610 -0.2049
   65SAPC   O13 5285   5.459   0.962   2.595 -0.7084  0.3614 -0.3067
   65SAPC   O14 5286   5.520   0.734   2.505 -0.0676  0.8097 -0.0068
   65SAPC   O12 5287   5.659   0.939   2.459 -0.2581  0.2528 -0.2640
   65SAPC   O11 5288   5.654   0.836   2.690 -0.0483  0.6927 -0.3698
   65SAPC    C1 5289   5.731   0.716   2.694 -0.5559  0.1542  0.6035
   65SAPC    HA 5290   5.752   0.662   2.599  2.8627 -1.1996  1.9883
   65SAPC    HB 5291   5.836   0.739   2.722 -0.9000  2.5484  0.1518
   65SAPC    C2 5292   5.677   0.614   2.801  0.5383  0.6948  0.2192
   65SAPC    HS 5293   5.566   0.608   2.805  0.6089 -0.8460  3.5358
   65SAPC   O21 5294   5.738   0.633   2.925  0.2037 -0.5791  0.7362
   65SAPC   C21 5295   5.669   0.686   3.023  0.0327 -0.2820  0.3128
   65SAPC   O22 5296   5.550   0.716   3.010 -0.4841 -0.0458 -0.5079
   65SAPC   C22 5297   5.752   0.709   3.155 -0.0895 -0.7536  0.3158
   65SAPC   H2R 5298   5.819   0.625   3.184  1.6887  1.2008  2.2640
   65SAPC   H2S 5299   5.819   0.797   3.142 -0.9614  0.0547  1.0690
   65SAPC    C3 5300   5.712   0.475   2.758  0.5384  0.1658  0.1197
   65SAPC    HX 5301   5.822   0.474   2.740  0.1442 -1.8072 -2.9619
   65SAPC    HY 5302   5.676   0.448   2.657  2.1966 -2.8988  0.1897
   65SAPC   O31 5303   5.688   0.369   2.859 -0.3628  0.4868  0.4798
   65SAPC   C31 5304   5.567   0.323   2.850  0.5928 -0.7094 -0.1810
   65SAPC   O32 5305   5.490   0.352   2.759 -0.1041  0.2431 -0.0417
   65SAPC   C32 5306   5.544   0.239   2.979 -0.5849  0.3238  0.4515
   65SAPC   H2X 5307   5.624   0.162   2.976  0.5128  1.4083  0.7662
   65SAPC   H2Y 5308   5.445   0.190   2.968 -1.4434  2.1138 -0.0487
   65SAPC   C23 5309   5.668   0.762   3.277  0.6708 -0.3933  0.2703
   65SAPC   H3R 5310   5.578   0.695   3.281  0.4427 -0.1170 -0.1837
   65SAPC   H3S 5311   5.635   0.863   3.247  1.3979  0.1813  1.3464
   65SAPC   C24 5312   5.736   0.748   3.415 -0.1867 -0.2406  0.2340
   65SAPC   H4R 5313   5.748   0.639   3.435  2.3764 -0.0476  0.0157
   65SAPC   H4S 5314   5.675   0.801   3.491 -0.3468 -0.5966  0.3586
   65SAPC   C25 5315   5.872   0.819   3.418  0.2048 -0.2187  0.3430
   65SAPC   H5R 5316   5.944   0.775   3.348 -2.3893 -0.5017 -2.3972
   65SAPC   C26 5317   5.910   0.933   3.486 -0.0574 -0.1728  0.2054
   65SAPC   H6R 5318   6.015   0.964   3.474 -0.7186  1.9542 -0.5637
   65SAPC   C27 5319   5.827   1.008   3.584  0.8421  0.5723 -0.2154
   65SAPC   H7R 5320   5.803   0.941   3.668 -0.9564 -1.0401 -1.9106
   65SAPC   H7S 5321   5.731   1.033   3.533 -0.0181 -0.3822  0.8807
   65SAPC   C28 5322   5.888   1.136   3.632  0.4741  0.3769  1.0394
   65SAPC   H8R 5323   5.998   1.136   3.636  0.5887 -2.0202 -0.3254
   65SAPC   C29 5324   5.816   1.242   3.678 -0.2106  0.2589  0.0854
   65SAPC   H9R 5325   5.871   1.326   3.724  1.4593 -2.0446  2.5428
   65SAPC  C210 5326   5.667   1.255   3.700 -0.6494  0.3789 -0.1130
   65SAPC  H10R 5327   5.612   1.262   3.603 -0.4114 -1.6315 -0.4337
   65SAPC  H10S 5328   5.639   1.357   3.734  0.7849  1.5489 -2.1548
   65SAPC  C211 5329   5.603   1.145   3.780 -0.4909  0.2158 -0.6799
   65SAPC  H11R 5330   5.548   1.071   3.721 -0.9858 -0.4033  0.5289
   65SAPC  C212 5331   5.610   1.137   3.920  0.7973  0.5565 -0.4537
   65SAPC  H12R 5332   5.549   1.060   3.968 -1.7714  0.7544 -3.0600
   65SAPC  C213 5333   5.671   1.239   4.014  0.3873  0.8794  0.3976
   65SAPC  H13R 5334   5.628   1.340   3.998 -2.0420 -0.1457 -0.0073
   65SAPC  H13S 5335   5.776   1.235   3.979  0.7234 -1.2482  1.4428
   65SAPC  C214 5336   5.667   1.193   4.161  0.1636 -0.7286 -0.0115
   65SAPC  H14R 5337   5.737   1.110   4.180  0.9330 -0.4345 -1.4106
   65SAPC  C215 5338   5.577   1.227   4.252  0.0931  0.4110  0.1129
   65SAPC  H15R 5339   5.570   1.176   4.349  0.6257 -2.9150 -1.4691
   65SAPC  C216 5340   5.478   1.338   4.230  0.7139  0.4117 -0.2199
   65SAPC  H16R 5341   5.378   1.297   4.252  0.4429  1.1972  0.0769
   65SAPC  H16S 5342   5.473   1.367   4.123 -0.3733  0.2557 -0.2258
   65SAPC  C217 5343   5.494   1.462   4.325  0.6923  0.0988  0.2641
   65SAPC  H17R 5344   5.407   1.530   4.315 -0.1169 -0.8722  0.5585
   65SAPC  H17S 5345   5.587   1.514   4.293 -0.9394  2.1788 -1.4723
   65SAPC  C218 5346   5.500   1.438   4.479 -0.0068 -0.3384 -0.4188
   65SAPC  H18R 5347   5.598   1.394   4.507  0.7234  2.1148  1.1806
   65SAPC  H18S 5348   5.410   1.379   4.507 -2.0472  2.0503 -1.4908
   65SAPC  C219 5349   5.501   1.574   4.563 -0.6835  0.5773 -0.1313
   65SAPC  H19R 5350   5.554   1.554   4.658 -2.1300  0.3791  0.6644
   65SAPC  H19S 5351   5.391   1.581   4.577 -1.0755 -0.3473 -2.3344
   65SAPC  C220 5352   5.563   1.697   4.505  0.4114  0.2793  0.0388
   65SAPC  H20R 5353   5.554   1.781   4.576  0.8573  1.3257 -1.1071
   65SAPC  H20S 5354   5.508   1.726   4.414  0.6856 -0.5146 -0.3991
   65SAPC  H20T 5355   5.669   1.677   4.475 -0.0938 -0.3993 -1.3806
   65SAPC   C33 5356   5.570   0.330   3.101  0.6598 -0.0383  0.3140
   65SAPC   H3X 5357   5.520   0.429   3.093  0.7487 -0.0668 -0.7113
   65SAPC   H3Y 5358   5.678   0.357   3.111  1.4336 -2.6780 -0.1616
   65SAPC   C34 5359   5.536   0.267   3.233  0.7176 -0.2553 -0.2074
   65SAPC   H4X 5360   5.597   0.176   3.250  0.3085 -0.7562 -1.3764
   65SAPC   H4Y 5361   5.429   0.242   3.221  0.3193  0.4877  1.4562
   65SAPC   C35 5362   5.558   0.357   3.362  0.1898  0.5341  0.5031
   65SAPC   H5X 5363   5.489   0.444   3.364 -2.2158 -1.2480 -0.3646
   65SAPC   H5Y 5364   5.659   0.395   3.335  0.0939  1.3562  1.2362
   65SAPC   C36 5365   5.557   0.285   3.495  0.3538  0.0807  0.2099
   65SAPC   H6X 5366   5.603   0.185   3.480 -1.2805 -0.6957  0.1049
   65SAPC   H6Y 5367   5.452   0.257   3.521  0.1335 -0.1312 -0.8640
   65SAPC   C37 5368   5.617   0.362   3.612  0.5442 -0.3738 -0.3890
   65SAPC   H7X 5369   5.565   0.461   3.612  0.1485 -0.5758 -1.1418
   65SAPC   H7Y 5370   5.724   0.373   3.587  1.4739 -0.7034  2.9289
   65SAPC   C38 5371   5.588   0.288   3.744 -0.4465 -0.7217  0.3403
   65SAPC   H8X 5372   5.637   0.188   3.749  2.6940  0.6652  0.1339
   65SAPC   H8Y 5373   5.478   0.289   3.753 -0.3438  0.8836  1.9339
   65SAPC   C39 5374   5.640   0.371   3.865  0.0993  0.1923  0.4236
   65SAPC   H9X 5375   5.582   0.462   3.890  1.0013  0.4775  1.6110
   65SAPC   H9Y 5376   5.749   0.390   3.858 -0.3225  2.1764 -2.6654
   65SAPC  C310 5377   5.633   0.269   3.985  1.0252  0.4455 -0.0087
   65SAPC  H10X 5378   5.670   0.169   3.953  0.9833 -0.3974  2.4146
   65SAPC  H10Y 5379   5.527   0.265   4.017  1.2768  0.6777  0.8636
   65SAPC  C311 5380   5.707   0.330   4.106  0.3355  0.2664 -0.0068
   65SAPC  H11X 5381   5.784   0.398   4.064  0.5406 -1.6964 -3.1113
   65SAPC  H11Y 5382   5.752   0.248   4.166 -1.4572 -2.0235 -1.6073
   65SAPC  C312 5383   5.618   0.412   4.196 -0.4387  0.2792  0.1171
   65SAPC  H12X 5384   5.551   0.479   4.139  1.5587  2.0433 -0.3236
   65SAPC  H12Y 5385   5.683   0.486   4.248 -0.3480 -0.4174  1.0234
   65SAPC  C313 5386   5.551   0.326   4.314  0.2569 -0.0288 -0.5833
   65SAPC  H13X 5387   5.635   0.274   4.364  1.6932  0.9970 -1.8351
   65SAPC  H13Y 5388   5.482   0.251   4.269 -3.1967  2.3424  0.3395
   65SAPC  C314 5389   5.468   0.415   4.409 -0.1022 -0.2544  0.4109
   65SAPC  H14X 5390   5.389   0.467   4.351 -1.2049 -0.1592  1.9239
   65SAPC  H14Y 5391   5.529   0.502   4.441  0.4174 -0.2023 -0.7025
   65SAPC  C315 5392   5.429   0.344   4.543  0.1938  0.5851  0.6054
   65SAPC  H15X 5393   5.361   0.258   4.523  1.6196 -0.5356  0.4334
   65SAPC  H15Y 5394   5.378   0.415   4.612  1.2971  3.3272 -1.2291
   65SAPC  C316 5395   5.547   0.289   4.614 -0.0903  0.2150 -0.2844
   65SAPC  H16X 5396   5.610   0.378   4.635 -0.5276  0.8258 -1.4750
   65SAPC  H16Y 5397   5.600   0.216   4.550 -0.0105 -0.7260  0.8259
   65SAPC  C317 5398   5.502   0.202   4.734  0.4626 -0.0139 -0.3645
   65SAPC  H17X 5399   5.597   0.156   4.769 -0.9949 -2.8581  0.1492
   65SAPC  H17Y 5400   5.434   0.123   4.696  0.7905 -1.0931  1.2178
   65SAPC  C318 5401   5.432   0.283   4.845  0.4384  0.3113 -0.6726
   65SAPC  H18X 5402   5.343   0.332   4.801  0.9022  0.9181 -0.9590
   65SAPC  H18Y 5403   5.496   0.363   4.888 -2.4255  1.8706  0.9937
   65SAPC  H18Z 5404   5.406   0.210   4.925  3.9232  0.6237  0.9515
   66SAPC     N 5405   4.953   5.390   2.523  0.1551 -1.1781 -0.1495
   66SAPC   C12 5406   4.922   5.440   2.661  0.7574  0.4013  0.2200
   66SAPC  H12A 5407   4.876   5.361   2.720 -1.8818  1.7822  0.1314
   66SAPC  H12B 5408   4.850   5.519   2.643  1.6381  1.1376 -0.1221
   66SAPC   C13 5409   5.057   5.283   2.540  0.3677 -0.4960  0.0441
   66SAPC  H13A 5410   5.100   5.251   2.446  0.0465 -1.1658  0.1194
   66SAPC  H13B 5411   5.144   5.319   2.593 -0.2510  0.7103  0.2860
   66SAPC  H13C 5412   5.021   5.194   2.589  1.6428 -0.8151  0.4161
   66SAPC   C14 5413   4.827   5.340   2.457  0.1086 -0.3215  0.1029
   66SAPC  H14A 5414   4.777   5.278   2.530 -1.2219  1.3779  0.7084
   66SAPC  H14B 5415   4.756   5.416   2.429  0.2093  0.2310  1.2838
   66SAPC  H14C 5416   4.847   5.284   2.366  0.7718  0.1568 -0.0504
   66SAPC   C15 5417   5.015   5.492   2.432  0.0812 -0.5822 -0.6873
   66SAPC  H15A 5418   4.944   5.572   2.416  1.1779  0.3945 -0.7772
   66SAPC  H15B 5419   5.097   5.543   2.481 -0.8801 -0.4656  0.8723
   66SAPC  H15C 5420   5.051   5.448   2.341  1.2280 -1.2866  0.0776
   66SAPC   C11 5421   5.037   5.485   2.752 -0.0441 -0.2139 -0.8408
   66SAPC  H11A 5422   5.094   5.395   2.783  0.4729  1.0042  2.0690
   66SAPC  H11B 5423   4.994   5.516   2.849  0.2782 -1.7052 -0.1999
   66SAPC     P 5424   5.275   5.588   2.694  0.2104 -0.2873  0.2312
   66SAPC   O13 5425   5.324   5.461   2.628 -0.1631 -0.1859 -0.2179
   66SAPC   O14 5426   5.306   5.721   2.632 -0.4470  0.4896 -0.0372
   66SAPC   O12 5427   5.118   5.586   2.686 -0.7308  0.2749  0.0608
   66SAPC   O11 5428   5.305   5.596   2.848 -0.5288 -0.3774  0.7130
   66SAPC    C1 5429   5.246   5.698   2.932  0.6212 -0.5600 -0.5745
   66SAPC    HA 5430   5.311   5.787   2.941  0.4719 -0.2715 -2.0154
   66SAPC    HB 5431   5.146   5.726   2.892 -0.3250 -1.2017  1.2255
   66SAPC    C2 5432   5.210   5.648   3.078 -0.0546  0.0541 -0.6433
   66SAPC    HS 5433   5.300   5.671   3.139 -0.5408 -1.9189  0.9356
   66SAPC   O21 5434   5.180   5.510   3.080 -0.2405 -0.5881 -0.1447
   66SAPC   C21 5435   5.273   5.435   3.114 -0.4885  0.2505 -0.0803
   66SAPC   O22 5436   5.387   5.467   3.158  0.0961  0.2955  0.3843
   66SAPC   C22 5437   5.234   5.292   3.094  0.2953  0.6760 -0.4012
   66SAPC   H2R 5438   5.221   5.264   2.988  0.5021 -0.3927 -0.1495
   66SAPC   H2S 5439   5.318   5.226   3.124 -1.3387 -1.6357 -0.6404
   66SAPC    C3 5440   5.089   5.728   3.133 -0.0422 -0.2210 -0.3946
   66SAPC    HX 5441   4.992   5.710   3.083 -1.2703  1.6113  1.1993
   66SAPC    HY 5442   5.109   5.837   3.123 -0.6077 -0.2092 -1.5211
   66SAPC   O31 5443   5.075   5.714   3.279 -0.4124  0.4448  0.6302
   66SAPC   C31 5444   4.987   5.630   3.317 -0.1601 -0.8698 -0.5150
   66SAPC   O32 5445   4.921   5.562   3.241 -0.1609  0.3158 -0.2322
   66SAPC   C32 5446   4.983   5.632   3.470 -0.1923 -0.2898 -0.0655
   66SAPC   H2X 5447   5.082   5.608   3.513 -0.7520 -0.8224  0.9691
   66SAPC   H2Y 5448   4.921   5.548   3.508  1.2075 -1.7453 -0.8591
   66SAPC   C23 5449   5.114   5.240   3.177 -0.2907 -0.1276  0.0239
   66SAPC   H3R 5450   5.094   5.136   3.145 -1.0368  0.1545 -0.4525
   66SAPC   H3S 5451   5.025   5.302   3.151 -0.2303 -0.4046 -0.8681
   66SAPC   C24 5452   5.135   5.247   3.332 -0.2494 -0.3469  0.6604
   66SAPC   H4R 5453   5.044   5.191   3.364 -0.1351 -1.3972 -0.7824
   66SAPC   H4S 5454   5.133   5.344   3.386  0.9159 -0.4140  0.8390
   66SAPC   C25 5455   5.259   5.176   3.377 -0.0238 -0.1754  0.2268
   66SAPC   H5R 5456   5.268   5.066   3.368 -0.2583 -0.2728  1.1089
   66SAPC   C26 5457   5.372   5.228   3.431 -0.0456  0.0755 -0.9281
   66SAPC   H6R 5458   5.440   5.150   3.468 -0.8456 -1.1325 -1.9289
   66SAPC   C27 5459   5.395   5.375   3.461  0.5683 -0.2130 -0.0687
   66SAPC   H7R 5460   5.312   5.441   3.425  0.1623  0.1099  1.3924
   66SAPC   H7S 5461   5.477   5.414   3.396  1.9452 -0.2969  1.5577
   66SAPC   C28 5462   5.430   5.397   3.608 -0.4039 -0.0838  0.9195
   66SAPC   H8R 5463   5.529   5.442   3.625 -1.1643  1.7858  0.5803
   66SAPC   C29 5464   5.352   5.395   3.714  0.1093 -1.1655 -0.3126
   66SAPC   H9R 5465   5.409   5.417   3.805 -0.2135 -1.1344 -0.1184
   66SAPC  C210 5466   5.204   5.357   3.730 -0.3987  0.6215  0.1010
   66SAPC  H10R 5467   5.161   5.378   3.629  2.0134  0.4188 -1.0575
   66SAPC  H10S 5468   5.159   5.433   3.798  1.2946  3.2820 -1.5337
   66SAPC  C211 5469   5.172   5.212   3.766 -0.8918 -0.5137  1.0750
   66SAPC  H11R 5470   5.136   5.146   3.685  0.8853 -1.0084  0.6382
   66SAPC  C212 5471   5.179   5.164   3.886  0.1370  1.1191  0.3404
   66SAPC  H12R 5472   5.140   5.063   3.905 -0.5157  1.1682 -0.6776
   66SAPC  C213 5473   5.242   5.225   4.009  0.9320  0.2958 -0.3260
   66SAPC  H13R 5474   5.324   5.292   3.974 -1.4237  3.1568 -0.7355
   66SAPC  H13S 5475   5.287   5.142   4.068 -0.9497 -1.2026 -0.9362
   66SAPC  C214 5476   5.149   5.311   4.096 -0.3984  0.6514  0.5678
   66SAPC  H14R 5477   5.049   5.314   4.051 -0.0742  0.5465 -0.1869
   66SAPC  C215 5478   5.177   5.350   4.221 -0.2820 -0.9943 -1.1601
   66SAPC  H15R 5479   5.104   5.411   4.276  2.6368 -0.5186  2.6816
   66SAPC  C216 5480   5.302   5.324   4.298 -0.6876  0.4096  0.8432
   66SAPC  H16R 5481   5.369   5.413   4.295  1.2083 -0.8723  2.6568
   66SAPC  H16S 5482   5.360   5.245   4.246 -0.6788  0.1965  1.1770
   66SAPC  C217 5483   5.267   5.278   4.437  1.0561  0.5525  1.1019
   66SAPC  H17R 5484   5.205   5.186   4.428 -1.2373  2.0401  0.8842
   66SAPC  H17S 5485   5.209   5.355   4.492 -0.8915 -0.9161  1.2275
   66SAPC  C218 5486   5.380   5.234   4.528 -0.9909  0.0012 -0.0554
   66SAPC  H18R 5487   5.440   5.327   4.541 -0.6062 -0.3484  0.7040
   66SAPC  H18S 5488   5.446   5.149   4.504 -1.0080 -0.8719  2.6146
   66SAPC  C219 5489   5.332   5.213   4.673 -0.3676  0.2522  0.1535
   66SAPC  H19R 5490   5.297   5.315   4.700 -1.1106  0.1220 -0.2991
   66SAPC  H19S 5491   5.408   5.174   4.744  0.6949  0.8493 -0.6281
   66SAPC  C220 5492   5.218   5.114   4.683  0.0502  0.4014 -0.9248
   66SAPC  H20R 5493   5.127   5.157   4.637 -0.3539 -0.4052 -0.8921
   66SAPC  H20S 5494   5.199   5.079   4.786 -1.3288  0.5039 -1.1260
   66SAPC  H20T 5495   5.244   5.027   4.619  1.1519  0.0885 -0.0896
   66SAPC   C33 5496   4.927   5.775   3.518  0.4618  0.5809 -0.4796
   66SAPC   H3X 5497   4.831   5.789   3.464  1.5673 -0.4255 -2.8461
   66SAPC   H3Y 5498   4.996   5.856   3.486  1.2033  0.3022  0.3518
   66SAPC   C34 5499   4.904   5.785   3.670  0.7073 -0.3969  0.0554
   66SAPC   H4X 5500   4.862   5.880   3.708  0.2384 -0.9386  0.9453
   66SAPC   H4Y 5501   5.009   5.793   3.706  0.8905  0.3906 -0.6309
   66SAPC   C35 5502   4.841   5.669   3.734  0.3563  0.3122 -0.1619
   66SAPC   H5X 5503   4.907   5.584   3.706 -1.0883 -0.4193 -1.4730
   66SAPC   H5Y 5504   4.745   5.650   3.682  1.0840 -0.6260 -1.1926
   66SAPC   C36 5505   4.814   5.679   3.888 -0.7342  0.6503 -0.0111
   66SAPC   H6X 5506   4.764   5.586   3.921 -0.2113  0.3602 -0.0192
   66SAPC   H6Y 5507   4.744   5.765   3.900 -2.1971 -0.2994 -1.2799
   66SAPC   C37 5508   4.931   5.696   3.976  0.7355 -0.3317 -0.4627
   66SAPC   H7X 5509   4.980   5.796   3.971  0.1169 -0.0524 -1.0480
   66SAPC   H7Y 5510   5.017   5.631   3.948  3.3492  1.5990  2.3975
   66SAPC   C38 5511   4.892   5.667   4.125 -0.4076 -0.0447 -0.2377
   66SAPC   H8X 5512   4.985   5.635   4.177 -0.4545  0.4408  0.1422
   66SAPC   H8Y 5513   4.806   5.597   4.132 -2.3073  1.9545 -2.0806
   66SAPC   C39 5514   4.844   5.808   4.176  0.0656  0.3676  0.2683
   66SAPC   H9X 5515   4.736   5.816   4.151  0.1876  0.4979 -0.2273
   66SAPC   H9Y 5516   4.888   5.885   4.109  0.2469 -1.8967 -2.3915
   66SAPC  C310 5517   4.865   5.834   4.324 -0.1674  0.0685  0.6854
   66SAPC  H10X 5518   4.973   5.836   4.350  0.3384  1.7391 -1.3003
   66SAPC  H10Y 5519   4.801   5.761   4.379 -2.1348  0.6332 -0.7540
   66SAPC  C311 5520   4.816   5.968   4.367  0.3293  0.1183 -0.4175
   66SAPC  H11X 5521   4.706   5.974   4.380  0.1292  0.7737 -2.1460
   66SAPC  H11Y 5522   4.828   6.043   4.286 -0.2764  1.6001  0.8171
   66SAPC  C312 5523   4.896   6.008   4.492 -0.0381 -0.4921 -0.0895
   66SAPC  H12X 5524   4.870   6.116   4.499  3.0921  0.4278 -1.0281
   66SAPC  H12Y 5525   5.005   5.995   4.478 -0.2171 -0.1603 -2.1612
   66SAPC  C313 5526   4.839   5.927   4.610  0.0418  0.5668 -0.0627
   66SAPC  H13X 5527   4.843   5.816   4.600  0.1034  0.7227 -2.1382
   66SAPC  H13Y 5528   4.729   5.933   4.623 -0.0394 -0.8831  0.1136
   66SAPC  C314 5529   4.897   5.974   4.745  0.6077 -0.4107 -0.1607
   66SAPC  H14X 5530   4.850   6.071   4.773 -1.8914 -1.3944 -0.6820
   66SAPC  H14Y 5531   5.007   5.991   4.744  0.4588  0.6278 -1.3712
   66SAPC  C315 5532   4.866   5.882   4.868  0.2013 -0.8813 -0.6597
   66SAPC  H15X 5533   4.914   5.782   4.868  1.2395 -0.4486  1.8986
   66SAPC  H15Y 5534   4.758   5.859   4.853  0.1630 -0.8112 -0.4944
   66SAPC  C316 5535   4.904   5.947   5.006  0.2370  0.7029 -0.3038
   66SAPC  H16X 5536   4.869   5.878   5.086  0.3246 -0.1851 -1.0090
   66SAPC  H16Y 5537   4.855   6.045   5.024  0.8894  1.0762 -0.5535
   66SAPC  C317 5538   5.058   5.959   5.025 -0.0771 -0.0512  0.5684
   66SAPC  H17X 5539   5.108   6.034   4.961 -0.2546 -0.4877 -0.0890
   66SAPC  H17Y 5540   5.110   5.862   5.011 -0.3112 -0.1136  0.1256
   66SAPC  C318 5541   5.094   6.005   5.171  0.9540 -0.2350 -0.4527
   66SAPC  H18X 5542   5.064   5.926   5.243 -1.3958 -1.6969 -2.8159
   66SAPC  H18Y 5543   5.045   6.097   5.207  3.4989  0.6964  0.8647
   66SAPC  H18Z 5544   5.199   6.037   5.186  0.9520 -1.0344  1.5085
   67SAPC     N 5545   1.513   2.431   2.711 -0.5075 -0.3034  0.1757
   67SAPC   C12 5546   1.415   2.496   2.816  0.2520  0.1036  0.4625
   67SAPC  H12A 5547   1.331   2.429   2.805  0.2636  0.4644 -2.8485
   67SAPC  H12B 5548   1.367   2.585   2.777  0.4463  0.7055  1.5498
   67SAPC   C13 5549   1.647   2.489   2.713 -0.2533  0.7458 -0.2848
   67SAPC  H13A 5550   1.651   2.596   2.699 -1.3194  1.0888  1.7351
   67SAPC  H13B 5551   1.688   2.487   2.813 -0.2555  3.0148 -0.1820
   67SAPC  H13C 5552   1.716   2.434   2.650  1.2267  0.2508  1.6565
   67SAPC   C14 5553   1.535   2.289   2.728  0.0017  0.7498 -0.5890
   67SAPC  H14A 5554   1.441   2.238   2.716  0.3834 -0.2183  0.4183
   67SAPC  H14B 5555   1.603   2.265   2.648  0.0915  0.7516 -0.5129
   67SAPC  H14C 5556   1.570   2.277   2.829 -2.5917  1.0579  0.4043
   67SAPC   C15 5557   1.439   2.458   2.581 -0.0180 -0.4798  0.1215
   67SAPC  H15A 5558   1.428   2.564   2.568 -1.8814 -0.7330 -0.6984
   67SAPC  H15B 5559   1.496   2.429   2.495  2.5104  2.2820  0.7215
   67SAPC  H15C 5560   1.342   2.410   2.581  0.7769 -2.1571 -0.2585
   67SAPC   C11 5561   1.470   2.508   2.956 -0.3555 -0.1775  0.0371
   67SAPC  H11A 5562   1.390   2.548   3.021  0.3475  1.6361 -0.1390
   67SAPC  H11B 5563   1.550   2.585   2.959 -2.0249  1.6293  3.2153
   67SAPC     P 5564   1.648   2.361   3.087 -0.0583  0.0083  0.2168
   67SAPC   O13 5565   1.667   2.219   3.132  0.4458 -0.4200  0.5959
   67SAPC   O14 5566   1.760   2.419   3.008 -0.3127  0.2532 -0.3501
   67SAPC   O12 5567   1.512   2.378   3.005 -0.2185  0.0031 -0.2221
   67SAPC   O11 5568   1.618   2.446   3.219 -0.2252  0.2431 -0.1350
   67SAPC    C1 5569   1.494   2.425   3.295 -0.7499  1.0352 -0.4189
   67SAPC    HA 5570   1.433   2.517   3.281 -0.6521  1.2166  0.3408
   67SAPC    HB 5571   1.431   2.344   3.253 -1.5006  0.8890  0.9536
   67SAPC    C2 5572   1.522   2.410   3.450  0.6966 -0.2016 -0.1959
   67SAPC    HS 5573   1.426   2.366   3.486 -0.3416  1.5640 -0.6824
   67SAPC   O21 5574   1.572   2.524   3.512 -0.4688 -0.0249  0.8523
   67SAPC   C21 5575   1.488   2.604   3.566  0.4366  0.6561  0.3983
   67SAPC   O22 5576   1.363   2.590   3.572 -0.0326 -0.1547  0.0819
   67SAPC   C22 5577   1.553   2.728   3.629  0.6612 -0.1560 -0.0942
   67SAPC   H2R 5578   1.662   2.709   3.622  0.9587  1.2852  0.2436
   67SAPC   H2S 5579   1.517   2.814   3.568  1.9270  0.1216 -0.4843
   67SAPC    C3 5580   1.624   2.301   3.477  0.9405 -0.0872  0.0871
   67SAPC    HX 5581   1.718   2.350   3.444  0.1786  1.6421  0.3402
   67SAPC    HY 5582   1.623   2.212   3.411  1.9381  0.7307 -1.0746
   67SAPC   O31 5583   1.632   2.272   3.613 -0.1322  0.0003 -0.5396
   67SAPC   C31 5584   1.556   2.168   3.655 -0.6192 -0.1332 -0.8799
   67SAPC   O32 5585   1.478   2.109   3.587 -0.4723  0.0194 -0.7822
   67SAPC   C32 5586   1.564   2.145   3.808  0.7210 -0.5815 -0.2499
   67SAPC   H2X 5587   1.643   2.211   3.850  0.1852 -0.9799  1.4406
   67SAPC   H2Y 5588   1.584   2.038   3.833  0.0801  0.0323  3.3378
   67SAPC   C23 5589   1.491   2.753   3.773 -0.5691 -0.2083  0.7303
   67SAPC   H3R 5590   1.380   2.753   3.766 -0.4733  0.8031 -1.8973
   67SAPC   H3S 5591   1.522   2.858   3.794  2.3885 -0.0810 -3.1423
   67SAPC   C24 5592   1.528   2.668   3.893 -0.3011  0.1345 -0.1226
   67SAPC   H4R 5593   1.503   2.562   3.870  1.5905 -0.1448 -1.1036
   67SAPC   H4S 5594   1.476   2.706   3.983  0.3523 -0.0210  0.3292
   67SAPC   C25 5595   1.682   2.660   3.913  0.4959 -0.2017  0.1458
   67SAPC   H5R 5596   1.747   2.657   3.825  1.0278  1.3930  0.4430
   67SAPC   C26 5597   1.735   2.659   4.034  0.2026  1.4142  0.2115
   67SAPC   H6R 5598   1.839   2.629   4.055 -1.1370 -3.3493  1.3738
   67SAPC   C27 5599   1.656   2.639   4.162  0.2248 -0.6756  0.0654
   67SAPC   H7R 5600   1.567   2.574   4.152 -1.7117  1.9376 -1.2384
   67SAPC   H7S 5601   1.618   2.740   4.189  0.2650 -0.7491  0.3974
   67SAPC   C28 5602   1.725   2.589   4.284  0.5135 -0.0017 -0.0302
   67SAPC   H8R 5603   1.681   2.499   4.330  2.9279 -0.0993  2.3574
   67SAPC   C29 5604   1.824   2.648   4.353  0.0054 -0.5106  0.0773
   67SAPC   H9R 5605   1.865   2.601   4.443  1.0671  3.9405  2.2149
   67SAPC  C210 5606   1.892   2.781   4.317 -0.1486  0.5428 -0.6825
   67SAPC  H10R 5607   1.828   2.864   4.355 -1.4637 -0.7905  0.1549
   67SAPC  H10S 5608   1.882   2.798   4.208  0.5686  0.1208 -0.8206
   67SAPC  C211 5609   2.028   2.801   4.370 -0.0432 -0.3919  0.2144
   67SAPC  H11R 5610   2.036   2.783   4.478 -0.8958 -1.5352  0.1061
   67SAPC  C212 5611   2.135   2.838   4.306 -0.7089 -0.7554 -0.1690
   67SAPC  H12R 5612   2.221   2.851   4.374 -1.2320  0.0189  0.3692
   67SAPC  C213 5613   2.145   2.881   4.159 -0.0134 -0.5522 -0.2296
   67SAPC  H13R 5614   2.248   2.911   4.131  0.0297  0.4532  0.9614
   67SAPC  H13S 5615   2.083   2.971   4.140  0.1318  0.1654  2.3248
   67SAPC  C214 5616   2.114   2.779   4.060  0.4770  0.8870 -0.0439
   67SAPC  H14R 5617   2.081   2.684   4.105  1.7663  0.4316 -0.0322
   67SAPC  C215 5618   2.127   2.774   3.925 -0.6037  0.6423  0.1524
   67SAPC  H15R 5619   2.091   2.685   3.872 -2.0577  0.8585  0.7315
   67SAPC  C216 5620   2.162   2.890   3.840 -0.0406 -0.2557  0.1284
   67SAPC  H16R 5621   2.207   2.963   3.910  0.2533 -3.2782  3.3826
   67SAPC  H16S 5622   2.074   2.928   3.783 -2.3008 -3.5306  1.1100
   67SAPC  C217 5623   2.270   2.850   3.734 -0.0153 -0.0923 -0.1678
   67SAPC  H17R 5624   2.238   2.755   3.685  1.9362 -1.7842  1.6370
   67SAPC  H17S 5625   2.376   2.855   3.766 -0.1131  1.6851 -0.0442
   67SAPC  C218 5626   2.262   2.949   3.610  0.8026 -0.0923 -0.0746
   67SAPC  H18R 5627   2.167   2.949   3.552  0.7977  1.1444 -0.0795
   67SAPC  H18S 5628   2.345   2.910   3.548  1.4975 -0.4215  1.0244
   67SAPC  C219 5629   2.297   3.093   3.650  0.2580 -0.5817 -0.9778
   67SAPC  H19R 5630   2.406   3.095   3.674 -0.2958 -0.4654  1.9248
   67SAPC  H19S 5631   2.244   3.117   3.744  3.0911 -2.0967  1.1688
   67SAPC  C220 5632   2.273   3.198   3.544  0.4762 -0.3575 -0.4138
   67SAPC  H20R 5633   2.333   3.169   3.455  0.3645 -0.0999 -0.5741
   67SAPC  H20S 5634   2.303   3.296   3.585 -1.9725  0.9947 -1.6781
   67SAPC  H20T 5635   2.164   3.215   3.532  0.2683 -0.3124  1.3281
   67SAPC   C33 5636   1.422   2.183   3.873  0.6542  0.1117 -0.5790
   67SAPC   H3X 5637   1.410   2.125   3.967 -0.4090 -0.3013 -0.9578
   67SAPC   H3Y 5638   1.344   2.133   3.813  0.2460 -0.1128  0.1224
   67SAPC   C34 5639   1.396   2.331   3.888  0.4829 -0.1959  0.0335
   67SAPC   H4X 5640   1.401   2.386   3.791  0.0979  0.1829  0.2217
   67SAPC   H4Y 5641   1.479   2.370   3.951  0.6878 -2.0320  0.9601
   67SAPC   C35 5642   1.264   2.363   3.964 -0.7189 -0.0540 -0.0228
   67SAPC   H5X 5643   1.194   2.299   3.906 -2.0668  1.1764  0.2061
   67SAPC   H5Y 5644   1.227   2.466   3.947  0.9561  0.5440 -0.2483
   67SAPC   C36 5645   1.258   2.309   4.110  0.2936  0.0467 -0.3209
   67SAPC   H6X 5646   1.312   2.213   4.119 -0.3969 -0.2655  0.7262
   67SAPC   H6Y 5647   1.151   2.286   4.133  0.2783  1.4024  1.1242
   67SAPC   C37 5648   1.321   2.399   4.220  0.6686 -0.1726  0.2152
   67SAPC   H7X 5649   1.427   2.399   4.187  0.2759 -0.9812 -1.1234
   67SAPC   H7Y 5650   1.315   2.352   4.320 -1.2209 -3.8137 -1.4145
   67SAPC   C38 5651   1.282   2.547   4.237  0.0710 -0.6396 -0.0356
   67SAPC   H8X 5652   1.314   2.594   4.142  0.5007  0.5366  0.6629
   67SAPC   H8Y 5653   1.348   2.597   4.311 -1.4254  1.0817  0.2012
   67SAPC   C39 5654   1.139   2.570   4.282 -1.2210  0.4810 -1.1208
   67SAPC   H9X 5655   1.090   2.508   4.204 -2.1214 -0.5978  0.2451
   67SAPC   H9Y 5656   1.123   2.680   4.276  2.3158  1.3285  1.5337
   67SAPC  C310 5657   1.096   2.501   4.414 -0.1992  0.1844 -0.0933
   67SAPC  H10X 5658   1.157   2.409   4.428  1.0809  1.2399  1.7102
   67SAPC  H10Y 5659   0.991   2.468   4.400  0.4873 -2.8453  1.2464
   67SAPC  C311 5660   1.111   2.596   4.540 -0.2272  0.0496  0.3277
   67SAPC  H11X 5661   1.059   2.693   4.528 -1.2578 -0.7516 -2.3703
   67SAPC  H11Y 5662   1.219   2.619   4.548 -0.6762  1.7167  2.7680
   67SAPC  C312 5663   1.071   2.525   4.669 -0.2982  0.7509  0.7366
   67SAPC  H12X 5664   0.962   2.499   4.665 -0.0902 -0.0555 -2.1505
   67SAPC  H12Y 5665   1.084   2.591   4.757 -0.6977  2.3679 -0.3812
   67SAPC  C313 5666   1.146   2.393   4.704 -0.0063  0.2109 -0.1865
   67SAPC  H13X 5667   1.107   2.320   4.630 -0.8884 -0.8760  1.3120
   67SAPC  H13Y 5668   1.109   2.364   4.804  1.2860  0.3954  0.3675
   67SAPC  C314 5669   1.299   2.402   4.699 -0.8352  0.6193  1.1629
   67SAPC  H14X 5670   1.335   2.493   4.752 -0.7025  1.0697  0.3153
   67SAPC  H14Y 5671   1.322   2.423   4.593 -0.1508  0.0940  1.2005
   67SAPC  C315 5672   1.372   2.276   4.747  0.6122 -0.4776 -0.3793
   67SAPC  H15X 5673   1.474   2.300   4.711 -0.1378  2.3201 -0.8565
   67SAPC  H15Y 5674   1.333   2.182   4.702  0.3575  0.2090 -1.6268
   67SAPC  C316 5675   1.393   2.256   4.896  0.6271  0.1893 -1.0173
   67SAPC  H16X 5676   1.293   2.222   4.933 -0.1653  2.2831 -1.1323
   67SAPC  H16Y 5677   1.416   2.359   4.931 -0.2412  0.1329 -0.2216
   67SAPC  C317 5678   1.482   2.136   4.932 -0.0049 -0.1123  0.1579
   67SAPC  H17X 5679   1.462   2.110   5.038 -1.0224 -0.2391 -0.0549
   67SAPC  H17Y 5680   1.591   2.160   4.933 -0.1840  0.7272  0.6351
   67SAPC  C318 5681   1.459   2.005   4.850  0.3044 -0.0772  0.2416
   67SAPC  H18X 5682   1.355   1.982   4.820  0.9457 -1.7370 -0.8304
   67SAPC  H18Y 5683   1.504   1.927   4.915  0.2104 -0.4453 -0.1360
   67SAPC  H18Z 5684   1.520   2.021   4.759 -0.4437 -0.8007 -0.3933
   68SAPC     N 5685   1.207   3.130   2.478  0.4392  0.2667 -0.3407
   68SAPC   C12 5686   1.340   3.112   2.539 -0.1424  0.3908 -0.6788
   68SAPC  H12A 5687   1.402   3.199   2.526  2.3425 -1.0285  0.7020
   68SAPC  H12B 5688   1.396   3.035   2.489  3.1740 -0.2123  3.3609
   68SAPC   C13 5689   1.125   3.239   2.543 -0.4790  0.0693 -0.2895
   68SAPC  H13A 5690   1.166   3.338   2.530 -0.3855  0.1105  0.2901
   68SAPC  H13B 5691   1.027   3.251   2.498 -0.3761 -0.4165 -0.6498
   68SAPC  H13C 5692   1.121   3.231   2.651  0.0449 -0.1024 -0.2810
   68SAPC   C14 5693   1.222   3.183   2.337 -0.2168 -0.1401 -0.5310
   68SAPC  H14A 5694   1.126   3.172   2.289  0.2571 -0.9229 -1.3338
   68SAPC  H14B 5695   1.259   3.284   2.329  0.5246 -0.4722 -1.6727
   68SAPC  H14C 5696   1.286   3.123   2.274  1.8087  0.1169  1.1537
   68SAPC   C15 5697   1.121   3.002   2.472  0.6009 -0.6093  0.0935
   68SAPC  H15A 5698   1.165   2.929   2.405  2.5931  0.8124 -0.2229
   68SAPC  H15B 5699   1.122   2.967   2.575 -2.1029  0.1347  0.4603
   68SAPC  H15C 5700   1.018   3.021   2.448 -0.2863  0.6723  4.0381
   68SAPC   C11 5701   1.344   3.087   2.692  0.5031  0.0551 -0.8204
   68SAPC  H11A 5702   1.283   3.163   2.746  0.4115 -2.6248  3.3045
   68SAPC  H11B 5703   1.446   3.091   2.734  0.4450 -0.8381 -0.5891
   68SAPC     P 5704   1.355   2.827   2.760  0.3877  0.1635  0.0624
   68SAPC   O13 5705   1.251   2.724   2.800  0.0978 -0.4547 -0.0829
   68SAPC   O14 5706   1.449   2.791   2.649  0.2588 -0.0613 -0.0525
   68SAPC   O12 5707   1.278   2.962   2.728  0.4213 -0.1713 -0.1242
   68SAPC   O11 5708   1.445   2.866   2.883  0.0649 -0.0061 -0.0425
   68SAPC    C1 5709   1.395   2.941   2.999 -0.3913 -0.7113 -0.5846
   68SAPC    HA 5710   1.469   3.017   3.034 -1.1046 -0.2266 -0.0965
   68SAPC    HB 5711   1.300   2.994   2.974 -1.0958 -1.3013  0.7383
   68SAPC    C2 5712   1.360   2.845   3.117  0.0689  0.1578  0.9848
   68SAPC    HS 5713   1.321   2.749   3.077 -0.7323 -0.0988  2.3285
   68SAPC   O21 5714   1.264   2.910   3.201 -0.8045 -0.1480  0.2891
   68SAPC   C21 5715   1.209   2.829   3.279  0.2002 -0.3163 -0.6381
   68SAPC   O22 5716   1.216   2.710   3.278  0.2590  0.1486  0.3026
   68SAPC   C22 5717   1.136   2.912   3.394 -0.0102 -0.5192 -0.0381
   68SAPC   H2R 5718   1.178   3.015   3.395 -3.6798  1.1366  0.8962
   68SAPC   H2S 5719   1.030   2.931   3.366  0.2145  1.7763  0.4636
   68SAPC    C3 5720   1.493   2.818   3.195 -0.8608  0.1182 -0.7112
   68SAPC    HX 5721   1.571   2.788   3.121  0.8520  3.2443 -0.3680
   68SAPC    HY 5722   1.483   2.735   3.268  1.9036 -0.1837 -0.5583
   68SAPC   O31 5723   1.536   2.935   3.266 -0.4922  0.0728 -0.3553
   68SAPC   C31 5724   1.658   2.926   3.321  0.6893 -0.0800  0.1477
   68SAPC   O32 5725   1.729   2.831   3.318 -0.2745 -0.4030  0.0658
   68SAPC   C32 5726   1.687   3.049   3.414  0.4286  0.5335 -0.1359
   68SAPC   H2X 5727   1.608   3.036   3.490  1.6533  1.3534  1.3263
   68SAPC   H2Y 5728   1.655   3.139   3.359 -0.5167  1.4376  1.8201
   68SAPC   C23 5729   1.132   2.864   3.543 -0.3558 -0.1485  0.3138
   68SAPC   H3R 5730   1.085   2.943   3.606 -1.5864 -1.4851  1.1435
   68SAPC   H3S 5731   1.233   2.841   3.582  0.2619 -1.4279 -1.8459
   68SAPC   C24 5732   1.067   2.729   3.569  0.0159 -0.2347 -0.0573
   68SAPC   H4R 5733   1.110   2.677   3.658  2.3237 -0.1596 -1.0500
   68SAPC   H4S 5734   1.098   2.661   3.486 -0.2505  0.2234 -0.5349
   68SAPC   C25 5735   0.914   2.746   3.563 -0.2758 -0.2211 -1.0721
   68SAPC   H5R 5736   0.870   2.766   3.464 -0.7553 -2.8838 -1.4903
   68SAPC   C26 5737   0.835   2.748   3.673  0.1109  0.3248  0.2962
   68SAPC   H6R 5738   0.726   2.750   3.661  0.1152  0.3304  0.2575
   68SAPC   C27 5739   0.884   2.722   3.815  0.6132 -0.4073 -0.0091
   68SAPC   H7R 5740   0.939   2.810   3.854 -1.7636 -0.2121  3.3785
   68SAPC   H7S 5741   0.953   2.635   3.816  3.0419  1.3414 -2.7332
   68SAPC   C28 5742   0.769   2.695   3.911 -0.7782  0.3816  0.3662
   68SAPC   H8R 5743   0.684   2.642   3.865 -2.1340  1.7532  1.2077
   68SAPC   C29 5744   0.759   2.734   4.041  0.1089  0.3415  0.2194
   68SAPC   H9R 5745   0.668   2.699   4.093 -0.8753  2.0659 -0.2546
   68SAPC  C210 5746   0.861   2.808   4.126  0.1657 -0.9514  0.3926
   68SAPC  H10R 5747   0.948   2.851   4.072 -0.1329 -1.4449 -0.4961
   68SAPC  H10S 5748   0.912   2.720   4.171 -0.4737 -1.6663 -0.2627
   68SAPC  C211 5749   0.784   2.891   4.225  0.0018 -0.7270  0.4709
   68SAPC  H11R 5750   0.762   2.991   4.187 -0.1243  0.3152  3.0946
   68SAPC  C212 5751   0.748   2.869   4.352 -0.4014 -0.1338  0.1632
   68SAPC  H12R 5752   0.691   2.949   4.402 -2.7285 -2.0968  0.8581
   68SAPC  C213 5753   0.784   2.744   4.428 -0.0836 -0.5377  0.6489
   68SAPC  H13R 5754   0.819   2.774   4.529  0.0303 -3.8729  1.7244
   68SAPC  H13S 5755   0.868   2.684   4.386  0.7763 -0.8128  2.6188
   68SAPC  C214 5756   0.661   2.665   4.429 -0.5273  0.0373  0.1817
   68SAPC  H14R 5757   0.656   2.591   4.348 -0.3885  1.7873 -1.5238
   68SAPC  C215 5758   0.558   2.675   4.519 -0.7993  0.3103  0.1243
   68SAPC  H15R 5759   0.467   2.617   4.498 -0.0769 -0.7621 -0.1847
   68SAPC  C216 5760   0.556   2.750   4.647 -0.0036  0.1841  0.3127
   68SAPC  H16R 5761   0.458   2.762   4.698  1.8423  0.8528  4.0912
   68SAPC  H16S 5762   0.598   2.851   4.631  1.4733 -0.3169  0.8249
   68SAPC  C217 5763   0.653   2.686   4.743  0.2880  0.3389 -0.8000
   68SAPC  H17R 5764   0.753   2.662   4.703  1.5003  2.4170  0.7371
   68SAPC  H17S 5765   0.609   2.590   4.776  1.0920  0.4119  0.5842
   68SAPC  C218 5766   0.679   2.760   4.868 -0.1099  0.5120 -0.6679
   68SAPC  H18R 5767   0.587   2.809   4.908  0.2758  0.3246  0.4935
   68SAPC  H18S 5768   0.756   2.837   4.848  1.8599 -0.3748  2.6473
   68SAPC  C219 5769   0.721   2.674   4.992 -1.3098  0.3463 -0.4948
   68SAPC  H19R 5770   0.795   2.744   5.037  0.2521 -1.6519  0.2229
   68SAPC  H19S 5771   0.760   2.572   4.971 -0.1821  0.7098 -0.2278
   68SAPC  C220 5772   0.599   2.650   5.087  0.7580 -0.1405 -0.2569
   68SAPC  H20R 5773   0.517   2.602   5.029  0.9901 -1.0545  0.1591
   68SAPC  H20S 5774   0.562   2.747   5.127  0.2885 -0.4839  0.1682
   68SAPC  H20T 5775   0.626   2.589   5.176  1.4835 -1.1611 -1.1596
   68SAPC   C33 5776   1.820   3.031   3.486 -0.0577  0.3507  0.0547
   68SAPC   H3X 5777   1.901   3.051   3.412 -0.9417  0.5807 -0.8744
   68SAPC   H3Y 5778   1.838   2.925   3.513  0.2259  0.0688 -1.1756
   68SAPC   C34 5779   1.828   3.115   3.615 -0.3191 -0.1288  0.3185
   68SAPC   H4X 5780   1.809   3.223   3.599  0.9220 -0.0466 -0.8477
   68SAPC   H4Y 5781   1.932   3.108   3.653 -0.0469 -1.4564 -0.6085
   68SAPC   C35 5782   1.737   3.055   3.722  0.0613  0.4294  0.2368
   68SAPC   H5X 5783   1.778   2.955   3.747  2.5336  0.3937 -3.2761
   68SAPC   H5Y 5784   1.630   3.051   3.692  0.1593  0.3695 -0.1081
   68SAPC   C36 5785   1.735   3.134   3.857  0.5875 -0.6224 -0.2564
   68SAPC   H6X 5786   1.671   3.222   3.835  0.6130 -0.6036 -0.2553
   68SAPC   H6Y 5787   1.837   3.174   3.877 -0.1785  1.4353 -0.2210
   68SAPC   C37 5788   1.686   3.056   3.990 -0.5135  0.3937  0.3337
   68SAPC   H7X 5789   1.746   2.963   4.000 -0.0947  0.7325  1.0460
   68SAPC   H7Y 5790   1.582   3.018   3.980  0.2232 -1.3523 -1.3992
   68SAPC   C38 5791   1.699   3.144   4.112 -0.1765  0.3817  0.1142
   68SAPC   H8X 5792   1.653   3.089   4.197  0.4792 -0.4032 -0.0284
   68SAPC   H8Y 5793   1.631   3.230   4.093 -2.4562 -1.5158 -0.8758
   68SAPC   C39 5794   1.843   3.186   4.148  0.1620 -0.1029  0.4574
   68SAPC   H9X 5795   1.895   3.244   4.069  1.3670 -2.6625 -0.7458
   68SAPC   H9Y 5796   1.895   3.088   4.151 -1.2766 -0.9399 -0.6764
   68SAPC  C310 5797   1.858   3.250   4.291 -0.1642  0.1831  0.7646
   68SAPC  H10X 5798   1.826   3.356   4.297  1.5212  0.6972  1.4721
   68SAPC  H10Y 5799   1.969   3.251   4.305 -0.2253  0.4212  1.2689
   68SAPC  C311 5800   1.783   3.170   4.399 -0.7753  0.4656 -0.9495
   68SAPC  H11X 5801   1.817   3.065   4.386 -2.6094 -0.0937 -1.5297
   68SAPC  H11Y 5802   1.672   3.185   4.397 -0.4137  4.1767 -1.7787
   68SAPC  C312 5803   1.805   3.214   4.542 -0.2048 -0.1818 -0.3055
   68SAPC  H12X 5804   1.762   3.315   4.561  1.6108  0.3354  1.2869
   68SAPC  H12Y 5805   1.914   3.226   4.556 -0.3879 -0.1974  1.3386
   68SAPC  C313 5806   1.765   3.111   4.652 -0.2028  1.0477  0.0489
   68SAPC  H13X 5807   1.816   3.015   4.630 -2.7232 -0.0075 -1.6060
   68SAPC  H13Y 5808   1.659   3.083   4.635  0.3026 -0.0946 -1.4092
   68SAPC  C314 5809   1.797   3.166   4.789 -0.8595 -0.4962 -0.2880
   68SAPC  H14X 5810   1.733   3.256   4.796  0.3705  0.3131  1.2912
   68SAPC  H14Y 5811   1.901   3.205   4.782 -0.6206 -1.2312 -0.9549
   68SAPC  C315 5812   1.772   3.069   4.901 -0.4146  0.6530  0.0454
   68SAPC  H15X 5813   1.801   3.125   4.993  1.6757  0.0269 -0.1765
   68SAPC  H15Y 5814   1.845   2.989   4.878 -0.0140  1.2557 -0.8559
   68SAPC  C316 5815   1.623   3.017   4.908  0.4597 -0.0564  0.3770
   68SAPC  H16X 5816   1.600   2.930   4.973 -0.9047  0.2631  0.3465
   68SAPC  H16Y 5817   1.606   2.981   4.805 -2.8790  1.3005  0.3343
   68SAPC  C317 5818   1.535   3.132   4.959  0.3748  0.1017  0.6160
   68SAPC  H17X 5819   1.556   3.221   4.895  1.5507 -0.5118  0.1113
   68SAPC  H17Y 5820   1.562   3.164   5.062 -0.7156  1.9839  0.3562
   68SAPC  C318 5821   1.386   3.090   4.935 -0.0651  0.0603  0.8274
   68SAPC  H18X 5822   1.347   3.016   5.008 -1.3358  0.5055  0.6293
   68SAPC  H18Y 5823   1.375   3.041   4.836 -2.0235 -1.1709  1.6024
   68SAPC  H18Z 5824   1.318   3.179   4.935  0.2159  0.2783  0.6189
   69SAPC     N 5825   0.790   5.528   2.715 -0.3148 -0.4509 -0.3750
   69SAPC   C12 5826   0.641   5.529   2.679  0.1233 -0.3587  0.0054
   69SAPC  H12A 5827   0.609   5.443   2.624  0.3024  0.3900 -1.3045
   69SAPC  H12B 5828   0.634   5.609   2.607  2.4477  0.7313  0.8746
   69SAPC   C13 5829   0.825   5.636   2.813 -0.8114  0.3702 -0.3634
   69SAPC  H13A 5830   0.925   5.641   2.855 -1.1726  3.1016  0.3072
   69SAPC  H13B 5831   0.806   5.732   2.768 -2.1072 -0.3657 -1.4458
   69SAPC  H13C 5832   0.755   5.622   2.894 -0.7995 -2.3249 -0.7206
   69SAPC   C14 5833   0.836   5.396   2.759 -0.0270 -0.9159  0.0189
   69SAPC  H14A 5834   0.769   5.351   2.830 -4.6936  1.9230 -2.1209
   69SAPC  H14B 5835   0.846   5.335   2.670  0.2863  1.1614 -1.4471
   69SAPC  H14C 5836   0.934   5.409   2.803  0.3639  0.1759 -1.0905
   69SAPC   C15 5837   0.882   5.581   2.606 -0.5039  0.1845 -0.3100
   69SAPC  H15A 5838   0.984   5.560   2.635 -0.8820 -2.3715 -0.6109
   69SAPC  H15B 5839   0.871   5.531   2.511  1.1720 -0.2958 -0.2941
   69SAPC  H15C 5840   0.857   5.685   2.590  2.5205  0.9299 -0.8150
   69SAPC   C11 5841   0.537   5.552   2.794  0.2170 -0.0080  0.4049
   69SAPC  H11A 5842   0.434   5.543   2.754 -0.6183 -2.5580  2.7726
   69SAPC  H11B 5843   0.551   5.660   2.814  0.0658 -0.2249  1.7985
   69SAPC     P 5844   0.503   5.343   2.941  0.5824 -0.6724 -0.1886
   69SAPC   O13 5845   0.358   5.324   2.922  0.5932  0.3848  0.2410
   69SAPC   O14 5846   0.582   5.252   2.857 -0.1733  0.3904 -0.2669
   69SAPC   O12 5847   0.545   5.494   2.919  0.2567 -0.3447 -0.3682
   69SAPC   O11 5848   0.542   5.318   3.093  0.2014  0.2017 -0.0312
   69SAPC    C1 5849   0.628   5.404   3.171  0.3283 -0.4404 -0.1122
   69SAPC    HA 5850   0.700   5.343   3.229  1.3954  0.6547 -0.2299
   69SAPC    HB 5851   0.698   5.457   3.103  0.6130 -0.3267  0.2692
   69SAPC    C2 5852   0.553   5.510   3.260  0.5685  0.1468  1.6074
   69SAPC    HS 5853   0.628   5.584   3.297  0.2196  0.8609  0.9173
   69SAPC   O21 5854   0.481   5.451   3.365 -0.5443  0.5198 -0.6470
   69SAPC   C21 5855   0.559   5.390   3.459 -0.5279  0.5143 -0.0122
   69SAPC   O22 5856   0.681   5.392   3.454 -0.3720  0.2484  0.3152
   69SAPC   C22 5857   0.473   5.308   3.554  0.4934  0.4130  0.0085
   69SAPC   H2R 5858   0.431   5.377   3.630  0.7873  0.4230  0.1643
   69SAPC   H2S 5859   0.393   5.270   3.488  3.0326 -4.3264 -0.7623
   69SAPC    C3 5860   0.456   5.597   3.169 -0.3662 -0.1929 -0.0119
   69SAPC    HX 5861   0.391   5.524   3.117 -2.7712  1.3953  0.6079
   69SAPC    HY 5862   0.503   5.661   3.091 -2.2227  3.4581  1.5967
   69SAPC   O31 5863   0.381   5.692   3.243 -0.2597 -0.7749  0.0919
   69SAPC   C31 5864   0.283   5.643   3.306 -0.0985 -0.4103 -0.4550
   69SAPC   O32 5865   0.235   5.529   3.294  0.2367 -0.1348  0.3020
   69SAPC   C32 5866   0.216   5.735   3.404 -0.1117 -0.1554 -0.2050
   69SAPC   H2X 5867   0.107   5.721   3.390 -0.2798  0.3962  0.4317
   69SAPC   H2Y 5868   0.232   5.842   3.380 -2.8787  0.3459 -0.1809
   69SAPC   C23 5869   0.548   5.189   3.624 -0.3340 -0.1311  0.3480
   69SAPC   H3R 5870   0.608   5.134   3.548  1.8003 -0.6173  2.2640
   69SAPC   H3S 5871   0.471   5.117   3.658 -2.3063  1.3066 -0.8545
   69SAPC   C24 5872   0.635   5.229   3.743  0.4428 -0.0999  0.2568
   69SAPC   H4R 5873   0.567   5.247   3.829  0.4957 -0.1019  0.2993
   69SAPC   H4S 5874   0.683   5.327   3.721 -0.8617  0.6454  0.5670
   69SAPC   C25 5875   0.731   5.124   3.803  0.1251 -0.5256  0.5184
   69SAPC   H5R 5876   0.774   5.066   3.720 -1.1795  0.5113 -0.9601
   69SAPC   C26 5877   0.798   5.139   3.920 -0.3994  1.1788  0.2620
   69SAPC   H6R 5878   0.870   5.060   3.948 -1.7295 -0.0264  0.3978
   69SAPC   C27 5879   0.772   5.250   4.025  0.1526 -0.5189 -0.3911
   69SAPC   H7R 5880   0.751   5.203   4.124  2.1775  0.5829  0.6127
   69SAPC   H7S 5881   0.685   5.315   4.001 -0.5410 -1.0452  0.5964
   69SAPC   C28 5882   0.895   5.333   4.032 -0.5557 -0.2344 -0.1407
   69SAPC   H8R 5883   0.918   5.391   3.942  0.3568 -0.0302  0.2046
   69SAPC   C29 5884   0.982   5.341   4.137  0.2606 -0.2128  0.1772
   69SAPC   H9R 5885   1.075   5.400   4.132  0.2301  0.0747  2.0804
   69SAPC  C210 5886   0.977   5.259   4.267 -0.7284  0.4025  0.3698
   69SAPC  H10R 5887   1.078   5.238   4.308 -1.1314 -1.4570  0.5261
   69SAPC  H10S 5888   0.926   5.163   4.245 -2.7917  1.8090 -1.4255
   69SAPC  C211 5889   0.886   5.324   4.365  0.9985 -0.2000  0.1641
   69SAPC  H11R 5890   0.777   5.311   4.356  0.8822  0.5071  0.4595
   69SAPC  C212 5891   0.926   5.383   4.479  0.4308 -0.0700 -0.3633
   69SAPC  H12R 5892   0.850   5.418   4.551  0.8083 -0.1151  0.0557
   69SAPC  C213 5893   1.070   5.403   4.512  0.1962  0.0840  0.3116
   69SAPC  H13R 5894   1.075   5.482   4.590 -0.8111 -1.4149  1.9800
   69SAPC  H13S 5895   1.105   5.452   4.419 -4.0095  2.2401 -0.3802
   69SAPC  C214 5896   1.134   5.275   4.569 -0.4314  0.1739 -0.0631
   69SAPC  H14R 5897   1.168   5.197   4.499  0.1725 -2.4311  2.8622
   69SAPC  C215 5898   1.182   5.258   4.689  0.7827  0.1981 -0.9101
   69SAPC  H15R 5899   1.226   5.159   4.712  0.3370  0.2727  0.3763
   69SAPC  C216 5900   1.168   5.352   4.806  0.2459  0.2453 -0.8088
   69SAPC  H16R 5901   1.117   5.286   4.879 -0.1370  0.4141 -0.9254
   69SAPC  H16S 5902   1.103   5.440   4.791  0.9604  0.9982  0.3679
   69SAPC  C217 5903   1.312   5.379   4.870  0.3008 -0.1200  0.7382
   69SAPC  H17R 5904   1.367   5.286   4.894 -0.5536 -1.5529 -2.3212
   69SAPC  H17S 5905   1.285   5.431   4.964 -3.3082 -1.8495  0.8366
   69SAPC  C218 5906   1.407   5.462   4.788  0.0960 -0.0846 -0.2753
   69SAPC  H18R 5907   1.354   5.557   4.764  0.6227  1.3095  3.3266
   69SAPC  H18S 5908   1.445   5.401   4.704 -1.2500 -0.0020 -0.9692
   69SAPC  C219 5909   1.531   5.516   4.866  0.3348  0.7208  0.5980
   69SAPC  H19R 5910   1.571   5.420   4.907 -1.8430  0.7121  2.9747
   69SAPC  H19S 5911   1.508   5.574   4.958  1.7309 -1.7849  2.6847
   69SAPC  C220 5912   1.625   5.586   4.772  0.1910  0.6202  0.6964
   69SAPC  H20R 5913   1.597   5.691   4.750  1.5982  0.5499 -1.7045
   69SAPC  H20S 5914   1.636   5.528   4.678 -0.1652  0.8255  0.5255
   69SAPC  H20T 5915   1.723   5.583   4.824  0.0768 -0.7922  0.8634
   69SAPC   C33 5916   0.251   5.701   3.556  0.6105  0.6336 -0.4622
   69SAPC   H3X 5917   0.280   5.594   3.566  0.3747  0.6154  0.0865
   69SAPC   H3Y 5918   0.163   5.696   3.624  0.5026 -1.6594 -0.6680
   69SAPC   C34 5919   0.357   5.787   3.613  0.4933 -0.3923  0.3626
   69SAPC   H4X 5920   0.331   5.895   3.618  0.7326 -0.1938 -1.7939
   69SAPC   H4Y 5921   0.445   5.790   3.546  0.7592  0.0280  0.7286
   69SAPC   C35 5922   0.404   5.757   3.753  0.4372  0.2701  0.6019
   69SAPC   H5X 5923   0.409   5.647   3.769 -1.7343  0.1700  0.9440
   69SAPC   H5Y 5924   0.334   5.805   3.825  0.7669  0.5524  0.7366
   69SAPC   C36 5925   0.535   5.825   3.775 -0.3895  0.2347 -0.4879
   69SAPC   H6X 5926   0.526   5.932   3.745 -1.8121 -0.4435 -2.7094
   69SAPC   H6Y 5927   0.606   5.764   3.715  0.7785  0.1695  0.9049
   69SAPC   C37 5928   0.584   5.811   3.918 -0.1909  0.9373  0.7426
   69SAPC   H7X 5929   0.522   5.876   3.984 -4.5406 -1.5238 -0.4996
   69SAPC   H7Y 5930   0.686   5.854   3.929  0.5437 -0.5094 -0.0827
   69SAPC   C38 5931   0.578   5.663   3.967  0.2178  0.2990  0.4554
   69SAPC   H8X 5932   0.613   5.593   3.888 -0.5825  0.7606 -0.3271
   69SAPC   H8Y 5933   0.471   5.637   3.982  0.7863 -1.5249  1.7637
   69SAPC   C39 5934   0.648   5.635   4.092  0.5052 -0.5844 -0.1189
   69SAPC   H9X 5935   0.744   5.691   4.097  0.0352  0.2122  0.3313
   69SAPC   H9Y 5936   0.668   5.528   4.109 -0.1428 -0.1402  5.1152
   69SAPC  C310 5937   0.555   5.677   4.212  0.6896 -0.9042  0.7062
   69SAPC  H10X 5938   0.468   5.607   4.204  0.1740 -0.0814 -1.4139
   69SAPC  H10Y 5939   0.512   5.777   4.191  2.8442 -0.4397 -1.9891
   69SAPC  C311 5940   0.619   5.664   4.357  0.5706  0.0937  0.7449
   69SAPC  H11X 5941   0.680   5.753   4.384  3.2197 -1.9851  2.0386
   69SAPC  H11Y 5942   0.677   5.570   4.350  1.7471  0.9107 -2.4634
   69SAPC  C312 5943   0.507   5.650   4.460 -0.0139 -0.6193 -0.9119
   69SAPC  H12X 5944   0.430   5.573   4.436 -1.3689 -0.0984  1.4443
   69SAPC  H12Y 5945   0.456   5.749   4.466  2.7112  0.8064  2.3410
   69SAPC  C313 5946   0.561   5.628   4.599 -0.0733 -1.0430 -0.2851
   69SAPC  H13X 5947   0.632   5.544   4.582  3.0177  1.5968 -1.4183
   69SAPC  H13Y 5948   0.481   5.593   4.668  0.1111 -0.1264  0.4139
   69SAPC  C314 5949   0.644   5.742   4.657  0.6855  0.2971 -0.0899
   69SAPC  H14X 5950   0.582   5.834   4.652  0.9212  0.3940 -1.5433
   69SAPC  H14Y 5951   0.734   5.775   4.602  0.8570 -0.2570 -0.1491
   69SAPC  C315 5952   0.663   5.712   4.808 -0.4852  0.1270  0.0918
   69SAPC  H15X 5953   0.563   5.696   4.854 -0.0284 -0.6087  0.8867
   69SAPC  H15Y 5954   0.702   5.809   4.847  2.3825 -1.3337  1.1892
   69SAPC  C316 5955   0.772   5.615   4.842 -0.0598  0.1150 -0.2297
   69SAPC  H16X 5956   0.870   5.634   4.793 -0.5824  1.7071 -0.7272
   69SAPC  H16Y 5957   0.738   5.517   4.803 -1.8566  0.1498  1.1156
   69SAPC  C317 5958   0.790   5.596   4.990 -0.4328  0.4557  0.1852
   69SAPC  H17X 5959   0.691   5.564   5.029 -0.1999  0.8886  1.1447
   69SAPC  H17Y 5960   0.817   5.693   5.036 -1.5443  1.1935 -0.6363
   69SAPC  C318 5961   0.898   5.490   5.021  0.6368  0.0760 -0.0180
   69SAPC  H18X 5962   1.003   5.508   4.991  1.3853 -0.6971  1.9908
   69SAPC  H18Y 5963   0.867   5.395   4.973 -2.5994  1.6658 -1.4124
   69SAPC  H18Z 5964   0.902   5.476   5.131 -1.6420  0.8576  0.2406
   70SAPC     N 5965   2.179   6.298   2.654 -0.3061  0.2014  0.0135
   70SAPC   C12 5966   2.151   6.272   2.796 -0.3414  0.1088 -0.3131
   70SAPC  H12A 5967   2.056   6.315   2.827 -1.1429 -2.0509  0.4138
   70SAPC  H12B 5968   2.217   6.323   2.865 -2.1506  1.8005  0.2635
   70SAPC   C13 5969   2.318   6.246   2.618  0.1423  0.0605  0.4370
   70SAPC  H13A 5970   2.333   6.141   2.639  1.4589  0.0391 -0.5205
   70SAPC  H13B 5971   2.338   6.261   2.513  1.5891  0.3704  0.7424
   70SAPC  H13C 5972   2.393   6.294   2.678  0.7363 -0.7069  0.3235
   70SAPC   C14 5973   2.071   6.236   2.566  0.3040 -0.7061  0.0511
   70SAPC  H14A 5974   2.082   6.250   2.460 -0.0090  1.9998  0.2968
   70SAPC  H14B 5975   2.046   6.134   2.593 -3.7729 -0.4936 -2.1666
   70SAPC  H14C 5976   1.976   6.285   2.584  0.5864 -0.8664  2.2031
   70SAPC   C15 5977   2.174   6.444   2.629  1.1277 -0.5706  0.2760
   70SAPC  H15A 5978   2.095   6.484   2.690 -0.3112 -1.9718 -0.5866
   70SAPC  H15B 5979   2.273   6.485   2.642  1.1740 -0.3345 -0.7489
   70SAPC  H15C 5980   2.148   6.470   2.528 -1.3988  0.5379  1.1419
   70SAPC   C11 5981   2.138   6.124   2.844 -0.5250  0.3018  0.7321
   70SAPC  H11A 5982   2.129   6.122   2.955  1.3215 -2.0889  0.9323
   70SAPC  H11B 5983   2.236   6.075   2.826 -0.3575  0.8553  0.1153
   70SAPC     P 5984   1.894   6.022   2.855  0.3136  0.0654 -0.1321
   70SAPC   O13 5985   1.865   6.126   2.957 -0.2785  0.4261 -0.2972
   70SAPC   O14 5986   1.791   6.006   2.748 -0.1260  0.1574 -0.0287
   70SAPC   O12 5987   2.030   6.057   2.780 -0.2828  0.2849  0.7903
   70SAPC   O11 5988   1.913   5.872   2.913 -0.1475 -0.1554  0.2110
   70SAPC    C1 5989   1.988   5.832   3.024  0.1930 -0.4151 -0.1689
   70SAPC    HA 5990   2.073   5.772   2.985 -0.8176 -1.2590 -1.1571
   70SAPC    HB 5991   2.030   5.917   3.080  1.6239 -2.1859  1.5826
   70SAPC    C2 5992   1.906   5.730   3.118  0.3276  0.0339  0.0392
   70SAPC    HS 5993   1.866   5.650   3.053 -3.7285  0.7794  1.3522
   70SAPC   O21 5994   1.811   5.802   3.197  0.4189  0.5126  0.5281
   70SAPC   C21 5995   1.727   5.712   3.252 -0.0076  0.2729  0.0967
   70SAPC   O22 5996   1.720   5.593   3.217  0.5174  0.9549 -0.0406
   70SAPC   C22 5997   1.646   5.788   3.360 -0.2093  0.0122 -0.1295
   70SAPC   H2R 5998   1.716   5.838   3.430 -1.4161 -1.1013  1.9799
   70SAPC   H2S 5999   1.584   5.871   3.321  0.9129  0.9488  0.0460
   70SAPC    C3 6000   2.012   5.668   3.212  0.3296  0.2844 -0.5800
   70SAPC    HX 6001   2.101   5.635   3.154  0.5330 -1.0707  0.4369
   70SAPC    HY 6002   1.963   5.580   3.261  0.7058  0.7255  0.6378
   70SAPC   O31 6003   2.060   5.767   3.309  0.0543  0.7983  0.4108
   70SAPC   C31 6004   2.045   5.731   3.431 -0.4998 -0.1502  0.2559
   70SAPC   O32 6005   1.975   5.638   3.473  0.5749 -0.2119  0.4848
   70SAPC   C32 6006   2.130   5.814   3.527  0.5044 -0.4866 -0.1728
   70SAPC   H2X 6007   2.093   5.918   3.526  0.4695 -0.4943  0.2573
   70SAPC   H2Y 6008   2.237   5.813   3.498  0.9232  0.5499  1.2358
   70SAPC   C23 6009   1.555   5.693   3.442 -0.2251  0.2914 -0.4306
   70SAPC   H3R 6010   1.611   5.623   3.508 -0.3962  0.4494 -0.1138
   70SAPC   H3S 6011   1.490   5.629   3.380  0.6764 -1.8378  0.7133
   70SAPC   C24 6012   1.465   5.774   3.531  0.3078  0.2046 -0.5604
   70SAPC   H4R 6013   1.515   5.849   3.596 -3.0000 -0.2210  2.7970
   70SAPC   H4S 6014   1.403   5.712   3.599 -1.5830  2.5416  0.0126
   70SAPC   C25 6015   1.362   5.856   3.446 -0.6359  0.2548  0.4047
   70SAPC   H5R 6016   1.326   5.807   3.355 -1.1490  3.4483 -1.2215
   70SAPC   C26 6017   1.321   5.981   3.463 -0.8028 -0.0883  0.1274
   70SAPC   H6R 6018   1.250   6.030   3.395 -0.2313  0.7791  0.1313
   70SAPC   C27 6019   1.375   6.074   3.562 -0.1282 -0.3151 -0.2603
   70SAPC   H7R 6020   1.471   6.115   3.523  0.1325 -0.7307 -0.0675
   70SAPC   H7S 6021   1.417   6.026   3.654  1.7945  3.0869  0.8152
   70SAPC   C28 6022   1.283   6.190   3.594  0.8562 -0.4580  0.3642
   70SAPC   H8R 6023   1.244   6.243   3.506  1.7649 -1.2086 -0.5027
   70SAPC   C29 6024   1.269   6.257   3.709  0.6989 -0.5484 -0.3913
   70SAPC   H9R 6025   1.204   6.346   3.712 -1.1401 -1.8453  1.3664
   70SAPC  C210 6026   1.326   6.209   3.840 -0.1524 -0.5064 -0.5564
   70SAPC  H10R 6027   1.403   6.287   3.860 -2.2844  1.0328  2.7095
   70SAPC  H10S 6028   1.371   6.108   3.843  0.0153 -0.4179  0.3617
   70SAPC  C211 6029   1.217   6.218   3.946 -0.2371 -0.0468  0.0621
   70SAPC  H11R 6030   1.110   6.221   3.918 -0.2942 -0.9554  0.1693
   70SAPC  C212 6031   1.241   6.207   4.077  0.1695 -0.3209 -0.0333
   70SAPC  H12R 6032   1.161   6.229   4.149  0.8592  2.1969  0.0667
   70SAPC  C213 6033   1.374   6.182   4.149 -0.2800 -0.6428  0.1715
   70SAPC  H13R 6034   1.360   6.222   4.252 -1.2616 -0.9641  0.1735
   70SAPC  H13S 6035   1.449   6.242   4.094 -2.1714  1.8441  0.1293
   70SAPC  C214 6036   1.410   6.039   4.154  0.0555  0.1909  0.5178
   70SAPC  H14R 6037   1.380   5.982   4.065  1.5977 -1.4171  0.9748
   70SAPC  C215 6038   1.479   5.968   4.246 -0.1287 -0.4940 -0.2615
   70SAPC  H15R 6039   1.511   5.866   4.219  0.9254  0.6272 -3.8123
   70SAPC  C216 6040   1.541   6.026   4.368  0.0295  0.2598 -0.6456
   70SAPC  H16R 6041   1.609   6.111   4.349  1.6180 -0.5883  0.9707
   70SAPC  H16S 6042   1.600   5.945   4.415 -0.4152  0.5434  0.4397
   70SAPC  C217 6043   1.450   6.073   4.488  0.2073 -0.1808  0.2011
   70SAPC  H17R 6044   1.388   6.158   4.451  3.2196  2.1268  0.0946
   70SAPC  H17S 6045   1.516   6.116   4.566  1.9351  3.2968 -2.8582
   70SAPC  C218 6046   1.376   5.956   4.558 -0.4924  0.0552  0.4022
   70SAPC  H18R 6047   1.451   5.876   4.573 -0.2792 -0.3418 -2.2216
   70SAPC  H18S 6048   1.291   5.921   4.496 -0.1578 -0.4259  0.2100
   70SAPC  C219 6049   1.321   5.990   4.694  0.2672  0.2820  0.1462
   70SAPC  H19R 6050   1.258   6.081   4.688  2.1520  1.7444  1.3606
   70SAPC  H19S 6051   1.402   6.011   4.768  1.4265 -4.8619  0.7462
   70SAPC  C220 6052   1.247   5.870   4.755  0.4821  0.2222 -0.0487
   70SAPC  H20R 6053   1.314   5.783   4.772  1.3334  0.4838 -1.8847
   70SAPC  H20S 6054   1.162   5.837   4.692  0.4234  1.1366 -0.4601
   70SAPC  H20T 6055   1.199   5.906   4.848  0.5279  3.0047 -1.0170
   70SAPC   C33 6056   2.130   5.760   3.675 -0.2701  0.6660  0.0546
   70SAPC   H3X 6057   2.211   5.686   3.696 -1.7301 -1.2514 -0.7713
   70SAPC   H3Y 6058   2.036   5.702   3.690  0.9891 -0.9345  2.4676
   70SAPC   C34 6059   2.129   5.868   3.791  0.4530  0.0372  0.1892
   70SAPC   H4X 6060   2.033   5.918   3.763  1.5375  0.7985 -2.4467
   70SAPC   H4Y 6061   2.210   5.941   3.775 -0.2753  1.1969  1.5592
   70SAPC   C35 6062   2.123   5.813   3.933  0.2741 -0.3027  0.6721
   70SAPC   H5X 6063   2.195   5.731   3.953 -0.6137 -1.9162 -2.2357
   70SAPC   H5Y 6064   2.016   5.790   3.953  0.4348  0.1438  2.1638
   70SAPC   C36 6065   2.174   5.912   4.040  0.4340  0.0224  0.2599
   70SAPC   H6X 6066   2.111   6.003   4.035 -1.2978 -0.9490  2.7265
   70SAPC   H6Y 6067   2.280   5.922   4.009  0.9267 -2.4943  0.9064
   70SAPC   C37 6068   2.147   5.868   4.192  0.2122 -0.1492  0.7668
   70SAPC   H7X 6069   2.043   5.828   4.185  0.7856 -1.5090 -0.4538
   70SAPC   H7Y 6070   2.203   5.775   4.217  2.0157  0.8211  0.4375
   70SAPC   C38 6071   2.172   5.974   4.306  0.3318 -0.5294 -0.1445
   70SAPC   H8X 6072   2.156   6.075   4.263 -2.1133 -0.3339  1.0520
   70SAPC   H8Y 6073   2.277   5.963   4.340 -0.0701 -2.3032  0.6873
   70SAPC   C39 6074   2.077   5.946   4.424 -0.3712  0.4693 -0.0893
   70SAPC   H9X 6075   2.083   5.847   4.474  1.6277  0.3705 -0.4315
   70SAPC   H9Y 6076   1.974   5.965   4.388 -0.5179 -0.6995 -0.3041
   70SAPC  C310 6077   2.096   6.056   4.535 -0.3106  0.2936  0.6175
   70SAPC  H10X 6078   2.109   6.152   4.480 -0.2403 -0.8583 -1.4806
   70SAPC  H10Y 6079   2.196   6.030   4.576 -1.0128 -0.7132  1.7616
   70SAPC  C311 6080   1.983   6.066   4.629  0.5822  0.0487  0.5969
   70SAPC  H11X 6081   1.966   5.965   4.673  0.1745 -0.5354 -0.8523
   70SAPC  H11Y 6082   1.886   6.107   4.593 -0.8428 -1.9068  1.9794
   70SAPC  C312 6083   2.022   6.151   4.755  0.0666 -1.0503 -0.1074
   70SAPC  H12X 6084   2.022   6.256   4.719 -0.2793 -0.9472  0.1933
   70SAPC  H12Y 6085   2.126   6.126   4.783  0.2306 -0.4269 -0.1542
   70SAPC  C313 6086   1.927   6.130   4.871  0.0103  0.0654 -0.0530
   70SAPC  H13X 6087   1.925   6.020   4.883 -0.8107  0.3285  2.8557
   70SAPC  H13Y 6088   1.826   6.162   4.835 -0.7891 -0.9471  1.2051
   70SAPC  C314 6089   1.953   6.181   5.009  0.4100  0.4461 -0.1922
   70SAPC  H14X 6090   1.965   6.291   5.012  0.5850  0.4120  0.3908
   70SAPC  H14Y 6091   2.041   6.133   5.057 -1.6293 -1.2737  2.0796
   70SAPC  C315 6092   1.845   6.139   5.110 -0.4947 -0.2378 -0.0253
   70SAPC  H15X 6093   1.840   6.028   5.108 -1.0255 -0.2705  1.5635
   70SAPC  H15Y 6094   1.746   6.181   5.084 -1.3353 -1.6645  0.7666
   70SAPC  C316 6095   1.849   6.181   5.259 -0.0707  0.2870 -0.3722
   70SAPC  H16X 6096   1.755   6.158   5.314  0.7718 -0.9282  0.6278
   70SAPC  H16Y 6097   1.861   6.291   5.254  0.2642  0.1968 -2.0953
   70SAPC  C317 6098   1.964   6.125   5.345  0.6047  0.5287 -0.2405
   70SAPC  H17X 6099   2.059   6.157   5.296  0.2895  2.7215  0.4966
   70SAPC  H17Y 6100   1.956   6.015   5.332 -1.3550  0.5740  0.3345
   70SAPC  C318 6101   1.959   6.159   5.493 -0.0655  0.1134 -0.3351
   70SAPC  H18X 6102   1.883   6.096   5.545  2.1468 -1.0352  1.6951
   70SAPC  H18Y 6103   1.921   6.263   5.506 -3.7754 -0.9921 -1.0424
   70SAPC  H18Z 6104   2.056   6.141   5.544  0.4964 -0.5231 -1.6081
   71SAPC     N 6105   4.512   3.790   2.536  0.1990  0.0455  0.6559
   71SAPC   C12 6106   4.497   3.642   2.575 -0.3435 -0.0346  0.6876
   71SAPC  H12A 6107   4.472   3.593   2.482  0.4242  0.6393  0.1102
   71SAPC  H12B 6108   4.409   3.633   2.636  0.1834 -2.0395  1.2331
   71SAPC   C13 6109   4.508   3.877   2.664 -0.4871  0.0829 -0.2647
   71SAPC  H13A 6110   4.416   3.873   2.721 -0.2459  0.0355  0.1266
   71SAPC  H13B 6111   4.582   3.838   2.733  0.5962  0.4908 -1.1701
   71SAPC  H13C 6112   4.526   3.982   2.647 -0.9248  0.3279  0.7265
   71SAPC   C14 6113   4.643   3.820   2.472 -0.0139 -0.2698 -0.1386
   71SAPC  H14A 6114   4.655   3.755   2.386  0.1486 -0.3395 -0.0620
   71SAPC  H14B 6115   4.663   3.921   2.439  3.1320 -0.8512 -0.2704
   71SAPC  H14C 6116   4.722   3.794   2.540 -0.4119 -2.0161 -0.2865
   71SAPC   C15 6117   4.411   3.822   2.435 -0.0243  1.1224  0.1987
   71SAPC  H15A 6118   4.424   3.927   2.409 -0.0304  0.8580 -0.9389
   71SAPC  H15B 6119   4.429   3.765   2.345 -0.6814 -0.5103  1.0792
   71SAPC  H15C 6120   4.310   3.805   2.468  1.2047 -2.5026  2.6042
   71SAPC   C11 6121   4.611   3.562   2.650 -0.5647  0.1684 -0.4830
   71SAPC  H11A 6122   4.583   3.456   2.665  1.1098 -0.3710 -0.9157
   71SAPC  H11B 6123   4.621   3.617   2.747 -4.0703  2.7002 -1.3648
   71SAPC     P 6124   4.781   3.483   2.470 -0.0695 -0.0255 -0.6903
   71SAPC   O13 6125   4.683   3.515   2.364 -0.0221 -0.4373  0.0465
   71SAPC   O14 6126   4.922   3.507   2.448  0.1397  0.1762 -0.2035
   71SAPC   O12 6127   4.738   3.572   2.596  0.2448 -0.0251 -0.0070
   71SAPC   O11 6128   4.753   3.343   2.519  0.2851 -0.2869 -0.2192
   71SAPC    C1 6129   4.824   3.256   2.607  0.0740 -0.4779  0.3684
   71SAPC    HA 6130   4.815   3.152   2.567  0.6699 -0.8995  1.2965
   71SAPC    HB 6131   4.933   3.273   2.604  0.0896 -0.6571 -0.4331
   71SAPC    C2 6132   4.780   3.247   2.755  0.1451 -0.1798 -0.0456
   71SAPC    HS 6133   4.669   3.250   2.749  0.0933  1.6459  1.1815
   71SAPC   O21 6134   4.844   3.360   2.817 -0.3490  0.3928  0.2569
   71SAPC   C21 6135   4.777   3.416   2.914  0.4818 -0.1118  0.4695
   71SAPC   O22 6136   4.657   3.392   2.937 -0.1813  0.2242 -0.5343
   71SAPC   C22 6137   4.859   3.507   3.005 -0.6147  0.1692  0.1145
   71SAPC   H2R 6138   4.962   3.521   2.963  0.1472 -3.4387  0.4426
   71SAPC   H2S 6139   4.801   3.601   3.013 -1.4425 -0.2841 -0.4253
   71SAPC    C3 6140   4.825   3.109   2.823 -0.0089  0.2888 -0.3732
   71SAPC    HX 6141   4.934   3.102   2.805  0.4039  0.8159  1.6931
   71SAPC    HY 6142   4.773   3.026   2.771 -0.0040  0.9570 -1.4803
   71SAPC   O31 6143   4.812   3.108   2.964  0.2867  0.0763  0.3059
   71SAPC   C31 6144   4.687   3.100   3.018  0.4069  0.4452  0.7003
   71SAPC   O32 6145   4.582   3.082   2.958  0.6930 -0.6149  0.3642
   71SAPC   C32 6146   4.672   3.103   3.174 -0.4086 -0.6524  0.1857
   71SAPC   H2X 6147   4.769   3.141   3.212 -0.6887 -1.9228  2.2981
   71SAPC   H2Y 6148   4.669   2.996   3.204 -1.6300 -1.1879 -1.6666
   71SAPC   C23 6149   4.866   3.443   3.143 -0.6167 -0.5231  0.4587
   71SAPC   H3R 6150   4.894   3.336   3.129 -1.3641 -0.4896 -1.6684
   71SAPC   H3S 6151   4.762   3.423   3.177  0.1788 -2.2523  2.0597
   71SAPC   C24 6152   4.956   3.520   3.244  0.2685 -0.6773 -0.8462
   71SAPC   H4R 6153   5.040   3.555   3.181  1.0413 -0.8845  0.0500
   71SAPC   H4S 6154   4.994   3.450   3.322 -0.4476  1.9349  2.0320
   71SAPC   C25 6155   4.875   3.637   3.302 -0.5120 -0.0450 -0.8678
   71SAPC   H5R 6156   4.893   3.733   3.252 -1.8797  1.2918  1.0362
   71SAPC   C26 6157   4.793   3.647   3.411  0.3008 -0.1081  0.5437
   71SAPC   H6R 6158   4.751   3.745   3.437 -1.0734 -0.6400  0.4470
   71SAPC   C27 6159   4.779   3.522   3.501 -0.5190 -0.6107  0.4360
   71SAPC   H7R 6160   4.872   3.461   3.508 -0.0803  0.1268  1.5507
   71SAPC   H7S 6161   4.705   3.465   3.442 -0.5260  1.5887 -1.8486
   71SAPC   C28 6162   4.735   3.549   3.645  0.2752 -0.3478 -0.2798
   71SAPC   H8R 6163   4.632   3.588   3.658 -0.1953 -0.5063 -3.0313
   71SAPC   C29 6164   4.814   3.551   3.753 -0.5001  0.4576 -0.3335
   71SAPC   H9R 6165   4.770   3.576   3.851 -0.1568 -0.8818  0.1818
   71SAPC  C210 6166   4.960   3.504   3.755  0.1131 -0.3801  0.0691
   71SAPC  H10R 6167   5.011   3.471   3.662  0.5214 -0.8825  0.4631
   71SAPC  H10S 6168   4.950   3.407   3.808 -4.1420 -1.1718 -1.7903
   71SAPC  C211 6169   5.053   3.610   3.817  0.1472  0.8541 -0.4338
   71SAPC  H11R 6170   5.121   3.651   3.741 -2.1873  4.1140 -0.9792
   71SAPC  C212 6171   5.069   3.641   3.954  0.5281 -0.2880  0.3633
   71SAPC  H12R 6172   5.140   3.723   3.972 -0.4398  0.7993 -0.5914
   71SAPC  C213 6173   4.988   3.585   4.071 -0.5246  0.1582  0.4646
   71SAPC  H13R 6174   4.914   3.508   4.041 -0.8920  1.1280 -1.2406
   71SAPC  H13S 6175   4.947   3.675   4.121 -0.3532 -0.4797  1.7822
   71SAPC  C214 6176   5.088   3.503   4.156 -0.7749  0.3025  0.0749
   71SAPC  H14R 6177   5.140   3.421   4.104 -1.4685  0.6337 -1.1960
   71SAPC  C215 6178   5.110   3.522   4.294 -0.0076  0.0390 -0.1633
   71SAPC  H15R 6179   5.183   3.452   4.336  0.5853  0.8092  0.1041
   71SAPC  C216 6180   5.046   3.629   4.384 -0.6931 -0.7252 -0.4039
   71SAPC  H16R 6181   4.961   3.578   4.434 -2.9247  0.6072 -2.6331
   71SAPC  H16S 6182   4.997   3.713   4.329 -1.0515 -0.0394  0.9200
   71SAPC  C217 6183   5.146   3.704   4.478  0.6680  0.5280 -0.9560
   71SAPC  H17R 6184   5.189   3.622   4.539  0.4478 -1.1459 -2.9469
   71SAPC  H17S 6185   5.100   3.780   4.544  1.0500 -0.3435  0.3590
   71SAPC  C218 6186   5.261   3.780   4.415  0.0031 -0.3683 -0.9067
   71SAPC  H18R 6187   5.227   3.881   4.384 -0.2547 -0.3432 -0.5443
   71SAPC  H18S 6188   5.309   3.722   4.333  2.4358 -0.8541  0.7694
   71SAPC  C219 6189   5.362   3.800   4.529 -0.4205  0.7333  0.4184
   71SAPC  H19R 6190   5.415   3.703   4.536  1.5052  1.7296  0.3417
   71SAPC  H19S 6191   5.319   3.818   4.630  1.0790  1.5702  0.9423
   71SAPC  C220 6192   5.472   3.899   4.500  0.5595 -0.3357 -0.6342
   71SAPC  H20R 6193   5.432   4.003   4.490 -0.0338 -0.3793  0.8892
   71SAPC  H20S 6194   5.548   3.881   4.422  1.3472 -0.7014  0.1954
   71SAPC  H20T 6195   5.538   3.900   4.589  0.9118  1.1545 -0.8847
   71SAPC   C33 6196   4.555   3.182   3.225  0.0169 -0.6827 -0.3956
   71SAPC   H3X 6197   4.469   3.139   3.170 -0.8592 -0.4622  0.7692
   71SAPC   H3Y 6198   4.565   3.291   3.207 -1.3971 -0.3489  0.6488
   71SAPC   C34 6199   4.523   3.157   3.374  0.0745  0.3304  0.7557
   71SAPC   H4X 6200   4.481   3.054   3.381  1.3084 -0.2186  0.3414
   71SAPC   H4Y 6201   4.442   3.224   3.412  0.0967  1.0565 -0.4164
   71SAPC   C35 6202   4.642   3.169   3.473 -0.8588  0.5788  0.1275
   71SAPC   H5X 6203   4.698   3.260   3.445 -1.2082  0.0439 -2.5607
   71SAPC   H5Y 6204   4.713   3.085   3.456  0.5448  1.7273  0.2132
   71SAPC   C36 6205   4.599   3.168   3.616  0.0713 -0.3438  0.2967
   71SAPC   H6X 6206   4.537   3.078   3.632  0.2522 -1.0570 -2.4587
   71SAPC   H6Y 6207   4.535   3.255   3.642 -1.1362 -1.1374  0.0426
   71SAPC   C37 6208   4.704   3.174   3.721  0.2273  1.0335 -0.3624
   71SAPC   H7X 6209   4.769   3.257   3.686  1.1745  0.5616  0.2355
   71SAPC   H7Y 6210   4.745   3.071   3.726  1.7453  1.6418  0.0928
   71SAPC   C38 6211   4.655   3.202   3.858 -0.6319  0.1510 -0.6221
   71SAPC   H8X 6212   4.573   3.139   3.899  0.0803  0.0002  0.6117
   71SAPC   H8Y 6213   4.623   3.308   3.867  1.7103  0.9391 -0.8143
   71SAPC   C39 6214   4.774   3.174   3.955 -0.2005 -0.1435  0.5669
   71SAPC   H9X 6215   4.870   3.217   3.921 -0.4475 -0.4146 -0.4932
   71SAPC   H9Y 6216   4.795   3.065   3.962  2.0357  0.0436 -1.9932
   71SAPC  C310 6217   4.744   3.218   4.101 -0.9931 -0.4104  0.7915
   71SAPC  H10X 6218   4.643   3.192   4.137 -0.7655 -0.2214  1.5909
   71SAPC  H10Y 6219   4.750   3.329   4.096  1.6253 -0.5068 -2.7849
   71SAPC  C311 6220   4.848   3.174   4.210  1.0707 -0.2232  0.0191
   71SAPC  H11X 6221   4.946   3.217   4.179  0.6457 -0.1849 -1.3289
   71SAPC  H11Y 6222   4.843   3.064   4.209  1.8519 -0.2698 -0.5989
   71SAPC  C312 6223   4.801   3.224   4.352  0.7393 -0.6288  0.2949
   71SAPC  H12X 6224   4.709   3.174   4.388  0.8671 -0.6920  0.5360
   71SAPC  H12Y 6225   4.779   3.330   4.330  0.2621 -0.1652  2.7052
   71SAPC  C313 6226   4.904   3.202   4.467  0.0564  0.1361 -0.1060
   71SAPC  H13X 6227   5.000   3.226   4.415  0.2103 -0.9455 -0.3452
   71SAPC  H13Y 6228   4.894   3.095   4.495 -1.9186  0.0372 -1.0177
   71SAPC  C314 6229   4.877   3.280   4.596 -0.2540  0.2083  0.3404
   71SAPC  H14X 6230   4.907   3.384   4.571  0.7217 -0.1256  0.0681
   71SAPC  H14Y 6231   4.941   3.254   4.683 -1.1793 -0.6285  0.7960
   71SAPC  C315 6232   4.736   3.272   4.658 -0.3672  0.0515 -0.0874
   71SAPC  H15X 6233   4.657   3.299   4.585 -0.0219 -0.7315 -0.7806
   71SAPC  H15Y 6234   4.737   3.352   4.734  1.4340  2.1402 -2.1521
   71SAPC  C316 6235   4.704   3.137   4.723 -0.1285  0.8146 -0.0004
   71SAPC  H16X 6236   4.695   3.058   4.645 -0.8975 -0.1005  0.9945
   71SAPC  H16Y 6237   4.612   3.140   4.784 -0.1777  2.9213 -0.1050
   71SAPC  C317 6238   4.816   3.087   4.823  0.0151 -0.7111 -0.4598
   71SAPC  H17X 6239   4.822   3.149   4.915 -1.4188 -1.5913  0.2811
   71SAPC  H17Y 6240   4.918   3.094   4.782 -0.2836  2.7632 -0.8593
   71SAPC  C318 6241   4.803   2.938   4.860  0.3933  0.4362 -0.4368
   71SAPC  H18X 6242   4.697   2.909   4.877  0.2473  0.7392 -0.8194
   71SAPC  H18Y 6243   4.857   2.905   4.952 -0.4081 -0.5865 -0.3175
   71SAPC  H18Z 6244   4.845   2.884   4.773  1.7188  0.8694 -0.0877
   72SAPC     N 6245   2.231   3.284   2.279  0.2000  0.6267 -0.0528
   72SAPC   C12 6246   2.101   3.301   2.361 -0.4993  0.1680  0.4409
   72SAPC  H12A 6247   2.020   3.295   2.291  1.5501  1.2329 -2.1985
   72SAPC  H12B 6248   2.111   3.403   2.396 -0.2229  0.1587  0.3957
   72SAPC   C13 6249   2.214   3.364   2.148  0.5966 -0.3116 -0.8006
   72SAPC  H13A 6250   2.202   3.468   2.173  0.3183 -0.8415  1.4935
   72SAPC  H13B 6251   2.302   3.359   2.085  2.0480  0.5510  1.0510
   72SAPC  H13C 6252   2.128   3.327   2.095  1.2332 -0.6024 -1.6515
   72SAPC   C14 6253   2.350   3.343   2.352  0.2556 -0.6660  0.4191
   72SAPC  H14A 6254   2.443   3.324   2.301  0.9337 -1.2897  1.8287
   72SAPC  H14B 6255   2.336   3.448   2.371  0.2563 -0.6409  0.2811
   72SAPC  H14C 6256   2.349   3.307   2.454 -1.3557  0.2227  0.7494
   72SAPC   C15 6257   2.253   3.144   2.241 -0.0040  0.4591  0.5421
   72SAPC  H15A 6258   2.173   3.110   2.176 -1.6087 -0.7218  2.9843
   72SAPC  H15B 6259   2.345   3.138   2.185  0.8912  1.3597  1.8736
   72SAPC  H15C 6260   2.261   3.075   2.324  0.5308 -1.7320 -1.2031
   72SAPC   C11 6261   2.084   3.218   2.491  0.6916  0.0829  0.1617
   72SAPC  H11A 6262   2.074   3.111   2.463 -1.9098  0.2171  0.4101
   72SAPC  H11B 6263   1.981   3.245   2.521  0.2798  0.3627 -1.4501
   72SAPC     P 6264   2.176   3.382   2.682 -0.2295  0.1548 -0.1690
   72SAPC   O13 6265   2.316   3.425   2.696  0.5730  0.0286  0.0710
   72SAPC   O14 6266   2.082   3.490   2.640 -0.0557 -1.2024 -0.4761
   72SAPC   O12 6267   2.175   3.249   2.597  0.4048 -0.0514 -0.1059
   72SAPC   O11 6268   2.124   3.314   2.816  0.3762 -0.3424  0.2674
   72SAPC    C1 6269   2.094   3.383   2.932  0.4321 -0.5936 -0.8424
   72SAPC    HA 6270   2.103   3.322   3.024 -0.2593  1.3093  0.5697
   72SAPC    HB 6271   2.163   3.468   2.955 -1.1185  1.0522 -2.0043
   72SAPC    C2 6272   1.951   3.442   2.927 -0.7104  0.1979 -0.2090
   72SAPC    HS 6273   1.948   3.533   2.863 -0.5370 -0.1445 -0.7170
   72SAPC   O21 6274   1.915   3.470   3.066  0.3562 -0.3835 -0.3628
   72SAPC   C21 6275   1.954   3.591   3.105  0.2254 -0.5487 -0.0866
   72SAPC   O22 6276   2.022   3.674   3.047  0.3274  0.4674 -0.5537
   72SAPC   C22 6277   1.918   3.610   3.253 -0.2721 -0.0753 -0.1587
   72SAPC   H2R 6278   1.891   3.509   3.290 -2.3502 -0.0528 -1.4960
   72SAPC   H2S 6279   2.010   3.643   3.306  0.2521 -0.9509 -0.4929
   72SAPC    C3 6280   1.842   3.350   2.863  0.3687  0.5666  0.3044
   72SAPC    HX 6281   1.868   3.246   2.892  1.5266  0.1024 -2.1844
   72SAPC    HY 6282   1.837   3.355   2.752  1.1498 -1.1920  0.1588
   72SAPC   O31 6283   1.715   3.388   2.925 -0.1183 -0.2252 -0.2360
   72SAPC   C31 6284   1.616   3.311   2.878 -0.2409  0.5776 -0.0392
   72SAPC   O32 6285   1.633   3.207   2.811 -0.4966  0.7770 -0.0265
   72SAPC   C32 6286   1.482   3.367   2.917 -0.1682 -0.0773  0.0212
   72SAPC   H2X 6287   1.406   3.289   2.895  1.9672 -1.8966 -1.3117
   72SAPC   H2Y 6288   1.460   3.464   2.868 -2.4490  0.0945  1.2401
   72SAPC   C23 6289   1.803   3.712   3.271  0.6066 -0.6296 -1.1255
   72SAPC   H3R 6290   1.707   3.672   3.232 -2.1969  2.2531  2.0282
   72SAPC   H3S 6291   1.820   3.808   3.218 -1.7974 -0.0521 -0.9678
   72SAPC   C24 6292   1.783   3.738   3.421 -0.2992 -0.6990 -0.4941
   72SAPC   H4R 6293   1.689   3.794   3.437  0.2888 -0.2301  1.6386
   72SAPC   H4S 6294   1.866   3.800   3.461 -0.0667  0.1288 -2.1674
   72SAPC   C25 6295   1.742   3.623   3.513  0.9434 -0.6841 -0.2553
   72SAPC   H5R 6296   1.643   3.580   3.489  0.8519 -0.3919 -0.4123
   72SAPC   C26 6297   1.799   3.587   3.627  1.2266 -0.8687  0.2460
   72SAPC   H6R 6298   1.758   3.495   3.671 -1.4831 -0.1002 -0.4371
   72SAPC   C27 6299   1.930   3.639   3.681  0.6564 -0.1432  0.5372
   72SAPC   H7R 6300   1.899   3.736   3.726 -2.5033 -1.4458  1.4352
   72SAPC   H7S 6301   1.995   3.665   3.595 -1.0203  0.1565 -0.6850
   72SAPC   C28 6302   2.009   3.555   3.770 -0.7227 -0.0801  0.0891
   72SAPC   H8R 6303   2.103   3.511   3.733  1.5436  2.0460  2.9645
   72SAPC   C29 6304   1.995   3.538   3.902 -0.6108  0.2120  0.3630
   72SAPC   H9R 6305   2.056   3.463   3.954 -0.0286  0.6089  0.2704
   72SAPC  C210 6306   1.883   3.600   3.976  0.5502 -0.1901  0.1662
   72SAPC  H10R 6307   1.792   3.556   3.930  0.8144  0.2533 -0.8052
   72SAPC  H10S 6308   1.874   3.709   3.957 -1.9425 -0.3476  0.0724
   72SAPC  C211 6309   1.899   3.566   4.121 -0.0377 -0.4604  0.1678
   72SAPC  H11R 6310   1.843   3.477   4.154  0.4967 -1.7714 -2.2143
   72SAPC  C212 6311   1.974   3.626   4.219 -0.3671  0.0665 -0.0215
   72SAPC  H12R 6312   1.980   3.579   4.318  0.7752 -0.9824 -0.5552
   72SAPC  C213 6313   2.062   3.746   4.208  0.7124 -0.2573  0.0740
   72SAPC  H13R 6314   2.085   3.781   4.105 -0.3572 -1.1243 -0.4731
   72SAPC  H13S 6315   2.165   3.724   4.244  1.2630 -1.5334 -2.0837
   72SAPC  C214 6316   1.992   3.863   4.288 -0.2473  0.6655  0.9155
   72SAPC  H14R 6317   1.935   3.929   4.221 -2.6353 -1.3548  0.8141
   72SAPC  C215 6318   2.019   3.894   4.420 -0.3362  0.5891 -0.1781
   72SAPC  H15R 6319   1.968   3.981   4.465  0.2373  1.5276 -1.3150
   72SAPC  C216 6320   2.104   3.808   4.518  0.8390 -0.0593 -0.1993
   72SAPC  H16R 6321   2.199   3.784   4.466 -0.1639 -0.5092 -1.8916
   72SAPC  H16S 6322   2.057   3.710   4.541 -1.0487 -0.2676 -4.1702
   72SAPC  C217 6323   2.145   3.892   4.647  0.3830 -1.2767  0.0566
   72SAPC  H17R 6324   2.196   3.839   4.730 -1.0597  0.3900  2.1106
   72SAPC  H17S 6325   2.050   3.919   4.696 -0.2822 -0.8899 -1.3737
   72SAPC  C218 6326   2.217   4.029   4.608 -0.6017 -1.1334 -0.6116
   72SAPC  H18R 6327   2.141   4.093   4.561 -0.5508 -1.1192 -0.6739
   72SAPC  H18S 6328   2.293   4.003   4.531 -0.3859 -4.9841  0.6526
   72SAPC  C219 6329   2.273   4.109   4.727  0.2669  0.3174  0.1139
   72SAPC  H19R 6330   2.225   4.072   4.821  1.0892 -1.2649 -0.0484
   72SAPC  H19S 6331   2.253   4.218   4.719 -0.4637  0.1204 -0.8785
   72SAPC  C220 6332   2.421   4.085   4.759  0.6476  0.0499 -0.2145
   72SAPC  H20R 6333   2.451   4.129   4.857  0.7161 -0.5133  0.0207
   72SAPC  H20S 6334   2.477   4.148   4.686  0.9676 -1.3693 -1.2234
   72SAPC  H20T 6335   2.444   3.977   4.759 -1.0261 -0.3364  0.7879
   72SAPC   C33 6336   1.478   3.390   3.069 -0.0220 -0.3347 -0.4575
   72SAPC   H3X 6337   1.562   3.455   3.103  1.3474 -1.5524 -1.3588
   72SAPC   H3Y 6338   1.490   3.289   3.115 -2.7597  0.0229  1.2259
   72SAPC   C34 6339   1.346   3.450   3.117 -0.3153  0.3139  0.9785
   72SAPC   H4X 6340   1.262   3.389   3.077 -1.3830  2.0419  0.4820
   72SAPC   H4Y 6341   1.339   3.554   3.079 -1.6894  0.0514  0.4627
   72SAPC   C35 6342   1.330   3.452   3.268 -0.8177 -0.5581  0.0072
   72SAPC   H5X 6343   1.236   3.508   3.288  0.1056  0.6074  1.2899
   72SAPC   H5Y 6344   1.411   3.518   3.307 -1.1010 -0.2972  0.1694
   72SAPC   C36 6345   1.324   3.317   3.334 -0.3994 -0.0297  0.0623
   72SAPC   H6X 6346   1.414   3.257   3.306 -0.1924  0.2213  0.1877
   72SAPC   H6Y 6347   1.236   3.257   3.303  0.0749 -0.8494  0.2888
   72SAPC   C37 6348   1.328   3.344   3.488  0.0044  0.4937 -0.1063
   72SAPC   H7X 6349   1.250   3.415   3.524  1.1104  1.9573 -0.5228
   72SAPC   H7Y 6350   1.434   3.374   3.504  0.1726  0.9153 -1.7394
   72SAPC   C38 6351   1.304   3.215   3.568 -0.3224 -0.1022 -0.3536
   72SAPC   H8X 6352   1.369   3.130   3.538  0.3310 -0.2299  1.3027
   72SAPC   H8Y 6353   1.203   3.180   3.537  0.4858 -1.9278 -1.0343
   72SAPC   C39 6354   1.294   3.230   3.727  0.8949 -0.4590  0.2177
   72SAPC   H9X 6355   1.209   3.302   3.731  0.3305 -1.0842 -0.2308
   72SAPC   H9Y 6356   1.388   3.273   3.767  1.0314  2.0159 -2.4582
   72SAPC  C310 6357   1.257   3.101   3.791  0.0537 -0.0410 -0.2681
   72SAPC  H10X 6358   1.323   3.025   3.743 -0.2636 -0.6314  0.2199
   72SAPC  H10Y 6359   1.152   3.068   3.782  0.1534 -0.7463  0.9195
   72SAPC  C311 6360   1.280   3.108   3.944 -0.4269  0.3142 -0.3821
   72SAPC  H11X 6361   1.216   3.176   4.004  1.3319  0.0915  1.8999
   72SAPC  H11Y 6362   1.380   3.145   3.975  0.3384 -0.8289 -1.3588
   72SAPC  C312 6363   1.285   2.962   3.995  0.1399 -0.5825 -0.4474
   72SAPC  H12X 6364   1.358   2.902   3.936 -2.7026 -2.2255 -2.5623
   72SAPC  H12Y 6365   1.181   2.924   3.982 -0.6259  1.2856 -0.0210
   72SAPC  C313 6366   1.325   2.947   4.143 -0.1177 -0.2268  0.4951
   72SAPC  H13X 6367   1.420   2.997   4.173 -0.6466 -0.2649  2.4245
   72SAPC  H13Y 6368   1.337   2.839   4.166 -0.9659 -0.0058  2.1279
   72SAPC  C314 6369   1.211   3.008   4.228 -0.2464  0.4692 -0.3936
   72SAPC  H14X 6370   1.113   2.959   4.209  0.6280 -1.5476  0.0344
   72SAPC  H14Y 6371   1.205   3.118   4.209 -1.0092  1.1279  3.0399
   72SAPC  C315 6372   1.242   2.983   4.378 -0.1460 -0.4194  0.5629
   72SAPC  H15X 6373   1.341   3.032   4.394 -0.3831  0.2851 -0.0799
   72SAPC  H15Y 6374   1.238   2.875   4.403  1.8374 -0.3919  1.2405
   72SAPC  C316 6375   1.133   3.057   4.458  0.0033  0.0952 -0.4281
   72SAPC  H16X 6376   1.033   3.025   4.422  0.1503 -0.6298 -0.2059
   72SAPC  H16Y 6377   1.151   3.164   4.438 -0.1184  0.1190 -0.4111
   72SAPC  C317 6378   1.161   3.035   4.600 -0.4577 -0.0912  0.2405
   72SAPC  H17X 6379   1.186   3.135   4.643 -0.0650 -0.0919  0.0121
   72SAPC  H17Y 6380   1.255   2.977   4.607 -0.6120 -0.8259 -2.7401
   72SAPC  C318 6381   1.052   2.967   4.682 -0.8288 -0.4964 -0.2181
   72SAPC  H18X 6382   1.032   2.869   4.634 -0.0710 -0.6845 -0.1675
   72SAPC  H18Y 6383   0.955   3.021   4.679  0.1042  1.3388  0.6247
   72SAPC  H18Z 6384   1.080   2.940   4.786  1.1215 -1.1269 -0.8621
   73SLPC     N 6385   3.696   2.012   7.471 -0.4164  0.1971 -0.5117
   73SLPC   C13 6386   3.590   1.974   7.577  0.7283  0.7242  0.5357
   73SLPC  H13A 6387   3.512   1.907   7.544  2.2060 -1.8722  1.9875
   73SLPC  H13B 6388   3.641   1.930   7.662 -0.8339 -0.6989  0.7860
   73SLPC  H13C 6389   3.529   2.060   7.602  0.0786 -0.0261  1.6174
   73SLPC   C14 6390   3.758   1.880   7.440  0.2630  0.5634  0.1571
   73SLPC  H14A 6391   3.843   1.898   7.375 -0.2801 -0.0429 -0.7347
   73SLPC  H14B 6392   3.801   1.830   7.525  0.0338  1.0041  0.5362
   73SLPC  H14C 6393   3.685   1.815   7.396  1.1346 -0.9339  0.8452
   73SLPC   C15 6394   3.801   2.104   7.526 -0.2566 -0.2301  0.2194
   73SLPC  H15A 6395   3.767   2.190   7.582  0.4515  0.1874  0.0091
   73SLPC  H15B 6396   3.881   2.067   7.588  1.1526  0.8524 -0.8923
   73SLPC  H15C 6397   3.855   2.150   7.445 -0.1117  0.1295  0.5217
   73SLPC   C12 6398   3.634   2.073   7.341 -0.0720 -0.0104  0.6802
   73SLPC  H12A 6399   3.574   2.160   7.361 -1.7073 -0.2637 -2.4755
   73SLPC  H12B 6400   3.561   2.007   7.295  0.2800  0.5934 -0.7917
   73SLPC   C11 6401   3.737   2.127   7.230  0.0583  0.3823 -0.6307
   73SLPC  H11A 6402   3.674   2.135   7.139  1.0175  1.4730 -1.2225
   73SLPC  H11B 6403   3.815   2.051   7.209 -1.3687 -1.2507 -0.2554
   73SLPC     P 6404   3.720   2.379   7.271 -0.0270 -0.2561 -0.3487
   73SLPC   O13 6405   3.613   2.367   7.371 -0.4816  0.4843 -0.4426
   73SLPC   O14 6406   3.815   2.493   7.293  0.7587  0.4769 -0.1033
   73SLPC   O12 6407   3.809   2.245   7.262  0.4411 -0.5373  0.5019
   73SLPC   O11 6408   3.646   2.398   7.136  0.1823 -0.1959 -0.2141
   73SLPC    C1 6409   3.708   2.377   7.011 -0.1028  0.1551  0.4450
   73SLPC    HA 6410   3.768   2.284   7.007  0.2866  0.3788  0.8734
   73SLPC    HB 6411   3.621   2.359   6.945 -1.0938 -1.3749  2.0773
   73SLPC    C2 6412   3.794   2.500   6.974 -0.5486 -0.3944 -0.5618
   73SLPC    HS 6413   3.880   2.496   7.045  0.8668 -0.9418 -2.2329
   73SLPC   O21 6414   3.728   2.624   6.999  0.3962 -0.3086  0.2875
   73SLPC   C21 6415   3.797   2.734   6.988 -0.0911 -0.5570  0.1197
   73SLPC   O22 6416   3.918   2.742   6.990 -0.9267  0.0847 -0.0255
   73SLPC   C22 6417   3.711   2.866   7.000  0.5841 -1.0873  0.6522
   73SLPC   H2R 6418   3.604   2.838   6.987  0.2003 -0.6727  2.5906
   73SLPC   H2S 6419   3.719   2.900   7.106 -1.6953  3.1126 -0.2912
   73SLPC    C3 6420   3.865   2.481   6.836 -0.2787 -0.7041 -0.2544
   73SLPC    HX 6421   3.937   2.400   6.858  0.7040  0.6197  1.7008
   73SLPC    HY 6422   3.937   2.561   6.806 -0.4281 -0.9010 -1.1923
   73SLPC   O31 6423   3.781   2.450   6.721  0.4136 -0.1878 -0.0313
   73SLPC   C31 6424   3.726   2.554   6.654 -0.2215  0.1309 -0.3550
   73SLPC   O32 6425   3.757   2.672   6.678  0.1801 -0.2049 -0.1952
   73SLPC   C32 6426   3.666   2.510   6.527  0.1968 -0.4922 -0.0242
   73SLPC   H2X 6427   3.599   2.592   6.492 -0.9351 -0.6424  1.6432
   73SLPC   H2Y 6428   3.599   2.423   6.541  1.5722 -1.2818  2.1342
   73SLPC   C23 6429   3.747   2.964   6.891 -0.8617  0.1574  0.4774
   73SLPC   H3R 6430   3.749   2.906   6.796 -1.3445  2.8174 -1.2761
   73SLPC   H3S 6431   3.846   3.011   6.909  0.1082  0.1084 -3.7727
   73SLPC   C24 6432   3.633   3.065   6.868 -0.2885 -0.4611 -0.2321
   73SLPC   H4R 6433   3.598   3.109   6.964 -1.0803 -2.1553  0.3014
   73SLPC   H4S 6434   3.544   3.000   6.852 -0.5352 -0.4503  0.9923
   73SLPC   C25 6435   3.672   3.162   6.750  0.7474 -0.0751 -0.2801
   73SLPC   H5R 6436   3.757   3.231   6.772  1.1968 -0.9767  0.9258
   73SLPC   H5S 6437   3.588   3.233   6.739 -0.6845 -1.4762  1.1617
   73SLPC   C26 6438   3.712   3.098   6.611 -0.6433  0.2294  0.1902
   73SLPC   H6R 6439   3.805   3.038   6.618 -0.0760  0.6376 -2.6054
   73SLPC   H6S 6440   3.723   3.171   6.528  2.1010  1.1974  1.2698
   73SLPC   C27 6441   3.608   2.986   6.562 -0.0054  0.3920 -0.3817
   73SLPC   H7R 6442   3.506   3.030   6.557 -0.0869  0.1523 -0.9062
   73SLPC   H7S 6443   3.614   2.892   6.621  0.7314 -0.5012 -1.8166
   73SLPC   C28 6444   3.638   2.932   6.418 -0.7108  0.4666 -0.2012
   73SLPC   H8R 6445   3.639   3.017   6.347  2.3372  0.5977 -0.1532
   73SLPC   H8S 6446   3.571   2.850   6.387 -1.6152  1.2321 -0.3011
   73SLPC   C29 6447   3.769   2.858   6.416 -0.0523 -0.5068  0.4782
   73SLPC   H9R 6448   3.817   2.833   6.512  0.9665 -1.5462 -0.2711
   73SLPC  C210 6449   3.821   2.813   6.302  0.1323 -0.3137  0.3487
   73SLPC  H10R 6450   3.914   2.755   6.308 -0.0788 -0.5514  1.5912
   73SLPC  C211 6451   3.758   2.830   6.170  0.5665 -0.5697  0.2289
   73SLPC  H11R 6452   3.657   2.875   6.174  0.5810 -0.4827 -0.3789
   73SLPC  H11S 6453   3.735   2.734   6.120 -0.4689 -0.0776 -0.2647
   73SLPC  C212 6454   3.850   2.911   6.077 -0.0073 -0.4532  0.2849
   73SLPC  H12R 6455   3.887   3.004   6.123 -1.1137  0.7133 -1.0592
   73SLPC  C213 6456   3.880   2.889   5.948 -0.2526  0.4197 -0.1325
   73SLPC  H13R 6457   3.936   2.963   5.888 -1.8730  0.5405 -1.5737
   73SLPC  C214 6458   3.834   2.765   5.868  0.1756 -0.4582 -0.3930
   73SLPC  H14R 6459   3.827   2.679   5.937  4.3638  0.6060  1.6710
   73SLPC  H14S 6460   3.910   2.731   5.794  1.7462  2.0390 -0.0588
   73SLPC  C215 6461   3.700   2.802   5.793 -0.2622  0.1935  0.0216
   73SLPC  H15R 6462   3.628   2.840   5.868  0.5002 -0.3363  1.0439
   73SLPC  H15S 6463   3.653   2.707   5.759 -0.5638  0.5659 -0.6231
   73SLPC  C216 6464   3.718   2.890   5.667 -0.1781  0.1588 -0.0640
   73SLPC  H16R 6465   3.747   2.992   5.702 -1.0397  0.1682  0.6622
   73SLPC  H16S 6466   3.621   2.895   5.613  0.5402 -0.2475 -1.4372
   73SLPC  C217 6467   3.819   2.840   5.559  0.5084 -0.0055 -0.7980
   73SLPC  H17R 6468   3.801   2.730   5.552  1.5509 -0.3046  0.6688
   73SLPC  H17S 6469   3.919   2.858   5.605  0.1158 -0.5169  0.2868
   73SLPC  C218 6470   3.815   2.914   5.430 -0.0760 -0.1248 -0.0674
   73SLPC  H18R 6471   3.841   3.021   5.448 -2.2489  0.7245 -1.5603
   73SLPC  H18S 6472   3.708   2.906   5.401  0.0811  0.8577 -0.9731
   73SLPC  H18T 6473   3.873   2.858   5.353  1.1199 -1.6823  1.8691
   73SLPC   C33 6474   3.770   2.472   6.415 -0.0750  0.2086  1.1668
   73SLPC   H3X 6475   3.804   2.369   6.437 -1.9487 -0.2394  2.1693
   73SLPC   H3Y 6476   3.865   2.531   6.423 -0.4641  1.1875 -0.7221
   73SLPC   C34 6477   3.710   2.456   6.275  0.4769 -0.0163  0.0181
   73SLPC   H4X 6478   3.645   2.543   6.253 -0.8851 -1.3696 -1.6250
   73SLPC   H4Y 6479   3.638   2.371   6.280  2.1686 -1.4820  0.5329
   73SLPC   C35 6480   3.803   2.414   6.172 -0.6270  0.0975  0.3387
   73SLPC   H5X 6481   3.862   2.325   6.204 -3.0304 -1.8112 -0.2891
   73SLPC   H5Y 6482   3.885   2.489   6.172 -0.4325 -0.1093  0.8007
   73SLPC   C36 6483   3.742   2.388   6.035 -0.3319 -0.0549 -0.3394
   73SLPC   H6X 6484   3.687   2.479   6.004  1.2634  1.5972  1.3836
   73SLPC   H6Y 6485   3.667   2.308   6.055 -1.0759  0.5172 -0.8352
   73SLPC   C37 6486   3.828   2.345   5.923  0.1919 -0.7989 -0.3396
   73SLPC   H7X 6487   3.814   2.236   5.913  2.1818 -1.0481 -0.8418
   73SLPC   H7Y 6488   3.933   2.378   5.939 -0.2735  0.3250  0.5422
   73SLPC   C38 6489   3.767   2.404   5.789  0.3210  0.2292 -0.7481
   73SLPC   H8X 6490   3.749   2.514   5.796  0.0645  0.0857  2.0119
   73SLPC   H8Y 6491   3.672   2.346   5.784  0.4242 -0.3311  1.9677
   73SLPC   C39 6492   3.853   2.379   5.661 -0.3797  0.8477  0.0592
   73SLPC   H9X 6493   3.876   2.271   5.654  1.4877  1.2217 -0.2171
   73SLPC   H9Y 6494   3.949   2.432   5.681 -0.8870  1.6009  0.5662
   73SLPC  C310 6495   3.804   2.428   5.520  0.4031 -0.9390  0.0995
   73SLPC  H10X 6496   3.772   2.534   5.530  1.7968 -0.2573 -1.9291
   73SLPC  H10Y 6497   3.717   2.367   5.487 -0.3137  0.4803 -0.7211
   73SLPC  C311 6498   3.908   2.420   5.405  0.2395 -0.7172 -0.4667
   73SLPC  H11X 6499   3.921   2.316   5.369 -2.8073 -1.9624  1.5706
   73SLPC  H11Y 6500   4.008   2.456   5.439 -0.3761  0.4570  0.1913
   73SLPC  C312 6501   3.873   2.512   5.288  0.0751 -0.1610 -0.3182
   73SLPC  H12X 6502   3.896   2.614   5.326  1.1142 -1.2134  2.1059
   73SLPC  H12Y 6503   3.765   2.501   5.268  0.4968 -3.9102 -1.2657
   73SLPC  C313 6504   3.951   2.467   5.159 -0.5278 -0.3321 -1.0693
   73SLPC  H13X 6505   3.924   2.547   5.087 -1.2218 -0.8560 -1.4002
   73SLPC  H13Y 6506   3.912   2.368   5.128 -0.0303 -1.0499  0.4500
   73SLPC  C314 6507   4.104   2.475   5.176  0.2750  0.8167 -0.5334
   73SLPC  H14X 6508   4.129   2.417   5.267 -2.5870  0.1508 -0.0800
   73SLPC  H14Y 6509   4.134   2.580   5.200  1.6158  0.4755 -0.6076
   73SLPC  C315 6510   4.191   2.423   5.058  0.1600  0.0809  0.6564
   73SLPC  H15X 6511   4.152   2.464   4.962  3.1172 -0.3427 -0.8555
   73SLPC  H15Y 6512   4.184   2.313   5.052  1.6369  0.0144 -0.7888
   73SLPC  C316 6513   4.337   2.464   5.076  0.5269 -0.0070 -0.1408
   73SLPC  H16X 6514   4.375   2.433   5.176  1.6384 -1.5783 -1.0002
   73SLPC  H16Y 6515   4.349   2.575   5.076 -0.8168  0.1520 -0.3385
   73SLPC  C317 6516   4.437   2.405   4.971 -0.3849  0.8345 -0.2237
   73SLPC  H17X 6517   4.527   2.469   4.969 -0.4779  0.9600 -1.0717
   73SLPC  H17Y 6518   4.387   2.407   4.871 -1.6046  1.4829  0.3758
   73SLPC  C318 6519   4.487   2.264   4.998 -0.1933  0.2263  0.2378
   73SLPC  H18X 6520   4.582   2.261   4.941 -0.9952  2.8421 -1.3979
   73SLPC  H18Y 6521   4.425   2.181   4.956 -0.3943  0.8200 -0.6571
   73SLPC  H18Z 6522   4.511   2.233   5.102  0.1004 -0.0706  0.0852
   74SLPC     N 6523   1.015   2.767   7.482 -0.0209 -0.0082 -0.2984
   74SLPC   C13 6524   1.097   2.653   7.542  0.9200  0.6172  1.4772
   74SLPC  H13A 6525   1.153   2.690   7.627 -0.6538  0.0905  2.7922
   74SLPC  H13B 6526   1.031   2.575   7.575 -0.0728 -1.1250 -3.6992
   74SLPC  H13C 6527   1.174   2.611   7.479  1.5950  1.4709  1.7164
   74SLPC   C14 6528   1.108   2.881   7.455  0.0725 -0.3169 -0.6658
   74SLPC  H14A 6529   1.174   2.861   7.372  0.3172  1.8862 -1.0645
   74SLPC  H14B 6530   1.053   2.972   7.440 -2.7037 -2.0052 -1.5522
   74SLPC  H14C 6531   1.163   2.893   7.547  1.3198 -2.7443 -1.0181
   74SLPC   C15 6532   0.913   2.799   7.582 -0.3270  0.5850 -0.1394
   74SLPC  H15A 6533   0.957   2.847   7.668  0.6077 -1.2100  0.4327
   74SLPC  H15B 6534   0.842   2.862   7.530 -2.4285 -1.9449 -0.5324
   74SLPC  H15C 6535   0.860   2.709   7.611  1.1444  0.4532  2.3343
   74SLPC   C12 6536   0.959   2.719   7.349  0.0329  0.9207 -0.2321
   74SLPC  H12A 6537   0.892   2.637   7.369 -1.5863  1.4531 -3.0281
   74SLPC  H12B 6538   1.041   2.684   7.287 -0.6132  0.4277 -0.8164
   74SLPC   C11 6539   0.881   2.817   7.258 -0.0697 -0.0935 -0.3922
   74SLPC  H11A 6540   0.839   2.769   7.167 -1.3167  0.3968 -0.0947
   74SLPC  H11B 6541   0.952   2.896   7.227  1.2004 -1.8286 -2.1453
   74SLPC     P 6542   0.627   2.828   7.336  0.4387  0.4325  0.0088
   74SLPC   O13 6543   0.623   2.704   7.425 -0.0720 -0.0324  0.4918
   74SLPC   O14 6544   0.542   2.949   7.371 -0.0356  0.1279  0.0664
   74SLPC   O12 6545   0.783   2.877   7.334  0.2775 -0.5449 -0.2772
   74SLPC   O11 6546   0.602   2.779   7.188  0.5193  0.3122 -0.2513
   74SLPC    C1 6547   0.514   2.849   7.095 -0.1677  0.0278 -0.4222
   74SLPC    HA 6548   0.451   2.773   7.044  0.3410 -1.5481  1.1969
   74SLPC    HB 6549   0.447   2.916   7.154  1.2755  0.9355  0.2299
   74SLPC    C2 6550   0.587   2.926   6.986  0.2009 -0.0813  0.1596
   74SLPC    HS 6551   0.522   2.958   6.903  0.7616 -0.3922 -0.4120
   74SLPC   O21 6552   0.692   2.844   6.932 -0.5196 -0.0716 -0.9593
   74SLPC   C21 6553   0.658   2.765   6.830 -0.2711 -0.2097 -0.6287
   74SLPC   O22 6554   0.546   2.761   6.782  0.4046  0.0019  0.3185
   74SLPC   C22 6555   0.788   2.709   6.773 -0.4480  0.7741 -0.7885
   74SLPC   H2R 6556   0.848   2.795   6.734 -2.1678  1.8163 -1.2518
   74SLPC   H2S 6557   0.843   2.667   6.860  0.6577  0.5004 -1.5933
   74SLPC    C3 6558   0.653   3.057   7.052  0.4746 -0.5567  0.4192
   74SLPC    HX 6559   0.745   3.015   7.097 -0.0416 -2.3857 -0.1450
   74SLPC    HY 6560   0.587   3.111   7.123 -1.0253 -1.8659  0.0707
   74SLPC   O31 6561   0.688   3.147   6.946  0.3640 -0.0100  0.3155
   74SLPC   C31 6562   0.813   3.186   6.941  0.1634 -0.0965 -0.2473
   74SLPC   O32 6563   0.903   3.157   7.020  0.4419  0.9483  0.3700
   74SLPC   C32 6564   0.834   3.254   6.807 -0.0849 -0.4140  0.2704
   74SLPC   H2X 6565   0.928   3.310   6.827  0.2382 -0.5379 -0.8252
   74SLPC   H2Y 6566   0.757   3.334   6.796 -1.7406 -1.7505  1.6790
   74SLPC   C23 6567   0.760   2.610   6.659 -0.2592 -0.0204  0.2946
   74SLPC   H3R 6568   0.711   2.675   6.584  1.9776  0.3441 -0.9410
   74SLPC   H3S 6569   0.690   2.527   6.684  0.3353 -0.3666  0.8530
   74SLPC   C24 6570   0.891   2.545   6.596  0.9279 -0.1619 -0.4197
   74SLPC   H4R 6571   0.965   2.525   6.676  1.5189 -1.5462 -1.2812
   74SLPC   H4S 6572   0.939   2.623   6.533 -0.3839  0.3745 -0.7985
   74SLPC   C25 6573   0.861   2.420   6.509 -0.4747  0.2999  0.0414
   74SLPC   H5R 6574   0.795   2.349   6.563  0.8096 -1.3222 -0.4186
   74SLPC   H5S 6575   0.948   2.355   6.485 -2.6185 -2.1549 -1.6893
   74SLPC   C26 6576   0.795   2.464   6.374 -0.1586  0.4136 -0.3979
   74SLPC   H6R 6577   0.879   2.509   6.317 -0.0728  0.5745 -0.1462
   74SLPC   H6S 6578   0.716   2.540   6.388 -1.3285 -0.7703 -0.3464
   74SLPC   C27 6579   0.743   2.355   6.287 -0.3575  0.2335  0.1545
   74SLPC   H7R 6580   0.660   2.326   6.355  0.6984  0.6559  1.6594
   74SLPC   H7S 6581   0.824   2.281   6.269 -2.5196 -1.7744 -2.1096
   74SLPC   C28 6582   0.697   2.407   6.152 -0.2483 -0.2947  0.1196
   74SLPC   H8R 6583   0.785   2.454   6.104  0.1317 -0.5276  0.5852
   74SLPC   H8S 6584   0.623   2.486   6.181  0.9162  1.0099 -0.3423
   74SLPC   C29 6585   0.628   2.297   6.070 -0.3539  0.6180 -0.2796
   74SLPC   H9R 6586   0.543   2.247   6.119  1.6949 -1.0031  1.8874
   74SLPC  C210 6587   0.662   2.250   5.954 -0.2208  0.1156 -0.3466
   74SLPC  H10R 6588   0.621   2.154   5.921  1.3340 -1.5216  2.1118
   74SLPC  C211 6589   0.769   2.301   5.874 -0.4898 -0.2401 -0.4966
   74SLPC  H11R 6590   0.870   2.277   5.913  0.7793  0.7921 -2.9167
   74SLPC  H11S 6591   0.765   2.411   5.864  1.2591 -0.0325  0.6208
   74SLPC  C212 6592   0.773   2.249   5.732  1.2727  0.4238 -0.1427
   74SLPC  H12R 6593   0.843   2.166   5.714  2.4802  0.7615  2.3797
   74SLPC  C213 6594   0.717   2.296   5.619  0.1888  0.2916 -0.8159
   74SLPC  H13R 6595   0.728   2.238   5.527  0.4912 -1.0630  0.0386
   74SLPC  C214 6596   0.630   2.424   5.614  0.4876 -0.1312  0.3529
   74SLPC  H14R 6597   0.650   2.471   5.516  0.7227  1.4888  1.1551
   74SLPC  H14S 6598   0.657   2.499   5.691  0.9943  1.5500 -1.3817
   74SLPC  C215 6599   0.481   2.377   5.629  0.6512 -0.0878  0.5276
   74SLPC  H15R 6600   0.452   2.320   5.720 -3.9298 -1.4303 -1.5436
   74SLPC  H15S 6601   0.467   2.298   5.553 -0.6054 -0.5756  1.2382
   74SLPC  C216 6602   0.378   2.490   5.601 -0.8145  0.6375  0.2286
   74SLPC  H16R 6603   0.394   2.565   5.681  0.5060 -0.1408  0.7301
   74SLPC  H16S 6604   0.277   2.452   5.626 -1.4485  1.4605 -0.9625
   74SLPC  C217 6605   0.397   2.543   5.454  0.0150 -0.0529 -0.9932
   74SLPC  H17R 6606   0.496   2.588   5.434  1.4131 -1.9002  1.2237
   74SLPC  H17S 6607   0.323   2.626   5.444 -1.1971 -0.6746  1.6649
   74SLPC  C218 6608   0.368   2.437   5.341 -1.1657  0.2987 -0.1854
   74SLPC  H18R 6609   0.274   2.381   5.359 -0.1484 -1.1116  1.0096
   74SLPC  H18S 6610   0.453   2.367   5.352 -0.7930  0.7787  0.0437
   74SLPC  H18T 6611   0.351   2.488   5.244 -2.5983  0.5541  0.1772
   74SLPC   C33 6612   0.855   3.165   6.685  0.2247  0.9452  0.0616
   74SLPC   H3X 6613   0.940   3.099   6.712 -0.2625  0.8285  1.3968
   74SLPC   H3Y 6614   0.888   3.220   6.595  1.4601  0.2905  0.0892
   74SLPC   C34 6615   0.730   3.088   6.639 -0.4611 -0.0440 -0.3665
   74SLPC   H4X 6616   0.647   3.158   6.616  1.0336  0.7612 -3.9873
   74SLPC   H4Y 6617   0.697   3.021   6.722 -1.5644  0.1287 -0.6489
   74SLPC   C35 6618   0.751   2.984   6.528 -0.1444  0.0581 -0.2407
   74SLPC   H5X 6619   0.665   2.913   6.529  0.0247 -0.1419  0.0198
   74SLPC   H5Y 6620   0.842   2.924   6.550 -0.6931 -0.8852 -0.4671
   74SLPC   C36 6621   0.758   3.051   6.384 -0.2525  0.6121 -0.7925
   74SLPC   H6X 6622   0.855   3.106   6.381 -0.1317  0.5591  1.0735
   74SLPC   H6Y 6623   0.686   3.135   6.372  0.2798  1.1788 -0.1221
   74SLPC   C37 6624   0.747   2.945   6.268  0.5694 -0.1055 -0.5981
   74SLPC   H7X 6625   0.641   2.918   6.253  0.1956 -0.6004  2.3808
   74SLPC   H7Y 6626   0.793   2.850   6.304  0.9509  0.6770  1.0807
   74SLPC   C38 6627   0.806   2.976   6.132 -0.5187 -0.7730  0.6855
   74SLPC   H8X 6628   0.916   2.979   6.146 -0.5526 -0.5696  0.9231
   74SLPC   H8Y 6629   0.765   3.074   6.097  1.4099  0.2096  1.0088
   74SLPC   C39 6630   0.786   2.861   6.032  0.2992 -0.2374 -0.6661
   74SLPC   H9X 6631   0.730   2.776   6.076 -0.6204  0.4525 -0.4712
   74SLPC   H9Y 6632   0.883   2.811   6.012  0.0651 -0.8920 -0.1962
   74SLPC  C310 6633   0.712   2.901   5.914 -0.0805 -0.4246  0.2887
   74SLPC  H10X 6634   0.772   2.980   5.864  0.1905 -1.2918 -0.7841
   74SLPC  H10Y 6635   0.611   2.940   5.939 -0.9264 -2.0708 -0.4390
   74SLPC  C311 6636   0.696   2.786   5.813 -0.3037  0.0770 -0.5154
   74SLPC  H11X 6637   0.600   2.815   5.765 -1.2612 -0.6730  0.8863
   74SLPC  H11Y 6638   0.675   2.689   5.863  0.4052  0.7794  1.2177
   74SLPC  C312 6639   0.793   2.777   5.698  0.0948 -0.2907 -0.3635
   74SLPC  H12X 6640   0.763   2.686   5.643 -0.5082 -0.4873  0.2832
   74SLPC  H12Y 6641   0.896   2.762   5.735  0.3150 -0.5323 -1.0581
   74SLPC  C313 6642   0.779   2.890   5.596 -0.6575 -0.1706 -0.7261
   74SLPC  H13X 6643   0.795   2.987   5.647 -1.8937 -0.0154 -0.6218
   74SLPC  H13Y 6644   0.678   2.883   5.552 -0.9938  1.2571 -0.2482
   74SLPC  C314 6645   0.880   2.887   5.480 -0.7288  0.4463  0.7198
   74SLPC  H14X 6646   0.853   2.813   5.402  1.4318  0.7837 -0.4239
   74SLPC  H14Y 6647   0.979   2.857   5.521 -0.9910 -0.2341  0.8740
   74SLPC  C315 6648   0.895   3.027   5.416 -0.4265  0.0717  0.0332
   74SLPC  H15X 6649   0.934   3.103   5.487  2.9768 -0.1265 -1.4096
   74SLPC  H15Y 6650   0.795   3.053   5.376 -1.6186 -0.0339  2.7465
   74SLPC  C316 6651   0.995   3.026   5.295  0.0033 -0.2565 -0.3249
   74SLPC  H16X 6652   1.052   2.931   5.305  1.4499  0.4466 -1.5284
   74SLPC  H16Y 6653   1.071   3.105   5.310  1.7233 -1.8055 -0.4551
   74SLPC  C317 6654   0.926   3.027   5.158  0.1164 -0.3657  0.9518
   74SLPC  H17X 6655   0.866   3.119   5.140 -0.6853 -1.2482 -1.1964
   74SLPC  H17Y 6656   0.861   2.937   5.168 -0.4726 -0.4631 -2.4433
   74SLPC  C318 6657   1.023   3.025   5.039  0.1042 -0.3822  0.3614
   74SLPC  H18X 6658   1.082   3.119   5.033 -0.6636  0.0510 -0.6100
   74SLPC  H18Y 6659   0.970   3.007   4.943  0.1129  0.9381  0.0988
   74SLPC  H18Z 6660   1.094   2.942   5.059  2.6295  1.9363  1.6312
   75SLPC     N 6661   3.838   3.319   7.297 -0.2054  0.0143 -0.6040
   75SLPC   C13 6662   3.960   3.331   7.385  0.0758 -0.3108  0.1985
   75SLPC  H13A 6663   4.022   3.244   7.372 -1.6414 -1.6031  0.3390
   75SLPC  H13B 6664   4.026   3.413   7.359 -1.3967  1.5618  1.9482
   75SLPC  H13C 6665   3.911   3.343   7.481 -1.1277  1.5752 -0.5894
   75SLPC   C14 6666   3.765   3.450   7.303  0.3225  0.1356  0.2197
   75SLPC  H14A 6667   3.675   3.446   7.243  0.2004  0.3077  0.3903
   75SLPC  H14B 6668   3.735   3.465   7.405  2.7244  1.4710  0.8032
   75SLPC  H14C 6669   3.827   3.534   7.276 -0.3126  1.1135  1.6810
   75SLPC   C15 6670   3.750   3.223   7.374 -0.0838 -0.4504 -0.0835
   75SLPC  H15A 6671   3.735   3.264   7.472  2.1573 -1.6469  0.8411
   75SLPC  H15B 6672   3.661   3.190   7.323 -0.0799 -0.1402 -0.2887
   75SLPC  H15C 6673   3.806   3.134   7.399  2.7964  1.3669  0.4193
   75SLPC   C12 6674   3.885   3.275   7.162  0.1623 -0.2610 -0.5876
   75SLPC  H12A 6675   3.795   3.266   7.102  0.4981 -0.4788 -1.0629
   75SLPC  H12B 6676   3.938   3.181   7.166  1.5258  0.5276  0.7629
   75SLPC   C11 6677   3.964   3.373   7.076  0.2832  0.3048 -0.2153
   75SLPC  H11A 6678   3.895   3.458   7.058  1.1645  0.5654 -2.8639
   75SLPC  H11B 6679   3.983   3.319   6.981 -0.7588 -0.8380  0.1850
   75SLPC     P 6680   4.227   3.351   7.119 -0.3073 -0.2200  0.0864
   75SLPC   O13 6681   4.319   3.419   7.213  0.5111 -0.1284  0.2104
   75SLPC   O14 6682   4.221   3.206   7.140 -0.2533  0.2212  0.4806
   75SLPC   O12 6683   4.087   3.405   7.144  0.3435 -0.4396 -0.2188
   75SLPC   O11 6684   4.257   3.385   6.964  0.1917  0.3778  0.3906
   75SLPC    C1 6685   4.362   3.319   6.893 -0.3422  0.7816  0.5088
   75SLPC    HA 6686   4.462   3.352   6.929  0.3215 -0.3580 -0.2274
   75SLPC    HB 6687   4.369   3.208   6.901  1.2604  0.8888  1.1379
   75SLPC    C2 6688   4.351   3.357   6.747  0.3107 -0.7801  0.3388
   75SLPC    HS 6689   4.334   3.467   6.746  0.1863 -0.7773  1.2578
   75SLPC   O21 6690   4.247   3.279   6.694  0.3955  0.2888  0.3009
   75SLPC   C21 6691   4.159   3.336   6.608 -0.2685  0.4821  0.2252
   75SLPC   O22 6692   4.159   3.456   6.581 -0.1575  0.4426 -0.2275
   75SLPC   C22 6693   4.055   3.231   6.554 -0.1160  0.1887 -0.2147
   75SLPC   H2R 6694   4.071   3.136   6.608 -1.3869 -0.0384 -0.2066
   75SLPC   H2S 6695   3.957   3.276   6.582  0.5299  2.1780 -0.9434
   75SLPC    C3 6696   4.481   3.314   6.669  0.2657  0.1496 -0.3632
   75SLPC    HX 6697   4.501   3.204   6.663  3.7769  0.7432 -2.5081
   75SLPC    HY 6698   4.575   3.360   6.706 -0.2592  1.5807 -0.7668
   75SLPC   O31 6699   4.472   3.352   6.528  0.4626  0.2516 -0.0485
   75SLPC   C31 6700   4.491   3.483   6.505 -0.2940  0.4631 -0.5527
   75SLPC   O32 6701   4.522   3.561   6.591  0.3468  0.3256  1.2642
   75SLPC   C32 6702   4.480   3.505   6.355  0.0707 -0.0790 -0.6191
   75SLPC   H2X 6703   4.496   3.615   6.345 -1.5763  0.0291 -2.8898
   75SLPC   H2Y 6704   4.375   3.488   6.323  0.4076  1.0116 -2.4773
   75SLPC   C23 6705   4.075   3.207   6.404 -0.7989  0.3931  0.6659
   75SLPC   H3R 6706   4.012   3.118   6.386 -1.3032  0.7348  0.7441
   75SLPC   H3S 6707   4.178   3.195   6.363 -1.8686 -0.2699 -2.0962
   75SLPC   C24 6708   4.026   3.316   6.314  0.7995 -0.1027 -0.4376
   75SLPC   H4R 6709   4.082   3.407   6.344  0.6296  0.7631 -2.5975
   75SLPC   H4S 6710   3.918   3.330   6.337  1.1173  1.1217  0.4057
   75SLPC   C25 6711   4.041   3.292   6.163  0.5040  0.2985 -0.6762
   75SLPC   H5R 6712   3.968   3.337   6.093  0.3243  0.9350 -0.0956
   75SLPC   H5S 6713   4.035   3.184   6.139  0.1064  0.7367 -2.7463
   75SLPC   C26 6714   4.180   3.340   6.108 -0.4530  0.3869 -0.5259
   75SLPC   H6R 6715   4.261   3.301   6.172 -0.7972 -3.0743 -1.9874
   75SLPC   H6S 6716   4.173   3.451   6.105 -4.3157  0.2905 -0.0526
   75SLPC   C27 6717   4.219   3.275   5.969 -0.1922 -0.3036 -0.0387
   75SLPC   H7R 6718   4.157   3.183   5.960 -1.0330  0.2405  0.0576
   75SLPC   H7S 6719   4.324   3.241   5.963  0.1108  0.1007  2.2144
   75SLPC   C28 6720   4.181   3.367   5.849 -0.9507  0.0884 -0.3173
   75SLPC   H8R 6721   4.249   3.335   5.767 -1.6248 -0.7182 -0.5801
   75SLPC   H8S 6722   4.202   3.474   5.867 -0.7957  0.2828 -1.5433
   75SLPC   C29 6723   4.037   3.348   5.800  0.9004 -0.2109 -0.4425
   75SLPC   H9R 6724   3.962   3.381   5.873  0.5974  0.5053 -1.0727
   75SLPC  C210 6725   4.001   3.294   5.685  0.3225 -0.5838  0.5618
   75SLPC  H10R 6726   3.894   3.280   5.664  0.2697 -0.6165  0.8597
   75SLPC  C211 6727   4.090   3.259   5.567 -0.0030  0.2046  0.3417
   75SLPC  H11R 6728   4.183   3.321   5.568 -1.3044  2.2812 -0.5627
   75SLPC  H11S 6729   4.048   3.301   5.473 -1.1565 -0.1814  0.6747
   75SLPC  C212 6730   4.132   3.110   5.559  0.0993  0.2422  0.0225
   75SLPC  H12R 6731   4.109   3.048   5.648  0.6654  1.0084  0.7139
   75SLPC  C213 6732   4.169   3.040   5.451  0.0172 -0.6194 -0.1753
   75SLPC  H13R 6733   4.188   2.933   5.464 -4.1075 -1.1659  3.4856
   75SLPC  C214 6734   4.212   3.074   5.317  0.1389 -0.1926  0.3667
   75SLPC  H14R 6735   4.181   3.177   5.289  0.4532 -0.1237  0.2720
   75SLPC  H14S 6736   4.141   3.020   5.251  1.6230 -1.3145 -0.3753
   75SLPC  C215 6737   4.354   3.031   5.279  0.1727  0.5944  0.2492
   75SLPC  H15R 6738   4.365   2.922   5.296  2.7689  0.6481 -0.7728
   75SLPC  H15S 6739   4.440   3.079   5.329  0.0146  1.6112 -0.4295
   75SLPC  C216 6740   4.375   3.050   5.129  0.1342 -0.3311 -0.4933
   75SLPC  H16R 6741   4.278   3.043   5.077  0.5306 -1.4091 -1.1227
   75SLPC  H16S 6742   4.432   2.961   5.095 -0.9505 -1.0353 -0.5143
   75SLPC  C217 6743   4.453   3.182   5.087  0.0496 -0.4020 -0.4315
   75SLPC  H17R 6744   4.386   3.267   5.114  0.1735 -0.1858 -0.7938
   75SLPC  H17S 6745   4.467   3.187   4.977  1.1072  1.1741 -0.2584
   75SLPC  C218 6746   4.593   3.200   5.145 -0.3934 -0.7292  0.2221
   75SLPC  H18R 6747   4.675   3.129   5.120  1.0459  1.8437 -3.3134
   75SLPC  H18S 6748   4.584   3.187   5.255  0.9840 -2.0143  0.2124
   75SLPC  H18T 6749   4.628   3.305   5.130  2.2004 -1.7929 -2.2146
   75SLPC   C33 6750   4.591   3.421   6.283  0.0375  0.4368 -0.4770
   75SLPC   H3X 6751   4.573   3.313   6.301  2.8479  0.1513  1.2436
   75SLPC   H3Y 6752   4.694   3.438   6.320 -0.6299  0.2943  1.5803
   75SLPC   C34 6753   4.591   3.453   6.132 -0.0852  0.0148  0.4720
   75SLPC   H4X 6754   4.599   3.559   6.101  1.9846 -0.2717 -0.1582
   75SLPC   H4Y 6755   4.491   3.420   6.096 -0.9670  0.7689  2.1377
   75SLPC   C35 6756   4.689   3.366   6.059 -0.2925 -0.2898  0.9681
   75SLPC   H5X 6757   4.651   3.262   6.049  0.8195 -0.5705 -0.7781
   75SLPC   H5Y 6758   4.789   3.354   6.107  1.6452 -0.6049 -2.7129
   75SLPC   C36 6759   4.717   3.409   5.905  0.2116  0.7394 -0.2670
   75SLPC   H6X 6760   4.767   3.327   5.849  0.8436  1.0683 -0.1949
   75SLPC   H6Y 6761   4.772   3.505   5.890 -0.0557  0.6899 -1.7268
   75SLPC   C37 6762   4.580   3.428   5.833  0.4313 -0.1040 -0.3056
   75SLPC   H7X 6763   4.522   3.511   5.879  0.0023 -0.5809  0.0195
   75SLPC   H7Y 6764   4.520   3.338   5.857 -1.3219  1.2411  0.5391
   75SLPC   C38 6765   4.592   3.462   5.684 -0.0788  0.1681 -0.8213
   75SLPC   H8X 6766   4.640   3.383   5.622 -0.9120 -0.2172 -0.9985
   75SLPC   H8Y 6767   4.646   3.559   5.687 -0.2341  0.2395  1.4696
   75SLPC   C39 6768   4.454   3.469   5.620 -0.1571  0.3815  0.1389
   75SLPC   H9X 6769   4.387   3.524   5.688 -2.1987  0.0739 -1.5118
   75SLPC   H9Y 6770   4.414   3.366   5.613  0.4201  0.1424  0.2963
   75SLPC  C310 6771   4.460   3.549   5.484  0.1025  0.1697 -0.3862
   75SLPC  H10X 6772   4.500   3.492   5.398  0.0651  0.1527 -0.3927
   75SLPC  H10Y 6773   4.530   3.632   5.505 -0.1646  0.1250  0.7439
   75SLPC  C311 6774   4.331   3.611   5.449  0.3391 -0.0015 -0.5081
   75SLPC  H11X 6775   4.283   3.663   5.535  0.8760  0.4996 -0.5052
   75SLPC  H11Y 6776   4.252   3.547   5.404 -1.8102  3.2331 -1.7363
   75SLPC  C312 6777   4.356   3.716   5.340 -0.0013  0.2392  0.6533
   75SLPC  H12X 6778   4.399   3.666   5.251  0.2750 -1.3784  1.6628
   75SLPC  H12Y 6779   4.428   3.790   5.380  0.6012 -1.7541  3.5666
   75SLPC  C313 6780   4.213   3.768   5.286  0.3940 -0.3373 -0.6946
   75SLPC  H13X 6781   4.143   3.789   5.369  1.4358  0.4427  0.0014
   75SLPC  H13Y 6782   4.167   3.688   5.224 -0.3570 -1.1485  0.8655
   75SLPC  C314 6783   4.244   3.889   5.199  0.2333  0.8974 -0.0776
   75SLPC  H14X 6784   4.145   3.894   5.149 -0.0121 -0.7676  0.1775
   75SLPC  H14Y 6785   4.319   3.869   5.120 -0.4051  0.0430 -0.4865
   75SLPC  C315 6786   4.297   4.014   5.273 -0.3459 -0.8539 -0.2120
   75SLPC  H15X 6787   4.403   4.000   5.301  0.1807 -2.8066 -2.7703
   75SLPC  H15Y 6788   4.235   4.039   5.362  1.6866  1.5472  0.6411
   75SLPC  C316 6789   4.282   4.141   5.178 -0.0341  1.0809  0.0166
   75SLPC  H16X 6790   4.310   4.231   5.237 -0.6938 -0.2757  2.5833
   75SLPC  H16Y 6791   4.176   4.156   5.148  0.0003  2.1143  0.3574
   75SLPC  C317 6792   4.376   4.148   5.059 -0.0001 -0.9279  1.1086
   75SLPC  H17X 6793   4.355   4.241   5.002  0.1138 -1.8473 -0.5056
   75SLPC  H17Y 6794   4.361   4.057   4.995  0.2797 -1.2374  1.4799
   75SLPC  C318 6795   4.523   4.148   5.082  0.6044 -0.1584 -0.6400
   75SLPC  H18X 6796   4.568   4.191   4.990  1.4171  0.9711  0.2592
   75SLPC  H18Y 6797   4.559   4.047   5.113 -0.3866  0.4499  2.9806
   75SLPC  H18Z 6798   4.554   4.214   5.165  1.2258  0.7488 -1.5686
   76SLPC     N 6799   4.477   3.811   6.949 -0.1929  0.1789  0.3916
   76SLPC   C13 6800   4.497   3.791   7.092 -0.5407 -0.3571 -0.3081
   76SLPC  H13A 6801   4.415   3.749   7.147 -1.2665  1.2494 -0.0878
   76SLPC  H13B 6802   4.566   3.711   7.112 -0.0780  0.0708 -0.1458
   76SLPC  H13C 6803   4.530   3.882   7.141 -0.6044  1.1403 -2.8363
   76SLPC   C14 6804   4.392   3.936   6.928 -0.5560 -0.5615 -0.0069
   76SLPC  H14A 6805   4.300   3.921   6.981 -0.8983  0.6157 -0.2308
   76SLPC  H14B 6806   4.443   4.015   6.981 -1.5859 -0.6067  1.0865
   76SLPC  H14C 6807   4.363   3.960   6.827  2.4315  1.3951 -0.5503
   76SLPC   C15 6808   4.408   3.692   6.894 -0.6265 -0.4165  0.4071
   76SLPC  H15A 6809   4.463   3.599   6.892  0.6603  0.3263 -0.0772
   76SLPC  H15B 6810   4.309   3.680   6.936 -0.4817 -1.4568  0.4699
   76SLPC  H15C 6811   4.405   3.705   6.787  1.7499  0.8311  0.4254
   76SLPC   C12 6812   4.609   3.833   6.875 -0.3719  0.9729  1.2082
   76SLPC  H12A 6813   4.663   3.915   6.920  2.4240 -1.3061  2.3163
   76SLPC  H12B 6814   4.587   3.861   6.773 -2.0666 -2.0189  0.6417
   76SLPC   C11 6815   4.708   3.712   6.869  0.2867 -0.2055  0.0842
   76SLPC  H11A 6816   4.793   3.755   6.812 -0.4709  0.1505 -0.8016
   76SLPC  H11B 6817   4.673   3.620   6.818 -0.0832 -0.2692  0.4529
   76SLPC     P 6818   4.856   3.736   7.092 -0.1739  0.2613 -0.1033
   76SLPC   O13 6819   4.797   3.780   7.221  0.4403  0.3234  0.3376
   76SLPC   O14 6820   4.979   3.656   7.105 -0.6640 -0.1613 -0.1039
   76SLPC   O12 6821   4.748   3.662   7.001  0.3512 -0.1240 -0.0915
   76SLPC   O11 6822   4.897   3.863   7.004  0.0143 -0.3031  0.3205
   76SLPC    C1 6823   4.917   3.990   7.068 -0.4035  0.5056 -0.1504
   76SLPC    HA 6824   4.931   3.980   7.178  0.4957 -0.8912 -0.3638
   76SLPC    HB 6825   5.009   4.033   7.023 -0.1155 -1.1981 -1.2683
   76SLPC    C2 6826   4.801   4.099   7.041 -0.2834 -0.2264 -0.1187
   76SLPC    HS 6827   4.704   4.061   7.080  0.7781 -0.5658  2.3778
   76SLPC   O21 6828   4.795   4.114   6.901  0.0058  0.1748  0.0210
   76SLPC   C21 6829   4.694   4.168   6.856 -0.4492  0.0716 -0.0134
   76SLPC   O22 6830   4.590   4.193   6.915 -0.2942 -0.2620 -0.4189
   76SLPC   C22 6831   4.712   4.200   6.708  0.6160  0.2952  0.1721
   76SLPC   H2R 6832   4.743   4.307   6.704  1.8880 -0.0728 -0.0411
   76SLPC   H2S 6833   4.799   4.144   6.667 -0.7794 -0.9827 -1.1890
   76SLPC    C3 6834   4.834   4.231   7.117  0.1531  0.4362 -0.3852
   76SLPC    HX 6835   4.852   4.208   7.224 -0.1571  0.1887 -0.3837
   76SLPC    HY 6836   4.747   4.299   7.104 -1.1569 -1.1510 -0.2614
   76SLPC   O31 6837   4.960   4.273   7.060 -0.2904 -0.6015 -0.6905
   76SLPC   C31 6838   4.949   4.359   6.959 -0.2047  0.0732  0.5474
   76SLPC   O32 6839   4.839   4.402   6.923 -0.1692 -0.7957  0.0403
   76SLPC   C32 6840   5.076   4.392   6.890 -0.6754  0.3982  0.2625
   76SLPC   H2X 6841   5.132   4.309   6.840 -1.2865  0.8268 -1.2052
   76SLPC   H2Y 6842   5.146   4.440   6.961  1.1486 -1.2422 -0.3389
   76SLPC   C23 6843   4.587   4.150   6.622 -0.4535  0.4419  0.3559
   76SLPC   H3R 6844   4.487   4.181   6.659 -1.3510 -2.0745  0.2115
   76SLPC   H3S 6845   4.589   4.043   6.652 -2.7716 -0.0528 -1.0356
   76SLPC   C24 6846   4.588   4.172   6.467 -0.3069 -0.0119 -0.3203
   76SLPC   H4R 6847   4.513   4.114   6.409  0.7761  0.0725 -1.8517
   76SLPC   H4S 6848   4.685   4.138   6.425  0.6844 -0.3157  2.0554
   76SLPC   C25 6849   4.561   4.318   6.434 -0.3581 -0.0616  0.2160
   76SLPC   H5R 6850   4.642   4.372   6.487 -2.3087  1.8750  1.3779
   76SLPC   H5S 6851   4.463   4.344   6.480 -0.8611 -0.7684 -0.4319
   76SLPC   C26 6852   4.537   4.354   6.288  0.1095 -1.3655  0.4846
   76SLPC   H6R 6853   4.502   4.460   6.288 -0.4591 -1.5101  2.2234
   76SLPC   H6S 6854   4.458   4.289   6.246 -0.9379 -0.0554  0.3269
   76SLPC   C27 6855   4.666   4.329   6.195 -0.3229 -0.1847 -0.2315
   76SLPC   H7R 6856   4.729   4.240   6.212  1.5285  1.0683 -0.2042
   76SLPC   H7S 6857   4.727   4.418   6.222  0.8080 -1.3191  1.0692
   76SLPC   C28 6858   4.639   4.332   6.046 -0.3339 -0.0736  0.5110
   76SLPC   H8R 6859   4.732   4.346   5.987 -1.2897 -0.0714 -1.0435
   76SLPC   H8S 6860   4.593   4.429   6.018  1.1441  0.2063 -1.1519
   76SLPC   C29 6861   4.564   4.213   5.994 -0.0419 -0.1398 -0.0730
   76SLPC   H9R 6862   4.619   4.118   6.008 -0.2133 -0.8798 -3.5731
   76SLPC  C210 6863   4.444   4.225   5.931 -0.5648 -0.4521 -0.6367
   76SLPC  H10R 6864   4.383   4.136   5.912 -1.2898 -0.4390  1.3585
   76SLPC  C211 6865   4.366   4.353   5.907  0.5752 -0.5281 -0.0222
   76SLPC  H11R 6866   4.373   4.387   5.802  0.2994 -0.0246  0.1209
   76SLPC  H11S 6867   4.398   4.438   5.970 -3.3581  0.0973  1.4204
   76SLPC  C212 6868   4.221   4.338   5.940 -0.1759  0.1975 -0.4245
   76SLPC  H12R 6869   4.202   4.287   6.036  2.2552 -0.5330 -0.2729
   76SLPC  C213 6870   4.109   4.381   5.879 -0.7731  0.4999 -0.0284
   76SLPC  H13R 6871   4.010   4.362   5.922 -0.4835 -1.1384 -0.0381
   76SLPC  C214 6872   4.107   4.457   5.746  0.3014  0.1353 -0.1136
   76SLPC  H14R 6873   4.197   4.523   5.750  0.7156 -0.4556  0.5067
   76SLPC  H14S 6874   4.019   4.524   5.746 -1.6592 -2.2981 -0.0614
   76SLPC  C215 6875   4.091   4.387   5.614  0.2063  0.2946 -0.3073
   76SLPC  H15R 6876   3.998   4.328   5.607  0.3006  0.2358 -1.2993
   76SLPC  H15S 6877   4.180   4.323   5.596 -1.2842 -2.0000  0.1920
   76SLPC  C216 6878   4.083   4.491   5.503 -0.5424 -0.3987 -0.2903
   76SLPC  H16R 6879   4.160   4.571   5.511 -0.9129 -0.1793  1.3166
   76SLPC  H16S 6880   3.984   4.537   5.523 -0.6535 -0.8363  0.1835
   76SLPC  C217 6881   4.080   4.426   5.367  0.3775  0.0472 -0.1414
   76SLPC  H17R 6882   3.995   4.356   5.376  2.0624 -1.8745  2.5955
   76SLPC  H17S 6883   4.171   4.362   5.358  0.4632  0.1110  0.2568
   76SLPC  C218 6884   4.070   4.525   5.247 -0.1990  0.7577 -0.1704
   76SLPC  H18R 6885   3.962   4.551   5.241 -0.7171 -1.0767  0.4657
   76SLPC  H18S 6886   4.094   4.461   5.159  0.2031 -2.1013  1.8876
   76SLPC  H18T 6887   4.143   4.608   5.254  0.7714 -0.2131  2.3844
   76SLPC   C33 6888   5.049   4.489   6.772 -0.3076 -1.2006  0.3388
   76SLPC   H3X 6889   5.010   4.582   6.818  1.3311 -1.2707  1.9791
   76SLPC   H3Y 6890   4.977   4.458   6.693 -0.8416  3.2702 -1.2085
   76SLPC   C34 6891   5.187   4.522   6.706  1.0295 -0.4937 -0.6839
   76SLPC   H4X 6892   5.264   4.505   6.784  0.5002 -0.3730 -0.1197
   76SLPC   H4Y 6893   5.199   4.630   6.684 -0.5895  0.4601  2.4622
   76SLPC   C35 6894   5.219   4.444   6.577  0.3318 -0.0970 -0.1424
   76SLPC   H5X 6895   5.252   4.341   6.603 -1.0002 -1.3585 -2.9758
   76SLPC   H5Y 6896   5.311   4.493   6.539 -0.8223 -0.0290 -3.1820
   76SLPC   C36 6897   5.109   4.434   6.467 -0.5454 -0.3682  0.9981
   76SLPC   H6X 6898   5.019   4.380   6.505 -1.7577  0.2239 -0.9121
   76SLPC   H6Y 6899   5.159   4.373   6.388  0.8956 -0.0244  1.6079
   76SLPC   C37 6900   5.075   4.571   6.403  0.3571  0.3946  0.6396
   76SLPC   H7X 6901   5.165   4.635   6.395 -1.1430  2.4730 -0.5783
   76SLPC   H7Y 6902   5.007   4.631   6.467  1.1691 -0.4106  2.3136
   76SLPC   C38 6903   5.004   4.564   6.262 -0.0225 -0.1137 -0.0058
   76SLPC   H8X 6904   4.987   4.665   6.219 -2.7533 -1.5910 -2.8472
   76SLPC   H8Y 6905   4.904   4.521   6.284 -0.4870  2.0706  2.5866
   76SLPC   C39 6906   5.082   4.490   6.159 -0.3641  0.0763 -0.5221
   76SLPC   H9X 6907   5.086   4.382   6.187 -1.9538 -0.0077 -0.5574
   76SLPC   H9Y 6908   5.189   4.522   6.154  0.0569 -1.2961 -0.7648
   76SLPC  C310 6909   5.008   4.492   6.026 -0.5289 -0.4328  0.8537
   76SLPC  H10X 6910   5.009   4.595   5.984  1.4158 -0.2340  1.2659
   76SLPC  H10Y 6911   4.906   4.450   6.031 -0.7963 -0.1365 -1.1407
   76SLPC  C311 6912   5.089   4.407   5.931 -0.0022 -0.4173  0.3567
   76SLPC  H11X 6913   5.091   4.306   5.977  2.0934  0.8108  3.1848
   76SLPC  H11Y 6914   5.194   4.444   5.930 -0.4723  1.0973  1.9073
   76SLPC  C312 6915   5.020   4.405   5.792  0.5172 -0.4762  0.0970
   76SLPC  H12X 6916   5.009   4.513   5.767  2.4256 -0.2522  0.1018
   76SLPC  H12Y 6917   4.914   4.372   5.800  0.2510  0.0108 -1.0919
   76SLPC  C313 6918   5.092   4.331   5.680  0.1622  0.4149 -0.3034
   76SLPC  H13X 6919   5.111   4.228   5.719 -2.5615  0.1504  0.5244
   76SLPC  H13Y 6920   5.193   4.374   5.666  1.2660 -1.9561 -0.1542
   76SLPC  C314 6921   5.010   4.331   5.544 -0.3103 -0.2023 -0.4884
   76SLPC  H14X 6922   4.988   4.436   5.518 -0.2849 -0.1235 -0.1982
   76SLPC  H14Y 6923   4.909   4.288   5.557 -1.1296  1.3631 -1.4001
   76SLPC  C315 6924   5.086   4.242   5.444 -0.7153  0.3999  0.0776
   76SLPC  H15X 6925   5.025   4.242   5.351 -2.6672  2.0660  1.2550
   76SLPC  H15Y 6926   5.095   4.133   5.464  1.8215  0.6603  0.7124
   76SLPC  C316 6927   5.228   4.291   5.410 -0.0415  0.3888 -0.0362
   76SLPC  H16X 6928   5.299   4.270   5.493  0.3586 -1.4224 -0.8104
   76SLPC  H16Y 6929   5.215   4.399   5.386  2.4228  0.8855  0.5059
   76SLPC  C317 6930   5.283   4.229   5.275  0.3972  0.0492 -0.3960
   76SLPC  H17X 6931   5.357   4.301   5.234  0.7223 -1.3528 -2.4705
   76SLPC  H17Y 6932   5.201   4.216   5.201 -0.5524  0.7475  0.5015
   76SLPC  C318 6933   5.359   4.096   5.292  0.8124 -0.1306  0.3088
   76SLPC  H18X 6934   5.457   4.111   5.343  0.5158  0.7352  0.6394
   76SLPC  H18Y 6935   5.360   4.039   5.197  0.7058  0.1220  0.1538
   76SLPC  H18Z 6936   5.302   4.034   5.363  2.4658 -1.4340  0.5710
   77SLPC     N 6937   4.424   2.609   7.313  0.2448 -0.4404 -0.2336
   77SLPC   C13 6938   4.306   2.649   7.401 -0.8038  0.4874  0.2369
   77SLPC  H13A 6939   4.268   2.750   7.395 -0.9639  0.4986  1.2323
   77SLPC  H13B 6940   4.227   2.575   7.407  1.2925 -1.8318  0.9888
   77SLPC  H13C 6941   4.348   2.643   7.501 -0.6071  0.7179  0.1678
   77SLPC   C14 6942   4.528   2.725   7.305  0.6510  0.3770 -0.0662
   77SLPC  H14A 6943   4.561   2.744   7.406  0.4924 -1.6971  0.4052
   77SLPC  H14B 6944   4.619   2.698   7.255  1.1486 -3.5016  2.5820
   77SLPC  H14C 6945   4.483   2.816   7.267 -3.6781 -1.4856  0.0491
   77SLPC   C15 6946   4.365   2.602   7.179 -0.2361  0.1132 -0.1884
   77SLPC  H15A 6947   4.441   2.606   7.102  0.6404 -1.4078  0.5592
   77SLPC  H15B 6948   4.317   2.507   7.156 -1.5207  0.8154 -0.5291
   77SLPC  H15C 6949   4.290   2.677   7.161  0.0594  0.6748  0.8888
   77SLPC   C12 6950   4.492   2.483   7.357 -0.3244 -0.0728  0.4096
   77SLPC  H12A 6951   4.417   2.407   7.374 -0.8032 -0.0983 -1.6361
   77SLPC  H12B 6952   4.544   2.495   7.451  0.4251 -3.8064  0.6111
   77SLPC   C11 6953   4.595   2.415   7.251  0.0307 -0.2302  0.1578
   77SLPC  H11A 6954   4.541   2.381   7.161 -0.0567 -3.0249  1.1778
   77SLPC  H11B 6955   4.626   2.320   7.298 -2.6720 -0.6623  1.2575
   77SLPC     P 6956   4.856   2.455   7.235  0.1890  0.2034  0.1720
   77SLPC   O13 6957   4.941   2.560   7.184  0.4206 -0.2387  0.0819
   77SLPC   O14 6958   4.882   2.401   7.371 -0.1021 -0.4744 -0.1049
   77SLPC   O12 6959   4.702   2.505   7.214 -0.0821 -0.3036 -0.2087
   77SLPC   O11 6960   4.859   2.327   7.134  0.1378 -0.0560  0.6064
   77SLPC    C1 6961   4.972   2.279   7.067 -0.6932 -0.4303  0.9628
   77SLPC    HA 6962   5.068   2.324   7.098 -0.1570 -0.9079  0.0485
   77SLPC    HB 6963   4.981   2.171   7.094 -1.9587 -0.8801 -0.2962
   77SLPC    C2 6964   4.938   2.288   6.913 -0.1739  0.0785  0.1740
   77SLPC    HS 6965   5.029   2.257   6.858  0.6998 -0.8445  2.0239
   77SLPC   O21 6966   4.910   2.430   6.874  0.0422  1.1330  0.4195
   77SLPC   C21 6967   5.021   2.505   6.883 -0.4832 -0.2988  0.3948
   77SLPC   O22 6968   5.132   2.467   6.911  0.2472  0.1036  0.4069
   77SLPC   C22 6969   4.999   2.644   6.829  0.5205 -0.1802  0.5131
   77SLPC   H2R 6970   4.896   2.676   6.853  0.2552  0.6824 -1.6248
   77SLPC   H2S 6971   5.066   2.714   6.884 -0.0881  1.8506 -1.2377
   77SLPC    C3 6972   4.821   2.205   6.867 -0.2050  0.5663 -0.2218
   77SLPC    HX 6973   4.726   2.229   6.919  1.2334  1.3727  2.2231
   77SLPC    HY 6974   4.830   2.095   6.879 -1.7078  0.2235 -1.8965
   77SLPC   O31 6975   4.803   2.227   6.723 -0.9634 -0.2235  0.0765
   77SLPC   C31 6976   4.728   2.317   6.681  0.5553 -0.7093  0.1316
   77SLPC   O32 6977   4.661   2.395   6.748  0.2313 -0.5434  0.3234
   77SLPC   C32 6978   4.749   2.334   6.535  0.1712  0.0747 -0.4365
   77SLPC   H2X 6979   4.842   2.279   6.510 -0.8075 -2.1890  0.6463
   77SLPC   H2Y 6980   4.763   2.443   6.519 -0.3161 -0.0263 -1.6454
   77SLPC   C23 6981   5.005   2.662   6.682 -0.3403 -0.1016  0.5481
   77SLPC   H3R 6982   4.955   2.755   6.647  2.0843  0.9609 -0.2948
   77SLPC   H3S 6983   4.965   2.577   6.622  3.0378 -0.9255 -0.7405
   77SLPC   C24 6984   5.149   2.688   6.647  0.0051 -0.3362  0.3450
   77SLPC   H4R 6985   5.218   2.614   6.692  0.8250  0.3676  0.2721
   77SLPC   H4S 6986   5.182   2.790   6.675  1.3718 -0.3434 -1.0641
   77SLPC   C25 6987   5.186   2.671   6.496 -0.3072 -0.2286  0.1250
   77SLPC   H5R 6988   5.284   2.721   6.482  0.2602 -0.7397  2.0061
   77SLPC   H5S 6989   5.112   2.731   6.438  0.5595  2.8330  1.9169
   77SLPC   C26 6990   5.177   2.523   6.450  0.3416 -0.0187 -0.1511
   77SLPC   H6R 6991   5.084   2.476   6.489  0.9696 -0.5756  0.6957
   77SLPC   H6S 6992   5.264   2.465   6.486 -0.5746 -1.1248  0.3386
   77SLPC   C27 6993   5.166   2.505   6.294 -0.0519  0.3052  0.0033
   77SLPC   H7R 6994   5.171   2.397   6.270  0.5790  0.7744 -2.2085
   77SLPC   H7S 6995   5.258   2.544   6.244  1.0335 -0.7407  1.1104
   77SLPC   C28 6996   5.040   2.562   6.241  0.0700 -0.0651 -0.2693
   77SLPC   H8R 6997   5.041   2.673   6.254  0.2241  0.1416 -1.8366
   77SLPC   H8S 6998   4.953   2.528   6.301  0.6994  1.0242  1.3198
   77SLPC   C29 6999   5.025   2.518   6.092 -0.0227 -0.3867 -0.3016
   77SLPC   H9R 7000   5.032   2.409   6.078 -1.0794 -0.2603 -2.1216
   77SLPC  C210 7001   5.016   2.586   5.978 -0.1172  0.9318  0.1485
   77SLPC  H10R 7002   5.001   2.533   5.883 -0.9812  0.9173  0.2931
   77SLPC  C211 7003   5.030   2.735   5.971  0.1287 -0.1593  1.1188
   77SLPC  H11R 7004   5.019   2.791   6.067  0.6079  2.0939 -0.0562
   77SLPC  H11S 7005   4.957   2.769   5.894 -0.2457 -1.9723  0.6386
   77SLPC  C212 7006   5.167   2.776   5.920  0.7129  0.8044 -0.2000
   77SLPC  H12R 7007   5.240   2.817   5.991 -0.2141  1.6491  0.2907
   77SLPC  C213 7008   5.194   2.787   5.787 -0.5023  0.3183 -0.3787
   77SLPC  H13R 7009   5.284   2.843   5.761 -1.3632  0.6693 -2.8594
   77SLPC  C214 7010   5.094   2.758   5.674 -0.2393  0.0587  0.2202
   77SLPC  H14R 7011   5.084   2.853   5.618 -0.7674  0.1862  0.5213
   77SLPC  H14S 7012   4.988   2.740   5.704 -0.0021  1.6114  2.2122
   77SLPC  C215 7013   5.125   2.652   5.566  0.1339  0.4274  0.3108
   77SLPC  H15R 7014   5.083   2.671   5.465 -0.3178 -1.0276  0.2002
   77SLPC  H15S 7015   5.087   2.552   5.596  0.9693  0.4809  1.6307
   77SLPC  C216 7016   5.281   2.643   5.542 -0.5371 -0.0333  0.5738
   77SLPC  H16R 7017   5.342   2.626   5.633 -0.5388  0.9790  0.7788
   77SLPC  H16S 7018   5.306   2.741   5.497 -0.9034  0.7712  2.0566
   77SLPC  C217 7019   5.333   2.545   5.431  0.2871  0.4487 -0.2630
   77SLPC  H17R 7020   5.265   2.544   5.343  1.6986  2.3794 -1.4794
   77SLPC  H17S 7021   5.336   2.441   5.469  1.2179 -0.0942 -1.7419
   77SLPC  C218 7022   5.483   2.581   5.401 -0.2871  0.3614 -0.0217
   77SLPC  H18R 7023   5.544   2.517   5.468  0.6078 -0.6641 -1.7483
   77SLPC  H18S 7024   5.523   2.682   5.421 -0.6518  0.4925  0.0529
   77SLPC  H18T 7025   5.500   2.541   5.299  1.2937 -1.0376  0.7356
   77SLPC   C33 7026   4.621   2.281   6.460 -0.0730 -0.0236  0.4590
   77SLPC   H3X 7027   4.530   2.341   6.481  0.6496  1.0155  0.7177
   77SLPC   H3Y 7028   4.598   2.177   6.491 -2.7328  0.3976  0.1317
   77SLPC   C34 7029   4.644   2.276   6.305  0.3159 -0.6194 -0.1043
   77SLPC   H4X 7030   4.648   2.381   6.268 -1.2285 -0.4544  0.1311
   77SLPC   H4Y 7031   4.557   2.226   6.258  1.2388 -0.4204 -2.1364
   77SLPC   C35 7032   4.756   2.188   6.261 -0.0191  0.7463  0.0135
   77SLPC   H5X 7033   4.783   2.102   6.326  2.9432  0.3662 -1.5358
   77SLPC   H5Y 7034   4.847   2.246   6.234  0.4801 -0.9244 -2.2109
   77SLPC   C36 7035   4.721   2.125   6.119 -0.0262 -1.0046  0.1072
   77SLPC   H6X 7036   4.636   2.058   6.143  0.6721 -1.7175  0.6549
   77SLPC   H6Y 7037   4.812   2.078   6.075  1.1900 -0.0795  1.5117
   77SLPC   C37 7038   4.692   2.231   6.016  0.1740 -0.5303  0.0654
   77SLPC   H7X 7039   4.780   2.294   5.990 -0.5491  0.5009  0.0759
   77SLPC   H7Y 7040   4.607   2.299   6.037  0.4461  0.3033 -1.4105
   77SLPC   C38 7041   4.650   2.168   5.885  1.0835  0.0614 -0.2077
   77SLPC   H8X 7042   4.606   2.240   5.813 -1.6152  0.1190  1.3683
   77SLPC   H8Y 7043   4.571   2.093   5.905  3.2142 -1.6885  2.3834
   77SLPC   C39 7044   4.771   2.111   5.811  0.5814 -0.0115 -0.7298
   77SLPC   H9X 7045   4.791   2.025   5.877 -2.6989  0.4127  0.9825
   77SLPC   H9Y 7046   4.855   2.185   5.816 -0.8704  1.6440  0.0690
   77SLPC  C310 7047   4.754   2.066   5.666  0.3128 -0.2943  0.5241
   77SLPC  H10X 7048   4.684   1.980   5.666 -0.0998 -0.0167  2.9042
   77SLPC  H10Y 7049   4.850   2.028   5.625 -0.2305 -0.7360 -0.3916
   77SLPC  C311 7050   4.715   2.174   5.560 -0.5342  0.3413  0.6551
   77SLPC  H11X 7051   4.767   2.267   5.591 -0.0614  0.0193  0.8347
   77SLPC  H11Y 7052   4.606   2.195   5.566 -0.6261  0.2087 -0.3175
   77SLPC  C312 7053   4.756   2.145   5.413  0.0438 -0.3508 -0.3094
   77SLPC  H12X 7054   4.703   2.052   5.385  0.4404 -1.2441  1.7289
   77SLPC  H12Y 7055   4.863   2.118   5.403  0.9102  2.6801 -0.3850
   77SLPC  C313 7056   4.741   2.261   5.316  0.2164  0.1602 -0.2866
   77SLPC  H13X 7057   4.786   2.347   5.370 -0.3466 -0.3618  1.0553
   77SLPC  H13Y 7058   4.636   2.289   5.295  0.6371  2.2138  0.2046
   77SLPC  C314 7059   4.812   2.224   5.182 -0.4758  0.2781 -0.5107
   77SLPC  H14X 7060   4.739   2.178   5.112 -0.1932  0.2164 -0.7723
   77SLPC  H14Y 7061   4.894   2.153   5.206 -1.3624 -0.2370  1.1213
   77SLPC  C315 7062   4.885   2.341   5.126  0.1455  0.1740  0.5824
   77SLPC  H15X 7063   4.959   2.313   5.049 -0.9153 -0.5882 -0.1876
   77SLPC  H15Y 7064   4.953   2.376   5.206  0.5061 -1.4114  1.0060
   77SLPC  C316 7065   4.792   2.454   5.067 -0.3193  0.2177 -0.6328
   77SLPC  H16X 7066   4.711   2.475   5.141 -0.9882 -1.5674 -0.8037
   77SLPC  H16Y 7067   4.747   2.419   4.972  0.6085 -1.6788 -0.4102
   77SLPC  C317 7068   4.865   2.588   5.039  0.0972  0.1108 -0.4541
   77SLPC  H17X 7069   4.936   2.620   5.118  0.4329 -2.6131  0.4320
   77SLPC  H17Y 7070   4.788   2.668   5.033 -0.1542 -0.0134  0.7404
   77SLPC  C318 7071   4.952   2.581   4.915  0.2580  0.0118  0.1240
   77SLPC  H18X 7072   4.910   2.558   4.815 -0.3225 -0.5842  0.4945
   77SLPC  H18Y 7073   5.030   2.502   4.924  1.1981  0.8886 -0.2094
   77SLPC  H18Z 7074   5.015   2.672   4.913 -1.3171  1.1307 -1.2977
   78SLPC     N 7075   0.303   6.669   7.384 -0.0475  0.1480  0.2982
   78SLPC   C13 7076   0.375   6.543   7.354  0.0048  0.5336  0.3648
   78SLPC  H13A 7077   0.480   6.557   7.336 -0.3997  2.6869 -0.6100
   78SLPC  H13B 7078   0.348   6.478   7.436  0.7138  1.8411  1.6789
   78SLPC  H13C 7079   0.340   6.500   7.262  1.7780  1.8296 -0.9835
   78SLPC   C14 7080   0.359   6.754   7.494  0.8100  0.0858 -0.5136
   78SLPC  H14A 7081   0.305   6.848   7.493  0.1711 -0.2046  1.3219
   78SLPC  H14B 7082   0.359   6.709   7.593  0.9951  0.8703 -0.1495
   78SLPC  H14C 7083   0.462   6.773   7.470  0.6011  1.0609 -0.6502
   78SLPC   C15 7084   0.162   6.627   7.416  0.4841 -0.0273  0.5153
   78SLPC  H15A 7085   0.110   6.713   7.456 -1.1785 -1.6462  2.0155
   78SLPC  H15B 7086   0.120   6.586   7.326  2.6492 -0.2958 -0.4429
   78SLPC  H15C 7087   0.160   6.547   7.489 -1.4203 -1.9503 -1.4822
   78SLPC   C12 7088   0.305   6.753   7.254  0.1177  0.7254  0.2850
   78SLPC  H12A 7089   0.247   6.699   7.180  1.2695 -0.1283 -0.0344
   78SLPC  H12B 7090   0.404   6.751   7.211 -0.6961 -3.3659 -1.9519
   78SLPC   C11 7091   0.249   6.889   7.266 -0.3463 -0.1510  0.5732
   78SLPC  H11A 7092   0.157   6.883   7.327 -0.7554  0.4643  0.0372
   78SLPC  H11B 7093   0.220   6.938   7.170 -0.2733 -0.1154  0.5692
   78SLPC     P 7094   0.457   7.047   7.264 -0.0290 -0.1696  0.1666
   78SLPC   O13 7095   0.527   7.132   7.359 -0.4616  0.0375 -0.1883
   78SLPC   O14 7096   0.543   6.943   7.201  0.0782 -0.0568 -0.5555
   78SLPC   O12 7097   0.329   6.985   7.338  0.0688 -0.4010  0.1502
   78SLPC   O11 7098   0.405   7.139   7.147 -0.0560  0.3902  0.5925
   78SLPC    C1 7099   0.309   7.237   7.169  0.3594 -0.9395  0.2085
   78SLPC    HA 7100   0.232   7.211   7.245 -0.1907  2.0442  0.7726
   78SLPC    HB 7101   0.353   7.333   7.204 -0.0419 -0.1811 -1.3192
   78SLPC    C2 7102   0.245   7.285   7.032  0.4545 -0.9579 -0.3077
   78SLPC    HS 7103   0.198   7.385   7.045  1.0499 -0.5718 -1.0575
   78SLPC   O21 7104   0.157   7.189   6.970 -0.2631 -0.6692  0.2232
   78SLPC   C21 7105   0.032   7.197   6.984  0.5969 -0.0123  0.4145
   78SLPC   O22 7106  -0.032   7.276   7.050  0.1175 -0.2814  0.0788
   78SLPC   C22 7107  -0.033   7.071   6.913  0.5160  0.2071  0.2469
   78SLPC   H2R 7108   0.041   6.997   6.877 -0.7979 -0.8405 -0.3998
   78SLPC   H2S 7109  -0.088   7.012   6.990 -1.0993  1.6298  0.2566
   78SLPC    C3 7110   0.362   7.310   6.928 -0.3776  0.3855  0.4097
   78SLPC    HX 7111   0.403   7.208   6.911 -0.8933  0.6009 -2.5984
   78SLPC    HY 7112   0.443   7.379   6.960  0.0518  1.1201 -2.0787
   78SLPC   O31 7113   0.313   7.343   6.795  0.1135 -0.1433 -0.6304
   78SLPC   C31 7114   0.295   7.476   6.782  0.3635 -0.1021  0.4625
   78SLPC   O32 7115   0.330   7.560   6.861  0.5213 -0.0508  0.1873
   78SLPC   C32 7116   0.215   7.513   6.655 -0.2069  0.5650 -0.4348
   78SLPC   H2X 7117   0.181   7.619   6.658  0.2973  0.7128  1.5577
   78SLPC   H2Y 7118   0.126   7.448   6.641 -0.8369  1.5125 -1.0205
   78SLPC   C23 7119  -0.121   7.103   6.796 -1.0463 -0.7025  0.2057
   78SLPC   H3R 7120  -0.217   7.149   6.829 -1.2714 -0.2004 -1.1100
   78SLPC   H3S 7121  -0.134   7.005   6.745 -2.6805 -0.0987 -0.6204
   78SLPC   C24 7122  -0.051   7.182   6.681  0.2345  0.3741 -0.5965
   78SLPC   H4R 7123   0.047   7.138   6.654  1.1516  1.1180  1.3027
   78SLPC   H4S 7124  -0.017   7.280   6.721 -0.3013  0.4793 -0.3951
   78SLPC   C25 7125  -0.147   7.203   6.564 -0.2313  0.1513  0.0477
   78SLPC   H5R 7126  -0.238   7.260   6.595  0.9567  1.1513  1.8692
   78SLPC   H5S 7127  -0.197   7.107   6.537 -1.7585  0.7030  0.7881
   78SLPC   C26 7128  -0.086   7.279   6.440  0.6472 -0.1910  0.1943
   78SLPC   H6R 7129   0.007   7.232   6.401  1.7962  1.8922  0.2707
   78SLPC   H6S 7130  -0.062   7.382   6.472 -0.6079 -0.5545  2.4873
   78SLPC   C27 7131  -0.196   7.282   6.330 -0.5800 -0.4403 -0.1346
   78SLPC   H7R 7132  -0.289   7.312   6.382  0.1411 -2.4882  2.5715
   78SLPC   H7S 7133  -0.228   7.176   6.312 -0.6852 -0.0637 -2.4887
   78SLPC   C28 7134  -0.172   7.374   6.200 -0.9096  0.6674 -0.2199
   78SLPC   H8R 7135  -0.084   7.328   6.151 -1.4499 -1.7680  0.9347
   78SLPC   H8S 7136  -0.147   7.479   6.227 -0.8618  0.6738 -0.2886
   78SLPC   C29 7137  -0.280   7.372   6.097 -0.1791 -0.3967  0.0585
   78SLPC   H9R 7138  -0.288   7.281   6.037 -1.1466  0.2198 -0.7702
   78SLPC  C210 7139  -0.359   7.473   6.069 -0.0139 -0.3773  0.8961
   78SLPC  H10R 7140  -0.422   7.460   5.980  1.4992 -0.2498 -0.2403
   78SLPC  C211 7141  -0.380   7.600   6.149 -0.5176 -0.1509 -1.3753
   78SLPC  H11R 7142  -0.325   7.686   6.104 -0.6131  0.3707 -0.5306
   78SLPC  H11S 7143  -0.345   7.586   6.254  1.5415  3.6221 -1.3815
   78SLPC  C212 7144  -0.526   7.626   6.175 -0.5653  0.1752  0.3590
   78SLPC  H12R 7145  -0.580   7.546   6.227  2.0223 -3.4823 -2.1180
   78SLPC  C213 7146  -0.600   7.720   6.114 -0.1644 -0.1964  0.2574
   78SLPC  H13R 7147  -0.709   7.721   6.124 -0.1459  3.6632  1.5814
   78SLPC  C214 7148  -0.552   7.817   6.015  0.0165 -0.2257 -0.2477
   78SLPC  H14R 7149  -0.461   7.868   6.053 -2.4090  1.5393  3.8242
   78SLPC  H14S 7150  -0.635   7.889   6.001 -0.6580 -1.2726 -2.0988
   78SLPC  C215 7151  -0.525   7.765   5.867  0.1646 -0.0918 -0.9666
   78SLPC  H15R 7152  -0.423   7.722   5.859  0.4590  0.7904 -2.3142
   78SLPC  H15S 7153  -0.527   7.863   5.814 -0.0381  1.2405  1.3776
   78SLPC  C216 7154  -0.637   7.670   5.816 -0.0862 -0.4272  0.5390
   78SLPC  H16R 7155  -0.738   7.710   5.844  0.3314  0.3378  1.0026
   78SLPC  H16S 7156  -0.642   7.572   5.869  0.4288 -1.3710 -1.0873
   78SLPC  C217 7157  -0.639   7.621   5.668  0.6495 -0.3600 -0.4314
   78SLPC  H17R 7158  -0.721   7.547   5.654 -0.4141  0.7248 -0.1145
   78SLPC  H17S 7159  -0.546   7.561   5.656  1.8173  0.8043  2.1970
   78SLPC  C218 7160  -0.640   7.737   5.568 -0.2506  0.0364  0.8344
   78SLPC  H18R 7161  -0.551   7.800   5.591 -0.6019  1.0675 -0.4516
   78SLPC  H18S 7162  -0.729   7.803   5.579  1.3990  2.1096  3.0016
   78SLPC  H18T 7163  -0.623   7.698   5.466  0.3437  1.9865  0.1336
   78SLPC   C33 7164   0.296   7.517   6.523 -0.1133 -0.0813  0.3779
   78SLPC   H3X 7165   0.379   7.444   6.517 -0.4737 -0.4231 -0.8193
   78SLPC   H3Y 7166   0.357   7.607   6.545  0.3411 -0.4797  0.7784
   78SLPC   C34 7167   0.208   7.534   6.399 -1.1795 -0.1023  0.0068
   78SLPC   H4X 7168   0.146   7.624   6.421 -1.3138 -0.6478  2.0487
   78SLPC   H4Y 7169   0.140   7.448   6.380  0.4237 -1.4956  0.3597
   78SLPC   C35 7170   0.289   7.545   6.270 -0.1418 -0.0175  0.2680
   78SLPC   H5X 7171   0.338   7.447   6.249  1.8604 -0.0273  4.1229
   78SLPC   H5Y 7172   0.369   7.622   6.276  1.4384 -1.4049 -1.4989
   78SLPC   C36 7173   0.194   7.577   6.147 -0.3856 -0.4980 -0.6017
   78SLPC   H6X 7174   0.125   7.661   6.171  1.2712  0.8183 -0.3019
   78SLPC   H6Y 7175   0.131   7.486   6.139 -1.1160  0.0330 -1.0427
   78SLPC   C37 7176   0.259   7.592   6.009  0.5610 -0.4860  0.1386
   78SLPC   H7X 7177   0.337   7.514   6.004  0.2046 -0.7769 -1.4635
   78SLPC   H7Y 7178   0.308   7.691   6.014 -1.6988  0.7378 -0.5248
   78SLPC   C38 7179   0.163   7.579   5.887 -0.6836 -0.0269  0.2365
   78SLPC   H8X 7180   0.121   7.476   5.890  0.5524 -0.5800 -0.6340
   78SLPC   H8Y 7181   0.223   7.586   5.794 -1.5222  0.5886 -0.2791
   78SLPC   C39 7182   0.060   7.687   5.890 -0.6039 -0.3420 -0.4897
   78SLPC   H9X 7183   0.107   7.785   5.912 -0.8275 -0.3121 -0.1427
   78SLPC   H9Y 7184  -0.011   7.674   5.975  0.3834  0.0013  0.4002
   78SLPC  C310 7185  -0.020   7.693   5.760 -0.7033  0.1010  0.2162
   78SLPC  H10X 7186   0.042   7.692   5.667 -0.5706  3.8592  0.1147
   78SLPC  H10Y 7187  -0.081   7.786   5.768 -2.8152 -1.2862  1.0239
   78SLPC  C311 7188  -0.141   7.590   5.758 -0.0559 -0.5095 -0.2374
   78SLPC  H11X 7189  -0.208   7.601   5.846  2.0914 -1.3009  1.5948
   78SLPC  H11Y 7190  -0.095   7.489   5.769  0.8254  0.1610  3.7151
   78SLPC  C312 7191  -0.243   7.604   5.649 -0.1957 -0.8908  0.3213
   78SLPC  H12X 7192  -0.265   7.713   5.642 -0.7387 -0.9618  0.8752
   78SLPC  H12Y 7193  -0.332   7.537   5.654  0.2444 -1.3803  3.0801
   78SLPC  C313 7194  -0.190   7.579   5.506  0.2844  0.2146  0.8446
   78SLPC  H13X 7195  -0.147   7.478   5.493  2.5344  1.2583 -0.2359
   78SLPC  H13Y 7196  -0.113   7.655   5.483  0.0457  0.4579  0.8450
   78SLPC  C314 7197  -0.294   7.606   5.400  0.2437 -0.1332 -0.7057
   78SLPC  H14X 7198  -0.358   7.695   5.418 -1.5942 -0.6379 -3.9641
   78SLPC  H14Y 7199  -0.360   7.518   5.414  2.6508 -1.6992  1.9196
   78SLPC  C315 7200  -0.238   7.599   5.256  0.6580  0.8437 -0.2507
   78SLPC  H15X 7201  -0.317   7.581   5.181  1.1649  0.8336 -0.7882
   78SLPC  H15Y 7202  -0.170   7.510   5.253  1.5707  1.2458  3.3988
   78SLPC  C316 7203  -0.172   7.721   5.210  0.1121  0.3601 -0.1119
   78SLPC  H16X 7204  -0.092   7.759   5.278  0.1101  0.8037 -0.3548
   78SLPC  H16Y 7205  -0.253   7.797   5.206  0.4892  0.7934  0.3227
   78SLPC  C317 7206  -0.110   7.719   5.073  0.1412 -1.1110 -0.0883
   78SLPC  H17X 7207  -0.175   7.736   4.985 -0.7287  0.3238  0.8026
   78SLPC  H17Y 7208  -0.052   7.626   5.053 -1.8022 -2.5160  0.5083
   78SLPC  C318 7209  -0.004   7.827   5.057  0.3502 -0.3285  0.2514
   78SLPC  H18X 7210  -0.049   7.928   5.068  0.3659 -0.4637  1.6650
   78SLPC  H18Y 7211   0.054   7.819   4.963  0.6659 -1.0514  0.5035
   78SLPC  H18Z 7212   0.072   7.814   5.137  0.1238 -1.7649  0.2607
   79SLPC     N 7213   5.928   3.706   7.326  0.1431  0.3182  0.3757
   79SLPC   C13 7214   5.881   3.815   7.416 -0.0480 -0.0573 -0.2135
   79SLPC  H13A 7215   5.890   3.908   7.361  0.1143  0.9625  1.4727
   79SLPC  H13B 7216   5.780   3.788   7.443 -0.2679 -1.2330 -2.0133
   79SLPC  H13C 7217   5.954   3.830   7.494 -0.3197  0.3642 -0.0398
   79SLPC   C14 7218   5.818   3.672   7.225  0.0175 -0.3684 -0.0997
   79SLPC  H14A 7219   5.833   3.571   7.190 -1.4040 -1.1373  1.3325
   79SLPC  H14B 7220   5.721   3.688   7.270 -0.0073 -0.4906 -0.1103
   79SLPC  H14C 7221   5.829   3.733   7.137  1.2716 -1.1450 -0.5065
   79SLPC   C15 7222   5.949   3.580   7.406  0.1443  0.6533 -0.2830
   79SLPC  H15A 7223   6.034   3.595   7.471 -0.9546  0.5038  1.2310
   79SLPC  H15B 7224   5.869   3.565   7.477  0.6004  1.8998  0.5340
   79SLPC  H15C 7225   5.963   3.491   7.347 -0.8005  0.8276 -0.7887
   79SLPC   C12 7226   6.061   3.753   7.256 -0.2396 -0.1287 -0.1166
   79SLPC  H12A 7227   6.087   3.668   7.195 -0.9090 -0.2574 -0.2277
   79SLPC  H12B 7228   6.131   3.764   7.338 -2.2898 -1.9932  2.0557
   79SLPC   C11 7229   6.063   3.876   7.172  0.4215 -0.4743 -0.2497
   79SLPC  H11A 7230   5.967   3.881   7.115 -0.8467 -1.4203  1.6775
   79SLPC  H11B 7231   6.145   3.876   7.098  1.2499  0.6932  0.6450
   79SLPC     P 7232   6.189   4.073   7.277  0.0867  0.4732  0.1820
   79SLPC   O13 7233   6.160   4.177   7.379  0.9842  0.3798 -0.2532
   79SLPC   O14 7234   6.310   3.991   7.301  0.3756  0.1608 -0.0744
   79SLPC   O12 7235   6.051   3.993   7.256  0.3986  0.4810  0.4814
   79SLPC   O11 7236   6.205   4.144   7.135  0.0549  0.1380 -0.3197
   79SLPC    C1 7237   6.096   4.224   7.085  0.4110 -0.6065  0.5483
   79SLPC    HA 7238   5.996   4.189   7.116 -0.4060  1.1174  0.0095
   79SLPC    HB 7239   6.093   4.325   7.130 -1.2279  1.0948 -2.9556
   79SLPC    C2 7240   6.103   4.244   6.933 -0.3218  0.0073  0.4219
   79SLPC    HS 7241   6.006   4.281   6.893 -0.3427  1.3666  1.6517
   79SLPC   O21 7242   6.138   4.115   6.871 -0.0590  0.4418 -0.4536
   79SLPC   C21 7243   6.034   4.037   6.846 -0.8746 -0.3177  0.0981
   79SLPC   O22 7244   5.925   4.065   6.878 -0.2254 -0.7950 -0.5119
   79SLPC   C22 7245   6.075   3.906   6.777 -0.4303 -0.4214  0.6199
   79SLPC   H2R 7246   6.185   3.910   6.762 -0.5551 -0.4272 -0.3534
   79SLPC   H2S 7247   6.050   3.832   6.856 -0.9889  1.4325  2.2803
   79SLPC    C3 7248   6.202   4.364   6.889 -0.3991 -0.0424  0.3927
   79SLPC    HX 7249   6.307   4.357   6.925 -0.2851 -0.6077 -0.0255
   79SLPC    HY 7250   6.157   4.447   6.947 -1.5998 -2.6083  3.3992
   79SLPC   O31 7251   6.188   4.384   6.752 -0.3510  0.2993 -0.0393
   79SLPC   C31 7252   6.268   4.322   6.668 -0.2126 -0.5988 -0.1944
   79SLPC   O32 7253   6.353   4.238   6.698  0.1174 -0.4036 -0.3829
   79SLPC   C32 7254   6.221   4.355   6.531 -0.4136  0.2660  0.8168
   79SLPC   H2X 7255   6.244   4.463   6.523  1.0957 -0.0961 -0.4019
   79SLPC   H2Y 7256   6.114   4.327   6.514 -0.1948  0.8913 -2.2404
   79SLPC   C23 7257   5.999   3.874   6.646  0.0931 -0.3075 -0.6155
   79SLPC   H3R 7258   5.891   3.890   6.666 -0.1219 -1.1240 -1.0630
   79SLPC   H3S 7259   6.022   3.769   6.619 -0.9601 -0.3792 -1.2936
   79SLPC   C24 7260   6.036   3.964   6.537  0.1021  0.1154 -0.7282
   79SLPC   H4R 7261   6.145   3.950   6.519 -0.0235 -2.0012 -0.0295
   79SLPC   H4S 7262   6.021   4.071   6.564 -1.0167 -0.5758  1.7068
   79SLPC   C25 7263   5.961   3.945   6.403  0.0987 -0.4774 -0.3869
   79SLPC   H5R 7264   6.004   4.029   6.344 -1.3133 -0.1822 -1.0406
   79SLPC   H5S 7265   5.856   3.973   6.427  0.1971 -0.3141 -0.1428
   79SLPC   C26 7266   5.972   3.802   6.346 -0.3651  0.6488  0.1795
   79SLPC   H6R 7267   5.911   3.740   6.415 -2.1014  0.1644 -1.7068
   79SLPC   H6S 7268   6.079   3.772   6.337 -0.0501  1.2393  1.5659
   79SLPC   C27 7269   5.904   3.804   6.207  0.8335 -0.2686  0.1762
   79SLPC   H7R 7270   5.981   3.852   6.142  1.2901 -1.0084  0.1515
   79SLPC   H7S 7271   5.819   3.873   6.225  1.0350 -0.3866  1.7029
   79SLPC   C28 7272   5.865   3.664   6.158 -0.1611 -0.0527 -0.3437
   79SLPC   H8R 7273   5.804   3.625   6.242  1.3053  1.4141  1.4983
   79SLPC   H8S 7274   5.959   3.605   6.164  0.5161  0.9698 -0.6435
   79SLPC   C29 7275   5.801   3.650   6.030  1.0438 -0.2735  0.2446
   79SLPC   H9R 7276   5.692   3.665   6.024  1.0456 -0.7008 -1.1107
   79SLPC  C210 7277   5.851   3.654   5.906  0.0695 -0.0304 -0.0536
   79SLPC  H10R 7278   5.779   3.632   5.826 -0.4400  1.9967 -0.2252
   79SLPC  C211 7279   5.996   3.654   5.861 -0.1412 -0.5762  0.1847
   79SLPC  H11R 7280   6.021   3.762   5.874  0.5190 -0.9919  3.3835
   79SLPC  H11S 7281   6.008   3.630   5.754  0.6717 -0.7327  0.3044
   79SLPC  C212 7282   6.108   3.563   5.919 -0.1703 -0.6605 -0.4039
   79SLPC  H12R 7283   6.088   3.508   6.012  0.0799 -0.2592 -0.1042
   79SLPC  C213 7284   6.232   3.548   5.875 -0.0109 -0.0283 -0.5786
   79SLPC  H13R 7285   6.300   3.481   5.929 -3.2913 -1.5269  2.0352
   79SLPC  C214 7286   6.282   3.609   5.746 -0.6965  0.3154  0.3324
   79SLPC  H14R 7287   6.382   3.649   5.774 -0.0338 -1.6167  0.9172
   79SLPC  H14S 7288   6.220   3.691   5.703 -0.7897 -0.4355 -1.0429
   79SLPC  C215 7289   6.306   3.502   5.644  0.6963 -0.1479 -0.4034
   79SLPC  H15R 7290   6.211   3.473   5.593  0.0957  2.0265 -0.6002
   79SLPC  H15S 7291   6.328   3.406   5.696 -3.5719 -1.1479 -0.0816
   79SLPC  C216 7292   6.402   3.533   5.529 -0.1950 -0.5345 -0.3925
   79SLPC  H16R 7293   6.501   3.572   5.558  0.0740 -1.0986 -0.5431
   79SLPC  H16S 7294   6.360   3.609   5.459 -0.6701  0.7021  1.1677
   79SLPC  C217 7295   6.458   3.410   5.454  0.0479 -0.0922 -0.1407
   79SLPC  H17R 7296   6.373   3.354   5.410 -0.9580 -1.5900  3.3647
   79SLPC  H17S 7297   6.522   3.350   5.523 -1.2719 -0.4804  0.7871
   79SLPC  C218 7298   6.558   3.456   5.343  0.3118  0.8523 -0.9910
   79SLPC  H18R 7299   6.654   3.493   5.383  1.4595  1.0706 -3.6899
   79SLPC  H18S 7300   6.506   3.539   5.289  0.1508  0.6916 -1.0849
   79SLPC  H18T 7301   6.580   3.370   5.276  1.1860  2.2235 -2.5276
   79SLPC   C33 7302   6.303   4.288   6.417 -0.2755  0.1608 -0.0873
   79SLPC   H3X 7303   6.335   4.186   6.444  1.2604  1.3193  2.9202
   79SLPC   H3Y 7304   6.402   4.338   6.412 -0.5686  0.6721 -1.2614
   79SLPC   C34 7305   6.238   4.313   6.287  0.6601 -0.4767 -0.1907
   79SLPC   H4X 7306   6.223   4.421   6.266 -0.0617 -0.6211 -0.4743
   79SLPC   H4Y 7307   6.132   4.281   6.296 -0.2317  2.0153 -0.9330
   79SLPC   C35 7308   6.304   4.257   6.165  0.0105 -0.6255  0.0163
   79SLPC   H5X 7309   6.408   4.296   6.157 -0.1809 -0.0109  0.5731
   79SLPC   H5Y 7310   6.248   4.287   6.074 -0.9902 -1.2443  0.4054
   79SLPC   C36 7311   6.293   4.103   6.175 -0.3568  0.7381  0.4172
   79SLPC   H6X 7312   6.193   4.066   6.204 -0.7412  1.7117  0.3707
   79SLPC   H6Y 7313   6.359   4.062   6.255 -0.7844 -1.6154 -0.3814
   79SLPC   C37 7314   6.317   4.033   6.041 -0.5450  0.0856  0.3688
   79SLPC   H7X 7315   6.335   3.927   6.068  2.1471 -0.0456 -1.5722
   79SLPC   H7Y 7316   6.410   4.073   5.995 -0.4001 -0.1794  0.4255
   79SLPC   C38 7317   6.200   4.036   5.939  0.8481  0.1664  0.8341
   79SLPC   H8X 7318   6.160   4.139   5.928 -1.1787 -0.3480  2.6509
   79SLPC   H8Y 7319   6.114   3.977   5.977 -2.2704  0.2091 -4.9929
   79SLPC   C39 7320   6.237   3.958   5.807  0.9760 -0.5151 -0.5108
   79SLPC   H9X 7321   6.147   3.923   5.753  2.4431 -2.0264 -2.0953
   79SLPC   H9Y 7322   6.287   3.863   5.834  1.7820  0.5811  2.2875
   79SLPC  C310 7323   6.327   4.036   5.714 -0.6785  0.0510  0.1256
   79SLPC  H10X 7324   6.401   4.093   5.774 -1.2666 -0.4817  1.4166
   79SLPC  H10Y 7325   6.265   4.105   5.654  3.3084  2.1150 -1.9912
   79SLPC  C311 7326   6.384   3.943   5.615 -0.1142 -0.1396  0.3360
   79SLPC  H11X 7327   6.301   3.885   5.568 -1.7709  4.3127 -2.8351
   79SLPC  H11Y 7328   6.452   3.872   5.667  1.5128  1.1437  0.0514
   79SLPC  C312 7329   6.460   4.007   5.493  0.3425  0.5727 -0.3437
   79SLPC  H12X 7330   6.560   4.029   5.537 -0.7028 -0.3332  2.7289
   79SLPC  H12Y 7331   6.401   4.100   5.476 -1.3295 -0.1915  0.9999
   79SLPC  C313 7332   6.473   3.908   5.370 -0.2687 -0.0778  0.6474
   79SLPC  H13X 7333   6.369   3.879   5.342 -0.4563  2.2205 -1.3019
   79SLPC  H13Y 7334   6.521   3.817   5.410  0.4850 -0.3761 -0.8889
   79SLPC  C314 7335   6.555   3.973   5.263  0.2261 -0.2125 -0.3893
   79SLPC  H14X 7336   6.650   4.007   5.309 -1.1685  2.5938  0.5926
   79SLPC  H14Y 7337   6.500   4.063   5.230 -1.8959 -1.0590  0.6376
   79SLPC  C315 7338   6.580   3.871   5.155  0.1304  0.0794  0.1926
   79SLPC  H15X 7339   6.488   3.826   5.111  0.9662  0.1772 -1.7071
   79SLPC  H15Y 7340   6.638   3.791   5.206  2.0243  1.3646  0.1605
   79SLPC  C316 7341   6.669   3.935   5.046 -0.1466  0.6804  0.2886
   79SLPC  H16X 7342   6.620   4.024   5.001 -1.5010 -0.3445 -0.3580
   79SLPC  H16Y 7343   6.667   3.860   4.963  1.5613 -1.3633  1.9853
   79SLPC  C317 7344   6.806   3.978   5.086 -0.1052  0.1382 -0.2466
   79SLPC  H17X 7345   6.835   3.905   5.165 -0.1791  2.3016  1.8827
   79SLPC  H17Y 7346   6.802   4.079   5.131  2.4641 -0.8393  2.5395
   79SLPC  C318 7347   6.903   3.964   4.972  0.1575  0.7319  0.2974
   79SLPC  H18X 7348   6.917   3.859   4.936  0.3192  0.9004 -0.1410
   79SLPC  H18Y 7349   7.006   3.990   5.004 -0.1447  0.6004  1.4088
   79SLPC  H18Z 7350   6.856   4.034   4.900 -1.6080  1.9361  2.5075
   80SLPC     N 7351   2.216   6.369   7.523 -0.3058 -0.4474 -0.1623
   80SLPC   C13 7352   2.142   6.375   7.660 -0.7277  0.5260 -0.3056
   80SLPC  H13A 7353   2.151   6.281   7.713  0.7569 -0.0163 -1.4773
   80SLPC  H13B 7354   2.174   6.465   7.711  1.2814 -0.0020 -0.5578
   80SLPC  H13C 7355   2.038   6.394   7.636 -0.3854  0.6503 -1.7755
   80SLPC   C14 7356   2.357   6.341   7.548  0.2626  0.4323 -0.1407
   80SLPC  H14A 7357   2.367   6.253   7.610 -1.0412 -0.2298 -0.8391
   80SLPC  H14B 7358   2.401   6.331   7.450 -1.0453 -0.5812 -0.6583
   80SLPC  H14C 7359   2.412   6.419   7.598  0.2845 -0.3189  1.0699
   80SLPC   C15 7360   2.217   6.509   7.470  0.0222 -0.5983  0.3377
   80SLPC  H15A 7361   2.122   6.556   7.449  0.4319  0.4592  0.8157
   80SLPC  H15B 7362   2.263   6.581   7.535 -2.9866  1.4079  0.4471
   80SLPC  H15C 7363   2.270   6.499   7.376  2.2097  0.7803  1.3386
   80SLPC   C12 7364   2.153   6.279   7.423  0.1150  0.2677 -0.1777
   80SLPC  H12A 7365   2.058   6.319   7.391 -1.1226 -1.6403  0.8899
   80SLPC  H12B 7366   2.131   6.188   7.475 -2.2868  0.6976 -0.3595
   80SLPC   C11 7367   2.230   6.241   7.290 -0.1490 -0.8994  0.4632
   80SLPC  H11A 7368   2.265   6.333   7.239 -3.4358  0.0886 -0.2719
   80SLPC  H11B 7369   2.153   6.193   7.226  1.1584 -1.2681 -0.8943
   80SLPC     P 7370   2.476   6.149   7.262 -0.4421 -0.5608 -0.0815
   80SLPC   O13 7371   2.564   6.255   7.319  0.1957  0.1692  0.2776
   80SLPC   O14 7372   2.531   6.013   7.256  0.5150 -0.1047  0.6222
   80SLPC   O12 7373   2.333   6.150   7.314 -0.2494 -0.5051  0.7770
   80SLPC   O11 7374   2.456   6.200   7.113 -0.1166  0.7752  0.7654
   80SLPC    C1 7375   2.362   6.118   7.038  0.2504 -0.2392 -0.1166
   80SLPC    HA 7376   2.348   6.017   7.082 -1.3319 -0.1252 -0.2956
   80SLPC    HB 7377   2.260   6.163   7.036  0.2767 -0.1891 -0.6432
   80SLPC    C2 7378   2.417   6.099   6.889  0.2375  0.2081 -0.4077
   80SLPC    HS 7379   2.518   6.057   6.910  0.0385  0.4744  1.2093
   80SLPC   O21 7380   2.424   6.224   6.825  0.3656 -0.8016 -0.1192
   80SLPC   C21 7381   2.529   6.252   6.754  0.2171 -0.0225  0.0133
   80SLPC   O22 7382   2.625   6.181   6.744 -0.3236  0.0946  0.4626
   80SLPC   C22 7383   2.517   6.394   6.703 -0.3282  0.6704 -0.9409
   80SLPC   H2R 7384   2.410   6.422   6.705 -1.0136 -1.2765  4.2928
   80SLPC   H2S 7385   2.572   6.464   6.770  1.7836  0.4167 -2.2944
   80SLPC    C3 7386   2.334   5.993   6.813  0.1622 -0.5412  0.6000
   80SLPC    HX 7387   2.238   6.044   6.787  1.7349  1.6195 -1.4232
   80SLPC    HY 7388   2.324   5.902   6.874  1.3985 -1.6077 -0.7277
   80SLPC   O31 7389   2.398   5.976   6.681 -0.4304  0.3179  0.4073
   80SLPC   C31 7390   2.488   5.881   6.673  0.9476 -0.5464 -0.3903
   80SLPC   O32 7391   2.502   5.787   6.751  0.3031 -0.4013  0.3448
   80SLPC   C32 7392   2.585   5.918   6.566 -0.3831  0.9299  0.1553
   80SLPC   H2X 7393   2.633   5.821   6.540  2.0621  1.0309  3.4927
   80SLPC   H2Y 7394   2.657   5.990   6.611 -1.8642  1.3891  1.9126
   80SLPC   C23 7395   2.590   6.394   6.572  0.3895 -0.2229 -0.2975
   80SLPC   H3R 7396   2.557   6.305   6.513  2.7109 -0.1157 -1.8898
   80SLPC   H3S 7397   2.699   6.387   6.591  0.0803 -1.5351  1.2335
   80SLPC   C24 7398   2.539   6.515   6.505 -0.1927 -0.3363  0.1306
   80SLPC   H4R 7399   2.561   6.607   6.563  1.1825 -1.7009  1.8832
   80SLPC   H4S 7400   2.428   6.515   6.499 -0.2793  1.0986  1.1845
   80SLPC   C25 7401   2.590   6.525   6.365 -0.0720  0.2840 -0.3388
   80SLPC   H5R 7402   2.566   6.433   6.308 -0.1661  0.5207 -0.6802
   80SLPC   H5S 7403   2.700   6.537   6.372 -0.2805  1.9516  0.6014
   80SLPC   C26 7404   2.532   6.650   6.289  0.1310  0.4595 -0.3067
   80SLPC   H6R 7405   2.442   6.690   6.342  0.5170 -0.4019  1.0639
   80SLPC   H6S 7406   2.501   6.603   6.194  0.0341 -0.5077  0.1882
   80SLPC   C27 7407   2.637   6.747   6.256 -0.2183 -0.3860  0.4218
   80SLPC   H7R 7408   2.722   6.706   6.198 -1.8639  1.2063 -3.4750
   80SLPC   H7S 7409   2.676   6.790   6.350  2.4015 -2.0418  0.2151
   80SLPC   C28 7410   2.574   6.862   6.163 -0.3427  0.0875 -0.1692
   80SLPC   H8R 7411   2.658   6.933   6.150  0.2273 -0.2502  1.3883
   80SLPC   H8S 7412   2.501   6.920   6.224 -1.2144 -0.1700 -0.9528
   80SLPC   C29 7413   2.514   6.814   6.033 -0.6327  0.2178 -0.1914
   80SLPC   H9R 7414   2.413   6.773   6.049  1.3512 -4.0166  3.3220
   80SLPC  C210 7415   2.573   6.801   5.911  0.3561  0.7065 -0.0929
   80SLPC  H10R 7416   2.517   6.754   5.828  1.0228 -0.1081 -0.0916
   80SLPC  C211 7417   2.712   6.841   5.868  0.4929 -0.5945  0.0345
   80SLPC  H11R 7418   2.743   6.782   5.779 -0.0211  0.3089 -0.7670
   80SLPC  H11S 7419   2.783   6.823   5.952  0.5613 -1.6619 -0.2340
   80SLPC  C212 7420   2.722   6.982   5.832  0.0865 -0.1487 -0.3440
   80SLPC  H12R 7421   2.646   7.050   5.873 -0.6332 -0.4626 -1.1073
   80SLPC  C213 7422   2.797   7.031   5.730  0.6203  0.2735  1.1017
   80SLPC  H13R 7423   2.784   7.138   5.710 -0.4436 -0.2343 -1.3509
   80SLPC  C214 7424   2.884   6.954   5.638  0.5746  0.5415  0.5084
   80SLPC  H14R 7425   2.925   6.863   5.687 -0.9762  0.0830  1.0340
   80SLPC  H14S 7426   2.964   7.024   5.606 -0.5817  1.2806 -0.9158
   80SLPC  C215 7427   2.810   6.915   5.508  0.4066 -0.0927  0.3850
   80SLPC  H15R 7428   2.776   7.007   5.457  0.3913 -0.5351 -0.4140
   80SLPC  H15S 7429   2.713   6.868   5.535  0.4820 -0.1517  0.5559
   80SLPC  C216 7430   2.889   6.838   5.406  0.6426 -0.2742  0.4954
   80SLPC  H16R 7431   2.920   6.738   5.443  0.2877 -1.5161 -2.3291
   80SLPC  H16S 7432   2.978   6.898   5.381 -1.4395  2.4342 -0.8914
   80SLPC  C217 7433   2.806   6.833   5.275  0.1465 -0.2587  0.1666
   80SLPC  H17R 7434   2.762   6.934   5.257 -3.3196 -0.8337  3.8012
   80SLPC  H17S 7435   2.711   6.775   5.274  0.2275 -0.5298 -3.4287
   80SLPC  C218 7436   2.894   6.791   5.153  0.6427 -0.2877 -0.1460
   80SLPC  H18R 7437   2.990   6.846   5.149 -0.5198  1.9331  0.6817
   80SLPC  H18S 7438   2.848   6.823   5.057  0.7438  1.6867  0.4338
   80SLPC  H18T 7439   2.909   6.681   5.149 -2.7047 -0.8531 -0.1145
   80SLPC   C33 7440   2.521   5.974   6.438 -0.0430 -0.3865  0.3120
   80SLPC   H3X 7441   2.524   6.083   6.463 -0.1753 -0.5094  0.8708
   80SLPC   H3Y 7442   2.416   5.941   6.426  0.0705 -0.7856  0.4090
   80SLPC   C34 7443   2.604   5.931   6.308 -0.4015  0.6582 -0.4639
   80SLPC   H4X 7444   2.581   5.824   6.287 -1.3231  0.7593 -0.0094
   80SLPC   H4Y 7445   2.715   5.940   6.316 -0.4152  1.6146 -1.1741
   80SLPC   C35 7446   2.569   5.999   6.176  0.4861  0.8041 -1.1942
   80SLPC   H5X 7447   2.579   6.107   6.201 -0.8259  1.1808 -2.2012
   80SLPC   H5Y 7448   2.465   5.969   6.152  0.2601 -0.8781  1.4476
   80SLPC   C36 7449   2.651   5.958   6.059  0.0169  0.2588 -0.6833
   80SLPC   H6X 7450   2.626   5.850   6.047  0.6995  0.3119 -3.2891
   80SLPC   H6Y 7451   2.759   5.959   6.088 -0.4324  0.5091  1.1010
   80SLPC   C37 7452   2.631   6.037   5.930 -0.5882 -0.8238  0.1812
   80SLPC   H7X 7453   2.699   6.006   5.847  1.1177  1.5302  0.5879
   80SLPC   H7Y 7454   2.648   6.146   5.944  0.7945 -0.8683 -0.9217
   80SLPC   C38 7455   2.488   6.029   5.861 -0.4073 -0.1774 -0.4105
   80SLPC   H8X 7456   2.443   6.131   5.862 -0.2769 -0.1218  0.1822
   80SLPC   H8Y 7457   2.419   5.967   5.921  0.1003 -0.0851  0.2733
   80SLPC   C39 7458   2.500   5.986   5.716  0.6559 -0.1076  0.1228
   80SLPC   H9X 7459   2.560   5.893   5.709 -0.9662 -1.1199 -0.9373
   80SLPC   H9Y 7460   2.567   6.061   5.667  1.5484 -0.5579  0.6191
   80SLPC  C310 7461   2.365   5.982   5.653 -0.4340  0.3204 -0.2550
   80SLPC  H10X 7462   2.306   6.072   5.680  1.7090  1.4756  0.8156
   80SLPC  H10Y 7463   2.314   5.886   5.676  0.1725 -0.3105 -1.4295
   80SLPC  C311 7464   2.376   5.981   5.501  0.1391 -0.0649 -0.3767
   80SLPC  H11X 7465   2.294   5.922   5.455 -2.3105  1.8584  1.3166
   80SLPC  H11Y 7466   2.471   5.927   5.479  0.8450  0.5663  1.0135
   80SLPC  C312 7467   2.392   6.118   5.429  0.5042 -0.5941  0.1898
   80SLPC  H12X 7468   2.467   6.182   5.481 -0.1024  0.1650  0.1436
   80SLPC  H12Y 7469   2.298   6.176   5.435  0.1117 -1.1647 -0.3295
   80SLPC  C313 7470   2.444   6.112   5.288 -0.0104  0.2682  1.1156
   80SLPC  H13X 7471   2.543   6.063   5.282 -0.8103 -1.3142  0.2007
   80SLPC  H13Y 7472   2.444   6.214   5.245 -1.2677  0.0411  0.5404
   80SLPC  C314 7473   2.354   6.028   5.197 -0.3507 -0.5113 -0.0066
   80SLPC  H14X 7474   2.274   6.089   5.150 -0.8407  0.2175  1.7004
   80SLPC  H14Y 7475   2.293   5.951   5.249 -0.8680  0.5438  0.9883
   80SLPC  C315 7476   2.437   5.953   5.088  0.3386  0.4651  0.1781
   80SLPC  H15X 7477   2.372   5.876   5.041  0.9697  0.7366 -1.1887
   80SLPC  H15Y 7478   2.521   5.898   5.135 -1.8136 -2.2780  1.0780
   80SLPC  C316 7479   2.483   6.044   4.976 -0.0929 -0.1224  0.3164
   80SLPC  H16X 7480   2.551   6.121   5.020  0.1777 -0.8879  1.2749
   80SLPC  H16Y 7481   2.399   6.087   4.917 -0.9622 -0.7954  1.0387
   80SLPC  C317 7482   2.569   5.983   4.868  0.5348  0.0267 -0.5649
   80SLPC  H17X 7483   2.508   5.897   4.832 -2.0197  1.4992 -0.0134
   80SLPC  H17Y 7484   2.660   5.932   4.904  0.5693  0.1371 -0.4952
   80SLPC  C318 7485   2.609   6.084   4.761 -0.2076  0.1315 -0.6576
   80SLPC  H18X 7486   2.652   6.031   4.674  0.8480  0.9660 -0.6604
   80SLPC  H18Y 7487   2.684   6.150   4.808 -1.0400  0.4496  0.2690
   80SLPC  H18Z 7488   2.520   6.138   4.721 -0.7111  0.0668  0.3317
   81SLPC     N 7489   3.356   4.343   2.957  0.1288 -0.4492 -0.0922
   81SLPC   C13 7490   3.285   4.228   3.013  0.3659 -0.4294 -0.0794
   81SLPC  H13A 7491   3.304   4.217   3.119 -0.9720 -2.2954  0.0243
   81SLPC  H13B 7492   3.178   4.237   3.000  0.0969 -1.3652  1.1994
   81SLPC  H13C 7493   3.325   4.136   2.972  0.4299 -0.3363 -0.2251
   81SLPC   C14 7494   3.316   4.360   2.814 -0.2259 -0.1751 -0.4197
   81SLPC  H14A 7495   3.315   4.272   2.752  0.5688 -0.4200 -0.0996
   81SLPC  H14B 7496   3.211   4.384   2.817  0.0946  1.2992  0.4860
   81SLPC  H14C 7497   3.360   4.439   2.754 -3.8463  1.9070 -0.6166
   81SLPC   C15 7498   3.507   4.330   2.968  0.4414 -0.4025  0.3925
   81SLPC  H15A 7499   3.562   4.381   2.891 -1.1310  1.4952  0.4465
   81SLPC  H15B 7500   3.546   4.368   3.061  2.3147 -0.5324 -0.2862
   81SLPC  H15C 7501   3.536   4.226   2.964  1.4132 -0.1058 -0.8574
   81SLPC   C12 7502   3.317   4.470   3.044  0.4218  0.1604 -0.3038
   81SLPC  H12A 7503   3.384   4.549   3.014 -0.5295  0.4506 -1.7366
   81SLPC  H12B 7504   3.333   4.456   3.150  2.2146  0.7352 -0.4560
   81SLPC   C11 7505   3.175   4.520   3.024  0.2901  0.0524  0.6251
   81SLPC  H11A 7506   3.160   4.593   3.107  1.2268  0.6075  0.3225
   81SLPC  H11B 7507   3.106   4.433   3.028  1.6687 -1.1190 -0.2669
   81SLPC     P 7508   3.194   4.732   2.872  0.2870 -0.0800 -0.4354
   81SLPC   O13 7509   3.335   4.745   2.910 -0.6265  0.4701  0.4853
   81SLPC   O14 7510   3.147   4.783   2.740 -0.1683  0.3970 -0.3761
   81SLPC   O12 7511   3.165   4.584   2.891  0.3786  0.3670 -0.0002
   81SLPC   O11 7512   3.119   4.799   2.988 -0.4944  0.6252 -0.2746
   81SLPC    C1 7513   2.986   4.779   3.026 -0.5696  0.0167  0.0354
   81SLPC    HA 7514   2.925   4.810   2.938  2.3555  0.0648 -2.1525
   81SLPC    HB 7515   2.973   4.670   3.041  1.7538 -0.0664  2.1977
   81SLPC    C2 7516   2.942   4.846   3.160  0.1195  0.1270  0.0796
   81SLPC    HS 7517   2.834   4.832   3.178 -0.0688 -0.0134 -1.0771
   81SLPC   O21 7518   2.972   4.985   3.173  0.0289  0.2681 -0.3210
   81SLPC   C21 7519   2.887   5.071   3.115 -0.2914  0.2996  0.8172
   81SLPC   O22 7520   2.778   5.050   3.066 -0.4283  0.4640 -0.6276
   81SLPC   C22 7521   2.969   5.194   3.086  0.1426 -0.1535 -0.4859
   81SLPC   H2R 7522   3.071   5.191   3.130  0.6767 -1.2595 -1.7413
   81SLPC   H2S 7523   2.976   5.194   2.975  2.8256  0.1566 -0.3949
   81SLPC    C3 7524   3.015   4.787   3.286  0.5690 -0.0399 -0.5901
   81SLPC    HX 7525   3.122   4.816   3.282  0.4480  0.6473  0.7244
   81SLPC    HY 7526   3.017   4.676   3.280  3.6197 -0.2102  1.2813
   81SLPC   O31 7527   2.938   4.823   3.403  0.3632  0.3707 -0.6645
   81SLPC   C31 7528   3.014   4.834   3.518  0.3449 -0.3532 -0.1964
   81SLPC   O32 7529   3.134   4.823   3.519 -0.3989 -0.0902 -0.3119
   81SLPC   C32 7530   2.930   4.873   3.638  0.6600 -0.0483 -0.4396
   81SLPC   H2X 7531   2.825   4.841   3.625 -0.0221  1.7485  0.4210
   81SLPC   H2Y 7532   2.947   4.981   3.656  2.5324 -0.4103  0.1898
   81SLPC   C23 7533   2.907   5.324   3.139  0.4306 -0.2828 -0.2248
   81SLPC   H3R 7534   2.799   5.317   3.115  0.1516 -1.1158  1.1695
   81SLPC   H3S 7535   2.952   5.416   3.096  1.6884 -1.1582 -0.8481
   81SLPC   C24 7536   2.922   5.343   3.293  0.2869 -0.1699 -0.3216
   81SLPC   H4R 7537   2.869   5.438   3.315 -0.5183 -0.5657 -0.5194
   81SLPC   H4S 7538   3.030   5.345   3.317  0.5288  0.8151 -1.4433
   81SLPC   C25 7539   2.868   5.229   3.381 -0.3710  0.0182 -0.5475
   81SLPC   H5R 7540   2.931   5.138   3.393 -1.4822 -1.0913 -2.6283
   81SLPC   H5S 7541   2.771   5.190   3.342 -0.5040 -2.5547  2.0102
   81SLPC   C26 7542   2.847   5.268   3.533  0.2535 -0.4338  0.3933
   81SLPC   H6R 7543   2.780   5.190   3.577  0.3722 -0.6928  0.1210
   81SLPC   H6S 7544   2.794   5.365   3.525  1.8351  0.4260  0.0199
   81SLPC   C27 7545   2.974   5.281   3.617 -0.1067 -0.1584 -0.0964
   81SLPC   H7R 7546   3.048   5.353   3.577 -0.2275 -0.4125 -0.7823
   81SLPC   H7S 7547   3.027   5.184   3.617  1.8771  0.8609  1.0658
   81SLPC   C28 7548   2.944   5.316   3.765 -0.5447  0.8597  0.0332
   81SLPC   H8R 7549   2.859   5.255   3.802 -0.2411  0.7180  0.5176
   81SLPC   H8S 7550   2.907   5.420   3.767 -0.6630  0.8144  1.9678
   81SLPC   C29 7551   3.052   5.297   3.865 -0.9683  1.0462 -0.4967
   81SLPC   H9R 7552   3.155   5.311   3.829 -0.1336  1.7010  1.9921
   81SLPC  C210 7553   3.044   5.287   3.999  0.0628 -0.2491 -0.5457
   81SLPC  H10R 7554   3.142   5.285   4.050  0.6095  1.3307 -1.4530
   81SLPC  C211 7555   2.922   5.288   4.088  0.0160  0.1812  0.9274
   81SLPC  H11R 7556   2.849   5.360   4.044  1.1514  1.2305  0.7326
   81SLPC  H11S 7557   2.944   5.320   4.192 -0.3794  2.3138  0.3989
   81SLPC  C212 7558   2.850   5.153   4.083  0.1219 -0.2411 -0.7703
   81SLPC  H12R 7559   2.773   5.139   4.006 -2.1212  0.7354  1.1498
   81SLPC  C213 7560   2.879   5.047   4.162 -0.6639 -0.7450 -0.1829
   81SLPC  H13R 7561   2.825   4.953   4.144 -1.6991  0.1250 -1.7948
   81SLPC  C214 7562   2.971   5.035   4.285 -0.0839 -0.3934  0.0843
   81SLPC  H14R 7563   3.022   5.132   4.297  0.9990 -0.8744 -0.4960
   81SLPC  H14S 7564   3.061   4.974   4.263 -0.5108 -0.7346 -0.7881
   81SLPC  C215 7565   2.889   4.996   4.414  0.0990 -0.4845  0.0711
   81SLPC  H15R 7566   2.798   5.060   4.420 -0.5145 -1.2667 -0.5644
   81SLPC  H15S 7567   2.950   5.020   4.503 -0.9851  0.4248  0.5980
   81SLPC  C216 7568   2.866   4.844   4.422  0.5273 -0.3266 -0.2389
   81SLPC  H16R 7569   2.965   4.793   4.429  0.2722 -0.9298 -0.8564
   81SLPC  H16S 7570   2.821   4.814   4.324  1.0966 -0.0534 -0.5890
   81SLPC  C217 7571   2.775   4.798   4.531 -0.0401  0.1515  0.1721
   81SLPC  H17R 7572   2.763   4.689   4.510  2.9950 -0.5674  1.6769
   81SLPC  H17S 7573   2.675   4.847   4.531 -0.5797 -0.8491 -1.6475
   81SLPC  C218 7574   2.837   4.807   4.666  0.3269  0.6784 -0.9410
   81SLPC  H18R 7575   2.847   4.911   4.705 -2.0296  0.4037  0.5526
   81SLPC  H18S 7576   2.937   4.758   4.668 -0.9456 -2.1257  1.6649
   81SLPC  H18T 7577   2.784   4.759   4.750  0.0128  3.6583  0.7115
   81SLPC   C33 7578   2.967   4.787   3.769  0.1765  0.2075 -0.2012
   81SLPC   H3X 7579   2.986   4.678   3.761 -1.2944 -0.3279  2.5054
   81SLPC   H3Y 7580   2.877   4.798   3.833 -0.6469  1.5980 -1.5037
   81SLPC   C34 7581   3.067   4.863   3.850 -0.0078 -0.0239  0.3610
   81SLPC   H4X 7582   3.054   4.973   3.860  2.1524  0.3321 -0.1467
   81SLPC   H4Y 7583   3.160   4.855   3.790  0.0448 -2.8202  0.6807
   81SLPC   C35 7584   3.067   4.811   3.994 -0.9659  0.3855 -0.0965
   81SLPC   H5X 7585   2.974   4.823   4.053 -0.2953 -2.5686  1.7568
   81SLPC   H5Y 7586   3.147   4.869   4.045 -0.7032  0.9557 -1.1310
   81SLPC   C36 7587   3.108   4.665   4.005 -0.3314  0.3459 -0.0967
   81SLPC   H6X 7588   3.208   4.646   3.960  0.2470  0.5742  1.0388
   81SLPC   H6Y 7589   3.044   4.593   3.950 -0.0300 -0.1176  0.1506
   81SLPC   C37 7590   3.111   4.623   4.160 -0.6339  0.1959  0.6102
   81SLPC   H7X 7591   3.014   4.660   4.198  0.0343  1.0042  1.5972
   81SLPC   H7Y 7592   3.194   4.653   4.228  0.3562  0.0891 -0.5166
   81SLPC   C38 7593   3.101   4.469   4.167  0.2405  0.3279  0.3331
   81SLPC   H8X 7594   3.179   4.417   4.108  1.2447  0.1133  1.8050
   81SLPC   H8Y 7595   3.012   4.434   4.110  1.7195 -1.0465 -1.2518
   81SLPC   C39 7596   3.095   4.406   4.311  0.4565 -0.3110  0.1284
   81SLPC   H9X 7597   2.996   4.412   4.360  0.1034 -1.7379 -0.3625
   81SLPC   H9Y 7598   3.171   4.464   4.367 -0.3360  2.6350 -1.6529
   81SLPC  C310 7599   3.130   4.259   4.309 -0.1702  0.3316  0.0455
   81SLPC  H10X 7600   3.233   4.249   4.267  0.6370  0.5403  1.8764
   81SLPC  H10Y 7601   3.055   4.207   4.246 -1.1323  0.4259  1.0881
   81SLPC  C311 7602   3.124   4.186   4.446  0.2047 -0.3281  0.0304
   81SLPC  H11X 7603   3.018   4.191   4.478  0.2577 -1.7854  0.5250
   81SLPC  H11Y 7604   3.175   4.252   4.520  2.6765 -2.1670  0.1188
   81SLPC  C312 7605   3.168   4.044   4.472  0.0622  0.2590 -0.7806
   81SLPC  H12X 7606   3.271   4.047   4.513  0.0494  0.7105 -0.7838
   81SLPC  H12Y 7607   3.163   3.997   4.371 -1.4059  4.0066 -2.6379
   81SLPC  C313 7608   3.061   3.969   4.565 -0.7063 -0.1929  0.7008
   81SLPC  H13X 7609   3.074   3.860   4.549 -2.3198 -0.0952 -1.7324
   81SLPC  H13Y 7610   2.957   3.997   4.537 -0.4716  0.7625  0.7397
   81SLPC  C314 7611   3.072   4.009   4.716 -0.5289 -0.4849  0.2828
   81SLPC  H14X 7612   3.038   4.114   4.719 -0.4726 -0.4768  0.6498
   81SLPC  H14Y 7613   3.178   4.026   4.744 -0.1112  0.4132 -1.6936
   81SLPC  C315 7614   2.998   3.926   4.814 -0.4858  0.8295 -0.0717
   81SLPC  H15X 7615   2.994   3.974   4.914  0.7778  0.1745  0.3131
   81SLPC  H15Y 7616   3.066   3.841   4.835  0.1487  1.2072 -0.5718
   81SLPC  C316 7617   2.863   3.871   4.769 -0.4723 -0.0261  0.9154
   81SLPC  H16X 7618   2.882   3.794   4.691  1.6257  0.3128  1.0239
   81SLPC  H16Y 7619   2.794   3.951   4.735 -0.0317  0.5793  1.3998
   81SLPC  C317 7620   2.787   3.786   4.874  0.0561 -0.4162  0.2148
   81SLPC  H17X 7621   2.836   3.689   4.900  1.1254  0.2747  0.8676
   81SLPC  H17Y 7622   2.690   3.766   4.825 -0.6800  0.3098  1.3327
   81SLPC  C318 7623   2.750   3.865   5.006 -0.5853 -0.1264 -0.3829
   81SLPC  H18X 7624   2.839   3.903   5.060  0.0409 -2.1223  0.0940
   81SLPC  H18Y 7625   2.692   3.799   5.074  0.5807  0.5411  1.3148
   81SLPC  H18Z 7626   2.693   3.956   4.980  0.2231  0.8940  1.2913
   82SLPC     N 7627   0.447   3.480   2.556 -0.0876 -0.6753  0.0082
   82SLPC   C13 7628   0.570   3.518   2.474  0.2539  0.2958  0.1575
   82SLPC  H13A 7629   0.546   3.613   2.428  0.9396  0.8023  0.8017
   82SLPC  H13B 7630   0.649   3.545   2.544  0.4777  1.1896 -0.4167
   82SLPC  H13C 7631   0.609   3.439   2.412 -1.1588  1.4073 -2.3082
   82SLPC   C14 7632   0.484   3.352   2.625  0.4279 -0.8176  0.0450
   82SLPC  H14A 7633   0.517   3.267   2.567  2.1064  1.0539 -1.9122
   82SLPC  H14B 7634   0.572   3.366   2.687  0.4937  1.2508 -0.4649
   82SLPC  H14C 7635   0.398   3.336   2.689  1.5965 -0.9134  1.6526
   82SLPC   C15 7636   0.331   3.453   2.470  0.0229 -0.4299  1.1781
   82SLPC  H15A 7637   0.350   3.365   2.410 -2.7784 -0.8920  0.8305
   82SLPC  H15B 7638   0.239   3.439   2.526  0.6462 -0.0366  2.3340
   82SLPC  H15C 7639   0.320   3.534   2.400 -0.3827  0.5215  2.3179
   82SLPC   C12 7640   0.437   3.587   2.659  1.3041  0.3700 -0.2808
   82SLPC  H12A 7641   0.407   3.678   2.609  1.6093  0.2777 -0.6362
   82SLPC  H12B 7642   0.533   3.607   2.703  1.4085  0.6618 -0.6392
   82SLPC   C11 7643   0.327   3.570   2.772 -0.4372  0.2385  0.3136
   82SLPC  H11A 7644   0.229   3.597   2.729 -0.7941 -0.3718  0.7361
   82SLPC  H11B 7645   0.372   3.651   2.835  1.6831  0.8544 -1.8179
   82SLPC     P 7646   0.190   3.431   2.938 -0.2661 -0.1951 -0.1169
   82SLPC   O13 7647   0.066   3.428   2.849  0.0450 -0.4903 -0.2818
   82SLPC   O14 7648   0.218   3.320   3.037 -0.2172  0.0760  0.9252
   82SLPC   O12 7649   0.309   3.443   2.838  0.0958  0.1082  0.1525
   82SLPC   O11 7650   0.175   3.572   3.015  0.0571  0.5461 -0.3737
   82SLPC    C1 7651   0.243   3.612   3.134 -1.3139  0.6844 -0.0020
   82SLPC    HA 7652   0.334   3.550   3.142 -0.1137  2.1266 -1.6196
   82SLPC    HB 7653   0.272   3.719   3.127 -1.5019  0.6952 -0.6938
   82SLPC    C2 7654   0.163   3.573   3.251  0.4850 -0.6138  0.2501
   82SLPC    HS 7655   0.138   3.465   3.239  1.3941 -0.9544  1.1926
   82SLPC   O21 7656   0.048   3.663   3.270  0.0443  0.6565  0.7472
   82SLPC   C21 7657  -0.061   3.604   3.315  0.3502 -0.2504  0.0905
   82SLPC   O22 7658  -0.069   3.487   3.343  0.6856 -0.3541  0.4305
   82SLPC   C22 7659  -0.175   3.711   3.342  0.4007  0.3253  0.2079
   82SLPC   H2R 7660  -0.119   3.807   3.341  2.1480 -0.6378  0.8582
   82SLPC   H2S 7661  -0.249   3.713   3.259 -0.1674  0.1309  0.7066
   82SLPC    C3 7662   0.248   3.567   3.378  0.4300 -0.4927 -0.1247
   82SLPC    HX 7663   0.263   3.677   3.392  0.8370 -0.4824 -0.6203
   82SLPC    HY 7664   0.348   3.520   3.362 -0.4822 -2.1196 -1.2821
   82SLPC   O31 7665   0.177   3.519   3.488 -0.2963  0.0281  0.1455
   82SLPC   C31 7666   0.179   3.388   3.514  0.3560 -0.8576 -0.0615
   82SLPC   O32 7667   0.254   3.306   3.467 -0.3210 -0.6649  0.2334
   82SLPC   C32 7668   0.067   3.355   3.602  0.0803 -0.3151  0.6519
   82SLPC   H2X 7669   0.052   3.245   3.602  0.2106 -0.3334  0.4423
   82SLPC   H2Y 7670  -0.024   3.408   3.566  0.4551 -0.6212 -0.8190
   82SLPC   C23 7671  -0.247   3.694   3.479  0.1800 -0.0024  0.1631
   82SLPC   H3R 7672  -0.280   3.588   3.489 -2.1995  0.7919  1.5079
   82SLPC   H3S 7673  -0.335   3.762   3.481 -0.1329 -0.3705 -0.5574
   82SLPC   C24 7674  -0.160   3.709   3.604  0.4644  0.0131  1.0150
   82SLPC   H4R 7675  -0.107   3.806   3.605 -1.4809  1.1563 -0.3740
   82SLPC   H4S 7676  -0.084   3.629   3.592  0.0228 -0.2075 -0.4967
   82SLPC   C25 7677  -0.238   3.708   3.734 -0.2488 -0.5103 -0.0520
   82SLPC   H5R 7678  -0.309   3.622   3.733 -0.0160 -0.7126  0.4522
   82SLPC   H5S 7679  -0.294   3.804   3.728 -2.2709 -1.6387 -0.4302
   82SLPC   C26 7680  -0.155   3.702   3.858 -0.1151  0.0704  0.1658
   82SLPC   H6R 7681  -0.088   3.790   3.849 -1.8886  1.5286  0.7504
   82SLPC   H6S 7682  -0.093   3.613   3.881  0.1683  0.2819  0.2197
   82SLPC   C27 7683  -0.251   3.710   3.977 -0.9955  0.7015 -0.0656
   82SLPC   H7R 7684  -0.339   3.643   3.967 -0.0030 -0.9159  1.3766
   82SLPC   H7S 7685  -0.292   3.813   3.984 -2.2446  0.4754 -2.7157
   82SLPC   C28 7686  -0.191   3.670   4.113  0.0176  0.3656 -0.7236
   82SLPC   H8R 7687  -0.167   3.561   4.115 -0.7468  0.0553  4.1376
   82SLPC   H8S 7688  -0.279   3.684   4.179  0.8239  1.2880  0.1859
   82SLPC   C29 7689  -0.071   3.752   4.147 -0.1815  0.3985  0.5114
   82SLPC   H9R 7690   0.014   3.735   4.079  0.5118  0.8175  1.2521
   82SLPC  C210 7691  -0.063   3.846   4.243 -0.1492  0.2988 -0.6082
   82SLPC  H10R 7692   0.036   3.890   4.259 -0.3444  0.2033  1.1244
   82SLPC  C211 7693  -0.161   3.870   4.355 -0.0006  0.2507  0.0771
   82SLPC  H11R 7694  -0.264   3.838   4.329  0.9191 -0.2116 -3.6910
   82SLPC  H11S 7695  -0.176   3.977   4.382  0.7273 -0.0541  1.7511
   82SLPC  C212 7696  -0.122   3.783   4.476  0.1988  0.1630  0.6315
   82SLPC  H12R 7697  -0.079   3.685   4.453 -0.2234  0.1943 -0.3651
   82SLPC  C213 7698  -0.156   3.801   4.611  0.1624  0.1639  0.1010
   82SLPC  H13R 7699  -0.127   3.722   4.682 -0.0581  1.3371  1.5263
   82SLPC  C214 7700  -0.231   3.917   4.672  0.0422  0.2179 -0.5408
   82SLPC  H14R 7701  -0.215   4.001   4.601  0.0342  0.1149 -0.6633
   82SLPC  H14S 7702  -0.197   3.959   4.770  0.2789  1.3006 -1.0643
   82SLPC  C215 7703  -0.387   3.897   4.660  0.2910 -0.4121 -0.3022
   82SLPC  H15R 7704  -0.410   3.792   4.690  0.7305 -0.9522 -1.7646
   82SLPC  H15S 7705  -0.408   3.906   4.552 -0.6278 -1.9506 -0.2807
   82SLPC  C216 7706  -0.473   4.004   4.725 -0.1466  0.3287 -0.0654
   82SLPC  H16R 7707  -0.485   3.984   4.834  2.5536 -0.0821  0.2255
   82SLPC  H16S 7708  -0.578   3.993   4.693  0.0680  1.2632 -1.1532
   82SLPC  C217 7709  -0.437   4.157   4.706  0.9002  0.2420  0.2023
   82SLPC  H17R 7710  -0.434   4.187   4.599 -1.7889  0.8205  0.2385
   82SLPC  H17S 7711  -0.335   4.159   4.751  0.9561  2.9953  0.1539
   82SLPC  C218 7712  -0.532   4.260   4.780 -0.5452  0.2513 -0.3222
   82SLPC  H18R 7713  -0.471   4.350   4.800 -0.7105  0.4743 -0.7859
   82SLPC  H18S 7714  -0.570   4.216   4.874  1.0107 -0.9271 -0.1995
   82SLPC  H18T 7715  -0.624   4.282   4.721 -0.8516  2.6895  0.9457
   82SLPC   C33 7716   0.104   3.397   3.745 -0.0227  0.3711 -0.0365
   82SLPC   H3X 7717   0.086   3.506   3.754 -0.1135  0.2445  1.6268
   82SLPC   H3Y 7718   0.208   3.371   3.775 -0.4621 -3.0614 -1.0902
   82SLPC   C34 7719   0.007   3.343   3.846  0.2072 -0.5048 -0.1107
   82SLPC   H4X 7720   0.004   3.232   3.840  0.3600 -0.5092 -0.1147
   82SLPC   H4Y 7721  -0.096   3.378   3.827 -1.2035 -1.6996  4.0965
   82SLPC   C35 7722   0.050   3.370   3.996 -0.2108  0.0540 -0.0795
   82SLPC   H5X 7723   0.069   3.478   4.010  1.6288 -0.1074 -1.0505
   82SLPC   H5Y 7724   0.144   3.311   4.004  1.0976  2.1668  0.9039
   82SLPC   C36 7725  -0.045   3.313   4.103  0.2556  0.2931  0.4350
   82SLPC   H6X 7726  -0.047   3.202   4.096 -2.9745  0.1501  1.6451
   82SLPC   H6Y 7727  -0.153   3.334   4.082  0.3116  0.3574  0.2060
   82SLPC   C37 7728  -0.003   3.352   4.241  0.4001  0.2717  0.4090
   82SLPC   H7X 7729  -0.025   3.460   4.250 -0.6271  0.3960 -2.4514
   82SLPC   H7Y 7730   0.107   3.345   4.256  0.4310  0.2291  0.1712
   82SLPC   C38 7731  -0.080   3.275   4.350 -0.4004  0.9995  0.4834
   82SLPC   H8X 7732  -0.004   3.231   4.417 -1.8711 -0.5763  1.1833
   82SLPC   H8Y 7733  -0.127   3.191   4.294  0.3558 -0.3161  1.7672
   82SLPC   C39 7734  -0.176   3.360   4.431  0.1322 -1.3132  0.4230
   82SLPC   H9X 7735  -0.254   3.375   4.354  0.0147 -0.9591  0.6050
   82SLPC   H9Y 7736  -0.148   3.461   4.469 -0.1871 -0.6921 -0.9466
   82SLPC  C310 7737  -0.224   3.292   4.556 -0.6253  0.1671 -0.4659
   82SLPC  H10X 7738  -0.258   3.188   4.536 -2.0343  0.4041  0.5376
   82SLPC  H10Y 7739  -0.319   3.343   4.582 -2.1204 -3.2685  1.5604
   82SLPC  C311 7740  -0.138   3.298   4.676 -0.0675  0.1728  0.1314
   82SLPC  H11X 7741  -0.121   3.403   4.705 -1.9755  0.3201  0.8345
   82SLPC  H11Y 7742  -0.037   3.262   4.647  0.2207  0.4610  0.7684
   82SLPC  C312 7743  -0.189   3.216   4.792  0.1723 -0.3056 -0.0958
   82SLPC  H12X 7744  -0.102   3.223   4.861  0.7362  0.7201 -0.8866
   82SLPC  H12Y 7745  -0.196   3.111   4.757  1.2057 -0.0511 -1.0831
   82SLPC  C313 7746  -0.313   3.275   4.864  0.4344  1.1145  0.5796
   82SLPC  H13X 7747  -0.329   3.217   4.957  1.7420  0.9302  0.7093
   82SLPC  H13Y 7748  -0.403   3.267   4.798  1.8883 -2.1062 -1.2672
   82SLPC  C314 7749  -0.312   3.415   4.925 -0.0139  0.1044 -0.5413
   82SLPC  H14X 7750  -0.294   3.482   4.838 -0.1788 -0.5123 -1.0615
   82SLPC  H14Y 7751  -0.227   3.421   4.996  1.1611 -0.5199 -1.8424
   82SLPC  C315 7752  -0.446   3.460   4.976 -0.1056 -0.4707  0.2601
   82SLPC  H15X 7753  -0.440   3.543   5.049 -1.9008  0.6211 -0.7665
   82SLPC  H15Y 7754  -0.485   3.371   5.031 -0.6534 -0.2069  0.3028
   82SLPC  C316 7755  -0.553   3.493   4.870 -0.5264 -0.1206 -0.3681
   82SLPC  H16X 7756  -0.562   3.409   4.799  1.1229  1.5097 -2.6859
   82SLPC  H16Y 7757  -0.509   3.574   4.807  1.6402 -0.1034  1.0652
   82SLPC  C317 7758  -0.689   3.530   4.912 -0.2011 -0.5763 -0.5553
   82SLPC  H17X 7759  -0.732   3.454   4.979  0.2403 -0.7240 -0.4399
   82SLPC  H17Y 7760  -0.744   3.532   4.815  1.7932 -1.8804 -1.7743
   82SLPC  C318 7761  -0.674   3.671   4.981  0.3997  0.1766  0.8963
   82SLPC  H18X 7762  -0.610   3.663   5.072 -0.8022  2.5193  2.0164
   82SLPC  H18Y 7763  -0.771   3.719   5.003  0.6167  0.9574  0.1762
   82SLPC  H18Z 7764  -0.621   3.739   4.912 -0.5444 -2.1107 -2.2989
   83SLPC     N 7765   1.411   4.751   2.507  0.6945  0.1670 -0.0706
   83SLPC   C13 7766   1.259   4.735   2.494 -0.5164  0.9955  0.4220
   83SLPC  H13A 7767   1.206   4.807   2.555 -1.8363  0.2939  0.1383
   83SLPC  H13B 7768   1.231   4.752   2.391  2.8404  2.8197 -0.3502
   83SLPC  H13C 7769   1.231   4.634   2.520 -1.0109 -0.5122 -4.7547
   83SLPC   C14 7770   1.440   4.887   2.446 -0.7464  0.2794 -0.6490
   83SLPC  H14A 7771   1.416   4.962   2.520  0.4869 -1.7607  1.9865
   83SLPC  H14B 7772   1.544   4.896   2.422  0.4114 -2.2393  2.6744
   83SLPC  H14C 7773   1.376   4.896   2.360  0.9467 -1.8559 -2.2301
   83SLPC   C15 7774   1.473   4.641   2.426 -0.8155  0.5819  0.0718
   83SLPC  H15A 7775   1.435   4.543   2.449 -3.1889  0.6954 -2.6926
   83SLPC  H15B 7776   1.479   4.648   2.318 -0.8020 -1.3137 -0.0890
   83SLPC  H15C 7777   1.576   4.628   2.456 -0.9276 -3.0666 -0.6369
   83SLPC   C12 7778   1.446   4.747   2.655 -0.2991 -0.0099  0.3511
   83SLPC  H12A 7779   1.554   4.757   2.658 -0.3995  2.0302 -0.7890
   83SLPC  H12B 7780   1.425   4.648   2.690 -2.3442  0.2555 -0.0231
   83SLPC   C11 7781   1.392   4.852   2.757 -0.0171 -0.4009  0.4810
   83SLPC  H11A 7782   1.420   4.956   2.731  3.2979 -0.9775  1.3781
   83SLPC  H11B 7783   1.444   4.837   2.854 -0.3978  1.6567  1.0485
   83SLPC     P 7784   1.187   4.733   2.873 -0.0527  0.2830  0.3058
   83SLPC   O13 7785   1.038   4.731   2.855 -0.2533 -0.0695  0.5318
   83SLPC   O14 7786   1.253   4.598   2.856  0.5260  0.0661 -0.3148
   83SLPC   O12 7787   1.254   4.839   2.766  0.3866  0.2828  0.0816
   83SLPC   O11 7788   1.218   4.791   3.013 -0.1722  0.5282  0.0728
   83SLPC    C1 7789   1.232   4.928   3.046  0.0488 -0.4858  0.2051
   83SLPC    HA 7790   1.278   4.948   3.146  2.0981  0.7332 -0.9114
   83SLPC    HB 7791   1.309   4.970   2.977 -1.3488  1.6126 -0.1660
   83SLPC    C2 7792   1.101   5.012   3.033  0.0649 -0.0583  0.3915
   83SLPC    HS 7793   1.063   5.004   2.929  2.0742  0.9857 -0.4863
   83SLPC   O21 7794   1.142   5.155   3.047  0.5914  0.2488  0.2545
   83SLPC   C21 7795   1.043   5.250   3.036 -0.4201  0.7491 -0.9633
   83SLPC   O22 7796   0.926   5.226   3.008  0.0625 -0.5285  0.2083
   83SLPC   C22 7797   1.090   5.389   3.069 -0.2724 -0.2689 -0.0852
   83SLPC   H2R 7798   1.184   5.399   3.011 -1.7135 -0.3365 -2.5557
   83SLPC   H2S 7799   1.017   5.466   3.039  0.7641  0.6755 -0.2461
   83SLPC    C3 7800   0.995   4.970   3.141 -0.4254 -0.1559  0.5746
   83SLPC    HX 7801   0.975   4.862   3.124 -2.8432  0.5901 -2.0411
   83SLPC    HY 7802   0.899   5.019   3.115 -0.1329  0.3176  0.3941
   83SLPC   O31 7803   1.039   4.996   3.281  0.2541 -0.4588 -0.6546
   83SLPC   C31 7804   0.949   5.034   3.367 -0.0045 -1.1963  0.1321
   83SLPC   O32 7805   0.829   5.042   3.348 -0.3861  0.1028 -0.2906
   83SLPC   C32 7806   1.020   5.060   3.504  0.8224 -0.2125  0.3566
   83SLPC   H2X 7807   0.963   5.145   3.548 -0.3310 -0.6424 -0.2610
   83SLPC   H2Y 7808   1.124   5.089   3.478  0.1445 -0.4685 -3.0983
   83SLPC   C23 7809   1.112   5.390   3.225  0.3259  0.2596  0.9728
   83SLPC   H3R 7810   1.191   5.468   3.236  1.6123 -0.9190  0.4731
   83SLPC   H3S 7811   1.154   5.292   3.254  0.7461  0.7716  2.1394
   83SLPC   C24 7812   0.989   5.440   3.298 -0.1225  0.3314 -0.1317
   83SLPC   H4R 7813   0.921   5.354   3.317 -2.3221  2.2538  1.1392
   83SLPC   H4S 7814   0.940   5.515   3.232  2.1400 -0.5904 -3.0930
   83SLPC   C25 7815   1.021   5.500   3.442 -0.5250  0.3782  0.6190
   83SLPC   H5R 7816   0.927   5.484   3.499  0.2516  1.4193  2.2854
   83SLPC   H5S 7817   1.043   5.609   3.430 -0.9068  0.3321 -0.6542
   83SLPC   C26 7818   1.135   5.424   3.519 -0.3615  0.0931 -0.1902
   83SLPC   H6R 7819   1.229   5.430   3.460 -0.3747  2.6603 -0.0465
   83SLPC   H6S 7820   1.114   5.315   3.531  0.6782 -0.3657 -2.1329
   83SLPC   C27 7821   1.159   5.492   3.652  0.0448  0.7973  0.1938
   83SLPC   H7R 7822   1.073   5.488   3.721 -0.1749  2.2406  0.0451
   83SLPC   H7S 7823   1.179   5.602   3.643 -0.5696  0.8048 -1.5500
   83SLPC   C28 7824   1.273   5.435   3.734  0.0684  0.1784 -0.2225
   83SLPC   H8R 7825   1.332   5.514   3.786 -1.3616 -0.4685  2.6155
   83SLPC   H8S 7826   1.345   5.399   3.658  0.8053 -2.0781  1.4472
   83SLPC   C29 7827   1.243   5.303   3.816 -0.5523 -0.3908 -0.2057
   83SLPC   H9R 7828   1.176   5.228   3.771 -1.0550  0.8051 -1.5216
   83SLPC  C210 7829   1.285   5.288   3.945  0.3670 -0.5063 -0.4972
   83SLPC  H10R 7830   1.276   5.186   3.986 -0.6800 -1.5016 -2.9746
   83SLPC  C211 7831   1.354   5.386   4.032  0.6514 -0.3515 -0.0832
   83SLPC  H11R 7832   1.324   5.492   4.027  1.1880 -0.1883  0.1334
   83SLPC  H11S 7833   1.459   5.391   3.996  0.2075 -1.1889 -1.6283
   83SLPC  C212 7834   1.345   5.346   4.175  0.1231 -0.2865  0.1244
   83SLPC  H12R 7835   1.296   5.250   4.196  0.7209 -0.4348  0.8562
   83SLPC  C213 7836   1.381   5.422   4.278 -0.9385 -0.1085 -0.3441
   83SLPC  H13R 7837   1.361   5.390   4.381  1.8348  1.6610  0.8563
   83SLPC  C214 7838   1.444   5.560   4.276  0.0487  0.5722 -0.1000
   83SLPC  H14R 7839   1.386   5.647   4.316  0.8269  1.2071 -0.3166
   83SLPC  H14S 7840   1.455   5.581   4.167  0.0932 -4.5417 -1.3265
   83SLPC  C215 7841   1.584   5.572   4.343 -0.4954  1.2303 -0.1159
   83SLPC  H15R 7842   1.563   5.579   4.452  0.7711  1.9262  0.0937
   83SLPC  H15S 7843   1.633   5.669   4.319  2.1079 -0.1126 -0.4924
   83SLPC  C216 7844   1.677   5.442   4.328  1.1125  0.0897 -0.1379
   83SLPC  H16R 7845   1.633   5.341   4.322  1.6164 -0.2006  0.7763
   83SLPC  H16S 7846   1.746   5.447   4.415  2.3429  2.3716 -1.1458
   83SLPC  C217 7847   1.767   5.453   4.210 -0.4212  0.6825  0.0974
   83SLPC  H17R 7848   1.838   5.538   4.222  0.2148  0.0882  0.6417
   83SLPC  H17S 7849   1.706   5.477   4.120  0.1375  0.9111 -0.2295
   83SLPC  C218 7850   1.853   5.331   4.180  0.8508 -0.5908  0.1401
   83SLPC  H18R 7851   1.801   5.235   4.201  1.3363 -1.3174 -1.7999
   83SLPC  H18S 7852   1.945   5.334   4.242  0.4559 -1.5826  0.8065
   83SLPC  H18T 7853   1.889   5.316   4.076 -0.8710 -0.9830 -0.4297
   83SLPC   C33 7854   1.012   4.935   3.584 -0.4137  0.3873  0.1485
   83SLPC   H3X 7855   1.043   4.842   3.531 -0.6045  0.4925 -0.1543
   83SLPC   H3Y 7856   0.906   4.921   3.612 -0.2792  0.2424  0.5887
   83SLPC   C34 7857   1.095   4.954   3.712  0.0485 -0.4253 -0.1187
   83SLPC   H4X 7858   1.072   5.053   3.758 -0.5994 -0.5144 -0.2330
   83SLPC   H4Y 7859   1.200   4.959   3.678  0.0120  1.3649 -0.0666
   83SLPC   C35 7860   1.057   4.851   3.818 -0.1872  0.2089 -0.6127
   83SLPC   H5X 7861   1.101   4.761   3.770 -0.1373  0.6699 -1.4493
   83SLPC   H5Y 7862   0.947   4.834   3.828 -0.0188 -0.0542  0.9313
   83SLPC   C36 7863   1.119   4.887   3.957  0.1150  0.4970 -0.1881
   83SLPC   H6X 7864   1.097   4.994   3.976  1.5353  0.9970 -1.1875
   83SLPC   H6Y 7865   1.229   4.887   3.946  0.4612  0.0849  2.5186
   83SLPC   C37 7866   1.074   4.793   4.075 -0.9611  0.4914  0.0387
   83SLPC   H7X 7867   1.103   4.686   4.063  2.0109  1.2213 -0.1415
   83SLPC   H7Y 7868   0.969   4.818   4.101 -1.1032 -1.0620  1.0779
   83SLPC   C38 7869   1.161   4.829   4.195  0.2716  0.5928  0.2042
   83SLPC   H8X 7870   1.155   4.940   4.202 -3.5910  0.5314  0.0849
   83SLPC   H8Y 7871   1.265   4.792   4.179  0.5375  1.3419  0.1395
   83SLPC   C39 7872   1.119   4.770   4.329 -0.1446  0.7367 -0.1858
   83SLPC   H9X 7873   1.185   4.828   4.397 -0.1744  0.3106  0.2147
   83SLPC   H9Y 7874   1.137   4.661   4.329  0.6803  0.8624 -0.8670
   83SLPC  C310 7875   0.979   4.800   4.377 -0.1632 -0.4002 -0.1829
   83SLPC  H10X 7876   0.914   4.781   4.289 -0.0326 -1.7123 -0.0218
   83SLPC  H10Y 7877   0.981   4.908   4.400  1.3269 -0.1919 -1.1789
   83SLPC  C311 7878   0.947   4.727   4.510  0.0952  0.1859 -0.2364
   83SLPC  H11X 7879   0.919   4.623   4.483 -0.8985  0.3804 -0.0090
   83SLPC  H11Y 7880   0.853   4.775   4.544  0.0594  2.2996 -2.9494
   83SLPC  C312 7881   1.052   4.726   4.617 -0.4141 -0.1932  0.0976
   83SLPC  H12X 7882   1.070   4.829   4.654 -0.8075  0.0016 -0.2464
   83SLPC  H12Y 7883   1.142   4.681   4.569  0.4628  0.1686  1.3662
   83SLPC  C313 7884   1.033   4.627   4.733  0.9963 -0.2193 -0.4773
   83SLPC  H13X 7885   1.026   4.522   4.697 -1.1406 -1.5708  3.3256
   83SLPC  H13Y 7886   0.937   4.648   4.786  0.6648  2.2713 -1.9147
   83SLPC  C314 7887   1.133   4.630   4.849  0.6706 -0.1166  0.3960
   83SLPC  H14X 7888   1.169   4.731   4.879 -0.7294  0.1792  1.1592
   83SLPC  H14Y 7889   1.236   4.600   4.820  2.3944  0.1700  5.1788
   83SLPC  C315 7890   1.091   4.564   4.978  0.1498  1.1749 -0.8795
   83SLPC  H15X 7891   1.006   4.626   5.013 -0.1012  1.3751 -1.8215
   83SLPC  H15Y 7892   1.177   4.562   5.049  0.2026 -0.3762 -0.9527
   83SLPC  C316 7893   1.065   4.416   4.963  0.9142  0.2948 -0.7036
   83SLPC  H16X 7894   1.162   4.362   4.956  1.8186  1.7565  0.1958
   83SLPC  H16Y 7895   1.007   4.390   4.871  1.3109 -0.1235 -0.8438
   83SLPC  C317 7896   0.980   4.361   5.084  0.4805  0.5863 -0.2235
   83SLPC  H17X 7897   0.902   4.432   5.119  0.5559 -0.7547  2.9566
   83SLPC  H17Y 7898   1.051   4.359   5.170  3.3925 -0.7533 -2.4677
   83SLPC  C318 7899   0.921   4.221   5.066 -0.1073 -0.9320 -0.5807
   83SLPC  H18X 7900   0.887   4.197   5.169  0.8871 -0.1655 -0.0606
   83SLPC  H18Y 7901   0.988   4.139   5.031 -2.7578 -3.5301  0.0473
   83SLPC  H18Z 7902   0.828   4.220   5.005 -2.7611  0.1689  3.1528
   84SLPC     N 7903   0.023   1.775   2.522  0.4008 -0.3400  0.0269
   84SLPC   C13 7904   0.098   1.652   2.496 -0.7598  0.0186  1.0594
   84SLPC  H13A 7905   0.055   1.573   2.555  2.1319 -3.3293 -0.9242
   84SLPC  H13B 7906   0.093   1.619   2.393  0.1234  0.1561  0.9641
   84SLPC  H13C 7907   0.201   1.661   2.527 -0.8517 -2.2661  2.1755
   84SLPC   C14 7908  -0.108   1.754   2.453 -0.0822 -0.1181 -0.2556
   84SLPC  H14A 7909  -0.147   1.658   2.485  1.2410 -1.0041 -1.1858
   84SLPC  H14B 7910  -0.189   1.824   2.468 -0.6505 -0.9745  0.9009
   84SLPC  H14C 7911  -0.084   1.743   2.348 -0.0913 -0.3267 -0.2369
   84SLPC   C15 7912   0.090   1.892   2.462  0.1161 -0.8147 -0.6126
   84SLPC  H15A 7913   0.087   1.983   2.520 -0.5941  0.5076 -2.6363
   84SLPC  H15B 7914   0.196   1.874   2.453  0.4175  0.9678 -1.0407
   84SLPC  H15C 7915   0.049   1.913   2.365 -0.3127  2.4673  0.1628
   84SLPC   C12 7916   0.014   1.791   2.675 -0.2132  0.9807  0.1224
   84SLPC  H12A 7917  -0.053   1.875   2.683 -1.2353  0.1798  0.1732
   84SLPC  H12B 7918   0.108   1.837   2.700  0.7311 -1.1838  0.8509
   84SLPC   C11 7919  -0.027   1.673   2.772 -0.1407 -0.0992 -0.1314
   84SLPC  H11A 7920  -0.042   1.732   2.865  2.1908  0.9601 -0.3465
   84SLPC  H11B 7921   0.059   1.607   2.798  1.0357  0.7560 -1.6488
   84SLPC     P 7922  -0.291   1.643   2.763  0.3427  0.2149  0.0632
   84SLPC   O13 7923  -0.330   1.776   2.706 -0.0883  1.1279  0.3000
   84SLPC   O14 7924  -0.379   1.534   2.725 -0.3730 -0.6861  0.1839
   84SLPC   O12 7925  -0.146   1.602   2.731 -0.4453 -0.3139  0.2063
   84SLPC   O11 7926  -0.291   1.643   2.922 -0.3600  0.1539 -0.2392
   84SLPC    C1 7927  -0.256   1.523   2.996  0.4446 -0.0765  0.4821
   84SLPC    HA 7928  -0.332   1.444   2.978 -0.2583  0.8137 -0.6701
   84SLPC    HB 7929  -0.160   1.475   2.969 -0.9153 -2.8089  0.2122
   84SLPC    C2 7930  -0.255   1.561   3.154 -0.6181  0.5406  0.3345
   84SLPC    HS 7931  -0.278   1.464   3.204 -1.4331  0.4224 -0.2422
   84SLPC   O21 7932  -0.353   1.659   3.190 -0.5678 -0.0680  0.1675
   84SLPC   C21 7933  -0.479   1.617   3.184  0.3328 -0.6885 -0.3127
   84SLPC   O22 7934  -0.512   1.509   3.153 -0.0158  0.4923  0.5186
   84SLPC   C22 7935  -0.570   1.718   3.236  0.0576  0.1847 -0.7677
   84SLPC   H2R 7936  -0.559   1.816   3.184 -1.7497  0.2210 -1.1712
   84SLPC   H2S 7937  -0.675   1.688   3.212  0.6128 -1.0099 -1.7876
   84SLPC    C3 7938  -0.118   1.618   3.198 -0.3331 -0.8364 -0.2561
   84SLPC    HX 7939  -0.119   1.724   3.164  3.1220 -0.7449 -0.3760
   84SLPC    HY 7940  -0.027   1.578   3.149 -0.0042 -1.2923  0.7053
   84SLPC   O31 7941  -0.101   1.612   3.340 -0.6175  0.1220  0.1832
   84SLPC   C31 7942  -0.042   1.496   3.371 -0.1783  0.0940 -0.2767
   84SLPC   O32 7943  -0.034   1.398   3.300  0.1337  0.0648  0.4558
   84SLPC   C32 7944   0.018   1.500   3.512 -0.4941 -0.0548  0.2201
   84SLPC   H2X 7945   0.097   1.578   3.507 -2.0095  1.4862 -0.9807
   84SLPC   H2Y 7946   0.072   1.404   3.520  1.1065  0.6786 -1.1988
   84SLPC   C23 7947  -0.559   1.723   3.386 -0.4157 -0.3282 -0.6320
   84SLPC   H3R 7948  -0.452   1.727   3.414 -0.6417 -1.6389  0.5471
   84SLPC   H3S 7949  -0.608   1.640   3.441 -1.8547  1.3312  0.7325
   84SLPC   C24 7950  -0.625   1.854   3.441 -0.0867  0.3318 -0.5954
   84SLPC   H4R 7951  -0.731   1.855   3.408 -0.4395 -2.1786  0.2307
   84SLPC   H4S 7952  -0.581   1.950   3.406  0.1201 -0.1744 -1.7467
   84SLPC   C25 7953  -0.616   1.858   3.593  0.1511  0.4270 -0.2464
   84SLPC   H5R 7954  -0.508   1.862   3.617 -0.2833  1.0775  1.7541
   84SLPC   H5S 7955  -0.665   1.763   3.624 -0.0329  0.9524  1.1186
   84SLPC   C26 7956  -0.692   1.958   3.677  0.0267 -0.3012  0.1677
   84SLPC   H6R 7957  -0.668   1.931   3.783 -0.8149 -1.5584  0.0618
   84SLPC   H6S 7958  -0.800   1.942   3.658  0.1249  0.8803 -1.5738
   84SLPC   C27 7959  -0.655   2.100   3.642  0.1983  0.8073  0.1285
   84SLPC   H7R 7960  -0.710   2.120   3.547 -0.0451 -1.3377 -0.2456
   84SLPC   H7S 7961  -0.547   2.123   3.630  0.0247  2.1911  1.0757
   84SLPC   C28 7962  -0.722   2.196   3.741  0.9909 -0.1008  0.1940
   84SLPC   H8R 7963  -0.830   2.169   3.746  1.4398 -2.0877 -0.0846
   84SLPC   H8S 7964  -0.708   2.301   3.706  0.4686 -0.5121 -1.3398
   84SLPC   C29 7965  -0.652   2.189   3.879  0.4390 -0.1556  0.0516
   84SLPC   H9R 7966  -0.543   2.202   3.875  0.3913  0.8056  1.3333
   84SLPC  C210 7967  -0.705   2.164   3.998  0.0721 -0.0980  1.0243
   84SLPC  H10R 7968  -0.635   2.153   4.083  0.9717 -0.3399  0.2665
   84SLPC  C211 7969  -0.854   2.145   4.039 -0.0773 -0.3826 -0.8791
   84SLPC  H11R 7970  -0.911   2.225   3.987  0.0937 -0.1717 -0.7374
   84SLPC  H11S 7971  -0.869   2.172   4.145  1.2499  1.2345 -1.0604
   84SLPC  C212 7972  -0.907   2.012   4.015 -0.1574  0.9477 -0.0791
   84SLPC  H12R 7973  -0.881   1.986   3.911 -1.1044  1.0056 -0.3389
   84SLPC  C213 7974  -0.959   1.926   4.104 -0.6771 -0.4393  0.2233
   84SLPC  H13R 7975  -1.001   1.834   4.061 -1.0309  0.3177 -1.1291
   84SLPC  C214 7976  -0.995   1.944   4.249 -0.3334  0.1283 -0.1968
   84SLPC  H14R 7977  -1.082   1.878   4.271 -0.4933  1.1047  2.4861
   84SLPC  H14S 7978  -1.030   2.048   4.267 -1.2362 -0.6346  3.0980
   84SLPC  C215 7979  -0.880   1.937   4.358  0.2213  0.2464 -0.4647
   84SLPC  H15R 7980  -0.815   2.022   4.329 -1.1705  2.4614  2.3440
   84SLPC  H15S 7981  -0.827   1.839   4.359 -0.4765 -0.1503  1.5726
   84SLPC  C216 7982  -0.919   1.966   4.502 -0.4892 -0.6031 -0.2509
   84SLPC  H16R 7983  -0.951   2.072   4.513 -0.0928 -0.2355 -2.3057
   84SLPC  H16S 7984  -0.836   1.946   4.574 -2.0688 -0.6455  1.6503
   84SLPC  C217 7985  -1.034   1.876   4.546  0.4373  0.1535  0.0966
   84SLPC  H17R 7986  -1.026   1.772   4.507 -1.0164 -0.6848  1.8668
   84SLPC  H17S 7987  -1.122   1.920   4.494 -0.2058 -0.9602  0.2057
   84SLPC  C218 7988  -1.072   1.881   4.690  0.1375  0.1568  0.1427
   84SLPC  H18R 7989  -0.989   1.905   4.760 -0.8409  3.9549  0.2398
   84SLPC  H18S 7990  -1.131   1.796   4.729  1.3931 -0.7230  0.1729
   84SLPC  H18T 7991  -1.125   1.978   4.700  1.5521  1.0398 -0.5718
   84SLPC   C33 7992  -0.080   1.513   3.626  0.1807 -0.5053  0.0671
   84SLPC   H3X 7993  -0.174   1.455   3.610  1.3286 -2.2167 -0.8185
   84SLPC   H3Y 7994  -0.117   1.618   3.624  0.2770 -0.4134  1.5257
   84SLPC   C34 7995  -0.019   1.499   3.765  0.2154 -0.0699 -0.0736
   84SLPC   H4X 7996   0.052   1.585   3.757 -1.5783  1.3220 -2.1499
   84SLPC   H4Y 7997   0.043   1.407   3.769 -1.2588 -1.0880  0.0635
   84SLPC   C35 7998  -0.094   1.539   3.895 -0.3259 -0.1986  0.5128
   84SLPC   H5X 7999  -0.184   1.580   3.845  0.7262 -1.1968 -2.3778
   84SLPC   H5Y 8000  -0.030   1.613   3.948  1.7905 -0.8171 -1.0315
   84SLPC   C36 8001  -0.116   1.412   3.973 -0.3687 -0.2668  0.7991
   84SLPC   H6X 8002  -0.013   1.372   3.982  0.3718  1.7531  1.8036
   84SLPC   H6Y 8003  -0.167   1.349   3.897  2.9789 -0.6919 -1.3055
   84SLPC   C37 8004  -0.198   1.437   4.100  0.5254 -1.0615  0.3646
   84SLPC   H7X 8005  -0.301   1.468   4.073  0.5526  0.4900  1.9014
   84SLPC   H7Y 8006  -0.161   1.527   4.153 -1.1374 -0.8038  1.1374
   84SLPC   C38 8007  -0.205   1.319   4.197 -0.4320 -0.4468  0.0087
   84SLPC   H8X 8008  -0.218   1.223   4.144 -1.2558 -1.0430  1.2405
   84SLPC   H8Y 8009  -0.295   1.343   4.257 -0.1242  1.8650 -0.3499
   84SLPC   C39 8010  -0.093   1.303   4.296  0.2506  0.4362  0.3716
   84SLPC   H9X 8011  -0.059   1.394   4.350  0.2438  1.2386 -0.9348
   84SLPC   H9Y 8012  -0.011   1.272   4.227 -2.6143 -0.1991 -3.0239
   84SLPC  C310 8013  -0.112   1.189   4.396 -0.5747 -0.0752  0.6104
   84SLPC  H10X 8014  -0.021   1.175   4.459 -0.6079 -0.0118  0.6727
   84SLPC  H10Y 8015  -0.115   1.088   4.350  0.8280 -0.5548  1.5047
   84SLPC  C311 8016  -0.237   1.210   4.484 -0.2912  0.4772 -0.7963
   84SLPC  H11X 8017  -0.323   1.188   4.417 -0.3605  0.1481 -0.6016
   84SLPC  H11Y 8018  -0.242   1.315   4.520 -2.3967 -0.4707  2.0427
   84SLPC  C312 8019  -0.247   1.124   4.607 -0.7562  0.0988  0.1655
   84SLPC  H12X 8020  -0.181   1.172   4.682 -0.5279 -0.5338  0.3775
   84SLPC  H12Y 8021  -0.207   1.022   4.590 -1.7359 -0.2478 -0.0767
   84SLPC  C313 8022  -0.390   1.119   4.665  0.2745  0.5286 -0.6103
   84SLPC  H13X 8023  -0.455   1.054   4.602  0.1269 -0.2929  0.3673
   84SLPC  H13Y 8024  -0.436   1.220   4.657  0.0834  0.5290  0.3849
   84SLPC  C314 8025  -0.398   1.063   4.798 -0.7576 -0.7522 -0.0500
   84SLPC  H14X 8026  -0.367   1.138   4.874 -3.3857  1.3532 -0.8900
   84SLPC  H14Y 8027  -0.325   0.979   4.795  1.6763  1.2825 -1.4748
   84SLPC  C315 8028  -0.539   1.016   4.845 -0.2370  0.3354 -0.5183
   84SLPC  H15X 8029  -0.578   0.935   4.779 -3.9651  0.5938  1.1113
   84SLPC  H15Y 8030  -0.614   1.097   4.831  2.1403  2.4517 -1.7306
   84SLPC  C316 8031  -0.540   0.956   4.989 -0.2890 -0.2565 -0.4141
   84SLPC  H16X 8032  -0.522   1.037   5.063 -1.6531 -0.7382  0.4987
   84SLPC  H16Y 8033  -0.444   0.900   4.991  1.0895  2.0082  1.5990
   84SLPC  C317 8034  -0.650   0.854   5.029 -0.2358  0.0577 -0.5848
   84SLPC  H17X 8035  -0.632   0.763   4.969  0.3787 -0.0152 -0.3014
   84SLPC  H17Y 8036  -0.743   0.907   4.999  0.4145  0.2023 -2.5444
   84SLPC  C318 8037  -0.653   0.809   5.178 -0.7859  0.6353  0.8459
   84SLPC  H18X 8038  -0.648   0.899   5.242 -0.3917  0.9980  0.3164
   84SLPC  H18Y 8039  -0.573   0.736   5.204 -1.6364  0.3755  2.8562
   84SLPC  H18Z 8040  -0.745   0.751   5.200  1.8189 -3.5085  1.9959
   85SLPC     N 8041   3.460   6.312   2.834 -0.2574 -0.4860 -0.1040
   85SLPC   C13 8042   3.473   6.183   2.899  0.2926  0.7347 -0.5000
   85SLPC  H13A 8043   3.399   6.172   2.977  1.2958  0.1887  0.4061
   85SLPC  H13B 8044   3.454   6.110   2.822 -0.9808  1.8905 -1.3151
   85SLPC  H13C 8045   3.573   6.166   2.938  0.7311  1.0533 -1.4528
   85SLPC   C14 8046   3.486   6.406   2.939 -0.0895 -0.1887 -0.2934
   85SLPC  H14A 8047   3.581   6.391   2.988  0.9023  2.4676 -1.2106
   85SLPC  H14B 8048   3.471   6.509   2.911 -2.1634 -0.3010  0.2146
   85SLPC  H14C 8049   3.413   6.384   3.016 -0.7962  0.5987 -0.7144
   85SLPC   C15 8050   3.319   6.336   2.787  0.2717  0.8870  0.4827
   85SLPC  H15A 8051   3.249   6.332   2.869  2.5435 -1.2044  2.5085
   85SLPC  H15B 8052   3.313   6.428   2.730  0.8467 -0.5007 -1.9802
   85SLPC  H15C 8053   3.288   6.255   2.723  0.6921  0.5554  0.6934
   85SLPC   C12 8054   3.552   6.304   2.710 -0.4371  0.5059 -0.1293
   85SLPC  H12A 8055   3.650   6.283   2.748 -1.3555 -1.9247  1.1001
   85SLPC  H12B 8056   3.546   6.404   2.668 -0.7583 -0.3459 -2.2292
   85SLPC   C11 8057   3.519   6.193   2.607 -0.0082 -0.1149 -0.4776
   85SLPC  H11A 8058   3.597   6.223   2.534  0.6292  0.0775  0.2580
   85SLPC  H11B 8059   3.424   6.206   2.551 -0.1021 -0.5700 -0.4271
   85SLPC     P 8060   3.686   5.990   2.668 -0.2964 -0.8750 -0.2274
   85SLPC   O13 8061   3.666   5.856   2.719  0.0821 -0.5588 -0.0950
   85SLPC   O14 8062   3.774   6.006   2.550 -0.3917  0.0882  0.7020
   85SLPC   O12 8063   3.541   6.056   2.646 -0.6760  0.1107 -0.6102
   85SLPC   O11 8064   3.744   6.081   2.781 -0.4285 -0.1669 -0.0068
   85SLPC    C1 8065   3.870   6.050   2.846 -0.5276 -0.2234 -0.0944
   85SLPC    HA 8066   3.873   5.947   2.888 -0.3419 -0.6874 -1.2113
   85SLPC    HB 8067   3.954   6.073   2.778 -0.6212  2.5783  0.6198
   85SLPC    C2 8068   3.894   6.160   2.955  0.0176 -0.3754 -0.4628
   85SLPC    HS 8069   3.986   6.125   3.006 -0.7819 -2.7463 -0.5239
   85SLPC   O21 8070   3.781   6.171   3.047 -0.2581  0.3592  0.8059
   85SLPC   C21 8071   3.787   6.066   3.130  0.3904 -0.0975 -0.3357
   85SLPC   O22 8072   3.872   5.985   3.143 -0.2638 -0.3095  0.7051
   85SLPC   C22 8073   3.668   6.060   3.232 -0.2324  0.2976  0.2880
   85SLPC   H2R 8074   3.589   5.993   3.192  0.7148 -0.8430  0.2383
   85SLPC   H2S 8075   3.717   6.005   3.315  0.4726 -1.5655 -1.2785
   85SLPC    C3 8076   3.928   6.302   2.899  0.0671 -0.3721 -0.1076
   85SLPC    HX 8077   3.846   6.340   2.834  0.3953 -0.6221 -0.6759
   85SLPC    HY 8078   4.010   6.313   2.825 -0.1024  2.7110  0.0165
   85SLPC   O31 8079   3.975   6.394   2.996 -0.6162  0.2308 -0.0567
   85SLPC   C31 8080   3.881   6.462   3.058  0.7467  0.1221 -0.2718
   85SLPC   O32 8081   3.761   6.445   3.051 -0.0931 -0.1436  0.2774
   85SLPC   C32 8082   3.943   6.556   3.157  0.0562  0.3443  0.4404
   85SLPC   H2X 8083   3.894   6.655   3.151  3.2104  1.9901  0.1293
   85SLPC   H2Y 8084   4.047   6.576   3.123  0.8867 -2.1342  1.2426
   85SLPC   C23 8085   3.629   6.200   3.291  0.2461 -0.1671  0.1235
   85SLPC   H3R 8086   3.560   6.251   3.220 -1.5929 -1.7000  0.7290
   85SLPC   H3S 8087   3.711   6.275   3.305  0.6289 -0.5044 -0.2671
   85SLPC   C24 8088   3.537   6.192   3.418 -0.3757 -0.1080  0.0873
   85SLPC   H4R 8089   3.577   6.124   3.496 -0.3381 -0.0099  0.1526
   85SLPC   H4S 8090   3.438   6.147   3.393 -0.6826 -0.2802  1.5466
   85SLPC   C25 8091   3.524   6.317   3.502  0.4176 -0.0012  0.4292
   85SLPC   H5R 8092   3.624   6.352   3.538  1.4088 -2.1799 -0.0590
   85SLPC   H5S 8093   3.488   6.396   3.433 -0.7946 -0.5710  0.3816
   85SLPC   C26 8094   3.436   6.306   3.628  0.3111  0.4133 -0.1431
   85SLPC   H6R 8095   3.353   6.236   3.607 -0.7417  2.1550 -2.1467
   85SLPC   H6S 8096   3.382   6.399   3.656  0.9885  0.8028 -0.1235
   85SLPC   C27 8097   3.510   6.238   3.754  0.3282 -0.0327 -0.0911
   85SLPC   H7R 8098   3.602   6.301   3.765 -0.3326  0.7107  1.5173
   85SLPC   H7S 8099   3.542   6.137   3.721  0.6800  0.4706 -1.3342
   85SLPC   C28 8100   3.435   6.223   3.887 -0.4898 -0.1268 -0.0007
   85SLPC   H8R 8101   3.355   6.148   3.868 -2.2327  1.2480  1.4988
   85SLPC   H8S 8102   3.382   6.315   3.919 -0.2703  0.3482 -0.9533
   85SLPC   C29 8103   3.500   6.160   4.008  0.4047 -0.6390 -0.3600
   85SLPC   H9R 8104   3.591   6.103   3.985 -0.0092 -1.5182  0.1180
   85SLPC  C210 8105   3.458   6.159   4.137 -0.3338  0.4164  1.1106
   85SLPC  H10R 8106   3.534   6.114   4.202  1.9324  2.2189 -0.1198
   85SLPC  C211 8107   3.329   6.217   4.185 -0.4074  0.5477  0.1655
   85SLPC  H11R 8108   3.283   6.143   4.255  0.5198 -0.9106 -0.7003
   85SLPC  H11S 8109   3.264   6.220   4.095  0.9328 -0.1074 -0.8549
   85SLPC  C212 8110   3.341   6.351   4.239 -0.4129 -0.0244  0.5604
   85SLPC  H12R 8111   3.373   6.424   4.163  1.0353  2.2342  3.1473
   85SLPC  C213 8112   3.322   6.387   4.371 -0.6678 -0.1121  0.2651
   85SLPC  H13R 8113   3.354   6.488   4.401 -0.4945  0.1856 -0.8637
   85SLPC  C214 8114   3.283   6.301   4.493  0.0607 -0.0808 -0.4139
   85SLPC  H14R 8115   3.346   6.315   4.583  0.8986 -1.0917 -0.8244
   85SLPC  H14S 8116   3.291   6.191   4.485  0.8927 -0.0444 -0.1561
   85SLPC  C215 8117   3.132   6.315   4.528 -0.5966 -0.1511  0.3208
   85SLPC  H15R 8118   3.098   6.420   4.541 -0.0794  0.1810 -0.8428
   85SLPC  H15S 8119   3.120   6.260   4.624 -0.8073  0.6546  0.7590
   85SLPC  C216 8120   3.042   6.238   4.430 -0.6845  0.1689  0.2671
   85SLPC  H16R 8121   3.079   6.133   4.431  1.9899  0.9954 -1.4330
   85SLPC  H16S 8122   3.053   6.276   4.326 -3.0091 -1.5905 -0.6924
   85SLPC  C217 8123   2.887   6.228   4.458  0.2257 -0.7866  0.3460
   85SLPC  H17R 8124   2.868   6.170   4.551 -2.7008 -0.2683  0.1874
   85SLPC  H17S 8125   2.832   6.168   4.382  0.5556 -0.0291 -0.5125
   85SLPC  C218 8126   2.806   6.359   4.476  0.2028  0.0017 -0.9220
   85SLPC  H18R 8127   2.818   6.408   4.575 -2.7426 -1.3553  0.2299
   85SLPC  H18S 8128   2.699   6.330   4.474  0.0815  0.4452 -1.5221
   85SLPC  H18T 8129   2.816   6.433   4.393  1.2193  2.9561  1.6610
   85SLPC   C33 8130   3.934   6.504   3.302  0.7061 -0.1308 -0.2731
   85SLPC   H3X 8131   3.830   6.479   3.331  0.5911  0.4645 -0.1694
   85SLPC   H3Y 8132   3.962   6.588   3.369 -2.7664  0.8033  0.1774
   85SLPC   C34 8133   4.024   6.379   3.334 -0.0315 -0.4899 -0.0408
   85SLPC   H4X 8134   4.126   6.393   3.292 -0.5887 -0.1960 -1.3130
   85SLPC   H4Y 8135   3.976   6.283   3.304 -1.8124  0.3248  0.1326
   85SLPC   C35 8136   4.058   6.362   3.482  0.3753 -0.5946  0.2247
   85SLPC   H5X 8137   4.125   6.444   3.518  2.2101 -2.0816  0.3987
   85SLPC   H5Y 8138   4.106   6.263   3.500  1.8653  0.3330  1.6669
   85SLPC   C36 8139   3.937   6.349   3.576 -0.4876  0.1139 -0.6664
   85SLPC   H6X 8140   3.888   6.253   3.549  1.7271 -1.2898  0.0436
   85SLPC   H6Y 8141   3.865   6.430   3.550 -2.1091 -1.1879 -0.3952
   85SLPC   C37 8142   3.979   6.350   3.722  0.2702 -0.6539  1.0243
   85SLPC   H7X 8143   4.051   6.432   3.744 -0.5017  0.0248  1.0474
   85SLPC   H7Y 8144   4.050   6.268   3.747  0.3221 -1.3574 -1.2245
   85SLPC   C38 8145   3.860   6.347   3.812 -0.3769  0.7964 -0.3507
   85SLPC   H8X 8146   3.816   6.246   3.811  1.2138  0.0499 -2.3229
   85SLPC   H8Y 8147   3.786   6.420   3.771  0.1732  0.7058 -1.5349
   85SLPC   C39 8148   3.900   6.382   3.961  0.6381 -0.3069 -0.7090
   85SLPC   H9X 8149   3.940   6.485   3.964 -0.3453  0.0755 -0.6293
   85SLPC   H9Y 8150   3.992   6.327   3.993  0.3586 -0.8092 -0.7602
   85SLPC  C310 8151   3.790   6.367   4.061  1.1971  0.0185 -0.5609
   85SLPC  H10X 8152   3.745   6.267   4.046 -1.2344  1.0765 -0.8866
   85SLPC  H10Y 8153   3.705   6.429   4.026  0.1144 -2.4488 -2.6222
   85SLPC  C311 8154   3.810   6.410   4.205 -0.4417  0.4351  0.0992
   85SLPC  H11X 8155   3.721   6.405   4.271  0.1739 -1.1143  0.8510
   85SLPC  H11Y 8156   3.842   6.516   4.199  0.3193  0.2891  1.3408
   85SLPC  C312 8157   3.915   6.325   4.281  0.4230 -0.0140 -0.1071
   85SLPC  H12X 8158   4.021   6.325   4.247  0.2464  1.3447 -0.7501
   85SLPC  H12Y 8159   3.873   6.222   4.285  0.9088 -0.1851  0.7788
   85SLPC  C313 8160   3.927   6.375   4.432 -0.1667  0.4194  0.1938
   85SLPC  H13X 8161   3.962   6.481   4.435  0.4503  0.2057  3.3084
   85SLPC  H13Y 8162   4.007   6.313   4.476 -0.7518 -0.4896  0.0017
   85SLPC  C314 8163   3.795   6.374   4.511  0.1758  0.6735 -0.3830
   85SLPC  H14X 8164   3.770   6.266   4.517  1.9275  0.2963  0.8591
   85SLPC  H14Y 8165   3.716   6.428   4.454  1.2940  1.4316 -1.2631
   85SLPC  C315 8166   3.815   6.448   4.640 -0.1421  0.3071  0.1287
   85SLPC  H15X 8167   3.861   6.549   4.638 -0.7787  0.6081 -1.9346
   85SLPC  H15Y 8168   3.885   6.398   4.711  0.8333  1.0083 -0.3248
   85SLPC  C316 8169   3.685   6.451   4.727 -0.4316 -0.3958 -0.0034
   85SLPC  H16X 8170   3.628   6.356   4.726 -1.8535  0.3441  2.1714
   85SLPC  H16Y 8171   3.620   6.519   4.668 -2.5787 -2.0397  0.3263
   85SLPC  C317 8172   3.712   6.494   4.876 -0.2617  0.7460  0.2760
   85SLPC  H17X 8173   3.750   6.598   4.876  0.9293  0.3479 -1.2547
   85SLPC  H17Y 8174   3.799   6.443   4.924 -0.8170  1.1939  1.8255
   85SLPC  C318 8175   3.594   6.489   4.974  0.5110  0.7732  0.4653
   85SLPC  H18X 8176   3.623   6.512   5.079 -1.5276 -2.0474  1.7674
   85SLPC  H18Y 8177   3.555   6.386   4.990 -0.4456  1.1049  0.3337
   85SLPC  H18Z 8178   3.502   6.548   4.952 -0.6926 -1.9394 -2.5256
   86SLPC     N 8179   6.697   2.529   2.973  0.2054 -0.6443  0.5550
   86SLPC   C13 8180   6.725   2.446   2.855  0.1713 -0.3398 -0.1781
   86SLPC  H13A 8181   6.667   2.482   2.771  0.6895 -0.3711 -0.5606
   86SLPC  H13B 8182   6.830   2.441   2.830  0.5334 -1.5433  1.4068
   86SLPC  H13C 8183   6.685   2.346   2.854 -0.7361  0.0011 -1.7523
   86SLPC   C14 8184   6.559   2.510   3.019  0.4562  0.1929 -0.0440
   86SLPC  H14A 8185   6.556   2.547   3.120  0.3308  0.5208 -0.1672
   86SLPC  H14B 8186   6.492   2.559   2.950  0.2790  0.1434  0.0915
   86SLPC  H14C 8187   6.540   2.404   3.029 -0.3066  0.3874  0.7179
   86SLPC   C15 8188   6.717   2.670   2.945 -0.0833  0.3667  0.4551
   86SLPC  H15A 8189   6.661   2.721   2.867  0.9192  0.8621  0.0329
   86SLPC  H15B 8190   6.710   2.739   3.028 -1.4915  0.7760  0.0244
   86SLPC  H15C 8191   6.822   2.686   2.929  0.4403 -1.9409  1.2534
   86SLPC   C12 8192   6.792   2.477   3.084  0.4626 -0.2746 -0.1310
   86SLPC  H12A 8193   6.810   2.560   3.151  1.8684  1.1899 -2.1638
   86SLPC  H12B 8194   6.881   2.471   3.022  0.3063 -1.8664 -0.2362
   86SLPC   C11 8195   6.757   2.347   3.156  0.4366  0.1418  0.3924
   86SLPC  H11A 8196   6.667   2.367   3.218  0.0710 -2.1954  0.7155
   86SLPC  H11B 8197   6.846   2.333   3.221  2.2553  1.1596 -1.7719
   86SLPC     P 8198   6.829   2.110   3.060  0.3414  0.0232  0.2525
   86SLPC   O13 8199   6.763   2.006   2.973 -0.3259 -0.2439 -0.5291
   86SLPC   O14 8200   6.964   2.157   3.026 -0.2448 -0.1237  0.0538
   86SLPC   O12 8201   6.732   2.237   3.068  0.1462 -0.3036 -0.2284
   86SLPC   O11 8202   6.832   2.061   3.212  0.8390  0.0388  0.0673
   86SLPC    C1 8203   6.699   2.032   3.268 -0.9396  0.6722 -0.3638
   86SLPC    HA 8204   6.617   2.103   3.241  0.1633  1.8750 -0.6243
   86SLPC    HB 8205   6.667   1.934   3.228  1.7847  0.8442 -3.3154
   86SLPC    C2 8206   6.708   2.036   3.421 -0.5801  0.0376  0.8684
   86SLPC    HS 8207   6.600   2.025   3.446 -1.0025  0.5913 -0.6101
   86SLPC   O21 8208   6.762   2.165   3.470  0.2313  0.0887 -0.2035
   86SLPC   C21 8209   6.682   2.270   3.458  0.6896  0.6164  0.5432
   86SLPC   O22 8210   6.561   2.269   3.435 -0.1054  0.7582  0.9891
   86SLPC   C22 8211   6.748   2.384   3.508  0.2518 -0.2520 -0.5341
   86SLPC   H2R 8212   6.858   2.394   3.501  0.1411  4.1041  0.7873
   86SLPC   H2S 8213   6.702   2.462   3.443  1.1655  1.1038  0.3755
   86SLPC    C3 8214   6.802   1.921   3.464 -0.0745  0.3341 -0.1131
   86SLPC    HX 8215   6.905   1.954   3.436  0.0064 -0.1475 -0.3851
   86SLPC    HY 8216   6.788   1.826   3.408  0.0573 -0.0133  0.4352
   86SLPC   O31 8217   6.780   1.892   3.610 -0.1164  0.2219  0.5326
   86SLPC   C31 8218   6.847   1.971   3.694  0.1588  0.4148 -0.1405
   86SLPC   O32 8219   6.941   2.041   3.667  0.0977  0.6589  0.6796
   86SLPC   C32 8220   6.775   1.956   3.830  0.3389  0.5382  0.1966
   86SLPC   H2X 8221   6.830   2.036   3.884 -0.3724  0.5954  0.8469
   86SLPC   H2Y 8222   6.800   1.860   3.879  0.0463  0.4358  0.1491
   86SLPC   C23 8223   6.712   2.406   3.664 -0.4576  0.2868 -0.0695
   86SLPC   H3R 8224   6.766   2.487   3.718 -0.5718  0.5399 -0.3326
   86SLPC   H3S 8225   6.737   2.312   3.716 -0.4853  0.4783  0.2904
   86SLPC   C24 8226   6.562   2.427   3.689 -0.4489 -0.2317 -0.1366
   86SLPC   H4R 8227   6.515   2.329   3.665 -1.2225  0.4536 -1.5943
   86SLPC   H4S 8228   6.527   2.488   3.602 -1.1404 -1.5191 -0.7879
   86SLPC   C25 8229   6.524   2.480   3.821  0.3805 -0.1992  0.1405
   86SLPC   H5R 8230   6.416   2.505   3.822 -0.1686 -2.4057  0.7324
   86SLPC   H5S 8231   6.581   2.575   3.831 -0.3046  0.0802  1.7627
   86SLPC   C26 8232   6.570   2.383   3.926 -1.0035  0.4186  0.0737
   86SLPC   H6R 8233   6.677   2.408   3.944 -0.9620  0.2930  0.0030
   86SLPC   H6S 8234   6.576   2.280   3.883  3.2874  0.5904 -0.2351
   86SLPC   C27 8235   6.494   2.395   4.053  0.4368 -0.4000  0.3474
   86SLPC   H7R 8236   6.385   2.391   4.030 -0.7387  1.3371  4.6882
   86SLPC   H7S 8237   6.500   2.497   4.096 -1.9705  0.4652 -1.1606
   86SLPC   C28 8238   6.502   2.287   4.158 -0.5373 -0.3890 -0.0335
   86SLPC   H8R 8239   6.472   2.186   4.123 -3.6193 -0.5177  2.4389
   86SLPC   H8S 8240   6.417   2.307   4.227 -0.7771 -0.0102 -0.4372
   86SLPC   C29 8241   6.635   2.270   4.227  0.1594  0.2881  0.2314
   86SLPC   H9R 8242   6.724   2.290   4.165 -0.0426  0.2024 -0.0905
   86SLPC  C210 8243   6.659   2.251   4.357  0.9994  0.1016 -0.3030
   86SLPC  H10R 8244   6.759   2.268   4.399  1.0090 -0.8835  0.1042
   86SLPC  C211 8245   6.556   2.239   4.469 -0.0493  0.4055 -0.3476
   86SLPC  H11R 8246   6.451   2.249   4.435 -0.6495  1.3077  1.6137
   86SLPC  H11S 8247   6.569   2.319   4.545  0.6484  0.4274 -0.4770
   86SLPC  C212 8248   6.576   2.104   4.535 -0.3192  0.5582  0.5663
   86SLPC  H12R 8249   6.669   2.093   4.593 -0.3051 -1.1580  0.2760
   86SLPC  C213 8250   6.478   2.015   4.565 -0.4599  0.1775  0.4802
   86SLPC  H13R 8251   6.505   1.923   4.619 -2.6273  0.2806  1.8299
   86SLPC  C214 8252   6.332   2.030   4.537 -0.1892 -0.2392 -0.0570
   86SLPC  H14R 8253   6.276   1.939   4.508  0.0034 -0.3648 -0.0398
   86SLPC  H14S 8254   6.310   2.103   4.456  0.0877 -0.3056 -0.1960
   86SLPC  C215 8255   6.261   2.062   4.667  0.7290  0.0671 -1.1385
   86SLPC  H15R 8256   6.157   2.089   4.640 -0.0564 -0.9946  0.6075
   86SLPC  H15S 8257   6.308   2.153   4.711 -0.5620  0.5495 -0.7260
   86SLPC  C216 8258   6.259   1.945   4.772 -0.4318 -0.4588 -0.0200
   86SLPC  H16R 8259   6.360   1.929   4.816 -0.2396 -1.1549 -0.7006
   86SLPC  H16S 8260   6.248   1.853   4.712 -0.7402 -0.5838  0.2231
   86SLPC  C217 8261   6.163   1.964   4.888 -0.5738  0.4602 -0.3375
   86SLPC  H17R 8262   6.060   1.980   4.850 -1.2136 -2.5322 -0.0561
   86SLPC  H17S 8263   6.192   2.060   4.937 -1.3012  0.7679 -0.4924
   86SLPC  C218 8264   6.168   1.871   5.012 -0.0313 -0.5051  0.5409
   86SLPC  H18R 8265   6.270   1.868   5.056 -0.2581 -0.4071  1.0869
   86SLPC  H18S 8266   6.154   1.766   4.981 -0.2846 -0.5606  0.8421
   86SLPC  H18T 8267   6.090   1.901   5.085  0.4968 -1.4380  1.5073
   86SLPC   C33 8268   6.626   1.978   3.826 -0.2825 -0.2908  0.2738
   86SLPC   H3X 8269   6.583   1.908   3.751  0.1428 -0.1182 -0.1398
   86SLPC   H3Y 8270   6.600   2.075   3.777  2.8582  1.0281  1.0175
   86SLPC   C34 8271   6.554   1.967   3.957 -0.0162  0.0056  0.5935
   86SLPC   H4X 8272   6.448   1.985   3.929  0.3968 -1.5067 -2.2641
   86SLPC   H4Y 8273   6.593   2.043   4.028  1.0208  0.4316 -0.4011
   86SLPC   C35 8274   6.563   1.829   4.029 -0.3254 -0.2253  0.6654
   86SLPC   H5X 8275   6.671   1.812   4.048 -0.5481 -3.5199 -0.3559
   86SLPC   H5Y 8276   6.532   1.751   3.956 -1.2684  0.4779  0.2966
   86SLPC   C36 8277   6.482   1.839   4.155 -0.3674  0.8113  0.0480
   86SLPC   H6X 8278   6.374   1.855   4.135 -0.3766  3.3594  1.5976
   86SLPC   H6Y 8279   6.513   1.926   4.217 -0.5042 -0.1440  1.4931
   86SLPC   C37 8280   6.494   1.704   4.237  0.1870  0.0023 -0.0599
   86SLPC   H7X 8281   6.598   1.706   4.276  1.2961  1.5562 -2.8732
   86SLPC   H7Y 8282   6.481   1.614   4.173 -0.6738  0.5154 -0.6239
   86SLPC   C38 8283   6.390   1.696   4.353 -0.4910 -0.3803 -0.6809
   86SLPC   H8X 8284   6.283   1.683   4.328 -1.2982 -0.8429  2.5600
   86SLPC   H8Y 8285   6.413   1.797   4.396  1.6095 -0.3560 -1.7117
   86SLPC   C39 8286   6.406   1.596   4.474  0.7882 -0.2650  0.5730
   86SLPC   H9X 8287   6.352   1.505   4.441 -0.1831  0.6178 -0.3783
   86SLPC   H9Y 8288   6.343   1.637   4.556  0.6761  0.6466  0.0471
   86SLPC  C310 8289   6.544   1.559   4.503  0.5755  0.0684 -0.2931
   86SLPC  H10X 8290   6.581   1.496   4.419  0.5259 -1.2691  0.6668
   86SLPC  H10Y 8291   6.543   1.495   4.593  1.2085 -1.5835 -1.4135
   86SLPC  C311 8292   6.625   1.676   4.553 -0.4719  1.0933 -0.2205
   86SLPC  H11X 8293   6.577   1.719   4.644 -1.5682 -0.1599 -0.1729
   86SLPC  H11Y 8294   6.636   1.757   4.477 -0.0171  1.8616  0.6450
   86SLPC  C312 8295   6.763   1.637   4.599  0.4481 -0.2488 -0.0280
   86SLPC  H12X 8296   6.820   1.582   4.521  0.7444  1.0790 -0.7789
   86SLPC  H12Y 8297   6.763   1.574   4.690  0.7494  2.9972  2.4152
   86SLPC  C313 8298   6.847   1.761   4.655  0.1632  0.2390  0.2985
   86SLPC  H13X 8299   6.789   1.786   4.746 -1.4335  0.5638 -0.7638
   86SLPC  H13Y 8300   6.831   1.845   4.584  0.3539 -1.1023 -1.3772
   86SLPC  C314 8301   6.995   1.748   4.694 -0.2169  0.0674  0.1755
   86SLPC  H14X 8302   6.994   1.698   4.794 -1.4569  3.5942  2.0875
   86SLPC  H14Y 8303   7.028   1.849   4.725 -1.9378  0.2889  1.4394
   86SLPC  C315 8304   7.078   1.672   4.593 -0.8826 -0.5479  0.4535
   86SLPC  H15X 8305   7.019   1.580   4.573 -0.4513 -1.2833  2.2748
   86SLPC  H15Y 8306   7.172   1.650   4.648 -0.2694  1.4571  0.2895
   86SLPC  C316 8307   7.109   1.750   4.470  0.0217  0.5792 -0.0246
   86SLPC  H16X 8308   7.187   1.825   4.498  0.4448 -0.5754  2.0933
   86SLPC  H16Y 8309   7.031   1.822   4.436 -0.7440  0.2956  1.0878
   86SLPC  C317 8310   7.157   1.661   4.352  0.1378 -0.0654  0.3184
   86SLPC  H17X 8311   7.222   1.574   4.377  2.6120  1.0591 -1.7204
   86SLPC  H17Y 8312   7.196   1.719   4.265 -0.1545 -0.8562 -0.3563
   86SLPC  C318 8313   7.027   1.606   4.292  0.6661 -0.6675 -0.6898
   86SLPC  H18X 8314   6.958   1.692   4.279  1.7993  0.2874 -0.5274
   86SLPC  H18Y 8315   6.988   1.536   4.368 -0.2674  1.3892  0.8075
   86SLPC  H18Z 8316   7.043   1.565   4.190 -1.8971  0.4578 -1.6167
   87SLPC     N 8317   4.664   1.292   2.741 -0.9131 -0.7299  0.6644
   87SLPC   C13 8318   4.745   1.176   2.778 -0.0037 -0.5244 -0.2143
   87SLPC  H13A 8319   4.826   1.163   2.708 -0.6581  0.6518 -1.2510
   87SLPC  H13B 8320   4.789   1.192   2.875 -1.2200 -2.9367  0.8075
   87SLPC  H13C 8321   4.690   1.084   2.794 -0.4686 -0.1286  0.5352
   87SLPC   C14 8322   4.572   1.247   2.633  0.9393  0.1418  0.1978
   87SLPC  H14A 8323   4.483   1.205   2.679 -1.6416  3.7654 -1.0117
   87SLPC  H14B 8324   4.538   1.335   2.580 -2.0360  1.0237  3.1791
   87SLPC  H14C 8325   4.622   1.181   2.564  1.7964 -0.5834  1.4730
   87SLPC   C15 8326   4.755   1.396   2.690 -0.0639  0.9415 -0.3918
   87SLPC  H15A 8327   4.707   1.469   2.626 -1.4706 -0.6234 -1.2021
   87SLPC  H15B 8328   4.809   1.446   2.769  0.1072 -0.0807  0.1538
   87SLPC  H15C 8329   4.832   1.344   2.634  0.2640 -0.9922  1.6772
   87SLPC   C12 8330   4.584   1.355   2.851 -0.2562  0.2942 -0.4313
   87SLPC  H12A 8331   4.541   1.449   2.819 -0.4091  1.4700  2.8598
   87SLPC  H12B 8332   4.659   1.393   2.920 -0.8391 -2.6003  2.0148
   87SLPC   C11 8333   4.502   1.256   2.937 -0.0109 -0.4425  0.2767
   87SLPC  H11A 8334   4.454   1.321   3.013  0.5388  0.5754 -0.2299
   87SLPC  H11B 8335   4.558   1.186   3.003  0.2149 -0.9697 -0.4632
   87SLPC     P 8336   4.258   1.176   2.897 -0.5635  0.0032 -0.1042
   87SLPC   O13 8337   4.213   1.308   2.933  0.3527 -0.0229  0.4253
   87SLPC   O14 8338   4.185   1.111   2.788  0.0531  0.2323 -0.5567
   87SLPC   O12 8339   4.409   1.172   2.865  0.0649 -0.2378 -0.3610
   87SLPC   O11 8340   4.247   1.091   3.024  0.7756 -0.0424 -0.4966
   87SLPC    C1 8341   4.297   0.956   3.026  0.1326  0.6201  0.4122
   87SLPC    HA 8342   4.234   0.894   2.959  0.0625  1.8068 -0.6549
   87SLPC    HB 8343   4.401   0.955   2.987 -0.4041 -1.2012 -1.1207
   87SLPC    C2 8344   4.317   0.893   3.164 -0.1373 -0.1262 -0.3335
   87SLPC    HS 8345   4.227   0.843   3.207  2.1690 -3.2825  1.1755
   87SLPC   O21 8346   4.365   0.994   3.251 -0.4336  0.1821  1.1867
   87SLPC   C21 8347   4.265   1.066   3.303 -0.2378  0.1047  0.5425
   87SLPC   O22 8348   4.145   1.039   3.293 -0.5418  0.4457 -0.0932
   87SLPC   C22 8349   4.321   1.189   3.371  0.3551 -0.1219 -0.0984
   87SLPC   H2R 8350   4.391   1.238   3.300  1.2944 -0.5113  0.5411
   87SLPC   H2S 8351   4.225   1.244   3.388 -0.9651 -1.7528 -1.9029
   87SLPC    C3 8352   4.406   0.769   3.149 -0.2401  0.1785 -0.3464
   87SLPC    HX 8353   4.494   0.809   3.094  0.0109  3.4223  2.0651
   87SLPC    HY 8354   4.352   0.704   3.079  0.1408  2.1208 -2.5763
   87SLPC   O31 8355   4.451   0.708   3.275  0.1883  0.5509 -0.2407
   87SLPC   C31 8356   4.575   0.713   3.316 -0.2780 -0.2921  0.6595
   87SLPC   O32 8357   4.669   0.788   3.266 -0.2740  0.4056 -0.2587
   87SLPC   C32 8358   4.586   0.609   3.425  0.4681 -0.1564 -0.1491
   87SLPC   H2X 8359   4.672   0.546   3.394  0.6374  0.4855 -1.0207
   87SLPC   H2Y 8360   4.495   0.546   3.431  1.6262 -1.9128 -0.4230
   87SLPC   C23 8361   4.386   1.163   3.514  0.1934  0.2717 -0.0787
   87SLPC   H3R 8362   4.302   1.124   3.577 -0.9983  1.3507 -0.9541
   87SLPC   H3S 8363   4.396   1.262   3.563 -2.1584 -0.3796  1.9469
   87SLPC   C24 8364   4.510   1.074   3.513  0.1020  0.6314  0.0957
   87SLPC   H4R 8365   4.590   1.120   3.451  0.5686 -0.0556  0.1760
   87SLPC   H4S 8366   4.487   0.973   3.473 -1.8444 -0.4734  3.6418
   87SLPC   C25 8367   4.572   1.063   3.648 -0.0178  0.5852 -0.0839
   87SLPC   H5R 8368   4.512   0.992   3.709 -0.0468  0.3552 -0.3744
   87SLPC   H5S 8369   4.575   1.164   3.693 -0.7387  0.0068  1.3347
   87SLPC   C26 8370   4.719   1.007   3.646  0.6226  0.1435  0.2013
   87SLPC   H6R 8371   4.777   1.062   3.570  1.4519  0.1577  0.8337
   87SLPC   H6S 8372   4.715   0.902   3.609 -0.3024  0.2709 -0.0768
   87SLPC   C27 8373   4.791   1.006   3.778  0.1116  0.1101 -0.4572
   87SLPC   H7R 8374   4.851   1.099   3.775  1.2706 -0.5509  0.9016
   87SLPC   H7S 8375   4.876   0.937   3.761 -1.2928 -1.1519 -2.7308
   87SLPC   C28 8376   4.703   0.967   3.899 -0.2842  0.1370  0.1271
   87SLPC   H8R 8377   4.652   0.872   3.873 -1.8976  0.8899  0.4314
   87SLPC   H8S 8378   4.625   1.045   3.906 -0.8809 -0.2956 -1.3113
   87SLPC   C29 8379   4.788   0.946   4.022 -0.5462 -0.5714 -0.9062
   87SLPC   H9R 8380   4.895   0.971   4.021 -1.2242  2.9826 -0.7562
   87SLPC  C210 8381   4.734   0.908   4.142 -0.1618 -0.2631  0.4195
   87SLPC  H10R 8382   4.795   0.886   4.231 -2.0638 -2.4125  1.2731
   87SLPC  C211 8383   4.582   0.894   4.168  0.3793  0.3694  0.0354
   87SLPC  H11R 8384   4.521   0.898   4.075 -0.1375  1.4796  0.3939
   87SLPC  H11S 8385   4.545   0.982   4.224 -1.2593  0.5144 -1.1875
   87SLPC  C212 8386   4.550   0.769   4.242  0.2832 -0.5775  0.5241
   87SLPC  H12R 8387   4.525   0.684   4.176  1.6543  0.8148 -1.9351
   87SLPC  C213 8388   4.537   0.754   4.376  0.0217 -0.0054 -0.2517
   87SLPC  H13R 8389   4.506   0.658   4.420  0.6947 -1.9151 -3.6027
   87SLPC  C214 8390   4.576   0.862   4.476  0.2986  0.2931  0.4816
   87SLPC  H14R 8391   4.479   0.903   4.513 -0.1885  0.0842 -0.5220
   87SLPC  H14S 8392   4.628   0.946   4.426 -0.5426  1.1794  1.0375
   87SLPC  C215 8393   4.658   0.818   4.595  1.0442 -0.1569 -0.3865
   87SLPC  H15R 8394   4.749   0.761   4.564  2.6044  0.4725  2.6046
   87SLPC  H15S 8395   4.603   0.745   4.658 -1.1482 -0.2149 -2.2258
   87SLPC  C216 8396   4.695   0.943   4.680 -0.4077  0.0141  0.5858
   87SLPC  H16R 8397   4.605   0.993   4.721 -1.7180 -1.6155 -0.1742
   87SLPC  H16S 8398   4.734   1.012   4.602 -0.2850 -0.3449  0.3237
   87SLPC  C217 8399   4.796   0.923   4.794  0.2159  0.4480  0.6119
   87SLPC  H17R 8400   4.742   0.864   4.871 -1.5514  0.5681 -0.4955
   87SLPC  H17S 8401   4.827   1.020   4.838  0.7734  0.0920  1.0147
   87SLPC  C218 8402   4.934   0.857   4.760 -0.3758 -0.4735 -0.3268
   87SLPC  H18R 8403   4.998   0.927   4.704 -1.8966  1.2447 -0.0122
   87SLPC  H18S 8404   4.911   0.768   4.697 -1.2650 -0.5418  0.0806
   87SLPC  H18T 8405   4.970   0.810   4.855 -1.1766 -0.6761 -0.1125
   87SLPC   C33 8406   4.622   0.660   3.560 -0.1031  1.0210 -1.3920
   87SLPC   H3X 8407   4.539   0.722   3.600  0.6371  0.2787  1.5033
   87SLPC   H3Y 8408   4.714   0.722   3.557  0.1597  1.0661  2.6801
   87SLPC   C34 8409   4.643   0.551   3.671 -0.4532  0.0976  0.1638
   87SLPC   H4X 8410   4.730   0.492   3.633  0.2958  1.3768 -0.1620
   87SLPC   H4Y 8411   4.553   0.488   3.682 -0.2197 -0.3683 -0.4986
   87SLPC   C35 8412   4.682   0.606   3.809 -0.6289 -0.6111 -0.2979
   87SLPC   H5X 8413   4.604   0.672   3.852  1.0287  0.4374  1.2503
   87SLPC   H5Y 8414   4.772   0.669   3.791 -0.6651  0.4357  2.6345
   87SLPC   C36 8415   4.715   0.500   3.914  0.3892 -0.0129  0.6896
   87SLPC   H6X 8416   4.757   0.405   3.873  0.8711  0.9511 -1.2089
   87SLPC   H6Y 8417   4.617   0.472   3.956  0.3650  1.1809  1.4536
   87SLPC   C37 8418   4.800   0.552   4.033  0.1094 -0.3730 -0.9787
   87SLPC   H7X 8419   4.778   0.660   4.050  0.7915 -0.6165  1.9665
   87SLPC   H7Y 8420   4.906   0.544   4.001  0.5154  0.6855  0.0279
   87SLPC   C38 8421   4.774   0.483   4.164  0.4958 -0.3817  0.2829
   87SLPC   H8X 8422   4.780   0.372   4.157 -0.7588 -0.3550 -4.3024
   87SLPC   H8Y 8423   4.668   0.500   4.189  0.6340  0.8375  0.0949
   87SLPC   C39 8424   4.865   0.534   4.284  0.3955  0.5018  0.4067
   87SLPC   H9X 8425   4.806   0.540   4.378 -0.3253  0.3116 -0.0256
   87SLPC   H9Y 8426   4.897   0.640   4.273  0.2845  0.5748  0.7623
   87SLPC  C310 8427   4.973   0.436   4.325 -0.7680 -0.4312 -0.1154
   87SLPC  H10X 8428   5.041   0.427   4.237 -0.8040  0.5818 -0.2565
   87SLPC  H10Y 8429   4.920   0.343   4.354 -2.0784  1.0083  2.4682
   87SLPC  C311 8430   5.052   0.490   4.443 -0.2055  0.0414  0.1413
   87SLPC  H11X 8431   5.087   0.591   4.411 -1.8927  0.6310  0.0231
   87SLPC  H11Y 8432   5.143   0.434   4.472  0.0407 -0.7208 -1.9180
   87SLPC  C312 8433   4.976   0.494   4.576  0.1431  0.3254 -0.2873
   87SLPC  H12X 8434   4.884   0.556   4.571 -0.2640 -0.3610 -1.4282
   87SLPC  H12Y 8435   5.042   0.539   4.654  2.3636 -2.2588 -0.5393
   87SLPC  C313 8436   4.924   0.352   4.617  0.1853  0.3718  0.4690
   87SLPC  H13X 8437   5.010   0.283   4.608 -0.8528 -0.8340 -0.7257
   87SLPC  H13Y 8438   4.842   0.326   4.547  1.4162  2.4043 -1.8892
   87SLPC  C314 8439   4.878   0.344   4.760 -0.2284 -0.2458  0.5444
   87SLPC  H14X 8440   4.813   0.254   4.768 -0.7197  0.1972  1.7795
   87SLPC  H14Y 8441   4.813   0.433   4.773  0.4444  0.7063 -2.0710
   87SLPC  C315 8442   4.996   0.348   4.866 -0.0936  0.0507 -0.1396
   87SLPC  H15X 8443   5.054   0.441   4.845 -1.3355  0.9650  0.3433
   87SLPC  H15Y 8444   5.062   0.260   4.848 -1.6786 -1.4721  1.1289
   87SLPC  C316 8445   4.963   0.349   5.017  0.6973 -0.0057 -0.0598
   87SLPC  H16X 8446   4.888   0.430   5.030  0.8621  0.4544 -1.7437
   87SLPC  H16Y 8447   5.053   0.365   5.080 -0.3767  0.5048  1.4021
   87SLPC  C317 8448   4.899   0.217   5.059 -0.6325 -0.3086 -0.4527
   87SLPC  H17X 8449   4.976   0.137   5.059 -0.7881 -0.4606 -0.3367
   87SLPC  H17Y 8450   4.814   0.187   4.994 -0.2612  2.6412 -2.4773
   87SLPC  C318 8451   4.850   0.231   5.210 -0.0198  0.3820  0.5583
   87SLPC  H18X 8452   4.825   0.129   5.248  0.5419  0.7650  2.0440
   87SLPC  H18Y 8453   4.756   0.289   5.202 -0.9735 -1.1024  0.4212
   87SLPC  H18Z 8454   4.935   0.272   5.268  0.6683  0.5052 -0.5114
   88SLPC     N 8455   5.690   3.172   2.021  0.1809 -0.4679  0.7554
   88SLPC   C13 8456   5.692   3.023   2.041  0.1290  0.3494 -0.2296
   88SLPC  H13A 8457   5.751   3.000   2.129  0.7001 -1.4030 -1.0369
   88SLPC  H13B 8458   5.596   2.976   2.057  0.4217 -0.0755  0.3295
   88SLPC  H13C 8459   5.749   2.973   1.964  2.9425  0.5296  1.5522
   88SLPC   C14 8460   5.589   3.208   1.918 -0.3315 -0.3322  0.0765
   88SLPC  H14A 8461   5.598   3.311   1.886  0.2349 -1.0465 -2.2264
   88SLPC  H14B 8462   5.590   3.141   1.833 -0.7435  0.2932 -0.4381
   88SLPC  H14C 8463   5.493   3.183   1.962  0.7575 -1.2138  2.0348
   88SLPC   C15 8464   5.820   3.223   1.962  0.2030 -0.4514  0.3123
   88SLPC  H15A 8465   5.844   3.152   1.884 -0.0279 -1.1074  0.8289
   88SLPC  H15B 8466   5.795   3.315   1.912 -0.1417 -0.8331 -0.2337
   88SLPC  H15C 8467   5.901   3.225   2.033 -0.4578 -1.5506  1.1330
   88SLPC   C12 8468   5.667   3.243   2.158 -0.0467 -0.6533 -0.2178
   88SLPC  H12A 8469   5.664   3.350   2.147  3.6405 -0.6027 -2.4764
   88SLPC  H12B 8470   5.759   3.220   2.211 -0.6130  0.9469  1.5481
   88SLPC   C11 8471   5.553   3.191   2.252 -0.1560 -0.1083 -0.4148
   88SLPC  H11A 8472   5.572   3.227   2.355 -0.6362  0.5929 -0.5700
   88SLPC  H11B 8473   5.555   3.079   2.250 -1.6431 -0.1347 -1.5867
   88SLPC     P 8474   5.342   3.346   2.253  0.2070  0.0668  0.1593
   88SLPC   O13 8475   5.420   3.467   2.277  0.0624 -0.0055 -1.0116
   88SLPC   O14 8476   5.220   3.352   2.173  0.7948 -0.4752  0.1520
   88SLPC   O12 8477   5.432   3.222   2.207  0.0460 -0.2637 -0.0216
   88SLPC   O11 8478   5.296   3.292   2.389 -0.2337 -0.6871 -0.3093
   88SLPC    C1 8479   5.209   3.376   2.476 -0.0375  0.0851 -0.6688
   88SLPC    HA 8480   5.213   3.482   2.443  1.0313 -0.0581 -1.0487
   88SLPC    HB 8481   5.105   3.339   2.474  0.0439 -0.2410  0.5122
   88SLPC    C2 8482   5.248   3.379   2.632 -0.4393  0.2260  0.4559
   88SLPC    HS 8483   5.353   3.415   2.637 -0.1920 -0.2980 -0.6404
   88SLPC   O21 8484   5.245   3.245   2.673  0.6669 -0.6796  0.8154
   88SLPC   C21 8485   5.309   3.218   2.790 -0.2950  0.2068  0.2779
   88SLPC   O22 8486   5.380   3.294   2.855  0.7171  0.1103  0.2658
   88SLPC   C22 8487   5.268   3.073   2.837  0.3268 -0.2213 -0.2200
   88SLPC   H2R 8488   5.165   3.053   2.800  0.8863 -2.3176 -0.7345
   88SLPC   H2S 8489   5.341   3.010   2.782  0.1511 -0.7689  0.1691
   88SLPC    C3 8490   5.165   3.476   2.719 -0.1285 -1.3532 -0.8513
   88SLPC    HX 8491   5.061   3.439   2.708 -0.2683 -1.0620 -0.5041
   88SLPC    HY 8492   5.164   3.577   2.673  0.4927 -0.1468  1.6620
   88SLPC   O31 8493   5.197   3.486   2.860 -0.3448  0.1184  0.5464
   88SLPC   C31 8494   5.300   3.569   2.891 -0.2192 -0.0607  0.6154
   88SLPC   O32 8495   5.355   3.641   2.804  0.0609  0.0856 -0.1207
   88SLPC   C32 8496   5.349   3.565   3.038 -0.4271 -0.1090 -0.5822
   88SLPC   H2X 8497   5.459   3.563   3.049 -0.5090  2.3659  2.0184
   88SLPC   H2Y 8498   5.307   3.468   3.072 -1.7311  1.1342  1.6205
   88SLPC   C23 8499   5.298   3.055   2.988  0.2113  0.3365 -0.4691
   88SLPC   H3R 8500   5.407   3.069   3.000 -0.0177  0.5423  1.7986
   88SLPC   H3S 8501   5.287   2.950   3.024 -0.5831 -0.0494 -1.7416
   88SLPC   C24 8502   5.213   3.145   3.083  0.4428  0.0014 -0.4042
   88SLPC   H4R 8503   5.113   3.159   3.036  0.2585 -1.9174 -0.6575
   88SLPC   H4S 8504   5.264   3.244   3.091  0.1752  0.1310 -0.2614
   88SLPC   C25 8505   5.206   3.086   3.229 -0.3265  0.8372  1.2049
   88SLPC   H5R 8506   5.307   3.047   3.258 -0.7702 -0.5188  1.0215
   88SLPC   H5S 8507   5.140   2.996   3.234  1.0805 -0.2526  0.8568
   88SLPC   C26 8508   5.165   3.179   3.339 -0.4177  0.1701  0.8563
   88SLPC   H6R 8509   5.068   3.226   3.309  0.3592  2.6520  1.9921
   88SLPC   H6S 8510   5.230   3.268   3.352 -0.8176  0.6557 -0.3090
   88SLPC   C27 8511   5.158   3.111   3.478  0.3487 -0.6244  0.1363
   88SLPC   H7R 8512   5.257   3.067   3.504  1.4510  2.9974  2.8832
   88SLPC   H7S 8513   5.081   3.032   3.467 -0.2783  0.0571 -0.4669
   88SLPC   C28 8514   5.101   3.208   3.581 -0.6558  0.0458 -0.1532
   88SLPC   H8R 8515   5.007   3.253   3.541  0.8435  1.1714 -2.6701
   88SLPC   H8S 8516   5.181   3.285   3.585 -0.7002  0.0764  0.1834
   88SLPC   C29 8517   5.086   3.133   3.714  1.0373 -0.3093  0.3559
   88SLPC   H9R 8518   5.008   3.056   3.704  0.6582 -0.1395  1.8377
   88SLPC  C210 8519   5.158   3.137   3.834 -0.4153  0.4496  0.5065
   88SLPC  H10R 8520   5.124   3.077   3.920 -1.2826 -0.4907 -0.4666
   88SLPC  C211 8521   5.281   3.226   3.853  0.0581 -0.3070 -0.3704
   88SLPC  H11R 8522   5.260   3.296   3.937  0.7123 -3.2858  2.4878
   88SLPC  H11S 8523   5.295   3.279   3.756  0.0965 -1.0271 -0.7699
   88SLPC  C212 8524   5.394   3.136   3.896  0.2180 -0.3791 -0.7814
   88SLPC  H12R 8525   5.449   3.089   3.813  0.2051 -1.4947 -0.1812
   88SLPC  C213 8526   5.435   3.098   4.019  0.5923  0.7042 -0.1876
   88SLPC  H13R 8527   5.519   3.028   4.031 -0.2384  0.1694  3.4437
   88SLPC  C214 8528   5.379   3.139   4.151 -0.0891  0.5384 -0.3732
   88SLPC  H14R 8529   5.340   3.049   4.203 -1.2773  0.3679 -1.5105
   88SLPC  H14S 8530   5.302   3.217   4.130 -1.2034 -0.7419 -1.1927
   88SLPC  C215 8531   5.474   3.188   4.258  0.0206 -0.5875 -0.3330
   88SLPC  H15R 8532   5.576   3.147   4.240  0.0535 -1.1093  0.9352
   88SLPC  H15S 8533   5.443   3.152   4.358 -0.1124 -2.8876 -1.1395
   88SLPC  C216 8534   5.493   3.343   4.259 -0.1315 -0.1196 -0.1630
   88SLPC  H16R 8535   5.417   3.406   4.310  0.7201  0.1876  0.7412
   88SLPC  H16S 8536   5.497   3.384   4.156 -0.0520 -0.0484 -0.1318
   88SLPC  C217 8537   5.630   3.381   4.321  0.4492  0.0297 -0.3781
   88SLPC  H17R 8538   5.704   3.319   4.266  0.2121 -1.8036  1.2686
   88SLPC  H17S 8539   5.628   3.350   4.428 -0.6314 -1.0058 -0.6796
   88SLPC  C218 8540   5.657   3.533   4.311 -0.5225  0.1218 -0.1963
   88SLPC  H18R 8541   5.585   3.587   4.376 -0.4555  1.0974 -0.9050
   88SLPC  H18S 8542   5.654   3.575   4.208  3.1583 -0.8080 -0.8178
   88SLPC  H18T 8543   5.755   3.561   4.353 -1.0979  0.5540  0.8763
   88SLPC   C33 8544   5.288   3.692   3.102  0.1061  0.4188 -0.4423
   88SLPC   H3X 8545   5.177   3.692   3.090 -0.0827  0.1736  1.0611
   88SLPC   H3Y 8546   5.317   3.782   3.045 -1.5651  0.6033 -1.0706
   88SLPC   C34 8547   5.320   3.703   3.249 -0.3440  0.1558 -0.0886
   88SLPC   H4X 8548   5.431   3.707   3.262 -0.3130  0.6305 -0.4714
   88SLPC   H4Y 8549   5.285   3.613   3.304  0.9099  1.3463  2.9184
   88SLPC   C35 8550   5.245   3.820   3.316 -0.6996  0.6913 -0.4369
   88SLPC   H5X 8551   5.140   3.828   3.283 -0.5474  0.1249 -1.0841
   88SLPC   H5Y 8552   5.298   3.909   3.276 -0.5927  0.7080 -0.2609
   88SLPC   C36 8553   5.250   3.811   3.465  0.5766  0.5248 -0.7978
   88SLPC   H6X 8554   5.348   3.774   3.503 -1.3677 -1.8709  2.5258
   88SLPC   H6Y 8555   5.169   3.740   3.494  0.6418  1.1245  0.9872
   88SLPC   C37 8556   5.206   3.938   3.543  0.0067  0.2665  0.1767
   88SLPC   H7X 8557   5.174   3.898   3.642  0.3651 -0.0094  0.1808
   88SLPC   H7Y 8558   5.121   3.987   3.491 -0.4021 -0.9604 -0.3258
   88SLPC   C38 8559   5.321   4.041   3.548  0.0162  0.1530 -0.3072
   88SLPC   H8X 8560   5.337   4.080   3.445  2.1054  2.4480  0.7865
   88SLPC   H8Y 8561   5.415   3.996   3.587  0.1490  0.8915  0.2525
   88SLPC   C39 8562   5.290   4.170   3.625 -0.1217 -0.4099 -0.5195
   88SLPC   H9X 8563   5.377   4.238   3.612  1.6038 -2.2882  0.5775
   88SLPC   H9Y 8564   5.282   4.145   3.733  0.4789  0.2439 -0.3124
   88SLPC  C310 8565   5.165   4.239   3.579  0.2575  0.2532  0.2319
   88SLPC  H10X 8566   5.069   4.203   3.623  0.0627  0.4127 -0.0594
   88SLPC  H10Y 8567   5.167   4.216   3.470  0.0164 -0.1504  0.3131
   88SLPC  C311 8568   5.172   4.392   3.613  0.1463  0.1505 -0.2487
   88SLPC  H11X 8569   5.067   4.426   3.598 -0.1764 -0.9835 -0.6696
   88SLPC  H11Y 8570   5.257   4.446   3.567  0.6902 -1.1851 -0.8769
   88SLPC  C312 8571   5.185   4.405   3.767 -0.0750  0.3653 -0.0626
   88SLPC  H12X 8572   5.280   4.355   3.797 -0.9044 -0.8675  0.6091
   88SLPC  H12Y 8573   5.107   4.341   3.814  1.9092 -2.9470 -0.9274
   88SLPC  C313 8574   5.191   4.551   3.820 -0.2577  0.5458  0.3608
   88SLPC  H13X 8575   5.094   4.595   3.790 -0.7192 -0.3602  0.5009
   88SLPC  H13Y 8576   5.275   4.611   3.778  0.7921 -0.6895  0.6105
   88SLPC  C314 8577   5.198   4.562   3.972 -0.1101 -0.4373  0.5185
   88SLPC  H14X 8578   5.269   4.485   4.010  4.1237  2.5838 -0.5545
   88SLPC  H14Y 8579   5.094   4.533   3.999 -0.6318 -0.7567 -1.6230
   88SLPC  C315 8580   5.227   4.709   4.009  0.1597  0.0560  0.1636
   88SLPC  H15X 8581   5.161   4.783   3.959 -1.0558 -0.8339  0.4172
   88SLPC  H15Y 8582   5.331   4.742   3.986  0.8895 -1.2886  1.3427
   88SLPC  C316 8583   5.221   4.732   4.155 -0.0491 -0.5605  0.0472
   88SLPC  H16X 8584   5.291   4.659   4.202 -0.3990 -0.9643 -0.0582
   88SLPC  H16Y 8585   5.126   4.708   4.207  0.2922  1.3750  1.6788
   88SLPC  C317 8586   5.249   4.877   4.192 -0.5631  0.6377 -0.0612
   88SLPC  H17X 8587   5.163   4.939   4.158 -1.1222 -1.3009 -2.4881
   88SLPC  H17Y 8588   5.339   4.905   4.133  2.0830 -1.6761  2.5410
   88SLPC  C318 8589   5.280   4.898   4.345  0.4565  0.1283 -0.2311
   88SLPC  H18X 8590   5.308   5.002   4.373  1.1528 -0.5150  1.5982
   88SLPC  H18Y 8591   5.364   4.832   4.374  0.9168  0.5669 -0.5639
   88SLPC  H18Z 8592   5.191   4.859   4.399  1.1700 -0.3288  0.6267
   89SAPE     N 8593   2.642   2.554   7.367 -0.1542  0.1820  0.1070
   89SAPE   HN1 8594   2.563   2.507   7.319  0.4979  0.7368 -1.5641
   89SAPE   HN2 8595   2.700   2.603   7.296 -1.1565 -2.1768 -2.4638
   89SAPE   HN3 8596   2.710   2.492   7.415  1.4171  1.6595 -0.1012
   89SAPE   C12 8597   2.592   2.662   7.460 -0.1662  0.0762  0.0623
   89SAPE  H12A 8598   2.681   2.681   7.523 -1.1764  1.2881  1.1568
   89SAPE  H12B 8599   2.510   2.617   7.520 -0.7121  1.4131  0.3644
   89SAPE   C11 8600   2.564   2.785   7.373 -0.6429  0.4449  0.7714
   89SAPE  H11A 8601   2.517   2.860   7.441 -0.5894  1.4456 -0.2698
   89SAPE  H11B 8602   2.493   2.760   7.292  0.2067  0.1759  0.0955
   89SAPE     P 8603   2.753   2.960   7.289 -0.0102  0.1046 -0.1848
   89SAPE   O13 8604   2.792   3.007   7.425 -0.6608  0.0945 -0.2035
   89SAPE   O14 8605   2.863   2.953   7.190  0.4903 -0.1930 -0.0422
   89SAPE   O12 8606   2.689   2.822   7.309 -0.0633  0.3296 -0.4041
   89SAPE   O11 8607   2.648   3.061   7.226 -0.3665 -0.5585  0.3761
   89SAPE    C1 8608   2.587   3.031   7.098 -0.5754 -0.2166 -0.9243
   89SAPE    HA 8609   2.589   2.924   7.067 -0.8420  0.8407 -5.3164
   89SAPE    HB 8610   2.479   3.055   7.103 -0.3680  0.5419  0.3928
   89SAPE    C2 8611   2.636   3.122   6.975 -0.2952  0.1445 -0.5292
   89SAPE    HS 8612   2.651   3.225   7.015  1.5242  0.2438 -1.3448
   89SAPE   O21 8613   2.542   3.128   6.867  0.6456 -0.0331  0.4459
   89SAPE   C21 8614   2.435   3.208   6.879  0.1418 -0.2266 -0.4288
   89SAPE   O22 8615   2.422   3.287   6.974  0.2910  0.0539  0.3194
   89SAPE   C22 8616   2.346   3.190   6.758  0.0829 -0.5640 -0.9980
   89SAPE   H2R 8617   2.365   3.281   6.698  0.4786 -0.6352 -0.9861
   89SAPE   H2S 8618   2.381   3.100   6.703 -2.6997 -2.6272  0.3435
   89SAPE    C3 8619   2.775   3.080   6.923 -0.7071 -0.5121  0.4862
   89SAPE    HX 8620   2.763   2.973   6.896  0.7365 -0.4027 -0.7395
   89SAPE    HY 8621   2.849   3.096   7.004  0.1322  3.8221 -0.8700
   89SAPE   O31 8622   2.818   3.159   6.811 -0.0116 -0.2414  1.0225
   89SAPE   C31 8623   2.814   3.096   6.691 -0.0121 -0.5632 -0.2739
   89SAPE   O32 8624   2.781   2.984   6.668 -0.3176  0.1372  0.4484
   89SAPE   C32 8625   2.871   3.195   6.593  0.3332  0.2217 -0.6266
   89SAPE   H2X 8626   2.979   3.211   6.618 -0.2666  3.5337  0.3678
   89SAPE   H2Y 8627   2.828   3.295   6.617 -0.5887 -0.7926  2.3343
   89SAPE   C23 8628   2.201   3.174   6.800 -0.1204  0.6567 -0.7092
   89SAPE   H3R 8629   2.157   3.266   6.843  0.9309  0.9054 -0.1408
   89SAPE   H3S 8630   2.181   3.095   6.876 -0.0331  1.9310  0.6769
   89SAPE   C24 8631   2.104   3.143   6.677  0.0891  0.0164 -0.2489
   89SAPE   H4R 8632   2.002   3.114   6.711 -0.0161  2.0843  1.3918
   89SAPE   H4S 8633   2.134   3.049   6.626 -0.6697 -2.1783  3.0291
   89SAPE   C25 8634   2.085   3.266   6.584 -0.6469 -0.0580  0.1770
   89SAPE   H5R 8635   2.041   3.356   6.630  1.8146  1.2699  0.1000
   89SAPE   C26 8636   2.123   3.283   6.457 -0.7165  0.5991  0.6677
   89SAPE   H6R 8637   2.095   3.379   6.412 -1.1452 -0.9192 -2.5862
   89SAPE   C27 8638   2.198   3.186   6.371  0.1415  0.2961 -0.7295
   89SAPE   H7R 8639   2.158   3.186   6.268  1.2886  0.0307 -1.1929
   89SAPE   H7S 8640   2.174   3.083   6.404  1.6631 -0.6515 -2.3702
   89SAPE   C28 8641   2.348   3.207   6.379  0.1659 -0.1674  0.3092
   89SAPE   H8R 8642   2.389   3.248   6.472 -0.8594 -0.3752  0.8608
   89SAPE   C29 8643   2.435   3.178   6.274  0.0114 -0.1347 -0.4193
   89SAPE   H9R 8644   2.541   3.200   6.290  0.2536 -0.4896 -1.4248
   89SAPE  C210 8645   2.403   3.121   6.137 -0.2194  0.0098  0.2557
   89SAPE  H10R 8646   2.330   3.041   6.162 -0.1140  0.8121  3.5106
   89SAPE  H10S 8647   2.496   3.073   6.100  0.0638  0.6534  0.1247
   89SAPE  C211 8648   2.351   3.210   6.026 -0.2092 -0.2679 -0.5621
   89SAPE  H11R 8649   2.327   3.307   6.072 -0.1922 -1.3482  1.8877
   89SAPE  C212 8650   2.347   3.190   5.894  1.0215 -0.1499 -0.1137
   89SAPE  H12R 8651   2.319   3.276   5.831 -0.3060 -0.5787 -0.1487
   89SAPE  C213 8652   2.394   3.061   5.821 -0.2208 -0.9494  0.2364
   89SAPE  H13R 8653   2.327   3.046   5.734 -0.0300  1.2671 -0.3438
   89SAPE  H13S 8654   2.391   2.972   5.887  1.9365 -1.2340  0.0470
   89SAPE  C214 8655   2.530   3.075   5.760 -0.4442 -0.1262 -0.5360
   89SAPE  H14R 8656   2.587   3.152   5.813  0.6077  2.4898 -4.9332
   89SAPE  C215 8657   2.587   3.014   5.657 -0.0392  0.5538  0.7928
   89SAPE  H15R 8658   2.691   3.043   5.633  0.8233 -2.2657  0.6970
   89SAPE  C216 8659   2.530   2.907   5.571  0.3162  0.0847  0.3067
   89SAPE  H16R 8660   2.419   2.908   5.566  0.2767 -0.5280  0.8803
   89SAPE  H16S 8661   2.552   2.807   5.614 -0.9698 -0.1826  0.3795
   89SAPE  C217 8662   2.583   2.917   5.421 -0.2343  1.1946 -0.4175
   89SAPE  H17R 8663   2.689   2.886   5.426 -0.7907 -0.9029  4.8506
   89SAPE  H17S 8664   2.573   3.022   5.387 -2.7868  0.3985 -2.5539
   89SAPE  C218 8665   2.505   2.830   5.326  0.4482 -0.5977  0.4100
   89SAPE  H18R 8666   2.401   2.867   5.337  0.4040 -0.2699 -0.9808
   89SAPE  H18S 8667   2.510   2.721   5.348  0.9840 -0.2151  2.3621
   89SAPE  C219 8668   2.547   2.847   5.180 -0.0575  0.8302 -0.8098
   89SAPE  H19R 8669   2.641   2.789   5.167 -0.6490 -0.3129 -0.2259
   89SAPE  H19S 8670   2.565   2.951   5.146 -0.5972  0.0490 -3.7159
   89SAPE  C220 8671   2.438   2.777   5.094  0.2892  0.8662  0.2809
   89SAPE  H20R 8672   2.338   2.824   5.098 -1.2532 -2.1680  0.4993
   89SAPE  H20S 8673   2.424   2.676   5.140 -0.1855  1.0959  0.6450
   89SAPE  H20T 8674   2.477   2.766   4.990  3.4687 -0.2123  1.4735
   89SAPE   C33 8675   2.859   3.162   6.451 -0.2678  0.0836  0.5174
   89SAPE   H3X 8676   2.751   3.161   6.425 -0.6789 -1.1438  2.1410
   89SAPE   H3Y 8677   2.907   3.064   6.430  0.7487  0.7569 -0.4501
   89SAPE   C34 8678   2.933   3.263   6.364 -0.6217  0.1486  0.1033
   89SAPE   H4X 8679   3.041   3.281   6.383 -0.7403  1.2553 -0.1566
   89SAPE   H4Y 8680   2.894   3.367   6.357  0.5581  0.6043  0.0001
   89SAPE   C35 8681   2.916   3.217   6.209 -0.7573  0.2247  0.0333
   89SAPE   H5X 8682   2.809   3.213   6.182 -1.6741  1.4186  3.0737
   89SAPE   H5Y 8683   2.952   3.113   6.194  0.5149  0.6267  0.1738
   89SAPE   C36 8684   3.000   3.298   6.109 -0.1771  0.5635 -0.2653
   89SAPE   H6X 8685   2.994   3.256   6.006  0.7102  1.8950 -0.8911
   89SAPE   H6Y 8686   3.106   3.314   6.138  0.0608 -0.1770 -0.7118
   89SAPE   C37 8687   2.964   3.443   6.076  0.6332 -0.2391 -0.2630
   89SAPE   H7X 8688   3.024   3.520   6.129  0.0987  1.5022 -2.0418
   89SAPE   H7Y 8689   2.858   3.449   6.109  0.3241 -2.9294 -0.5704
   89SAPE   C38 8690   2.961   3.475   5.924  0.4859 -0.4007 -0.4362
   89SAPE   H8X 8691   2.876   3.544   5.903  1.2607  0.6245 -0.2749
   89SAPE   H8Y 8692   2.931   3.382   5.870 -0.2336  0.4968 -1.6420
   89SAPE   C39 8693   3.091   3.531   5.875 -0.4424 -1.0697  1.1865
   89SAPE   H9X 8694   3.171   3.458   5.900 -0.0223 -0.0758  2.9214
   89SAPE   H9Y 8695   3.122   3.618   5.937 -1.8890  0.2312  0.1666
   89SAPE  C310 8696   3.092   3.562   5.723 -0.0313  0.4950 -0.1911
   89SAPE  H10X 8697   3.075   3.468   5.667  0.2482  0.6973 -0.6184
   89SAPE  H10Y 8698   3.188   3.604   5.685  0.1810 -0.3765 -0.6342
   89SAPE  C311 8699   2.987   3.663   5.692  0.5531 -0.5105 -0.4176
   89SAPE  H11X 8700   2.981   3.733   5.778  2.4023  0.2326 -0.8565
   89SAPE  H11Y 8701   2.888   3.613   5.687 -1.3085  2.7232  1.0043
   89SAPE  C312 8702   3.000   3.753   5.571 -0.5651 -0.7411 -0.1094
   89SAPE  H12X 8703   3.089   3.819   5.581 -2.0314  1.0933  1.6388
   89SAPE  H12Y 8704   2.909   3.817   5.571  0.1498  0.3512  1.6891
   89SAPE  C313 8705   3.007   3.682   5.438  0.2906  0.4243 -0.1951
   89SAPE  H13X 8706   2.914   3.623   5.421  0.2042  1.3384 -3.7783
   89SAPE  H13Y 8707   3.098   3.619   5.443  0.7322  1.1467  1.6153
   89SAPE  C314 8708   3.032   3.777   5.322  0.5215  0.1112  0.4222
   89SAPE  H14X 8709   3.115   3.847   5.345 -0.3434  1.2934  0.0886
   89SAPE  H14Y 8710   2.945   3.844   5.303 -0.0396 -1.0111 -1.2317
   89SAPE  C315 8711   3.072   3.716   5.186  0.2856 -0.4914  0.3171
   89SAPE  H15X 8712   3.177   3.682   5.202  0.9156  1.2918  0.2164
   89SAPE  H15Y 8713   3.070   3.794   5.107  0.7933  0.9218  1.6383
   89SAPE  C316 8714   3.000   3.591   5.137  0.3989 -0.1092 -0.1612
   89SAPE  H16X 8715   2.897   3.631   5.129  1.1197  1.4341 -3.3103
   89SAPE  H16Y 8716   3.004   3.512   5.215  0.0221 -0.7540 -0.7804
   89SAPE  C317 8717   3.047   3.544   4.999  0.5434  0.6374  0.3708
   89SAPE  H17X 8718   3.092   3.633   4.948  0.7860  0.2472 -0.1079
   89SAPE  H17Y 8719   2.965   3.503   4.937  0.3888  0.7083  0.5293
   89SAPE  C318 8720   3.151   3.437   5.008  0.0825  0.8618 -0.8259
   89SAPE  H18X 8721   3.241   3.465   4.949  0.5822 -0.0031 -0.5098
   89SAPE  H18Y 8722   3.124   3.335   4.973  0.6520 -1.1045  3.7322
   89SAPE  H18Z 8723   3.190   3.421   5.111  0.7544 -2.2736 -1.4475
   90SAPE     N 8724   3.029   0.423   7.332  0.0899  0.0901  0.2962
   90SAPE   HN1 8725   3.036   0.493   7.254  2.2522 -0.7629 -0.3558
   90SAPE   HN2 8726   2.945   0.445   7.388 -0.3510 -1.5708  0.3355
   90SAPE   HN3 8727   3.116   0.439   7.387 -0.9691  1.2987  1.6871
   90SAPE   C12 8728   3.026   0.288   7.261 -0.5694 -0.5352  0.1484
   90SAPE  H12A 8729   3.097   0.288   7.175  1.7610  2.3640  1.8998
   90SAPE  H12B 8730   2.924   0.279   7.217 -0.8936  0.6741  0.6003
   90SAPE   C11 8731   3.070   0.178   7.360 -0.3138  0.8137 -0.1091
   90SAPE  H11A 8732   3.173   0.200   7.396  0.1827 -1.5908  0.1163
   90SAPE  H11B 8733   3.092   0.086   7.301  0.2192  1.0410 -0.2769
   90SAPE     P 8734   2.869   0.044   7.477  0.2222 -0.3801 -0.4609
   90SAPE   O13 8735   2.929  -0.088   7.481 -0.9567 -0.7108  1.0223
   90SAPE   O14 8736   2.784   0.065   7.596 -0.0613 -0.0439 -0.4763
   90SAPE   O12 8737   2.982   0.160   7.472 -0.1163  0.7560  0.2629
   90SAPE   O11 8738   2.795   0.070   7.338  0.2301 -0.0409  0.4337
   90SAPE    C1 8739   2.695  -0.025   7.295  0.4087  0.1848 -0.8947
   90SAPE    HA 8740   2.739  -0.127   7.293  1.0185  0.3621  1.2198
   90SAPE    HB 8741   2.616  -0.032   7.372  1.3722  0.7463  0.1711
   90SAPE    C2 8742   2.622   0.018   7.165  1.0731  0.1096  0.1537
   90SAPE    HS 8743   2.568  -0.069   7.124 -0.0606 -0.2303  2.2595
   90SAPE   O21 8744   2.718   0.068   7.059 -0.0498  0.7055 -0.2070
   90SAPE   C21 8745   2.792  -0.027   7.005  0.4780 -0.0215  0.2617
   90SAPE   O22 8746   2.784  -0.143   7.023  0.7830  0.0283 -0.1388
   90SAPE   C22 8747   2.909   0.036   6.918  0.3018  0.3239 -0.3540
   90SAPE   H2R 8748   2.966   0.096   6.992  0.7185 -1.0336  0.4667
   90SAPE   H2S 8749   2.966  -0.055   6.891 -1.7804 -0.6368 -1.7230
   90SAPE    C3 8750   2.517   0.133   7.191  0.1868 -0.0234 -0.0113
   90SAPE    HX 8751   2.575   0.216   7.237  1.6874  0.2048 -2.1670
   90SAPE    HY 8752   2.447   0.087   7.264 -0.1087 -1.1003 -0.9502
   90SAPE   O31 8753   2.448   0.174   7.077  0.7861 -0.3746  0.1258
   90SAPE   C31 8754   2.464   0.301   7.035  0.2698  0.4726 -0.0937
   90SAPE   O32 8755   2.539   0.383   7.089  0.0575  0.1697  0.0796
   90SAPE   C32 8756   2.385   0.328   6.912 -0.0873  0.1235  0.1704
   90SAPE   H2X 8757   2.281   0.315   6.946  1.1174 -2.9973  3.1351
   90SAPE   H2Y 8758   2.405   0.265   6.823 -0.4458 -1.0899  0.9361
   90SAPE   C23 8759   2.851   0.105   6.790 -0.0530  0.3403 -0.3150
   90SAPE   H3R 8760   2.922   0.170   6.735  0.1513  1.0816  0.7820
   90SAPE   H3S 8761   2.772   0.172   6.831 -1.7355 -1.6734 -0.1283
   90SAPE   C24 8762   2.786   0.022   6.673 -0.1224  0.1187 -0.3918
   90SAPE   H4R 8763   2.698  -0.033   6.715  0.1972 -1.0256 -1.1583
   90SAPE   H4S 8764   2.859  -0.052   6.634 -0.3290 -1.4370  1.9465
   90SAPE   C25 8765   2.729   0.124   6.578  0.2928  0.2603 -0.1448
   90SAPE   H5R 8766   2.633   0.168   6.606  0.8317  0.4435  1.5296
   90SAPE   C26 8767   2.786   0.165   6.468  0.0207  0.3651  0.4087
   90SAPE   H6R 8768   2.736   0.241   6.406 -1.9079 -0.1832  1.2085
   90SAPE   C27 8769   2.920   0.126   6.407  0.3615  0.2877 -0.5811
   90SAPE   H7R 8770   2.898   0.060   6.320 -0.7351 -0.2849  0.1081
   90SAPE   H7S 8771   2.986   0.060   6.468 -1.8817 -1.2258  0.3499
   90SAPE   C28 8772   3.003   0.247   6.379 -0.0334 -0.5600 -0.0177
   90SAPE   H8R 8773   3.068   0.293   6.454 -0.2203 -2.1401  1.1465
   90SAPE   C29 8774   3.009   0.306   6.259  0.4626 -0.1514  0.0707
   90SAPE   H9R 8775   3.071   0.396   6.248  1.8931 -1.2314 -0.9051
   90SAPE  C210 8776   2.914   0.271   6.150 -0.2551 -0.0230  0.1421
   90SAPE  H10R 8777   2.810   0.264   6.189  0.0660 -1.2573  0.8114
   90SAPE  H10S 8778   2.928   0.171   6.104 -2.1906  1.0016 -3.1113
   90SAPE  C211 8779   2.912   0.377   6.039  0.3260  0.0590  0.0439
   90SAPE  H11R 8780   2.827   0.446   6.048  0.4933  0.5545 -1.7971
   90SAPE  C212 8781   3.011   0.415   5.952 -0.2463 -0.5022  0.3891
   90SAPE  H12R 8782   2.975   0.485   5.876  1.2803 -1.4170 -1.2418
   90SAPE  C213 8783   3.147   0.361   5.948 -0.5523 -0.7451 -0.1517
   90SAPE  H13R 8784   3.186   0.334   6.048 -2.5290 -2.8175  0.1501
   90SAPE  H13S 8785   3.220   0.434   5.906  0.2740 -1.9126 -0.7746
   90SAPE  C214 8786   3.159   0.232   5.859  0.5861 -0.3130 -0.4432
   90SAPE  H14R 8787   3.096   0.149   5.896  2.4740 -1.8041 -0.3863
   90SAPE  C215 8788   3.202   0.213   5.734 -0.1526  1.2605  0.7327
   90SAPE  H15R 8789   3.185   0.110   5.699  0.3398  0.5959  2.3677
   90SAPE  C216 8790   3.276   0.317   5.651  0.1970  0.1020 -0.0164
   90SAPE  H16R 8791   3.377   0.277   5.630  0.8118  1.0811  1.0088
   90SAPE  H16S 8792   3.279   0.416   5.701 -0.1439  0.3304 -0.4396
   90SAPE  C217 8793   3.218   0.339   5.515 -0.3230 -0.0282 -0.1819
   90SAPE  H17R 8794   3.117   0.386   5.516 -0.0111  0.6560 -0.3743
   90SAPE  H17S 8795   3.214   0.244   5.457  0.5926  0.0723 -0.4190
   90SAPE  C218 8796   3.309   0.438   5.444 -0.4489  0.0735  0.9439
   90SAPE  H18R 8797   3.402   0.377   5.437 -0.5128  0.1302 -1.0129
   90SAPE  H18S 8798   3.336   0.524   5.508 -0.3170  0.4041  0.4501
   90SAPE  C219 8799   3.281   0.469   5.297  0.5853 -0.6043  1.0471
   90SAPE  H19R 8800   3.178   0.507   5.284  0.6950 -1.0428 -1.6752
   90SAPE  H19S 8801   3.292   0.377   5.237 -1.9763  1.1890 -2.4648
   90SAPE  C220 8802   3.382   0.575   5.244 -0.2992 -0.2434 -0.1801
   90SAPE  H20R 8803   3.385   0.598   5.136 -1.8782 -0.3416 -0.2741
   90SAPE  H20S 8804   3.482   0.557   5.290 -0.5854 -0.3593  0.4156
   90SAPE  H20T 8805   3.346   0.668   5.292  1.1033  0.3461 -0.2389
   90SAPE   C33 8806   2.402   0.482   6.875  0.4528  0.0291 -0.6032
   90SAPE   H3X 8807   2.508   0.511   6.867 -0.1043  3.1827  1.6865
   90SAPE   H3Y 8808   2.359   0.542   6.958 -0.8762 -0.7028 -0.7334
   90SAPE   C34 8809   2.348   0.529   6.739 -0.0944  0.0233 -0.7109
   90SAPE   H4X 8810   2.354   0.640   6.735 -3.6194  0.3726  0.9133
   90SAPE   H4Y 8811   2.240   0.506   6.728 -0.0568  0.3104 -1.8475
   90SAPE   C35 8812   2.421   0.471   6.617 -0.4252 -0.0875 -0.2349
   90SAPE   H5X 8813   2.403   0.361   6.621 -0.2989 -0.0905  0.4952
   90SAPE   H5Y 8814   2.529   0.490   6.637  0.2020 -4.3103  1.5145
   90SAPE   C36 8815   2.382   0.514   6.476  0.2801  0.0713  0.5435
   90SAPE   H6X 8816   2.385   0.625   6.475 -0.8631  0.1964  3.1994
   90SAPE   H6Y 8817   2.274   0.494   6.454  0.3185 -0.8547  1.1250
   90SAPE   C37 8818   2.461   0.443   6.362 -0.0794 -0.7694  0.3460
   90SAPE   H7X 8819   2.433   0.337   6.378 -1.9832 -0.2812  0.4649
   90SAPE   H7Y 8820   2.566   0.458   6.398  0.9819 -0.5822 -2.5907
   90SAPE   C38 8821   2.425   0.499   6.217  0.3362 -0.0244 -0.4305
   90SAPE   H8X 8822   2.393   0.605   6.227 -3.0596 -1.0542  1.3673
   90SAPE   H8Y 8823   2.330   0.445   6.193  0.3675 -0.7815  1.0493
   90SAPE   C39 8824   2.532   0.491   6.109  0.1084  0.2244 -0.3923
   90SAPE   H9X 8825   2.568   0.386   6.110  0.6735  0.4164  0.3106
   90SAPE   H9Y 8826   2.616   0.551   6.149  1.2737 -0.7073 -1.3593
   90SAPE  C310 8827   2.485   0.540   5.972 -0.0092 -0.2228 -0.1176
   90SAPE  H10X 8828   2.469   0.650   5.975 -0.0955 -0.2175 -0.7004
   90SAPE  H10Y 8829   2.385   0.495   5.956 -2.5332  3.9801  2.0142
   90SAPE  C311 8830   2.592   0.524   5.860  0.3117  0.2756 -0.4424
   90SAPE  H11X 8831   2.662   0.446   5.896 -0.7164 -0.1363  0.7417
   90SAPE  H11Y 8832   2.641   0.621   5.839 -0.2780  0.9969  1.3386
   90SAPE  C312 8833   2.537   0.472   5.728 -1.2692 -0.2798  0.9103
   90SAPE  H12X 8834   2.449   0.532   5.697 -0.3168  0.1065 -1.1608
   90SAPE  H12Y 8835   2.504   0.370   5.756  0.2280 -0.8896  0.5462
   90SAPE  C313 8836   2.640   0.470   5.614 -0.3063  0.3520 -0.4321
   90SAPE  H13X 8837   2.638   0.368   5.569 -1.5577 -0.4657  1.3547
   90SAPE  H13Y 8838   2.735   0.476   5.670 -0.6820  0.5757  0.1836
   90SAPE  C314 8839   2.633   0.584   5.509  0.1114 -0.0533 -0.0549
   90SAPE  H14X 8840   2.662   0.676   5.563  0.6412 -0.7693  0.9121
   90SAPE  H14Y 8841   2.527   0.599   5.479  0.4271  1.3144 -0.5561
   90SAPE  C315 8842   2.724   0.572   5.387 -0.5593 -0.1239  0.3101
   90SAPE  H15X 8843   2.826   0.565   5.429  0.1960  1.1633 -1.1863
   90SAPE  H15Y 8844   2.725   0.675   5.343 -1.8762  1.2558  3.2305
   90SAPE  C316 8845   2.700   0.446   5.300 -0.2615 -0.1070 -0.7261
   90SAPE  H16X 8846   2.601   0.461   5.250 -0.2821 -1.9623 -1.2949
   90SAPE  H16Y 8847   2.692   0.357   5.366  0.1303  0.8115  0.6030
   90SAPE  C317 8848   2.813   0.425   5.202  0.3762  0.1757 -0.4014
   90SAPE  H17X 8849   2.846   0.517   5.148  2.5163 -0.2036  0.1604
   90SAPE  H17Y 8850   2.776   0.348   5.130 -0.6053 -1.2565  1.5582
   90SAPE  C318 8851   2.930   0.362   5.263  0.6222  0.1465 -0.6297
   90SAPE  H18X 8852   2.903   0.262   5.303 -0.2491  1.0163  1.0595
   90SAPE  H18Y 8853   2.977   0.411   5.351  1.3347 -1.2848 -0.1975
   90SAPE  H18Z 8854   3.014   0.343   5.192 -0.5801 -1.3936 -1.7001
   91SAPE     N 8855   1.671   3.135   7.142 -0.2139 -0.4437  0.2736
   91SAPE   HN1 8856   1.719   3.144   7.234  0.5408 -0.8242 -0.0777
   91SAPE   HN2 8857   1.581   3.089   7.165 -0.3599 -1.5310 -2.2278
   91SAPE   HN3 8858   1.727   3.074   7.079  0.7744 -1.2843  1.8915
   91SAPE   C12 8859   1.664   3.277   7.100  0.2512  0.2028  0.7072
   91SAPE  H12A 8860   1.632   3.335   7.190  0.5826  1.6630 -0.0838
   91SAPE  H12B 8861   1.579   3.278   7.029  0.4397 -0.5102  0.4606
   91SAPE   C11 8862   1.790   3.331   7.035 -0.1472  0.0127 -0.1274
   91SAPE  H11A 8863   1.778   3.433   6.992  1.0153 -0.1441 -0.8696
   91SAPE  H11B 8864   1.808   3.265   6.947 -0.4357 -0.6361  0.2961
   91SAPE     P 8865   1.936   3.448   7.217  0.6530 -0.0882 -0.1568
   91SAPE   O13 8866   1.818   3.498   7.291 -0.6396  0.2196  0.2754
   91SAPE   O14 8867   2.056   3.413   7.301  0.4325 -0.5744  0.4531
   91SAPE   O12 8868   1.895   3.321   7.125 -0.6282 -0.0782 -0.0234
   91SAPE   O11 8869   1.968   3.553   7.097 -0.0644  0.0157 -0.3009
   91SAPE    C1 8870   2.068   3.523   7.000 -0.6142  0.1422  0.4236
   91SAPE    HA 8871   2.165   3.558   7.043 -1.0899  0.2932  1.3966
   91SAPE    HB 8872   2.085   3.414   6.991 -0.2880  0.2631 -0.4886
   91SAPE    C2 8873   2.049   3.593   6.863 -0.3976 -0.4538  0.3614
   91SAPE    HS 8874   2.019   3.696   6.891 -0.2587 -0.2673 -0.1728
   91SAPE   O21 8875   1.947   3.532   6.787  0.2683 -0.1505  0.5287
   91SAPE   C21 8876   1.844   3.606   6.744  0.5367  0.0201  0.0582
   91SAPE   O22 8877   1.821   3.722   6.784 -0.3665 -0.3045  0.3627
   91SAPE   C22 8878   1.776   3.529   6.638  0.2736  0.3665  0.4899
   91SAPE   H2R 8879   1.849   3.486   6.566  1.0246  3.4507 -0.7556
   91SAPE   H2S 8880   1.719   3.453   6.697 -0.9738  3.6567  3.9152
   91SAPE    C3 8881   2.182   3.602   6.770  0.6074 -0.3538 -0.4771
   91SAPE    HX 8882   2.239   3.507   6.770  1.0051 -0.1477  1.0062
   91SAPE    HY 8883   2.253   3.675   6.816  1.2024 -0.9622 -0.4094
   91SAPE   O31 8884   2.143   3.638   6.634  0.3039 -0.3094 -0.0814
   91SAPE   C31 8885   2.145   3.766   6.601  0.5138 -0.3513  0.2875
   91SAPE   O32 8886   2.194   3.852   6.672 -0.2813  0.1647 -0.0859
   91SAPE   C32 8887   2.094   3.783   6.464 -0.1197 -0.3711  0.2019
   91SAPE   H2X 8888   2.168   3.822   6.391 -1.2510 -0.7175 -1.1842
   91SAPE   H2Y 8889   2.008   3.853   6.468 -0.6056 -0.8749 -0.9321
   91SAPE   C23 8890   1.679   3.616   6.556 -0.2036 -0.7816  0.0741
   91SAPE   H3R 8891   1.747   3.683   6.498  1.5582 -0.2094  2.6219
   91SAPE   H3S 8892   1.624   3.675   6.632 -0.6593 -0.2704 -0.6356
   91SAPE   C24 8893   1.582   3.550   6.460 -0.4966  0.4833  0.1698
   91SAPE   H4R 8894   1.524   3.482   6.526  3.0554 -0.6941  2.3547
   91SAPE   H4S 8895   1.647   3.493   6.390 -0.0978  0.6412  0.4081
   91SAPE   C25 8896   1.498   3.650   6.385 -0.1665 -0.8631  0.9351
   91SAPE   H5R 8897   1.459   3.730   6.450 -0.9412  0.7679 -1.3704
   91SAPE   C26 8898   1.465   3.649   6.253 -0.2841  0.6165 -0.4028
   91SAPE   H6R 8899   1.411   3.738   6.217  0.1419  0.7108 -0.8215
   91SAPE   C27 8900   1.503   3.539   6.159 -0.0623 -0.2400  0.0593
   91SAPE   H7R 8901   1.489   3.436   6.200 -2.2064  0.8505  2.3508
   91SAPE   H7S 8902   1.607   3.564   6.132 -0.6867  1.1964 -1.1558
   91SAPE   C28 8903   1.414   3.559   6.042 -0.3786 -0.6657 -0.1051
   91SAPE   H8R 8904   1.310   3.581   6.071 -0.1199  0.3631  0.0672
   91SAPE   C29 8905   1.442   3.548   5.909 -0.6066  0.5148  0.1682
   91SAPE   H9R 8906   1.359   3.575   5.842  0.1589  2.9623  0.1137
   91SAPE  C210 8907   1.573   3.509   5.848  0.3736 -0.3105  0.2883
   91SAPE  H10R 8908   1.580   3.399   5.855 -0.5427 -0.5394 -1.7706
   91SAPE  H10S 8909   1.655   3.554   5.908 -0.2221  0.7725  0.3185
   91SAPE  C211 8910   1.592   3.564   5.709  0.5550  0.5108 -0.1701
   91SAPE  H11R 8911   1.625   3.669   5.711  1.4346  0.2287  1.3303
   91SAPE  C212 8912   1.560   3.504   5.590  0.0895 -0.3478 -0.0999
   91SAPE  H12R 8913   1.582   3.552   5.493  0.9401  0.0550  0.2811
   91SAPE  C213 8914   1.519   3.360   5.583 -0.7187  0.2139 -0.7130
   91SAPE  H13R 8915   1.416   3.340   5.621 -0.7948  0.7437 -0.6255
   91SAPE  H13S 8916   1.590   3.308   5.650 -0.0211  1.4732 -0.4459
   91SAPE  C214 8917   1.521   3.286   5.453 -0.6489 -0.2518 -0.5548
   91SAPE  H14R 8918   1.617   3.237   5.431 -0.2033  0.2338  0.2370
   91SAPE  C215 8919   1.415   3.288   5.372  0.3175  0.7065  0.3837
   91SAPE  H15R 8920   1.428   3.246   5.271 -0.5559  1.4366 -0.0398
   91SAPE  C216 8921   1.290   3.365   5.400 -0.5114 -0.2419 -0.3354
   91SAPE  H16R 8922   1.299   3.451   5.470 -0.9610  0.9660 -1.7068
   91SAPE  H16S 8923   1.207   3.299   5.432 -0.1993 -0.3641  0.2417
   91SAPE  C217 8924   1.250   3.430   5.267  0.6864 -0.2464 -0.1411
   91SAPE  H17R 8925   1.248   3.355   5.185  3.3930  1.4939 -2.0055
   91SAPE  H17S 8926   1.327   3.505   5.239 -0.5646  0.9288 -0.5528
   91SAPE  C218 8927   1.112   3.503   5.267 -0.1170  0.0427 -0.0374
   91SAPE  H18R 8928   1.115   3.584   5.343  2.5206 -0.2632  0.2662
   91SAPE  H18S 8929   1.036   3.427   5.294 -1.8752  1.3945 -1.0001
   91SAPE  C219 8930   1.077   3.560   5.136 -0.0693 -0.4877  0.4180
   91SAPE  H19R 8931   1.158   3.629   5.104  0.8882 -1.7696  0.0214
   91SAPE  H19S 8932   0.987   3.626   5.139  0.1040 -0.1943 -0.5293
   91SAPE  C220 8933   1.056   3.462   5.016 -0.4272 -0.0823 -0.6959
   91SAPE  H20R 8934   1.138   3.389   4.998  2.9439  2.7572  1.8256
   91SAPE  H20S 8935   1.038   3.525   4.927  0.0311 -2.7880 -2.8524
   91SAPE  H20T 8936   0.956   3.419   5.039 -0.2587  0.0777  0.3875
   91SAPE   C33 8937   2.036   3.662   6.391  0.0587 -0.0173  0.1962
   91SAPE   H3X 8938   1.958   3.615   6.454  0.4192 -1.0417 -0.0931
   91SAPE   H3Y 8939   2.111   3.581   6.373 -0.6015 -0.1754 -2.1014
   91SAPE   C34 8940   1.958   3.701   6.261 -0.6511  0.3630 -0.3007
   91SAPE   H4X 8941   1.875   3.773   6.275 -1.4641 -0.6434  0.1732
   91SAPE   H4Y 8942   1.917   3.600   6.242 -0.0982  0.2995 -1.2190
   91SAPE   C35 8943   2.060   3.740   6.151  0.6010  0.3516 -0.1881
   91SAPE   H5X 8944   2.125   3.651   6.139 -2.1270 -1.8091  0.0373
   91SAPE   H5Y 8945   2.121   3.828   6.179  0.7752  0.2976 -0.3970
   91SAPE   C36 8946   1.979   3.773   6.026 -0.3656  0.0065  0.1682
   91SAPE   H6X 8947   1.928   3.870   6.043  1.0525  0.8284 -0.1249
   91SAPE   H6Y 8948   1.903   3.693   6.015 -1.8513  1.4182 -0.3332
   91SAPE   C37 8949   2.063   3.797   5.901  0.1632 -0.0458 -0.6852
   91SAPE   H7X 8950   2.155   3.735   5.909  0.8685  1.2379  3.4042
   91SAPE   H7Y 8951   2.093   3.903   5.897 -1.5712  0.4748 -0.9541
   91SAPE   C38 8952   1.982   3.771   5.767 -0.4745 -0.7855 -0.0816
   91SAPE   H8X 8953   1.902   3.844   5.742 -0.3488 -1.0140 -1.1889
   91SAPE   H8Y 8954   1.918   3.681   5.782 -3.6011  1.5054  1.9160
   91SAPE   C39 8955   2.057   3.752   5.639 -0.3046 -0.1899  0.1769
   91SAPE   H9X 8956   2.121   3.665   5.664 -2.4606 -1.7091  0.6897
   91SAPE   H9Y 8957   2.114   3.842   5.608 -0.4254  0.0289  0.5880
   91SAPE  C310 8958   1.969   3.721   5.520  0.1301  0.5601 -0.4293
   91SAPE  H10X 8959   1.906   3.636   5.553 -2.6738  2.2497 -1.1498
   91SAPE  H10Y 8960   2.038   3.702   5.435 -0.3607  2.1511 -1.2137
   91SAPE  C311 8961   1.876   3.834   5.474 -0.3294 -0.0066 -0.2632
   91SAPE  H11X 8962   1.941   3.921   5.454 -0.0516 -0.1014  0.2198
   91SAPE  H11Y 8963   1.808   3.870   5.554  0.8473  0.1300  0.6941
   91SAPE  C312 8964   1.786   3.796   5.353 -0.2618  0.1328  0.1341
   91SAPE  H12X 8965   1.722   3.883   5.329 -0.4020 -0.1417 -0.5213
   91SAPE  H12Y 8966   1.708   3.725   5.389  0.3546 -0.9379 -0.5633
   91SAPE  C313 8967   1.867   3.752   5.232 -0.0012  0.1564 -0.1883
   91SAPE  H13X 8968   1.923   3.662   5.266  1.6572  1.7500  1.5065
   91SAPE  H13Y 8969   1.931   3.835   5.196  2.3132 -1.2370  0.5593
   91SAPE  C314 8970   1.780   3.701   5.113 -0.5920 -0.0208 -0.7695
   91SAPE  H14X 8971   1.707   3.781   5.087 -2.5915 -1.0608  1.2616
   91SAPE  H14Y 8972   1.708   3.630   5.160  0.1215 -0.5695 -0.4906
   91SAPE  C315 8973   1.845   3.631   4.988  0.5882  0.0381 -0.2842
   91SAPE  H15X 8974   1.851   3.522   5.005 -0.1292 -0.3131 -1.9934
   91SAPE  H15Y 8975   1.951   3.662   4.978  0.0047  2.3283  0.0152
   91SAPE  C316 8976   1.766   3.661   4.870  0.1750  0.3216 -0.7714
   91SAPE  H16X 8977   1.747   3.769   4.858  4.2753  1.7650  3.0107
   91SAPE  H16Y 8978   1.663   3.620   4.882 -0.1063  0.3731 -2.7182
   91SAPE  C317 8979   1.837   3.604   4.743 -0.1725 -0.0583 -0.1556
   91SAPE  H17X 8980   1.860   3.496   4.754  2.9400  0.5712  0.5290
   91SAPE  H17Y 8981   1.939   3.648   4.747 -0.8474  1.6092 -0.6283
   91SAPE  C318 8982   1.765   3.634   4.616  0.2735 -0.1269 -0.4819
   91SAPE  H18X 8983   1.802   3.580   4.526 -0.9939 -0.0828 -1.0536
   91SAPE  H18Y 8984   1.773   3.743   4.594 -0.6531  0.3820  1.4835
   91SAPE  H18Z 8985   1.657   3.612   4.630  0.3277  0.7772  1.7617
   92SAPE     N 8986   2.264   4.381   7.482 -0.3029 -0.1844  0.3863
   92SAPE   HN1 8987   2.176   4.429   7.457  0.4680  0.9251 -0.2636
   92SAPE   HN2 8988   2.246   4.331   7.572  0.4369  0.9932  1.2087
   92SAPE   HN3 8989   2.336   4.453   7.504  2.0490 -1.8092 -1.4401
   92SAPE   C12 8990   2.300   4.283   7.366  0.1423 -0.5276  0.0134
   92SAPE  H12A 8991   2.204   4.232   7.344 -0.2326 -1.3084  2.9828
   92SAPE  H12B 8992   2.370   4.209   7.410  1.8864  0.9804 -0.1344
   92SAPE   C11 8993   2.350   4.355   7.253  0.7116 -0.0715  0.0024
   92SAPE  H11A 8994   2.365   4.294   7.162 -0.9287  2.0304 -1.7961
   92SAPE  H11B 8995   2.445   4.410   7.268  0.8842 -0.3373 -0.1167
   92SAPE     P 8996   2.123   4.432   7.128  0.4279 -0.1844 -0.4797
   92SAPE   O13 8997   2.030   4.343   7.188 -0.6693 -0.5117 -0.1136
   92SAPE   O14 8998   2.063   4.562   7.095  0.3500  0.0314  0.6077
   92SAPE   O12 8999   2.253   4.465   7.220 -0.0524  0.5943 -0.2099
   92SAPE   O11 9000   2.190   4.367   6.996  0.2314 -0.0117  0.2086
   92SAPE    C1 9001   2.307   4.399   6.935 -0.5640  0.3683  0.7600
   92SAPE    HA 9002   2.364   4.474   6.994 -0.0437  1.2015 -0.7219
   92SAPE    HB 9003   2.372   4.309   6.935 -1.0994 -0.0216  1.0927
   92SAPE    C2 9004   2.287   4.461   6.801 -0.7582 -0.2055  0.2449
   92SAPE    HS 9005   2.210   4.541   6.816 -0.8948 -0.1018 -0.9044
   92SAPE   O21 9006   2.235   4.362   6.703 -0.8105  0.3524 -0.5543
   92SAPE   C21 9007   2.107   4.352   6.707  0.1277  0.1952  0.0748
   92SAPE   O22 9008   2.026   4.427   6.761 -0.6288 -0.1039 -0.2830
   92SAPE   C22 9009   2.078   4.228   6.623  0.6274  0.2991 -0.3042
   92SAPE   H2R 9010   2.132   4.232   6.526 -0.2719  0.1022 -0.8215
   92SAPE   H2S 9011   2.108   4.143   6.689  0.5752  0.3670 -0.1937
   92SAPE    C3 9012   2.422   4.519   6.740  0.1042  0.3645  0.5604
   92SAPE    HX 9013   2.499   4.440   6.735 -1.8294 -1.6370  0.9628
   92SAPE    HY 9014   2.453   4.597   6.813  0.6376 -1.9767  2.9326
   92SAPE   O31 9015   2.416   4.575   6.604 -0.2880 -0.8356 -0.5147
   92SAPE   C31 9016   2.344   4.689   6.593  0.0221  0.1683 -0.1080
   92SAPE   O32 9017   2.295   4.744   6.684 -0.3750 -0.4674 -0.6665
   92SAPE   C32 9018   2.346   4.724   6.446 -0.4316  0.2181 -0.0835
   92SAPE   H2X 9019   2.413   4.657   6.387  2.4506  2.4179  0.4758
   92SAPE   H2Y 9020   2.381   4.830   6.446  0.3318  0.0336  2.4762
   92SAPE   C23 9021   1.923   4.228   6.603 -0.0800  0.1395 -0.4896
   92SAPE   H3R 9022   1.910   4.286   6.509  1.2745 -0.8110 -1.2868
   92SAPE   H3S 9023   1.862   4.287   6.676  1.5443 -0.0223  1.0688
   92SAPE   C24 9024   1.854   4.096   6.600  0.4081 -0.4810 -0.4062
   92SAPE   H4R 9025   1.883   4.046   6.695  2.9817 -0.3313 -1.0371
   92SAPE   H4S 9026   1.894   4.029   6.520  0.5140  0.0502 -0.8008
   92SAPE   C25 9027   1.708   4.091   6.594  0.0573 -0.0460  0.0408
   92SAPE   H5R 9028   1.660   4.109   6.691 -0.3291  1.3722 -0.3861
   92SAPE   C26 9029   1.628   4.052   6.493  0.5796 -0.5746 -0.3768
   92SAPE   H6R 9030   1.520   4.050   6.515  0.1338  1.5748 -2.0086
   92SAPE   C27 9031   1.669   4.016   6.353 -0.0759 -0.5257 -0.3341
   92SAPE   H7R 9032   1.641   3.912   6.328 -1.8140 -0.2837  0.4369
   92SAPE   H7S 9033   1.780   4.014   6.350 -0.0858 -1.7725 -0.0564
   92SAPE   C28 9034   1.605   4.112   6.257  0.2110  0.5215  0.2697
   92SAPE   H8R 9035   1.580   4.209   6.301  1.5978  0.5492  1.0651
   92SAPE   C29 9036   1.551   4.088   6.134 -0.9441  0.2430 -0.0800
   92SAPE   H9R 9037   1.527   4.173   6.069  0.8952  0.1098 -1.0047
   92SAPE  C210 9038   1.562   3.954   6.060 -0.8241 -0.3620 -0.6015
   92SAPE  H10R 9039   1.460   3.909   6.055 -1.8340  1.5638  1.0523
   92SAPE  H10S 9040   1.613   3.879   6.124 -2.4643 -0.1232  1.0827
   92SAPE  C211 9041   1.631   3.970   5.932 -0.0699  0.6112  0.0269
   92SAPE  H11R 9042   1.741   3.978   5.940  0.3873  0.0323 -3.6999
   92SAPE  C212 9043   1.576   3.980   5.802 -0.9522 -0.0313  0.2085
   92SAPE  H12R 9044   1.649   3.981   5.719  0.8812 -3.7295  1.5662
   92SAPE  C213 9045   1.434   3.990   5.763  0.1530  0.9366 -0.5339
   92SAPE  H13R 9046   1.427   4.062   5.678  1.9585 -0.0795 -1.6162
   92SAPE  H13S 9047   1.373   4.048   5.836  0.3335  0.8576 -0.3158
   92SAPE  C214 9048   1.374   3.854   5.725  0.4537 -0.1513  0.0644
   92SAPE  H14R 9049   1.361   3.781   5.805 -1.1708 -1.9881 -1.7568
   92SAPE  C215 9050   1.307   3.815   5.614  0.1326  0.3905  0.1956
   92SAPE  H15R 9051   1.261   3.715   5.606 -2.1352  1.3097  1.0990
   92SAPE  C216 9052   1.268   3.902   5.496 -0.4546 -0.3948  0.1320
   92SAPE  H16R 9053   1.235   4.003   5.528  1.8291  0.2293  0.7306
   92SAPE  H16S 9054   1.196   3.855   5.426 -1.0874  1.4996 -0.5615
   92SAPE  C217 9055   1.395   3.927   5.410 -0.4801 -0.2251 -0.1327
   92SAPE  H17R 9056   1.434   3.830   5.373  3.2103  0.7932  0.7172
   92SAPE  H17S 9057   1.477   3.978   5.465 -1.5736  0.3749  0.9889
   92SAPE  C218 9058   1.365   4.011   5.285  0.4127 -0.2947 -0.8307
   92SAPE  H18R 9059   1.336   4.114   5.316 -1.6749 -0.8855 -0.6772
   92SAPE  H18S 9060   1.285   3.971   5.219 -1.5282  2.4768 -0.3569
   92SAPE  C219 9061   1.487   4.033   5.200  0.9150 -0.8925 -0.4654
   92SAPE  H19R 9062   1.452   4.075   5.103 -0.7435 -0.5248  0.2581
   92SAPE  H19S 9063   1.540   3.937   5.183  3.0509  0.2444 -0.5222
   92SAPE  C220 9064   1.586   4.140   5.259  0.0998  0.4991  0.2607
   92SAPE  H20R 9065   1.547   4.243   5.270  0.2412  0.3482  2.5157
   92SAPE  H20S 9066   1.676   4.143   5.194 -0.5441  1.2721 -0.6186
   92SAPE  H20T 9067   1.619   4.113   5.361 -2.9402 -0.2363  1.1359
   92SAPE   C33 9068   2.209   4.724   6.372  0.2873  0.2389  0.7491
   92SAPE   H3X 9069   2.158   4.816   6.407 -1.1674 -0.6357  1.0438
   92SAPE   H3Y 9070   2.161   4.630   6.409 -0.6306 -0.3949 -1.8578
   92SAPE   C34 9071   2.218   4.696   6.225 -0.0651  0.3587  0.3420
   92SAPE   H4X 9072   2.259   4.595   6.208 -0.6008 -0.5812  3.9324
   92SAPE   H4Y 9073   2.289   4.766   6.175 -0.4010 -2.0325 -4.0152
   92SAPE   C35 9074   2.089   4.709   6.140  0.3964 -0.0011 -0.2627
   92SAPE   H5X 9075   2.108   4.717   6.031  0.0118  0.8316 -0.2741
   92SAPE   H5Y 9076   2.036   4.801   6.172 -0.3584 -0.4300 -0.2646
   92SAPE   C36 9077   1.974   4.603   6.142  0.0584 -0.0985 -0.1766
   92SAPE   H6X 9078   1.930   4.601   6.244 -1.3600 -1.9601 -0.7643
   92SAPE   H6Y 9079   2.047   4.521   6.122 -0.3045 -0.1553 -1.3914
   92SAPE   C37 9080   1.876   4.611   6.030 -0.6574  0.1989  0.5266
   92SAPE   H7X 9081   1.818   4.517   6.024 -2.3602  1.2858 -2.8359
   92SAPE   H7Y 9082   1.910   4.630   5.926 -4.1122  1.6645 -0.4867
   92SAPE   C38 9083   1.781   4.725   6.053  0.3818  0.3967  0.4386
   92SAPE   H8X 9084   1.820   4.803   6.122  0.5830  0.3394  0.3902
   92SAPE   H8Y 9085   1.681   4.698   6.093  0.0480  1.8391  0.6535
   92SAPE   C39 9086   1.749   4.795   5.918 -0.5130 -0.5861  0.2672
   92SAPE   H9X 9087   1.662   4.859   5.944  0.8279  1.7558 -0.6683
   92SAPE   H9Y 9088   1.716   4.724   5.839 -0.7775 -0.0848 -0.0760
   92SAPE  C310 9089   1.860   4.892   5.876 -0.0329 -0.6432  0.0567
   92SAPE  H10X 9090   1.950   4.833   5.850  0.4827 -0.1481  0.6906
   92SAPE  H10Y 9091   1.872   4.970   5.954 -1.5835  0.1716 -0.4667
   92SAPE  C311 9092   1.810   4.975   5.755  0.0942  0.0847  0.1785
   92SAPE  H11X 9093   1.871   5.067   5.768 -1.6665  1.0209  2.6173
   92SAPE  H11Y 9094   1.701   4.994   5.766 -0.6353 -3.3811  0.0174
   92SAPE  C312 9095   1.836   4.923   5.620 -0.3213  0.7279  0.4526
   92SAPE  H12X 9096   1.812   4.815   5.613  0.3394  0.4741  1.7175
   92SAPE  H12Y 9097   1.946   4.928   5.604 -0.5205  0.1053 -1.3034
   92SAPE  C313 9098   1.767   4.997   5.511  0.1687  0.7883 -0.0794
   92SAPE  H13X 9099   1.805   5.102   5.512  1.6644  0.2782 -0.7783
   92SAPE  H13Y 9100   1.659   5.009   5.533  0.3953  0.3709  1.3449
   92SAPE  C314 9101   1.803   4.938   5.375 -0.0159  0.0916  0.2501
   92SAPE  H14X 9102   1.912   4.937   5.353 -0.3457  1.6400 -1.6905
   92SAPE  H14Y 9103   1.761   5.015   5.307 -1.3965  2.3170  3.3979
   92SAPE  C315 9104   1.737   4.795   5.355 -0.0123  0.9227  0.1347
   92SAPE  H15X 9105   1.628   4.817   5.362  0.0315  1.3787 -0.5072
   92SAPE  H15Y 9106   1.757   4.719   5.433  0.2019  0.6353 -0.2003
   92SAPE  C316 9107   1.769   4.736   5.213 -0.4539 -0.4715  0.1830
   92SAPE  H16X 9108   1.862   4.675   5.219 -0.5277 -0.7967 -1.4768
   92SAPE  H16Y 9109   1.796   4.813   5.138 -1.2980 -1.0490 -0.7401
   92SAPE  C317 9110   1.662   4.643   5.163 -0.6055 -0.6056 -0.8399
   92SAPE  H17X 9111   1.567   4.696   5.141 -0.4728 -0.4039 -0.9237
   92SAPE  H17Y 9112   1.631   4.573   5.244  0.0708  0.4739  0.3933
   92SAPE  C318 9113   1.680   4.552   5.041 -0.8134 -0.1716 -0.5069
   92SAPE  H18X 9114   1.584   4.526   4.993 -1.3914  1.8287 -0.5212
   92SAPE  H18Y 9115   1.748   4.467   5.063 -1.3882 -1.0718 -2.1076
   92SAPE  H18Z 9116   1.733   4.621   4.971 -1.6155  1.3855  0.3753
   93SAPE     N 9117   5.426   2.014   7.153  0.2411 -0.6121  0.4254
   93SAPE   HN1 9118   5.468   2.109   7.150  0.1189 -0.5688 -0.0872
   93SAPE   HN2 9119   5.414   1.990   7.253  1.9464  0.6576  0.9757
   93SAPE   HN3 9120   5.474   1.949   7.088  1.1638  2.4168 -2.2177
   93SAPE   C12 9121   5.282   2.031   7.103 -0.1241  0.4403  0.0153
   93SAPE  H12A 9122   5.286   1.973   7.009  0.9166 -0.4339  0.5824
   93SAPE  H12B 9123   5.252   2.137   7.083 -1.5520 -0.3859 -2.7394
   93SAPE   C11 9124   5.189   1.953   7.200 -0.2357  0.3223  0.0640
   93SAPE  H11A 9125   5.083   1.969   7.170 -0.7701 -2.4196  0.2541
   93SAPE  H11B 9126   5.202   1.993   7.303  0.9134 -1.2226  0.5487
   93SAPE     P 9127   5.132   1.715   7.263  0.3812  0.1840  0.2511
   93SAPE   O13 9128   5.148   1.587   7.191 -0.4062  0.0283 -0.1344
   93SAPE   O14 9129   5.150   1.711   7.411  0.1416 -0.3259 -0.0428
   93SAPE   O12 9130   5.229   1.813   7.187 -0.5718  0.5896  0.4363
   93SAPE   O11 9131   4.996   1.779   7.223 -0.6936  0.0641 -0.6136
   93SAPE    C1 9132   4.899   1.712   7.144  0.3399 -0.4397  0.6614
   93SAPE    HA 9133   4.933   1.633   7.073 -3.2830 -0.2184 -1.5974
   93SAPE    HB 9134   4.823   1.665   7.210 -0.0561 -0.3270  0.2880
   93SAPE    C2 9135   4.817   1.820   7.057  0.0374  0.1575 -0.8466
   93SAPE    HS 9136   4.739   1.765   7.001  0.2952 -0.1682 -0.8929
   93SAPE   O21 9137   4.903   1.886   6.962  0.2533  0.0830  0.4198
   93SAPE   C21 9138   4.943   1.822   6.847 -0.6217  0.2760 -0.3047
   93SAPE   O22 9139   4.902   1.715   6.807 -0.3649 -0.4507 -0.2698
   93SAPE   C22 9140   5.061   1.901   6.793 -0.5685 -0.5146 -0.3406
   93SAPE   H2R 9141   5.043   2.011   6.794  0.5122 -0.3144  0.8449
   93SAPE   H2S 9142   5.152   1.870   6.850  1.3437  1.7553 -1.9476
   93SAPE    C3 9143   4.747   1.930   7.148 -0.5222 -0.6113  0.6122
   93SAPE    HX 9144   4.829   1.983   7.201  0.4493 -2.3103  0.8689
   93SAPE    HY 9145   4.690   1.884   7.232  1.6011  0.7163  2.9201
   93SAPE   O31 9146   4.665   2.023   7.071 -0.1501 -0.1665  0.0554
   93SAPE   C31 9147   4.542   1.976   7.047 -0.2311  0.0533 -0.2795
   93SAPE   O32 9148   4.487   1.886   7.113  0.1856  0.0315 -0.5607
   93SAPE   C32 9149   4.468   2.060   6.938  0.1052 -0.2888  0.0849
   93SAPE   H2X 9150   4.485   2.168   6.959 -1.4301 -0.0465  0.1708
   93SAPE   H2Y 9151   4.360   2.038   6.949 -0.2962  2.1113  1.7289
   93SAPE   C23 9152   5.102   1.858   6.641  0.1818  0.5638  1.0206
   93SAPE   H3R 9153   5.098   1.747   6.634 -0.3074  0.6703 -1.0522
   93SAPE   H3S 9154   5.207   1.894   6.634 -0.1931  1.7852  1.3380
   93SAPE   C24 9155   5.021   1.924   6.526  0.5101 -0.3365 -0.4761
   93SAPE   H4R 9156   4.912   1.926   6.549  0.8278  2.0731  1.1744
   93SAPE   H4S 9157   5.047   1.874   6.431  0.7027 -0.0715 -0.5642
   93SAPE   C25 9158   5.060   2.069   6.524 -0.1428 -0.7164  0.1253
   93SAPE   H5R 9159   5.028   2.133   6.607  0.1192  0.0058 -0.3202
   93SAPE   C26 9160   5.139   2.124   6.431  0.4379  0.2488 -0.2540
   93SAPE   H6R 9161   5.184   2.222   6.451 -0.7648  0.8025 -0.1485
   93SAPE   C27 9162   5.213   2.052   6.323  0.4142  0.0163  0.8167
   93SAPE   H7R 9163   5.179   2.098   6.228  0.2609 -1.5713  0.0839
   93SAPE   H7S 9164   5.171   1.951   6.305 -3.3747  1.6863 -0.8249
   93SAPE   C28 9165   5.363   2.042   6.342 -1.1661 -0.4353  0.8701
   93SAPE   H8R 9166   5.403   2.001   6.435  1.9401 -1.4001 -0.7508
   93SAPE   C29 9167   5.459   2.102   6.267  0.2183  0.7786  0.4238
   93SAPE   H9R 9168   5.563   2.079   6.291  0.4507 -2.0321 -2.5528
   93SAPE  C210 9169   5.443   2.178   6.141  0.3401 -0.4323  0.3119
   93SAPE  H10R 9170   5.358   2.129   6.089 -0.1085 -1.2354  1.7471
   93SAPE  H10S 9171   5.524   2.143   6.073 -0.0399 -0.0448 -0.3491
   93SAPE  C211 9172   5.427   2.326   6.145  0.0307 -0.2734  0.4215
   93SAPE  H11R 9173   5.439   2.360   6.249  1.7869 -0.4761  0.3200
   93SAPE  C212 9174   5.426   2.403   6.033  0.1885  0.4583 -0.3512
   93SAPE  H12R 9175   5.389   2.504   6.057 -0.0459  0.1888  0.4577
   93SAPE  C213 9176   5.411   2.352   5.888 -0.3198 -0.1901  0.1142
   93SAPE  H13R 9177   5.441   2.246   5.879  2.0820  0.5109 -0.7754
   93SAPE  H13S 9178   5.482   2.411   5.826  0.0707  0.5450  1.2248
   93SAPE  C214 9179   5.274   2.372   5.842 -0.1561 -0.4006 -0.3054
   93SAPE  H14R 9180   5.241   2.476   5.853  0.6814 -0.0181 -1.3541
   93SAPE  C215 9181   5.187   2.277   5.811  0.4896  0.3211  0.1834
   93SAPE  H15R 9182   5.090   2.306   5.766  0.4096 -1.5868 -0.9980
   93SAPE  C216 9183   5.218   2.132   5.802  0.2181  0.4567 -0.5305
   93SAPE  H16R 9184   5.131   2.067   5.826  1.8659 -1.4858  0.4140
   93SAPE  H16S 9185   5.290   2.106   5.882 -0.2546  1.1752  0.1460
   93SAPE  C217 9186   5.279   2.092   5.671 -0.2666  0.4630  0.4825
   93SAPE  H17R 9187   5.298   1.983   5.675  0.3035  0.5556  0.3612
   93SAPE  H17S 9188   5.381   2.135   5.670  0.2399 -0.6977 -0.2574
   93SAPE  C218 9189   5.205   2.132   5.541 -0.5528 -0.1706  0.3843
   93SAPE  H18R 9190   5.202   2.243   5.545  2.0263 -0.0588  2.4274
   93SAPE  H18S 9191   5.103   2.088   5.542 -0.8458  0.4625 -0.5295
   93SAPE  C219 9192   5.275   2.082   5.415 -1.0719 -0.0394  0.4755
   93SAPE  H19R 9193   5.306   1.978   5.439  0.2961  0.5563  1.4155
   93SAPE  H19S 9194   5.367   2.143   5.400 -0.1208 -1.1128  1.6665
   93SAPE  C220 9195   5.187   2.082   5.290 -0.0164 -0.5065  0.5058
   93SAPE  H20R 9196   5.164   2.187   5.264  0.2346  0.5234  3.9195
   93SAPE  H20S 9197   5.093   2.029   5.319  0.3681 -0.8391  1.1716
   93SAPE  H20T 9198   5.240   2.031   5.207  0.2814  1.5747 -0.6537
   93SAPE   C33 9199   4.521   2.018   6.796 -0.1702  0.4185 -0.7237
   93SAPE   H3X 9200   4.629   2.042   6.789  0.3949 -0.9614  1.8654
   93SAPE   H3Y 9201   4.472   2.094   6.732  0.6322  1.1168 -0.5327
   93SAPE   C34 9202   4.494   1.871   6.760  0.0165  0.1357 -0.3282
   93SAPE   H4X 9203   4.383   1.866   6.758  0.0554 -2.0552  0.2644
   93SAPE   H4Y 9204   4.528   1.807   6.845 -1.4435 -0.3063 -0.0508
   93SAPE   C35 9205   4.543   1.829   6.621  0.4512 -0.5648  0.2062
   93SAPE   H5X 9206   4.523   1.721   6.606  2.1719 -1.4377  3.2297
   93SAPE   H5Y 9207   4.652   1.853   6.617  0.9943 -2.6741  1.2497
   93SAPE   C36 9208   4.450   1.888   6.512  1.0052 -1.4492 -0.0704
   93SAPE   H6X 9209   4.474   1.997   6.515 -1.4760 -0.8486  2.2580
   93SAPE   H6Y 9210   4.349   1.874   6.556  0.0320  3.1122 -0.3131
   93SAPE   C37 9211   4.465   1.823   6.369 -0.3438  0.0596 -0.0349
   93SAPE   H7X 9212   4.417   1.891   6.295 -1.8823 -0.2803  0.6077
   93SAPE   H7Y 9213   4.409   1.727   6.371  0.4396 -0.3937  1.0680
   93SAPE   C38 9214   4.612   1.799   6.317  0.2437  0.3170  0.1232
   93SAPE   H8X 9215   4.673   1.734   6.383  2.6919  0.3869 -1.9421
   93SAPE   H8Y 9216   4.664   1.895   6.297 -1.7443  2.2154  3.1947
   93SAPE   C39 9217   4.616   1.713   6.189 -1.2337  0.0761 -0.4172
   93SAPE   H9X 9218   4.549   1.624   6.196  1.0369 -1.6729  0.0545
   93SAPE   H9Y 9219   4.717   1.673   6.168  0.1845  1.6155  2.8900
   93SAPE  C310 9220   4.566   1.786   6.066 -0.0892 -0.0789 -0.5064
   93SAPE  H10X 9221   4.627   1.878   6.049 -0.6180 -0.1599 -3.2760
   93SAPE  H10Y 9222   4.460   1.820   6.076 -0.2536 -1.1060  1.8001
   93SAPE  C311 9223   4.583   1.718   5.925  0.5012 -0.1602  0.0243
   93SAPE  H11X 9224   4.523   1.626   5.939 -1.1759  0.6072 -1.7105
   93SAPE  H11Y 9225   4.688   1.695   5.895  1.8117  3.5734  1.1521
   93SAPE  C312 9226   4.518   1.797   5.810 -0.0727  0.8200 -0.1953
   93SAPE  H12X 9227   4.556   1.901   5.816  4.0170 -0.5603  1.7807
   93SAPE  H12Y 9228   4.407   1.797   5.824  0.1788 -0.9944  2.6333
   93SAPE  C313 9229   4.535   1.727   5.674 -0.2120 -0.5341 -0.4828
   93SAPE  H13X 9230   4.518   1.617   5.681  0.7980 -0.6199  1.3737
   93SAPE  H13Y 9231   4.642   1.743   5.649 -0.1803 -0.5405 -0.3541
   93SAPE  C314 9232   4.466   1.786   5.555 -0.0128  0.4185 -0.4164
   93SAPE  H14X 9233   4.498   1.892   5.548  1.2348  0.2391  1.8001
   93SAPE  H14Y 9234   4.358   1.785   5.583  0.2768 -0.4191  0.7171
   93SAPE  C315 9235   4.473   1.700   5.425  0.4505  0.1197  0.4222
   93SAPE  H15X 9236   4.456   1.593   5.450  3.0929 -0.0163  1.9561
   93SAPE  H15Y 9237   4.581   1.686   5.400 -0.1805 -1.9661 -1.5241
   93SAPE  C316 9238   4.396   1.750   5.302  0.4553  0.0292 -0.1007
   93SAPE  H16X 9239   4.299   1.792   5.336  0.3000 -0.4315  0.0237
   93SAPE  H16Y 9240   4.385   1.665   5.231 -0.5856 -0.3908  0.5462
   93SAPE  C317 9241   4.460   1.872   5.220 -0.1141 -0.3393  0.2135
   93SAPE  H17X 9242   4.549   1.838   5.163 -0.2185  1.2450 -0.9810
   93SAPE  H17Y 9243   4.491   1.951   5.291  1.7030 -0.8248  0.0009
   93SAPE  C318 9244   4.361   1.933   5.118  0.3359 -0.0739 -0.2549
   93SAPE  H18X 9245   4.418   2.014   5.068  1.2724 -2.1712 -2.8685
   93SAPE  H18Y 9246   4.273   1.967   5.177 -1.4192 -0.8459 -2.2777
   93SAPE  H18Z 9247   4.322   1.856   5.048 -4.0415  1.3083  0.3815
   94SAPE     N 9248   1.826   4.625   7.185 -0.1896  0.6424 -0.2978
   94SAPE   HN1 9249   1.849   4.622   7.287 -1.4309 -1.6685 -0.0087
   94SAPE   HN2 9250   1.904   4.608   7.119 -2.1691 -1.4613 -2.2479
   94SAPE   HN3 9251   1.805   4.722   7.155 -0.7229  0.2045 -1.3881
   94SAPE   C12 9252   1.725   4.522   7.147 -0.1346 -0.3999 -0.8452
   94SAPE  H12A 9253   1.623   4.550   7.179  0.4402  1.1286 -0.2769
   94SAPE  H12B 9254   1.753   4.425   7.194 -2.2434 -0.9250 -0.5761
   94SAPE   C11 9255   1.744   4.500   6.998 -0.0374  0.1390  0.7106
   94SAPE  H11A 9256   1.694   4.404   6.971 -1.4767  0.4057  2.2767
   94SAPE  H11B 9257   1.853   4.488   6.980 -0.0203  0.5353  0.5465
   94SAPE     P 9258   1.526   4.627   6.896 -0.0928  0.1800 -0.5746
   94SAPE   O13 9259   1.456   4.578   7.020 -0.4741 -0.3426  0.6695
   94SAPE   O14 9260   1.502   4.768   6.859 -0.2087  0.7913 -0.2318
   94SAPE   O12 9261   1.680   4.612   6.927 -0.7910 -0.4881  0.2870
   94SAPE   O11 9262   1.495   4.523   6.778  0.4197  0.1141 -0.6041
   94SAPE    C1 9263   1.590   4.454   6.696 -0.0849  0.4113 -0.1731
   94SAPE    HA 9264   1.690   4.501   6.703  0.5525 -1.1215  2.7633
   94SAPE    HB 9265   1.598   4.349   6.731  0.6181  0.2238 -0.8454
   94SAPE    C2 9266   1.551   4.460   6.546  0.2676 -0.3807  0.1703
   94SAPE    HS 9267   1.622   4.391   6.497 -1.3422 -0.7483 -1.8101
   94SAPE   O21 9268   1.564   4.598   6.494  0.2099 -0.0339 -0.4422
   94SAPE   C21 9269   1.686   4.646   6.485  0.3722 -0.5868 -0.5030
   94SAPE   O22 9270   1.788   4.580   6.488 -0.2352  0.4725  0.0407
   94SAPE   C22 9271   1.675   4.801   6.449  0.1525  0.7354 -0.0507
   94SAPE   H2R 9272   1.627   4.812   6.350  0.8823  1.4207 -0.3314
   94SAPE   H2S 9273   1.612   4.847   6.528 -1.0062 -0.0999 -0.4588
   94SAPE    C3 9274   1.406   4.407   6.512 -0.1494  0.3634 -0.3068
   94SAPE    HX 9275   1.323   4.470   6.550 -1.9955 -1.9042 -0.3872
   94SAPE    HY 9276   1.398   4.312   6.569 -1.7665  0.8680  0.3442
   94SAPE   O31 9277   1.397   4.380   6.369  0.1559  0.7574  0.4440
   94SAPE   C31 9278   1.353   4.477   6.287  0.0038  0.6806 -0.4043
   94SAPE   O32 9279   1.306   4.580   6.326 -0.1495 -0.5452  0.9763
   94SAPE   C32 9280   1.377   4.437   6.137 -0.5372 -0.1044 -0.4127
   94SAPE   H2X 9281   1.371   4.328   6.117  0.9876 -0.3791  0.4501
   94SAPE   H2Y 9282   1.481   4.465   6.109  0.0060  0.3054  1.7909
   94SAPE   C23 9283   1.812   4.865   6.440 -0.1398 -0.0307 -0.4153
   94SAPE   H3R 9284   1.875   4.824   6.358 -0.1963 -0.0934 -0.4286
   94SAPE   H3S 9285   1.862   4.858   6.539 -0.9848  0.2118  0.0377
   94SAPE   C24 9286   1.813   5.012   6.401 -0.3940  0.3304  1.4086
   94SAPE   H4R 9287   1.919   5.044   6.405 -0.1265 -0.5225  1.2304
   94SAPE   H4S 9288   1.748   5.068   6.471 -0.1493  1.5103  0.7243
   94SAPE   C25 9289   1.774   5.042   6.255 -0.0888  0.5450 -0.2324
   94SAPE   H5R 9290   1.858   5.027   6.185 -0.9610  0.1225 -1.2093
   94SAPE   C26 9291   1.653   5.078   6.208  0.2891  0.0537  0.2739
   94SAPE   H6R 9292   1.633   5.083   6.100 -0.2115 -0.2169  0.3559
   94SAPE   C27 9293   1.532   5.112   6.287 -0.6135 -0.1502 -0.2639
   94SAPE   H7R 9294   1.563   5.148   6.387  0.2976  1.3446 -1.0501
   94SAPE   H7S 9295   1.469   5.022   6.307 -0.4426 -0.9614 -2.9763
   94SAPE   C28 9296   1.440   5.210   6.221  0.1288  0.8095  0.8017
   94SAPE   H8R 9297   1.435   5.220   6.111 -1.8074  0.2391  0.7982
   94SAPE   C29 9298   1.374   5.308   6.287 -0.0067 -0.1235 -0.1059
   94SAPE   H9R 9299   1.299   5.367   6.233  1.2228 -0.1822 -1.9232
   94SAPE  C210 9300   1.363   5.308   6.436 -0.3486  0.4561  0.6494
   94SAPE  H10R 9301   1.465   5.344   6.463 -0.7849  3.5816 -1.3343
   94SAPE  H10S 9302   1.361   5.204   6.476 -0.5306 -0.8907 -2.5450
   94SAPE  C211 9303   1.246   5.377   6.479 -0.1534  0.2533  0.1437
   94SAPE  H11R 9304   1.162   5.310   6.502 -1.1531  1.2606 -0.5009
   94SAPE  C212 9305   1.221   5.507   6.471 -0.1387 -0.1744  0.1391
   94SAPE  H12R 9306   1.116   5.540   6.476 -0.6573 -1.7303 -0.0274
   94SAPE  C213 9307   1.333   5.609   6.434 -0.3053 -0.3552  0.6587
   94SAPE  H13R 9308   1.382   5.578   6.339 -0.2554  0.6058  0.3552
   94SAPE  H13S 9309   1.405   5.597   6.517  4.7666  0.4471 -3.1262
   94SAPE  C214 9310   1.277   5.755   6.420 -0.1659  1.0255 -0.1573
   94SAPE  H14R 9311   1.236   5.810   6.506  0.5774  2.5468 -0.7382
   94SAPE  C215 9312   1.270   5.833   6.314 -0.6909 -0.4456  0.5482
   94SAPE  H15R 9313   1.210   5.923   6.335 -0.4297 -0.0550 -0.3137
   94SAPE  C216 9314   1.290   5.811   6.168  0.6404 -0.1714 -0.3272
   94SAPE  H16R 9315   1.357   5.724   6.150  0.5789 -0.0961 -0.9613
   94SAPE  H16S 9316   1.330   5.902   6.118  0.1519  1.8326  2.6576
   94SAPE  C217 9317   1.150   5.773   6.127  0.3794 -0.3080 -0.0598
   94SAPE  H17R 9318   1.073   5.846   6.159 -0.0752 -0.3204 -1.0940
   94SAPE  H17S 9319   1.121   5.673   6.165  0.6976 -0.3617  0.0426
   94SAPE  C218 9320   1.139   5.766   5.971 -0.5562  0.0163  0.2630
   94SAPE  H18R 9321   1.227   5.722   5.921 -0.2661  0.6463  0.2057
   94SAPE  H18S 9322   1.150   5.868   5.930  1.5096 -0.3475 -0.1503
   94SAPE  C219 9323   1.021   5.686   5.908  0.3438 -0.1673 -0.0090
   94SAPE  H19R 9324   0.999   5.600   5.975 -2.7538  0.4646 -0.0722
   94SAPE  H19S 9325   1.048   5.654   5.805  0.6629 -1.1350  0.3732
   94SAPE  C220 9326   0.901   5.775   5.905  0.4451  0.0738  0.3847
   94SAPE  H20R 9327   0.860   5.798   6.005 -1.1921 -0.0426 -0.2342
   94SAPE  H20S 9328   0.826   5.733   5.835  1.1312 -1.0575  0.2954
   94SAPE  H20T 9329   0.925   5.870   5.852  0.5692  0.8320  1.7485
   94SAPE   C33 9330   1.279   4.508   6.033 -0.1919 -0.5220  0.2712
   94SAPE   H3X 9331   1.285   4.616   6.056 -0.3334 -0.9303  2.4079
   94SAPE   H3Y 9332   1.178   4.472   6.063 -0.6792 -0.1595 -0.8668
   94SAPE   C34 9333   1.315   4.473   5.881  0.1560  0.3204 -0.6533
   94SAPE   H4X 9334   1.240   4.537   5.830  2.1211  2.8651 -0.5709
   94SAPE   H4Y 9335   1.296   4.366   5.857 -0.0421  0.7171 -2.4363
   94SAPE   C35 9336   1.458   4.497   5.840  0.1881  0.2159  0.9294
   94SAPE   H5X 9337   1.532   4.458   5.913  1.0737 -0.6373 -0.3836
   94SAPE   H5Y 9338   1.470   4.607   5.827  0.9159 -0.2184 -4.2583
   94SAPE   C36 9339   1.494   4.428   5.703 -0.3324  0.2485 -0.3893
   94SAPE   H6X 9340   1.429   4.476   5.627  0.3638  1.0614 -0.4864
   94SAPE   H6Y 9341   1.473   4.319   5.714  0.6876 -0.1568 -2.0807
   94SAPE   C37 9342   1.649   4.429   5.671  0.4717 -0.3055  0.0606
   94SAPE   H7X 9343   1.696   4.389   5.763 -0.1892 -3.1190 -0.7239
   94SAPE   H7Y 9344   1.680   4.533   5.650 -0.6965 -0.5404 -3.7006
   94SAPE   C38 9345   1.683   4.341   5.554 -0.2624 -0.1958 -0.8441
   94SAPE   H8X 9346   1.603   4.342   5.477 -0.8370  2.0698 -0.2803
   94SAPE   H8Y 9347   1.690   4.233   5.579 -1.1432 -0.0422  0.0904
   94SAPE   C39 9348   1.816   4.381   5.486  0.0322 -0.1332 -0.2511
   94SAPE   H9X 9349   1.850   4.472   5.539 -1.7637  1.2967 -1.4403
   94SAPE   H9Y 9350   1.791   4.400   5.380  0.5202 -2.5052 -0.8578
   94SAPE  C310 9351   1.918   4.264   5.503 -0.5000 -0.5890 -0.0954
   94SAPE  H10X 9352   1.885   4.174   5.447 -0.2242 -0.5697 -0.2924
   94SAPE  H10Y 9353   1.940   4.235   5.608 -0.1117 -0.9587 -0.2736
   94SAPE  C311 9354   2.060   4.326   5.471 -0.1191 -0.1105 -0.3173
   94SAPE  H11X 9355   2.141   4.260   5.508  1.2175  1.7031  0.1113
   94SAPE  H11Y 9356   2.066   4.416   5.536 -0.2420 -1.5165  1.7177
   94SAPE  C312 9357   2.080   4.367   5.317  1.0553  0.2555  0.1068
   94SAPE  H12X 9358   2.180   4.412   5.302  0.9850  0.7668  1.0649
   94SAPE  H12Y 9359   2.006   4.448   5.303  1.3181  1.0875  2.8348
   94SAPE  C313 9360   2.048   4.267   5.216 -0.0050 -0.0772  0.1946
   94SAPE  H13X 9361   1.947   4.222   5.229  0.5657 -1.0777  1.3837
   94SAPE  H13Y 9362   2.118   4.184   5.238  0.8443  0.8631  1.1380
   94SAPE  C314 9363   2.068   4.332   5.078  0.0830 -0.2034  0.2549
   94SAPE  H14X 9364   2.177   4.351   5.066 -0.1972  1.0650 -0.4195
   94SAPE  H14Y 9365   2.019   4.429   5.055  0.3735  0.2861  1.6133
   94SAPE  C315 9366   2.034   4.225   4.970 -0.7957 -0.5297  0.2928
   94SAPE  H15X 9367   2.087   4.131   4.992 -2.0974 -2.4274 -3.6802
   94SAPE  H15Y 9368   2.072   4.266   4.874  0.8912  0.1458  1.2058
   94SAPE  C316 9369   1.883   4.214   4.953  0.7528  0.0096  0.4536
   94SAPE  H16X 9370   1.837   4.303   4.903 -0.3748 -0.7361  0.1353
   94SAPE  H16Y 9371   1.841   4.211   5.056  0.4943  2.0204  0.4501
   94SAPE  C317 9372   1.839   4.091   4.872  0.6612  0.3089 -0.7302
   94SAPE  H17X 9373   1.874   4.000   4.927  0.6731  0.7341 -0.0232
   94SAPE  H17Y 9374   1.886   4.093   4.772 -0.2556 -2.1813 -1.2966
   94SAPE  C318 9375   1.688   4.061   4.860 -0.1488  0.6630  0.9936
   94SAPE  H18X 9376   1.629   4.135   4.803  1.6587  2.5059  1.4107
   94SAPE  H18Y 9377   1.645   4.056   4.963 -2.2225 -1.5526  0.1285
   94SAPE  H18Z 9378   1.665   3.965   4.809 -0.5857  0.0995  2.2051
   95SAPE     N 9379   0.857   3.529   7.396 -0.4744 -0.1437 -0.0287
   95SAPE   HN1 9380   0.874   3.465   7.475  0.9704  0.4707  0.1923
   95SAPE   HN2 9381   0.915   3.615   7.406 -3.3063  1.9205  0.0228
   95SAPE   HN3 9382   0.761   3.567   7.409  0.5113  1.7619  2.4138
   95SAPE   C12 9383   0.863   3.458   7.263 -0.2755  0.8750  0.4569
   95SAPE  H12A 9384   0.784   3.504   7.199 -2.9446 -2.1645  1.2737
   95SAPE  H12B 9385   0.838   3.350   7.266  0.8751  0.5899  0.0573
   95SAPE   C11 9386   0.993   3.460   7.187  0.0444 -0.7249  0.4354
   95SAPE  H11A 9387   0.976   3.411   7.088  1.1665  0.4802 -0.3811
   95SAPE  H11B 9388   1.063   3.396   7.244  0.6223 -1.3170 -0.9096
   95SAPE     P 9389   1.173   3.624   7.109 -0.1071 -0.0391 -0.4288
   95SAPE   O13 9390   1.217   3.764   7.156  0.1990  0.0494  0.4650
   95SAPE   O14 9391   1.270   3.513   7.132 -1.3104 -0.2211  0.5430
   95SAPE   O12 9392   1.032   3.595   7.171  0.4691  0.0510 -0.2124
   95SAPE   O11 9393   1.152   3.649   6.955  0.8650 -0.5192  0.6561
   95SAPE    C1 9394   1.016   3.671   6.913 -0.4930  0.2114 -0.1148
   95SAPE    HA 9395   0.957   3.577   6.912  2.1175 -1.5472  0.5406
   95SAPE    HB 9396   0.953   3.742   6.971 -2.0225 -0.0681 -1.3711
   95SAPE    C2 9397   1.018   3.737   6.771  0.4477  0.4539 -0.1096
   95SAPE    HS 9398   0.914   3.743   6.732  0.2373 -2.5272 -0.2281
   95SAPE   O21 9399   1.105   3.672   6.678 -0.2849  0.1555 -0.6347
   95SAPE   C21 9400   1.061   3.554   6.637  1.0037  0.0671 -0.0135
   95SAPE   O22 9401   0.951   3.505   6.647  0.3558  0.5924  0.0324
   95SAPE   C22 9402   1.169   3.491   6.556  0.2004 -0.9424  0.0981
   95SAPE   H2R 9403   1.186   3.543   6.459  0.1993 -2.7491 -0.9351
   95SAPE   H2S 9404   1.266   3.497   6.609  1.1460  2.6584 -1.7282
   95SAPE    C3 9405   1.055   3.888   6.769  0.6681 -0.1243  0.2820
   95SAPE    HX 9406   1.147   3.899   6.830  1.3532  0.4130 -0.8222
   95SAPE    HY 9407   0.978   3.937   6.833  0.3418 -1.2732  0.7903
   95SAPE   O31 9408   1.073   3.942   6.633  0.1547 -0.6345 -0.1425
   95SAPE   C31 9409   1.190   3.953   6.588  0.0212  0.2296  0.0673
   95SAPE   O32 9410   1.297   3.924   6.640 -0.2319 -0.5470  0.4267
   95SAPE   C32 9411   1.183   4.021   6.447 -0.2452  0.0069 -0.0284
   95SAPE   H2X 9412   1.266   4.094   6.441 -0.0975 -0.1022  0.6201
   95SAPE   H2Y 9413   1.088   4.079   6.446 -0.0192  0.4094 -2.0237
   95SAPE   C23 9414   1.141   3.346   6.513 -0.0686 -0.0532  0.7679
   95SAPE   H3R 9415   1.049   3.359   6.452  0.6787  0.8233 -0.2028
   95SAPE   H3S 9416   1.114   3.284   6.601  0.6147 -0.0783  0.9674
   95SAPE   C24 9417   1.252   3.271   6.430 -0.3914  0.0025  0.3666
   95SAPE   H4R 9418   1.340   3.271   6.497 -0.5498  0.4900  0.5776
   95SAPE   H4S 9419   1.268   3.345   6.349 -0.5879  0.0724  0.3890
   95SAPE   C25 9420   1.210   3.132   6.394  0.5885 -0.3368 -0.2162
   95SAPE   H5R 9421   1.196   3.049   6.465 -1.8420 -0.3144 -0.6058
   95SAPE   C26 9422   1.173   3.095   6.267 -0.7089  0.3186 -0.7752
   95SAPE   H6R 9423   1.162   2.987   6.251 -0.2621 -0.0957  1.4015
   95SAPE   C27 9424   1.154   3.180   6.146 -0.1706 -0.1949 -0.1365
   95SAPE   H7R 9425   1.118   3.282   6.170 -1.8850 -0.9122  0.4971
   95SAPE   H7S 9426   1.073   3.136   6.084  0.3615 -0.1575 -0.8772
   95SAPE   C28 9427   1.286   3.190   6.069 -0.8840 -0.6651 -0.0795
   95SAPE   H8R 9428   1.375   3.198   6.133 -0.8111 -0.0501 -0.2490
   95SAPE   C29 9429   1.299   3.184   5.936  0.3662 -0.4039  0.0249
   95SAPE   H9R 9430   1.392   3.212   5.885  1.3549 -0.7363  1.5840
   95SAPE  C210 9431   1.180   3.172   5.843 -0.3515 -0.2835 -0.5983
   95SAPE  H10R 9432   1.131   3.271   5.844  2.0429  0.9805 -0.0497
   95SAPE  H10S 9433   1.118   3.085   5.873 -0.1667 -1.1022 -2.4633
   95SAPE  C211 9434   1.228   3.145   5.699 -0.6029 -0.6990 -0.2881
   95SAPE  H11R 9435   1.233   3.236   5.637  1.9653 -0.3836  0.2455
   95SAPE  C212 9436   1.296   3.034   5.657  0.4727 -0.7054  0.3502
   95SAPE  H12R 9437   1.324   3.027   5.551  1.2904 -3.5937  0.6603
   95SAPE  C213 9438   1.314   2.902   5.728  0.5794  0.1146 -0.5802
   95SAPE  H13R 9439   1.222   2.839   5.726  0.3176  0.2379  2.5657
   95SAPE  H13S 9440   1.314   2.933   5.835 -1.8339  3.5322 -1.3974
   95SAPE  C214 9441   1.430   2.809   5.695 -0.0327  0.1655  0.2143
   95SAPE  H14R 9442   1.472   2.790   5.795  0.2166  0.3433  0.1445
   95SAPE  C215 9443   1.476   2.757   5.577 -0.1044  0.1582 -0.3094
   95SAPE  H15R 9444   1.572   2.702   5.579 -0.0287  0.2900  1.8852
   95SAPE  C216 9445   1.409   2.783   5.438  0.3334  0.0183 -0.6761
   95SAPE  H16R 9446   1.389   2.890   5.418  2.3647  0.8669  1.4188
   95SAPE  H16S 9447   1.311   2.731   5.443  0.0031  0.7938  1.9043
   95SAPE  C217 9448   1.489   2.736   5.320  0.6077  0.8486  0.5516
   95SAPE  H17R 9449   1.486   2.625   5.316  4.1842  0.6527 -0.0500
   95SAPE  H17S 9450   1.595   2.769   5.322  1.2760 -0.8040 -2.0632
   95SAPE  C218 9451   1.429   2.789   5.183  0.2614  0.2258 -0.6029
   95SAPE  H18R 9452   1.492   2.748   5.102  0.3806  1.0447 -0.9297
   95SAPE  H18S 9453   1.446   2.899   5.183  0.2811  0.2255 -0.3273
   95SAPE  C219 9454   1.285   2.753   5.157 -0.4973 -0.9906 -0.1684
   95SAPE  H19R 9455   1.212   2.827   5.195 -0.3210  0.9054 -3.1835
   95SAPE  H19S 9456   1.257   2.657   5.205  1.1875 -2.4155 -1.8805
   95SAPE  C220 9457   1.244   2.729   5.007 -0.0115 -0.2283  0.2672
   95SAPE  H20R 9458   1.133   2.724   5.010 -0.0470  0.7294  1.9792
   95SAPE  H20S 9459   1.287   2.634   4.970  1.2011 -0.2702  1.6690
   95SAPE  H20T 9460   1.275   2.813   4.941 -2.6914  0.4997 -0.1892
   95SAPE   C33 9461   1.186   3.918   6.339  0.2855 -0.3384 -0.1266
   95SAPE   H3X 9462   1.090   3.864   6.354 -2.2539  3.9785  0.8851
   95SAPE   H3Y 9463   1.277   3.855   6.338 -0.4894 -1.6005  2.2226
   95SAPE   C34 9464   1.173   3.989   6.195 -0.0998  0.2633  0.3571
   95SAPE   H4X 9465   1.268   4.036   6.160 -0.0500 -1.7355 -2.5254
   95SAPE   H4Y 9466   1.096   4.069   6.207 -2.2127 -1.7180  0.8533
   95SAPE   C35 9467   1.120   3.891   6.088 -0.6477 -0.3530  0.0559
   95SAPE   H5X 9468   1.029   3.836   6.117  0.0922 -1.4817  0.2807
   95SAPE   H5Y 9469   1.197   3.814   6.067 -0.9754 -0.5320 -0.5045
   95SAPE   C36 9470   1.071   3.969   5.958  0.0078  1.0481  0.2062
   95SAPE   H6X 9471   1.160   4.024   5.919  0.2361 -0.4024 -1.4291
   95SAPE   H6Y 9472   0.991   4.042   5.982 -2.4143 -1.2688 -0.2981
   95SAPE   C37 9473   1.024   3.873   5.853 -0.3043 -0.1684 -0.0220
   95SAPE   H7X 9474   0.951   3.798   5.890 -1.6687  1.2979  0.3732
   95SAPE   H7Y 9475   1.112   3.809   5.829 -0.0271 -0.6618  2.1117
   95SAPE   C38 9476   0.966   3.947   5.725 -0.7085 -0.0374 -0.5122
   95SAPE   H8X 9477   1.053   4.005   5.685 -0.9210  1.5439  1.2172
   95SAPE   H8Y 9478   0.888   4.020   5.753 -0.9894 -0.5731  0.1281
   95SAPE   C39 9479   0.921   3.848   5.619  0.7830  0.1867 -0.1889
   95SAPE   H9X 9480   0.832   3.806   5.670  0.9899  0.5582  0.5014
   95SAPE   H9Y 9481   0.998   3.768   5.612  1.0220  0.3292  0.6639
   95SAPE  C310 9482   0.883   3.909   5.487  0.1271 -0.0573  0.2342
   95SAPE  H10X 9483   0.963   3.971   5.441 -0.1465  0.0500 -0.1029
   95SAPE  H10Y 9484   0.808   3.987   5.512  0.0673  0.5663 -1.6801
   95SAPE  C311 9485   0.839   3.811   5.376 -0.0788  0.2047 -0.9408
   95SAPE  H11X 9486   0.755   3.752   5.419  0.4617  0.4300  0.4752
   95SAPE  H11Y 9487   0.926   3.747   5.351  1.1004  1.2087  0.4454
   95SAPE  C312 9488   0.785   3.871   5.248  0.4595 -0.9163  0.3223
   95SAPE  H12X 9489   0.862   3.933   5.199  1.4082 -1.6567  0.8354
   95SAPE  H12Y 9490   0.699   3.938   5.268  0.2641 -1.0724  0.0127
   95SAPE  C313 9491   0.738   3.760   5.153 -0.1907  0.0823 -0.3246
   95SAPE  H13X 9492   0.633   3.730   5.173 -0.0219 -1.0605 -1.0943
   95SAPE  H13Y 9493   0.804   3.672   5.169 -1.3287 -0.9637 -1.2520
   95SAPE  C314 9494   0.749   3.807   5.004 -0.0970 -0.3355 -0.1758
   95SAPE  H14X 9495   0.850   3.840   4.971  0.6269  0.1719  2.3074
   95SAPE  H14Y 9496   0.674   3.888   4.992  0.3603  0.0095 -0.7545
   95SAPE  C315 9497   0.706   3.687   4.913 -0.1547  0.8456 -0.9032
   95SAPE  H15X 9498   0.600   3.674   4.945  0.2484 -0.3385  0.0568
   95SAPE  H15Y 9499   0.763   3.592   4.928  1.0533  1.2072 -2.8776
   95SAPE  C316 9500   0.710   3.707   4.757 -0.1170 -0.3475 -0.4450
   95SAPE  H16X 9501   0.689   3.610   4.707 -2.0794 -0.8334  1.1756
   95SAPE  H16Y 9502   0.815   3.733   4.734 -0.1817  0.0790 -0.2683
   95SAPE  C317 9503   0.628   3.823   4.700  0.2348 -0.3772 -0.3569
   95SAPE  H17X 9504   0.658   3.927   4.728 -1.6851  0.8104 -2.3250
   95SAPE  H17Y 9505   0.526   3.815   4.744 -0.6779 -0.0353 -2.3068
   95SAPE  C318 9506   0.620   3.811   4.548 -0.1666  0.2439  0.3813
   95SAPE  H18X 9507   0.585   3.708   4.522 -1.2441  0.4129  1.1075
   95SAPE  H18Y 9508   0.721   3.835   4.509  1.2627 -0.4470  3.3708
   95SAPE  H18Z 9509   0.549   3.883   4.502  0.9914  0.4242 -1.2267
   96SAPE     N 9510   2.942   4.858   7.169 -0.0037  0.4864 -0.0235
   96SAPE   HN1 9511   3.005   4.936   7.199  1.4594 -0.1765 -1.2258
   96SAPE   HN2 9512   2.843   4.890   7.175 -0.4500 -0.8062 -0.2255
   96SAPE   HN3 9513   2.949   4.777   7.233 -0.8088  1.2018  1.0024
   96SAPE   C12 9514   2.973   4.819   7.026 -0.7332 -0.5543 -0.3806
   96SAPE  H12A 9515   3.075   4.776   7.016  0.2881  1.8028 -0.7751
   96SAPE  H12B 9516   2.974   4.912   6.965 -0.7032  0.1157  0.6199
   96SAPE   C11 9517   2.866   4.724   6.977  0.8061  0.5351 -0.0685
   96SAPE  H11A 9518   2.908   4.650   6.906 -0.8578  0.5139 -1.1041
   96SAPE  H11B 9519   2.783   4.777   6.926  1.8379  1.6146 -0.6782
   96SAPE     P 9520   2.675   4.558   7.040 -0.2824  0.1723  0.1283
   96SAPE   O13 9521   2.670   4.429   7.116  0.3834 -0.6358 -0.2335
   96SAPE   O14 9522   2.557   4.650   7.052 -0.6860  0.2779 -0.5852
   96SAPE   O12 9523   2.808   4.640   7.075 -0.6610 -0.5372 -0.2155
   96SAPE   O11 9524   2.693   4.533   6.884 -0.2568 -0.6180 -0.3014
   96SAPE    C1 9525   2.785   4.426   6.843  0.6104  0.1421  0.8129
   96SAPE    HA 9526   2.867   4.419   6.917  3.1721 -0.2502 -1.8654
   96SAPE    HB 9527   2.727   4.332   6.849  1.9411 -0.6131  2.3230
   96SAPE    C2 9528   2.843   4.437   6.698  0.2689  0.0119  0.0935
   96SAPE    HS 9529   2.871   4.332   6.676 -1.0565 -0.1656 -0.8529
   96SAPE   O21 9530   2.953   4.532   6.696 -0.2115 -0.0352 -0.6101
   96SAPE   C21 9531   3.062   4.484   6.744  0.6786 -0.3365  0.1227
   96SAPE   O22 9532   3.080   4.378   6.793  0.7589 -0.1405  0.8211
   96SAPE   C22 9533   3.163   4.590   6.701 -0.2174  0.3220  0.0998
   96SAPE   H2R 9534   3.121   4.665   6.631 -0.5851  0.0767  0.0576
   96SAPE   H2S 9535   3.198   4.647   6.790  1.5459  1.3028 -1.1333
   96SAPE    C3 9536   2.737   4.492   6.594  0.0814  0.2401 -0.1191
   96SAPE    HX 9537   2.712   4.594   6.630  0.3093 -0.2716  1.5850
   96SAPE    HY 9538   2.651   4.422   6.604 -0.3033  0.8319  0.7806
   96SAPE   O31 9539   2.786   4.472   6.464 -0.3125  0.0097 -0.1240
   96SAPE   C31 9540   2.776   4.577   6.382 -0.0235 -0.4047  0.0795
   96SAPE   O32 9541   2.777   4.692   6.421  0.4315 -0.0980  0.6367
   96SAPE   C32 9542   2.769   4.532   6.238  0.0307 -0.3796  0.2959
   96SAPE   H2X 9543   2.671   4.481   6.225 -1.2334  1.3013  2.4768
   96SAPE   H2Y 9544   2.851   4.459   6.221  0.8087  0.3761  0.7574
   96SAPE   C23 9545   3.286   4.510   6.657  0.0891 -0.0245 -0.1691
   96SAPE   H3R 9546   3.269   4.441   6.572 -0.9621 -1.0885  0.8755
   96SAPE   H3S 9547   3.320   4.442   6.738 -0.9375 -1.4173 -0.8721
   96SAPE   C24 9548   3.407   4.595   6.603  0.7187 -0.4732  0.0128
   96SAPE   H4R 9549   3.484   4.530   6.558  1.2712  0.5009 -0.4913
   96SAPE   H4S 9550   3.452   4.646   6.690 -1.6730  0.6645  0.6907
   96SAPE   C25 9551   3.370   4.708   6.502 -0.2367  0.3488 -0.7373
   96SAPE   H5R 9552   3.344   4.797   6.561  0.4849 -1.2299  2.1357
   96SAPE   C26 9553   3.364   4.700   6.368  0.2458  0.0144  0.7834
   96SAPE   H6R 9554   3.322   4.787   6.315 -0.4641 -2.1426 -2.4432
   96SAPE   C27 9555   3.389   4.588   6.274 -0.2677  0.0300 -0.0698
   96SAPE   H7R 9556   3.463   4.513   6.312 -1.9139 -2.4871 -1.5073
   96SAPE   H7S 9557   3.428   4.624   6.176 -0.9683  0.9087 -0.0375
   96SAPE   C28 9558   3.262   4.518   6.263 -0.3017 -0.5597  0.0917
   96SAPE   H8R 9559   3.219   4.494   6.361  2.7626  1.1536  2.0157
   96SAPE   C29 9560   3.203   4.489   6.143  0.5670 -0.4747 -0.2090
   96SAPE   H9R 9561   3.101   4.450   6.148 -0.9608  3.0869 -0.3092
   96SAPE  C210 9562   3.250   4.503   6.001  0.5475  0.5904  0.2033
   96SAPE  H10R 9563   3.204   4.419   5.945  2.4476 -1.0233  0.9544
   96SAPE  H10S 9564   3.359   4.481   6.002  0.5831  0.6758  2.1552
   96SAPE  C211 9565   3.221   4.633   5.938  0.6133 -0.1020 -0.1947
   96SAPE  H11R 9566   3.231   4.719   6.006  1.9718 -1.9926  2.1661
   96SAPE  C212 9567   3.194   4.650   5.804  0.0252  0.3145  0.7242
   96SAPE  H12R 9568   3.167   4.751   5.770  0.8582  0.4265  0.3806
   96SAPE  C213 9569   3.186   4.537   5.701  0.0730  0.2490  0.0619
   96SAPE  H13R 9570   3.089   4.483   5.706  0.9601 -1.2679  2.1046
   96SAPE  H13S 9571   3.267   4.464   5.719  1.0279  1.6282  1.5743
   96SAPE  C214 9572   3.186   4.591   5.561 -0.5267 -0.2307  0.1276
   96SAPE  H14R 9573   3.283   4.595   5.511  0.2726 -0.3618  1.6136
   96SAPE  C215 9574   3.071   4.633   5.496 -0.3313 -0.4924  0.4642
   96SAPE  H15R 9575   3.084   4.667   5.392 -1.8629  0.3372  0.5075
   96SAPE  C216 9576   2.929   4.632   5.548 -0.1563 -1.2054 -0.4688
   96SAPE  H16R 9577   2.916   4.626   5.658 -0.5607  0.7537 -0.3719
   96SAPE  H16S 9578   2.868   4.548   5.508 -2.0097  0.0620 -0.4302
   96SAPE  C217 9579   2.850   4.768   5.516  0.0867 -0.3282  0.1344
   96SAPE  H17R 9580   2.911   4.847   5.564  1.8139 -1.4619 -0.0901
   96SAPE  H17S 9581   2.754   4.756   5.571 -0.5095  2.3931 -0.1838
   96SAPE  C218 9582   2.827   4.801   5.368 -0.0679  0.2270 -0.2410
   96SAPE  H18R 9583   2.813   4.703   5.318 -0.2098 -0.3035  0.8308
   96SAPE  H18S 9584   2.907   4.863   5.321 -0.8771  0.7584 -0.9352
   96SAPE  C219 9585   2.697   4.884   5.349  0.0127 -0.0749 -0.5462
   96SAPE  H19R 9586   2.725   4.981   5.395 -0.1409 -0.1312 -0.3310
   96SAPE  H19S 9587   2.611   4.847   5.409  1.2419 -0.4986  1.0346
   96SAPE  C220 9588   2.662   4.898   5.205 -0.4045  0.0492 -0.6920
   96SAPE  H20R 9589   2.561   4.943   5.195 -0.9520 -0.2156  2.6047
   96SAPE  H20S 9590   2.668   4.804   5.146  1.8377  0.4368 -1.1778
   96SAPE  H20T 9591   2.718   4.970   5.142 -0.6031 -0.1401 -1.0889
   96SAPE   C33 9592   2.781   4.639   6.132  0.1984 -0.3048 -0.0384
   96SAPE   H3X 9593   2.883   4.682   6.124 -0.7846  2.9028  2.3723
   96SAPE   H3Y 9594   2.711   4.725   6.146 -0.1490 -0.7320  0.8976
   96SAPE   C34 9595   2.734   4.593   5.989 -0.2447 -0.8167 -0.0715
   96SAPE   H4X 9596   2.794   4.508   5.947  0.8426  1.3762 -3.3892
   96SAPE   H4Y 9597   2.766   4.680   5.928 -0.0630 -0.0955  1.0300
   96SAPE   C35 9598   2.587   4.572   5.992  0.0744  0.2858  0.2890
   96SAPE   H5X 9599   2.530   4.620   6.074 -0.1039 -3.4769  2.6465
   96SAPE   H5Y 9600   2.575   4.463   6.013  1.6597 -0.0272 -0.2618
   96SAPE   C36 9601   2.512   4.620   5.866  0.4422  0.1511 -0.0618
   96SAPE   H6X 9602   2.566   4.713   5.841  1.2886 -0.9672 -2.7188
   96SAPE   H6Y 9603   2.406   4.635   5.893 -0.2153 -1.3194 -1.6310
   96SAPE   C37 9604   2.520   4.531   5.737 -0.8576  0.0802 -1.1409
   96SAPE   H7X 9605   2.458   4.439   5.744  1.3750 -1.4035  0.1194
   96SAPE   H7Y 9606   2.624   4.499   5.756 -0.7934  0.9875  0.1407
   96SAPE   C38 9607   2.490   4.626   5.605 -0.7287 -0.2977  0.3126
   96SAPE   H8X 9608   2.553   4.715   5.622 -0.1252 -1.0816  2.4840
   96SAPE   H8Y 9609   2.383   4.654   5.598 -0.4473  0.4999 -1.3583
   96SAPE   C39 9610   2.524   4.558   5.472  0.0255  0.5047 -0.8459
   96SAPE   H9X 9611   2.632   4.533   5.467 -0.0049  0.4373 -1.1996
   96SAPE   H9Y 9612   2.513   4.638   5.396 -0.0780 -0.8237 -2.2800
   96SAPE  C310 9613   2.441   4.435   5.448  0.1296  0.5424  0.5970
   96SAPE  H10X 9614   2.332   4.447   5.466 -0.0009 -1.3666  1.3172
   96SAPE  H10Y 9615   2.468   4.349   5.514  0.4146  0.6759  0.6548
   96SAPE  C311 9616   2.449   4.391   5.299  0.1243 -0.3578  0.2477
   96SAPE  H11X 9617   2.404   4.472   5.238  0.1764 -0.2997  0.2865
   96SAPE  H11Y 9618   2.385   4.301   5.289  1.1576 -1.4839  2.8615
   96SAPE  C312 9619   2.588   4.352   5.249 -0.4663  0.1055 -0.8889
   96SAPE  H12X 9620   2.621   4.270   5.316  0.5667  1.6694  0.5954
   96SAPE  H12Y 9621   2.649   4.445   5.247 -0.0643 -0.0699  1.1079
   96SAPE  C313 9622   2.591   4.292   5.100  0.2061 -0.1697  0.2153
   96SAPE  H13X 9623   2.530   4.367   5.045 -1.9940 -2.3356 -0.5025
   96SAPE  H13Y 9624   2.543   4.192   5.099  1.1901 -0.6484  0.0847
   96SAPE  C314 9625   2.736   4.298   5.044 -0.1230 -0.0271 -0.0191
   96SAPE  H14X 9626   2.751   4.208   4.979 -3.2439 -2.4069  2.2289
   96SAPE  H14Y 9627   2.804   4.284   5.130  0.8201 -2.5879 -1.0566
   96SAPE  C315 9628   2.766   4.437   4.978 -0.4912  0.5852 -0.2874
   96SAPE  H15X 9629   2.876   4.449   4.969 -0.3546  1.2307  1.6258
   96SAPE  H15Y 9630   2.739   4.513   5.055 -3.4648 -1.3884  0.8228
   96SAPE  C316 9631   2.692   4.464   4.850  0.4849 -0.5645 -0.0405
   96SAPE  H16X 9632   2.696   4.572   4.822  2.8364 -0.6238 -0.1072
   96SAPE  H16Y 9633   2.581   4.451   4.848  0.0521  1.7741  2.6933
   96SAPE  C317 9634   2.752   4.399   4.727 -0.0218 -0.0345 -0.0452
   96SAPE  H17X 9635   2.714   4.443   4.632  1.4101  1.3212 -0.0157
   96SAPE  H17Y 9636   2.731   4.289   4.733  0.7809 -0.1658  0.4469
   96SAPE  C318 9637   2.908   4.418   4.711 -0.7673 -0.1835 -0.1177
   96SAPE  H18X 9638   2.935   4.526   4.716 -0.3131 -0.2972 -0.1371
   96SAPE  H18Y 9639   2.939   4.388   4.609 -2.4395  2.8311 -1.6639
   96SAPE  H18Z 9640   2.970   4.359   4.781 -1.5828 -2.7654 -1.4254
   97SAPE     N 9641   3.368   0.832   7.451 -0.1675  0.2163  0.0476
   97SAPE   HN1 9642   3.292   0.899   7.474 -1.5164 -1.4502  0.6885
   97SAPE   HN2 9643   3.378   0.771   7.535 -2.7991  0.3354  0.5347
   97SAPE   HN3 9644   3.457   0.885   7.449  0.2253 -0.4116  0.6709
   97SAPE   C12 9645   3.339   0.755   7.329 -0.4467  0.2815  0.8390
   97SAPE  H12A 9646   3.311   0.828   7.251  1.5771  0.8800  0.6038
   97SAPE  H12B 9647   3.247   0.696   7.345 -0.0836 -0.5580 -0.0309
   97SAPE   C11 9648   3.469   0.673   7.286  0.3122  0.1210  0.3575
   97SAPE  H11A 9649   3.538   0.759   7.279 -0.3574  0.6223 -0.3326
   97SAPE  H11B 9650   3.471   0.628   7.184 -1.1497 -1.5292  0.9869
   97SAPE     P 9651   3.442   0.438   7.395  0.0277 -0.0369 -0.2880
   97SAPE   O13 9652   3.519   0.351   7.485  0.4537 -0.8876  0.1211
   97SAPE   O14 9653   3.298   0.453   7.427 -0.6355 -0.0404  0.0144
   97SAPE   O12 9654   3.509   0.579   7.385 -0.3433  0.2881 -0.1427
   97SAPE   O11 9655   3.462   0.371   7.249 -0.4530  0.0375 -0.5294
   97SAPE    C1 9656   3.602   0.355   7.211 -0.0497 -0.0155  0.0830
   97SAPE    HA 9657   3.672   0.428   7.258  0.2792 -1.9192  2.7911
   97SAPE    HB 9658   3.629   0.259   7.261 -1.2298  0.6128  2.0352
   97SAPE    C2 9659   3.622   0.347   7.059 -0.0268  0.8398 -0.2766
   97SAPE    HS 9660   3.634   0.450   7.020  2.9452  0.6688  0.0047
   97SAPE   O21 9661   3.508   0.279   7.003 -0.0511  0.5088 -0.4062
   97SAPE   C21 9662   3.414   0.359   6.967 -0.0441  0.3436 -0.1033
   97SAPE   O22 9663   3.417   0.480   6.979  0.8010 -0.2651 -0.3776
   97SAPE   C22 9664   3.289   0.282   6.923 -0.2159  0.3321  0.8134
   97SAPE   H2R 9665   3.256   0.220   7.008  1.2335 -0.9286  0.5039
   97SAPE   H2S 9666   3.218   0.365   6.905 -0.1603  0.1172 -0.5163
   97SAPE    C3 9667   3.755   0.273   7.035  0.6166  0.2989 -0.2143
   97SAPE    HX 9668   3.754   0.168   7.069 -0.4509  0.5173  0.4948
   97SAPE    HY 9669   3.837   0.328   7.088 -0.4616 -0.1280  1.9912
   97SAPE   O31 9670   3.790   0.288   6.899  0.0359 -0.5141 -0.1504
   97SAPE   C31 9671   3.846   0.186   6.821  0.0927  0.0892 -0.3058
   97SAPE   O32 9672   3.865   0.072   6.863 -0.5223  0.3682  0.4270
   97SAPE   C32 9673   3.858   0.242   6.682 -0.6122  0.1067 -0.2936
   97SAPE   H2X 9674   3.857   0.353   6.677  0.2741  0.0710 -2.1970
   97SAPE   H2Y 9675   3.780   0.197   6.617 -0.2738  2.0987 -2.1976
   97SAPE   C23 9676   3.321   0.197   6.794 -0.3670 -0.4610  0.3231
   97SAPE   H3R 9677   3.232   0.130   6.788 -0.4680 -0.1753 -1.9888
   97SAPE   H3S 9678   3.414   0.139   6.811  1.6515  1.6761 -2.5550
   97SAPE   C24 9679   3.319   0.268   6.658  0.2295  0.0730 -0.7245
   97SAPE   H4R 9680   3.225   0.326   6.643 -0.2759 -0.4407  0.3245
   97SAPE   H4S 9681   3.307   0.194   6.577 -0.0024 -0.3152 -0.3405
   97SAPE   C25 9682   3.434   0.358   6.626 -0.1817  0.4474 -0.3728
   97SAPE   H5R 9683   3.481   0.420   6.703  2.2988 -1.0813 -0.5378
   97SAPE   C26 9684   3.464   0.384   6.503 -0.4046  0.8191 -0.1968
   97SAPE   H6R 9685   3.539   0.465   6.496  1.6027 -0.8814  0.4959
   97SAPE   C27 9686   3.414   0.324   6.371 -0.0273  0.0889 -0.1072
   97SAPE   H7R 9687   3.327   0.256   6.385  0.5538 -0.7464 -0.4720
   97SAPE   H7S 9688   3.487   0.255   6.323  0.9952  1.5116 -0.6743
   97SAPE   C28 9689   3.373   0.444   6.292  0.8400  0.0178  0.1261
   97SAPE   H8R 9690   3.280   0.491   6.327  0.8450 -1.0534  1.6648
   97SAPE   C29 9691   3.432   0.484   6.178  0.3408  0.4380  0.5349
   97SAPE   H9R 9692   3.380   0.566   6.125 -0.5164 -0.4474 -0.0402
   97SAPE  C210 9693   3.553   0.419   6.108 -0.7877 -0.9180  0.5823
   97SAPE  H10R 9694   3.515   0.364   6.019 -1.1770 -0.3771  0.4074
   97SAPE  H10S 9695   3.594   0.345   6.180 -1.1127 -1.3024  0.3765
   97SAPE  C211 9696   3.655   0.529   6.075  0.3510 -0.0229 -0.4124
   97SAPE  H11R 9697   3.737   0.544   6.147 -0.0802  1.0353 -0.1085
   97SAPE  C212 9698   3.635   0.601   5.960  0.2839 -0.3505  0.4166
   97SAPE  H12R 9699   3.707   0.684   5.948 -0.7530  0.5091 -0.0732
   97SAPE  C213 9700   3.539   0.591   5.841  0.0767 -0.4660 -0.2349
   97SAPE  H13R 9701   3.528   0.695   5.803  0.5103  0.5222  2.1279
   97SAPE  H13S 9702   3.441   0.546   5.869 -1.4993  1.5181 -2.2452
   97SAPE  C214 9703   3.598   0.490   5.748  0.0964  0.3082  0.2484
   97SAPE  H14R 9704   3.606   0.388   5.787 -0.7656  0.7464  1.6721
   97SAPE  C215 9705   3.640   0.523   5.620 -0.6184  0.5579 -0.2428
   97SAPE  H15R 9706   3.683   0.445   5.555 -0.1043  1.1867 -0.6645
   97SAPE  C216 9707   3.640   0.659   5.549  0.5523 -0.0228 -0.7777
   97SAPE  H16R 9708   3.651   0.747   5.617  0.3616  1.0482 -2.0828
   97SAPE  H16S 9709   3.557   0.676   5.478 -0.1208  0.2325  0.0457
   97SAPE  C217 9710   3.780   0.662   5.473  0.1155  0.4089 -0.2879
   97SAPE  H17R 9711   3.851   0.647   5.557 -2.7922  0.0798  2.3146
   97SAPE  H17S 9712   3.790   0.765   5.433 -1.1879 -0.3723 -2.8329
   97SAPE  C218 9713   3.809   0.572   5.357 -0.5925  0.2051 -0.0001
   97SAPE  H18R 9714   3.769   0.468   5.366  0.6543 -0.5766 -2.5014
   97SAPE  H18S 9715   3.918   0.558   5.345 -0.3043  1.8822  0.4415
   97SAPE  C219 9716   3.769   0.637   5.222  0.1386 -0.6051 -0.0487
   97SAPE  H19R 9717   3.810   0.740   5.208  1.9911 -1.3777 -0.5000
   97SAPE  H19S 9718   3.659   0.657   5.227  0.0050 -1.3531  0.1320
   97SAPE  C220 9719   3.790   0.554   5.096 -0.3917  0.0678  0.9301
   97SAPE  H20R 9720   3.763   0.448   5.113 -0.3850 -0.0705  0.0798
   97SAPE  H20S 9721   3.900   0.553   5.078 -0.2751  2.2736  1.2291
   97SAPE  H20T 9722   3.745   0.584   4.999 -0.0008 -1.9079  0.0923
   97SAPE   C33 9723   3.993   0.193   6.622 -0.0997 -0.6030 -0.2394
   97SAPE   H3X 9724   3.986   0.085   6.596  0.3265 -1.1090  1.6313
   97SAPE   H3Y 9725   4.065   0.209   6.705  1.1056  0.2306 -1.3988
   97SAPE   C34 9726   4.025   0.262   6.485  0.1139  0.1214 -0.3452
   97SAPE   H4X 9727   4.131   0.238   6.461  0.5473  0.6238  1.0044
   97SAPE   H4Y 9728   4.007   0.371   6.495 -0.0813  0.0962 -0.4197
   97SAPE   C35 9729   3.939   0.213   6.367  0.5776  0.4320 -0.3101
   97SAPE   H5X 9730   3.839   0.185   6.406  0.9124  1.5323  1.4187
   97SAPE   H5Y 9731   3.970   0.108   6.349 -1.7222 -0.0286 -2.2715
   97SAPE   C36 9732   3.942   0.298   6.244  0.0787 -0.6705 -0.0181
   97SAPE   H6X 9733   4.047   0.333   6.237 -0.1231  0.1091  0.6628
   97SAPE   H6Y 9734   3.875   0.386   6.255  0.2427 -0.2195 -2.2252
   97SAPE   C37 9735   3.906   0.219   6.125 -0.0896  0.6674  0.3152
   97SAPE   H7X 9736   3.801   0.185   6.136 -0.5110  1.6139 -0.6016
   97SAPE   H7Y 9737   3.967   0.126   6.119  0.4977  1.1218 -1.3364
   97SAPE   C38 9738   3.919   0.311   5.994  0.5850  0.4406 -0.1554
   97SAPE   H8X 9739   4.027   0.336   5.995  0.4245  1.3962 -2.2686
   97SAPE   H8Y 9740   3.859   0.404   5.997 -1.8599 -1.0541  0.2437
   97SAPE   C39 9741   3.895   0.237   5.870  0.1412  0.2741  0.0859
   97SAPE   H9X 9742   3.786   0.226   5.856 -0.1043  0.7367  1.5618
   97SAPE   H9Y 9743   3.934   0.133   5.878 -1.0269 -0.0443  2.3028
   97SAPE  C310 9744   3.967   0.300   5.747  0.1491 -1.1662 -0.5790
   97SAPE  H10X 9745   4.067   0.331   5.785 -0.6898  0.4737  0.3877
   97SAPE  H10Y 9746   3.904   0.387   5.718  1.8026 -0.2392 -1.5563
   97SAPE  C311 9747   3.968   0.204   5.630  0.1236 -0.0686 -0.6655
   97SAPE  H11X 9748   3.864   0.176   5.601  0.7623 -3.1312 -0.3376
   97SAPE  H11Y 9749   4.011   0.114   5.678 -0.7050 -1.3287 -2.1749
   97SAPE  C312 9750   4.061   0.257   5.515 -0.0076  0.0021 -0.4287
   97SAPE  H12X 9751   4.156   0.284   5.565 -1.2462  0.8513  1.5670
   97SAPE  H12Y 9752   4.013   0.350   5.478 -0.5327  0.7739  2.0134
   97SAPE  C313 9753   4.083   0.158   5.404 -0.4936  0.0333  0.2698
   97SAPE  H13X 9754   4.122   0.063   5.446  0.0386 -0.1133 -0.5371
   97SAPE  H13Y 9755   4.160   0.198   5.335  1.6778 -2.5517  1.0021
   97SAPE  C314 9756   3.937   0.127   5.337 -0.1588  0.4078 -0.4235
   97SAPE  H14X 9757   3.893   0.229   5.327 -0.4095  0.4065  0.6364
   97SAPE  H14Y 9758   3.869   0.064   5.398 -1.1784 -1.5141 -3.3350
   97SAPE  C315 9759   3.943   0.056   5.204  0.6248  0.1807 -0.6414
   97SAPE  H15X 9760   3.981  -0.047   5.216  1.0312 -0.0820 -3.4971
   97SAPE  H15Y 9761   4.020   0.100   5.137  1.9076 -2.1427 -0.8080
   97SAPE  C316 9762   3.811   0.051   5.128 -0.0792 -0.8188  0.2304
   97SAPE  H16X 9763   3.777   0.156   5.120  0.0476 -0.7353  0.7888
   97SAPE  H16Y 9764   3.739  -0.017   5.178  0.3324 -1.6426 -0.2664
   97SAPE  C317 9765   3.842  -0.009   4.989 -0.5398  0.1758  0.1566
   97SAPE  H17X 9766   3.857  -0.115   5.019  3.9471  1.1106  2.1215
   97SAPE  H17Y 9767   3.944   0.016   4.952 -1.2643  0.8608 -1.4811
   97SAPE  C318 9768   3.729   0.024   4.896 -0.1370 -0.3138  0.5379
   97SAPE  H18X 9769   3.631  -0.002   4.940 -0.8256  1.9198  0.4614
   97SAPE  H18Y 9770   3.747  -0.033   4.802  1.0429  0.6114  0.1805
   97SAPE  H18Z 9771   3.720   0.133   4.879 -0.7131 -0.5630 -0.8938
   98SAPE     N 9772   1.972   1.744   7.486 -0.6974  0.2770 -0.0714
   98SAPE   HN1 9773   1.908   1.664   7.473 -1.0266  0.5206  0.0455
   98SAPE   HN2 9774   2.072   1.716   7.486 -1.1220 -1.3257  0.7296
   98SAPE   HN3 9775   1.956   1.787   7.580 -0.8122 -2.3465  1.2055
   98SAPE   C12 9776   1.934   1.845   7.384  0.0828 -0.1253 -0.6197
   98SAPE  H12A 9777   1.951   1.804   7.282 -0.5764 -2.9041  0.3009
   98SAPE  H12B 9778   1.999   1.934   7.396 -0.0650 -0.2775  1.8019
   98SAPE   C11 9779   1.790   1.884   7.401  0.4920 -0.2923 -0.6290
   98SAPE  H11A 9780   1.709   1.809   7.408 -0.9399  1.1798 -0.6499
   98SAPE  H11B 9781   1.765   1.943   7.310 -0.0008  1.3628  0.5125
   98SAPE     P 9782   1.652   2.037   7.561 -0.3597 -0.2087  0.2488
   98SAPE   O13 9783   1.599   1.951   7.668 -0.8898 -0.1247 -0.3043
   98SAPE   O14 9784   1.685   2.176   7.595 -0.0992  0.2078  0.4259
   98SAPE   O12 9785   1.779   1.975   7.508  0.5204 -0.4535  0.0069
   98SAPE   O11 9786   1.557   2.034   7.436  0.1969 -0.1935 -0.4090
   98SAPE    C1 9787   1.542   2.143   7.340 -0.3939 -0.3496  0.0597
   98SAPE    HA 9788   1.474   2.221   7.382 -1.8067 -1.8907  0.7083
   98SAPE    HB 9789   1.644   2.177   7.311 -1.5373  1.9026 -1.6069
   98SAPE    C2 9790   1.483   2.088   7.212 -0.2678  1.2719  0.5229
   98SAPE    HS 9791   1.393   2.031   7.245  1.3711 -1.4884  0.4856
   98SAPE   O21 9792   1.583   2.008   7.154  0.4891 -0.0381 -0.0783
   98SAPE   C21 9793   1.538   1.896   7.086 -0.0977 -0.4465  0.0704
   98SAPE   O22 9794   1.425   1.857   7.080  0.3051  0.1835 -0.0276
   98SAPE   C22 9795   1.651   1.832   7.019 -0.0257  0.6103  0.2852
   98SAPE   H2R 9796   1.750   1.881   7.029 -0.1375  0.4866  2.5950
   98SAPE   H2S 9797   1.663   1.731   7.064 -0.2190 -0.2834 -1.5583
   98SAPE    C3 9798   1.441   2.198   7.110  0.0078  0.7497  0.0027
   98SAPE    HX 9799   1.540   2.235   7.074  0.0587 -0.1381 -0.8053
   98SAPE    HY 9800   1.391   2.280   7.166  2.3138  2.5001 -0.2993
   98SAPE   O31 9801   1.352   2.150   7.008 -0.0776  0.6950  0.2870
   98SAPE   C31 9802   1.411   2.114   6.891  0.1583 -0.6010  0.0990
   98SAPE   O32 9803   1.528   2.133   6.863  0.6795  0.0834 -0.3317
   98SAPE   C32 9804   1.306   2.041   6.807 -0.2083  0.0681  0.1417
   98SAPE   H2X 9805   1.225   2.116   6.795 -0.9752 -0.6831  0.6126
   98SAPE   H2Y 9806   1.285   1.951   6.867 -0.6821  0.9744  1.3797
   98SAPE   C23 9807   1.628   1.820   6.873  0.5685  0.1742  0.3852
   98SAPE   H3R 9808   1.636   1.919   6.824  2.8807  0.6695  1.6220
   98SAPE   H3S 9809   1.521   1.793   6.858 -0.2257  2.2724  1.7662
   98SAPE   C24 9810   1.697   1.703   6.799  0.3641 -0.1402 -0.4788
   98SAPE   H4R 9811   1.626   1.650   6.732 -2.2636  2.5165 -0.0303
   98SAPE   H4S 9812   1.717   1.625   6.876 -1.7641 -1.0481 -0.7858
   98SAPE   C25 9813   1.823   1.743   6.727 -0.0304 -0.7814 -0.3550
   98SAPE   H5R 9814   1.907   1.764   6.795 -0.8136 -1.6050  0.8909
   98SAPE   C26 9815   1.845   1.712   6.601 -0.2182 -0.2985 -0.3970
   98SAPE   H6R 9816   1.943   1.734   6.554 -1.6470  0.1722 -3.4305
   98SAPE   C27 9817   1.755   1.656   6.484 -0.0636  0.2503  0.4172
   98SAPE   H7R 9818   1.674   1.584   6.510  1.6332 -2.3606 -1.1429
   98SAPE   H7S 9819   1.822   1.591   6.424  0.4656  0.5507  0.6779
   98SAPE   C28 9820   1.683   1.759   6.402 -0.2705  0.3213  0.3087
   98SAPE   H8R 9821   1.611   1.819   6.460  0.1038  0.1857  0.9302
   98SAPE   C29 9822   1.715   1.791   6.280  0.3926 -0.6227 -0.5108
   98SAPE   H9R 9823   1.646   1.863   6.232  1.4401  0.3773 -0.5727
   98SAPE  C210 9824   1.824   1.731   6.196 -0.3159  0.0379  0.2484
   98SAPE  H10R 9825   1.816   1.622   6.177 -0.3613  0.4411 -2.5396
   98SAPE  H10S 9826   1.913   1.737   6.262 -0.2514 -0.4841  0.2104
   98SAPE  C211 9827   1.860   1.797   6.065  0.7300  0.4549  0.4851
   98SAPE  H11R 9828   1.946   1.865   6.076  1.8472 -1.0879  1.6125
   98SAPE  C212 9829   1.784   1.809   5.952  0.0518  0.9563  0.2340
   98SAPE  H12R 9830   1.823   1.879   5.877  1.7804  1.4307  1.5194
   98SAPE  C213 9831   1.654   1.734   5.919 -0.2346 -0.1709 -0.1881
   98SAPE  H13R 9832   1.648   1.663   6.005  1.2534 -0.6338 -0.4433
   98SAPE  H13S 9833   1.664   1.680   5.822  0.0237 -0.3809 -0.0478
   98SAPE  C214 9834   1.526   1.822   5.904  0.4627  0.0655 -0.1597
   98SAPE  H14R 9835   1.472   1.841   5.998  0.4512  0.5411 -0.2641
   98SAPE  C215 9836   1.491   1.894   5.797  0.4071  0.1738  0.1700
   98SAPE  H15R 9837   1.406   1.963   5.799  1.4063  1.5396 -1.4520
   98SAPE  C216 9838   1.575   1.887   5.674 -0.3524 -0.1261  0.5037
   98SAPE  H16R 9839   1.601   1.781   5.653 -1.3880 -1.1723  3.8524
   98SAPE  H16S 9840   1.665   1.950   5.691  0.2740 -0.3411 -1.7244
   98SAPE  C217 9841   1.499   1.944   5.553 -0.6029 -0.0270  0.1969
   98SAPE  H17R 9842   1.486   2.054   5.562  1.4674  0.2188  0.8567
   98SAPE  H17S 9843   1.400   1.898   5.535 -0.3195  0.2180 -2.4317
   98SAPE  C218 9844   1.589   1.930   5.426  0.1406  0.7573  0.2596
   98SAPE  H18R 9845   1.614   1.822   5.420  1.5251  0.9967  1.2373
   98SAPE  H18S 9846   1.682   1.991   5.424  0.7941 -0.1557  1.5532
   98SAPE  C219 9847   1.513   1.966   5.293 -0.3112  0.3784  0.7311
   98SAPE  H19R 9848   1.573   1.928   5.207 -0.0860  0.3828  0.8864
   98SAPE  H19S 9849   1.507   2.077   5.294  1.6511  0.5155  2.6865
   98SAPE  C220 9850   1.373   1.920   5.283  0.1843  0.0625  0.7761
   98SAPE  H20R 9851   1.361   1.817   5.323  0.3498 -0.0619  0.5082
   98SAPE  H20S 9852   1.343   1.915   5.177  0.9614  0.4438  0.5288
   98SAPE  H20T 9853   1.300   1.983   5.338 -2.2735 -0.5311 -1.6384
   98SAPE   C33 9854   1.346   2.001   6.664  0.2825 -0.6708  0.4455
   98SAPE   H3X 9855   1.391   1.900   6.664  2.2066  0.1113  1.8596
   98SAPE   H3Y 9856   1.424   2.070   6.625 -0.4673 -0.4767 -0.7655
   98SAPE   C34 9857   1.230   2.002   6.560 -0.0851 -0.5979  0.7259
   98SAPE   H4X 9858   1.196   2.101   6.524  0.2607 -0.4127  0.9101
   98SAPE   H4Y 9859   1.148   1.949   6.613  0.8580 -2.9675 -0.0338
   98SAPE   C35 9860   1.274   1.940   6.427  0.4022  0.7785 -0.0015
   98SAPE   H5X 9861   1.342   1.853   6.441 -0.7654 -0.2246 -0.4185
   98SAPE   H5Y 9862   1.336   2.022   6.385  1.4986  0.5766  1.1665
   98SAPE   C36 9863   1.157   1.923   6.327 -0.4594  0.1631 -0.4218
   98SAPE   H6X 9864   1.086   2.006   6.345  2.0037  2.0066  1.6016
   98SAPE   H6Y 9865   1.101   1.829   6.349  0.2370  0.1688  1.6047
   98SAPE   C37 9866   1.202   1.940   6.180  0.0235  0.2811  0.3792
   98SAPE   H7X 9867   1.278   1.865   6.147  1.3179  0.8966  1.8192
   98SAPE   H7Y 9868   1.245   2.038   6.152  1.0130 -0.1042  0.4949
   98SAPE   C38 9869   1.088   1.911   6.075  0.2455 -0.1652 -0.6167
   98SAPE   H8X 9870   0.982   1.917   6.106  0.6469 -1.8460  1.3236
   98SAPE   H8Y 9871   1.100   1.803   6.051  1.2684 -0.4065  0.8341
   98SAPE   C39 9872   1.111   1.991   5.947  0.1336  0.1352 -0.0694
   98SAPE   H9X 9873   1.214   1.998   5.908 -0.4393 -1.3856 -1.9961
   98SAPE   H9Y 9874   1.068   2.090   5.974 -0.8461 -0.3793  0.3135
   98SAPE  C310 9875   1.022   1.937   5.832  0.1591  0.1879  0.4665
   98SAPE  H10X 9876   0.920   1.966   5.863  1.3190  1.6506  3.2359
   98SAPE  H10Y 9877   1.033   1.826   5.827  1.7894  0.3604 -1.7734
   98SAPE  C311 9878   1.054   1.988   5.685 -0.3897 -0.0469  0.5483
   98SAPE  H11X 9879   1.157   1.955   5.657 -1.0183 -0.3208 -1.5782
   98SAPE  H11Y 9880   1.050   2.097   5.668  2.0549  0.0380  0.0882
   98SAPE  C312 9881   0.956   1.904   5.593 -0.2317 -0.1600  0.3261
   98SAPE  H12X 9882   0.860   1.959   5.593  0.5814  1.2889  0.3500
   98SAPE  H12Y 9883   0.952   1.795   5.614  1.9828 -0.7445 -1.7298
   98SAPE  C313 9884   1.002   1.905   5.447 -0.0358 -0.0512  0.6835
   98SAPE  H13X 9885   1.107   1.869   5.444  0.4830  1.4621 -0.8958
   98SAPE  H13Y 9886   1.022   2.011   5.420 -0.2705 -0.4822 -1.3261
   98SAPE  C314 9887   0.916   1.830   5.342 -0.2068  0.5559  0.2264
   98SAPE  H14X 9888   0.817   1.877   5.323  0.2409  1.6488  0.5072
   98SAPE  H14Y 9889   0.906   1.727   5.384  1.9609 -0.7968 -2.2628
   98SAPE  C315 9890   0.986   1.821   5.204  0.0822  0.4326 -0.6768
   98SAPE  H15X 9891   0.938   1.744   5.140 -1.6422  1.3755 -0.5867
   98SAPE  H15Y 9892   1.086   1.776   5.219 -0.0753  0.4653  0.5752
   98SAPE  C316 9893   0.993   1.956   5.136  0.0440  0.3525 -0.9906
   98SAPE  H16X 9894   1.032   2.031   5.208 -2.5164  0.4217  0.4404
   98SAPE  H16Y 9895   0.890   1.990   5.115 -0.8474 -1.6771 -0.1619
   98SAPE  C317 9896   1.068   1.961   5.002  0.0158  0.0327  0.1627
   98SAPE  H17X 9897   1.043   1.872   4.940 -1.7986  0.6231 -0.0126
   98SAPE  H17Y 9898   1.177   1.956   5.021 -0.1016 -1.5660  0.5906
   98SAPE  C318 9899   1.039   2.094   4.923 -0.4119 -0.0740 -0.8264
   98SAPE  H18X 9900   0.930   2.103   4.902 -0.4535  4.1042  0.2474
   98SAPE  H18Y 9901   1.096   2.089   4.828 -1.2145  0.1638 -1.3305
   98SAPE  H18Z 9902   1.072   2.188   4.972 -1.5797 -1.1933  2.3817
   99SAPE     N 9903   0.912   0.308   7.056  0.2672 -0.4910  0.1549
   99SAPE   HN1 9904   0.984   0.249   7.011  0.3544 -0.0893 -0.2400
   99SAPE   HN2 9905   0.856   0.365   6.989 -0.6069 -1.1457  0.3036
   99SAPE   HN3 9906   0.961   0.376   7.117 -0.9570  0.6443 -0.0630
   99SAPE   C12 9907   0.816   0.228   7.138  0.2869  0.2830 -0.3854
   99SAPE  H12A 9908   0.790   0.134   7.085  0.0080  0.8094 -1.1956
   99SAPE  H12B 9909   0.725   0.292   7.147  0.6734  0.8757 -0.5831
   99SAPE   C11 9910   0.872   0.211   7.285  0.0445 -0.0298  1.1496
   99SAPE  H11A 9911   0.962   0.146   7.277  0.1476  0.3388 -2.1465
   99SAPE  H11B 9912   0.802   0.155   7.351 -1.0532 -1.2152 -0.9020
   99SAPE     P 9913   0.994   0.335   7.483 -0.3354  0.4364 -0.2185
   99SAPE   O13 9914   0.921   0.417   7.581  0.4910 -0.2259  0.1209
   99SAPE   O14 9915   1.024   0.199   7.527 -0.4793  0.0378  0.4046
   99SAPE   O12 9916   0.906   0.333   7.349 -0.5031 -0.2579 -0.7998
   99SAPE   O11 9917   1.124   0.409   7.435 -0.3555 -0.0143  0.4386
   99SAPE    C1 9918   1.261   0.368   7.471  0.1010  0.1447 -0.4249
   99SAPE    HA 9919   1.306   0.430   7.551 -0.1241 -1.6915  1.1834
   99SAPE    HB 9920   1.258   0.263   7.506 -1.7826  0.7930  1.5834
   99SAPE    C2 9921   1.370   0.384   7.364 -0.6835  0.3217  0.3009
   99SAPE    HS 9922   1.463   0.352   7.416  0.3290 -0.3691 -1.8395
   99SAPE   O21 9923   1.369   0.515   7.306 -0.5983 -0.1020  0.1453
   99SAPE   C21 9924   1.484   0.548   7.244  0.8198 -0.4296  0.0651
   99SAPE   O22 9925   1.588   0.480   7.244  0.0643 -0.4414  0.0449
   99SAPE   C22 9926   1.451   0.664   7.148 -0.2858  0.2205  0.1309
   99SAPE   H2R 9927   1.343   0.657   7.123 -0.7543 -0.8642  2.2438
   99SAPE   H2S 9928   1.445   0.761   7.200  1.2137  0.1596  0.4715
   99SAPE    C3 9929   1.344   0.266   7.260  0.1991  0.3434  0.6588
   99SAPE    HX 9930   1.238   0.272   7.228  0.8572  0.3071 -1.7260
   99SAPE    HY 9931   1.341   0.164   7.304 -3.9731  0.0202 -0.0068
   99SAPE   O31 9932   1.432   0.260   7.144  0.6423 -0.3515  0.0354
   99SAPE   C31 9933   1.545   0.196   7.157  0.8831 -0.1671  0.3604
   99SAPE   O32 9934   1.576   0.127   7.253  0.0250  0.3157 -0.3975
   99SAPE   C32 9935   1.622   0.219   7.029 -0.9206  0.5359 -0.1800
   99SAPE   H2X 9936   1.684   0.311   7.030  0.2806 -0.2515  0.6713
   99SAPE   H2Y 9937   1.554   0.223   6.941 -0.4915 -0.6176 -0.5799
   99SAPE   C23 9938   1.548   0.680   7.026 -0.2280 -0.3806 -0.5488
   99SAPE   H3R 9939   1.654   0.662   7.057 -0.6413  0.6178  1.6954
   99SAPE   H3S 9940   1.552   0.786   6.993  1.4616 -1.0186 -2.6116
   99SAPE   C24 9941   1.508   0.596   6.907 -0.1042  0.1723  0.8522
   99SAPE   H4R 9942   1.467   0.495   6.929 -3.6184  1.2179 -0.1781
   99SAPE   H4S 9943   1.599   0.572   6.848  0.5243  1.9484  1.0218
   99SAPE   C25 9944   1.401   0.663   6.825 -0.7827  0.1326  0.0872
   99SAPE   H5R 9945   1.301   0.678   6.868 -1.1722 -0.7357 -0.4775
   99SAPE   C26 9946   1.415   0.715   6.700  0.3125  0.5203 -0.6675
   99SAPE   H6R 9947   1.330   0.776   6.666 -0.0058  1.1358  1.1373
   99SAPE   C27 9948   1.531   0.711   6.610  0.1962 -0.4103 -0.4186
   99SAPE   H7R 9949   1.526   0.616   6.553  0.7021 -0.5075 -0.3097
   99SAPE   H7S 9950   1.626   0.707   6.668  0.6571  1.3522 -0.9911
   99SAPE   C28 9951   1.533   0.842   6.527  0.8466 -0.1866 -0.3554
   99SAPE   H8R 9952   1.553   0.929   6.591 -0.5738  0.8641 -1.2751
   99SAPE   C29 9953   1.506   0.861   6.395  0.1057  0.5439  0.2977
   99SAPE   H9R 9954   1.504   0.960   6.348  2.4562  1.0993  1.2098
   99SAPE  C210 9955   1.468   0.747   6.301  0.1472 -0.0797 -0.1674
   99SAPE  H10R 9956   1.393   0.780   6.226  0.9642  0.5062 -0.7429
   99SAPE  H10S 9957   1.414   0.676   6.367  1.2623 -0.9667 -0.1733
   99SAPE  C211 9958   1.592   0.696   6.228  0.0387 -0.1777  0.7475
   99SAPE  H11R 9959   1.664   0.642   6.291  1.3915  0.2309 -0.3907
   99SAPE  C212 9960   1.624   0.719   6.095 -0.2285  0.5441 -0.4482
   99SAPE  H12R 9961   1.713   0.670   6.053  0.3450  1.2392 -0.0720
   99SAPE  C213 9962   1.542   0.796   5.992  0.4882 -0.3017  0.0331
   99SAPE  H13R 9963   1.453   0.850   6.032  1.1711  1.2351 -0.4531
   99SAPE  H13S 9964   1.508   0.730   5.910 -0.6555  0.0830  0.1698
   99SAPE  C214 9965   1.630   0.893   5.924 -0.4655  0.0158 -0.3028
   99SAPE  H14R 9966   1.737   0.866   5.920 -0.5793 -0.3483 -2.5012
   99SAPE  C215 9967   1.585   1.005   5.868  0.4553 -0.2847 -0.3096
   99SAPE  H15R 9968   1.661   1.059   5.808  1.2247 -1.2722 -0.2472
   99SAPE  C216 9969   1.432   1.049   5.861  0.6500  0.3208 -0.3174
   99SAPE  H16R 9970   1.417   1.156   5.835  1.1448 -0.0762 -2.5060
   99SAPE  H16S 9971   1.372   1.027   5.952 -1.1849 -0.9828 -1.7604
   99SAPE  C217 9972   1.359   0.984   5.744 -0.1398 -0.4051  0.6053
   99SAPE  H17R 9973   1.251   0.980   5.768 -0.6540  1.8548 -1.0376
   99SAPE  H17S 9974   1.382   0.875   5.740  3.0898  0.1965 -2.6469
   99SAPE  C218 9975   1.379   1.052   5.606 -0.0731 -0.1577 -1.3593
   99SAPE  H18R 9976   1.467   1.008   5.555  1.2135 -0.6011  1.0907
   99SAPE  H18S 9977   1.413   1.156   5.625  0.0494 -0.3169 -0.6896
   99SAPE  C219 9978   1.254   1.051   5.512  0.1892 -0.3773  0.2081
   99SAPE  H19R 9979   1.192   1.141   5.532 -2.2952 -1.7504 -0.8069
   99SAPE  H19S 9980   1.187   0.962   5.524  0.4724 -0.5645  0.4005
   99SAPE  C220 9981   1.279   1.056   5.370  0.6595 -0.3330  0.6824
   99SAPE  H20R 9982   1.339   1.147   5.351  0.9762 -0.5119  0.8128
   99SAPE  H20S 9983   1.191   1.061   5.303 -0.4945  1.0196  2.2226
   99SAPE  H20T 9984   1.340   0.965   5.351  0.2902 -0.4489  0.0331
   99SAPE   C33 9985   1.728   0.106   6.990  0.1518  0.2796  0.6382
   99SAPE   H3X 9986   1.673   0.010   6.997 -0.4276  0.6703  1.7501
   99SAPE   H3Y 9987   1.810   0.113   7.064 -0.4976  1.2687  1.2870
   99SAPE   C34 9988   1.785   0.116   6.847 -0.4173 -0.6968  0.0837
   99SAPE   H4X 9989   1.708   0.088   6.771  0.3635  1.4898 -1.6494
   99SAPE   H4Y 9990   1.858   0.033   6.836 -1.0687 -1.3040  0.3032
   99SAPE   C35 9991   1.823   0.259   6.802  0.1490 -0.0306 -0.4003
   99SAPE   H5X 9992   1.880   0.292   6.891 -1.2444  0.6526  0.2639
   99SAPE   H5Y 9993   1.734   0.325   6.806  0.2765  0.1845 -1.0305
   99SAPE   C36 9994   1.896   0.265   6.666 -0.3203  0.2986 -0.6511
   99SAPE   H6X 9995   1.842   0.204   6.590 -1.9383 -1.0844  1.4966
   99SAPE   H6Y 9996   1.996   0.220   6.684  0.2070  2.1783  1.7557
   99SAPE   C37 9997   1.910   0.407   6.609  0.0656  0.7336  0.3675
   99SAPE   H7X 9998   1.991   0.462   6.661  0.3374  2.9382 -2.1794
   99SAPE   H7Y 9999   1.812   0.459   6.620 -0.8548 -0.9844  0.5806
   99SAPE   C3810000   1.942   0.404   6.462 -0.4828 -0.4090 -1.1645
   99SAPE   H8X10001   1.875   0.328   6.417 -1.0362  0.1002 -1.2180
   99SAPE   H8Y10002   2.043   0.366   6.440 -0.0486  0.4290 -0.6772
   99SAPE   C3910003   1.927   0.539   6.390  0.3173 -0.8668 -0.1084
   99SAPE   H9X10004   1.988   0.606   6.454 -3.2077  0.3166  2.3327
   99SAPE   H9Y10005   1.820   0.564   6.405  0.2657 -1.1135 -0.0588
   99SAPE  C31010006   1.960   0.534   6.239 -0.4686 -0.1416  0.3742
   99SAPE  H10X10007   1.890   0.473   6.179 -0.9722  1.0243 -0.2540
   99SAPE  H10Y10008   2.055   0.475   6.241  0.0339  0.6454  1.9159
   99SAPE  C31110009   1.993   0.663   6.168 -0.3042  0.1167 -0.1690
   99SAPE  H11X10010   2.063   0.727   6.226 -0.2313 -0.6403  0.6040
   99SAPE  H11Y10011   1.903   0.726   6.154  0.0385  0.4515 -0.9106
   99SAPE  C31210012   2.048   0.641   6.026  0.2091  0.8401  0.1451
   99SAPE  H12X10013   2.006   0.548   5.982  0.5625 -0.0884  1.6932
   99SAPE  H12Y10014   2.156   0.613   6.023  0.0406  0.2969 -1.5832
   99SAPE  C31310015   2.022   0.764   5.933  0.0197  0.0029  0.2367
   99SAPE  H13X10016   2.051   0.858   5.985  0.9442  0.3521 -0.8372
   99SAPE  H13Y10017   1.912   0.777   5.927 -0.0856 -1.1195 -0.7160
   99SAPE  C31410018   2.090   0.767   5.793  0.0152 -0.7987  0.3266
   99SAPE  H14X10019   2.200   0.787   5.797  0.4055 -1.2194 -3.8655
   99SAPE  H14Y10020   2.045   0.853   5.739  1.2683 -0.8323 -0.8354
   99SAPE  C31510021   2.067   0.643   5.708  0.2130  0.4303  0.2458
   99SAPE  H15X10022   1.959   0.630   5.685 -0.1031  0.4136  1.6447
   99SAPE  H15Y10023   2.091   0.559   5.776  0.2689  0.8343  0.7340
   99SAPE  C31610024   2.156   0.661   5.585 -0.4395 -0.1399  0.0209
   99SAPE  H16X10025   2.258   0.642   5.623 -1.2966 -1.8658  1.6078
   99SAPE  H16Y10026   2.150   0.765   5.546 -0.8978  0.7028  2.2101
   99SAPE  C31710027   2.137   0.559   5.473  0.0861  0.4170 -0.0288
   99SAPE  H17X10028   2.028   0.549   5.455  0.4067  0.4050 -2.3399
   99SAPE  H17Y10029   2.180   0.462   5.506  2.1707  0.1433 -3.0946
   99SAPE  C31810030   2.211   0.597   5.343 -0.7983 -0.3180 -0.0587
   99SAPE  H18X10031   2.187   0.522   5.265  1.1550 -3.1679  1.8365
   99SAPE  H18Y10032   2.320   0.579   5.356 -1.2743 -1.7858  2.5683
   99SAPE  H18Z10033   2.185   0.701   5.314  0.0169 -0.2813 -0.6920
  100SAPE     N10034   6.567   5.670   7.605  0.1595 -0.2903  0.0328
  100SAPE   HN110035   6.622   5.665   7.693 -1.7355  1.7490  1.4485
  100SAPE   HN210036   6.488   5.736   7.619  0.2404 -0.2501  0.3071
  100SAPE   HN310037   6.526   5.575   7.597 -0.2392 -0.1409  0.2394
  100SAPE   C1210038   6.660   5.711   7.493 -0.6941 -0.9027  0.6275
  100SAPE  H12A10039   6.750   5.647   7.500 -0.9475 -1.3143  0.2311
  100SAPE  H12B10040   6.685   5.818   7.510 -3.6310  0.3145 -1.8470
  100SAPE   C1110041   6.585   5.689   7.363  0.6668  0.0500  0.1834
  100SAPE  H11A10042   6.655   5.716   7.282  1.8270 -0.0371  1.1306
  100SAPE  H11B10043   6.498   5.758   7.363 -0.7741 -1.6877 -0.4497
  100SAPE     P10044   6.441   5.496   7.246  0.2935 -0.4748  0.4488
  100SAPE   O1310045   6.523   5.425   7.149  0.0291  0.1788  0.2361
  100SAPE   O1410046   6.317   5.431   7.294 -0.2886 -0.4128  0.5028
  100SAPE   O1210047   6.531   5.551   7.355 -0.2747 -0.1199  0.5904
  100SAPE   O1110048   6.398   5.622   7.176  0.1061 -0.9861  0.0943
  100SAPE    C110049   6.281   5.700   7.214  0.3160 -0.0333  0.0874
  100SAPE    HA10050   6.250   5.672   7.317 -1.1992 -0.6371 -0.4966
  100SAPE    HB10051   6.292   5.810   7.204  1.7270 -0.1308  0.2928
  100SAPE    C210052   6.160   5.659   7.124 -0.5703 -0.5769  0.2551
  100SAPE    HS10053   6.154   5.549   7.128  1.0153 -0.8321 -2.1965
  100SAPE   O2110054   6.182   5.711   6.989  0.4531  0.3666  0.2391
  100SAPE   C2110055   6.179   5.617   6.896 -0.1219 -0.0398 -0.2698
  100SAPE   O2210056   6.181   5.495   6.918  0.7372 -0.4862  0.0890
  100SAPE   C2210057   6.198   5.675   6.757 -0.4382  0.3015  0.1634
  100SAPE   H2R10058   6.145   5.772   6.753  2.6980  2.3473  2.9249
  100SAPE   H2S10059   6.306   5.695   6.738 -0.2944  1.9476  2.4331
  100SAPE    C310060   6.027   5.714   7.179  0.8046 -0.3910  0.0086
  100SAPE    HX10061   6.035   5.825   7.171 -0.7091 -0.2807 -0.2122
  100SAPE    HY10062   6.024   5.680   7.285 -0.6777 -0.1205  0.0658
  100SAPE   O3110063   5.914   5.675   7.098  0.0136  0.3232  0.5258
  100SAPE   C3110064   5.866   5.549   7.119  0.4619  0.1488 -0.5346
  100SAPE   O3210065   5.911   5.471   7.199  0.1471 -0.1441  0.3433
  100SAPE   C3210066   5.764   5.508   7.013  0.1355 -0.2633 -0.4890
  100SAPE   H2X10067   5.760   5.600   6.950 -0.1552  0.1985  0.1931
  100SAPE   H2Y10068   5.666   5.496   7.065 -0.1983 -0.3391 -1.1151
  100SAPE   C2310069   6.154   5.570   6.651 -0.5025 -0.5364  0.0816
  100SAPE   H3R10070   6.055   5.522   6.664 -1.3387  0.9498 -0.5668
  100SAPE   H3S10071   6.224   5.484   6.652 -1.8743 -1.7889 -2.4396
  100SAPE   C2410072   6.167   5.624   6.503 -0.1295 -0.2448  0.0083
  100SAPE   H4R10073   6.139   5.535   6.442  0.1219 -1.2806  1.3462
  100SAPE   H4S10074   6.266   5.657   6.467 -0.4907 -0.5478 -1.3068
  100SAPE   C2510075   6.052   5.720   6.471  0.0430  0.0174 -0.3846
  100SAPE   H5R10076   5.983   5.739   6.555 -0.1725  0.6159 -0.6980
  100SAPE   C2610077   6.027   5.765   6.348  0.6776  1.0333 -0.4851
  100SAPE   H6R10078   5.931   5.817   6.335 -1.5176 -2.2648  1.3492
  100SAPE   C2710079   6.114   5.756   6.228 -0.0649 -0.0897  0.2312
  100SAPE   H7R10080   6.218   5.750   6.267  0.3755  2.1354 -0.4518
  100SAPE   H7S10081   6.115   5.847   6.164 -0.5747 -1.0851 -1.2450
  100SAPE   C2810082   6.083   5.638   6.151  0.0959  0.2855 -0.1296
  100SAPE   H8R10083   6.042   5.547   6.199 -3.8260  0.2421 -3.0095
  100SAPE   C2910084   6.072   5.632   6.017 -0.3342 -0.9283  0.6959
  100SAPE   H9R10085   6.015   5.545   5.980 -1.2496 -0.0808  0.0879
  100SAPE  C21010086   6.108   5.737   5.907 -0.5681  0.4018  0.3250
  100SAPE  H10R10087   6.162   5.817   5.961  0.7929  0.2206 -0.7027
  100SAPE  H10S10088   6.020   5.783   5.857 -1.3279 -2.1301 -0.8433
  100SAPE  C21110089   6.208   5.676   5.810  0.3109 -0.7006 -0.4925
  100SAPE  H11R10090   6.295   5.629   5.858  0.1984  0.4976  0.9691
  100SAPE  C21210091   6.203   5.661   5.680  0.1363 -0.2609  0.2771
  100SAPE  H12R10092   6.288   5.619   5.624 -0.1552  1.3103 -1.4331
  100SAPE  C21310093   6.084   5.706   5.598 -0.0754 -0.2787 -0.7547
  100SAPE  H13R10094   5.991   5.694   5.656  0.0880  1.0794 -0.1820
  100SAPE  H13S10095   6.078   5.633   5.514 -0.4301  0.0525 -1.0245
  100SAPE  C21410096   6.103   5.849   5.560 -0.5756 -0.8798 -0.0089
  100SAPE  H14R10097   6.089   5.914   5.647 -1.3215 -1.1042  0.0480
  100SAPE  C21510098   6.123   5.914   5.439 -0.1662  0.3433 -0.1730
  100SAPE  H15R10099   6.133   6.023   5.437  1.5169  0.2783  1.7427
  100SAPE  C21610100   6.150   5.844   5.306 -0.9887 -0.2493 -0.3787
  100SAPE  H16R10101   6.113   5.739   5.307  0.2400 -0.7043 -1.2652
  100SAPE  H16S10102   6.260   5.846   5.291 -1.2527 -0.0809 -2.5418
  100SAPE  C21710103   6.081   5.922   5.193  0.5291  0.2999 -0.8861
  100SAPE  H17R10104   6.116   6.027   5.192 -0.2565  0.7094  2.5947
  100SAPE  H17S10105   5.974   5.936   5.220  0.5273 -1.0802 -0.0728
  100SAPE  C21810106   6.095   5.865   5.051  0.1974 -0.5174 -1.0201
  100SAPE  H18R10107   6.059   5.760   5.061  1.5646 -0.7575  3.2159
  100SAPE  H18S10108   6.203   5.866   5.026  0.2748  2.4187 -0.8651
  100SAPE  C21910109   5.999   5.940   4.951 -0.2402 -0.8098  0.2152
  100SAPE  H19R10110   6.038   6.044   4.960 -2.1031  0.2888 -3.0423
  100SAPE  H19S10111   5.895   5.932   4.990 -0.6891 -1.7227 -1.0956
  100SAPE  C22010112   6.020   5.893   4.805 -0.1708 -0.1729 -0.3973
  100SAPE  H20R10113   6.129   5.885   4.786  0.4314  1.7318  1.7959
  100SAPE  H20S10114   5.982   5.972   4.736 -0.7430  1.1307  1.3284
  100SAPE  H20T10115   5.967   5.797   4.784  2.3380 -1.7444  0.0642
  100SAPE   C3310116   5.805   5.385   6.936  0.4121 -0.5888 -0.3095
  100SAPE   H3X10117   5.827   5.302   7.005  0.1583  1.3408  2.2524
  100SAPE   H3Y10118   5.901   5.403   6.883 -0.1230  1.1142 -0.7760
  100SAPE   C3410119   5.702   5.355   6.825 -0.4018 -1.0011  1.1292
  100SAPE   H4X10120   5.716   5.436   6.751  0.4989 -2.6518 -0.6018
  100SAPE   H4Y10121   5.597   5.358   6.861 -0.4469 -1.5118  1.0573
  100SAPE   C3510122   5.736   5.226   6.749  0.0737 -0.4261 -0.4851
  100SAPE   H5X10123   5.705   5.138   6.810  1.8836 -1.1374 -0.5343
  100SAPE   H5Y10124   5.846   5.212   6.744  0.1783  0.5197 -1.1102
  100SAPE   C3610125   5.692   5.227   6.600 -0.0371  0.0984  0.1173
  100SAPE   H6X10126   5.715   5.319   6.542 -0.8839  1.0962  1.2913
  100SAPE   H6Y10127   5.581   5.222   6.602 -0.0193 -0.5377 -0.2387
  100SAPE   C3710128   5.761   5.105   6.534  0.5190 -0.4153 -0.6349
  100SAPE   H7X10129   5.720   5.011   6.575 -0.2352 -0.2644 -1.0171
  100SAPE   H7Y10130   5.871   5.102   6.542  0.5780 -0.1516 -1.3392
  100SAPE   C3810131   5.740   5.090   6.382 -0.8773 -0.7366  0.3292
  100SAPE   H8X10132   5.788   5.179   6.337  0.0994 -1.3320  0.1556
  100SAPE   H8Y10133   5.631   5.094   6.357 -1.3383 -1.4738  2.0497
  100SAPE   C3910134   5.800   4.967   6.301  0.7217 -0.3174  0.1764
  100SAPE   H9X10135   5.753   4.877   6.348  1.8287 -1.3119 -0.5771
  100SAPE   H9Y10136   5.909   4.956   6.315  0.6017 -0.4644  1.0915
  100SAPE  C31010137   5.761   4.966   6.148  0.0039  0.3394 -0.0831
  100SAPE  H10X10138   5.653   4.994   6.140 -0.3351 -0.8595  0.0978
  100SAPE  H10Y10139   5.762   4.859   6.119  0.9496 -0.4993  2.7596
  100SAPE  C31110140   5.839   5.049   6.046 -0.5584 -0.1597 -0.3353
  100SAPE  H11X10141   5.944   5.066   6.079 -0.4155 -1.4485 -0.0675
  100SAPE  H11Y10142   5.783   5.144   6.044 -2.2817 -1.0900 -3.4550
  100SAPE  C31210143   5.839   4.983   5.908  0.4306  0.2901 -0.5284
  100SAPE  H12X10144   5.865   4.876   5.924  2.0295  1.0590  2.9590
  100SAPE  H12Y10145   5.918   5.032   5.845 -0.0919  1.4155 -0.3297
  100SAPE  C31310146   5.702   4.987   5.841 -0.8612  0.5693 -0.0708
  100SAPE  H13X10147   5.665   5.091   5.837 -0.0161  0.9163  0.7062
  100SAPE  H13Y10148   5.625   4.933   5.900  0.1646  0.3211  1.0995
  100SAPE  C31410149   5.712   4.941   5.694  0.9545  0.4164  0.2656
  100SAPE  H14X10150   5.799   4.982   5.639  0.0111 -0.0062 -1.6486
  100SAPE  H14Y10151   5.619   4.972   5.640 -0.3432 -2.2813  0.7348
  100SAPE  C31510152   5.732   4.791   5.673 -0.3109  0.0890  0.4313
  100SAPE  H15X10153   5.654   4.740   5.734  0.5567  0.3920  1.8538
  100SAPE  H15Y10154   5.833   4.763   5.710  0.2691 -0.0374 -1.1745
  100SAPE  C31610155   5.708   4.738   5.526  0.2160 -0.1352 -0.1654
  100SAPE  H16X10156   5.755   4.821   5.468 -1.1422  0.3309 -0.6334
  100SAPE  H16Y10157   5.602   4.741   5.492  0.3735  0.3793 -0.6349
  100SAPE  C31710158   5.769   4.607   5.488 -0.6710 -0.3588  0.1812
  100SAPE  H17X10159   5.742   4.513   5.540  1.6174 -1.5584 -0.6473
  100SAPE  H17Y10160   5.879   4.618   5.499 -0.9511  0.3829  2.6965
  100SAPE  C31810161   5.746   4.572   5.340  0.1152 -0.0014  0.0086
  100SAPE  H18X10162   5.640   4.548   5.319 -0.8048  1.6248  2.4116
  100SAPE  H18Y10163   5.800   4.476   5.322 -0.4613 -0.3793  0.2698
  100SAPE  H18Z10164   5.787   4.650   5.272 -0.0377 -0.9997 -1.2636
  101SAPE     N10165   4.397   5.010   7.619  0.4201 -0.7512  0.2246
  101SAPE   HN110166   4.409   5.103   7.664 -0.3900 -0.3646 -0.3455
  101SAPE   HN210167   4.310   5.016   7.563 -0.0383  1.8909  1.0533
  101SAPE   HN310168   4.386   4.931   7.686 -1.3956 -3.3133 -2.8437
  101SAPE   C1210169   4.508   4.957   7.531  0.0619 -0.4161 -0.1389
  101SAPE  H12A10170   4.585   4.918   7.602 -0.8034 -0.6848  0.6785
  101SAPE  H12B10171   4.549   5.042   7.472  1.6441 -0.1937  1.1758
  101SAPE   C1110172   4.465   4.837   7.437  0.2326  0.2557 -0.0761
  101SAPE  H11A10173   4.549   4.802   7.374  0.1466  0.3131 -0.2221
  101SAPE  H11B10174   4.397   4.880   7.361 -0.9478 -0.6445  0.4309
  101SAPE     P10175   4.334   4.612   7.420  0.5528 -0.1051 -0.5061
  101SAPE   O1310176   4.399   4.484   7.447 -0.0831 -0.1345  0.4154
  101SAPE   O1410177   4.189   4.621   7.452  0.1066 -0.2207  0.1512
  101SAPE   O1210178   4.413   4.722   7.515  0.1901  0.3962  0.3053
  101SAPE   O1110179   4.357   4.661   7.269  0.2181 -0.1320 -0.4851
  101SAPE    C110180   4.397   4.565   7.177 -0.5083 -0.0961  0.3398
  101SAPE    HA10181   4.501   4.529   7.192  0.1400  0.8258 -1.6969
  101SAPE    HB10182   4.317   4.488   7.180 -1.8278  1.1459 -1.2882
  101SAPE    C210183   4.385   4.631   7.031  0.2407 -0.1601  0.6974
  101SAPE    HS10184   4.477   4.687   7.005 -0.2140  0.0402 -0.5233
  101SAPE   O2110185   4.272   4.716   7.014  1.0876 -0.2426 -0.3781
  101SAPE   C2110186   4.293   4.845   7.028 -0.1342  0.4316 -0.2235
  101SAPE   O2210187   4.401   4.897   7.060 -0.5424 -0.4320  0.8192
  101SAPE   C2210188   4.160   4.915   7.016 -0.3924  0.0085  0.1548
  101SAPE   H2R10189   4.100   4.860   6.940  0.9766  0.3015 -1.1823
  101SAPE   H2S10190   4.108   4.920   7.114 -1.9990 -1.5762 -0.5662
  101SAPE    C310191   4.376   4.521   6.921 -0.1766  0.3520  0.3663
  101SAPE    HX10192   4.286   4.460   6.947 -1.9247  2.2994 -0.7924
  101SAPE    HY10193   4.472   4.466   6.925  0.0761  0.8125  0.7043
  101SAPE   O3110194   4.371   4.587   6.793 -0.1065 -0.0550  0.4387
  101SAPE   C3110195   4.292   4.532   6.703  0.0638 -0.1783  0.2011
  101SAPE   O3210196   4.237   4.422   6.705  0.0495 -0.5419 -0.0302
  101SAPE   C3210197   4.266   4.638   6.591  0.3503  0.2760  0.5863
  101SAPE   H2X10198   4.361   4.685   6.558 -0.6592  1.5528 -0.6182
  101SAPE   H2Y10199   4.185   4.704   6.628 -0.1335 -0.6813  1.3156
  101SAPE   C2310200   4.180   5.052   6.950  0.1099  0.2853 -0.2028
  101SAPE   H3R10201   4.237   5.115   7.023 -0.8988 -0.8084  1.6049
  101SAPE   H3S10202   4.083   5.101   6.929 -0.0512  0.3844  0.6948
  101SAPE   C2410203   4.258   5.045   6.814 -0.5754 -0.2497 -0.0673
  101SAPE   H4R10204   4.225   4.954   6.759  2.2717  0.3324 -3.0746
  101SAPE   H4S10205   4.363   5.021   6.842 -1.0569 -2.1589  0.2565
  101SAPE   C2510206   4.251   5.168   6.724 -0.2785  0.2102  0.4745
  101SAPE   H5R10207   4.235   5.260   6.783  1.1080 -0.7457  2.4723
  101SAPE   C2610208   4.248   5.179   6.594 -1.0564  0.5662 -0.0379
  101SAPE   H6R10209   4.224   5.280   6.558 -1.8207  0.2790 -0.3665
  101SAPE   C2710210   4.255   5.076   6.486  0.3460 -0.0942 -0.3319
  101SAPE   H7R10211   4.266   4.974   6.527  1.0612  0.0824 -0.0714
  101SAPE   H7S10212   4.342   5.100   6.421  0.3413  2.1358  0.3849
  101SAPE   C2810213   4.130   5.078   6.398 -0.9168  0.0253 -0.8392
  101SAPE   H8R10214   4.048   5.019   6.443 -1.4484  0.0880 -1.6991
  101SAPE   C2910215   4.105   5.166   6.303 -0.1439 -0.0200 -0.0586
  101SAPE   H9R10216   4.018   5.152   6.237 -1.8339  0.4317  1.9880
  101SAPE  C21010217   4.205   5.271   6.254 -0.8302  0.0770  0.0084
  101SAPE  H10R10218   4.310   5.233   6.256 -1.1034 -0.6725  1.4956
  101SAPE  H10S10219   4.212   5.353   6.329 -1.8421 -0.8401  1.1408
  101SAPE  C21110220   4.159   5.320   6.115  0.3419  0.1541 -0.6408
  101SAPE  H11R10221   4.050   5.332   6.111 -0.0762 -1.9803  1.8291
  101SAPE  C21210222   4.234   5.349   6.011 -0.0337 -0.2223  0.3952
  101SAPE  H12R10223   4.196   5.389   5.916  1.0631  0.6183  0.2943
  101SAPE  C21310224   4.383   5.333   5.996 -0.0696 -0.4863  0.0031
  101SAPE  H13R10225   4.410   5.245   5.933  1.4312 -0.1253  0.1067
  101SAPE  H13S10226   4.423   5.315   6.098 -2.3377  2.6023  1.5819
  101SAPE  C21410227   4.432   5.461   5.935  0.2117  0.4414 -0.2895
  101SAPE  H14R10228   4.413   5.552   5.994  3.4559  2.0806 -1.5014
  101SAPE  C21510229   4.521   5.475   5.829  0.1662 -0.7711 -0.6745
  101SAPE  H15R10230   4.571   5.571   5.809 -2.7527  0.6822 -1.4845
  101SAPE  C21610231   4.585   5.364   5.742  0.2085 -0.0176  0.9596
  101SAPE  H16R10232   4.559   5.259   5.770  2.5633 -1.0890 -0.5258
  101SAPE  H16S10233   4.695   5.372   5.736  0.2259 -1.0166 -0.5964
  101SAPE  C21710234   4.533   5.358   5.591 -0.6119 -0.2187  0.1420
  101SAPE  H17R10235   4.423   5.343   5.588 -0.3978 -1.8423 -1.1953
  101SAPE  H17S10236   4.585   5.271   5.544 -0.5584 -0.9847  1.5850
  101SAPE  C21810237   4.572   5.476   5.511  0.4274 -0.2902  0.6682
  101SAPE  H18R10238   4.583   5.568   5.573  0.3415  0.4438 -0.3717
  101SAPE  H18S10239   4.486   5.497   5.444 -2.2949  0.5178  4.0552
  101SAPE  C21910240   4.700   5.455   5.433 -0.1137 -0.7088 -0.2078
  101SAPE  H19R10241   4.669   5.382   5.356 -2.2007  0.2702 -0.3593
  101SAPE  H19S10242   4.775   5.405   5.499 -0.9152 -1.9955 -0.2453
  101SAPE  C22010243   4.757   5.571   5.356 -0.4143 -0.1181 -0.0772
  101SAPE  H20R10244   4.683   5.606   5.281  0.5924 -0.5062 -1.2858
  101SAPE  H20S10245   4.855   5.548   5.309  0.2725  2.7711 -0.2390
  101SAPE  H20T10246   4.779   5.663   5.414  1.0371 -0.9495  0.7585
  101SAPE   C3310247   4.218   4.566   6.466 -0.5947  0.3847 -0.1717
  101SAPE   H3X10248   4.143   4.489   6.494  0.4311 -0.2169  0.9844
  101SAPE   H3Y10249   4.297   4.500   6.426 -1.6829 -1.0055 -0.1113
  101SAPE   C3410250   4.158   4.658   6.354 -0.1808 -0.0690 -0.6053
  101SAPE   H4X10251   4.078   4.726   6.389 -2.1179 -2.6459  0.3607
  101SAPE   H4Y10252   4.107   4.586   6.286  0.6282 -2.1031  0.8534
  101SAPE   C3510253   4.261   4.744   6.284  0.0628  0.2640 -1.0450
  101SAPE   H5X10254   4.349   4.677   6.271  0.2535  0.6384 -1.7497
  101SAPE   H5Y10255   4.290   4.840   6.331 -1.4023  1.4955 -2.5411
  101SAPE   C3610256   4.214   4.776   6.141  0.2939 -1.0133 -0.2182
  101SAPE   H6X10257   4.106   4.799   6.154  0.0393 -2.1379 -0.2669
  101SAPE   H6Y10258   4.224   4.687   6.076  2.2369  0.2565 -1.7793
  101SAPE   C3710259   4.286   4.892   6.068  0.6948  0.6334 -0.0545
  101SAPE   H7X10260   4.396   4.877   6.076  0.4533 -1.1102  0.2342
  101SAPE   H7Y10261   4.256   4.988   6.115 -0.2026  1.7106 -2.6289
  101SAPE   C3810262   4.259   4.893   5.916  0.1892  0.3609  0.2621
  101SAPE   H8X10263   4.270   4.792   5.870  0.2123 -0.0813  1.2192
  101SAPE   H8Y10264   4.325   4.973   5.875  0.5175  0.6605  1.3585
  101SAPE   C3910265   4.120   4.945   5.879 -0.6041 -0.4008  0.2032
  101SAPE   H9X10266   4.087   5.027   5.946  1.8665  1.4965 -0.7198
  101SAPE   H9Y10267   4.048   4.862   5.886 -0.6705 -0.4911 -1.2689
  101SAPE  C31010268   4.111   5.002   5.740 -0.8280 -0.1203 -0.5342
  101SAPE  H10X10269   4.162   4.929   5.673  0.4404  1.8682 -1.8476
  101SAPE  H10Y10270   4.171   5.096   5.737  2.8435 -2.2687 -0.4593
  101SAPE  C31110271   3.969   5.048   5.703 -0.0849  0.1810 -0.3549
  101SAPE  H11X10272   3.944   5.112   5.790 -0.0726 -0.5620  0.2050
  101SAPE  H11Y10273   3.905   4.958   5.700  0.6499 -0.4167  1.0664
  101SAPE  C31210274   3.971   5.123   5.569  0.1637  0.5639  0.4013
  101SAPE  H12X10275   4.052   5.197   5.551  0.3755  0.0115 -1.0338
  101SAPE  H12Y10276   3.876   5.181   5.564 -2.8540 -3.8951  0.1125
  101SAPE  C31310277   3.972   5.023   5.444  1.1590 -0.0670 -0.0560
  101SAPE  H13X10278   4.045   4.941   5.460  0.1304 -1.3150 -1.4862
  101SAPE  H13Y10279   3.999   5.077   5.351  2.4824 -1.2330 -0.3853
  101SAPE  C31410280   3.835   4.952   5.439 -0.4492  0.4661  0.5528
  101SAPE  H14X10281   3.769   4.980   5.354 -2.2386  0.9042  2.0323
  101SAPE  H14Y10282   3.766   4.948   5.526 -2.8626 -3.2587 -1.2370
  101SAPE  C31510283   3.862   4.800   5.411  0.4612 -0.7515  0.3542
  101SAPE  H15X10284   3.925   4.754   5.491  0.6631  0.5663  0.9773
  101SAPE  H15Y10285   3.921   4.794   5.317  1.4628  1.3635  0.7865
  101SAPE  C31610286   3.745   4.713   5.400  0.0607  1.0443 -0.0883
  101SAPE  H16X10287   3.681   4.721   5.490  0.1386 -1.5511  0.2666
  101SAPE  H16Y10288   3.773   4.605   5.401 -1.9610  0.4703  0.0068
  101SAPE  C31710289   3.665   4.736   5.266 -0.2365 -0.1829  0.7461
  101SAPE  H17X10290   3.739   4.757   5.186 -0.9476 -2.5104 -0.6097
  101SAPE  H17Y10291   3.605   4.830   5.265 -1.8645 -1.1664 -1.0717
  101SAPE  C31810292   3.564   4.625   5.230 -0.2963  0.0880 -0.1893
  101SAPE  H18X10293   3.505   4.653   5.140 -0.8820  2.1866  0.7744
  101SAPE  H18Y10294   3.491   4.605   5.312  1.8266  0.7397  1.9539
  101SAPE  H18Z10295   3.621   4.533   5.205 -1.2688 -0.3576 -0.8489
  102SAPE     N10296   3.293   6.275   7.053 -0.2556  0.0342  0.1276
  102SAPE   HN110297   3.266   6.340   6.977  1.5588  1.6140  0.7322
  102SAPE   HN210298   3.246   6.290   7.144  2.2426 -1.9981  1.9207
  102SAPE   HN310299   3.395   6.278   7.074 -0.0707 -3.0449  0.1602
  102SAPE   C1210300   3.268   6.140   7.000 -0.0136  0.0511  0.0167
  102SAPE  H12A10301   3.328   6.119   6.908 -0.1627 -3.4190  0.5766
  102SAPE  H12B10302   3.160   6.135   6.977 -0.4026  0.0518  1.7471
  102SAPE   C1110303   3.307   6.014   7.096  0.9863 -0.7572 -0.6705
  102SAPE  H11A10304   3.418   6.005   7.101  0.9876 -0.8874 -0.8871
  102SAPE  H11B10305   3.276   5.924   7.038  1.5478 -0.1904 -1.9045
  102SAPE     P10306   3.108   5.968   7.260 -0.3051  0.2305 -0.1705
  102SAPE   O1310307   3.129   5.823   7.226 -0.5629 -0.4919 -0.1957
  102SAPE   O1410308   3.057   5.995   7.395  0.8412  0.0469 -0.2783
  102SAPE   O1210309   3.256   6.028   7.233  0.1161  0.3734 -0.3485
  102SAPE   O1110310   3.023   6.038   7.150 -0.2650  0.0060  0.4680
  102SAPE    C110311   2.883   6.055   7.172 -0.2745  0.3798  0.2039
  102SAPE    HA10312   2.830   5.958   7.174 -1.0641  0.7420 -1.2721
  102SAPE    HB10313   2.873   6.103   7.272 -0.1456  1.0926 -0.1175
  102SAPE    C210314   2.826   6.150   7.065 -0.1033  0.2770 -0.4504
  102SAPE    HS10315   2.717   6.136   7.050  0.2042 -1.6836 -1.1575
  102SAPE   O2110316   2.889   6.129   6.936 -0.3915 -0.2358 -0.1639
  102SAPE   C2110317   2.840   6.027   6.861 -0.0771 -0.6561  0.0713
  102SAPE   O2210318   2.745   5.954   6.898 -0.5841  0.6408 -0.6151
  102SAPE   C2210319   2.932   6.011   6.733  0.1168 -0.6320 -0.5047
  102SAPE   H2R10320   3.035   6.005   6.775 -0.4025 -0.5633  0.8341
  102SAPE   H2S10321   2.919   5.909   6.692  2.9075 -0.6665 -1.5377
  102SAPE    C310322   2.846   6.299   7.107  0.0542 -0.0931 -0.0113
  102SAPE    HX10323   2.947   6.325   7.146  0.2149  2.0607 -1.7109
  102SAPE    HY10324   2.775   6.328   7.187  1.8409  0.6781  1.3785
  102SAPE   O3110325   2.831   6.382   6.986 -0.1676  0.5581 -0.0157
  102SAPE   C3110326   2.937   6.434   6.932 -0.6548  0.0983  0.6658
  102SAPE   O3210327   3.052   6.435   6.970 -0.0080  0.4516 -0.0897
  102SAPE   C3210328   2.886   6.494   6.795 -0.5088 -0.1612 -0.2500
  102SAPE   H2X10329   2.817   6.580   6.805  0.5215  0.8030 -1.1159
  102SAPE   H2Y10330   2.840   6.407   6.745  2.5198 -1.1832 -1.5178
  102SAPE   C2310331   2.929   6.129   6.634 -0.1860  0.4002  0.2202
  102SAPE   H3R10332   2.917   6.221   6.694  0.6131  0.1605  0.7564
  102SAPE   H3S10333   2.835   6.138   6.574  0.5824  3.3168 -0.7383
  102SAPE   C2410334   3.062   6.130   6.554  0.0154 -0.4598 -1.1080
  102SAPE   H4R10335   3.143   6.129   6.630  0.6148  1.2712 -1.6707
  102SAPE   H4S10336   3.069   6.235   6.519  0.9616  0.7630  2.3671
  102SAPE   C2510337   3.065   6.020   6.457 -0.5081  0.4825  1.0685
  102SAPE   H5R10338   3.119   5.928   6.484 -1.0571 -0.4332 -0.8135
  102SAPE   C2610339   3.018   6.042   6.329  0.3505 -0.3788  0.3719
  102SAPE   H6R10340   3.008   5.955   6.262  0.1867 -0.9456  1.1171
  102SAPE   C2710341   2.942   6.158   6.281 -0.2151 -0.3925 -0.0809
  102SAPE   H7R10342   2.876   6.200   6.360 -1.4834  0.1547 -1.3872
  102SAPE   H7S10343   2.866   6.127   6.206 -0.1773  0.5799 -0.5388
  102SAPE   C2810344   3.031   6.267   6.230  0.1126 -0.7005 -0.2630
  102SAPE   H8R10345   3.123   6.297   6.282 -0.5148 -0.3569  0.6747
  102SAPE   C2910346   3.019   6.330   6.111  0.3085 -0.7155 -0.4672
  102SAPE   H9R10347   3.083   6.417   6.092 -1.9164  1.2868  0.7567
  102SAPE  C21010348   2.899   6.309   6.025 -0.4780  0.1185  0.0562
  102SAPE  H10R10349   2.846   6.213   6.042 -3.2050  1.5003 -0.0244
  102SAPE  H10S10350   2.929   6.308   5.918 -2.7371 -2.4643 -0.6590
  102SAPE  C21110351   2.797   6.417   6.044  0.2254 -0.8190 -0.7153
  102SAPE  H11R10352   2.808   6.481   6.133 -0.6661  0.8915 -1.7791
  102SAPE  C21210353   2.707   6.456   5.953 -0.2836  0.8602 -0.2506
  102SAPE  H12R10354   2.645   6.547   5.962 -0.7618  0.6258 -1.0839
  102SAPE  C21310355   2.687   6.395   5.814 -0.0583  0.8738  0.1911
  102SAPE  H13R10356   2.588   6.345   5.810  0.9207 -1.1279 -1.6812
  102SAPE  H13S10357   2.760   6.315   5.787  1.1506  1.5875  1.2204
  102SAPE  C21410358   2.683   6.506   5.707 -0.2328 -0.4927 -1.2789
  102SAPE  H14R10359   2.644   6.601   5.746  1.6567 -0.2097  0.0529
  102SAPE  C21510360   2.726   6.505   5.580 -0.1418 -0.0822  0.4050
  102SAPE  H15R10361   2.708   6.598   5.524 -0.0832 -1.3589 -1.8863
  102SAPE  C21610362   2.811   6.403   5.503  0.0773  0.0874 -0.0392
  102SAPE  H16R10363   2.837   6.326   5.578  0.7156  0.2192 -0.1199
  102SAPE  H16S10364   2.905   6.442   5.459  0.1945  0.1778  0.2893
  102SAPE  C21710365   2.735   6.345   5.377 -0.8536 -0.2236  0.0121
  102SAPE  H17R10366   2.639   6.317   5.426 -0.7667  1.4697  1.2282
  102SAPE  H17S10367   2.793   6.253   5.353  0.4032  0.2689  0.9976
  102SAPE  C21810368   2.735   6.440   5.263 -0.6416  0.5119 -0.5375
  102SAPE  H18R10369   2.840   6.442   5.225  0.6121  2.0066  2.6306
  102SAPE  H18S10370   2.712   6.542   5.301  0.2598  1.0587 -1.4035
  102SAPE  C21910371   2.639   6.398   5.152  0.1161 -0.9438 -0.0713
  102SAPE  H19R10372   2.532   6.403   5.178 -0.0671 -0.5037 -0.8560
  102SAPE  H19S10373   2.665   6.294   5.123  2.4861 -0.1134 -1.2935
  102SAPE  C22010374   2.667   6.486   5.022  0.0257  0.5017 -1.0680
  102SAPE  H20R10375   2.764   6.455   4.978  0.4182  0.3982 -0.1504
  102SAPE  H20S10376   2.663   6.597   5.034  0.3002  0.3437  0.7609
  102SAPE  H20T10377   2.582   6.468   4.952 -0.1845 -0.5010 -0.5571
  102SAPE   C3310378   2.997   6.546   6.708  0.3162 -0.9716  0.0514
  102SAPE   H3X10379   3.077   6.470   6.696  1.2970 -0.2026  1.4947
  102SAPE   H3Y10380   3.048   6.634   6.753  0.0611 -2.0001  2.4943
  102SAPE   C3410381   2.935   6.575   6.569 -1.1178 -0.2095 -0.3346
  102SAPE   H4X10382   2.849   6.645   6.556  0.8050  2.2138 -0.6590
  102SAPE   H4Y10383   2.908   6.472   6.538 -0.8703 -0.2116 -0.5479
  102SAPE   C3510384   3.057   6.623   6.481 -0.5563 -0.0116  0.2706
  102SAPE   H5X10385   3.138   6.547   6.468  0.5125  0.9799  0.8915
  102SAPE   H5Y10386   3.101   6.712   6.530 -0.1092 -0.1677  0.1619
  102SAPE   C3610387   3.007   6.660   6.342  0.2085  0.0581 -0.2631
  102SAPE   H6X10388   2.929   6.738   6.346 -2.2830 -2.0576 -3.1472
  102SAPE   H6Y10389   2.960   6.570   6.297  1.7576 -1.2558  0.6080
  102SAPE   C3710390   3.120   6.707   6.257  0.6454  0.8826  0.1819
  102SAPE   H7X10391   3.201   6.631   6.259 -1.8431 -1.9566  0.3364
  102SAPE   H7Y10392   3.173   6.798   6.293  1.9792 -0.3029  1.3496
  102SAPE   C3810393   3.068   6.727   6.112 -0.7888  0.5200 -0.1172
  102SAPE   H8X10394   2.995   6.810   6.101 -0.9016  0.2490 -1.7853
  102SAPE   H8Y10395   3.006   6.638   6.087  0.5734 -0.1852 -1.1819
  102SAPE   C3910396   3.192   6.746   6.009  0.3553  0.2567 -0.0341
  102SAPE   H9X10397   3.273   6.682   6.049  0.5568  0.7649  0.3797
  102SAPE   H9Y10398   3.219   6.854   6.017 -2.8273  1.2206 -0.7831
  102SAPE  C31010399   3.173   6.711   5.865  0.4481 -0.8788 -0.3190
  102SAPE  H10X10400   3.261   6.742   5.805 -1.3392  0.4329 -2.4224
  102SAPE  H10Y10401   3.092   6.779   5.829  1.3136  0.4035  0.1006
  102SAPE  C31110402   3.124   6.566   5.841  0.2864 -0.2119  0.1992
  102SAPE  H11X10403   3.099   6.561   5.733  0.5342 -0.5161  0.1538
  102SAPE  H11Y10404   3.034   6.542   5.902  0.4951  1.1910  1.1039
  102SAPE  C31210405   3.241   6.468   5.872  0.2984  0.1048 -0.4429
  102SAPE  H12X10406   3.262   6.456   5.981  1.1592  1.6501 -0.4152
  102SAPE  H12Y10407   3.332   6.524   5.844 -0.0399  1.5904  1.2235
  102SAPE  C31310408   3.229   6.330   5.809 -0.5765 -0.3530  0.6183
  102SAPE  H13X10409   3.140   6.273   5.844 -1.0228 -0.3108 -0.4020
  102SAPE  H13Y10410   3.318   6.269   5.837 -2.4327 -2.6124  2.0373
  102SAPE  C31410411   3.217   6.327   5.649 -0.2177  0.2034 -1.0033
  102SAPE  H14X10412   3.110   6.343   5.627  0.0435  2.0688 -1.0687
  102SAPE  H14Y10413   3.236   6.226   5.605  1.2955 -0.6548  1.3966
  102SAPE  C31510414   3.296   6.427   5.565 -0.3055  0.5449 -0.0087
  102SAPE  H15X10415   3.404   6.404   5.572 -0.8874 -3.0507 -0.7552
  102SAPE  H15Y10416   3.296   6.534   5.593  1.1918  0.7204 -0.5837
  102SAPE  C31610417   3.245   6.413   5.420 -0.6917  0.4908 -0.9940
  102SAPE  H16X10418   3.134   6.416   5.424 -0.6347  2.1344  0.8139
  102SAPE  H16Y10419   3.281   6.323   5.365  0.0639  0.1341  0.0674
  102SAPE  C31710420   3.278   6.531   5.332 -0.0324 -0.5713 -0.3092
  102SAPE  H17X10421   3.287   6.499   5.226  1.1375  0.8499 -0.6737
  102SAPE  H17Y10422   3.371   6.579   5.372 -1.0258  0.7293  0.5405
  102SAPE  C31810423   3.163   6.632   5.342 -0.2135 -0.5696 -0.1164
  102SAPE  H18X10424   3.180   6.712   5.267 -2.3037  1.0910  1.0812
  102SAPE  H18Y10425   3.162   6.679   5.442 -0.0796  0.0144 -0.3838
  102SAPE  H18Z10426   3.068   6.584   5.311 -0.6345  0.8501 -1.1253
  103SAPE     N10427   0.078   6.234   2.585  0.3896 -0.4540 -0.2770
  103SAPE   HN110428   0.044   6.322   2.629 -0.5336 -0.1179 -1.6168
  103SAPE   HN210429   0.059   6.154   2.650 -1.2312  0.1671  0.0476
  103SAPE   HN310430   0.176   6.227   2.550  0.3170 -0.3053 -0.5063
  103SAPE   C1210431  -0.019   6.193   2.478 -0.9629  0.6307 -0.4819
  103SAPE  H12A10432   0.017   6.097   2.436  1.9619  0.7187  1.4892
  103SAPE  H12B10433   0.002   6.257   2.389  0.1332  2.9601  1.3152
  103SAPE   C1110434  -0.163   6.183   2.518  0.2137  0.2882  0.0559
  103SAPE  H11A10435  -0.163   6.122   2.611  0.1424  0.7907  0.3860
  103SAPE  H11B10436  -0.226   6.129   2.444 -1.8796 -0.5423  2.3071
  103SAPE     P10437  -0.229   6.362   2.699 -0.0406  0.0677 -0.1545
  103SAPE   O1310438  -0.092   6.383   2.750  0.3335 -0.3736  0.3075
  103SAPE   O1410439  -0.317   6.481   2.699  0.8805 -0.1662 -0.0673
  103SAPE   O1210440  -0.217   6.313   2.548 -0.0305  0.1643  0.4667
  103SAPE   O1110441  -0.299   6.240   2.772  0.0952  0.5595  0.0635
  103SAPE    C110442  -0.438   6.266   2.812  0.7931  0.6703 -0.0368
  103SAPE    HA10443  -0.495   6.331   2.741 -0.8714 -0.3051  0.3575
  103SAPE    HB10444  -0.485   6.166   2.804 -0.8005  0.9979  3.4433
  103SAPE    C210445  -0.448   6.327   2.949 -0.1049 -0.3648 -0.7315
  103SAPE    HS10446  -0.391   6.422   2.946  0.5255 -0.6534  1.1190
  103SAPE   O2110447  -0.401   6.228   3.049  1.0156  0.0387 -0.3601
  103SAPE   C2110448  -0.327   6.280   3.141  0.1980  0.1257  0.0795
  103SAPE   O2210449  -0.276   6.391   3.141 -0.3622 -0.0237 -0.6211
  103SAPE   C2210450  -0.316   6.171   3.250  0.3483 -0.1786  0.1554
  103SAPE   H2R10451  -0.418   6.158   3.293  0.6263  0.0286  0.8899
  103SAPE   H2S10452  -0.302   6.077   3.192 -1.4199  0.8572 -2.1101
  103SAPE    C310453  -0.586   6.380   2.982  0.0555 -0.8275  0.4462
  103SAPE    HX10454  -0.658   6.297   2.973 -1.1062  0.1311  0.6524
  103SAPE    HY10455  -0.623   6.458   2.912  1.3565 -0.7726 -0.2212
  103SAPE   O3110456  -0.602   6.420   3.123 -0.0599 -0.1111 -0.4068
  103SAPE   C3110457  -0.564   6.548   3.144  0.6056  0.1739 -0.4159
  103SAPE   O3210458  -0.516   6.622   3.065  0.5438  0.5122 -0.2615
  103SAPE   C3210459  -0.581   6.578   3.297  0.5424  0.1325  0.5913
  103SAPE   H2X10460  -0.625   6.489   3.347  1.9981 -1.5110 -0.8593
  103SAPE   H2Y10461  -0.648   6.665   3.305  0.3416  0.1477 -0.9276
  103SAPE   C2310462  -0.205   6.188   3.353 -0.4454  0.3009  0.7452
  103SAPE   H3R10463  -0.239   6.258   3.432 -1.4244 -0.2692  0.8504
  103SAPE   H3S10464  -0.112   6.230   3.311 -0.7526  1.0111  0.7711
  103SAPE   C2410465  -0.184   6.052   3.439  0.5706  0.3191  0.1899
  103SAPE   H4R10466  -0.193   5.968   3.367  1.0367 -0.2107  0.7454
  103SAPE   H4S10467  -0.272   6.037   3.505  0.0499 -1.5505 -0.8447
  103SAPE   C2510468  -0.045   6.043   3.498 -0.3662  1.2142 -0.2901
  103SAPE   H5R10469   0.037   6.081   3.436 -1.6265 -0.3773 -3.1704
  103SAPE   C2610470  -0.023   5.985   3.620 -0.7259 -0.2105 -0.1352
  103SAPE   H6R10471   0.081   5.980   3.654  0.3190 -0.7580 -3.0973
  103SAPE   C2710472  -0.132   5.925   3.705 -0.0907 -0.4445  0.0055
  103SAPE   H7R10473  -0.102   5.819   3.689  1.8092  0.2362 -1.4126
  103SAPE   H7S10474  -0.237   5.938   3.671 -0.6951 -0.3724  1.7836
  103SAPE   C2810475  -0.118   5.963   3.853  0.0573  0.2342  0.7904
  103SAPE   H8R10476  -0.145   6.067   3.876  1.3671  0.6003  0.7473
  103SAPE   C2910477  -0.064   5.884   3.948 -0.3671  0.5508 -0.9040
  103SAPE   H9R10478  -0.064   5.920   4.051  0.0718  1.5394 -1.2427
  103SAPE  C21010479  -0.003   5.749   3.928  0.4569 -0.2938  0.6409
  103SAPE  H10R10480   0.042   5.736   3.827 -0.9822  3.0571 -0.5747
  103SAPE  H10S10481  -0.082   5.672   3.942  1.2102 -1.1909  0.0324
  103SAPE  C21110482   0.106   5.726   4.032 -0.1606 -0.0437  0.7413
  103SAPE  H11R10483   0.209   5.745   3.996  0.1893 -1.0217  1.1858
  103SAPE  C21210484   0.103   5.679   4.160 -0.1829  0.0691 -0.9487
  103SAPE  H12R10485   0.196   5.671   4.219 -0.6998 -2.4067 -0.3638
  103SAPE  C21310486  -0.023   5.646   4.238 -0.1210  0.2001  0.2309
  103SAPE  H13R10487  -0.120   5.673   4.191 -1.7649 -0.6054  2.9662
  103SAPE  H13S10488  -0.025   5.713   4.326 -0.0708  1.4407 -0.6777
  103SAPE  C21410489  -0.030   5.496   4.269 -0.4996  1.1766  0.5048
  103SAPE  H14R10490  -0.083   5.432   4.196  2.1936  0.2910 -0.8171
  103SAPE  C21510491   0.012   5.441   4.386 -0.4121 -0.7099 -0.0942
  103SAPE  H15R10492   0.015   5.331   4.382  1.6314 -0.6681 -4.3252
  103SAPE  C21610493   0.089   5.513   4.500 -0.6995  0.0489  0.6875
  103SAPE  H16R10494   0.130   5.610   4.464 -0.9708  0.2292  0.8630
  103SAPE  H16S10495   0.170   5.449   4.542  0.9530  0.8378 -1.1061
  103SAPE  C21710496  -0.014   5.550   4.607  0.1699 -0.3589  0.7494
  103SAPE  H17R10497  -0.046   5.462   4.668 -0.1962 -1.5742 -1.1201
  103SAPE  H17S10498  -0.108   5.590   4.563 -0.0385 -0.8159  0.7675
  103SAPE  C21810499   0.038   5.647   4.717 -0.1058 -0.6140 -0.0102
  103SAPE  H18R10500   0.057   5.745   4.668  0.5507 -1.2639 -1.0972
  103SAPE  H18S10501   0.139   5.612   4.744  0.1593 -0.2708 -0.5427
  103SAPE  C21910502  -0.045   5.659   4.847  0.3366 -0.1887  1.0319
  103SAPE  H19R10503   0.024   5.691   4.927  1.2553 -2.4409  1.2006
  103SAPE  H19S10504  -0.076   5.554   4.865  2.7778 -1.6804 -2.3599
  103SAPE  C22010505  -0.155   5.762   4.837  0.1418  0.0414 -0.1511
  103SAPE  H20R10506  -0.114   5.852   4.786 -0.3397 -0.3910 -1.3280
  103SAPE  H20S10507  -0.191   5.795   4.936  3.0805  1.0500  0.6652
  103SAPE  H20T10508  -0.243   5.732   4.776  0.3156  1.0165 -0.9147
  103SAPE   C3310509  -0.450   6.611   3.364  0.2487  0.1359  0.4509
  103SAPE   H3X10510  -0.402   6.692   3.304 -0.2650 -1.4058 -2.1890
  103SAPE   H3Y10511  -0.379   6.526   3.369 -1.2130 -1.1035  1.0679
  103SAPE   C3410512  -0.472   6.690   3.497 -0.4576 -0.1485  0.4571
  103SAPE   H4X10513  -0.561   6.755   3.486 -0.9144 -0.6777  0.9345
  103SAPE   H4Y10514  -0.389   6.763   3.510 -2.0051  1.8490 -0.3667
  103SAPE   C3510515  -0.501   6.601   3.618 -0.2011  0.3892  0.4951
  103SAPE   H5X10516  -0.423   6.523   3.630  0.3939  0.9699  0.4797
  103SAPE   H5Y10517  -0.599   6.550   3.606 -1.6924  2.0560  4.1329
  103SAPE   C3610518  -0.511   6.688   3.739 -0.0996 -0.3040  0.4247
  103SAPE   H6X10519  -0.598   6.756   3.726  0.7402  0.6062 -0.7092
  103SAPE   H6Y10520  -0.413   6.737   3.759 -0.7017  0.7036  1.0095
  103SAPE   C3710521  -0.542   6.611   3.863 -0.5563 -0.4699 -0.2667
  103SAPE   H7X10522  -0.476   6.523   3.865 -1.1625 -0.9390 -0.5666
  103SAPE   H7Y10523  -0.646   6.579   3.839 -0.8987  0.5279 -0.1592
  103SAPE   C3810524  -0.537   6.707   3.982  0.3582  0.2281 -0.7200
  103SAPE   H8X10525  -0.579   6.806   3.956  1.0623  0.9802  0.8667
  103SAPE   H8Y10526  -0.431   6.715   4.014 -0.0089 -1.3441  1.1659
  103SAPE   C3910527  -0.618   6.656   4.111 -0.4610 -0.2822  0.7848
  103SAPE   H9X10528  -0.577   6.559   4.147  1.2737  0.7931  1.8081
  103SAPE   H9Y10529  -0.721   6.640   4.072 -0.7117  3.4878 -0.5427
  103SAPE  C31010530  -0.623   6.748   4.233  0.7266  1.5442  0.3460
  103SAPE  H10X10531  -0.689   6.831   4.199 -0.2795  1.2491  1.5034
  103SAPE  H10Y10532  -0.523   6.789   4.260  1.7282 -0.1529 -0.6532
  103SAPE  C31110533  -0.697   6.691   4.357  0.3172 -0.3750 -0.4754
  103SAPE  H11X10534  -0.639   6.619   4.420 -0.9262  1.2517  2.7631
  103SAPE  H11Y10535  -0.786   6.639   4.316  1.3699 -1.2740 -1.6937
  103SAPE  C31210536  -0.742   6.809   4.452 -0.2876 -0.0688  0.6938
  103SAPE  H12X10537  -0.800   6.879   4.389  1.2466  1.1846  0.6104
  103SAPE  H12Y10538  -0.654   6.866   4.489 -1.1761 -0.1559  3.1044
  103SAPE  C31310539  -0.815   6.761   4.572 -0.0737  0.1724 -0.0125
  103SAPE  H13X10540  -0.757   6.689   4.634 -0.3570 -1.0131 -1.0892
  103SAPE  H13Y10541  -0.902   6.707   4.528 -1.0903 -0.3501  2.4317
  103SAPE  C31410542  -0.880   6.877   4.660  0.4478 -0.2592  0.3808
  103SAPE  H14X10543  -0.950   6.832   4.733  2.1512  0.2733  2.4517
  103SAPE  H14Y10544  -0.930   6.932   4.578 -0.9682  0.0063  1.3992
  103SAPE  C31510545  -0.788   6.958   4.753  0.1200 -0.5087 -0.1255
  103SAPE  H15X10546  -0.686   6.966   4.711 -0.7443  2.1737 -1.9918
  103SAPE  H15Y10547  -0.801   6.915   4.855 -0.2797  2.2774  1.1111
  103SAPE  C31610548  -0.839   7.103   4.764 -0.1910 -0.3071 -0.2851
  103SAPE  H16X10549  -0.944   7.086   4.795  0.3715  0.5329  2.3576
  103SAPE  H16Y10550  -0.853   7.146   4.663 -2.5649  0.3646  0.2669
  103SAPE  C31710551  -0.763   7.209   4.851 -0.0622  0.7944 -0.1731
  103SAPE  H17X10552  -0.657   7.212   4.816  0.6637 -1.0639  1.6361
  103SAPE  H17Y10553  -0.756   7.157   4.949 -0.2756 -0.5815 -0.8726
  103SAPE  C31810554  -0.817   7.352   4.856  0.0369  0.2443  0.3923
  103SAPE  H18X10555  -0.798   7.400   4.757  3.6598  0.2477  0.9589
  103SAPE  H18Y10556  -0.760   7.399   4.939  0.7031 -1.5047  0.9728
  103SAPE  H18Z10557  -0.922   7.359   4.893 -0.4088 -1.2416 -0.5216
  104SAPE     N10558   1.053   6.667   2.833  0.2864 -0.0299  0.2048
  104SAPE   HN110559   0.988   6.710   2.901 -0.8313 -0.7322 -0.3774
  104SAPE   HN210560   1.100   6.740   2.776  0.3249 -0.5454 -0.4436
  104SAPE   HN310561   0.999   6.607   2.767  1.5575 -0.9387 -0.0502
  104SAPE   C1210562   1.155   6.578   2.911 -0.2602 -1.1653  0.2720
  104SAPE  H12A10563   1.234   6.548   2.838  0.6780  0.9842  0.3382
  104SAPE  H12B10564   1.088   6.502   2.956 -0.9611 -0.1222  1.0354
  104SAPE   C1110565   1.229   6.653   3.022 -0.2233 -0.0324  0.5041
  104SAPE  H11A10566   1.301   6.588   3.075  0.1915 -0.0673 -0.0928
  104SAPE  H11B10567   1.164   6.700   3.099  1.6607 -1.6117  3.2260
  104SAPE     P10568   1.270   6.916   2.984 -0.0804  0.4274 -0.2120
  104SAPE   O1310569   1.373   6.998   2.917  0.5342 -0.0143 -0.4903
  104SAPE   O1410570   1.127   6.939   2.947  0.0395 -0.1888 -0.4328
  104SAPE   O1210571   1.305   6.757   2.961  0.3349 -0.1197  0.4875
  104SAPE   O1110572   1.294   6.930   3.138  0.5981 -0.1685 -0.1599
  104SAPE    C110573   1.422   6.910   3.196 -0.2514  0.2982 -0.9374
  104SAPE    HA10574   1.461   6.806   3.196 -0.8791  0.0455  0.1443
  104SAPE    HB10575   1.500   6.967   3.141  0.4560 -0.1414 -0.4055
  104SAPE    C210576   1.425   6.949   3.348  0.2764  0.0068  0.1696
  104SAPE    HS10577   1.520   6.901   3.379  2.2609  0.8738 -3.8395
  104SAPE   O2110578   1.306   6.910   3.425 -0.5016  0.1521  0.6039
  104SAPE   C2110579   1.291   6.783   3.429 -0.4910  0.2688 -0.3430
  104SAPE   O2210580   1.372   6.695   3.395  0.8398  0.3674 -0.3648
  104SAPE   C2210581   1.155   6.744   3.500 -0.0413 -0.5528 -0.4037
  104SAPE   H2R10582   1.134   6.826   3.572 -0.7998 -1.3585  0.3124
  104SAPE   H2S10583   1.087   6.732   3.414  0.2356  1.5248 -0.9658
  104SAPE    C310584   1.455   7.108   3.360  0.4940  0.8865  0.5000
  104SAPE    HX10585   1.387   7.169   3.297  0.8249  1.9799  1.1719
  104SAPE    HY10586   1.553   7.127   3.312  0.0506  0.2646 -0.7153
  104SAPE   O3110587   1.463   7.154   3.494 -0.4441  0.0113  0.1020
  104SAPE   C3110588   1.352   7.188   3.543 -0.1893 -0.0528 -0.1723
  104SAPE   O3210589   1.243   7.186   3.487 -0.2627 -0.1869  0.2112
  104SAPE   C3210590   1.365   7.257   3.680  0.1342  0.7533  0.1385
  104SAPE   H2X10591   1.373   7.368   3.672 -2.0467  0.8948 -0.8284
  104SAPE   H2Y10592   1.460   7.225   3.728  0.6263 -0.7967 -1.7109
  104SAPE   C2310593   1.155   6.613   3.585 -0.5112 -0.4043 -0.0272
  104SAPE   H3R10594   1.236   6.636   3.658 -1.6424  0.1637  1.1097
  104SAPE   H3S10595   1.174   6.526   3.520 -0.7180 -0.6285  0.2093
  104SAPE   C2410596   1.040   6.595   3.694  0.0283  0.3889  0.6555
  104SAPE   H4R10597   1.037   6.678   3.768 -0.0747  0.4767  0.5533
  104SAPE   H4S10598   1.070   6.503   3.748 -0.8800  0.5514  1.4520
  104SAPE   C2510599   0.909   6.556   3.622 -0.0118 -0.3760 -0.1024
  104SAPE   H5R10600   0.889   6.606   3.526 -0.2953  0.2243  0.2626
  104SAPE   C2610601   0.809   6.480   3.677 -0.4178  0.4442  0.2016
  104SAPE   H6R10602   0.721   6.457   3.616  1.0539  0.1438 -1.9156
  104SAPE   C2710603   0.808   6.412   3.805 -0.4673  0.3425  0.0027
  104SAPE   H7R10604   0.702   6.424   3.835 -0.3411  1.4830  0.0427
  104SAPE   H7S10605   0.880   6.467   3.870 -0.9561  1.6053 -0.4955
  104SAPE   C2810606   0.848   6.273   3.811 -0.0529 -0.0399  0.3202
  104SAPE   H8R10607   0.915   6.245   3.727 -1.9618 -1.1750 -0.8996
  104SAPE   C2910608   0.829   6.169   3.894 -0.2853  0.5913 -0.1068
  104SAPE   H9R10609   0.884   6.076   3.873 -0.6224  0.2531  0.4761
  104SAPE  C21010610   0.735   6.166   4.017  0.0396  0.4742 -0.0289
  104SAPE  H10R10611   0.668   6.080   3.995 -1.3209  1.7527 -1.1008
  104SAPE  H10S10612   0.681   6.261   4.035 -0.4844 -0.1785  2.0787
  104SAPE  C21110613   0.819   6.146   4.136 -0.7691 -0.4619 -0.7344
  104SAPE  H11R10614   0.928   6.133   4.126 -0.0453  3.6777 -0.2614
  104SAPE  C21210615   0.767   6.142   4.261 -0.1536 -0.0200  0.3164
  104SAPE  H12R10616   0.843   6.136   4.340 -0.1640  1.0179  0.4258
  104SAPE  C21310617   0.626   6.173   4.306  0.0424  0.0378 -0.0759
  104SAPE  H13R10618   0.555   6.143   4.225 -1.1807  0.6688  0.7420
  104SAPE  H13S10619   0.602   6.280   4.324 -0.0053  0.0834 -0.4047
  104SAPE  C21410620   0.585   6.093   4.430 -0.0100  0.5393  0.2420
  104SAPE  H14R10621   0.531   5.999   4.410 -1.1779  1.2040  0.2110
  104SAPE  C21510622   0.602   6.134   4.561  0.6378  0.7161  0.1034
  104SAPE  H15R10623   0.550   6.074   4.637  0.5387  2.4519  1.4616
  104SAPE  C21610624   0.665   6.258   4.615 -0.0831 -0.1045  0.7180
  104SAPE  H16R10625   0.590   6.314   4.676  0.0685  1.1094 -0.1556
  104SAPE  H16S10626   0.669   6.330   4.530 -1.7889  0.7964  1.3380
  104SAPE  C21710627   0.798   6.239   4.686  0.4383 -0.4562  0.1352
  104SAPE  H17R10628   0.837   6.339   4.716  2.7107 -0.7717 -1.4979
  104SAPE  H17S10629   0.872   6.197   4.615  0.3635 -1.4000  0.6061
  104SAPE  C21810630   0.794   6.142   4.802  0.5350  0.5399  0.5921
  104SAPE  H18R10631   0.755   6.042   4.775  3.1032 -0.7206  1.2090
  104SAPE  H18S10632   0.720   6.187   4.872  0.1227  1.1706 -0.2320
  104SAPE  C21910633   0.926   6.120   4.876  0.0428  0.5416  0.0082
  104SAPE  H19R10634   0.965   6.217   4.913  1.2016  0.4607 -0.9572
  104SAPE  H19S10635   1.000   6.074   4.807 -0.5999 -1.4618  0.5651
  104SAPE  C22010636   0.899   6.025   4.996  0.5635  0.0214 -0.3433
  104SAPE  H20R10637   0.983   6.012   5.067 -1.1015  1.1892  1.9638
  104SAPE  H20S10638   0.852   5.932   4.956  1.3883 -0.3455 -0.4665
  104SAPE  H20T10639   0.825   6.077   5.061  1.9809 -0.8514  2.0836
  104SAPE   C3310640   1.246   7.223   3.776 -0.3763  0.8803 -0.4799
  104SAPE   H3X10641   1.173   7.154   3.728 -0.7430 -0.1595  1.4468
  104SAPE   H3Y10642   1.193   7.320   3.790 -2.2446 -0.1216 -0.1946
  104SAPE   C3410643   1.296   7.174   3.916 -0.2037  0.2744  0.7448
  104SAPE   H4X10644   1.353   7.261   3.954 -3.5095  1.4704  3.5229
  104SAPE   H4Y10645   1.348   7.077   3.902  0.8861  1.0998 -1.2931
  104SAPE   C3510646   1.169   7.156   4.013 -0.6730 -1.1381  0.3322
  104SAPE   H5X10647   1.085   7.106   3.960 -1.0600  0.5968 -0.7873
  104SAPE   H5Y10648   1.125   7.257   4.030 -1.0095 -0.7615 -2.2876
  104SAPE   C3610649   1.232   7.094   4.136  0.1199 -0.1880  0.4947
  104SAPE   H6X10650   1.313   7.160   4.173  0.3219  0.4886 -1.0754
  104SAPE   H6Y10651   1.289   7.005   4.104 -0.8692 -0.3940 -0.7791
  104SAPE   C3710652   1.136   7.059   4.249  0.1675  0.5878  0.4672
  104SAPE   H7X10653   1.074   6.977   4.206  1.2324 -0.1181  0.2309
  104SAPE   H7Y10654   1.073   7.140   4.290 -1.3093  0.6500 -1.7606
  104SAPE   C3810655   1.206   6.978   4.360  0.4372 -0.8849 -1.1642
  104SAPE   H8X10656   1.288   6.913   4.323  2.7640  0.3877  1.4343
  104SAPE   H8Y10657   1.125   6.920   4.409 -0.6605 -0.3250 -2.2571
  104SAPE   C3910658   1.262   7.071   4.469  0.1871 -0.8530 -0.0468
  104SAPE   H9X10659   1.181   7.116   4.529  2.4888 -0.0522  2.6842
  104SAPE   H9Y10660   1.315   7.161   4.431  2.0737 -1.7702  0.2647
  104SAPE  C31010661   1.359   6.992   4.558 -0.0047  0.4451  0.2403
  104SAPE  H10X10662   1.425   7.066   4.608 -1.1407 -0.0486  2.6049
  104SAPE  H10Y10663   1.413   6.924   4.489  0.4388  0.4977  0.5356
  104SAPE  C31110664   1.296   6.922   4.673  0.0517 -0.3439 -0.9368
  104SAPE  H11X10665   1.202   6.873   4.639 -1.5377  1.6847  0.2816
  104SAPE  H11Y10666   1.251   6.990   4.749 -0.3329 -1.3979 -0.1946
  104SAPE  C31210667   1.386   6.825   4.753  0.0101  0.6261  0.2527
  104SAPE  H12X10668   1.483   6.876   4.771  1.0810 -1.0442 -0.5170
  104SAPE  H12Y10669   1.414   6.729   4.705  1.7446  1.2881 -0.1465
  104SAPE  C31310670   1.324   6.802   4.892  0.7144  0.7915 -0.2227
  104SAPE  H13X10671   1.318   6.891   4.958  0.4930  1.6547 -1.3909
  104SAPE  H13Y10672   1.392   6.728   4.941  0.1657 -0.5501 -1.4408
  104SAPE  C31410673   1.181   6.732   4.900 -0.2982  0.0248  0.1024
  104SAPE  H14X10674   1.163   6.643   4.836  1.1844 -0.0631 -0.2249
  104SAPE  H14Y10675   1.096   6.802   4.888  1.7253  2.4866 -0.7397
  104SAPE  C31510676   1.153   6.659   5.038 -0.2563  0.1862 -0.0659
  104SAPE  H15X10677   1.180   6.737   5.114 -1.6235 -2.3535  3.2857
  104SAPE  H15Y10678   1.222   6.575   5.059  0.1750  0.8314  1.2753
  104SAPE  C31610679   1.005   6.627   5.062 -0.2177 -0.0205  0.3045
  104SAPE  H16X10680   0.973   6.576   4.969  0.6056  2.0985 -1.2212
  104SAPE  H16Y10681   0.946   6.721   5.054 -1.1824 -0.3078  2.9009
  104SAPE  C31710682   0.969   6.546   5.188 -0.7176  0.7619  0.1288
  104SAPE  H17X10683   1.037   6.458   5.186 -2.0366 -0.2994  0.6181
  104SAPE  H17Y10684   0.864   6.510   5.179 -0.3050 -0.3379 -0.3456
  104SAPE  C31810685   0.978   6.611   5.325 -0.9296  0.0488 -0.1083
  104SAPE  H18X10686   1.076   6.664   5.330 -1.2383  0.8396 -1.9609
  104SAPE  H18Y10687   0.951   6.536   5.403 -1.4135 -1.2667 -1.4963
  104SAPE  H18Z10688   0.904   6.693   5.331 -1.3688 -0.3432 -0.1222
  105SAPE     N10689   0.244   2.340   3.131 -0.5648 -0.2847  0.2831
  105SAPE   HN110690   0.213   2.250   3.090 -1.9326 -0.3681  1.4061
  105SAPE   HN210691   0.207   2.354   3.228  0.2170 -1.3939  0.7636
  105SAPE   HN310692   0.207   2.419   3.074 -0.9543 -0.9719 -0.4397
  105SAPE   C1210693   0.399   2.337   3.150 -0.1181  0.5191 -0.8066
  105SAPE  H12A10694   0.425   2.242   3.201 -1.0238 -0.0266 -1.3552
  105SAPE  H12B10695   0.408   2.427   3.215  0.9590 -0.1079 -0.0587
  105SAPE   C1110696   0.485   2.356   3.026  0.0536 -0.3103 -0.1168
  105SAPE  H11A10697   0.586   2.367   3.070  0.0340  1.5300 -0.4576
  105SAPE  H11B10698   0.451   2.450   2.978  0.8598 -0.3200 -0.7322
  105SAPE     P10699   0.544   2.117   2.934 -0.0681 -0.0375 -0.0808
  105SAPE   O1310700   0.448   2.004   2.928  0.1184 -0.4036 -0.0873
  105SAPE   O1410701   0.643   2.120   2.827 -0.5321 -0.5184  0.5016
  105SAPE   O1210702   0.469   2.253   2.931 -0.1760  0.2015  0.3646
  105SAPE   O1110703   0.615   2.117   3.077 -0.1496  0.1231  0.1055
  105SAPE    C110704   0.685   1.999   3.128 -0.5258 -0.4454 -0.4114
  105SAPE    HA10705   0.623   1.907   3.136 -1.8683  0.5700  1.5217
  105SAPE    HB10706   0.768   1.985   3.055 -0.0511  1.0719 -0.2003
  105SAPE    C210707   0.744   2.024   3.268 -0.8867  0.3917 -0.3071
  105SAPE    HS10708   0.797   1.933   3.302 -0.4100  0.8272  0.1465
  105SAPE   O2110709   0.629   2.057   3.360 -0.0043 -0.7476 -0.1528
  105SAPE   C2110710   0.549   1.959   3.392  0.0926  0.2629 -0.3868
  105SAPE   O2210711   0.579   1.841   3.376  0.3395 -0.4199 -0.4678
  105SAPE   C2210712   0.420   2.001   3.463 -0.2334  0.2307 -0.0278
  105SAPE   H2R10713   0.407   2.110   3.441  1.2169  0.4856  0.3219
  105SAPE   H2S10714   0.338   1.944   3.413  0.1186 -0.3062  0.0050
  105SAPE    C310715   0.865   2.127   3.263  0.5888  0.1903  0.3273
  105SAPE    HX10716   0.843   2.215   3.198 -1.0894 -1.6590 -1.7351
  105SAPE    HY10717   0.948   2.085   3.203  0.8660  1.9677 -0.6181
  105SAPE   O3110718   0.910   2.174   3.390 -0.3847  0.0717  0.5459
  105SAPE   C3110719   0.843   2.270   3.449  0.2089  0.2051  0.2286
  105SAPE   O3210720   0.758   2.342   3.400 -0.1562 -0.0766 -0.1150
  105SAPE   C3210721   0.893   2.277   3.594 -0.1335  1.1381 -0.2471
  105SAPE   H2X10722   0.871   2.383   3.621  0.0584  1.6998 -2.1667
  105SAPE   H2Y10723   1.002   2.255   3.592 -0.1063  1.2903 -0.4099
  105SAPE   C2310724   0.408   1.972   3.610  0.3599  0.0108  0.2332
  105SAPE   H3R10725   0.324   2.033   3.651 -0.9623 -1.4504 -0.2273
  105SAPE   H3S10726   0.491   2.011   3.675 -0.2139 -0.4501  1.2666
  105SAPE   C2410727   0.363   1.830   3.644  0.2401 -0.4100 -0.0534
  105SAPE   H4R10728   0.449   1.763   3.626  2.4383  1.8317  1.4928
  105SAPE   H4S10729   0.276   1.797   3.583  1.4239 -0.8070 -1.5820
  105SAPE   C2510730   0.308   1.811   3.787 -0.1880  0.4091  0.5061
  105SAPE   H5R10731   0.201   1.809   3.809 -0.6057  3.2908 -0.7886
  105SAPE   C2610732   0.388   1.821   3.895  0.2966 -0.3257  0.0689
  105SAPE   H6R10733   0.347   1.801   3.995  1.1648  1.4391  0.8192
  105SAPE   C2710734   0.537   1.846   3.894  0.3465 -0.2042  0.5214
  105SAPE   H7R10735   0.558   1.953   3.915  1.3512 -0.2008 -0.4396
  105SAPE   H7S10736   0.589   1.799   3.807  0.3322 -0.7393  0.7980
  105SAPE   C2810737   0.593   1.789   4.019  0.9395  0.0109 -0.0355
  105SAPE   H8R10738   0.607   1.680   4.023  0.9819 -0.0390 -1.1375
  105SAPE   C2910739   0.638   1.849   4.132 -0.3778 -0.7696 -0.2773
  105SAPE   H9R10740   0.647   1.783   4.220 -2.2432 -1.3293 -0.4464
  105SAPE  C21010741   0.650   1.997   4.173  0.0384  0.6583 -0.3043
  105SAPE  H10R10742   0.672   1.996   4.282 -2.1575  0.9171  0.1769
  105SAPE  H10S10743   0.546   2.036   4.167 -0.6456 -0.2773  3.2620
  105SAPE  C21110744   0.752   2.078   4.079  0.7106 -0.3059 -0.3389
  105SAPE  H11R10745   0.718   2.063   3.975 -0.9562 -0.1737  0.1583
  105SAPE  C21210746   0.842   2.167   4.121  0.2123  0.4300 -0.1247
  105SAPE  H12R10747   0.914   2.209   4.049  3.1260 -0.9111  1.8565
  105SAPE  C21310748   0.869   2.213   4.263 -0.2599  0.4502  0.1776
  105SAPE  H13R10749   0.777   2.222   4.324 -0.9602 -1.3261 -0.5652
  105SAPE  H13S10750   0.905   2.319   4.260  1.5610 -0.1003  1.2731
  105SAPE  C21410751   0.971   2.132   4.334 -0.2964 -0.3898  0.1629
  105SAPE  H14R10752   1.056   2.097   4.274  1.6499  1.8856  1.3998
  105SAPE  C21510753   0.969   2.094   4.463  0.8608  0.4094  0.1859
  105SAPE  H15R10754   1.044   2.026   4.506  1.9725  1.2117 -0.3968
  105SAPE  C21610755   0.877   2.150   4.566 -0.2198  0.4355 -0.4413
  105SAPE  H16R10756   0.845   2.255   4.547 -1.8204 -0.0940 -0.8366
  105SAPE  H16S10757   0.912   2.148   4.672 -2.7477 -0.6288  0.4671
  105SAPE  C21710758   0.739   2.086   4.577 -0.0629 -0.3592  0.3291
  105SAPE  H17R10759   0.683   2.086   4.481  2.0589  0.2370 -0.9765
  105SAPE  H17S10760   0.681   2.151   4.645 -1.2446  1.0869 -1.9426
  105SAPE  C21810761   0.757   1.944   4.636  0.1967 -1.1448  0.6136
  105SAPE  H18R10762   0.809   1.958   4.734  0.1336 -1.0191  0.6285
  105SAPE  H18S10763   0.822   1.877   4.576 -0.3317 -0.9060 -0.2316
  105SAPE  C21910764   0.628   1.867   4.651 -0.0284  0.2694  0.6904
  105SAPE  H19R10765   0.575   1.862   4.553 -1.0633  1.9736  1.1131
  105SAPE  H19S10766   0.565   1.917   4.728  1.9401  1.3067  1.6998
  105SAPE  C22010767   0.641   1.714   4.702 -0.1218 -0.0187 -0.5497
  105SAPE  H20R10768   0.670   1.705   4.809 -0.7061  2.2765 -0.1517
  105SAPE  H20S10769   0.719   1.667   4.638  0.2910  2.6716 -2.1911
  105SAPE  H20T10770   0.540   1.669   4.690 -0.9480  1.0286  1.8316
  105SAPE   C3310771   0.803   2.182   3.675 -0.2315  0.1100 -0.6650
  105SAPE   H3X10772   0.701   2.200   3.635 -0.4284 -2.7970 -1.6838
  105SAPE   H3Y10773   0.799   2.214   3.782  0.0426  0.3542 -0.7256
  105SAPE   C3410774   0.843   2.034   3.681  1.0592 -0.9742 -0.9229
  105SAPE   H4X10775   0.876   2.009   3.577  2.7984  3.2476 -1.5978
  105SAPE   H4Y10776   0.749   1.982   3.707  0.4341  0.0344 -1.1206
  105SAPE   C3510777   0.962   2.025   3.784  0.3114 -0.0544  0.8095
  105SAPE   H5X10778   0.937   2.070   3.882 -0.1873 -0.3730  0.8325
  105SAPE   H5Y10779   1.039   2.091   3.738  0.6333 -1.9250 -1.5177
  105SAPE   C3610780   1.012   1.885   3.800  0.2544  0.2496  0.2710
  105SAPE   H6X10781   1.032   1.845   3.698  1.4543 -0.6460  0.8401
  105SAPE   H6Y10782   0.929   1.829   3.849 -0.7072  1.4100  0.0159
  105SAPE   C3710783   1.127   1.868   3.899  0.3066 -0.6431  0.1524
  105SAPE   H7X10784   1.207   1.942   3.881 -2.5205  2.8242  0.8510
  105SAPE   H7Y10785   1.174   1.768   3.883  0.3109 -1.0664  2.4500
  105SAPE   C3810786   1.095   1.870   4.049 -0.1037 -0.1694 -0.4842
  105SAPE   H8X10787   1.015   1.796   4.067  0.2564 -0.2722  0.8072
  105SAPE   H8Y10788   1.060   1.972   4.075  1.8420  0.1280  1.3077
  105SAPE   C3910789   1.231   1.841   4.125 -0.4594 -0.7641  0.3084
  105SAPE   H9X10790   1.296   1.930   4.107 -2.8191  0.7789 -1.1818
  105SAPE   H9Y10791   1.283   1.761   4.068 -0.0798 -0.3353  0.0451
  105SAPE  C31010792   1.221   1.816   4.275 -0.2543  0.1369 -0.4410
  105SAPE  H10X10793   1.137   1.744   4.283  1.7527 -2.6982 -2.7979
  105SAPE  H10Y10794   1.182   1.908   4.324 -1.3281  0.3787 -1.6805
  105SAPE  C31110795   1.339   1.733   4.341 -0.8531  0.6919 -0.5487
  105SAPE  H11X10796   1.435   1.756   4.291  0.1943 -1.4973  0.3365
  105SAPE  H11Y10797   1.332   1.624   4.320 -0.5591  0.3910  0.8698
  105SAPE  C31210798   1.346   1.749   4.490 -0.3573  0.5793 -1.3571
  105SAPE  H12X10799   1.341   1.855   4.524  0.1170  0.0383  0.5072
  105SAPE  H12Y10800   1.446   1.716   4.527 -0.6410  0.5637 -0.5753
  105SAPE  C31310801   1.226   1.680   4.564 -0.0106  0.2477  0.3040
  105SAPE  H13X10802   1.210   1.579   4.523  1.8215 -0.8795  2.1831
  105SAPE  H13Y10803   1.142   1.751   4.547  0.4666  0.7352 -0.0732
  105SAPE  C31410804   1.254   1.679   4.718  0.7158 -0.9610 -0.7466
  105SAPE  H14X10805   1.157   1.670   4.770  0.6717 -1.1648 -0.8627
  105SAPE  H14Y10806   1.299   1.775   4.751  2.5185 -1.6107 -1.1811
  105SAPE  C31510807   1.357   1.584   4.778  0.0291 -0.2418  0.3496
  105SAPE  H15X10808   1.448   1.569   4.716  0.1412  1.2003  0.1430
  105SAPE  H15Y10809   1.313   1.482   4.788 -2.3746  0.3467 -2.8770
  105SAPE  C31610810   1.399   1.631   4.918 -0.4995 -0.1455 -0.8916
  105SAPE  H16X10811   1.311   1.661   4.979  1.5187  1.4435  1.4279
  105SAPE  H16Y10812   1.468   1.717   4.903 -0.0919 -0.2073  0.4795
  105SAPE  C31710813   1.459   1.522   5.006  0.0722 -0.0527  0.5514
  105SAPE  H17X10814   1.539   1.471   4.948 -0.1338 -0.2539  0.4413
  105SAPE  H17Y10815   1.374   1.453   5.027 -0.4061  0.2762 -0.2550
  105SAPE  C31810816   1.508   1.586   5.135  0.2750  0.4304  0.0342
  105SAPE  H18X10817   1.427   1.623   5.201 -0.4349 -1.0484  0.0519
  105SAPE  H18Y10818   1.581   1.667   5.115 -0.0294  1.1530  1.6494
  105SAPE  H18Z10819   1.561   1.498   5.179 -0.7972 -0.7970 -1.0297
  106SAPE     N10820   2.138   5.372   2.636 -0.8551 -0.1139 -0.1304
  106SAPE   HN110821   2.162   5.382   2.536 -0.5636  0.8502  0.0258
  106SAPE   HN210822   2.202   5.297   2.668  2.1568  1.7605 -1.3399
  106SAPE   HN310823   2.037   5.356   2.656 -0.9082 -1.8303 -1.5347
  106SAPE   C1210824   2.167   5.502   2.699 -0.2113 -0.4316 -0.0015
  106SAPE  H12A10825   2.172   5.482   2.808  4.0529  0.3652  0.1542
  106SAPE  H12B10826   2.085   5.572   2.673  0.8061  0.9004  0.2648
  106SAPE   C1110827   2.311   5.559   2.677  0.5362 -0.1687  0.4913
  106SAPE  H11A10828   2.337   5.652   2.733 -0.2597  1.0950 -1.1563
  106SAPE  H11B10829   2.327   5.588   2.571  0.9222  2.9874  1.2923
  106SAPE     P10830   2.548   5.442   2.654 -0.0089  0.1282  0.3243
  106SAPE   O1310831   2.555   5.325   2.562  0.1510  0.0134 -0.3037
  106SAPE   O1410832   2.590   5.572   2.593  0.2372  0.3131 -0.2507
  106SAPE   O1210833   2.401   5.457   2.717  0.0067 -0.1988  1.0825
  106SAPE   O1110834   2.631   5.414   2.784 -0.3529  0.3331 -0.1855
  106SAPE    C110835   2.608   5.293   2.855 -0.1390  0.0787  0.0148
  106SAPE    HA10836   2.568   5.212   2.791 -0.1681  0.7562 -0.8326
  106SAPE    HB10837   2.698   5.257   2.910  0.3326  0.0693 -0.7500
  106SAPE    C210838   2.502   5.307   2.975 -0.7332  0.0239  0.1230
  106SAPE    HS10839   2.402   5.300   2.927 -0.9919 -0.3673  0.7016
  106SAPE   O2110840   2.510   5.439   3.036 -0.0701 -0.1301  0.2177
  106SAPE   C2110841   2.401   5.495   3.078 -0.2107  0.4576 -0.1315
  106SAPE   O2210842   2.290   5.463   3.053  0.4346  0.0897  0.6386
  106SAPE   C2210843   2.429   5.610   3.179 -0.6402  0.0775 -0.0485
  106SAPE   H2R10844   2.538   5.631   3.178 -0.3073 -1.4640  0.4142
  106SAPE   H2S10845   2.379   5.700   3.136  0.8143  0.6767 -0.5199
  106SAPE    C310846   2.507   5.197   3.081  0.0089 -0.4084  0.0014
  106SAPE    HX10847   2.595   5.212   3.147 -0.7821  2.0421  0.6062
  106SAPE    HY10848   2.530   5.104   3.025 -0.6255 -1.2181  1.0358
  106SAPE   O3110849   2.391   5.200   3.165  0.5781  0.0305  0.5206
  106SAPE   C3110850   2.275   5.155   3.109  1.1010 -0.1889 -0.3514
  106SAPE   O3210851   2.276   5.093   3.004  0.0329  0.6435 -0.4042
  106SAPE   C3210852   2.147   5.196   3.186 -1.3316 -0.4562 -0.0915
  106SAPE   H2X10853   2.070   5.164   3.113 -1.3027  0.0407 -0.3504
  106SAPE   H2Y10854   2.143   5.306   3.202  2.0538 -0.1340 -0.7254
  106SAPE   C2310855   2.377   5.584   3.323  0.1462 -0.5825  0.3732
  106SAPE   H3R10856   2.270   5.559   3.306  0.0894  1.3689 -3.1118
  106SAPE   H3S10857   2.379   5.670   3.394 -2.9715  0.6344 -0.8036
  106SAPE   C2410858   2.442   5.474   3.393 -0.3907  0.2332 -0.3693
  106SAPE   H4R10859   2.547   5.506   3.410 -0.0502 -1.3198  0.6195
  106SAPE   H4S10860   2.454   5.384   3.330  1.0856 -0.9534  1.4678
  106SAPE   C2510861   2.370   5.438   3.521  0.3816  0.2390  0.7154
  106SAPE   H5R10862   2.280   5.375   3.508  0.3595  0.1250  1.3665
  106SAPE   C2610863   2.400   5.462   3.652 -0.4502 -0.8476 -0.2372
  106SAPE   H6R10864   2.333   5.434   3.734 -3.5904  2.3874 -1.4403
  106SAPE   C2710865   2.534   5.516   3.703  0.0744 -0.0779 -0.2556
  106SAPE   H7R10866   2.533   5.621   3.740  1.3664  0.4744 -1.6623
  106SAPE   H7S10867   2.609   5.524   3.622 -0.9178 -0.0613 -1.1893
  106SAPE   C2810868   2.603   5.441   3.815  0.4460  0.5114  0.4938
  106SAPE   H8R10869   2.674   5.361   3.791  0.4972  0.0664  2.0173
  106SAPE   C2910870   2.553   5.437   3.938  0.4477 -0.0915 -0.1565
  106SAPE   H9R10871   2.601   5.374   4.014  1.4775 -0.4544 -1.0874
  106SAPE  C21010872   2.432   5.501   3.991  0.2460  0.1246  0.1481
  106SAPE  H10R10873   2.376   5.564   3.918 -1.5339  0.3336  1.5962
  106SAPE  H10S10874   2.458   5.567   4.076  3.3340  0.5803 -1.0264
  106SAPE  C21110875   2.334   5.399   4.031 -0.1880 -0.1769  0.2653
  106SAPE  H11R10876   2.296   5.334   3.950  0.3478  1.2870 -1.2178
  106SAPE  C21210877   2.292   5.371   4.159  0.2607 -0.1580  0.1972
  106SAPE  H12R10878   2.223   5.287   4.174  0.2218 -0.1410  0.1143
  106SAPE  C21310879   2.323   5.453   4.287 -0.1662  0.2657  0.6152
  106SAPE  H13R10880   2.381   5.547   4.273  1.1715 -0.0423  3.3184
  106SAPE  H13S10881   2.385   5.392   4.357 -1.2625  0.1702  1.5301
  106SAPE  C21410882   2.197   5.501   4.348 -0.0217 -0.3526 -0.4183
  106SAPE  H14R10883   2.120   5.538   4.279 -1.7077  0.0860  1.6174
  106SAPE  C21510884   2.181   5.524   4.477 -0.3772 -0.0635 -0.1141
  106SAPE  H15R10885   2.078   5.544   4.510 -0.0232  0.8989  0.4500
  106SAPE  C21610886   2.273   5.490   4.589 -0.1044  0.1329  0.1154
  106SAPE  H16R10887   2.368   5.546   4.570 -0.2483 -0.4043 -2.5600
  106SAPE  H16S10888   2.304   5.384   4.596 -1.5291 -0.4480 -1.7875
  106SAPE  C21710889   2.228   5.531   4.731  0.1714 -0.1395 -0.1472
  106SAPE  H17R10890   2.307   5.492   4.799  2.1107  0.7567 -1.7927
  106SAPE  H17S10891   2.133   5.476   4.748 -0.3714 -0.0295 -2.5249
  106SAPE  C21810892   2.214   5.684   4.744 -0.4616  0.3328 -0.3034
  106SAPE  H18R10893   2.165   5.735   4.659  3.0411  2.9104 -1.0338
  106SAPE  H18S10894   2.314   5.733   4.739 -1.0702  1.9571  1.6600
  106SAPE  C21910895   2.152   5.737   4.878  0.0460  0.3649 -0.0116
  106SAPE  H19R10896   2.171   5.846   4.877  1.2264  0.1751 -1.5382
  106SAPE  H19S10897   2.212   5.693   4.960  2.5793  1.3049 -1.2668
  106SAPE  C22010898   2.004   5.703   4.896 -0.2258 -0.0284  0.7399
  106SAPE  H20R10899   1.986   5.594   4.910 -0.8176 -0.0540 -0.1687
  106SAPE  H20S10900   1.942   5.737   4.810  0.9781  0.7456  0.1552
  106SAPE  H20T10901   1.966   5.754   4.987 -2.0815 -1.5518  0.8944
  106SAPE   C3310902   2.140   5.129   3.324  0.4388 -0.4805  0.9782
  106SAPE   H3X10903   2.230   5.142   3.388 -0.6068  0.1230  2.3849
  106SAPE   H3Y10904   2.138   5.019   3.309 -2.7373 -0.4746  0.7368
  106SAPE   C3410905   2.026   5.192   3.419 -0.0285 -0.1900  0.4270
  106SAPE   H4X10906   1.924   5.164   3.387  0.5898 -3.1465  0.7409
  106SAPE   H4Y10907   2.016   5.302   3.422 -2.3373 -0.3749  1.8696
  106SAPE   C3510908   2.035   5.128   3.563 -0.5543 -1.0970  0.7209
  106SAPE   H5X10909   2.137   5.155   3.598  0.2575  0.8188 -2.6588
  106SAPE   H5Y10910   2.040   5.020   3.538  2.4112 -0.6916 -0.8406
  106SAPE   C3610911   1.927   5.164   3.661  0.7225 -0.0629 -0.0428
  106SAPE   H6X10912   1.932   5.085   3.738 -0.4486  1.1744  1.3598
  106SAPE   H6Y10913   1.829   5.145   3.611 -0.2952 -0.6038  2.0608
  106SAPE   C3710914   1.928   5.303   3.725  0.4853 -0.3925 -0.0992
  106SAPE   H7X10915   1.977   5.380   3.662  0.4087 -1.7356 -1.8605
  106SAPE   H7Y10916   1.987   5.300   3.820 -1.6899  0.5327  1.3597
  106SAPE   C3810917   1.797   5.362   3.779  0.6719 -0.2554  0.5681
  106SAPE   H8X10918   1.781   5.309   3.875  0.1330  0.0379  0.6431
  106SAPE   H8Y10919   1.706   5.359   3.716 -0.3480 -1.5928  2.0394
  106SAPE   C3910920   1.811   5.509   3.803  0.7764 -0.2765 -0.4699
  106SAPE   H9X10921   1.861   5.553   3.714  1.6328 -0.1875  0.0411
  106SAPE   H9Y10922   1.872   5.539   3.891  0.2913 -0.5105 -0.0460
  106SAPE  C31010923   1.677   5.580   3.808  0.2116  0.2098 -0.1999
  106SAPE  H10X10924   1.614   5.519   3.876 -1.4663 -0.2028 -2.0098
  106SAPE  H10Y10925   1.621   5.601   3.714  1.9601 -0.0725 -1.3484
  106SAPE  C31110926   1.683   5.714   3.889  0.1384 -0.2967  0.5052
  106SAPE  H11X10927   1.744   5.699   3.981  0.5516  1.3688  0.5443
  106SAPE  H11Y10928   1.580   5.745   3.916 -1.4338 -1.5410 -3.4137
  106SAPE  C31210929   1.750   5.825   3.806 -0.8728  0.2480 -0.0860
  106SAPE  H12X10930   1.714   5.828   3.701  0.5638 -0.0039 -0.6043
  106SAPE  H12Y10931   1.858   5.804   3.795 -0.7938  0.0595  0.9379
  106SAPE  C31310932   1.737   5.969   3.852 -0.0271 -0.2349 -0.5108
  106SAPE  H13X10933   1.630   5.996   3.838 -0.0789  0.8067  1.4785
  106SAPE  H13Y10934   1.788   6.033   3.777 -0.9923  0.5765 -0.4970
  106SAPE  C31410935   1.788   5.995   3.988 -0.0038  0.1372  0.0147
  106SAPE  H14X10936   1.899   5.988   3.989 -0.0036 -0.0036 -0.5299
  106SAPE  H14Y10937   1.750   5.917   4.058 -1.3771  1.6743  1.0585
  106SAPE  C31510938   1.754   6.133   4.042 -0.3826 -0.0999  0.0383
  106SAPE  H15X10939   1.648   6.162   4.059  0.5126  2.8039  1.3186
  106SAPE  H15Y10940   1.795   6.207   3.970 -2.2240  0.7025 -0.2232
  106SAPE  C31610941   1.833   6.154   4.175 -0.1394 -0.3605  0.2548
  106SAPE  H16X10942   1.939   6.121   4.165 -0.3805 -1.2844  0.5813
  106SAPE  H16Y10943   1.779   6.106   4.260 -1.5593 -1.9899 -1.4764
  106SAPE  C31710944   1.826   6.306   4.212  0.2142 -0.2299  0.2111
  106SAPE  H17X10945   1.726   6.348   4.185  0.2330 -0.0331  0.4384
  106SAPE  H17Y10946   1.903   6.363   4.156 -0.9171  1.1903  0.0366
  106SAPE  C31810947   1.849   6.329   4.357 -0.5750  0.8303 -0.3883
  106SAPE  H18X10948   1.952   6.305   4.392 -1.0459 -0.1368  0.3962
  106SAPE  H18Y10949   1.769   6.285   4.420 -0.4278 -0.4359 -1.0568
  106SAPE  H18Z10950   1.837   6.437   4.380 -2.8371  0.4024  0.6627
  107SAPE     N10951   6.102   1.981   2.661  0.4769  0.9317 -0.4892
  107SAPE   HN110952   6.064   1.884   2.661  0.8162  0.7719 -1.9489
  107SAPE   HN210953   6.120   2.010   2.563 -0.2994  2.9097 -0.0832
  107SAPE   HN310954   6.194   1.976   2.709  0.1645 -0.0406  0.0246
  107SAPE   C1210955   6.006   2.085   2.718 -0.4270  0.9275 -0.0402
  107SAPE  H12A10956   5.930   2.031   2.778  0.6919  0.7158  1.2322
  107SAPE  H12B10957   5.950   2.128   2.632 -0.3796  0.2287 -0.4299
  107SAPE   C1110958   6.094   2.186   2.798  0.2204  0.2745 -0.8988
  107SAPE  H11A10959   6.160   2.132   2.868  1.2460  0.0858 -1.9689
  107SAPE  H11B10960   6.021   2.249   2.852 -1.2099 -1.0681 -1.2038
  107SAPE     P10961   6.180   2.425   2.712 -0.4529 -0.1593 -0.2366
  107SAPE   O1310962   6.326   2.447   2.726 -0.6024  0.3244  0.6666
  107SAPE   O1410963   6.117   2.475   2.590  0.0524 -0.2561 -0.4828
  107SAPE   O1210964   6.171   2.260   2.709  0.2809 -0.6784  0.2291
  107SAPE   O1110965   6.108   2.476   2.843 -0.7043  0.5813 -0.6722
  107SAPE    C110966   6.149   2.446   2.976  0.4487 -0.6356  0.0631
  107SAPE    HA10967   6.200   2.347   2.977  0.8819 -0.4663 -1.7294
  107SAPE    HB10968   6.228   2.517   3.008 -0.7876  0.2176  1.3374
  107SAPE    C210969   6.030   2.453   3.079  0.1371 -0.3874  0.5484
  107SAPE    HS10970   5.957   2.374   3.051  1.4161 -1.2526 -0.4847
  107SAPE   O2110971   5.973   2.587   3.089 -0.4224  0.0826 -0.0380
  107SAPE   C2110972   5.842   2.586   3.111 -0.8726  0.4534  0.1477
  107SAPE   O2210973   5.768   2.489   3.111  0.0768  0.1346 -0.0287
  107SAPE   C2210974   5.793   2.735   3.142 -0.8956  0.7461  0.9761
  107SAPE   H2R10975   5.873   2.779   3.205 -1.7056  2.1606  1.0463
  107SAPE   H2S10976   5.779   2.794   3.049 -2.0271  1.6023  1.6611
  107SAPE    C310977   6.086   2.415   3.214  0.4416  0.5818  0.2245
  107SAPE    HX10978   6.150   2.497   3.254 -2.7513  3.2740  0.2347
  107SAPE    HY10979   6.141   2.320   3.197 -2.4326 -1.3708  1.1025
  107SAPE   O3110980   5.980   2.394   3.306  0.5913  0.0721 -0.0665
  107SAPE   C3110981   5.949   2.278   3.362  0.0862  0.7769 -0.0730
  107SAPE   O3210982   6.007   2.173   3.350 -0.1897  0.3750  0.1109
  107SAPE   C3210983   5.820   2.288   3.439 -0.2943  0.5896 -0.5288
  107SAPE   H2X10984   5.756   2.208   3.396 -0.5276  0.4139  0.1329
  107SAPE   H2Y10985   5.768   2.386   3.426 -0.9485  0.1316 -1.4615
  107SAPE   C2310986   5.659   2.748   3.205  0.3157  0.0691 -0.8737
  107SAPE   H3R10987   5.595   2.658   3.190 -0.4182 -0.8171  5.1389
  107SAPE   H3S10988   5.601   2.839   3.181 -0.8978 -0.2545  0.6476
  107SAPE   C2410989   5.668   2.771   3.360  0.3575  0.0762 -0.4334
  107SAPE   H4R10990   5.564   2.792   3.390 -0.4831  0.0550 -3.0928
  107SAPE   H4S10991   5.721   2.862   3.395  0.7779 -0.9966  1.9334
  107SAPE   C2510992   5.733   2.668   3.451  0.0101 -0.9275 -0.5942
  107SAPE   H5R10993   5.661   2.589   3.473 -0.8838 -0.4968 -1.8444
  107SAPE   C2610994   5.861   2.663   3.498 -0.2292  0.2462 -0.3222
  107SAPE   H6R10995   5.895   2.580   3.562  0.2799  0.1029 -0.7748
  107SAPE   C2710996   5.976   2.765   3.488 -0.2464 -0.8945 -0.4990
  107SAPE   H7R10997   5.970   2.829   3.579 -0.9848 -0.8847 -0.5523
  107SAPE   H7S10998   5.956   2.829   3.400 -2.7316 -1.5327 -0.4647
  107SAPE   C2810999   6.119   2.729   3.490 -0.0490 -0.1304  0.1074
  107SAPE   H8R11000   6.162   2.700   3.393  1.1312  0.2932  0.4883
  107SAPE   C2911001   6.207   2.721   3.592 -0.0963 -0.2057 -0.0496
  107SAPE   H9R11002   6.309   2.704   3.555 -0.2922  2.8275 -2.3656
  107SAPE  C21011003   6.177   2.724   3.742  0.4034  0.1721  0.9660
  107SAPE  H10R11004   6.136   2.624   3.769 -0.9336  0.0762 -1.1986
  107SAPE  H10S11005   6.089   2.788   3.764 -0.4372 -1.5640  3.0549
  107SAPE  C21111006   6.291   2.753   3.839  0.7301 -0.2755  0.6052
  107SAPE  H11R11007   6.378   2.809   3.802  1.2694 -2.4812 -1.7607
  107SAPE  C21211008   6.295   2.716   3.966  0.1771 -0.7844 -0.7211
  107SAPE  H12R11009   6.369   2.769   4.029 -2.7491  0.3691  2.0474
  107SAPE  C21311010   6.179   2.651   4.042 -0.3486  0.7781  0.1338
  107SAPE  H13R11011   6.221   2.585   4.120 -0.3561 -0.0236 -0.5213
  107SAPE  H13S11012   6.131   2.572   3.980  1.2751 -0.3797  0.2861
  107SAPE  C21411013   6.074   2.750   4.090  0.1622  0.4011 -0.5213
  107SAPE  H14R11014   6.035   2.807   4.005 -0.9647 -1.1924 -1.1343
  107SAPE  C21511015   6.015   2.753   4.209 -0.5252  0.2965  0.5680
  107SAPE  H15R11016   5.929   2.820   4.221 -0.1437  0.9382 -0.2264
  107SAPE  C21611017   6.045   2.666   4.330 -0.3343  0.5981  0.1513
  107SAPE  H16R11018   6.037   2.734   4.418 -1.3377  0.8927 -0.1590
  107SAPE  H16S11019   6.150   2.629   4.334 -0.2035  1.0556  1.7827
  107SAPE  C21711020   5.946   2.551   4.345  0.3679 -0.0895 -0.1718
  107SAPE  H17R11021   5.925   2.511   4.244  1.9780  3.7974 -2.2527
  107SAPE  H17S11022   5.852   2.596   4.384 -0.4119 -0.6243 -1.3713
  107SAPE  C21811023   6.004   2.441   4.429  0.4549 -0.0363  0.0347
  107SAPE  H18R11024   6.112   2.416   4.417  1.0107  2.3821 -0.4798
  107SAPE  H18S11025   5.940   2.350   4.425  1.6100 -0.9724  1.4055
  107SAPE  C21911026   5.986   2.470   4.584  0.3788  0.0523  0.0682
  107SAPE  H19R11027   5.882   2.494   4.617  0.9650 -0.6229  2.6765
  107SAPE  H19S11028   6.040   2.565   4.600  0.9698 -0.0894 -0.9892
  107SAPE  C22011029   6.057   2.369   4.674  0.0255 -0.3575 -0.1512
  107SAPE  H20R11030   5.992   2.278   4.678 -2.5850  1.3804 -0.6523
  107SAPE  H20S11031   6.065   2.416   4.774  2.7787  0.0918 -0.5024
  107SAPE  H20T11032   6.156   2.338   4.633 -0.5911 -1.9650 -0.5119
  107SAPE   C3311033   5.839   2.262   3.590 -0.4110 -0.6351 -0.0796
  107SAPE   H3X11034   5.916   2.322   3.642 -0.6617 -0.3231 -0.0613
  107SAPE   H3Y11035   5.863   2.154   3.598  2.3674 -0.0173  0.9046
  107SAPE   C3411036   5.707   2.278   3.671  0.2638 -0.2286 -0.3420
  107SAPE   H4X11037   5.627   2.203   3.650 -0.7934 -0.2015  3.0366
  107SAPE   H4Y11038   5.666   2.381   3.669 -0.3382 -0.4684 -1.5856
  107SAPE   C3511039   5.724   2.237   3.821  0.3221 -0.1155 -0.6943
  107SAPE   H5X11040   5.785   2.310   3.879  0.4214  0.5212 -1.5833
  107SAPE   H5Y11041   5.775   2.138   3.818 -0.1206 -0.3362 -0.8765
  107SAPE   C3611042   5.583   2.232   3.886  0.3069  0.1721 -0.6641
  107SAPE   H6X11043   5.521   2.165   3.823 -0.5636  0.9831 -0.7017
  107SAPE   H6Y11044   5.534   2.332   3.884  0.9347  0.7080  3.1342
  107SAPE   C3711045   5.583   2.183   4.030 -0.3056  0.4136 -0.5111
  107SAPE   H7X11046   5.660   2.105   4.045 -1.7753 -0.9618  0.1244
  107SAPE   H7Y11047   5.491   2.123   4.042 -1.4826  2.0754 -0.7801
  107SAPE   C3811048   5.585   2.285   4.143 -0.0725  0.3112  0.4394
  107SAPE   H8X11049   5.513   2.365   4.113  1.3028  0.6457 -2.2458
  107SAPE   H8Y11050   5.682   2.338   4.143 -1.1883  2.4937  0.9974
  107SAPE   C3911051   5.563   2.227   4.285 -0.0498  0.3952 -0.0956
  107SAPE   H9X11052   5.621   2.132   4.284  0.7406  0.8694  0.0075
  107SAPE   H9Y11053   5.454   2.212   4.298  0.0213 -1.7002 -1.4676
  107SAPE  C31011054   5.632   2.312   4.391  0.2171  0.1650 -0.0936
  107SAPE  H10X11055   5.602   2.417   4.368 -0.1580 -0.3559 -2.1841
  107SAPE  H10Y11056   5.742   2.300   4.381  0.4727  0.6731  1.7540
  107SAPE  C31111057   5.581   2.284   4.532 -0.0508  0.0644  0.2753
  107SAPE  H11X11058   5.629   2.194   4.576 -2.6695 -1.2634  0.6391
  107SAPE  H11Y11059   5.472   2.263   4.539 -0.0434  0.4136  1.8415
  107SAPE  C31211060   5.589   2.388   4.647 -0.4689  0.1160 -0.9056
  107SAPE  H12X11061   5.693   2.427   4.645 -0.9961  1.5261 -2.2485
  107SAPE  H12Y11062   5.570   2.341   4.746 -0.5942 -2.2451 -1.9924
  107SAPE  C31311063   5.497   2.513   4.624 -0.2774  0.2760 -0.4514
  107SAPE  H13X11064   5.392   2.481   4.609 -1.4444  2.7918  1.5623
  107SAPE  H13Y11065   5.530   2.562   4.530 -2.6153  1.2200 -0.8334
  107SAPE  C31411066   5.521   2.626   4.725 -0.1543 -0.3214  0.8358
  107SAPE  H14X11067   5.477   2.715   4.673  1.0608 -1.1354 -1.7514
  107SAPE  H14Y11068   5.632   2.631   4.733 -0.0263  0.7429 -0.9620
  107SAPE  C31511069   5.454   2.598   4.858  0.2570 -0.3382 -0.0024
  107SAPE  H15X11070   5.521   2.529   4.914 -0.7244 -1.2769  0.0435
  107SAPE  H15Y11071   5.357   2.555   4.826 -0.3337  1.3708 -0.6213
  107SAPE  C31611072   5.409   2.715   4.945 -0.2361  0.5480  0.0419
  107SAPE  H16X11073   5.353   2.786   4.882  2.7303  0.7926 -2.5580
  107SAPE  H16Y11074   5.503   2.756   4.988  0.8819 -1.7264 -0.0553
  107SAPE  C31711075   5.311   2.666   5.057 -0.7835 -0.0433 -0.0750
  107SAPE  H17X11076   5.360   2.600   5.131  3.4311  1.8484 -0.9115
  107SAPE  H17Y11077   5.223   2.617   5.010  0.3077 -1.4226 -0.7342
  107SAPE  C31811078   5.257   2.794   5.129 -0.5753  0.0236  0.5430
  107SAPE  H18X11079   5.186   2.847   5.062 -0.8257  0.0397  0.8212
  107SAPE  H18Y11080   5.339   2.869   5.132 -0.2576 -0.0948 -2.2296
  107SAPE  H18Z11081   5.219   2.774   5.231  1.5257  1.6173  1.7036
  108SAPE     N11082   0.102   5.299   2.989 -0.3807 -0.0622 -0.0471
  108SAPE   HN111083   0.078   5.272   2.892  1.3676 -2.1557  0.0276
  108SAPE   HN211084   0.204   5.319   2.989 -0.2289 -0.7957 -0.6210
  108SAPE   HN311085   0.074   5.211   3.037  0.3879 -0.8836 -1.0484
  108SAPE   C1211086   0.048   5.431   3.030  0.5785 -0.8680  0.1975
  108SAPE  H12A11087   0.083   5.447   3.135 -1.5262 -0.5446  0.9110
  108SAPE  H12B11088  -0.063   5.423   3.042  0.2563  1.7898 -0.3413
  108SAPE   C1111089   0.088   5.537   2.933 -0.1618 -0.3441 -0.0530
  108SAPE  H11A11090   0.196   5.563   2.937 -1.0250  3.9685 -0.0318
  108SAPE  H11B11091   0.037   5.626   2.976 -2.4555 -1.5737 -0.0543
  108SAPE     P11092  -0.077   5.583   2.738  0.2117 -0.1034  0.3320
  108SAPE   O1311093  -0.042   5.722   2.704 -0.3263 -0.8460  0.2705
  108SAPE   O1411094  -0.137   5.504   2.636  0.2824 -0.3992  0.0626
  108SAPE   O1211095   0.041   5.510   2.796 -0.4129  0.2845  0.1796
  108SAPE   O1111096  -0.183   5.599   2.859 -0.1251  0.4791  0.2571
  108SAPE    C111097  -0.300   5.529   2.872  0.0348 -0.1002  0.3310
  108SAPE    HA11098  -0.355   5.530   2.776 -2.1095  0.8384  1.4771
  108SAPE    HB11099  -0.278   5.422   2.891 -0.0194 -0.0729  0.5589
  108SAPE    C211100  -0.383   5.580   2.992  0.2033  0.2619  0.4816
  108SAPE    HS11101  -0.477   5.520   2.997 -1.7932  3.2448  1.4948
  108SAPE   O2111102  -0.407   5.720   2.975 -0.0877 -0.2246 -1.0489
  108SAPE   C2111103  -0.498   5.750   2.878  0.1844 -0.3212  0.7629
  108SAPE   O2211104  -0.552   5.663   2.810  1.1356  0.6305  0.1415
  108SAPE   C2211105  -0.524   5.898   2.866 -0.0929  0.2714  0.6246
  108SAPE   H2R11106  -0.439   5.957   2.908  0.7467  0.1352 -0.8172
  108SAPE   H2S11107  -0.540   5.922   2.759 -2.4893  1.2599  1.1538
  108SAPE    C311108  -0.312   5.563   3.128 -0.3892 -0.1712 -0.5860
  108SAPE    HX11109  -0.215   5.615   3.130  0.9514 -2.4557 -1.5658
  108SAPE    HY11110  -0.297   5.454   3.142 -0.2581  0.0969  1.7201
  108SAPE   O3111111  -0.382   5.611   3.237  0.6673 -0.5133  0.6713
  108SAPE   C3111112  -0.360   5.729   3.295  0.7217 -0.1392  0.6225
  108SAPE   O3211113  -0.281   5.809   3.248 -0.4317 -0.1892 -0.2206
  108SAPE   C3211114  -0.426   5.743   3.426  0.7360 -0.2981  0.3331
  108SAPE   H2X11115  -0.536   5.727   3.414  0.6648  0.4486 -0.1158
  108SAPE   H2Y11116  -0.425   5.849   3.459 -2.3090 -0.1871  0.3942
  108SAPE   C2311117  -0.662   5.923   2.938  0.3710 -0.4586  0.3846
  108SAPE   H3R11118  -0.741   5.886   2.869 -1.2094  1.6734  0.9507
  108SAPE   H3S11119  -0.680   6.033   2.932  1.9516 -0.0620  2.1052
  108SAPE   C2411120  -0.685   5.870   3.079 -0.7882 -0.9885  0.5458
  108SAPE   H4R11121  -0.587   5.893   3.126 -0.7100  3.0950 -1.1752
  108SAPE   H4S11122  -0.704   5.761   3.080 -0.5686 -1.0373 -0.2659
  108SAPE   C2511123  -0.807   5.931   3.149  0.2740  0.1053  0.7217
  108SAPE   H5R11124  -0.903   5.919   3.097  0.5246  0.9228  0.0480
  108SAPE   C2611125  -0.806   6.011   3.260 -0.6320  0.0869 -0.1263
  108SAPE   H6R11126  -0.901   6.041   3.305 -0.7641 -0.3012 -0.1431
  108SAPE   C2711127  -0.681   6.042   3.335 -0.3101 -0.9962 -0.0143
  108SAPE   H7R11128  -0.588   6.033   3.274 -0.0237  0.4126  0.1729
  108SAPE   H7S11129  -0.669   5.961   3.410 -0.4583  0.7294  1.9908
  108SAPE   C2811130  -0.674   6.169   3.420  0.6434  0.2552 -0.0584
  108SAPE   H8R11131  -0.671   6.264   3.365  2.5780  0.8331  0.9621
  108SAPE   C2911132  -0.662   6.180   3.556 -0.1548  0.0412 -0.3229
  108SAPE   H9R11133  -0.699   6.276   3.593 -1.5333 -1.2026  1.7134
  108SAPE  C21011134  -0.657   6.065   3.652 -0.1688  0.1531 -1.4572
  108SAPE  H10R11135  -0.640   5.968   3.601  2.9092 -0.0461 -0.2663
  108SAPE  H10S11136  -0.759   6.063   3.696  0.1486 -1.2485 -0.7535
  108SAPE  C21111137  -0.528   6.102   3.732 -0.6695 -0.2921 -0.5780
  108SAPE  H11R11138  -0.438   6.078   3.674 -0.4366 -1.5275  0.2462
  108SAPE  C21211139  -0.514   6.172   3.848 -0.0612 -0.6362 -0.9510
  108SAPE  H12R11140  -0.412   6.203   3.873 -0.0853  0.5040 -2.1468
  108SAPE  C21311141  -0.631   6.224   3.929 -0.5745  0.7258  0.7113
  108SAPE  H13R11142  -0.703   6.141   3.950  2.5339 -2.0343  1.2386
  108SAPE  H13S11143  -0.675   6.307   3.871 -0.0713  0.9411  0.6352
  108SAPE  C21411144  -0.581   6.266   4.066 -0.1216 -0.0963 -0.4842
  108SAPE  H14R11145  -0.532   6.365   4.068 -2.1727  0.9781  0.5590
  108SAPE  C21511146  -0.594   6.199   4.186 -0.2579  0.1984  0.7107
  108SAPE  H15R11147  -0.561   6.250   4.278  0.2173 -0.4716  0.9216
  108SAPE  C21611148  -0.644   6.060   4.215  0.1715 -0.7525  0.5132
  108SAPE  H16R11149  -0.682   6.009   4.124  1.5031 -4.3372  1.7876
  108SAPE  H16S11150  -0.728   6.071   4.287  0.1268  0.8157  0.2561
  108SAPE  C21711151  -0.540   5.962   4.264 -1.4212 -0.3814 -0.4885
  108SAPE  H17R11152  -0.586   5.873   4.313 -0.1876 -0.6088  0.3206
  108SAPE  H17S11153  -0.491   6.009   4.352 -2.8505 -0.5509  0.4197
  108SAPE  C21811154  -0.426   5.933   4.162 -0.1513  0.2238 -0.3124
  108SAPE  H18R11155  -0.395   6.026   4.109  0.3907  0.1199 -0.1877
  108SAPE  H18S11156  -0.468   5.858   4.093  0.5693 -1.4503  0.9942
  108SAPE  C21911157  -0.302   5.871   4.219 -0.3784  0.1480 -0.0276
  108SAPE  H19R11158  -0.255   5.817   4.134  0.3391 -0.0541  0.4969
  108SAPE  H19S11159  -0.339   5.794   4.290 -0.8872 -0.6959 -1.1558
  108SAPE  C22011160  -0.213   5.971   4.290 -0.7103 -0.1715 -0.4610
  108SAPE  H20R11161  -0.185   6.046   4.212  2.2089 -0.9940 -0.3423
  108SAPE  H20S11162  -0.117   5.921   4.316 -1.1093 -0.4428  0.5155
  108SAPE  H20T11163  -0.271   6.012   4.376 -2.5629  1.3937 -2.3556
  108SAPE   C3311164  -0.362   5.660   3.537  0.6237  0.6385 -0.0643
  108SAPE   H3X11165  -0.262   5.704   3.559  0.2444  1.0187  0.9485
  108SAPE   H3Y11166  -0.342   5.557   3.499  0.2384  0.5503 -0.0319
  108SAPE   C3411167  -0.462   5.649   3.657  0.1903 -0.2223 -0.0549
  108SAPE   H4X11168  -0.550   5.592   3.622  0.1733  0.5598 -1.3389
  108SAPE   H4Y11169  -0.502   5.749   3.685  2.2031  1.2926 -2.2347
  108SAPE   C3511170  -0.395   5.579   3.773  0.1638 -0.5628  0.2188
  108SAPE   H5X11171  -0.364   5.476   3.745 -1.7583 -0.6507 -1.9073
  108SAPE   H5Y11172  -0.310   5.643   3.806 -0.8329  1.0654 -0.2751
  108SAPE   C3611173  -0.480   5.564   3.901 -0.3277  0.6691  0.1325
  108SAPE   H6X11174  -0.575   5.508   3.891 -0.7375  1.3609  0.1029
  108SAPE   H6Y11175  -0.511   5.666   3.933 -1.7941  1.0482 -2.2333
  108SAPE   C3711176  -0.389   5.495   4.003 -0.0559  0.8425  0.5864
  108SAPE   H7X11177  -0.305   5.564   4.027 -0.8607  1.8413  0.5757
  108SAPE   H7Y11178  -0.342   5.411   3.947 -1.3144  1.0886 -0.8881
  108SAPE   C3811179  -0.449   5.442   4.130  0.2359 -0.1174 -0.6874
  108SAPE   H8X11180  -0.373   5.388   4.190  0.8120 -0.4014 -1.6573
  108SAPE   H8Y11181  -0.532   5.372   4.108 -1.3309  0.3320  3.0675
  108SAPE   C3911182  -0.497   5.553   4.228  1.1195 -0.2658  0.3006
  108SAPE   H9X11183  -0.565   5.626   4.179 -0.6655  0.8506  4.1061
  108SAPE   H9Y11184  -0.412   5.610   4.268  0.3216  0.1193  1.4899
  108SAPE  C31011185  -0.565   5.496   4.349 -0.3891  0.3414 -0.4465
  108SAPE  H10X11186  -0.487   5.433   4.399  0.3801  0.6156 -1.2810
  108SAPE  H10Y11187  -0.655   5.435   4.327 -0.3786 -0.9924  2.6358
  108SAPE  C31111188  -0.610   5.607   4.450 -0.6192  0.6961  0.1868
  108SAPE  H11X11189  -0.668   5.688   4.399  0.7538  0.8544 -1.1906
  108SAPE  H11Y11190  -0.517   5.658   4.482 -0.0052 -0.2651 -0.0395
  108SAPE  C31211191  -0.694   5.559   4.570  0.1314 -0.3639  0.0230
  108SAPE  H12X11192  -0.782   5.499   4.537 -0.0200 -0.3799  0.4423
  108SAPE  H12Y11193  -0.739   5.637   4.635 -0.2472 -0.3882 -0.2103
  108SAPE  C31311194  -0.614   5.472   4.678  0.4870  0.3180  0.0390
  108SAPE  H13X11195  -0.550   5.407   4.615 -1.0719 -0.5829 -0.6897
  108SAPE  H13Y11196  -0.691   5.408   4.727  0.4467  1.4389  1.5058
  108SAPE  C31411197  -0.524   5.545   4.768  0.8362 -1.0271 -0.6390
  108SAPE  H14X11198  -0.582   5.627   4.815 -2.3633 -2.0919 -2.4472
  108SAPE  H14Y11199  -0.441   5.600   4.718 -0.9783  2.7161  0.0534
  108SAPE  C31511200  -0.465   5.456   4.880 -0.4807 -1.0229 -0.4559
  108SAPE  H15X11201  -0.550   5.402   4.927  0.0403 -1.4656 -0.0179
  108SAPE  H15Y11202  -0.415   5.524   4.952  1.2903 -1.7280 -0.9720
  108SAPE  C31611203  -0.355   5.359   4.829 -0.2501 -0.1339 -0.9161
  108SAPE  H16X11204  -0.265   5.406   4.782 -0.4666  0.2364 -0.9602
  108SAPE  H16Y11205  -0.409   5.291   4.759 -1.9628 -1.1072  1.2458
  108SAPE  C31711206  -0.290   5.270   4.944  0.3391 -0.7181  0.1220
  108SAPE  H17X11207  -0.370   5.217   5.000  0.2605  1.0174  1.7187
  108SAPE  H17Y11208  -0.247   5.336   5.022 -2.4803 -1.3345  2.3559
  108SAPE  C31811209  -0.193   5.164   4.894 -0.4222  0.6995  0.5953
  108SAPE  H18X11210  -0.172   5.090   4.975  1.3831  0.9728  0.4208
  108SAPE  H18Y11211  -0.095   5.213   4.871 -0.4352 -0.0389 -1.1243
  108SAPE  H18Z11212  -0.237   5.120   4.803 -0.3027  0.7218  0.5258
  109SAPE     N11213   2.179   6.870   2.798  0.0255  0.5315  0.3018
  109SAPE   HN111214   2.123   6.953   2.824  0.9560  2.1024 -2.2854
  109SAPE   HN211215   2.108   6.798   2.772  0.4369  0.5159 -0.8619
  109SAPE   HN311216   2.233   6.834   2.880  1.6724  0.6332 -0.6855
  109SAPE   C1211217   2.266   6.902   2.684  0.5549 -0.1167  0.5612
  109SAPE  H12A11218   2.332   6.816   2.659 -0.0757 -0.9785  1.7979
  109SAPE  H12B11219   2.332   6.987   2.714 -1.1784  1.1204  1.0022
  109SAPE   C1111220   2.185   6.950   2.567 -0.1268 -1.1452 -0.5111
  109SAPE  H11A11221   2.108   6.880   2.529 -1.2410  0.4535 -1.2836
  109SAPE  H11B11222   2.251   6.971   2.480  2.5070 -1.4435  1.2719
  109SAPE     P11223   2.084   7.189   2.513  0.4434  0.0503  0.4151
  109SAPE   O1311224   2.202   7.269   2.483 -0.7745  1.1853  0.5037
  109SAPE   O1411225   2.011   7.127   2.398  0.6351 -0.6575  0.2533
  109SAPE   O1211226   2.123   7.074   2.605 -0.4116  0.5851  0.6986
  109SAPE   O1111227   1.993   7.295   2.586 -0.4126  0.0714  0.0111
  109SAPE    C111228   2.063   7.378   2.685 -0.5741 -0.5039  0.4943
  109SAPE    HA11229   2.150   7.426   2.636 -2.0488 -1.2619 -3.2639
  109SAPE    HB11230   1.990   7.460   2.705  0.0788 -0.6812  4.3277
  109SAPE    C211231   2.078   7.312   2.828 -0.0752  0.2878 -0.1733
  109SAPE    HS11232   2.150   7.228   2.823 -0.1623  0.2557 -1.1184
  109SAPE   O2111233   1.948   7.260   2.863 -0.6293 -0.4585 -0.4370
  109SAPE   C2111234   1.937   7.133   2.908 -0.4518 -0.9013  0.1370
  109SAPE   O2211235   2.031   7.056   2.906  0.0766 -0.1027 -0.2629
  109SAPE   C2211236   1.802   7.112   2.961  0.3262 -0.4228  0.2101
  109SAPE   H2R11237   1.763   7.197   3.022 -1.1401 -1.1711  0.3437
  109SAPE   H2S11238   1.734   7.103   2.874 -0.7878 -0.0969  1.0208
  109SAPE    C311239   2.110   7.414   2.945  0.7614 -0.9898 -0.1690
  109SAPE    HX11240   2.046   7.500   2.917 -0.0858 -2.5907 -3.7429
  109SAPE    HY11241   2.214   7.444   2.921  0.7298 -0.0271  0.8389
  109SAPE   O3111242   2.088   7.343   3.067 -0.1356  0.4650  0.2391
  109SAPE   C3111243   2.114   7.397   3.181 -0.0645 -0.7505 -0.2855
  109SAPE   O3211244   2.147   7.514   3.205  0.1683  0.2271  0.7819
  109SAPE   C3211245   2.097   7.293   3.291  0.6100 -0.5457  0.7300
  109SAPE   H2X11246   2.177   7.217   3.283  1.6809  0.7396 -3.3301
  109SAPE   H2Y11247   1.997   7.250   3.267  0.5234 -1.4806  2.6167
  109SAPE   C2311248   1.793   6.981   3.038  0.5966 -0.4497 -0.6071
  109SAPE   H3R11249   1.806   6.891   2.974 -1.4418 -1.1746 -0.0756
  109SAPE   H3S11250   1.685   6.973   3.064  0.1625  0.5446 -2.0271
  109SAPE   C2411251   1.869   6.983   3.177  0.1602 -1.0616 -0.0872
  109SAPE   H4R11252   1.841   7.078   3.228 -0.0724 -1.3015  0.2344
  109SAPE   H4S11253   1.978   6.993   3.162  0.0382  1.0558  0.0972
  109SAPE   C2511254   1.820   6.866   3.256  0.0964 -0.4742 -0.3601
  109SAPE   H5R11255   1.816   6.769   3.204  1.7903  0.2092 -1.9159
  109SAPE   C2611256   1.784   6.861   3.387 -0.1977 -0.1156 -0.8552
  109SAPE   H6R11257   1.766   6.766   3.441 -0.9034  0.4920  0.0042
  109SAPE   C2711258   1.794   6.985   3.477  0.6747  0.7282 -0.2473
  109SAPE   H7R11259   1.690   7.025   3.476  0.8973  1.3341  0.4637
  109SAPE   H7S11260   1.871   7.052   3.433 -0.0001  1.6616 -0.0540
  109SAPE   C2811261   1.852   6.953   3.616  0.7897 -0.1380 -0.5350
  109SAPE   H8R11262   1.960   6.966   3.625  0.6987  0.5783 -0.4089
  109SAPE   C2911263   1.782   6.929   3.732 -0.5298  0.2577 -0.0228
  109SAPE   H9R11264   1.835   6.907   3.825 -1.2856  1.3795  0.6982
  109SAPE  C21011265   1.631   6.913   3.758  0.2452 -0.3594  1.0822
  109SAPE  H10R11266   1.576   7.003   3.723 -0.1675 -0.9461  0.1937
  109SAPE  H10S11267   1.615   6.914   3.868  3.6662 -3.2622  1.7704
  109SAPE  C21111268   1.575   6.798   3.682 -0.5199  0.3594 -0.4626
  109SAPE  H11R11269   1.595   6.787   3.575  1.5213 -0.3840 -0.0427
  109SAPE  C21211270   1.493   6.707   3.734 -0.0096  0.6627  0.0064
  109SAPE  H12R11271   1.476   6.617   3.673 -0.0774  1.1553 -0.7159
  109SAPE  C21311272   1.448   6.699   3.879 -0.3167  1.0569  0.0533
  109SAPE  H13R11273   1.529   6.729   3.949  0.9459  1.4603 -1.5143
  109SAPE  H13S11274   1.425   6.595   3.909  0.2428  1.3329  1.5388
  109SAPE  C21411275   1.320   6.776   3.910 -0.8017 -0.5956 -0.3070
  109SAPE  H14R11276   1.315   6.872   3.857  3.4947  0.0077  0.0505
  109SAPE  C21511277   1.225   6.743   3.993  0.1744  0.1222  0.3711
  109SAPE  H15R11278   1.132   6.801   4.000  1.1891  1.7763  0.7777
  109SAPE  C21611279   1.235   6.622   4.079 -0.2959  0.3173 -0.4100
  109SAPE  H16R11280   1.317   6.629   4.154 -0.2872  0.1359 -0.4029
  109SAPE  H16S11281   1.262   6.524   4.034  1.4589  0.3555  0.4739
  109SAPE  C21711282   1.105   6.621   4.152 -0.2156  0.0679 -0.5501
  109SAPE  H17R11283   1.028   6.582   4.081  0.5108 -2.1287 -0.2151
  109SAPE  H17S11284   1.085   6.721   4.195  0.4463 -0.6161  1.4802
  109SAPE  C21811285   1.107   6.520   4.274 -0.1225 -0.0404  0.0169
  109SAPE  H18R11286   1.181   6.563   4.346 -0.0932 -0.2443  0.1108
  109SAPE  H18S11287   1.143   6.423   4.231 -0.5046  0.3984 -1.3338
  109SAPE  C21911288   0.974   6.509   4.341 -0.2867  0.5641 -0.1120
  109SAPE  H19R11289   0.985   6.413   4.396 -1.6662  0.9503  0.8998
  109SAPE  H19S11290   0.896   6.499   4.262  0.3695 -2.2247 -0.5242
  109SAPE  C22011291   0.944   6.630   4.431 -0.4845  0.0100  0.1528
  109SAPE  H20R11292   0.865   6.594   4.500 -1.4774  0.6759 -0.6054
  109SAPE  H20S11293   0.904   6.718   4.377 -0.7747  2.0822  3.5288
  109SAPE  H20T11294   1.034   6.652   4.492  0.0819 -0.7861 -0.3664
  109SAPE   C3311295   2.095   7.358   3.432 -0.2360 -0.0937  0.4756
  109SAPE   H3X11296   2.006   7.423   3.435 -0.8644 -0.7782 -1.4851
  109SAPE   H3Y11297   2.189   7.414   3.453 -0.5069 -0.1872  2.0670
  109SAPE   C3411298   2.093   7.249   3.537 -0.1512 -0.3466  0.1369
  109SAPE   H4X11299   2.191   7.198   3.530 -0.1002 -0.4659  1.5266
  109SAPE   H4Y11300   2.013   7.176   3.515 -0.4459 -0.4265  1.4260
  109SAPE   C3511301   2.074   7.316   3.680  0.5793  0.0602 -0.2862
  109SAPE   H5X11302   1.971   7.356   3.693  0.8618  0.1252  2.3766
  109SAPE   H5Y11303   2.140   7.403   3.700 -0.8896  1.5144 -1.4857
  109SAPE   C3611304   2.079   7.218   3.796 -0.0180  0.1940  0.0779
  109SAPE   H6X11305   2.158   7.142   3.780 -2.3310 -2.2169 -0.5648
  109SAPE   H6Y11306   1.982   7.166   3.806  0.0465 -0.1146 -0.8139
  109SAPE   C3711307   2.099   7.300   3.925  0.7383 -0.1218  0.4762
  109SAPE   H7X11308   2.008   7.361   3.946 -0.5283 -2.0323  0.8386
  109SAPE   H7Y11309   2.192   7.359   3.932  0.2592  1.0138 -1.7863
  109SAPE   C3811310   2.091   7.205   4.053  0.5064  0.5947 -0.2121
  109SAPE   H8X11311   2.163   7.123   4.032 -0.3202  0.1732 -1.5898
  109SAPE   H8Y11312   1.986   7.167   4.045  1.0265 -1.6949  2.4676
  109SAPE   C3911313   2.107   7.278   4.192  0.0297  0.0614  0.3435
  109SAPE   H9X11314   2.053   7.374   4.183  0.1623  0.3663  2.4033
  109SAPE   H9Y11315   2.213   7.304   4.212  0.5986 -2.5572  1.2117
  109SAPE  C31011316   2.058   7.198   4.318 -0.1053 -0.0351  0.5515
  109SAPE  H10X11317   2.111   7.101   4.317  0.4862  0.2782  0.6521
  109SAPE  H10Y11318   1.950   7.175   4.305  0.3047 -1.5846 -0.3417
  109SAPE  C31111319   2.085   7.274   4.442 -0.3464 -0.3409 -0.1185
  109SAPE  H11X11320   2.019   7.363   4.440  0.4414  0.4519  3.1998
  109SAPE  H11Y11321   2.192   7.302   4.448 -0.0785 -0.5906 -2.5865
  109SAPE  C31211322   2.045   7.204   4.569 -0.0850  0.8012  0.5544
  109SAPE  H12X11323   2.108   7.113   4.582  0.7412  1.5293  1.8150
  109SAPE  H12Y11324   1.941   7.168   4.548  0.4160  0.6528 -2.0129
  109SAPE  C31311325   2.056   7.296   4.697 -0.0957 -0.2620 -0.0045
  109SAPE  H13X11326   1.995   7.385   4.670  0.3646  0.5095  1.4277
  109SAPE  H13Y11327   2.161   7.331   4.702 -0.2746  0.2655  0.1339
  109SAPE  C31411328   2.006   7.228   4.830 -0.5112  0.6495  0.5574
  109SAPE  H14X11329   2.073   7.141   4.851  0.3920  0.0994 -3.6873
  109SAPE  H14Y11330   1.906   7.183   4.815 -0.0896  0.5199 -2.5509
  109SAPE  C31511331   1.996   7.330   4.946 -0.7165  0.1298  0.6559
  109SAPE  H15X11332   2.099   7.363   4.973 -1.1913  2.5297 -0.2887
  109SAPE  H15Y11333   1.956   7.282   5.038 -1.0652 -0.6037  0.1279
  109SAPE  C31611334   1.898   7.446   4.930 -0.4686 -0.4947  0.0972
  109SAPE  H16X11335   1.804   7.419   4.878  0.2958 -0.0094 -1.6213
  109SAPE  H16Y11336   1.946   7.528   4.872  1.0577 -0.8593  0.7997
  109SAPE  C31711337   1.864   7.515   5.062 -0.8373 -0.8980  0.2070
  109SAPE  H17X11338   1.867   7.431   5.135  1.0877 -0.1628  1.0388
  109SAPE  H17Y11339   1.763   7.560   5.074 -1.2112 -1.6797  0.0578
  109SAPE  C31811340   1.967   7.622   5.096  0.0505 -0.3497  0.3461
  109SAPE  H18X11341   1.931   7.678   5.186 -2.8117 -1.3064 -0.0848
  109SAPE  H18Y11342   1.968   7.703   5.020 -0.7461  0.2275  0.9174
  109SAPE  H18Z11343   2.068   7.578   5.104  0.3188  0.1024 -0.4371
  110SAPE     N11344   6.636   4.310   2.379 -0.5639 -0.1535  0.1699
  110SAPE   HN111345   6.602   4.338   2.285  2.2447  1.6482 -0.4354
  110SAPE   HN211346   6.561   4.290   2.448 -0.8813  1.5347  0.3427
  110SAPE   HN311347   6.679   4.398   2.415 -0.2194  0.2245 -1.1074
  110SAPE   C1211348   6.727   4.192   2.376 -0.4752 -0.2310 -0.1422
  110SAPE  H12A11349   6.674   4.105   2.333  1.2966 -0.1917 -2.5800
  110SAPE  H12B11350   6.760   4.164   2.478 -0.9348 -1.2237 -0.2538
  110SAPE   C1111351   6.855   4.227   2.303 -0.3989  0.0796 -0.1493
  110SAPE  H11A11352   6.832   4.237   2.195 -1.4786  1.3743  0.1683
  110SAPE  H11B11353   6.915   4.134   2.309 -2.9448 -1.8473 -2.0156
  110SAPE     P11354   7.043   4.346   2.440  0.4531  0.0675 -0.3638
  110SAPE   O1311355   7.115   4.224   2.423 -0.2924  1.1313 -0.2914
  110SAPE   O1411356   7.108   4.473   2.413  0.2082 -0.0818  0.0182
  110SAPE   O1211357   6.916   4.348   2.347  1.6219  0.2341 -0.1230
  110SAPE   O1111358   6.976   4.361   2.585  0.4576  0.5256  0.6171
  110SAPE    C111359   7.011   4.287   2.699  0.2725 -0.0968  0.1556
  110SAPE    HA11360   6.919   4.235   2.733  1.1709 -1.8188  0.0588
  110SAPE    HB11361   7.076   4.199   2.680  0.0315 -0.2795  0.1721
  110SAPE    C211362   7.069   4.372   2.824  0.7226 -0.5753  0.3600
  110SAPE    HS11363   7.175   4.400   2.810 -0.0503  2.9932  0.6542
  110SAPE   O2111364   7.055   4.291   2.942  0.2404 -0.1055  0.3723
  110SAPE   C2111365   7.138   4.192   2.954 -0.5837  0.3226 -0.9531
  110SAPE   O2211366   7.232   4.164   2.874 -0.2582 -0.0147 -0.0052
  110SAPE   C2211367   7.114   4.122   3.086 -0.2449  0.0839 -0.3255
  110SAPE   H2R11368   7.103   4.204   3.159 -1.4891 -1.5732  1.4430
  110SAPE   H2S11369   7.015   4.074   3.077 -0.1623 -0.0535 -0.5232
  110SAPE    C311370   6.994   4.512   2.843  0.5589 -0.6230  0.0095
  110SAPE    HX11371   7.016   4.560   2.745 -0.2538  0.1091  0.1642
  110SAPE    HY11372   6.883   4.506   2.854  0.5303  1.4093  1.2572
  110SAPE   O3111373   7.060   4.589   2.955  0.2686 -0.1329  0.4970
  110SAPE   C3111374   7.014   4.564   3.074  0.5805  0.1028 -0.0150
  110SAPE   O3211375   6.913   4.498   3.094  0.1609  0.3956  0.1325
  110SAPE   C3211376   7.099   4.632   3.183 -0.6799 -0.2210 -0.7830
  110SAPE   H2X11377   7.089   4.741   3.167  0.6828  0.5754  2.9048
  110SAPE   H2Y11378   7.206   4.614   3.156  0.4603  2.9189  1.1451
  110SAPE   C2311379   7.243   4.049   3.139  0.7055  0.4055  0.6943
  110SAPE   H3R11380   7.335   4.112   3.141  0.9094  0.1050  3.2126
  110SAPE   H3S11381   7.258   3.960   3.074  0.0791  0.9907 -0.2925
  110SAPE   C2411382   7.235   4.003   3.285 -0.2535  0.4466  0.0567
  110SAPE   H4R11383   7.139   3.951   3.307 -0.1345  0.7839  1.4821
  110SAPE   H4S11384   7.237   4.096   3.345 -1.8372 -0.2261  1.2091
  110SAPE   C2511385   7.352   3.911   3.323  0.2830  0.3839  0.4186
  110SAPE   H5R11386   7.395   3.864   3.234 -0.2537 -1.6909  1.1853
  110SAPE   C2611387   7.405   3.895   3.445 -0.1794  0.2859 -0.3292
  110SAPE   H6R11388   7.480   3.816   3.462 -0.9725 -0.1660  1.1874
  110SAPE   C2711389   7.356   3.966   3.566 -0.0195 -0.2400 -0.3556
  110SAPE   H7R11390   7.285   3.908   3.627 -1.9235  2.3916  0.0900
  110SAPE   H7S11391   7.294   4.053   3.534 -0.2365  0.4069  1.7114
  110SAPE   C2811392   7.469   4.032   3.644  0.8949 -0.2749 -0.4969
  110SAPE   H8R11393   7.525   4.116   3.599  1.1987  0.0405  0.4567
  110SAPE   C2911394   7.491   4.023   3.777 -0.3217 -0.6603 -0.6336
  110SAPE   H9R11395   7.588   4.064   3.808 -0.8933  0.6327 -0.4953
  110SAPE  C21011396   7.432   3.939   3.887  0.1758  0.0789  0.2143
  110SAPE  H10R11397   7.336   3.889   3.863  0.3520  0.1077 -0.5661
  110SAPE  H10S11398   7.430   4.002   3.979  0.7120 -0.6414  0.7341
  110SAPE  C21111399   7.517   3.824   3.936 -0.0203 -0.1110 -0.2888
  110SAPE  H11R11400   7.614   3.801   3.889  0.4256 -0.3671  0.7354
  110SAPE  C21211401   7.493   3.756   4.053  0.0649  0.0893  0.0086
  110SAPE  H12R11402   7.567   3.678   4.073  0.5982  0.3447 -0.9430
  110SAPE  C21311403   7.362   3.777   4.136 -0.4541 -0.5158 -0.4941
  110SAPE  H13R11404   7.332   3.883   4.128 -0.6439 -0.4645  0.7343
  110SAPE  H13S11405   7.389   3.765   4.243  0.6748  0.1341 -0.6864
  110SAPE  C21411406   7.254   3.686   4.080  0.3120 -1.2489  0.0439
  110SAPE  H14R11407   7.207   3.701   3.981 -1.0572 -1.9830  0.5701
  110SAPE  C21511408   7.192   3.588   4.155  0.4303 -0.5900  0.3145
  110SAPE  H15R11409   7.131   3.511   4.107 -1.1908  1.3464 -0.8855
  110SAPE  C21611410   7.212   3.560   4.299 -0.5256 -0.6723 -0.1712
  110SAPE  H16R11411   7.319   3.582   4.318 -0.6023  0.6227 -1.0746
  110SAPE  H16S11412   7.205   3.451   4.318 -2.0405 -0.3444  1.4504
  110SAPE  C21711413   7.116   3.639   4.389  0.5004  0.0393 -0.4118
  110SAPE  H17R11414   7.038   3.559   4.393  1.3214 -0.7836 -0.4428
  110SAPE  H17S11415   7.086   3.737   4.347  0.8086  0.3756  0.1494
  110SAPE  C21811416   7.173   3.662   4.527  0.2410  0.5398 -0.1978
  110SAPE  H18R11417   7.234   3.755   4.530 -1.1154  1.6477 -3.4317
  110SAPE  H18S11418   7.240   3.576   4.548  0.5268  0.1794 -2.3736
  110SAPE  C21911419   7.054   3.682   4.623  0.9247 -0.2110  0.3285
  110SAPE  H19R11420   6.974   3.611   4.595 -0.2838  1.2135  0.0706
  110SAPE  H19S11421   7.014   3.785   4.609 -1.4835 -1.2614 -1.2282
  110SAPE  C22011422   7.089   3.659   4.767 -0.0151 -0.1535 -0.8558
  110SAPE  H20R11423   7.132   3.558   4.782  0.6525  0.0988 -1.0565
  110SAPE  H20S11424   6.997   3.656   4.831 -0.8929  1.9832 -1.9166
  110SAPE  H20T11425   7.164   3.728   4.812 -0.6532 -0.2214  0.3742
  110SAPE   C3311426   7.069   4.587   3.330 -0.4760  0.2746  0.5570
  110SAPE   H3X11427   7.148   4.619   3.401  0.0724  1.8964 -0.7386
  110SAPE   H3Y11428   7.058   4.476   3.333  0.8546  0.0979 -0.6653
  110SAPE   C3411429   6.939   4.656   3.371  0.0952 -0.1289  0.3549
  110SAPE   H4X11430   6.857   4.643   3.298  1.4170  1.5719 -1.5500
  110SAPE   H4Y11431   6.952   4.766   3.379 -0.5634  0.0346 -0.6197
  110SAPE   C3511432   6.900   4.603   3.508 -0.3079  0.8548 -0.2466
  110SAPE   H5X11433   6.888   4.494   3.492  3.0218  0.4739 -0.9286
  110SAPE   H5Y11434   6.807   4.655   3.540 -0.6488  0.8430 -1.1857
  110SAPE   C3611435   6.997   4.621   3.628 -0.0539 -0.4863  0.5284
  110SAPE   H6X11436   7.041   4.723   3.620  1.3956 -1.1364 -0.1308
  110SAPE   H6Y11437   7.085   4.554   3.617  0.3481  0.2090 -0.7611
  110SAPE   C3711438   6.929   4.613   3.758 -0.5767  0.2747 -0.6646
  110SAPE   H7X11439   6.886   4.511   3.750  0.2420 -0.0092 -1.6379
  110SAPE   H7Y11440   6.841   4.679   3.772 -0.8341  0.0407 -1.1603
  110SAPE   C3811441   7.034   4.619   3.876  0.3538  0.3676 -0.2004
  110SAPE   H8X11442   7.072   4.723   3.880  1.2123  0.0407  0.5108
  110SAPE   H8Y11443   7.120   4.553   3.856  1.6655  1.3072  1.9674
  110SAPE   C3911444   6.988   4.576   4.014  0.0326 -0.3698 -0.2303
  110SAPE   H9X11445   6.972   4.467   4.009 -0.4212 -0.3800  1.0580
  110SAPE   H9Y11446   6.894   4.635   4.019  0.9150  1.5335 -3.3382
  110SAPE  C31011447   7.096   4.606   4.127 -0.4295 -0.6175  0.6714
  110SAPE  H10X11448   7.164   4.685   4.088 -0.8354 -1.5218 -2.0971
  110SAPE  H10Y11449   7.150   4.512   4.151 -0.2198  0.0191  2.9236
  110SAPE  C31111450   7.030   4.652   4.258  0.3138 -0.0044 -0.0661
  110SAPE  H11X11451   6.971   4.577   4.315  3.1631 -1.7029  0.8143
  110SAPE  H11Y11452   6.945   4.717   4.228  0.5027 -0.3826 -1.5472
  110SAPE  C31211453   7.126   4.733   4.354  0.2520 -0.1420  0.0448
  110SAPE  H12X11454   7.070   4.820   4.395 -0.5974  0.7501 -2.7818
  110SAPE  H12Y11455   7.211   4.765   4.290  0.1398 -0.8803 -0.4824
  110SAPE  C31311456   7.200   4.638   4.451  0.4127  0.3800  0.7294
  110SAPE  H13X11457   7.257   4.562   4.394 -2.4150 -0.9275 -0.5591
  110SAPE  H13Y11458   7.131   4.578   4.514  1.0317 -2.3810 -1.0664
  110SAPE  C31411459   7.303   4.715   4.533  0.3287  0.7506 -0.1223
  110SAPE  H14X11460   7.250   4.812   4.544 -1.8203 -0.4354  0.5156
  110SAPE  H14Y11461   7.394   4.743   4.476 -0.2926  0.8212 -1.0920
  110SAPE  C31511462   7.350   4.653   4.664 -0.5759 -0.2462  0.1881
  110SAPE  H15X11463   7.261   4.629   4.726  0.7850 -1.4686  1.7748
  110SAPE  H15Y11464   7.401   4.731   4.725  0.1104 -0.4980 -0.0543
  110SAPE  C31611465   7.428   4.524   4.655 -0.3595 -0.6464  0.3007
  110SAPE  H16X11466   7.509   4.539   4.580  0.1687  0.7909  1.1113
  110SAPE  H16Y11467   7.357   4.453   4.610  2.2811 -3.1910 -0.1341
  110SAPE  C31711468   7.490   4.472   4.782  0.2410  0.4402  0.4815
  110SAPE  H17X11469   7.407   4.475   4.855 -1.1076 -0.6998 -0.9263
  110SAPE  H17Y11470   7.578   4.529   4.819  1.1076 -0.8763  0.5239
  110SAPE  C31811471   7.535   4.327   4.777 -0.3910 -0.0001  0.4862
  110SAPE  H18X11472   7.606   4.316   4.692 -0.2081  1.0523  0.4908
  110SAPE  H18Y11473   7.448   4.259   4.770 -1.0971  0.9470 -0.1694
  110SAPE  H18Z11474   7.584   4.306   4.874 -0.0088 -0.6740  0.1602
  111SAPE     N11475   1.537   6.863   2.744 -0.7823  0.4282  0.1238
  111SAPE   HN111476   1.498   6.880   2.839  1.5103 -2.1964  1.6974
  111SAPE   HN211477   1.635   6.893   2.757 -0.9761  0.9987  0.2889
  111SAPE   HN311478   1.489   6.927   2.677  1.8725 -0.2902 -2.6853
  111SAPE   C1211479   1.517   6.715   2.719  0.0433 -0.2255 -0.0837
  111SAPE  H12A11480   1.562   6.682   2.623  0.2316 -1.4388  0.4034
  111SAPE  H12B11481   1.409   6.690   2.711 -0.1830  0.3333  1.0025
  111SAPE   C1111482   1.585   6.635   2.834 -0.0842  0.1925 -0.0606
  111SAPE  H11A11483   1.581   6.527   2.805 -0.4647 -0.0848  1.0003
  111SAPE  H11B11484   1.534   6.649   2.931  2.4406  1.3289  1.2022
  111SAPE     P11485   1.846   6.610   2.783 -0.3008  0.0938  0.0725
  111SAPE   O1311486   1.787   6.531   2.669 -0.3298 -0.2099 -0.1562
  111SAPE   O1411487   1.937   6.720   2.744  0.0635 -0.1762 -0.3053
  111SAPE   O1211488   1.722   6.672   2.864  0.0290 -0.0725  0.1755
  111SAPE   O1111489   1.920   6.519   2.891  0.3981  0.3131 -0.5853
  111SAPE    C111490   1.985   6.589   3.003  0.0847 -0.5975  0.1095
  111SAPE    HA11491   2.094   6.593   2.983 -0.0593  0.9396 -0.4952
  111SAPE    HB11492   1.957   6.695   3.019 -0.3940 -0.9609  1.9184
  111SAPE    C211493   1.955   6.521   3.138 -0.5137 -0.1578 -0.2317
  111SAPE    HS11494   1.863   6.572   3.172 -0.3571  1.0845 -1.5624
  111SAPE   O2111495   2.069   6.533   3.227  0.0596 -0.2720  0.0960
  111SAPE   C2111496   2.036   6.579   3.343  0.5193 -0.4019  0.6453
  111SAPE   O2211497   1.924   6.580   3.387  0.0756  0.9444 -0.1634
  111SAPE   C2211498   2.154   6.640   3.416  0.2546  0.2063 -0.1867
  111SAPE   H2R11499   2.138   6.608   3.521 -2.3118 -4.4680 -1.7066
  111SAPE   H2S11500   2.250   6.595   3.381 -0.5485 -2.6504  0.9916
  111SAPE    C311501   1.919   6.372   3.121 -0.5479 -0.3343  0.2487
  111SAPE    HX11502   1.992   6.320   3.057 -2.9868 -0.6685 -2.4687
  111SAPE    HY11503   1.837   6.355   3.048 -2.2745 -1.2500  2.2803
  111SAPE   O3111504   1.890   6.307   3.241 -0.2884 -0.2474 -0.6794
  111SAPE   C3111505   1.770   6.323   3.300 -0.1062 -0.0211 -0.2879
  111SAPE   O3211506   1.677   6.388   3.254  0.0113 -0.0788 -0.2666
  111SAPE   C3211507   1.759   6.228   3.420 -0.6433  0.2016 -0.2539
  111SAPE   H2X11508   1.821   6.141   3.389 -0.8397 -0.0590  0.0849
  111SAPE   H2Y11509   1.657   6.188   3.437  0.0258 -1.1227  0.8108
  111SAPE   C2311510   2.147   6.793   3.402  0.8489 -0.1746 -0.4183
  111SAPE   H3R11511   2.045   6.828   3.431  0.9350  1.2894 -1.7317
  111SAPE   H3S11512   2.161   6.829   3.298  0.2653  1.9315  0.1821
  111SAPE   C2411513   2.248   6.874   3.485  0.5781  0.1963 -0.1737
  111SAPE   H4R11514   2.212   6.858   3.588 -2.7169  1.2811 -1.0235
  111SAPE   H4S11515   2.234   6.983   3.470  2.6980  0.6424  0.7772
  111SAPE   C2511516   2.398   6.854   3.455 -0.4214  0.2334  0.4964
  111SAPE   H5R11517   2.436   6.886   3.358  0.4334  0.5667  0.9306
  111SAPE   C2611518   2.493   6.806   3.543 -0.4175 -0.3991  0.2321
  111SAPE   H6R11519   2.594   6.788   3.503 -0.9174 -0.1361 -1.2347
  111SAPE   C2711520   2.477   6.765   3.692  0.1987  0.2524  0.5150
  111SAPE   H7R11521   2.569   6.708   3.717  0.5748  0.7201  0.2200
  111SAPE   H7S11522   2.385   6.704   3.702  0.2691  0.1992  0.8506
  111SAPE   C2811523   2.452   6.890   3.779 -0.1278  0.2855 -0.5352
  111SAPE   H8R11524   2.398   6.973   3.733  1.4007  1.1497 -0.8359
  111SAPE   C2911525   2.495   6.903   3.911  0.3519 -0.6153 -0.4745
  111SAPE   H9R11526   2.470   6.995   3.966  2.0723 -0.5528  0.2528
  111SAPE  C21011527   2.578   6.794   3.989  0.2358  0.2597  0.7793
  111SAPE  H10R11528   2.670   6.849   4.019 -0.0463  1.3834 -0.3542
  111SAPE  H10S11529   2.609   6.710   3.923  1.0091  0.6113  0.6918
  111SAPE  C21111530   2.513   6.732   4.108  0.2705 -0.4834  0.0911
  111SAPE  H11R11531   2.437   6.658   4.079 -0.0832  0.4768 -1.5880
  111SAPE  C21211532   2.521   6.760   4.237  0.5069  0.5345  0.6146
  111SAPE  H12R11533   2.463   6.691   4.301  1.9301 -0.2979  1.0475
  111SAPE  C21311534   2.600   6.869   4.315 -0.2391  0.0698  0.5828
  111SAPE  H13R11535   2.678   6.913   4.249  0.1455  1.0572  1.6659
  111SAPE  H13S11536   2.651   6.823   4.402  3.2166  1.4775 -0.5162
  111SAPE  C21411537   2.502   6.981   4.350 -0.0096  0.7252  0.6333
  111SAPE  H14R11538   2.499   7.049   4.264  1.8885 -0.6058 -0.5610
  111SAPE  C21511539   2.435   7.012   4.465  0.6274 -0.0851 -0.1200
  111SAPE  H15R11540   2.366   7.097   4.462 -0.1325 -0.4241  3.1575
  111SAPE  C21611541   2.432   6.935   4.594  0.4238 -0.3788  0.2909
  111SAPE  H16R11542   2.504   6.851   4.578  1.4106  0.8989 -2.6076
  111SAPE  H16S11543   2.335   6.884   4.607 -0.8820  2.1615  1.1989
  111SAPE  C21711544   2.462   7.026   4.707  0.2997 -1.4353  0.9731
  111SAPE  H17R11545   2.405   7.122   4.699  0.0951 -1.6391 -0.0570
  111SAPE  H17S11546   2.568   7.057   4.706 -0.9113  3.5492  0.3408
  111SAPE  C21811547   2.403   6.975   4.842 -0.0833 -0.7758  0.9654
  111SAPE  H18R11548   2.466   6.890   4.875  0.2656 -0.5056  1.0119
  111SAPE  H18S11549   2.311   6.917   4.821  1.6233 -3.0982 -0.7019
  111SAPE  C21911550   2.385   7.083   4.952  0.2720  0.4595 -0.0905
  111SAPE  H19R11551   2.280   7.117   4.936 -0.4704 -1.4563  0.3819
  111SAPE  H19S11552   2.450   7.167   4.922 -0.0978  0.4424 -0.9727
  111SAPE  C22011553   2.386   7.044   5.101 -0.6546 -0.0177  0.1972
  111SAPE  H20R11554   2.344   6.942   5.115 -3.1979  0.6014 -1.9696
  111SAPE  H20S11555   2.327   7.115   5.162 -0.2663 -0.3673  0.9957
  111SAPE  H20T11556   2.485   7.048   5.150 -1.5810  1.1130  2.1160
  111SAPE   C3311557   1.823   6.299   3.536  0.7397 -0.0115 -0.1168
  111SAPE   H3X11558   1.912   6.362   3.513  1.5539 -1.9154 -2.4948
  111SAPE   H3Y11559   1.851   6.220   3.609  2.0840 -0.3535 -0.9733
  111SAPE   C3411560   1.722   6.392   3.617 -0.4926  0.8527  0.7121
  111SAPE   H4X11561   1.627   6.336   3.635 -0.4880  0.9677  1.0962
  111SAPE   H4Y11562   1.701   6.470   3.540  2.1117 -0.5112 -1.5533
  111SAPE   C3511563   1.781   6.453   3.744 -0.3539  0.0441 -0.5701
  111SAPE   H5X11564   1.824   6.370   3.804 -0.7913 -1.7744 -2.6508
  111SAPE   H5Y11565   1.699   6.496   3.806 -0.6721  0.6517 -1.4111
  111SAPE   C3611566   1.890   6.555   3.724 -0.8978 -0.5001  0.6944
  111SAPE   H6X11567   1.838   6.643   3.681  0.3913  0.7653  1.6331
  111SAPE   H6Y11568   1.979   6.522   3.665 -0.3388 -1.6806  2.1503
  111SAPE   C3711569   1.945   6.609   3.859  0.0496  0.0070 -0.2782
  111SAPE   H7X11570   1.994   6.526   3.915 -0.7226  0.1724  0.6633
  111SAPE   H7Y11571   1.861   6.655   3.915 -0.4432 -2.1300  0.8515
  111SAPE   C3811572   2.051   6.718   3.847  0.8941  0.4861 -0.7822
  111SAPE   H8X11573   2.024   6.778   3.758  0.3367  0.9024 -0.3338
  111SAPE   H8Y11574   2.143   6.662   3.820  0.8458  0.2263 -0.4025
  111SAPE   C3911575   2.088   6.812   3.963 -0.5056  0.4752  0.6631
  111SAPE   H9X11576   1.997   6.869   3.987 -0.0604  0.5712  2.2109
  111SAPE   H9Y11577   2.163   6.886   3.927  0.1034 -1.2746 -2.0264
  111SAPE  C31011578   2.115   6.732   4.087 -0.1591 -0.3743  0.0497
  111SAPE  H10X11579   2.210   6.676   4.073 -1.2731 -2.1088 -0.8458
  111SAPE  H10Y11580   2.042   6.649   4.097  0.6471 -1.2214 -0.8470
  111SAPE  C31111581   2.106   6.829   4.203 -0.4759  0.5497  0.2773
  111SAPE  H11X11582   2.008   6.881   4.195 -0.0902  1.1326 -0.8814
  111SAPE  H11Y11583   2.195   6.892   4.186  1.5382 -2.3114 -0.5630
  111SAPE  C31211584   2.125   6.760   4.344 -0.3667 -0.9200  0.2504
  111SAPE  H12X11585   2.191   6.822   4.408  0.0469 -0.5106 -0.5558
  111SAPE  H12Y11586   2.177   6.663   4.337  0.2233 -0.6848  1.2243
  111SAPE  C31311587   1.990   6.751   4.418 -0.1916  0.5960  0.3410
  111SAPE  H13X11588   1.915   6.694   4.359 -1.3214  0.9573  1.3991
  111SAPE  H13Y11589   1.950   6.852   4.442 -0.6509 -0.0805  2.6173
  111SAPE  C31411590   1.996   6.684   4.556 -0.2043  0.3280 -0.9232
  111SAPE  H14X11591   2.076   6.737   4.611 -1.5666  0.3339  1.1844
  111SAPE  H14Y11592   2.030   6.578   4.543  0.9951  0.5763  0.0259
  111SAPE  C31511593   1.867   6.697   4.639 -0.1296 -0.5467 -0.1417
  111SAPE  H15X11594   1.784   6.651   4.581 -0.0332 -0.3767 -0.4175
  111SAPE  H15Y11595   1.829   6.801   4.654 -1.2372 -1.1939  1.9998
  111SAPE  C31611596   1.891   6.639   4.781 -0.1351 -0.3522 -0.2188
  111SAPE  H16X11597   1.962   6.697   4.844 -1.8909 -1.3980  2.9917
  111SAPE  H16Y11598   1.924   6.533   4.783  0.1734 -0.2704  2.0563
  111SAPE  C31711599   1.759   6.649   4.856  0.3218 -0.2376  0.1544
  111SAPE  H17X11600   1.682   6.584   4.810  1.0934 -0.1602 -1.2864
  111SAPE  H17Y11601   1.729   6.755   4.840  2.7967  0.2795 -1.4870
  111SAPE  C31811602   1.771   6.619   5.003 -0.0424 -1.0247  0.2034
  111SAPE  H18X11603   1.793   6.512   5.023  0.3817 -0.6431  2.0006
  111SAPE  H18Y11604   1.685   6.653   5.063  0.4800 -0.4497  0.6421
  111SAPE  H18Z11605   1.858   6.674   5.047 -1.2064 -0.5540  2.0200
  112SAPE     N11606   4.570   6.681   2.455 -0.7064  0.0426 -0.2627
  112SAPE   HN111607   4.542   6.763   2.513  1.0539  0.0501  0.6719
  112SAPE   HN211608   4.539   6.697   2.357  3.0870  1.6721 -1.3932
  112SAPE   HN311609   4.510   6.605   2.492  0.5820 -0.3886  1.0631
  112SAPE   C1211610   4.715   6.634   2.489  0.8328 -0.7266 -0.8482
  112SAPE  H12A11611   4.776   6.722   2.520 -0.3286  0.8515 -2.8111
  112SAPE  H12B11612   4.762   6.590   2.398 -1.7488 -1.4126 -1.9268
  112SAPE   C1111613   4.698   6.530   2.600  0.3360  0.2558 -0.3539
  112SAPE  H11A11614   4.642   6.570   2.688  3.3101  0.5037  1.5888
  112SAPE  H11B11615   4.794   6.506   2.649  1.2725  0.7682 -1.8911
  112SAPE     P11616   4.571   6.310   2.649  0.5438 -0.0930 -0.1912
  112SAPE   O1311617   4.430   6.342   2.628 -0.1946  0.6172 -0.5339
  112SAPE   O1411618   4.614   6.177   2.622 -0.2145  0.8172  0.0312
  112SAPE   O1211619   4.652   6.407   2.548  0.7698 -0.0516  0.1596
  112SAPE   O1111620   4.612   6.353   2.795 -0.4418  0.1167 -0.1301
  112SAPE    C111621   4.741   6.309   2.847  0.5932  0.1170 -0.4618
  112SAPE    HA11622   4.737   6.199   2.860 -0.0860  0.1626 -0.2040
  112SAPE    HB11623   4.827   6.350   2.791  1.0874 -0.3028 -0.0140
  112SAPE    C211624   4.764   6.358   2.998  0.8126 -0.0736  0.6955
  112SAPE    HS11625   4.855   6.309   3.038 -0.2802 -2.1046  0.8417
  112SAPE   O2111626   4.649   6.314   3.086 -0.2588 -0.3413  0.5949
  112SAPE   C2111627   4.669   6.195   3.136  0.0566  0.2812  0.4494
  112SAPE   O2211628   4.772   6.128   3.122  0.0167  0.1326  0.5113
  112SAPE   C2211629   4.544   6.160   3.222  0.1089 -0.2633 -0.3377
  112SAPE   H2R11630   4.492   6.249   3.263 -1.3566 -0.8703 -0.8437
  112SAPE   H2S11631   4.482   6.102   3.150 -0.9851  0.0131  0.3772
  112SAPE    C311632   4.767   6.509   3.004  0.3212  0.7459 -0.1185
  112SAPE    HX11633   4.771   6.529   3.113 -1.0453 -1.8630  0.5158
  112SAPE    HY11634   4.671   6.539   2.958 -0.3552 -2.0212 -0.7155
  112SAPE   O3111635   4.888   6.549   2.935  0.5402 -0.1454  0.3027
  112SAPE   C3111636   5.001   6.555   3.002  0.5321  0.7400  0.0770
  112SAPE   O3211637   5.010   6.522   3.122  0.0725 -0.6529  0.9985
  112SAPE   C3211638   5.114   6.602   2.907 -0.6323  0.2459 -0.3457
  112SAPE   H2X11639   5.087   6.706   2.879 -0.5457  0.4866  0.4345
  112SAPE   H2Y11640   5.097   6.539   2.817 -2.8812  1.6673 -1.0040
  112SAPE   C2311641   4.577   6.063   3.339 -1.0248  0.0180 -0.2586
  112SAPE   H3R11642   4.625   6.107   3.429 -0.1815 -1.1005 -0.1481
  112SAPE   H3S11643   4.639   5.978   3.306 -0.8957  0.1869 -0.4540
  112SAPE   C2411644   4.444   5.996   3.386  0.3567 -1.0620  0.2100
  112SAPE   H4R11645   4.468   5.907   3.447 -1.9719 -0.6874  1.8085
  112SAPE   H4S11646   4.391   5.965   3.293 -0.3599 -1.5093  0.7623
  112SAPE   C2511647   4.354   6.095   3.465 -0.3093  0.2776  0.3747
  112SAPE   H5R11648   4.322   6.179   3.402  1.6358  2.3870  2.0399
  112SAPE   C2611649   4.329   6.080   3.594 -0.2794 -0.3380  0.0442
  112SAPE   H6R11650   4.261   6.157   3.634 -0.4088  0.5117 -1.6761
  112SAPE   C2711651   4.368   5.968   3.686  0.8445  0.1527 -0.2561
  112SAPE   H7R11652   4.351   5.868   3.641  0.7948  0.1870 -0.3138
  112SAPE   H7S11653   4.309   5.981   3.779  1.0484 -0.1056 -0.0913
  112SAPE   C2811654   4.510   5.972   3.720 -0.6090  0.6037 -0.0714
  112SAPE   H8R11655   4.576   5.919   3.648  0.5016  2.1777 -0.2672
  112SAPE   C2911656   4.578   6.012   3.833 -0.5573  0.0304 -0.3057
  112SAPE   H9R11657   4.685   5.991   3.842 -0.4694  0.3726 -0.5142
  112SAPE  C21011658   4.521   6.073   3.958 -0.0104 -0.5912 -0.2596
  112SAPE  H10R11659   4.453   6.152   3.919  0.0002 -0.2333  0.4378
  112SAPE  H10S11660   4.594   6.128   4.020 -0.6205  2.5248 -2.0593
  112SAPE  C21111661   4.446   5.976   4.043 -0.1749 -0.2410 -0.3279
  112SAPE  H11R11662   4.428   5.874   4.005 -0.1713  0.3541 -1.9917
  112SAPE  C21211663   4.399   6.011   4.168  0.0835  0.1631  0.0707
  112SAPE  H12R11664   4.345   5.937   4.229  0.0474 -0.0428 -0.2077
  112SAPE  C21311665   4.411   6.157   4.224 -0.0304  0.5120 -0.3962
  112SAPE  H13R11666   4.312   6.191   4.261  0.7834  1.7402  0.7480
  112SAPE  H13S11667   4.427   6.224   4.137  0.1336 -0.2030 -0.9271
  112SAPE  C21411668   4.524   6.179   4.320 -0.0462  0.1703  0.1815
  112SAPE  H14R11669   4.628   6.180   4.285 -0.1600 -0.0062 -0.1769
  112SAPE  C21511670   4.499   6.217   4.449 -0.7561 -0.1135 -0.4960
  112SAPE  H15R11671   4.585   6.222   4.517 -1.2374  0.1378  0.1013
  112SAPE  C21611672   4.373   6.213   4.522 -0.3967 -0.3343 -0.1466
  112SAPE  H16R11673   4.356   6.108   4.552 -0.7222  0.0283  0.9818
  112SAPE  H16S11674   4.292   6.252   4.456 -2.9071 -0.0589  2.8564
  112SAPE  C21711675   4.365   6.293   4.652  0.0743 -0.2788 -0.5484
  112SAPE  H17R11676   4.257   6.295   4.680 -0.0168 -2.7724 -0.5046
  112SAPE  H17S11677   4.397   6.398   4.640 -2.5030  1.1937  3.2716
  112SAPE  C21811678   4.445   6.229   4.764  0.4710 -0.8656  0.1463
  112SAPE  H18R11679   4.554   6.248   4.759  0.6811 -1.6676  1.2554
  112SAPE  H18S11680   4.437   6.118   4.765  0.7075 -0.8896  1.3995
  112SAPE  C21911681   4.382   6.263   4.904  0.0555 -0.3994  0.2439
  112SAPE  H19R11682   4.274   6.239   4.890 -0.8727  2.7625  1.0488
  112SAPE  H19S11683   4.381   6.372   4.924  1.5921 -0.0666 -1.2905
  112SAPE  C22011684   4.430   6.178   5.020  0.2105 -0.5555 -0.6563
  112SAPE  H20R11685   4.538   6.168   4.998  0.6422 -0.9483  1.4875
  112SAPE  H20S11686   4.394   6.073   5.025  0.3793 -0.5673  0.2967
  112SAPE  H20T11687   4.419   6.227   5.119 -0.5197 -1.1156 -0.4513
  112SAPE   C3311688   5.257   6.589   2.954 -1.3733  0.2160 -0.6115
  112SAPE   H3X11689   5.315   6.621   2.865  2.3978  0.1963  1.6374
  112SAPE   H3Y11690   5.288   6.487   2.987 -1.2365  1.0589  2.0867
  112SAPE   C3411691   5.301   6.694   3.061  0.1396 -0.0304 -0.1109
  112SAPE   H4X11692   5.241   6.685   3.154  0.7986  1.6629  0.5147
  112SAPE   H4Y11693   5.276   6.795   3.021  1.2024  0.3837  0.2318
  112SAPE   C3511694   5.451   6.685   3.098  0.4448 -0.0064  0.1293
  112SAPE   H5X11695   5.509   6.726   3.012 -0.5437  2.7848  0.6662
  112SAPE   H5Y11696   5.479   6.579   3.115  0.5361 -0.0188 -0.0898
  112SAPE   C3611697   5.482   6.777   3.219 -0.0521 -0.0818 -0.3008
  112SAPE   H6X11698   5.435   6.878   3.219  1.1256  0.4865 -0.8743
  112SAPE   H6Y11699   5.592   6.791   3.224  0.2462 -1.8045 -1.2539
  112SAPE   C3711700   5.443   6.700   3.348 -0.7583 -0.8914 -0.6542
  112SAPE   H7X11701   5.484   6.597   3.351  0.9611 -0.2159  0.1877
  112SAPE   H7Y11702   5.334   6.690   3.367 -0.4376 -0.9298  1.3475
  112SAPE   C3811703   5.508   6.769   3.477 -0.5788  0.0531  0.1793
  112SAPE   H8X11704   5.454   6.865   3.492 -2.2300 -1.3582  5.1364
  112SAPE   H8Y11705   5.614   6.796   3.457  0.1919  0.1376  3.7704
  112SAPE   C3911706   5.488   6.691   3.606  0.0923 -0.1863 -0.9146
  112SAPE   H9X11707   5.559   6.605   3.599  1.3691  0.2947  3.1114
  112SAPE   H9Y11708   5.388   6.644   3.617  0.0090  0.2823  0.6487
  112SAPE  C31011709   5.530   6.773   3.730  0.5730 -0.1952 -0.3079
  112SAPE  H10X11710   5.474   6.867   3.749  1.6671  0.5605 -0.6687
  112SAPE  H10Y11711   5.635   6.807   3.713  0.6815  1.2557  2.6243
  112SAPE  C31111712   5.513   6.699   3.860  0.2273  0.4021  0.1169
  112SAPE  H11X11713   5.553   6.595   3.864  0.2683  0.3196 -1.8399
  112SAPE  H11Y11714   5.404   6.685   3.877  0.7944 -1.1703  3.4418
  112SAPE  C31211715   5.571   6.779   3.979  0.0158 -0.2366 -0.1209
  112SAPE  H12X11716   5.516   6.874   3.964 -0.9313 -1.1639 -3.4471
  112SAPE  H12Y11717   5.679   6.799   3.959 -0.9261  3.3519 -2.6813
  112SAPE  C31311718   5.550   6.712   4.118 -0.3539 -0.3233 -0.7392
  112SAPE  H13X11719   5.634   6.640   4.131 -0.7552 -0.6731  0.0233
  112SAPE  H13Y11720   5.451   6.663   4.131 -0.4358  0.1496  0.6154
  112SAPE  C31411721   5.559   6.813   4.235  0.1866 -0.7415  0.3435
  112SAPE  H14X11722   5.481   6.890   4.222  0.0620 -1.0553 -0.8958
  112SAPE  H14Y11723   5.653   6.870   4.220 -1.7689  2.2777 -1.3319
  112SAPE  C31511724   5.541   6.765   4.379  0.3648 -0.1507 -0.6686
  112SAPE  H15X11725   5.444   6.713   4.393  0.0915  0.9835  2.3227
  112SAPE  H15Y11726   5.527   6.854   4.444  0.1201  0.2639 -1.2825
  112SAPE  C31611727   5.657   6.682   4.440  0.2228  0.3630 -0.0649
  112SAPE  H16X11728   5.755   6.729   4.413  2.3173 -1.9883  2.7863
  112SAPE  H16Y11729   5.659   6.582   4.391 -2.1249  0.1805  0.1279
  112SAPE  C31711730   5.655   6.681   4.592  0.3448  0.1992 -0.0292
  112SAPE  H17X11731   5.686   6.782   4.624  2.4272 -0.3094 -0.2557
  112SAPE  H17Y11732   5.726   6.602   4.625  2.2453  0.5032 -3.0443
  112SAPE  C31811733   5.513   6.666   4.660 -1.1114  0.3910 -0.1105
  112SAPE  H18X11734   5.538   6.674   4.768 -0.1052  0.5282 -0.3399
  112SAPE  H18Y11735   5.466   6.571   4.627  0.3711 -0.8830  1.2707
  112SAPE  H18Z11736   5.448   6.753   4.636  0.5161  1.7407  0.1404
  113SAPE     N11737   4.274   5.188   2.821  0.5815  0.2132  0.8376
  113SAPE   HN111738   4.362   5.244   2.809  0.4858  0.4116  1.0328
  113SAPE   HN211739   4.212   5.220   2.898 -0.6546  0.2916 -0.1702
  113SAPE   HN311740   4.289   5.086   2.825  2.1544  0.4042  0.8165
  113SAPE   C1211741   4.197   5.220   2.697  0.4275  0.2700 -0.5590
  113SAPE  H12A11742   4.091   5.199   2.726  1.2704 -0.7172  2.1249
  113SAPE  H12B11743   4.239   5.173   2.605 -2.0148  2.6254 -3.0795
  113SAPE   C1111744   4.204   5.376   2.673 -0.1448  0.5867  0.1369
  113SAPE  H11A11745   4.165   5.417   2.768 -0.9561 -0.7993  0.4216
  113SAPE  H11B11746   4.139   5.401   2.586 -1.5461 -1.4005  0.5431
  113SAPE     P11747   4.389   5.559   2.666  0.1189  0.0056  0.0308
  113SAPE   O1311748   4.538   5.575   2.638 -0.2831 -0.3842  0.0090
  113SAPE   O1411749   4.303   5.644   2.585  0.7903 -0.2363 -0.1337
  113SAPE   O1211750   4.343   5.411   2.650  0.3097 -0.0818  0.4483
  113SAPE   O1111751   4.359   5.574   2.819 -0.2077  0.0162  0.6229
  113SAPE    C111752   4.401   5.696   2.883  0.2396 -0.1844  0.4019
  113SAPE    HA11753   4.512   5.690   2.892  0.4078  0.2740 -1.1116
  113SAPE    HB11754   4.364   5.779   2.820 -0.9119 -1.4300 -0.6456
  113SAPE    C211755   4.341   5.708   3.023  0.8164 -0.7385  0.2321
  113SAPE    HS11756   4.364   5.809   3.061 -0.0155 -0.8324  1.0258
  113SAPE   O2111757   4.398   5.608   3.117 -0.2647 -0.1796  0.4300
  113SAPE   C2111758   4.516   5.645   3.166 -0.1796  0.2378 -0.5722
  113SAPE   O2211759   4.578   5.747   3.150  0.0883  0.4039 -0.7330
  113SAPE   C2211760   4.558   5.546   3.273  0.3181 -0.6236  0.6810
  113SAPE   H2R11761   4.500   5.452   3.259 -3.3896  1.4649  0.7724
  113SAPE   H2S11762   4.665   5.526   3.254 -0.0720 -0.7736 -1.6890
  113SAPE    C311763   4.186   5.698   3.022 -0.8647  0.4090  0.6411
  113SAPE    HX11764   4.169   5.602   2.968  1.4045  0.2425  0.1328
  113SAPE    HY11765   4.138   5.782   2.969 -1.5180 -1.2870 -1.6065
  113SAPE   O3111766   4.122   5.690   3.156  0.1624  0.2135  0.6581
  113SAPE   C3111767   4.112   5.806   3.221 -0.5125 -0.2482 -0.3269
  113SAPE   O3211768   4.162   5.915   3.202 -0.1963  0.6316  0.1136
  113SAPE   C3211769   4.029   5.776   3.348 -0.4242  0.0629 -0.4057
  113SAPE   H2X11770   4.056   5.675   3.385 -1.8683 -1.1813 -2.5289
  113SAPE   H2Y11771   3.925   5.771   3.308 -0.1207 -1.9440 -1.0306
  113SAPE   C2311772   4.548   5.603   3.408 -0.3687 -0.0483 -0.2716
  113SAPE   H3R11773   4.563   5.713   3.401 -2.4467  0.2171 -1.0670
  113SAPE   H3S11774   4.618   5.560   3.483 -0.6840  0.2930  0.2251
  113SAPE   C2411775   4.402   5.602   3.469 -0.7841 -0.4337  0.2136
  113SAPE   H4R11776   4.319   5.603   3.394 -0.8815 -1.4735  0.2832
  113SAPE   H4S11777   4.387   5.694   3.529  2.3178  0.3331 -0.0279
  113SAPE   C2511778   4.382   5.484   3.561  0.4981 -0.5196  0.5157
  113SAPE   H5R11779   4.363   5.387   3.512  0.1499  1.1436 -2.9913
  113SAPE   C2611780   4.390   5.494   3.692  0.0237 -0.4665 -0.8547
  113SAPE   H6R11781   4.371   5.400   3.747 -2.1507  0.7425  0.6477
  113SAPE   C2711782   4.405   5.610   3.785 -0.4832  0.0803  0.0843
  113SAPE   H7R11783   4.432   5.692   3.714 -0.0881 -1.3059 -1.4433
  113SAPE   H7S11784   4.495   5.612   3.849 -0.7346  0.0662  0.4376
  113SAPE   C2811785   4.290   5.648   3.874 -0.0201 -0.2705  0.3386
  113SAPE   H8R11786   4.195   5.658   3.819  0.1511 -2.0785 -0.3588
  113SAPE   C2911787   4.298   5.656   4.002  0.1032  0.0854  0.1026
  113SAPE   H9R11788   4.195   5.658   4.041 -2.1108 -2.2820 -4.7881
  113SAPE  C21011789   4.412   5.621   4.093  0.1638 -0.8461  0.4153
  113SAPE  H10R11790   4.465   5.716   4.115 -1.1894 -0.4474  2.1944
  113SAPE  H10S11791   4.478   5.550   4.039  0.7620  1.7178 -2.5212
  113SAPE  C21111792   4.361   5.562   4.225  0.3231 -0.5259 -0.1340
  113SAPE  H11R11793   4.263   5.512   4.223  0.8858 -1.6661 -0.0609
  113SAPE  C21211794   4.428   5.576   4.342  0.2370  0.9088  0.4531
  113SAPE  H12R11795   4.387   5.527   4.431  0.0372  0.8288  0.3195
  113SAPE  C21311796   4.554   5.666   4.373 -0.2400 -0.2357  0.2537
  113SAPE  H13R11797   4.611   5.696   4.283 -0.0604  2.4688  1.1803
  113SAPE  H13S11798   4.634   5.610   4.426 -1.2355  0.3286  2.4675
  113SAPE  C21411799   4.511   5.790   4.456 -0.2138  0.0072  0.0784
  113SAPE  H14R11800   4.522   5.888   4.409  1.0694  1.8999  3.9044
  113SAPE  C21511801   4.460   5.800   4.579  0.1713 -0.4649 -0.6632
  113SAPE  H15R11802   4.439   5.900   4.618  0.2249 -0.7940  0.2275
  113SAPE  C21611803   4.422   5.694   4.670 -0.6719 -0.5109  0.5975
  113SAPE  H16R11804   4.462   5.603   4.621  1.8307  0.4772  0.6451
  113SAPE  H16S11805   4.313   5.675   4.669 -0.8509  0.2698  2.2286
  113SAPE  C21711806   4.479   5.698   4.810 -0.8844 -0.4016  0.2886
  113SAPE  H17R11807   4.585   5.729   4.823 -1.2754 -0.0819  3.4942
  113SAPE  H17S11808   4.480   5.592   4.842  2.3274 -0.2786  1.0280
  113SAPE  C21811809   4.389   5.782   4.901  1.2093  0.1930  0.3065
  113SAPE  H18R11810   4.284   5.749   4.887  1.2619 -0.6767  1.7557
  113SAPE  H18S11811   4.410   5.888   4.878  2.0417  0.4569  2.0851
  113SAPE  C21911812   4.418   5.760   5.055  0.3713 -0.4736  0.5471
  113SAPE  H19R11813   4.374   5.659   5.072 -2.7848  0.7936  0.5407
  113SAPE  H19S11814   4.349   5.829   5.107  0.5345  2.1211 -2.3664
  113SAPE  C22011815   4.564   5.784   5.105  0.0277 -0.1054 -0.0654
  113SAPE  H20R11816   4.628   5.702   5.065 -2.4005 -2.6449  0.8802
  113SAPE  H20S11817   4.570   5.803   5.214 -2.2288  0.1840  0.0487
  113SAPE  H20T11818   4.593   5.882   5.061 -1.6215 -0.1224 -1.2985
  113SAPE   C3311819   4.028   5.879   3.461 -0.4343 -0.2261 -0.3093
  113SAPE   H3X11820   4.039   5.983   3.423 -3.0996  0.1227 -0.3411
  113SAPE   H3Y11821   4.118   5.854   3.522 -0.8971 -1.9052 -0.2640
  113SAPE   C3411822   3.906   5.873   3.551 -0.0106 -0.4232  0.9222
  113SAPE   H4X11823   3.872   5.769   3.567 -3.9421  0.6524  0.6164
  113SAPE   H4Y11824   3.828   5.926   3.491  1.2687  3.0409  2.0521
  113SAPE   C3511825   3.927   5.956   3.679 -0.5004  0.3981  0.1694
  113SAPE   H5X11826   3.942   6.062   3.652  0.5461 -0.1110 -1.3850
  113SAPE   H5Y11827   4.024   5.921   3.720 -0.0870  3.1244  1.6926
  113SAPE   C3611828   3.831   5.936   3.800  0.3018  0.5869 -0.0200
  113SAPE   H6X11829   3.802   5.830   3.782 -1.0197  0.5948  1.7264
  113SAPE   H6Y11830   3.740   5.999   3.793 -1.0377 -1.0902  1.2512
  113SAPE   C3711831   3.904   5.944   3.935 -0.1236  0.1768 -0.0891
  113SAPE   H7X11832   3.933   6.048   3.960  2.9271 -0.2426 -1.3973
  113SAPE   H7Y11833   3.996   5.882   3.938  2.2641  3.5010  1.4638
  113SAPE   C3811834   3.805   5.878   4.045  0.3221  0.6320 -0.4912
  113SAPE   H8X11835   3.748   5.961   4.091 -2.0630 -1.8492  1.4135
  113SAPE   H8Y11836   3.750   5.803   3.983  1.2187 -1.3871  1.0393
  113SAPE   C3911837   3.877   5.804   4.157 -0.2579 -0.6773  0.0055
  113SAPE   H9X11838   3.952   5.731   4.119  0.5090  0.6095 -1.0516
  113SAPE   H9Y11839   3.804   5.743   4.214 -0.0342 -1.9693 -1.0191
  113SAPE  C31011840   3.953   5.900   4.255  0.2725 -0.4281  0.5807
  113SAPE  H10X11841   3.879   5.965   4.306  2.4630  2.8911 -0.1075
  113SAPE  H10Y11842   4.009   5.981   4.202 -2.3924  0.5819 -0.8846
  113SAPE  C31111843   4.037   5.843   4.367  0.1443  0.4111  0.1799
  113SAPE  H11X11844   4.134   5.802   4.329 -0.1510 -1.0453  0.9131
  113SAPE  H11Y11845   3.982   5.758   4.413  0.3664 -0.3042 -0.8340
  113SAPE  C31211846   4.074   5.934   4.490 -1.1952  0.4330  0.9232
  113SAPE  H12X11847   4.103   6.034   4.451  0.6708 -0.8385 -1.2262
  113SAPE  H12Y11848   4.162   5.899   4.547 -2.5232 -1.4491  1.9208
  113SAPE  C31311849   3.961   5.944   4.593  0.3077  0.1375 -0.2284
  113SAPE  H13X11850   3.932   5.845   4.635 -2.5068  2.3719  3.7705
  113SAPE  H13Y11851   3.875   5.989   4.539 -1.8920 -2.4623  0.8495
  113SAPE  C31411852   4.006   6.020   4.719 -0.2388 -0.5948  0.1885
  113SAPE  H14X11853   4.063   6.112   4.696  2.9926 -1.9594  1.9730
  113SAPE  H14Y11854   4.073   5.955   4.780  0.6519 -1.0586 -1.2251
  113SAPE  C31511855   3.884   6.075   4.796  0.5887 -0.1459 -0.5013
  113SAPE  H15X11856   3.810   5.996   4.823  0.9012  0.5415  2.8763
  113SAPE  H15Y11857   3.827   6.144   4.730 -1.8733 -1.7164 -0.1633
  113SAPE  C31611858   3.910   6.138   4.935 -0.0271 -0.1105  0.3058
  113SAPE  H16X11859   3.817   6.190   4.966  1.3793  2.2940  0.7284
  113SAPE  H16Y11860   3.987   6.218   4.940 -0.9494  0.7164  2.5118
  113SAPE  C31711861   3.946   6.031   5.043 -0.1747  0.1128  0.5131
  113SAPE  H17X11862   4.034   5.966   5.024  0.1534  0.3015  1.3700
  113SAPE  H17Y11863   3.863   5.958   5.044  0.4851 -0.6504  1.2888
  113SAPE  C31811864   3.957   6.097   5.184 -0.8418 -0.4002  0.0052
  113SAPE  H18X11865   3.969   6.016   5.260 -2.5197 -1.9425 -1.2712
  113SAPE  H18Y11866   3.860   6.143   5.210 -0.4554  0.6510 -0.3496
  113SAPE  H18Z11867   4.035   6.175   5.186 -0.6731 -0.5556 -0.3352
  114SAPE     N11868   6.260   0.290   2.598 -0.1139  0.6128  0.0251
  114SAPE   HN111869   6.188   0.223   2.563 -0.6815  0.5996  1.1490
  114SAPE   HN211870   6.235   0.333   2.689  0.5879  0.6244  0.2176
  114SAPE   HN311871   6.281   0.364   2.529  1.7089 -0.6274 -0.8103
  114SAPE   C1211872   6.396   0.234   2.634 -0.3886  0.3826  0.0854
  114SAPE  H12A11873   6.403   0.123   2.623 -0.0706  0.2745  1.2477
  114SAPE  H12B11874   6.424   0.269   2.735 -0.8772 -0.0030  0.3634
  114SAPE   C1111875   6.493   0.278   2.523 -0.3133  0.4383 -0.7459
  114SAPE  H11A11876   6.460   0.225   2.431 -1.1277 -2.1555  0.9542
  114SAPE  H11B11877   6.592   0.234   2.546 -0.7658  0.1519  0.7896
  114SAPE     P11878   6.622   0.504   2.549  0.3603  0.4963  0.1138
  114SAPE   O1311879   6.739   0.453   2.466  0.4913 -0.3821 -0.1984
  114SAPE   O1411880   6.585   0.646   2.536 -0.1348  0.2439 -0.4839
  114SAPE   O1211881   6.497   0.422   2.510 -0.0999  0.4438  0.5694
  114SAPE   O1111882   6.640   0.456   2.697 -1.0379  0.3333  0.7236
  114SAPE    C111883   6.585   0.514   2.812 -0.0419 -0.6998 -0.1266
  114SAPE    HA11884   6.609   0.621   2.827 -0.8128 -0.4896 -0.3397
  114SAPE    HB11885   6.474   0.517   2.808  0.0167  0.4151 -2.0551
  114SAPE    C211886   6.619   0.434   2.942  0.3109  0.7881 -0.3045
  114SAPE    HS11887   6.720   0.390   2.926 -0.2647 -1.0232  0.7371
  114SAPE   O2111888   6.518   0.335   2.971 -0.0349  0.5510 -0.1322
  114SAPE   C2111889   6.561   0.234   3.053  0.3281 -0.8174  0.3683
  114SAPE   O2211890   6.675   0.220   3.095 -0.3827 -0.2118  0.2402
  114SAPE   C2211891   6.450   0.124   3.068 -0.1574 -0.4495 -0.1190
  114SAPE   H2R11892   6.355   0.168   3.030 -0.8916  0.6748  2.7164
  114SAPE   H2S11893   6.470   0.041   2.997  0.4404 -1.8777  1.6440
  114SAPE    C311894   6.620   0.529   3.067  0.4669 -0.3014  0.1837
  114SAPE    HX11895   6.518   0.548   3.107  1.1223  1.7690  1.0152
  114SAPE    HY11896   6.652   0.623   3.018  0.0424  0.1559  0.7602
  114SAPE   O3111897   6.687   0.487   3.184 -0.0180  0.0368  0.4859
  114SAPE   C3111898   6.822   0.479   3.170 -0.6023  0.1547 -0.5079
  114SAPE   O3211899   6.885   0.494   3.067 -0.2949 -0.7327  0.4414
  114SAPE   C3211900   6.889   0.453   3.302 -0.3804  0.3236 -0.6312
  114SAPE   H2X11901   6.998   0.453   3.281 -0.1821 -2.2200  0.1019
  114SAPE   H2Y11902   6.859   0.350   3.331 -2.6316  2.0932  4.5531
  114SAPE   C2311903   6.432   0.083   3.217  0.3794  0.8973 -0.1360
  114SAPE   H3R11904   6.514   0.014   3.247  0.3317  0.6251 -0.6122
  114SAPE   H3S11905   6.347   0.014   3.233 -1.0575  3.0078  2.0302
  114SAPE   C2411906   6.395   0.206   3.300 -0.3269 -0.2478  0.5538
  114SAPE   H4R11907   6.290   0.223   3.268 -0.5212 -0.8693  0.8371
  114SAPE   H4S11908   6.455   0.295   3.271 -1.4331  0.8760  1.5981
  114SAPE   C2511909   6.395   0.193   3.447  0.6159  0.5424 -0.0457
  114SAPE   H5R11910   6.316   0.122   3.477 -0.8577  2.0831 -0.1389
  114SAPE   C2611911   6.459   0.257   3.544  0.2099 -0.6554 -0.4185
  114SAPE   H6R11912   6.432   0.235   3.649 -1.1183 -0.0644 -0.6124
  114SAPE   C2711913   6.551   0.375   3.528 -0.1682  0.3370  0.1000
  114SAPE   H7R11914   6.637   0.349   3.462  0.3215 -2.7777  1.7979
  114SAPE   H7S11915   6.605   0.401   3.622 -0.2486  0.7468  0.0356
  114SAPE   C2811916   6.494   0.495   3.461  0.3061  0.8523  0.0242
  114SAPE   H8R11917   6.481   0.494   3.352 -0.6103  2.3837  0.0868
  114SAPE   C2911918   6.461   0.610   3.525 -0.6610 -0.1610 -0.3714
  114SAPE   H9R11919   6.434   0.691   3.455  0.4359 -0.4760 -1.1826
  114SAPE  C21011920   6.475   0.642   3.680  0.5852 -0.4266  0.7094
  114SAPE  H10R11921   6.422   0.557   3.730 -0.5511 -1.1718 -1.5970
  114SAPE  H10S11922   6.406   0.727   3.698  0.6179 -0.3030  0.2469
  114SAPE  C21111923   6.610   0.666   3.741 -0.2787  0.7074  0.3173
  114SAPE  H11R11924   6.685   0.662   3.661 -0.6824  2.9902 -0.2520
  114SAPE  C21211925   6.631   0.700   3.868  0.0947 -0.0539 -0.1571
  114SAPE  H12R11926   6.734   0.704   3.904 -1.1479  0.8895  3.7885
  114SAPE  C21311927   6.528   0.710   3.978 -0.0797  0.1711  0.4637
  114SAPE  H13R11928   6.560   0.646   4.062  2.7869  1.8480  0.7812
  114SAPE  H13S11929   6.428   0.687   3.936  1.3887 -0.7592 -2.8703
  114SAPE  C21411930   6.531   0.856   4.014  0.4150  0.3258 -0.4954
  114SAPE  H14R11931   6.613   0.918   3.975  0.8221 -0.5431 -1.0526
  114SAPE  C21511932   6.452   0.909   4.117 -0.1150  0.3492 -0.0590
  114SAPE  H15R11933   6.448   1.018   4.130 -0.1087  0.6928 -2.5031
  114SAPE  C21611934   6.356   0.834   4.208 -0.0736 -0.4792 -0.8878
  114SAPE  H16R11935   6.344   0.728   4.179 -2.1907 -0.5921  0.2372
  114SAPE  H16S11936   6.263   0.893   4.193  0.7281  0.6987 -1.4034
  114SAPE  C21711937   6.395   0.855   4.354  0.2109 -0.0520  0.0077
  114SAPE  H17R11938   6.431   0.958   4.377  2.9986 -1.1284  0.8588
  114SAPE  H17S11939   6.486   0.798   4.379 -0.0055  0.3449  1.8540
  114SAPE  C21811940   6.287   0.817   4.457 -0.8500 -0.3146 -0.4429
  114SAPE  H18R11941   6.185   0.828   4.412 -2.1924 -0.2026  2.4140
  114SAPE  H18S11942   6.283   0.891   4.539  0.7481 -0.2915 -0.3633
  114SAPE  C21911943   6.301   0.686   4.537 -1.0999  0.9101  0.5604
  114SAPE  H19R11944   6.308   0.605   4.461  1.7355 -0.8035  2.4707
  114SAPE  H19S11945   6.222   0.661   4.611 -1.0478  1.8842  0.9571
  114SAPE  C22011946   6.432   0.672   4.610  0.8350  0.8734  0.0825
  114SAPE  H20R11947   6.409   0.732   4.701 -1.7730  0.8248 -0.4627
  114SAPE  H20S11948   6.527   0.698   4.558  1.1107  0.0925  0.1772
  114SAPE  H20T11949   6.438   0.567   4.645  0.6911  0.7929 -0.1343
  114SAPE   C3311950   6.857   0.555   3.416  0.3093  0.7193  1.1947
  114SAPE   H3X11951   6.909   0.522   3.508 -1.2452 -1.1811  1.4712
  114SAPE   H3Y11952   6.749   0.560   3.441 -0.3081 -0.9029 -0.7869
  114SAPE   C3411953   6.902   0.699   3.375  0.3086  0.1469  0.4015
  114SAPE   H4X11954   6.846   0.736   3.286  2.3933  0.6468 -0.7852
  114SAPE   H4Y11955   7.010   0.698   3.348  0.7491  0.1661  2.0551
  114SAPE   C3511956   6.889   0.793   3.492 -0.1988  0.2008  0.2847
  114SAPE   H5X11957   6.941   0.736   3.571 -3.4541 -4.4044 -0.5042
  114SAPE   H5Y11958   6.782   0.784   3.523 -0.4083  3.5153  0.9816
  114SAPE   C3611959   6.943   0.930   3.460 -0.2674  0.4880  0.5612
  114SAPE   H6X11960   6.922   0.964   3.356 -0.2869 -2.5819 -0.5390
  114SAPE   H6Y11961   7.054   0.921   3.462 -0.3147 -0.7863 -1.0873
  114SAPE   C3711962   6.894   1.041   3.555  0.8248  1.1680 -0.0451
  114SAPE   H7X11963   6.793   1.064   3.514  1.6919 -0.8428 -3.8028
  114SAPE   H7Y11964   6.959   1.130   3.549  2.8463 -0.2859 -0.8456
  114SAPE   C3811965   6.880   0.991   3.699  0.2242  0.6668  0.7399
  114SAPE   H8X11966   6.977   0.939   3.713 -0.7966 -1.2529  1.0389
  114SAPE   H8Y11967   6.804   0.912   3.719  2.0919 -1.0279  1.4633
  114SAPE   C3911968   6.863   1.111   3.791  0.1802  0.4477 -0.1404
  114SAPE   H9X11969   6.766   1.158   3.767  1.6024  2.5687 -2.1805
  114SAPE   H9Y11970   6.930   1.199   3.786 -0.2001  0.8972  1.8023
  114SAPE  C31011971   6.874   1.067   3.931  0.4696  0.1661  0.3745
  114SAPE  H10X11972   6.807   0.981   3.952 -0.3420  0.7074  0.0507
  114SAPE  H10Y11973   6.852   1.148   4.003 -1.6203  0.5893 -0.6705
  114SAPE  C31111974   7.017   1.039   3.974  0.0871  1.5854 -0.6314
  114SAPE  H11X11975   7.070   1.129   3.935 -1.1174  2.2753 -0.7333
  114SAPE  H11Y11976   7.055   0.943   3.932  0.7532  0.7985  1.6339
  114SAPE  C31211977   7.032   1.022   4.127  0.0982 -0.6503 -0.5981
  114SAPE  H12X11978   7.010   1.122   4.171  1.4387 -0.6482  0.1281
  114SAPE  H12Y11979   7.142   1.013   4.142  0.2056 -0.2539 -1.1422
  114SAPE  C31311980   6.971   0.903   4.201 -0.0336 -0.0778  0.2095
  114SAPE  H13X11981   6.984   0.802   4.156  1.3881  0.5339 -0.8089
  114SAPE  H13Y11982   6.862   0.915   4.183 -0.0077 -1.2751 -0.8998
  114SAPE  C31411983   7.010   0.895   4.344  0.4430 -0.7873 -0.5594
  114SAPE  H14X11984   6.983   0.996   4.381 -1.4377 -0.1541 -3.3725
  114SAPE  H14Y11985   7.115   0.866   4.365  0.0850 -3.2904 -1.8612
  114SAPE  C31511986   6.922   0.801   4.416  0.2221 -0.3375 -0.5305
  114SAPE  H15X11987   6.925   0.698   4.375  1.5504 -1.0142  1.1464
  114SAPE  H15Y11988   6.818   0.841   4.419  0.7785  1.2651  3.1070
  114SAPE  C31611989   6.942   0.775   4.567  0.7382 -0.8920 -0.2449
  114SAPE  H16X11990   6.936   0.873   4.620 -0.2940 -1.3870  0.5873
  114SAPE  H16Y11991   7.039   0.729   4.597 -0.2185 -0.7728  3.3838
  114SAPE  C31711992   6.829   0.698   4.627  0.1853  1.0748  0.7139
  114SAPE  H17X11993   6.809   0.597   4.586 -1.0515  2.0023 -1.0995
  114SAPE  H17Y11994   6.734   0.748   4.600 -0.2529  0.5775  1.3013
  114SAPE  C31811995   6.839   0.689   4.778 -0.7352 -0.3340 -0.6010
  114SAPE  H18X11996   6.760   0.625   4.824 -0.4168  0.2566  0.8065
  114SAPE  H18Y11997   6.824   0.791   4.818  2.7138  0.2121 -0.4061
  114SAPE  H18Z11998   6.938   0.650   4.809 -1.5793 -2.6049 -0.5608
  115SAPE     N11999   3.385   1.700   2.915  0.2480 -0.3202 -0.4336
  115SAPE   HN112000   3.320   1.640   2.860 -0.3063  0.3338 -0.5055
  115SAPE   HN212001   3.367   1.682   3.015  2.4894  0.4783  0.1793
  115SAPE   HN312002   3.376   1.796   2.876  1.6685 -0.6519 -1.6978
  115SAPE   C1212003   3.522   1.646   2.915  0.2220  1.0088  0.2917
  115SAPE  H12A12004   3.571   1.655   2.816  1.0354  1.0308  0.6919
  115SAPE  H12B12005   3.506   1.539   2.941  2.6745  0.2047 -1.1275
  115SAPE   C1112006   3.606   1.715   3.029 -0.0286  0.0477  0.4624
  115SAPE  H11A12007   3.710   1.679   3.044  0.5459  1.9354  1.2532
  115SAPE  H11B12008   3.563   1.694   3.129  3.9988 -1.6395  2.0811
  115SAPE     P12009   3.721   1.913   2.893 -0.0636  0.0804 -0.1610
  115SAPE   O1312010   3.799   1.798   2.842 -0.3374  0.1122 -0.3069
  115SAPE   O1412011   3.650   1.999   2.799  0.3169 -0.5275  0.2152
  115SAPE   O1212012   3.608   1.856   2.994  0.5935 -0.8554 -0.2765
  115SAPE   O1112013   3.806   2.003   2.984 -0.4730  0.1302 -0.3611
  115SAPE    C112014   3.926   1.961   3.052 -0.1786 -0.2327 -0.1421
  115SAPE    HA12015   3.984   1.883   2.999  0.8139  0.7690 -0.5601
  115SAPE    HB12016   3.986   2.051   3.077 -0.4934 -0.4891  1.6894
  115SAPE    C212017   3.893   1.897   3.197  0.4526 -0.5787  0.2093
  115SAPE    HS12018   3.830   1.810   3.168 -0.9066  0.6287 -0.6250
  115SAPE   O2112019   3.826   1.996   3.286 -0.1122 -0.4285  0.5454
  115SAPE   C2112020   3.718   1.955   3.348 -0.6360 -0.9985  0.7414
  115SAPE   O2212021   3.676   1.842   3.342 -0.2659  0.1667 -0.0994
  115SAPE   C2212022   3.656   2.078   3.404  0.1163 -0.2794  0.3080
  115SAPE   H2R12023   3.706   2.172   3.376 -0.9919 -0.1295 -1.3009
  115SAPE   H2S12024   3.560   2.088   3.349  1.6141  1.1859 -2.2279
  115SAPE    C312025   4.023   1.840   3.265 -0.4041  0.8024 -0.3247
  115SAPE    HX12026   4.074   1.928   3.309  4.9479 -2.1937  0.3201
  115SAPE    HY12027   4.091   1.792   3.191  0.8930  0.8470  0.7966
  115SAPE   O3112028   3.976   1.758   3.378 -0.1893  0.4233  0.1519
  115SAPE   C3112029   3.968   1.633   3.343 -0.2691  0.3522  0.8802
  115SAPE   O3212030   3.993   1.589   3.231 -0.0454  0.0043 -0.1337
  115SAPE   C3212031   3.922   1.543   3.459 -0.0158  0.4473 -0.3863
  115SAPE   H2X12032   3.813   1.553   3.478  0.2507  1.3190  0.8173
  115SAPE   H2Y12033   3.959   1.579   3.557 -0.1236  1.5221 -0.7223
  115SAPE   C2312034   3.621   2.073   3.551  0.1306 -0.4403  0.0049
  115SAPE   H3R12035   3.600   1.966   3.573  1.3202 -0.5383  0.7268
  115SAPE   H3S12036   3.534   2.131   3.587 -0.5510 -0.2979 -1.7546
  115SAPE   C2412037   3.748   2.124   3.623 -0.6621 -0.4687 -0.6679
  115SAPE   H4R12038   3.727   2.149   3.729  0.2951  1.2568 -0.8544
  115SAPE   H4S12039   3.759   2.224   3.578 -0.3352 -0.4745 -0.6092
  115SAPE   C2512040   3.867   2.033   3.604  0.1551 -0.5956 -0.9594
  115SAPE   H5R12041   3.924   2.055   3.513  2.6806  0.1591  0.7213
  115SAPE   C2612042   3.893   1.920   3.669  0.5508 -0.7127 -0.0945
  115SAPE   H6R12043   3.981   1.855   3.655 -0.8701 -3.4177  2.3601
  115SAPE   C2712044   3.801   1.870   3.785 -0.3991 -0.0325  0.3282
  115SAPE   H7R12045   3.699   1.913   3.772  0.2395  1.2231 -0.7971
  115SAPE   H7S12046   3.847   1.909   3.878  2.6833 -0.1745 -1.0149
  115SAPE   C2812047   3.793   1.718   3.776  0.4077 -0.3107  0.0967
  115SAPE   H8R12048   3.753   1.679   3.681  3.1886 -0.9128 -0.9161
  115SAPE   C2912049   3.839   1.639   3.881  0.1465  0.4722  0.2087
  115SAPE   H9R12050   3.828   1.530   3.875 -0.4436  0.5060  0.6450
  115SAPE  C21012051   3.909   1.681   4.008  0.4728  0.4162 -0.3930
  115SAPE  H10R12052   3.957   1.781   3.995 -2.5326  2.4584  2.4570
  115SAPE  H10S12053   3.999   1.618   4.024 -0.4128 -0.2475  2.5740
  115SAPE  C21112054   3.837   1.669   4.139  0.4312  0.1602  0.4512
  115SAPE  H11R12055   3.729   1.682   4.122  0.8043  1.2245 -1.5377
  115SAPE  C21212056   3.890   1.648   4.260  0.7011 -0.5389 -0.0461
  115SAPE  H12R12057   3.828   1.633   4.350  1.2150 -0.7983  0.2678
  115SAPE  C21312058   4.032   1.620   4.288  0.6518 -0.0780 -0.0178
  115SAPE  H13R12059   4.045   1.660   4.391  1.8298  0.4007 -0.3390
  115SAPE  H13S12060   4.099   1.675   4.218  0.5688 -1.5532 -1.3152
  115SAPE  C21412061   4.069   1.472   4.277  0.0727 -0.3362 -0.1685
  115SAPE  H14R12062   4.018   1.419   4.195 -2.1914  1.7970 -0.2604
  115SAPE  C21512063   4.145   1.397   4.358 -0.5940  0.2461 -0.1711
  115SAPE  H15R12064   4.151   1.289   4.338 -2.5776  0.1000 -0.1618
  115SAPE  C21612065   4.228   1.455   4.474  0.1621 -0.0897  0.1718
  115SAPE  H16R12066   4.236   1.566   4.466  0.2805 -0.1374 -0.4069
  115SAPE  H16S12067   4.336   1.426   4.477  0.0861 -0.3536  0.3410
  115SAPE  C21712068   4.159   1.425   4.613  0.1871 -0.2854  0.4090
  115SAPE  H17R12069   4.176   1.320   4.644 -0.7480 -0.2322  1.1346
  115SAPE  H17S12070   4.051   1.447   4.622  0.3018 -0.1076  1.4477
  115SAPE  C21812071   4.233   1.510   4.717 -0.5212  0.2837  0.6546
  115SAPE  H18R12072   4.220   1.619   4.696  0.8852  0.3131 -0.1773
  115SAPE  H18S12073   4.337   1.472   4.724 -0.5575  0.0670  0.0057
  115SAPE  C21912074   4.187   1.481   4.861  0.2432 -0.2396  0.5086
  115SAPE  H19R12075   4.201   1.370   4.865 -0.3847 -0.4102 -1.0297
  115SAPE  H19S12076   4.081   1.514   4.871  0.3820  0.1382  0.6957
  115SAPE  C22012077   4.277   1.545   4.957 -0.1893  0.3377  0.5000
  115SAPE  H20R12078   4.248   1.652   4.959 -0.5950  0.2429 -0.1255
  115SAPE  H20S12079   4.383   1.538   4.925 -0.8164 -2.7963 -1.3643
  115SAPE  H20T12080   4.271   1.493   5.056 -0.2774 -0.3790  0.1234
  115SAPE   C3312081   3.967   1.392   3.426  0.1485  0.1722 -0.6237
  115SAPE   H3X12082   4.070   1.373   3.387  0.1031  0.5725 -0.9488
  115SAPE   H3Y12083   3.904   1.361   3.340 -1.2048  0.4145  0.2603
  115SAPE   C3412084   3.938   1.298   3.544  0.2827  0.0230 -0.3778
  115SAPE   H4X12085   3.971   1.196   3.515  1.0093  0.1445  0.0156
  115SAPE   H4Y12086   3.828   1.306   3.559  0.4846  0.6248  0.9069
  115SAPE   C3512087   4.030   1.317   3.668 -0.2843 -0.2066  1.0730
  115SAPE   H5X12088   4.024   1.418   3.715 -1.2954 -0.7635  2.1983
  115SAPE   H5Y12089   4.139   1.315   3.644 -0.3728  1.2444  0.4579
  115SAPE   C3612090   4.007   1.215   3.776 -0.5567  0.1967  0.3571
  115SAPE   H6X12091   4.056   1.121   3.743 -1.6965  0.5460 -2.6733
  115SAPE   H6Y12092   3.899   1.190   3.786 -0.0684 -2.0282  0.6253
  115SAPE   C3712093   4.061   1.262   3.907  0.0066  0.4158 -0.3715
  115SAPE   H7X12094   4.029   1.196   3.991  0.9964  1.2244  0.6759
  115SAPE   H7Y12095   4.052   1.365   3.948  1.3997  0.0083  1.0587
  115SAPE   C3812096   4.219   1.236   3.902 -0.0574 -0.1076 -0.0782
  115SAPE   H8X12097   4.266   1.301   3.825 -0.6839  1.6735  0.9750
  115SAPE   H8Y12098   4.240   1.131   3.875 -1.6226  0.2431 -3.0984
  115SAPE   C3912099   4.292   1.275   4.036 -0.0102  0.1010  0.0298
  115SAPE   H9X12100   4.254   1.220   4.125 -0.2438  0.4092  0.1178
  115SAPE   H9Y12101   4.274   1.382   4.056  0.9293  0.0305  1.3794
  115SAPE  C31012102   4.445   1.244   4.025  0.4623  0.0104  1.2020
  115SAPE  H10X12103   4.486   1.277   3.927 -0.0728 -0.3004  0.8732
  115SAPE  H10Y12104   4.458   1.135   4.038 -0.9391 -0.1184  1.6302
  115SAPE  C31112105   4.523   1.324   4.134 -0.0166 -0.2076 -0.5931
  115SAPE  H11X12106   4.488   1.429   4.132 -1.0353 -0.4527  1.5911
  115SAPE  H11Y12107   4.632   1.328   4.112 -0.1539  0.8412 -1.1444
  115SAPE  C31212108   4.492   1.271   4.275 -0.7532  0.0062  0.5917
  115SAPE  H12X12109   4.532   1.168   4.274  1.1607  0.7117 -0.0479
  115SAPE  H12Y12110   4.382   1.269   4.290 -0.7753 -0.6312  0.3441
  115SAPE  C31312111   4.561   1.348   4.380 -0.2608  0.6661 -0.3147
  115SAPE  H13X12112   4.511   1.447   4.377 -0.1200  0.8385  1.5278
  115SAPE  H13Y12113   4.661   1.382   4.348 -1.2043  2.0884 -1.9342
  115SAPE  C31412114   4.555   1.298   4.529  0.1262  0.5372 -0.4420
  115SAPE  H14X12115   4.603   1.199   4.542 -1.9550 -0.2991  1.7203
  115SAPE  H14Y12116   4.451   1.292   4.570 -0.1886 -2.0952 -1.4580
  115SAPE  C31512117   4.627   1.400   4.625  0.8442  1.1647  0.2903
  115SAPE  H15X12118   4.581   1.500   4.617 -0.0787  0.6158 -1.8606
  115SAPE  H15Y12119   4.725   1.410   4.574  0.6216 -1.3971 -0.8203
  115SAPE  C31612120   4.633   1.360   4.775  0.1466  0.0910  0.5211
  115SAPE  H16X12121   4.711   1.281   4.790 -0.3599 -0.1828  1.9131
  115SAPE  H16Y12122   4.535   1.313   4.799  0.3297 -0.0945  0.9218
  115SAPE  C31712123   4.665   1.483   4.869  0.3304  1.0265  0.2993
  115SAPE  H17X12124   4.592   1.564   4.847 -0.3712  0.3229 -0.0048
  115SAPE  H17Y12125   4.770   1.514   4.848  0.8054 -0.6400  0.0931
  115SAPE  C31812126   4.650   1.448   5.017 -0.4534 -0.4431  0.1357
  115SAPE  H18X12127   4.732   1.382   5.051  1.3846  1.8651  0.4682
  115SAPE  H18Y12128   4.553   1.395   5.029 -1.2074  0.8640 -0.0133
  115SAPE  H18Z12129   4.654   1.537   5.084  3.1575  1.6661 -2.5336
  116SAPE     N12130   5.263   3.025   2.410  0.6595  0.2941  0.2178
  116SAPE   HN112131   5.266   3.129   2.419  3.5593  0.4540 -1.3798
  116SAPE   HN212132   5.334   2.995   2.480  0.6089 -1.3444 -0.4015
  116SAPE   HN312133   5.292   2.996   2.315 -1.4531  2.5993 -1.2615
  116SAPE   C1212134   5.129   2.972   2.460  0.5708  0.4707  0.1165
  116SAPE  H12A12135   5.058   2.991   2.377  0.4288  2.7890  0.7066
  116SAPE  H12B12136   5.086   3.037   2.538  1.8902  1.6469 -0.0912
  116SAPE   C1112137   5.129   2.823   2.495  0.8711 -0.0726  0.1611
  116SAPE  H11A12138   5.157   2.765   2.405  1.7857 -0.0549  0.4209
  116SAPE  H11B12139   5.028   2.789   2.526  0.7666 -0.3551 -0.4873
  116SAPE     P12140   5.255   2.655   2.644  0.1075 -0.3171  0.0667
  116SAPE   O1312141   5.161   2.562   2.586 -0.2417  0.1969  0.6203
  116SAPE   O1412142   5.394   2.618   2.621  0.2083 -0.4480  0.1209
  116SAPE   O1212143   5.230   2.802   2.590 -0.1469 -0.4444 -0.2655
  116SAPE   O1112144   5.218   2.669   2.798  0.1029 -0.5902 -0.3350
  116SAPE    C112145   5.079   2.706   2.826 -0.4555  0.3463  0.3487
  116SAPE    HA12146   5.052   2.791   2.760  1.0641  0.1362 -0.6107
  116SAPE    HB12147   5.011   2.621   2.802  0.3552 -0.7459  1.7417
  116SAPE    C212148   5.040   2.738   2.966  0.0240  0.5886 -0.1437
  116SAPE    HS12149   5.103   2.825   2.993  2.3436 -1.0192  0.0109
  116SAPE   O2112150   5.077   2.628   3.062  0.3440 -0.6154  0.0841
  116SAPE   C2112151   5.178   2.657   3.145 -1.0675  0.1524 -0.1012
  116SAPE   O2212152   5.222   2.766   3.166  0.5211  0.0686  0.0703
  116SAPE   C2212153   5.225   2.528   3.197 -0.0866 -0.5769  0.0047
  116SAPE   H2R12154   5.223   2.448   3.119  2.1132  1.4401 -2.2754
  116SAPE   H2S12155   5.331   2.552   3.220 -0.7473  2.0624  0.5720
  116SAPE    C312156   4.888   2.770   2.986 -0.4965 -0.6184  0.7252
  116SAPE    HX12157   4.828   2.678   2.970 -0.1811 -0.7785  0.4388
  116SAPE    HY12158   4.846   2.844   2.915 -0.5598 -0.1309  1.2645
  116SAPE   O3112159   4.863   2.834   3.119 -0.6677 -0.2457  0.3233
  116SAPE   C3112160   4.852   2.748   3.221 -0.4759 -0.6843 -0.2027
  116SAPE   O3212161   4.838   2.626   3.213 -0.0847 -0.2362  0.3679
  116SAPE   C3212162   4.847   2.822   3.348 -0.4850 -0.1034 -0.8342
  116SAPE   H2X12163   4.755   2.883   3.347 -0.3982  0.0564 -2.4674
  116SAPE   H2Y12164   4.930   2.896   3.357  0.3460 -1.2271  1.7333
  116SAPE   C2312165   5.144   2.490   3.326 -1.2686 -0.6786 -0.2694
  116SAPE   H3R12166   5.148   2.381   3.349  2.2608 -0.5872  0.1139
  116SAPE   H3S12167   5.037   2.502   3.301 -1.8865 -1.4789  1.7303
  116SAPE   C2412168   5.208   2.552   3.450  1.1293 -0.0963 -0.0272
  116SAPE   H4R12169   5.127   2.562   3.527  0.7742  0.9191 -0.5184
  116SAPE   H4S12170   5.234   2.658   3.430  2.2183  0.4064  3.3822
  116SAPE   C2512171   5.334   2.491   3.501  0.5650  0.6578  0.2776
  116SAPE   H5R12172   5.395   2.455   3.417 -1.0264  1.2505 -1.1845
  116SAPE   C2612173   5.374   2.476   3.631  0.3490 -0.0477 -0.0906
  116SAPE   H6R12174   5.473   2.436   3.656 -1.0798 -2.4718  2.2191
  116SAPE   C2712175   5.308   2.528   3.755 -0.3969  0.1590 -0.3715
  116SAPE   H7R12176   5.353   2.474   3.842  0.2475 -1.3041 -1.5664
  116SAPE   H7S12177   5.202   2.494   3.756 -0.9151  1.7273  0.0279
  116SAPE   C2812178   5.307   2.675   3.775 -0.4752  0.1643 -0.4534
  116SAPE   H8R12179   5.231   2.729   3.716 -1.7121  1.5594  2.2297
  116SAPE   C2912180   5.386   2.745   3.857  0.7568 -0.0915 -0.0299
  116SAPE   H9R12181   5.378   2.854   3.860  3.9696  0.2696 -0.6176
  116SAPE  C21012182   5.485   2.681   3.951 -0.3428 -0.2838  0.1402
  116SAPE  H10R12183   5.462   2.585   4.001  0.0748 -0.0977  0.7011
  116SAPE  H10S12184   5.511   2.749   4.035 -0.3978 -0.9403  0.7024
  116SAPE  C21112185   5.614   2.657   3.879 -0.1581  0.1150  0.6239
  116SAPE  H11R12186   5.635   2.550   3.864 -1.4412  0.1204 -1.5912
  116SAPE  C21212187   5.706   2.743   3.823  0.3419 -0.8342  0.4223
  116SAPE  H12R12188   5.799   2.705   3.778  1.1779  1.6711 -0.1132
  116SAPE  C21312189   5.699   2.895   3.825  0.1483 -0.6823 -0.8398
  116SAPE  H13R12190   5.748   2.937   3.915 -0.4692 -0.6489 -0.5137
  116SAPE  H13S12191   5.592   2.923   3.840  0.3476  0.2117 -1.0426
  116SAPE  C21412192   5.754   2.962   3.702  0.3293 -0.8739  0.0672
  116SAPE  H14R12193   5.747   2.902   3.610 -0.2969 -0.5952 -0.0683
  116SAPE  C21512194   5.789   3.095   3.694 -0.1849  0.4287  0.3429
  116SAPE  H15R12195   5.835   3.134   3.602  1.2232 -3.0172 -0.6070
  116SAPE  C21612196   5.795   3.197   3.809  0.1700  0.2832  0.7773
  116SAPE  H16R12197   5.788   3.149   3.910 -1.1497 -0.8277  0.1894
  116SAPE  H16S12198   5.728   3.284   3.794  1.4202  1.0419 -0.6985
  116SAPE  C21712199   5.937   3.259   3.812  0.2124  0.1420  0.4368
  116SAPE  H17R12200   5.960   3.311   3.716 -0.8175 -1.7244 -0.8924
  116SAPE  H17S12201   6.006   3.172   3.798 -1.0909 -0.9705  0.6911
  116SAPE  C21812202   5.968   3.333   3.937 -0.2454  0.2148 -0.1208
  116SAPE  H18R12203   6.071   3.372   3.925 -0.6974  1.2318 -0.8111
  116SAPE  H18S12204   5.953   3.256   4.016 -2.1303 -0.8251 -1.4072
  116SAPE  C21912205   5.881   3.451   3.982  0.4548 -0.3292  0.2285
  116SAPE  H19R12206   5.774   3.418   3.986 -0.2162  1.4467 -1.5313
  116SAPE  H19S12207   5.872   3.530   3.905 -2.0905  0.9785  1.7091
  116SAPE  C22012208   5.918   3.509   4.117 -0.0969  0.1163  0.1502
  116SAPE  H20R12209   6.008   3.573   4.123 -0.0872  0.0382  0.8436
  116SAPE  H20S12210   5.932   3.427   4.191  1.2200 -0.2507 -0.4824
  116SAPE  H20T12211   5.838   3.579   4.149 -0.6938 -0.0216 -0.9834
  116SAPE   C3312212   4.876   2.737   3.472  0.3336  0.0415 -0.4467
  116SAPE   H3X12213   4.978   2.698   3.453  0.8701  1.0279  0.2495
  116SAPE   H3Y12214   4.799   2.658   3.467 -0.8106  1.1980 -1.7852
  116SAPE   C3412215   4.870   2.805   3.603  0.1343 -0.0621 -0.1929
  116SAPE   H4X12216   4.769   2.853   3.604 -0.4768 -1.0180 -3.4707
  116SAPE   H4Y12217   4.935   2.895   3.608 -0.5991  0.4888 -0.2476
  116SAPE   C3512218   4.902   2.704   3.720  0.2136  0.0426  0.1318
  116SAPE   H5X12219   4.992   2.646   3.690 -0.0630 -0.1308 -0.3654
  116SAPE   H5Y12220   4.823   2.626   3.716  1.1267 -0.8807 -0.7773
  116SAPE   C3612221   4.914   2.774   3.855 -0.4566 -0.0584 -0.2216
  116SAPE   H6X12222   4.821   2.835   3.860  0.1942  1.0520 -1.2197
  116SAPE   H6Y12223   4.989   2.856   3.853 -0.4764 -0.0467 -0.5634
  116SAPE   C3712224   4.932   2.676   3.968  0.4437  0.2231 -0.8551
  116SAPE   H7X12225   5.029   2.629   3.944  1.8844  3.7371 -2.7195
  116SAPE   H7Y12226   4.848   2.606   3.951  0.3021  0.5585 -1.5850
  116SAPE   C3812227   4.934   2.743   4.109  0.4370  0.0879 -0.8442
  116SAPE   H8X12228   4.840   2.795   4.137  0.9850 -0.0194  1.3843
  116SAPE   H8Y12229   5.010   2.824   4.111 -1.4931  2.0212 -1.6327
  116SAPE   C3912230   4.965   2.650   4.228  0.4259  0.4110  0.1544
  116SAPE   H9X12231   5.062   2.598   4.211 -0.5916 -2.0058  1.3040
  116SAPE   H9Y12232   4.886   2.572   4.235  0.0362  0.9524  2.2814
  116SAPE  C31012233   4.968   2.724   4.361 -0.1248  0.0626 -0.3099
  116SAPE  H10X12234   4.953   2.640   4.432  0.8063 -0.9830 -1.3032
  116SAPE  H10Y12235   4.881   2.791   4.376 -0.9600 -1.3081  1.3813
  116SAPE  C31112236   5.102   2.794   4.399  0.2886  0.3906 -0.2244
  116SAPE  H11X12237   5.124   2.868   4.320 -1.7936  0.6871 -0.5954
  116SAPE  H11Y12238   5.186   2.722   4.392  0.8015  1.0409 -0.7848
  116SAPE  C31212239   5.106   2.857   4.539  0.0164  0.6532 -0.0623
  116SAPE  H12X12240   5.094   2.774   4.612  1.1562 -0.7141 -1.3507
  116SAPE  H12Y12241   5.012   2.915   4.551 -0.3358  0.0103  0.3726
  116SAPE  C31312242   5.231   2.939   4.576  0.1455 -0.3938  0.3530
  116SAPE  H13X12243   5.238   3.022   4.502  0.1273 -0.5900  0.1302
  116SAPE  H13Y12244   5.325   2.880   4.568  0.6369  0.4741 -0.4642
  116SAPE  C31412245   5.215   3.023   4.706  0.5452  0.0030 -0.2634
  116SAPE  H14X12246   5.224   2.962   4.798  1.0081  0.5301  0.0436
  116SAPE  H14Y12247   5.111   3.062   4.706  1.0659  1.5010 -1.7502
  116SAPE  C31512248   5.310   3.139   4.729 -0.3360 -0.0646  0.5113
  116SAPE  H15X12249   5.262   3.223   4.674 -0.5755 -0.1290  0.6206
  116SAPE  H15Y12250   5.412   3.109   4.696  0.2061  0.2982  1.7938
  116SAPE  C31612251   5.335   3.178   4.881 -0.5110  1.2263  0.9224
  116SAPE  H16X12252   5.249   3.158   4.948 -1.5358 -1.9369 -1.1212
  116SAPE  H16Y12253   5.365   3.285   4.872  1.6223  0.7239  1.6061
  116SAPE  C31712254   5.449   3.091   4.942  0.1518  1.0879 -0.5942
  116SAPE  H17X12255   5.535   3.092   4.872 -0.2264 -1.3407 -1.1897
  116SAPE  H17Y12256   5.435   2.981   4.951  1.3239  1.0820  2.0065
  116SAPE  C31812257   5.490   3.141   5.080 -0.3166 -1.1696  0.4088
  116SAPE  H18X12258   5.558   3.073   5.135  1.8096 -0.5991 -1.3610
  116SAPE  H18Y12259   5.403   3.173   5.142  0.1479  0.5209  0.2279
  116SAPE  H18Z12260   5.552   3.231   5.063 -1.8450 -0.5558 -2.6274
  117SOPE     N12261   1.980   4.090   7.160 -0.1553  0.3355 -0.4181
  117SOPE   HN112262   1.990   4.193   7.155  1.0437  0.1913 -2.1692
  117SOPE   HN212263   1.880   4.061   7.159  0.2068 -1.0097 -0.8631
  117SOPE   HN312264   2.023   4.077   7.255 -2.0974 -1.6266  0.2761
  117SOPE   C1212265   2.051   4.010   7.053  0.5599 -0.0536  0.1839
  117SOPE  H12A12266   2.017   4.045   6.954 -0.2692  2.2292  1.2019
  117SOPE  H12B12267   2.018   3.907   7.080 -2.6854  0.9621  0.4995
  117SOPE   C1112268   2.201   4.030   7.054  0.0812  0.3721  0.3415
  117SOPE  H11A12269   2.202   4.140   7.039 -2.9051  0.5294  0.7884
  117SOPE  H11B12270   2.244   3.977   6.966 -0.1867 -0.2277  0.5689
  117SOPE     P12271   2.294   3.852   7.232 -0.5838  0.4963 -0.2090
  117SOPE   O1312272   2.175   3.787   7.280 -0.3506 -0.1817  0.5767
  117SOPE   O1412273   2.395   3.863   7.342 -0.1387 -0.6488  0.4017
  117SOPE   O1212274   2.256   3.993   7.185  0.4876 -0.4799  0.1130
  117SOPE   O1112275   2.362   3.774   7.112 -0.3813  0.1250 -0.9496
  117SOPE    C112276   2.490   3.813   7.071 -0.7455 -0.5291  0.0117
  117SOPE    HA12277   2.564   3.779   7.147  1.3355 -0.1265 -1.7316
  117SOPE    HB12278   2.502   3.921   7.048 -2.4028 -0.3699 -0.2204
  117SOPE    C212279   2.540   3.738   6.943  0.1325 -0.8305 -0.4571
  117SOPE    HS12280   2.650   3.743   6.928 -0.0611 -0.1200 -1.7717
  117SOPE   O2112281   2.476   3.810   6.831  0.2414 -0.0519 -0.4712
  117SOPE   C2112282   2.555   3.898   6.779 -0.2432  0.4616 -0.1976
  117SOPE   O2212283   2.668   3.929   6.813 -0.0135  0.0740  0.1120
  117SOPE   C2212284   2.480   3.966   6.663  0.3479 -0.4327 -0.0811
  117SOPE   H2R12285   2.396   4.019   6.711  0.8506  0.7130 -0.4451
  117SOPE   H2S12286   2.424   3.889   6.605  0.7918  0.6482 -2.0311
  117SOPE    C312287   2.494   3.587   6.953  0.2965 -0.6779 -0.0833
  117SOPE    HX12288   2.398   3.588   7.009  0.9144  0.5229  0.9984
  117SOPE    HY12289   2.559   3.520   7.014  2.3814 -0.6782 -2.1655
  117SOPE   O3112290   2.480   3.529   6.821 -0.0596 -0.2482 -0.4495
  117SOPE   C3112291   2.591   3.518   6.759  0.1261 -1.3264  0.3574
  117SOPE   O3212292   2.701   3.544   6.798 -0.1769  0.2899  0.6403
  117SOPE   C3212293   2.561   3.501   6.609  0.6143  0.4891  0.0999
  117SOPE   H2X12294   2.486   3.420   6.592  1.4464 -0.4291  0.6718
  117SOPE   H2Y12295   2.658   3.485   6.557  0.2689  0.8554 -0.6698
  117SOPE   C2312296   2.562   4.063   6.571  0.2579 -0.3904  0.2287
  117SOPE   H3R12297   2.609   4.011   6.485 -0.6636  1.2100 -1.3033
  117SOPE   H3S12298   2.643   4.113   6.629  1.2129  0.5787 -1.8599
  117SOPE   C2412299   2.473   4.176   6.520  0.1745 -0.4680 -0.2111
  117SOPE   H4R12300   2.373   4.127   6.512  0.3315 -0.8602  0.2019
  117SOPE   H4S12301   2.473   4.249   6.603  0.8342 -0.4502 -0.2280
  117SOPE   C2512302   2.512   4.249   6.390 -0.0848 -0.0383 -0.1817
  117SOPE   H5R12303   2.601   4.306   6.424 -0.2120 -0.2167  0.4577
  117SOPE   H5S12304   2.548   4.183   6.308 -0.5266  1.4315 -1.6127
  117SOPE   C2612305   2.395   4.337   6.339 -0.2378 -0.2940 -0.2681
  117SOPE   H6R12306   2.342   4.382   6.427 -2.9026 -0.1792 -1.8141
  117SOPE   H6S12307   2.439   4.415   6.274  0.1142 -0.6144 -0.4109
  117SOPE   C2712308   2.278   4.270   6.266  0.2771 -0.7445  0.6699
  117SOPE   H7R12309   2.280   4.163   6.294  1.6771 -1.5827 -2.2265
  117SOPE   H7S12310   2.176   4.308   6.289  0.2545 -0.4240  0.0596
  117SOPE   C2812311   2.285   4.263   6.109  0.1371 -0.8074 -0.0079
  117SOPE   H8R12312   2.314   4.364   6.074  1.0835 -0.5763  1.3465
  117SOPE   H8S12313   2.367   4.195   6.076  1.1294  0.2075  0.2842
  117SOPE   C2912314   2.162   4.208   6.049  0.1538  0.1945  0.2580
  117SOPE   H9112315   2.094   4.171   6.127 -0.1585  0.3141  0.0448
  117SOPE  C21012316   2.138   4.183   5.921  0.3707  0.1311 -0.0845
  117SOPE  H10112317   2.037   4.156   5.888  0.0855  0.2191  0.6899
  117SOPE  C21112318   2.238   4.201   5.809  0.0054  0.3503  0.1803
  117SOPE  H11R12319   2.338   4.240   5.836  0.9489 -1.5787 -0.3524
  117SOPE  H11S12320   2.192   4.265   5.731 -0.5947 -0.0268  0.2224
  117SOPE  C21212321   2.258   4.066   5.742  0.8910  0.3071  0.4664
  117SOPE  H12R12322   2.165   4.040   5.688  1.3383  2.2559 -1.4045
  117SOPE  H12S12323   2.287   3.980   5.806  1.2165  1.5899  2.1439
  117SOPE  C21312324   2.371   4.069   5.626  0.1469  0.4499 -0.6918
  117SOPE  H13R12325   2.454   4.131   5.666 -0.3811  0.9141 -0.3027
  117SOPE  H13S12326   2.313   4.121   5.547 -0.8722 -0.4031 -0.5282
  117SOPE  C21412327   2.406   3.926   5.576  0.7597 -0.1800 -0.5132
  117SOPE  H14R12328   2.319   3.858   5.591  1.4808 -1.0263 -0.0258
  117SOPE  H14S12329   2.487   3.897   5.647  0.6716 -0.8476 -0.6788
  117SOPE  C21512330   2.467   3.903   5.440 -0.1494  0.0690 -0.0857
  117SOPE  H15R12331   2.501   3.798   5.432  0.4241  0.3464 -1.5571
  117SOPE  H15S12332   2.540   3.985   5.424  0.5157 -0.1781  1.4616
  117SOPE  C21612333   2.357   3.909   5.340  0.2623 -0.5569  0.8210
  117SOPE  H16R12334   2.304   4.007   5.339 -1.3077 -1.3702  0.0187
  117SOPE  H16S12335   2.282   3.827   5.344 -3.1320  2.2614  0.1733
  117SOPE  C21712336   2.421   3.895   5.197 -0.0619  0.1198 -0.8050
  117SOPE  H17R12337   2.452   3.789   5.184  1.4007  0.5060 -0.6753
  117SOPE  H17S12338   2.515   3.955   5.188  1.2359 -1.1826  2.3062
  117SOPE  C21812339   2.336   3.942   5.082 -0.3936 -0.5352  0.4679
  117SOPE  H18R12340   2.236   3.894   5.078 -1.2758  0.8979  3.1314
  117SOPE  H18S12341   2.395   3.932   4.988 -0.4098  1.0861  0.2583
  117SOPE  H18T12342   2.317   4.050   5.098  1.2909  0.1229 -1.5324
  117SOPE   C3312343   2.509   3.627   6.533 -0.5442  0.0806 -0.7133
  117SOPE   H3X12344   2.581   3.712   6.538  0.3747 -0.6475 -1.2014
  117SOPE   H3Y12345   2.411   3.656   6.577 -0.2553  1.4596 -0.9124
  117SOPE   C3412346   2.497   3.601   6.379 -1.2399  0.2391 -0.7648
  117SOPE   H4X12347   2.393   3.581   6.347 -1.6162  0.6735  0.1324
  117SOPE   H4Y12348   2.545   3.502   6.362  1.9274  0.6025  3.9470
  117SOPE   C3512349   2.562   3.710   6.296  0.4343 -0.7685  0.0079
  117SOPE   H5X12350   2.672   3.689   6.292  1.1670  2.4872  0.3702
  117SOPE   H5Y12351   2.543   3.796   6.363  0.7194 -1.3768  0.8901
  117SOPE   C3612352   2.497   3.734   6.158  0.1490  0.6602  0.0859
  117SOPE   H6X12353   2.557   3.817   6.116 -0.7416  1.5981  0.6208
  117SOPE   H6Y12354   2.389   3.750   6.181  0.5394 -0.4823  3.1973
  117SOPE   C3712355   2.506   3.609   6.074 -0.8211  0.3285 -0.2245
  117SOPE   H7X12356   2.417   3.548   6.100 -0.6142  0.1172 -0.0046
  117SOPE   H7Y12357   2.597   3.545   6.070 -0.3084  1.0446 -0.3690
  117SOPE   C3812358   2.486   3.652   5.921 -0.4041  1.0773  0.1180
  117SOPE   H8X12359   2.574   3.714   5.892  1.1282 -1.5317 -1.2644
  117SOPE   H8Y12360   2.400   3.722   5.911 -0.7956  0.7273  0.9728
  117SOPE   C3912361   2.495   3.536   5.828  0.0544  0.4585 -0.0760
  117SOPE   H9X12362   2.426   3.453   5.856 -1.2248  1.8942  1.2002
  117SOPE   H9Y12363   2.597   3.497   5.848  0.0963 -0.5081 -1.8751
  117SOPE  C31012364   2.478   3.567   5.676 -0.1928  0.2469 -0.3403
  117SOPE  H10X12365   2.536   3.659   5.653 -1.3038  1.3707  1.1881
  117SOPE  H10Y12366   2.369   3.587   5.665  0.0850  1.3073 -1.3407
  117SOPE  C31112367   2.527   3.450   5.591 -0.5784  0.4958  0.1514
  117SOPE  H11X12368   2.483   3.457   5.489  0.7011  0.2780 -0.4371
  117SOPE  H11Y12369   2.488   3.354   5.633  0.3617 -0.0358 -0.1617
  117SOPE  C31212370   2.678   3.438   5.564 -0.1028 -0.1092  0.1391
  117SOPE  H12X12371   2.722   3.421   5.665 -0.1219 -0.9941  0.0033
  117SOPE  H12Y12372   2.725   3.534   5.534  3.5476 -2.0356 -0.9269
  117SOPE  C31312373   2.718   3.336   5.458 -0.1718  0.0688 -0.4351
  117SOPE  H13X12374   2.687   3.370   5.357 -0.3888 -1.9844 -1.1008
  117SOPE  H13Y12375   2.653   3.249   5.479  1.0568 -1.2640 -1.9171
  117SOPE  C31412376   2.863   3.288   5.457 -0.0953 -0.4987 -0.4009
  117SOPE  H14X12377   2.888   3.252   5.559  0.1264 -2.8961 -1.2449
  117SOPE  H14Y12378   2.942   3.361   5.429 -0.7345  0.2158 -0.3992
  117SOPE  C31512379   2.871   3.167   5.366 -0.3164  0.4311  0.2727
  117SOPE  H15X12380   2.855   3.197   5.260  0.5605  0.6157  0.1775
  117SOPE  H15Y12381   2.798   3.087   5.389  1.8830 -1.5782  0.7260
  117SOPE  C31612382   3.002   3.093   5.385  0.2099  0.3712 -0.3039
  117SOPE  H16X12383   2.996   3.053   5.488 -1.9755 -2.7522 -1.4997
  117SOPE  H16Y12384   3.091   3.159   5.375  0.4772  0.1066  0.2661
  117SOPE  C31712385   3.010   2.962   5.305 -0.5244 -0.0942  0.1230
  117SOPE  H17X12386   2.916   2.919   5.346 -0.0193 -0.9754  0.3752
  117SOPE  H17Y12387   3.087   2.890   5.339  0.9327  1.0371 -0.6646
  117SOPE  C31812388   3.028   2.982   5.155 -0.3752  0.2243 -0.6666
  117SOPE  H18X12389   2.997   2.889   5.102 -1.7799  0.3706 -0.1522
  117SOPE  H18Y12390   3.129   3.025   5.143 -0.2645  0.7359  1.6587
  117SOPE  H18Z12391   2.955   3.058   5.121 -2.3303 -0.8012  0.9824
  118SOPE     N12392   1.351   5.336   6.979 -0.1294 -0.0561  0.1301
  118SOPE   HN112393   1.315   5.314   6.884  1.3396 -1.1750 -0.1887
  118SOPE   HN212394   1.435   5.277   6.987  0.3932  0.4070 -1.6398
  118SOPE   HN312395   1.280   5.306   7.049  1.4589 -1.9121  1.0291
  118SOPE   C1212396   1.395   5.484   6.977  0.0866 -0.1196  0.2206
  118SOPE  H12A12397   1.441   5.516   7.073 -1.5171  1.6117  0.4579
  118SOPE  H12B12398   1.301   5.542   6.963  0.6988  0.7474 -0.3589
  118SOPE   C1112399   1.491   5.511   6.856  0.7894 -0.1846 -0.1185
  118SOPE  H11A12400   1.518   5.619   6.864 -1.0753  0.4958 -2.0566
  118SOPE  H11B12401   1.436   5.513   6.760 -4.0192  0.6997  2.3418
  118SOPE     P12402   1.739   5.466   6.909  0.1911  0.0283  0.0783
  118SOPE   O1312403   1.813   5.348   6.960 -0.5052 -0.0169 -0.1903
  118SOPE   O1412404   1.722   5.577   7.003  0.9829  0.4860 -0.2446
  118SOPE   O1212405   1.592   5.418   6.863 -0.6089 -0.0526  0.0862
  118SOPE   O1112406   1.804   5.520   6.772  0.2968  0.1634  0.5118
  118SOPE    C112407   1.738   5.511   6.646 -0.3826  0.2288  0.0331
  118SOPE    HA12408   1.671   5.599   6.631  1.1087  1.3857 -0.1827
  118SOPE    HB12409   1.673   5.422   6.637 -0.6250  0.5509 -1.6776
  118SOPE    C212410   1.840   5.504   6.527 -0.1881 -0.6504  1.0501
  118SOPE    HS12411   1.928   5.571   6.536  0.9585 -1.3891 -2.7092
  118SOPE   O2112412   1.766   5.534   6.409 -0.2568  0.4408  0.1208
  118SOPE   C2112413   1.761   5.663   6.375  0.1346 -0.6049  0.3233
  118SOPE   O2212414   1.807   5.751   6.445 -0.1594 -0.1225 -0.6459
  118SOPE   C2212415   1.690   5.690   6.236 -0.3100  0.8170 -0.7129
  118SOPE   H2R12416   1.586   5.661   6.262  1.0129 -2.7791  1.3448
  118SOPE   H2S12417   1.723   5.611   6.165  0.4158 -0.3182  0.8176
  118SOPE    C312418   1.906   5.369   6.511  0.2016 -0.4437  0.4508
  118SOPE    HX12419   1.827   5.293   6.497  0.5099 -0.9096  1.1639
  118SOPE    HY12420   1.957   5.348   6.607  0.6768  1.2230  0.6043
  118SOPE   O3112421   1.996   5.376   6.398  1.0107 -0.4369  0.3242
  118SOPE   C3112422   2.089   5.291   6.394 -0.2733  0.7801  0.1561
  118SOPE   O3212423   2.095   5.196   6.467  0.2764 -0.5406 -0.0175
  118SOPE   C3212424   2.187   5.308   6.280 -0.1102 -0.1569  0.7467
  118SOPE   H2X12425   2.279   5.247   6.293 -0.0774  0.1384  1.9945
  118SOPE   H2Y12426   2.216   5.415   6.284 -2.8522  0.6499  1.1740
  118SOPE   C2312427   1.711   5.837   6.195  0.8351  0.2164 -0.4719
  118SOPE   H3R12428   1.820   5.856   6.204  0.9701 -0.8724  0.3693
  118SOPE   H3S12429   1.660   5.910   6.261 -0.8816 -0.2015 -1.2606
  118SOPE   C2412430   1.661   5.844   6.046  0.0421 -1.1768  0.1321
  118SOPE   H4R12431   1.736   5.784   5.990 -0.0625  0.0813 -1.4274
  118SOPE   H4S12432   1.562   5.794   6.034  0.3238 -1.2248 -2.3652
  118SOPE   C2512433   1.657   5.992   5.991  0.1037  0.6451 -1.2298
  118SOPE   H5R12434   1.590   6.038   6.068 -0.7663 -1.6111 -0.5573
  118SOPE   H5S12435   1.754   6.045   5.992 -0.1520  1.1252 -1.6138
  118SOPE   C2612436   1.602   6.002   5.853  0.1553 -0.3796  0.0263
  118SOPE   H6R12437   1.617   6.108   5.826 -0.0628 -0.1582  0.7695
  118SOPE   H6S12438   1.667   5.939   5.789 -0.5331  1.5297 -2.7247
  118SOPE   C2712439   1.459   5.966   5.837  0.0672 -0.1826  0.2923
  118SOPE   H7R12440   1.425   5.867   5.875  1.3154 -0.2220  1.3696
  118SOPE   H7S12441   1.391   6.028   5.900  0.4019  2.1693 -1.5212
  118SOPE   C2812442   1.421   5.982   5.688  0.3854 -0.1747  0.7875
  118SOPE   H8R12443   1.433   6.087   5.654  0.7364 -0.2392  0.7138
  118SOPE   H8S12444   1.494   5.922   5.629  0.6666  0.9197  0.0005
  118SOPE   C2912445   1.283   5.940   5.654 -0.1419 -0.6039 -0.1133
  118SOPE   H9112446   1.211   5.978   5.728  1.0694 -0.6350  1.1201
  118SOPE  C21012447   1.248   5.870   5.546 -0.1218  0.1392 -0.0482
  118SOPE  H10112448   1.141   5.845   5.531  0.3668 -0.7655 -2.4213
  118SOPE  C21112449   1.329   5.822   5.432 -0.5633 -0.6305 -0.4842
  118SOPE  H11R12450   1.307   5.714   5.421 -0.0687 -0.7411 -0.4197
  118SOPE  H11S12451   1.436   5.849   5.448 -1.3583  3.0839 -0.4869
  118SOPE  C21212452   1.286   5.882   5.297 -0.1960  0.2085  0.4804
  118SOPE  H12R12453   1.176   5.866   5.289 -0.0295 -0.4195 -0.7545
  118SOPE  H12S12454   1.320   5.825   5.208  3.1357  0.6958  1.3327
  118SOPE  C21312455   1.323   6.023   5.282  0.2551 -1.3755  0.7671
  118SOPE  H13R12456   1.434   6.032   5.290  0.2914 -0.2210 -0.7168
  118SOPE  H13S12457   1.290   6.092   5.362  0.7960  0.6731 -0.7167
  118SOPE  C21412458   1.289   6.077   5.140  0.2682  0.7329 -0.0550
  118SOPE  H14R12459   1.178   6.085   5.138  0.2659  1.0379  0.9809
  118SOPE  H14S12460   1.326   5.999   5.070  0.9244 -0.5166  1.6069
  118SOPE  C21512461   1.356   6.209   5.112  0.4514 -0.0245  0.0423
  118SOPE  H15R12462   1.464   6.212   5.135  0.3224  0.6005  0.5980
  118SOPE  H15S12463   1.318   6.290   5.178 -1.6957 -1.4569  0.6919
  118SOPE  C21612464   1.319   6.255   4.972 -0.2103 -0.4882 -0.0922
  118SOPE  H16R12465   1.213   6.290   4.971  0.2116  0.8506 -2.0895
  118SOPE  H16S12466   1.321   6.172   4.899  1.3537 -1.3564  0.8878
  118SOPE  C21712467   1.394   6.384   4.920 -0.9001  0.4139 -0.4408
  118SOPE  H17R12468   1.504   6.378   4.931 -1.0461  1.2870  2.2363
  118SOPE  H17S12469   1.375   6.471   4.987  0.7940 -0.5244  1.3437
  118SOPE  C21812470   1.360   6.411   4.777  0.5452 -0.5887  0.1840
  118SOPE  H18R12471   1.386   6.318   4.720  2.4635 -0.8674  1.4183
  118SOPE  H18S12472   1.421   6.490   4.728  0.7333  0.0077  1.3611
  118SOPE  H18T12473   1.253   6.434   4.761  0.7252  1.6222  1.7876
  118SOPE   C3312474   2.117   5.285   6.148 -0.2546 -0.2660  0.3848
  118SOPE   H3X12475   2.044   5.202   6.154  0.0172 -0.6258 -0.8645
  118SOPE   H3Y12476   2.195   5.250   6.077 -0.4596  1.9453 -1.0265
  118SOPE   C3412477   2.038   5.406   6.099  0.3942  0.1215  0.3672
  118SOPE   H4X12478   2.106   5.491   6.078 -1.0994  1.9963  2.6069
  118SOPE   H4Y12479   1.968   5.447   6.175  1.5551  3.2206 -0.0963
  118SOPE   C3512480   1.959   5.364   5.967 -0.5023  0.5156 -0.1694
  118SOPE   H5X12481   1.867   5.313   6.002 -0.0457 -0.1284  0.1186
  118SOPE   H5Y12482   2.022   5.293   5.908 -2.2884  1.2959 -3.2418
  118SOPE   C3612483   1.917   5.471   5.867  0.8088 -0.2112  0.7505
  118SOPE   H6X12484   2.002   5.482   5.795  0.8379 -1.4215  0.5822
  118SOPE   H6Y12485   1.902   5.569   5.917 -0.3215 -1.5924  3.2871
  118SOPE   C3712486   1.776   5.460   5.786  0.0799 -0.0597  1.0231
  118SOPE   H7X12487   1.775   5.357   5.743 -1.1412  0.6308 -0.7291
  118SOPE   H7Y12488   1.784   5.536   5.706  1.9888 -3.0168 -1.8679
  118SOPE   C3812489   1.647   5.478   5.866 -0.0227  0.0586 -0.2557
  118SOPE   H8X12490   1.636   5.566   5.933  2.9475  0.2186  0.1865
  118SOPE   H8Y12491   1.633   5.398   5.942 -0.6686 -1.1074 -1.5580
  118SOPE   C3912492   1.519   5.465   5.766  0.9999 -0.0569 -0.6234
  118SOPE   H9X12493   1.538   5.374   5.706  1.5292 -0.1719 -0.2897
  118SOPE   H9Y12494   1.504   5.544   5.689 -0.7791 -0.4202 -0.6843
  118SOPE  C31012495   1.385   5.451   5.846 -0.0170  0.7810  0.9497
  118SOPE  H10X12496   1.363   5.551   5.889 -0.3526  1.0977  0.0605
  118SOPE  H10Y12497   1.398   5.377   5.928  0.8810  3.7811  3.7298
  118SOPE  C31112498   1.274   5.409   5.756 -0.3561 -0.0925 -0.0706
  118SOPE  H11X12499   1.184   5.384   5.816 -0.5649  0.2577 -0.2355
  118SOPE  H11Y12500   1.302   5.308   5.720 -0.3600  0.0204 -0.3934
  118SOPE  C31212501   1.240   5.488   5.630  0.4253  0.0021  0.2573
  118SOPE  H12X12502   1.340   5.511   5.588  1.4620 -0.1251  2.5107
  118SOPE  H12Y12503   1.201   5.586   5.664  1.1773  0.5638 -0.4472
  118SOPE  C31312504   1.147   5.414   5.529 -0.1835 -0.1074  0.1775
  118SOPE  H13X12505   1.141   5.486   5.445 -0.9209  0.9285  1.0957
  118SOPE  H13Y12506   1.039   5.420   5.556 -0.6242 -1.6207 -1.0654
  118SOPE  C31412507   1.194   5.280   5.469 -0.3940 -0.5450 -0.3292
  118SOPE  H14X12508   1.170   5.204   5.547  1.1134  0.8656  1.6378
  118SOPE  H14Y12509   1.304   5.273   5.480 -0.5945 -2.1724  1.3035
  118SOPE  C31512510   1.143   5.261   5.322  0.1037 -0.0269 -0.8021
  118SOPE  H15X12511   1.191   5.340   5.260  2.4608 -0.5311  0.2710
  118SOPE  H15Y12512   1.033   5.270   5.330 -0.2359 -0.6703 -3.6250
  118SOPE  C31612513   1.154   5.118   5.262  0.3065 -0.8467  0.3011
  118SOPE  H16X12514   1.095   5.053   5.330 -1.2465  1.8369  1.6792
  118SOPE  H16Y12515   1.261   5.089   5.266 -0.0392 -2.1232  2.5969
  118SOPE  C31712516   1.103   5.105   5.116 -0.2892  0.1278 -0.5199
  118SOPE  H17X12517   1.177   5.143   5.042 -1.5264  0.9759 -1.3546
  118SOPE  H17Y12518   1.005   5.154   5.100  0.5184  2.0115  0.0757
  118SOPE  C31812519   1.082   4.959   5.087 -0.5002 -0.3155  0.4062
  118SOPE  H18X12520   0.974   4.933   5.090 -0.5868  0.0911  1.0217
  118SOPE  H18Y12521   1.132   4.891   5.159  1.9622 -0.7456 -1.5521
  118SOPE  H18Z12522   1.113   4.934   4.983  1.5638  2.1328  0.3190
  119SOPE     N12523   3.966   4.670   7.312 -0.3624  0.0167 -0.1950
  119SOPE   HN112524   4.022   4.622   7.385 -1.2302 -1.3026 -0.3728
  119SOPE   HN212525   3.929   4.595   7.250  0.8242 -0.5761 -0.2033
  119SOPE   HN312526   4.030   4.736   7.263 -1.5169  1.1573 -0.2386
  119SOPE   C1212527   3.854   4.744   7.381  0.2297 -0.0495 -0.1187
  119SOPE  H12A12528   3.828   4.677   7.466 -0.3541 -0.1871 -0.4014
  119SOPE  H12B12529   3.763   4.747   7.317  0.5508  3.1347 -0.5785
  119SOPE   C1112530   3.897   4.886   7.424  0.2482  0.6881 -0.2702
  119SOPE  H11A12531   3.918   4.882   7.533  0.0337  0.5772 -0.2325
  119SOPE  H11B12532   3.805   4.950   7.419 -0.9348 -0.8011  1.3744
  119SOPE     P12533   4.112   5.037   7.413 -0.1424  0.3546  0.1074
  119SOPE   O1312534   4.247   5.036   7.353  0.3832  0.0491 -0.1376
  119SOPE   O1412535   4.124   5.004   7.559  0.2683 -0.0262  0.1041
  119SOPE   O1212536   4.015   4.933   7.350 -0.5176 -0.2085  0.3589
  119SOPE   O1112537   4.034   5.175   7.395  0.2304  0.0186 -0.1407
  119SOPE    C112538   3.985   5.208   7.260 -0.2304 -0.3574  0.0202
  119SOPE    HA12539   3.890   5.154   7.239 -0.0463  0.0550 -2.0466
  119SOPE    HB12540   4.062   5.188   7.183  0.0325  1.8563 -0.3715
  119SOPE    C212541   3.949   5.357   7.245 -0.7584  0.6018  0.4348
  119SOPE    HS12542   3.889   5.385   7.334  1.1018  1.1055  1.5709
  119SOPE   O2112543   3.880   5.377   7.120 -0.4068  0.5164  0.2302
  119SOPE   C2112544   3.791   5.475   7.112  0.4004  0.3737 -0.5963
  119SOPE   O2212545   3.755   5.540   7.210  0.1811 -0.0846  0.1750
  119SOPE   C2212546   3.734   5.479   6.967 -0.5698  0.4355  0.3128
  119SOPE   H2R12547   3.718   5.586   6.942  0.9967  0.6702  0.1976
  119SOPE   H2S12548   3.655   5.401   6.962  2.9624 -3.4987  0.1208
  119SOPE    C312549   4.071   5.456   7.241 -0.4557 -0.5020 -0.8169
  119SOPE    HX12550   4.121   5.449   7.340 -2.1103 -2.0587 -0.0357
  119SOPE    HY12551   4.022   5.555   7.229  0.6586  0.3907  1.4217
  119SOPE   O3112552   4.160   5.425   7.142  0.4665  0.2598  0.7204
  119SOPE   C3112553   4.281   5.483   7.147  0.4771  0.3867  0.7047
  119SOPE   O3212554   4.307   5.577   7.212  0.4548 -0.1537 -0.1739
  119SOPE   C3212555   4.367   5.412   7.046 -0.1445 -0.1993 -0.4628
  119SOPE   H2X12556   4.313   5.330   6.994 -0.1528  0.1893 -1.0789
  119SOPE   H2Y12557   4.445   5.370   7.113  1.9753  1.4145 -1.7743
  119SOPE   C2312558   3.833   5.436   6.854 -0.6190  0.7005  0.1722
  119SOPE   H3R12559   3.788   5.398   6.760  2.7167  0.7950 -1.6266
  119SOPE   H3S12560   3.905   5.356   6.885 -1.3394 -1.3474 -2.9474
  119SOPE   C2412561   3.918   5.556   6.811  0.5043  0.0989  0.1726
  119SOPE   H4R12562   3.848   5.634   6.773  0.6896 -1.5867 -4.2095
  119SOPE   H4S12563   3.974   5.597   6.898  2.6410 -0.7018 -0.7761
  119SOPE   C2512564   4.029   5.523   6.716 -0.0683 -0.0856  0.2602
  119SOPE   H5R12565   4.091   5.439   6.756  1.2704  0.3958 -0.7052
  119SOPE   H5S12566   3.983   5.496   6.618  0.6818 -0.5011  0.0127
  119SOPE   C2612567   4.133   5.633   6.697  0.2006 -0.1348 -0.3966
  119SOPE   H6R12568   4.088   5.725   6.655  1.8678  1.0065  0.2219
  119SOPE   H6S12569   4.179   5.667   6.793 -0.6503 -2.2658  0.8428
  119SOPE   C2712570   4.242   5.590   6.593 -0.2621  0.1868  0.0021
  119SOPE   H7R12571   4.297   5.502   6.632 -2.4365 -1.2607 -0.0054
  119SOPE   H7S12572   4.181   5.537   6.517 -2.1135 -0.4365  1.8050
  119SOPE   C2812573   4.329   5.702   6.544  0.4511  0.0165 -0.3360
  119SOPE   H8R12574   4.359   5.754   6.638  1.0881  0.1652 -0.6184
  119SOPE   H8S12575   4.420   5.665   6.492  1.2091 -0.4560  1.2661
  119SOPE   C2912576   4.252   5.797   6.468 -0.2764 -0.0412  0.2129
  119SOPE   H9112577   4.200   5.873   6.528  2.6689  2.2708  0.1214
  119SOPE  C21012578   4.223   5.802   6.336 -0.1262 -0.3120  0.3847
  119SOPE  H10112579   4.158   5.884   6.301 -1.2053 -0.1688  2.5590
  119SOPE  C21112580   4.270   5.704   6.224 -0.4973  0.1091  0.3656
  119SOPE  H11R12581   4.232   5.600   6.230  2.9364 -1.3412 -0.2635
  119SOPE  H11S12582   4.379   5.687   6.243 -0.9929 -2.1118  1.7184
  119SOPE  C21212583   4.256   5.749   6.079  0.0187 -0.0172 -0.8362
  119SOPE  H12R12584   4.333   5.715   6.008 -0.1982 -1.1527 -0.5418
  119SOPE  H12S12585   4.263   5.860   6.071 -0.6083  0.2697  1.6072
  119SOPE  C21312586   4.115   5.707   6.024 -0.1915  0.2710  0.6830
  119SOPE  H13R12587   4.035   5.759   6.080 -1.5207 -2.7415  1.7781
  119SOPE  H13S12588   4.113   5.597   6.034 -0.7982  0.3610  1.5904
  119SOPE  C21412589   4.101   5.764   5.878  0.1754  0.1186 -0.5557
  119SOPE  H14R12590   4.157   5.860   5.881  0.6265 -0.1634  0.0539
  119SOPE  H14S12591   3.994   5.787   5.859 -0.1690 -2.4811 -2.1601
  119SOPE  C21512592   4.154   5.662   5.767  0.0766  0.2264  0.2460
  119SOPE  H15R12593   4.102   5.566   5.786 -1.7211  0.9126 -0.9442
  119SOPE  H15S12594   4.261   5.637   5.786  0.2104  1.4828  1.3031
  119SOPE  C21612595   4.126   5.711   5.629  0.5151  0.1002  0.3054
  119SOPE  H16R12596   4.181   5.806   5.612 -1.9617  1.4459 -0.7310
  119SOPE  H16S12597   4.020   5.746   5.631  1.1948  2.3035  2.2458
  119SOPE  C21712598   4.145   5.612   5.514 -0.4339 -0.6366 -0.6612
  119SOPE  H17R12599   4.064   5.538   5.537 -1.7183  1.0241  0.4117
  119SOPE  H17S12600   4.244   5.561   5.515 -1.1977 -2.1761  0.5164
  119SOPE  C21812601   4.123   5.673   5.380 -0.0107 -0.2644 -0.2172
  119SOPE  H18R12602   4.020   5.715   5.375 -0.3221 -0.9346  0.4563
  119SOPE  H18S12603   4.118   5.606   5.291 -1.0576 -0.2233 -0.1983
  119SOPE  H18T12604   4.201   5.750   5.360 -1.6634  1.1296 -1.5848
  119SOPE   C3312605   4.422   5.519   6.947 -0.2841  0.2990 -0.4004
  119SOPE   H3X12606   4.439   5.614   7.001 -0.1241 -0.9203  1.8173
  119SOPE   H3Y12607   4.344   5.522   6.868 -0.2991 -0.3950 -0.4140
  119SOPE   C3412608   4.550   5.462   6.892 -0.0418  0.4981 -0.7934
  119SOPE   H4X12609   4.539   5.352   6.881 -1.9229  0.5875 -0.0964
  119SOPE   H4Y12610   4.623   5.490   6.971  0.6857  1.8128 -1.8792
  119SOPE   C3512611   4.587   5.524   6.749 -0.0881 -0.3131  0.1573
  119SOPE   H5X12612   4.574   5.634   6.749  0.8590 -0.1747 -1.3478
  119SOPE   H5Y12613   4.515   5.484   6.674 -1.8672  1.2413  0.9550
  119SOPE   C3612614   4.729   5.490   6.708 -0.5623  0.4857 -0.3129
  119SOPE   H6X12615   4.749   5.382   6.697  0.4502  0.8215 -2.4018
  119SOPE   H6Y12616   4.799   5.528   6.786 -1.1595 -0.7415  0.8522
  119SOPE   C3712617   4.777   5.563   6.583 -0.6763  0.5372 -0.3714
  119SOPE   H7X12618   4.802   5.668   6.606 -1.9382  0.6712  0.4856
  119SOPE   H7Y12619   4.696   5.557   6.507  0.1439 -1.4975 -1.1787
  119SOPE   C3812620   4.905   5.512   6.521 -0.2439 -0.4659 -0.0543
  119SOPE   H8X12621   4.900   5.403   6.500  1.6288 -0.2289 -2.0237
  119SOPE   H8Y12622   4.995   5.526   6.585 -1.1385 -2.4937  1.7984
  119SOPE   C3912623   4.924   5.573   6.374  0.2544 -0.5646 -0.4182
  119SOPE   H9X12624   4.909   5.683   6.381 -0.1570 -0.6408 -0.0779
  119SOPE   H9Y12625   4.832   5.546   6.318  1.1419  0.2645 -2.3918
  119SOPE  C31012626   5.060   5.546   6.307 -0.0518  0.5703 -0.1878
  119SOPE  H10X12627   5.055   5.435   6.306  2.8102  0.3723  0.5084
  119SOPE  H10Y12628   5.141   5.572   6.378 -0.8184 -2.6066  2.1273
  119SOPE  C31112629   5.087   5.601   6.172  0.6493 -0.4948  0.1334
  119SOPE  H11X12630   5.184   5.572   6.127  1.7541  0.4379  1.8172
  119SOPE  H11Y12631   5.101   5.708   6.195  0.1512 -0.7608  1.7853
  119SOPE  C31212632   4.970   5.578   6.071  0.4840 -0.2702  0.4447
  119SOPE  H12X12633   4.877   5.625   6.109  1.3183  0.4486  1.6394
  119SOPE  H12Y12634   4.955   5.468   6.075  2.3604 -0.6176 -0.8923
  119SOPE  C31312635   5.002   5.642   5.938 -0.7027 -0.5645  0.6488
  119SOPE  H13X12636   5.095   5.587   5.911 -0.6913 -0.1695 -0.1386
  119SOPE  H13Y12637   5.038   5.746   5.947 -0.0941 -0.6766 -0.3721
  119SOPE  C31412638   4.906   5.631   5.823  0.5023 -0.2063  1.0577
  119SOPE  H14X12639   4.820   5.700   5.839  1.0669  1.0264 -0.9315
  119SOPE  H14Y12640   4.861   5.529   5.819  4.0638 -1.8980 -1.9008
  119SOPE  C31512641   4.970   5.676   5.688 -0.1177  0.0382  0.7244
  119SOPE  H15X12642   4.895   5.674   5.607  0.9320  1.0762 -0.3205
  119SOPE  H15Y12643   5.037   5.593   5.659  2.8192  1.7853  1.9494
  119SOPE  C31612644   5.042   5.805   5.691 -0.2826  0.4675 -0.4110
  119SOPE  H16X12645   5.118   5.827   5.768  1.4311 -0.6896 -1.6810
  119SOPE  H16Y12646   4.969   5.889   5.696 -0.1722  0.8038 -2.9511
  119SOPE  C31712647   5.124   5.837   5.565  0.1564  0.1198 -0.7055
  119SOPE  H17X12648   5.067   5.832   5.470 -2.3099  0.9980  0.6521
  119SOPE  H17Y12649   5.217   5.775   5.561  1.1302  1.4900 -0.0697
  119SOPE  C31812650   5.159   5.986   5.579  0.0328  0.5104  1.2080
  119SOPE  H18X12651   5.074   6.053   5.606  1.4990  3.6060 -1.2155
  119SOPE  H18Y12652   5.204   6.032   5.488 -0.5883 -0.0568  0.6067
  119SOPE  H18Z12653   5.238   5.999   5.657 -0.8894  1.8859  1.9590
  120SOPE     N12654   1.748   2.418   7.512 -0.4504  0.1975  0.1837
  120SOPE   HN112655   1.720   2.323   7.543  0.4697 -0.9837 -2.3758
  120SOPE   HN212656   1.756   2.476   7.599  1.3426  1.0131 -0.4660
  120SOPE   HN312657   1.682   2.452   7.439  0.5015  0.8548 -0.3959
  120SOPE   C1212658   1.881   2.403   7.446  0.3287 -0.0111  0.5958
  120SOPE  H12A12659   1.946   2.344   7.513 -1.8469  0.4175  3.2350
  120SOPE  H12B12660   1.932   2.501   7.433  0.8660 -0.3595  0.0273
  120SOPE   C1112661   1.876   2.338   7.299  0.2148 -0.2295 -0.7310
  120SOPE  H11A12662   1.843   2.235   7.324 -1.9764  0.4944 -0.5052
  120SOPE  H11B12663   1.980   2.346   7.261  0.2732  1.1400 -0.3189
  120SOPE     P12664   1.791   2.522   7.126 -0.2436  0.6157 -0.2504
  120SOPE   O1312665   1.887   2.615   7.190 -0.2557 -0.3652  0.5335
  120SOPE   O1412666   1.662   2.571   7.072  0.1482  0.1725  0.1017
  120SOPE   O1212667   1.771   2.394   7.217  0.0045 -0.1902  0.7479
  120SOPE   O1112668   1.873   2.463   7.006 -0.0964  0.9679  0.1111
  120SOPE    C112669   1.813   2.363   6.922  0.6477  0.5472 -0.8464
  120SOPE    HA12670   1.790   2.407   6.823  1.0265  3.4204  0.2273
  120SOPE    HB12671   1.725   2.309   6.962  1.2300  0.0491 -0.2005
  120SOPE    C212672   1.924   2.255   6.897 -0.1207 -0.7371 -0.1362
  120SOPE    HS12673   1.944   2.203   6.993  2.9615  2.3099  1.0743
  120SOPE   O2112674   2.041   2.315   6.836  0.1369  0.7141  0.0614
  120SOPE   C2112675   2.158   2.261   6.863 -0.1498 -0.4312 -0.0962
  120SOPE   O2212676   2.171   2.160   6.934  0.0429  0.1815  0.2264
  120SOPE   C2212677   2.270   2.338   6.786 -0.1402  0.4635 -1.0567
  120SOPE   H2R12678   2.360   2.349   6.851  0.6527  1.0676 -2.2181
  120SOPE   H2S12679   2.224   2.439   6.779 -0.2974  0.4887  0.0735
  120SOPE    C312680   1.865   2.136   6.807 -0.8938 -0.1169 -0.1093
  120SOPE    HX12681   1.781   2.090   6.862  0.4461 -1.7598  0.6536
  120SOPE    HY12682   1.951   2.066   6.803  0.0664  1.0578 -1.1003
  120SOPE   O3112683   1.811   2.180   6.675 -0.4420  0.4474  0.0932
  120SOPE   C3112684   1.889   2.160   6.568  0.4213  0.2608 -0.2535
  120SOPE   O3212685   2.006   2.119   6.571  0.1602 -0.3968 -0.5139
  120SOPE   C3212686   1.811   2.178   6.440  0.3191 -0.2901 -0.2437
  120SOPE   H2X12687   1.785   2.286   6.433  0.3867 -0.3731 -2.0039
  120SOPE   H2Y12688   1.720   2.114   6.449  1.3863 -1.8356 -0.0839
  120SOPE   C2312689   2.307   2.281   6.654 -0.1324  0.2363  0.0565
  120SOPE   H3R12690   2.218   2.265   6.589  0.5568 -1.6846 -0.4780
  120SOPE   H3S12691   2.346   2.179   6.677  1.6194  0.8665  0.0193
  120SOPE   C2412692   2.417   2.365   6.588  0.8031  0.7594  1.1943
  120SOPE   H4R12693   2.389   2.471   6.569 -0.5612 -0.2196 -3.7571
  120SOPE   H4S12694   2.508   2.358   6.651  1.5783  2.5324  0.3409
  120SOPE   C2512695   2.453   2.315   6.443  0.1930  0.2482  0.6216
  120SOPE   H5R12696   2.504   2.216   6.453  1.5657  0.9276  0.6246
  120SOPE   H5S12697   2.356   2.314   6.390 -0.1217  2.2705  1.0999
  120SOPE   C2612698   2.552   2.406   6.369 -0.8794 -0.2181 -0.4586
  120SOPE   H6R12699   2.509   2.508   6.373 -0.2241  0.1421 -1.8577
  120SOPE   H6S12700   2.653   2.413   6.415 -1.1843 -1.0478  0.3626
  120SOPE   C2712701   2.562   2.381   6.215  0.6055  0.9033  0.3777
  120SOPE   H7R12702   2.596   2.277   6.195 -1.2656  0.5002 -0.9462
  120SOPE   H7S12703   2.458   2.390   6.178  0.8531 -0.1767 -0.6063
  120SOPE   C2812704   2.650   2.486   6.151  0.1361  0.3132  0.3534
  120SOPE   H8R12705   2.640   2.467   6.042 -0.1117  0.8214  0.2812
  120SOPE   H8S12706   2.602   2.586   6.158 -2.4997 -0.8843  0.3998
  120SOPE   C2912707   2.796   2.476   6.193  0.4008  0.0453  0.9195
  120SOPE   H9112708   2.815   2.510   6.295 -0.3702  0.6203  0.8828
  120SOPE  C21012709   2.895   2.408   6.122  0.7710  0.4360  0.2571
  120SOPE  H10112710   3.000   2.415   6.153  0.8747 -1.6013  0.4799
  120SOPE  C21112711   2.869   2.348   5.984  0.0523 -0.2256  0.1554
  120SOPE  H11R12712   2.812   2.415   5.916  1.0865  0.5444  0.0256
  120SOPE  H11S12713   2.803   2.261   6.005  2.1986 -1.3826  2.9223
  120SOPE  C21212714   3.000   2.310   5.906 -0.1508  0.6397  0.1614
  120SOPE  H12R12715   3.066   2.266   5.983 -0.0384 -2.3477 -1.4837
  120SOPE  H12S12716   3.055   2.391   5.853 -1.3710  1.3932  0.0101
  120SOPE  C21312717   2.963   2.206   5.796 -0.6220  0.0462  0.7335
  120SOPE  H13R12718   2.897   2.253   5.721  0.8701  0.8013 -0.1555
  120SOPE  H13S12719   2.922   2.108   5.831 -0.5365 -0.7261 -1.2351
  120SOPE  C21412720   3.083   2.167   5.712 -0.4434 -0.8522  0.7251
  120SOPE  H14R12721   3.139   2.093   5.774 -0.3808  0.1090  1.8559
  120SOPE  H14S12722   3.159   2.247   5.701 -1.2391 -0.1025  0.5353
  120SOPE  C21512723   3.036   2.127   5.570  0.0240  0.3006 -0.6858
  120SOPE  H15R12724   2.975   2.208   5.524 -2.1747 -1.1949 -0.5261
  120SOPE  H15S12725   2.971   2.037   5.572 -0.5898  0.7426 -0.5075
  120SOPE  C21612726   3.150   2.092   5.479 -0.2811 -0.2860  0.5312
  120SOPE  H16R12727   3.203   2.004   5.520 -1.4692 -1.3137 -0.0779
  120SOPE  H16S12728   3.224   2.175   5.483  1.8441 -2.0609 -0.0313
  120SOPE  C21712729   3.105   2.061   5.339  0.4228 -0.4884 -0.3362
  120SOPE  H17R12730   3.006   2.011   5.330  0.5036 -0.5175 -1.1992
  120SOPE  H17S12731   3.170   1.978   5.303 -0.8534 -1.0822 -1.3474
  120SOPE  C21812732   3.118   2.174   5.242 -0.2242  0.1060 -0.3877
  120SOPE  H18R12733   3.218   2.222   5.247 -0.9071  1.7026 -1.1694
  120SOPE  H18S12734   3.049   2.258   5.267  0.8970  0.6143  1.1516
  120SOPE  H18T12735   3.097   2.134   5.141 -0.1886  0.6355 -0.6057
  120SOPE   C3312736   1.890   2.147   6.312  0.1854  0.1063  0.2503
  120SOPE   H3X12737   1.898   2.036   6.300 -1.4130  0.2060 -2.5930
  120SOPE   H3Y12738   1.993   2.187   6.318  1.0545 -1.9014 -0.5264
  120SOPE   C3412739   1.830   2.218   6.186  0.4586 -0.3776  0.1127
  120SOPE   H4X12740   1.908   2.233   6.109  0.3252 -0.8910 -0.1267
  120SOPE   H4Y12741   1.805   2.319   6.225  3.1417  0.5086 -0.2888
  120SOPE   C3512742   1.696   2.148   6.141 -0.3702 -0.3867  0.3566
  120SOPE   H5X12743   1.625   2.149   6.226 -2.8188  1.5617 -1.5751
  120SOPE   H5Y12744   1.719   2.040   6.126  1.0951 -0.3463  1.9105
  120SOPE   C3612745   1.632   2.209   6.011 -0.4258  0.0796  0.7547
  120SOPE   H6X12746   1.604   2.311   6.045 -1.6169 -0.5184  1.6709
  120SOPE   H6Y12747   1.531   2.167   5.992 -2.4185  5.3167 -2.2270
  120SOPE   C3712748   1.726   2.196   5.888 -0.8112 -0.1505 -1.2407
  120SOPE   H7X12749   1.738   2.088   5.866  1.6800 -0.6243  1.7056
  120SOPE   H7Y12750   1.824   2.235   5.924 -1.0248 -2.3837  2.1884
  120SOPE   C3812751   1.675   2.278   5.773 -0.4267  0.4626  0.0798
  120SOPE   H8X12752   1.685   2.383   5.806 -0.6684  0.3853  0.4039
  120SOPE   H8Y12753   1.566   2.261   5.761 -0.1912 -1.5129  0.4428
  120SOPE   C3912754   1.761   2.272   5.651  0.0556 -0.0731  0.5368
  120SOPE   H9X12755   1.770   2.165   5.624 -1.9534 -0.1318 -0.0457
  120SOPE   H9Y12756   1.863   2.296   5.687  0.0419  0.3778  0.2794
  120SOPE  C31012757   1.708   2.357   5.534 -0.0160  0.2955 -0.1331
  120SOPE  H10X12758   1.685   2.460   5.570  0.5983 -0.1733  1.7186
  120SOPE  H10Y12759   1.613   2.307   5.505  0.2667 -0.0926 -0.4047
  120SOPE  C31112760   1.805   2.361   5.413 -0.4534  0.4735  0.4593
  120SOPE  H11X12761   1.808   2.255   5.379 -1.2292  1.2742 -2.4019
  120SOPE  H11Y12762   1.901   2.399   5.453 -0.8336  0.4365  1.4348
  120SOPE  C31212763   1.740   2.448   5.305 -0.4864 -0.1711 -0.0254
  120SOPE  H12X12764   1.726   2.554   5.335 -1.7011 -0.3099 -0.0459
  120SOPE  H12Y12765   1.635   2.413   5.304 -1.1312  1.6481 -1.2550
  120SOPE  C31312766   1.796   2.442   5.161  0.5925 -0.5471 -0.7091
  120SOPE  H13X12767   1.747   2.352   5.120  0.4657 -1.3190  1.0448
  120SOPE  H13Y12768   1.907   2.445   5.162  0.5970 -0.4721  0.7344
  120SOPE  C31412769   1.738   2.563   5.081 -0.5821  0.2427  0.2308
  120SOPE  H14X12770   1.792   2.656   5.109 -1.2256  0.3711  1.0707
  120SOPE  H14Y12771   1.639   2.579   5.128  1.2715 -0.0833  4.7178
  120SOPE  C31512772   1.729   2.533   4.932  0.2857  0.1097 -0.3162
  120SOPE  H15X12773   1.703   2.428   4.906 -0.7929  0.8550 -2.4812
  120SOPE  H15Y12774   1.830   2.543   4.887  0.9716 -0.2514  1.0812
  120SOPE  C31612775   1.647   2.629   4.846  0.5381 -0.5228  0.1326
  120SOPE  H16X12776   1.683   2.734   4.844 -0.6456  0.1079  3.7504
  120SOPE  H16Y12777   1.547   2.639   4.895  1.3913  0.0228  1.8463
  120SOPE  C31712778   1.645   2.589   4.701 -0.4306 -0.3452  0.4696
  120SOPE  H17X12779   1.619   2.481   4.707  0.1458 -0.5351 -0.2850
  120SOPE  H17Y12780   1.743   2.594   4.649 -0.6104 -0.9552  0.0549
  120SOPE  C31812781   1.539   2.669   4.622 -0.9069  0.1537  0.1047
  120SOPE  H18X12782   1.450   2.671   4.689 -1.4787  0.8955 -0.6544
  120SOPE  H18Y12783   1.513   2.620   4.526  0.4544 -0.3999  0.0012
  120SOPE  H18Z12784   1.563   2.773   4.590 -2.7071  0.6620  0.3041
  121SOPE     N12785   3.993   6.041   7.369  0.2197  0.5605 -0.0426
  121SOPE   HN112786   4.046   5.994   7.445 -1.0793  1.6311  1.6091
  121SOPE   HN212787   3.920   5.976   7.333  0.6140  0.2968 -0.3704
  121SOPE   HN312788   4.057   6.071   7.293  0.7758  1.2313  0.6670
  121SOPE   C1212789   3.940   6.176   7.418  0.0193 -0.4826 -0.2390
  121SOPE  H12A12790   4.023   6.229   7.468 -0.1404 -0.4534 -0.0061
  121SOPE  H12B12791   3.856   6.163   7.489  0.2184 -0.5110 -0.0080
  121SOPE   C1112792   3.880   6.258   7.306 -0.2798  0.4382  0.1591
  121SOPE  H11A12793   3.945   6.275   7.217  0.0491 -1.3831  0.0161
  121SOPE  H11B12794   3.865   6.360   7.346 -3.4833 -0.0539  0.4767
  121SOPE     P12795   3.642   6.307   7.210 -0.1691 -0.2615  0.0330
  121SOPE   O1312796   3.591   6.405   7.313 -0.4756 -0.1049 -0.6905
  121SOPE   O1412797   3.540   6.237   7.122 -0.2531 -0.9167  0.2330
  121SOPE   O1212798   3.750   6.204   7.266 -0.4660 -0.1118 -0.8026
  121SOPE   O1112799   3.726   6.390   7.108 -0.0679 -0.7351 -0.3739
  121SOPE    C112800   3.775   6.350   6.985 -0.3383  0.2422  0.5757
  121SOPE    HA12801   3.771   6.240   6.968  0.1642  0.5370 -1.6851
  121SOPE    HB12802   3.871   6.401   6.964 -0.1265  0.5114  2.0438
  121SOPE    C212803   3.678   6.408   6.877  0.0262  0.3258  0.2181
  121SOPE    HS12804   3.584   6.351   6.897 -0.6427  0.7715 -1.4936
  121SOPE   O2112805   3.731   6.379   6.740 -0.1244  0.3854  0.5328
  121SOPE   C2112806   3.644   6.356   6.646  0.4857  0.0862 -0.3760
  121SOPE   O2212807   3.526   6.384   6.653  0.4869  0.6349  0.5746
  121SOPE   C2212808   3.707   6.290   6.524  0.6724  0.1267  0.1373
  121SOPE   H2R12809   3.714   6.182   6.551 -2.5839  0.1492  1.6113
  121SOPE   H2S12810   3.805   6.339   6.509  0.7124  0.2963  0.9077
  121SOPE    C312811   3.646   6.561   6.881  0.8342  0.6090 -0.9485
  121SOPE    HX12812   3.734   6.626   6.859 -0.0859  1.6652 -1.6093
  121SOPE    HY12813   3.626   6.588   6.987  1.0822 -0.4079 -0.6338
  121SOPE   O3112814   3.530   6.604   6.799 -0.3981  0.2005  0.3931
  121SOPE   C3112815   3.518   6.734   6.787 -0.0872  0.7597  0.3270
  121SOPE   O3212816   3.583   6.820   6.846  0.3209 -0.1209 -0.2708
  121SOPE   C3212817   3.414   6.760   6.686 -0.0327 -0.5540  0.2379
  121SOPE   H2X12818   3.349   6.826   6.747 -0.9976 -2.6233  1.5340
  121SOPE   H2Y12819   3.359   6.669   6.656  0.7509 -1.2689  0.9122
  121SOPE   C2312820   3.616   6.306   6.401  0.0995 -0.1014 -0.4297
  121SOPE   H3R12821   3.554   6.399   6.403  0.5928  0.3082 -2.3894
  121SOPE   H3S12822   3.537   6.229   6.415  1.1834 -0.8116  2.2426
  121SOPE   C2412823   3.696   6.320   6.271 -0.4086  0.3453  0.4259
  121SOPE   H4R12824   3.763   6.407   6.286 -2.2772  1.8338  0.4915
  121SOPE   H4S12825   3.762   6.231   6.262  0.3931  0.9908 -0.2489
  121SOPE   C2512826   3.606   6.332   6.148 -0.2658 -0.3331  0.0336
  121SOPE   H5R12827   3.548   6.238   6.157  0.4260 -0.9121 -1.3684
  121SOPE   H5S12828   3.535   6.417   6.144  2.6728  2.3184 -0.6355
  121SOPE   C2612829   3.683   6.318   6.016  0.1625 -0.3097 -0.7323
  121SOPE   H6R12830   3.742   6.411   5.997  1.9107 -1.1272  0.4111
  121SOPE   H6S12831   3.752   6.232   6.021 -0.0049 -0.4418 -0.6978
  121SOPE   C2712832   3.591   6.301   5.902  0.1188  0.1579 -0.2217
  121SOPE   H7R12833   3.519   6.219   5.924 -0.1759  0.2778 -0.7217
  121SOPE   H7S12834   3.545   6.400   5.882  0.0998 -0.1003 -1.5742
  121SOPE   C2812835   3.664   6.275   5.771  0.0351  0.1294  0.0675
  121SOPE   H8R12836   3.601   6.288   5.680  1.1095 -3.2858 -1.3651
  121SOPE   H8S12837   3.751   6.344   5.777 -1.4086  1.8832  1.5358
  121SOPE   C2912838   3.721   6.136   5.743 -0.0047  0.0841  0.7590
  121SOPE   H9112839   3.830   6.125   5.728 -0.5681 -0.9812 -4.3641
  121SOPE  C21012840   3.652   6.027   5.722  0.5800 -0.7047 -0.2628
  121SOPE  H10112841   3.700   5.928   5.715  0.0331 -0.8911 -2.1579
  121SOPE  C21112842   3.506   6.020   5.715  0.2964  0.1928  0.1585
  121SOPE  H11R12843   3.453   6.112   5.747  1.5397  0.3948  1.7521
  121SOPE  H11S12844   3.465   5.939   5.780 -2.5074 -0.3447 -2.0415
  121SOPE  C21212845   3.461   5.977   5.572 -0.7879  0.5996  0.3816
  121SOPE  H12R12846   3.353   6.000   5.574 -0.4776  2.4029 -0.6894
  121SOPE  H12S12847   3.488   5.870   5.559 -0.6147  0.8409 -1.4135
  121SOPE  C21312848   3.512   6.051   5.446  0.0183 -0.0081  0.2381
  121SOPE  H13R12849   3.622   6.043   5.450 -0.1325 -4.6776  2.7478
  121SOPE  H13S12850   3.474   6.155   5.459  1.1705  0.4497  0.0048
  121SOPE  C21412851   3.453   5.991   5.319  0.1127 -0.5737  0.7121
  121SOPE  H14R12852   3.344   5.973   5.328 -0.2897  0.9488 -0.5348
  121SOPE  H14S12853   3.494   5.889   5.303 -2.1534 -1.3148 -0.8969
  121SOPE  C21512854   3.480   6.078   5.192  0.1578 -0.4959 -0.2151
  121SOPE  H15R12855   3.583   6.117   5.206  0.9162 -1.5713 -2.2833
  121SOPE  H15S12856   3.405   6.160   5.194  1.1799  0.4535  1.2790
  121SOPE  C21612857   3.478   6.000   5.059  0.0997 -0.1485  0.3829
  121SOPE  H16R12858   3.383   5.943   5.056 -0.3995  0.6941 -0.3204
  121SOPE  H16S12859   3.557   5.922   5.058  0.3730  0.0365  2.2854
  121SOPE  C21712860   3.469   6.085   4.926 -0.2968  0.0429 -0.3334
  121SOPE  H17R12861   3.468   6.026   4.833 -0.8056  0.6489 -0.7233
  121SOPE  H17S12862   3.566   6.139   4.911 -0.6104  0.8998  0.6071
  121SOPE  C21812863   3.363   6.188   4.917 -0.8698 -0.2378  0.2184
  121SOPE  H18R12864   3.345   6.239   5.014  0.0065 -0.7060  0.6401
  121SOPE  H18S12865   3.268   6.143   4.880 -1.3180  0.2364  0.7809
  121SOPE  H18T12866   3.392   6.269   4.846  2.4645 -1.8266 -0.4477
  121SOPE   C3312867   3.458   6.817   6.543 -1.1474 -0.2548 -0.1201
  121SOPE   H3X12868   3.501   6.919   6.554  1.2811 -1.3277  1.0318
  121SOPE   H3Y12869   3.374   6.824   6.470  0.3187  0.4985 -1.8129
  121SOPE   C3412870   3.576   6.737   6.475  0.0543  0.2483 -0.2906
  121SOPE   H4X12871   3.551   6.629   6.467 -0.5669  0.3682 -0.0336
  121SOPE   H4Y12872   3.661   6.743   6.546  2.0268  1.8069 -2.6320
  121SOPE   C3512873   3.618   6.802   6.342 -0.0001  0.1460 -0.7263
  121SOPE   H5X12874   3.705   6.738   6.316  1.0771  1.7054 -1.1088
  121SOPE   H5Y12875   3.659   6.903   6.363  1.1070 -0.2961 -0.7237
  121SOPE   C3612876   3.518   6.819   6.228  0.1669  0.1924  0.8534
  121SOPE   H6X12877   3.444   6.895   6.260 -0.6906 -0.0625 -0.4512
  121SOPE   H6Y12878   3.464   6.722   6.219 -0.7385  0.4794  2.5968
  121SOPE   C3712879   3.578   6.858   6.087  0.6430  0.3378 -0.5102
  121SOPE   H7X12880   3.636   6.951   6.102 -0.1158  0.7498 -0.0746
  121SOPE   H7Y12881   3.491   6.889   6.024 -0.6857 -0.6415  0.7712
  121SOPE   C3812882   3.655   6.742   6.019 -0.2678 -0.7400  0.3933
  121SOPE   H8X12883   3.573   6.667   6.007 -0.6347 -0.3627  0.5237
  121SOPE   H8Y12884   3.751   6.720   6.070  1.1256  2.7260 -0.5136
  121SOPE   C3912885   3.701   6.777   5.874 -0.6606 -0.4871  0.3724
  121SOPE   H9X12886   3.751   6.700   5.811  0.2274  1.1698 -1.0360
  121SOPE   H9Y12887   3.774   6.861   5.880 -1.9229  0.6605  0.0582
  121SOPE  C31012888   3.589   6.846   5.790  0.0907  0.4630 -0.4092
  121SOPE  H10X12889   3.567   6.946   5.834 -0.4015  0.2289 -0.1203
  121SOPE  H10Y12890   3.498   6.788   5.814 -0.4952  1.2912 -0.5837
  121SOPE  C31112891   3.623   6.856   5.645  0.1802  0.1695 -0.0177
  121SOPE  H11X12892   3.623   6.750   5.612 -0.0340  0.5903 -1.4208
  121SOPE  H11Y12893   3.724   6.899   5.631  0.2943 -0.3386 -0.8275
  121SOPE  C31212894   3.515   6.917   5.560  0.4227  0.6942  0.3413
  121SOPE  H12X12895   3.520   7.028   5.563 -2.1015  0.8515  0.8730
  121SOPE  H12Y12896   3.415   6.893   5.601  1.3734 -0.3476  2.1556
  121SOPE  C31312897   3.531   6.874   5.415  0.3308 -0.0586  1.3135
  121SOPE  H13X12898   3.545   6.765   5.406  0.7857 -0.0762  2.1518
  121SOPE  H13Y12899   3.626   6.922   5.382 -0.2659  1.2887  1.4970
  121SOPE  C31412900   3.416   6.931   5.324  0.7182  0.0712 -1.0165
  121SOPE  H14X12901   3.423   7.042   5.332  1.9433 -0.0585  0.0440
  121SOPE  H14Y12902   3.312   6.908   5.358  0.8150  2.4595  1.2111
  121SOPE  C31512903   3.434   6.902   5.178 -0.7192 -0.6928 -0.0591
  121SOPE  H15X12904   3.448   6.793   5.163  0.2702 -0.9162  2.1058
  121SOPE  H15Y12905   3.514   6.962   5.131 -1.4308  0.9075  0.7076
  121SOPE  C31612906   3.310   6.956   5.103  0.3648 -0.8154  0.0857
  121SOPE  H16X12907   3.266   7.040   5.160  1.8922 -0.5720  0.9731
  121SOPE  H16Y12908   3.219   6.893   5.096 -0.7919  0.3023  3.6214
  121SOPE  C31712909   3.341   6.990   4.960 -0.5226  1.2352 -0.4149
  121SOPE  H17X12910   3.380   6.896   4.914 -0.4242 -0.5965  3.0503
  121SOPE  H17Y12911   3.421   7.065   4.951  1.1171 -0.4855 -0.8200
  121SOPE  C31812912   3.217   7.047   4.885 -0.4298 -0.1510 -0.2621
  121SOPE  H18X12913   3.245   7.070   4.780 -0.3413  2.4885  0.2773
  121SOPE  H18Y12914   3.191   7.146   4.926 -0.0276  0.4153 -1.3366
  121SOPE  H18Z12915   3.128   6.980   4.894 -1.4990  1.2388 -0.1518
  122SOPE     N12916   1.898   0.658   7.754 -0.1870  0.5215 -0.1551
  122SOPE   HN112917   1.898   0.557   7.779  2.1548  0.3199 -0.7307
  122SOPE   HN212918   1.817   0.706   7.798 -0.7751  0.8930 -1.5882
  122SOPE   HN312919   1.890   0.660   7.650 -0.7869 -0.5458 -0.1458
  122SOPE   C1212920   2.033   0.707   7.791  0.6658 -0.1290  0.4436
  122SOPE  H12A12921   2.044   0.717   7.902  2.5768 -0.3755  0.3147
  122SOPE  H12B12922   2.028   0.809   7.749 -2.3668 -1.0746 -1.8518
  122SOPE   C1112923   2.147   0.630   7.722 -0.0764  0.2566  0.5365
  122SOPE  H11A12924   2.232   0.672   7.780 -1.2329  1.9068  1.1194
  122SOPE  H11B12925   2.156   0.642   7.611  2.1010 -0.7630  0.5542
  122SOPE     P12926   2.226   0.378   7.697  0.1071  0.3555  0.1158
  122SOPE   O1312927   2.250   0.279   7.807 -0.3554  0.0349 -0.6871
  122SOPE   O1412928   2.348   0.448   7.653 -0.5899 -0.4530  0.4842
  122SOPE   O1212929   2.131   0.490   7.753 -0.0280  0.3459  0.1548
  122SOPE   O1112930   2.156   0.310   7.574 -0.3384  0.6361  0.3474
  122SOPE    C112931   2.039   0.356   7.514  0.2585 -0.0668  0.9787
  122SOPE    HA12932   2.026   0.464   7.537 -2.2112 -0.1889  0.4318
  122SOPE    HB12933   1.954   0.302   7.561  1.4529 -1.1959  1.9084
  122SOPE    C212934   2.044   0.338   7.365  0.1818  0.6649 -0.3844
  122SOPE    HS12935   1.941   0.339   7.324  0.0102 -0.2913 -0.0052
  122SOPE   O2112936   2.114   0.216   7.322  0.0813  0.8007 -0.3484
  122SOPE   C2112937   2.041   0.104   7.340 -0.3019 -0.0562 -0.2255
  122SOPE   O2212938   1.940   0.093   7.404  0.5789 -0.6623  0.4135
  122SOPE   C2212939   2.120  -0.002   7.263 -0.4776 -0.5032 -0.0828
  122SOPE   H2R12940   2.079  -0.102   7.290  1.8779 -1.5803 -0.1707
  122SOPE   H2S12941   2.227   0.002   7.295 -0.5304 -1.0506  0.1704
  122SOPE    C312942   2.123   0.463   7.311  0.2041  0.4173 -0.4801
  122SOPE    HX12943   2.231   0.447   7.331 -0.0000 -1.7028 -0.7950
  122SOPE    HY12944   2.091   0.554   7.365  0.5731  1.4837 -2.0131
  122SOPE   O3112945   2.114   0.478   7.163  0.0864  0.2562 -0.0351
  122SOPE   C3112946   2.003   0.545   7.128 -0.1044  0.6772 -0.4980
  122SOPE   O3212947   1.916   0.573   7.207  0.3341 -0.4880 -0.2077
  122SOPE   C3212948   2.004   0.585   6.986  0.2799 -0.4113 -0.2264
  122SOPE   H2X12949   1.952   0.506   6.929 -1.2323  0.7040 -0.4516
  122SOPE   H2Y12950   2.112   0.594   6.962  0.3011 -0.2936 -0.0912
  122SOPE   C2312951   2.104   0.014   7.113  0.1723 -0.1541  0.7524
  122SOPE   H3R12952   2.115   0.119   7.077  0.3749  0.2126  1.8555
  122SOPE   H3S12953   2.003  -0.017   7.078 -0.6824  1.1515  1.9382
  122SOPE   C2412954   2.209  -0.069   7.038 -0.3567 -0.3536 -0.2273
  122SOPE   H4R12955   2.304  -0.078   7.095 -0.2265  0.4041 -0.3238
  122SOPE   H4S12956   2.172  -0.173   7.020 -0.4484 -0.2578 -0.5938
  122SOPE   C2512957   2.234  -0.009   6.903  0.2035  0.3429  0.1033
  122SOPE   H5R12958   2.136   0.008   6.853 -0.7994 -2.3851  0.9892
  122SOPE   H5S12959   2.297   0.082   6.917 -0.7809  1.1621 -0.6304
  122SOPE   C2612960   2.304  -0.112   6.811 -0.1958  0.0024  0.2684
  122SOPE   H6R12961   2.369  -0.174   6.877  0.1674  0.0940  0.0028
  122SOPE   H6S12962   2.231  -0.180   6.764  2.3139 -1.8316 -1.1995
  122SOPE   C2712963   2.388  -0.045   6.700  0.2782  0.2843  0.1428
  122SOPE   H7R12964   2.411   0.058   6.736  2.3630 -0.3913  0.8721
  122SOPE   H7S12965   2.485  -0.099   6.694 -0.3627 -0.7890 -0.9210
  122SOPE   C2812966   2.322  -0.049   6.559  0.0997 -0.2106 -0.3970
  122SOPE   H8R12967   2.393  -0.028   6.476  1.1279  1.3872  0.7977
  122SOPE   H8S12968   2.293  -0.156   6.553  1.4266 -0.7568  1.5957
  122SOPE   C2912969   2.206   0.049   6.552 -0.2541 -0.2191  0.0017
  122SOPE   H9112970   2.178   0.098   6.647  2.0016  0.8027  0.1939
  122SOPE  C21012971   2.140   0.092   6.441 -0.4984  0.5268 -0.7963
  122SOPE  H10112972   2.053   0.158   6.453 -0.7371  0.0786  0.0860
  122SOPE  C21112973   2.174   0.055   6.302 -0.2643 -0.5164 -1.0599
  122SOPE  H11R12974   2.122  -0.039   6.275 -1.3576 -0.8145  1.7728
  122SOPE  H11S12975   2.282   0.035   6.291  0.2410  0.5512  1.4217
  122SOPE  C21212976   2.141   0.165   6.199  0.4653  0.4013  0.0982
  122SOPE  H12R12977   2.184   0.262   6.231 -0.9820  1.4169 -0.8921
  122SOPE  H12S12978   2.031   0.179   6.200  0.4080  0.0188  2.1712
  122SOPE  C21312979   2.192   0.121   6.061  0.1618  0.3633  0.8377
  122SOPE  H13R12980   2.145   0.031   6.016  3.2709 -2.5270  2.9490
  122SOPE  H13S12981   2.302   0.105   6.060 -0.0301 -1.1925 -0.4928
  122SOPE  C21412982   2.166   0.241   5.964  0.3774  0.2952 -0.0887
  122SOPE  H14R12983   2.190   0.336   6.017 -0.2824 -0.2956  1.3483
  122SOPE  H14S12984   2.058   0.249   5.938  0.1766  0.7960  0.8429
  122SOPE  C21512985   2.242   0.221   5.830  0.5321 -0.2949  0.9265
  122SOPE  H15R12986   2.347   0.199   5.857  0.3170 -1.1152  1.1395
  122SOPE  H15S12987   2.235   0.316   5.773 -1.8749 -0.0443  1.5206
  122SOPE  C21612988   2.186   0.113   5.737 -0.3923  0.4093 -0.2999
  122SOPE  H16R12989   2.105   0.159   5.675  0.0275  1.0231 -0.4061
  122SOPE  H16S12990   2.158   0.021   5.792  1.1859 -2.0336 -3.2847
  122SOPE  C21712991   2.300   0.060   5.652 -0.3868  0.5193 -0.1657
  122SOPE  H17R12992   2.274  -0.032   5.595 -0.0697  0.6613 -0.5394
  122SOPE  H17S12993   2.377   0.031   5.726 -0.6612 -2.1189 -0.8026
  122SOPE  C21812994   2.352   0.164   5.556 -0.2090  0.0482 -0.0274
  122SOPE  H18R12995   2.396   0.253   5.607  1.8050 -0.0319 -1.5278
  122SOPE  H18S12996   2.276   0.205   5.485 -0.2922  2.3407  1.2924
  122SOPE  H18T12997   2.434   0.123   5.494 -1.1424 -1.9786  0.0138
  122SOPE   C3312998   1.943   0.723   6.971 -0.5686 -1.1049  0.1087
  122SOPE   H3X12999   1.998   0.794   7.035 -0.5117 -0.9415 -0.1172
  122SOPE   H3Y13000   1.839   0.735   7.010 -1.1973  0.4749 -1.8532
  122SOPE   C3413001   1.942   0.766   6.821  0.5783  0.0655 -0.1066
  122SOPE   H4X13002   1.875   0.854   6.811  0.7902  0.0638 -1.8385
  122SOPE   H4Y13003   1.894   0.685   6.762  1.8471 -0.3741 -0.5823
  122SOPE   C3513004   2.084   0.798   6.766 -0.2365  0.0956  0.1325
  122SOPE   H5X13005   2.138   0.704   6.741  0.1603  0.6962 -1.3297
  122SOPE   H5Y13006   2.144   0.842   6.848 -0.0816 -3.0684  1.8925
  122SOPE   C3613007   2.074   0.887   6.643  0.0734 -0.2600  0.3790
  122SOPE   H6X13008   2.054   0.991   6.678 -0.4106 -0.4625  0.7161
  122SOPE   H6Y13009   1.996   0.870   6.565  1.4289  2.3307 -1.7209
  122SOPE   C3713010   2.211   0.873   6.571 -0.0554  0.2044  0.1780
  122SOPE   H7X13011   2.238   0.766   6.555  0.1819  0.1523  0.8731
  122SOPE   H7Y13012   2.294   0.922   6.626  0.6189  1.0479 -1.5250
  122SOPE   C3813013   2.198   0.946   6.430  0.6588 -0.3771 -0.0532
  122SOPE   H8X13014   2.204   1.057   6.430  0.2214 -0.3326 -1.4394
  122SOPE   H8Y13015   2.103   0.921   6.378  0.8995  0.6176 -1.0160
  122SOPE   C3913016   2.298   0.892   6.328  0.2801 -0.0746  0.0805
  122SOPE   H9X13017   2.278   0.787   6.300 -1.0519  0.3879 -0.7962
  122SOPE   H9Y13018   2.397   0.918   6.371  1.2774 -0.5937 -1.8141
  122SOPE  C31013019   2.286   0.987   6.215 -1.1358  0.3616  0.4114
  122SOPE  H10X13020   2.327   1.086   6.243 -1.5242  0.1339  1.8857
  122SOPE  H10Y13021   2.183   1.016   6.185 -1.1644  0.5788  0.7083
  122SOPE  C31113022   2.358   0.937   6.092 -0.4498  0.5020 -0.5895
  122SOPE  H11X13023   2.342   0.832   6.059  1.7010 -0.3105  0.7462
  122SOPE  H11Y13024   2.468   0.926   6.108 -0.5402 -2.3545 -1.3614
  122SOPE  C31213025   2.328   1.038   5.979  0.3895  0.1682 -0.4446
  122SOPE  H12X13026   2.336   1.146   6.003 -2.7548  0.5244 -0.5467
  122SOPE  H12Y13027   2.221   1.018   5.956  0.7719  1.1598 -3.6163
  122SOPE  C31313028   2.408   1.021   5.851 -0.4496 -0.0163  0.4825
  122SOPE  H13X13029   2.394   0.916   5.818  1.6967  0.2974 -1.7100
  122SOPE  H13Y13030   2.516   1.031   5.877  0.0089 -0.0807 -1.2698
  122SOPE  C31413031   2.382   1.117   5.732 -1.1539 -0.2761 -0.1370
  122SOPE  H14X13032   2.394   1.219   5.776  0.9689 -0.7637  0.5161
  122SOPE  H14Y13033   2.274   1.105   5.708 -1.5463  0.5842  1.0701
  122SOPE  C31513034   2.464   1.087   5.601  0.8267  0.0541  0.2810
  122SOPE  H15X13035   2.568   1.116   5.625  1.0467 -0.2966 -0.2292
  122SOPE  H15Y13036   2.421   1.156   5.526 -0.6144 -0.2166  0.8167
  122SOPE  C31613037   2.439   0.944   5.550 -0.3541  0.9741 -0.3025
  122SOPE  H16X13038   2.336   0.904   5.554 -0.0857  0.1508 -1.2044
  122SOPE  H16Y13039   2.495   0.879   5.620 -3.0724  0.7306  1.7952
  122SOPE  C31713040   2.498   0.918   5.411  0.3284 -0.6172  0.6106
  122SOPE  H17X13041   2.484   0.809   5.391  3.2534 -1.0471  0.5035
  122SOPE  H17Y13042   2.606   0.941   5.418  0.1295  0.1445  1.2082
  122SOPE  C31813043   2.421   0.988   5.292  0.2265 -0.2153  0.3113
  122SOPE  H18X13044   2.415   1.096   5.316  0.7439 -0.6670  2.7811
  122SOPE  H18Y13045   2.314   0.961   5.285  0.1881  0.0413 -0.1597
  122SOPE  H18Z13046   2.468   0.976   5.192 -2.6983  0.2845 -1.2353
  123SOPE     N13047   2.898   2.218   3.200 -0.2525 -0.8129 -0.1309
  123SOPE   HN113048   2.840   2.301   3.225  1.0401 -0.2505  1.1309
  123SOPE   HN213049   2.923   2.176   3.291 -1.4205 -0.8838  0.1747
  123SOPE   HN313050   2.976   2.265   3.150 -0.7507 -1.9257 -2.0635
  123SOPE   C1213051   2.832   2.130   3.099 -0.5640 -0.1357 -0.7950
  123SOPE  H12A13052   2.872   2.026   3.104  2.4721  0.9609  0.3800
  123SOPE  H12B13053   2.871   2.173   3.004  0.5280  1.5272  0.3654
  123SOPE   C1113054   2.679   2.154   3.107  0.2083 -0.3079 -0.1583
  123SOPE  H11A13055   2.627   2.102   3.189  0.3467 -2.0188 -1.1082
  123SOPE  H11B13056   2.630   2.100   3.023 -2.0741 -1.7518  1.9956
  123SOPE     P13057   2.597   2.391   3.204 -0.2303  0.0004  0.5839
  123SOPE   O1313058   2.540   2.512   3.141  0.2337  0.5050  0.2160
  123SOPE   O1413059   2.721   2.411   3.284 -0.0335 -0.3679  0.0764
  123SOPE   O1213060   2.639   2.289   3.090 -0.3761  0.3912 -0.0263
  123SOPE   O1113061   2.481   2.321   3.282  0.5102  0.3240 -0.2146
  123SOPE    C113062   2.355   2.293   3.226 -0.0928  0.7323 -0.5124
  123SOPE    HA13063   2.366   2.202   3.164 -0.5147 -0.1335  0.6496
  123SOPE    HB13064   2.306   2.383   3.182 -2.2136  2.3293  4.4409
  123SOPE    C213065   2.248   2.260   3.339 -0.1639 -0.8480  0.8999
  123SOPE    HS13066   2.161   2.220   3.282  0.8661  0.9067 -2.1389
  123SOPE   O2113067   2.219   2.381   3.412 -0.3154  0.1668  0.1900
  123SOPE   C2113068   2.106   2.367   3.475  0.8507 -0.3435 -0.0449
  123SOPE   O2213069   2.012   2.293   3.450  0.2811  0.1633  0.3608
  123SOPE   C2213070   2.114   2.463   3.601 -0.2470 -0.4703  0.0297
  123SOPE   H2R13071   2.137   2.564   3.563 -4.6761  1.1052  0.8756
  123SOPE   H2S13072   2.200   2.432   3.664 -0.6395 -1.4720  0.0953
  123SOPE    C313073   2.306   2.147   3.428  0.2420  0.3412  0.0034
  123SOPE    HX13074   2.375   2.200   3.498  1.0969 -2.6044  1.5177
  123SOPE    HY13075   2.366   2.078   3.365  0.5304  3.4157 -3.4312
  123SOPE   O3113076   2.205   2.076   3.504  0.2109  0.2762  0.2708
  123SOPE   C3113077   2.138   1.986   3.434 -0.2910 -0.0441  0.6106
  123SOPE   O3213078   2.153   1.964   3.314  0.5975 -0.4078  0.3195
  123SOPE   C3213079   2.046   1.910   3.522  1.1072 -0.0162 -0.2675
  123SOPE   H2X13080   1.946   1.952   3.497  1.6133  4.0984  3.4177
  123SOPE   H2Y13081   2.060   1.935   3.629  0.9265  1.8520 -0.6371
  123SOPE   C2313082   1.976   2.470   3.664 -0.6357 -0.4425 -0.0174
  123SOPE   H3R13083   1.890   2.462   3.595 -0.2546  0.3348 -0.5930
  123SOPE   H3S13084   1.972   2.566   3.719 -0.3833 -1.2693  1.5170
  123SOPE   C2413085   1.949   2.359   3.769  0.1246 -0.3601  0.1580
  123SOPE   H4R13086   1.845   2.379   3.804  0.2479 -0.2473  0.4683
  123SOPE   H4S13087   1.950   2.256   3.726 -1.1385 -1.3275  2.2477
  123SOPE   C2513088   2.032   2.369   3.897  0.4961  0.4517  0.1670
  123SOPE   H5R13089   2.135   2.352   3.860  0.2669 -0.3051 -0.1338
  123SOPE   H5S13090   2.037   2.472   3.938 -0.1239  0.2431  0.7935
  123SOPE   C2613091   1.995   2.265   4.007 -1.2923 -0.0253  0.7749
  123SOPE   H6R13092   2.005   2.166   3.959 -1.4183  0.2718  0.1230
  123SOPE   H6S13093   2.078   2.271   4.081 -0.0326  1.3547 -0.6664
  123SOPE   C2713094   1.863   2.273   4.069 -0.3696 -0.0594 -0.3457
  123SOPE   H7R13095   1.872   2.363   4.133  1.9013  0.3432 -1.1403
  123SOPE   H7S13096   1.789   2.280   3.986  0.6428  1.2465 -1.1644
  123SOPE   C2813097   1.833   2.147   4.149 -0.2644  0.0404  0.1751
  123SOPE   H8R13098   1.829   2.064   4.075  0.1081 -1.7181  2.0445
  123SOPE   H8S13099   1.914   2.129   4.223  0.4325  0.3409 -0.4999
  123SOPE   C2913100   1.702   2.167   4.224 -0.9651  0.6528  0.3871
  123SOPE   H9113101   1.610   2.132   4.175 -0.0018  0.5921 -1.4629
  123SOPE  C21013102   1.683   2.221   4.345 -0.5891  0.6081 -0.2457
  123SOPE  H10113103   1.577   2.236   4.371  0.4846  2.8020  3.6687
  123SOPE  C21113104   1.790   2.277   4.440 -0.4104  0.8176  0.0319
  123SOPE  H11R13105   1.747   2.374   4.473 -2.7336  0.5390 -1.9331
  123SOPE  H11S13106   1.886   2.304   4.390 -0.3805 -0.9694 -0.9759
  123SOPE  C21213107   1.825   2.183   4.552 -0.1198  0.0384 -0.2552
  123SOPE  H12R13108   1.869   2.089   4.513  0.2065 -0.8176  2.0583
  123SOPE  H12S13109   1.738   2.148   4.611  1.8142 -3.6866  0.6432
  123SOPE  C21313110   1.921   2.263   4.646 -1.0332  0.5034  0.3016
  123SOPE  H13R13111   1.889   2.363   4.681 -3.8718 -0.4916  0.7909
  123SOPE  H13S13112   2.016   2.272   4.588 -0.2400 -2.5838  0.9292
  123SOPE  C21413113   1.946   2.177   4.768  0.1443 -0.1860 -0.0319
  123SOPE  H14R13114   1.978   2.073   4.744  2.1448  0.4823 -0.4249
  123SOPE  H14S13115   1.860   2.165   4.838  0.4809 -2.1128  0.1032
  123SOPE  C21513116   2.059   2.226   4.860  0.5653  0.5927  0.0413
  123SOPE  H15R13117   2.036   2.329   4.892  0.4141  0.5904 -0.0559
  123SOPE  H15S13118   2.159   2.227   4.812 -0.0123  1.4336 -1.2057
  123SOPE  C21613119   2.080   2.136   4.992  0.4259 -0.0493 -0.3330
  123SOPE  H16R13120   2.104   2.035   4.953 -3.0556 -0.4137 -1.9223
  123SOPE  H16S13121   1.984   2.121   5.045  0.6363 -1.9951 -0.4512
  123SOPE  C21713122   2.187   2.188   5.093  0.2272  1.1849  0.6585
  123SOPE  H17R13123   2.146   2.278   5.141 -4.0032 -1.4887  2.5913
  123SOPE  H17S13124   2.271   2.243   5.046  0.2242 -0.3653 -1.3250
  123SOPE  C21813125   2.228   2.087   5.195 -1.2751  0.3775 -0.4500
  123SOPE  H18R13126   2.155   2.042   5.265  0.6532 -1.2189  0.6118
  123SOPE  H18S13127   2.302   2.141   5.258 -1.9189 -0.1766  0.8097
  123SOPE  H18T13128   2.286   2.001   5.156  1.6297  1.0412  2.0410
  123SOPE   C3313129   2.041   1.754   3.511 -0.5708  0.3437 -0.0231
  123SOPE   H3X13130   2.140   1.724   3.471 -0.0549  1.6545  0.2124
  123SOPE   H3Y13131   1.963   1.734   3.435 -1.0499  0.2746  0.4734
  123SOPE   C3413132   2.035   1.674   3.637 -0.3059  0.3121 -0.7773
  123SOPE   H4X13133   2.130   1.690   3.693 -0.3802  1.1423 -0.8633
  123SOPE   H4Y13134   2.039   1.570   3.598  1.0574 -0.5470  1.4733
  123SOPE   C3513135   1.904   1.703   3.719 -0.7134 -0.4978 -0.5672
  123SOPE   H5X13136   1.822   1.693   3.644  0.1693 -0.2623 -1.5891
  123SOPE   H5Y13137   1.919   1.805   3.761 -0.0593 -0.6086 -0.5297
  123SOPE   C3613138   1.887   1.597   3.830  0.3628  0.2592  0.3550
  123SOPE   H6X13139   1.981   1.582   3.888 -0.5932 -0.9967  1.6698
  123SOPE   H6Y13140   1.866   1.499   3.781  0.8876 -0.1644  0.9546
  123SOPE   C3713141   1.777   1.622   3.924 -0.0886  0.1529 -0.5629
  123SOPE   H7X13142   1.798   1.554   4.010 -0.6870  0.4688 -0.1566
  123SOPE   H7Y13143   1.682   1.587   3.880 -0.0545 -0.7919  0.0862
  123SOPE   C3813144   1.769   1.768   3.962 -0.4319 -0.4524  0.3629
  123SOPE   H8X13145   1.721   1.830   3.883  0.9104 -0.4041 -0.4588
  123SOPE   H8Y13146   1.869   1.815   3.979 -0.1317 -0.9370 -0.0436
  123SOPE   C3913147   1.701   1.787   4.100  0.0092  0.5502 -0.3964
  123SOPE   H9X13148   1.612   1.723   4.119  0.4362  0.6999  2.5994
  123SOPE   H9Y13149   1.674   1.894   4.117  1.9912  0.6352  3.1788
  123SOPE  C31013150   1.798   1.740   4.217  0.1768 -0.3010  0.2371
  123SOPE  H10X13151   1.899   1.784   4.207 -0.4967  1.0760 -1.0489
  123SOPE  H10Y13152   1.808   1.630   4.212 -0.8649 -0.4295  0.7057
  123SOPE  C31113153   1.736   1.778   4.350 -0.6218  0.7606  0.0179
  123SOPE  H11X13154   1.629   1.750   4.355 -0.5657  0.3292 -0.9527
  123SOPE  H11Y13155   1.727   1.889   4.353 -1.3574  0.7324 -0.7469
  123SOPE  C31213156   1.823   1.734   4.469  0.3925  0.0137  0.1389
  123SOPE  H12X13157   1.929   1.763   4.455  1.0755 -1.0359  2.7180
  123SOPE  H12Y13158   1.822   1.624   4.455  0.2671  0.1478 -1.0161
  123SOPE  C31313159   1.756   1.787   4.596 -0.7628  1.3239  0.0961
  123SOPE  H13X13160   1.662   1.732   4.619 -0.0319  0.0621  0.2075
  123SOPE  H13Y13161   1.723   1.892   4.585 -0.7385  1.1368 -2.1377
  123SOPE  C31413162   1.848   1.757   4.713  0.2495  0.0587 -0.4745
  123SOPE  H14X13163   1.941   1.816   4.706 -0.5787  1.3218 -1.2761
  123SOPE  H14Y13164   1.877   1.650   4.701 -1.2863 -0.2555 -1.6907
  123SOPE  C31513165   1.780   1.772   4.847  0.0802 -0.1360  0.2474
  123SOPE  H15X13166   1.732   1.674   4.863  1.3697 -1.3808 -2.7814
  123SOPE  H15Y13167   1.703   1.852   4.848  0.5286  0.3695 -1.5835
  123SOPE  C31613168   1.878   1.817   4.961  0.3509  0.3273 -0.6647
  123SOPE  H16X13169   1.827   1.862   5.049 -1.1233 -1.7128 -0.3956
  123SOPE  H16Y13170   1.950   1.882   4.908 -0.7558  2.2584  0.1058
  123SOPE  C31713171   1.954   1.691   5.014 -0.1594  0.3634  0.5737
  123SOPE  H17X13172   2.003   1.627   4.938  1.2771  0.0243  1.7329
  123SOPE  H17Y13173   1.884   1.643   5.085  0.4772 -1.3772  0.0744
  123SOPE  C31813174   2.065   1.737   5.116  0.0039 -0.1479  0.3446
  123SOPE  H18X13175   2.017   1.797   5.197 -1.3439 -0.0571 -0.4762
  123SOPE  H18Y13176   2.144   1.800   5.070 -0.2641 -0.3296 -0.3883
  123SOPE  H18Z13177   2.114   1.651   5.164  0.0208 -0.9341 -1.0316
  124SOPE     N13178   2.510   4.528   2.491 -0.1131  0.3318  0.3082
  124SOPE   HN113179   2.443   4.482   2.555 -0.3861 -0.8853 -0.8079
  124SOPE   HN213180   2.495   4.492   2.394  1.8174 -0.2245  0.1747
  124SOPE   HN313181   2.609   4.508   2.514 -0.5954 -2.3128  0.3664
  124SOPE   C1213182   2.477   4.677   2.494  0.1203 -0.9621 -0.5180
  124SOPE  H12A13183   2.545   4.718   2.416  3.0002 -1.1669  1.6918
  124SOPE  H12B13184   2.511   4.719   2.591 -1.4128  1.0748 -0.7852
  124SOPE   C1113185   2.328   4.710   2.471  0.0706 -0.1346  0.3436
  124SOPE  H11A13186   2.312   4.717   2.362 -1.7669 -0.2915  0.5754
  124SOPE  H11B13187   2.302   4.811   2.510  1.5718  0.2286  0.4497
  124SOPE     P13188   2.087   4.655   2.534 -0.1877  0.5392 -0.0464
  124SOPE   O1313189   2.003   4.545   2.597  0.0399  0.5174 -0.4428
  124SOPE   O1413190   2.041   4.721   2.408 -0.3218 -0.6078 -0.4142
  124SOPE   O1213191   2.241   4.614   2.530 -0.4618  0.4688  0.0565
  124SOPE   O1113192   2.086   4.767   2.644  0.0930 -0.4913 -0.2240
  124SOPE    C113193   2.186   4.768   2.745 -0.3255  0.2923  0.0925
  124SOPE    HA13194   2.254   4.852   2.723  1.1259 -1.0644 -0.8194
  124SOPE    HB13195   2.244   4.674   2.757  0.5516  0.8042 -0.0596
  124SOPE    C213196   2.132   4.791   2.888 -0.7427  0.6515  0.2679
  124SOPE    HS13197   2.225   4.819   2.941 -0.1387  0.1797 -0.5259
  124SOPE   O2113198   2.073   4.675   2.946 -0.5344  0.8283  0.3616
  124SOPE   C2113199   2.160   4.591   2.998 -0.1937 -0.7366  0.2312
  124SOPE   O2213200   2.282   4.602   3.005  0.3931 -0.0371  0.5951
  124SOPE   C2213201   2.082   4.477   3.060  0.3242  0.3550  0.4656
  124SOPE   H2R13202   2.051   4.414   2.974  1.3630 -0.1467  0.4439
  124SOPE   H2S13203   1.983   4.505   3.103  0.0868 -0.3250  0.3760
  124SOPE    C313204   2.031   4.913   2.904 -0.2702  0.8163  0.4931
  124SOPE    HX13205   1.954   4.890   2.827  0.3538 -3.0734  0.8393
  124SOPE    HY13206   2.081   5.006   2.871  1.1633  0.9624  2.8327
  124SOPE   O3113207   1.985   4.924   3.037  0.1546  0.5429 -0.1869
  124SOPE   C3113208   1.874   4.860   3.061 -0.0076  0.6203 -0.2592
  124SOPE   O3213209   1.811   4.799   2.977 -0.0458 -0.3160  0.1032
  124SOPE   C3213210   1.833   4.860   3.210 -0.0357 -0.1011  0.5729
  124SOPE   H2X13211   1.722   4.849   3.205  0.0116 -0.7745  0.8916
  124SOPE   H2Y13212   1.865   4.958   3.251 -1.4348  0.6847 -0.1446
  124SOPE   C2313213   2.160   4.384   3.160 -0.1300 -0.1352  0.6570
  124SOPE   H3R13214   2.258   4.337   3.134 -0.3077 -1.4563  2.2097
  124SOPE   H3S13215   2.087   4.307   3.193 -1.8937  0.9974 -0.4544
  124SOPE   C2413216   2.186   4.474   3.282 -0.5869  0.7819  0.2934
  124SOPE   H4R13217   2.262   4.553   3.263 -0.1054  0.8461  2.2726
  124SOPE   H4S13218   2.090   4.516   3.317  0.3271  2.4426  0.8900
  124SOPE   C2513219   2.213   4.379   3.401 -0.0644  0.0099  0.2310
  124SOPE   H5R13220   2.116   4.328   3.418  0.0198  0.2687  1.5809
  124SOPE   H5S13221   2.298   4.314   3.370  0.5316  0.6405  0.5389
  124SOPE   C2613222   2.256   4.447   3.527 -0.2025  0.2001  0.0209
  124SOPE   H6R13223   2.346   4.504   3.496  1.6716 -1.4326  2.1860
  124SOPE   H6S13224   2.167   4.507   3.557 -0.2759 -0.0480  0.3083
  124SOPE   C2713225   2.291   4.354   3.639  0.1921 -0.1390 -0.4279
  124SOPE   H7R13226   2.198   4.317   3.687  1.8136  0.2142  3.3126
  124SOPE   H7S13227   2.355   4.268   3.608  1.0178 -0.0210  0.8912
  124SOPE   C2813228   2.370   4.425   3.750 -0.2689 -0.2924  0.5747
  124SOPE   H8R13229   2.308   4.513   3.777 -0.5543  0.2378 -1.6238
  124SOPE   H8S13230   2.379   4.362   3.841 -1.3351  1.5763  2.0519
  124SOPE   C2913231   2.513   4.463   3.705  0.0597 -0.8131  0.7022
  124SOPE   H9113232   2.548   4.417   3.612  0.6806 -0.6226  0.8401
  124SOPE  C21013233   2.599   4.541   3.770  0.5675 -0.6029  0.0213
  124SOPE  H10113234   2.700   4.549   3.729  0.5782  0.5288  0.2269
  124SOPE  C21113235   2.573   4.621   3.892 -0.1130 -0.0266 -0.3815
  124SOPE  H11R13236   2.467   4.605   3.917  0.2359 -2.0728 -0.0792
  124SOPE  H11S13237   2.598   4.727   3.870  1.1551 -0.1550  0.3637
  124SOPE  C21213238   2.653   4.564   4.007  0.0399  0.3020  0.0176
  124SOPE  H12R13239   2.762   4.583   3.992  0.6128 -1.8216  1.0370
  124SOPE  H12S13240   2.647   4.453   4.015  0.6035  0.3665  1.6716
  124SOPE  C21313241   2.611   4.604   4.151  0.5735  0.4717 -0.6562
  124SOPE  H13R13242   2.618   4.715   4.157 -2.3661  0.6570  1.8556
  124SOPE  H13S13243   2.682   4.552   4.219 -1.0044  0.3456  0.9581
  124SOPE  C21413244   2.473   4.553   4.205 -0.0862  0.6822 -0.1860
  124SOPE  H14R13245   2.483   4.445   4.181 -0.0769  0.7778 -0.6186
  124SOPE  H14S13246   2.384   4.571   4.141 -1.4269 -0.1515  1.3430
  124SOPE  C21513247   2.440   4.554   4.357 -0.2922  0.4192  0.8321
  124SOPE  H15R13248   2.540   4.529   4.396  0.2577  1.1292 -0.0848
  124SOPE  H15S13249   2.367   4.475   4.383  2.2566 -2.5922 -0.5691
  124SOPE  C21613250   2.391   4.696   4.408 -0.2413 -0.6938 -0.7692
  124SOPE  H16R13251   2.313   4.720   4.333 -0.9549 -1.5646 -0.3287
  124SOPE  H16S13252   2.473   4.771   4.410 -0.6277 -0.2764 -0.0320
  124SOPE  C21713253   2.340   4.694   4.555 -0.0479 -0.1097 -0.1907
  124SOPE  H17R13254   2.270   4.609   4.565 -1.2279  0.7906 -0.5285
  124SOPE  H17S13255   2.277   4.784   4.569  0.7589  0.4879 -0.2989
  124SOPE  C21813256   2.455   4.690   4.657  0.2516  0.3768  0.0168
  124SOPE  H18R13257   2.415   4.684   4.761  1.2120 -0.6377  0.3574
  124SOPE  H18S13258   2.516   4.782   4.646  0.0417  0.5453  0.2391
  124SOPE  H18T13259   2.516   4.601   4.632 -0.6362  0.2531 -1.8794
  124SOPE   C3313260   1.896   4.746   3.288 -0.2131 -0.0058  0.2300
  124SOPE   H3X13261   2.005   4.737   3.270 -0.0338 -0.6242  1.5660
  124SOPE   H3Y13262   1.862   4.650   3.243  0.6626  0.8802 -2.5791
  124SOPE   C3413263   1.872   4.778   3.434  0.0689  1.0176 -0.0959
  124SOPE   H4X13264   1.762   4.766   3.444 -0.0643  0.8440 -1.4725
  124SOPE   H4Y13265   1.897   4.882   3.465  0.5691  1.0729 -0.6588
  124SOPE   C3513266   1.945   4.676   3.528 -1.0175  0.1708  0.2461
  124SOPE   H5X13267   2.055   4.676   3.517 -1.0242  0.5416  0.1573
  124SOPE   H5Y13268   1.918   4.573   3.498  0.8657 -0.3856  0.3328
  124SOPE   C3613269   1.914   4.691   3.675  0.3027 -0.1111  0.0312
  124SOPE   H6X13270   1.805   4.692   3.694  0.0807 -0.6656 -1.1037
  124SOPE   H6Y13271   1.955   4.784   3.719 -3.3596  1.7153 -0.0517
  124SOPE   C3713272   1.958   4.570   3.762  0.0357 -0.7218  0.1072
  124SOPE   H7X13273   2.049   4.522   3.720  0.6293 -0.2980  0.8944
  124SOPE   H7Y13274   1.871   4.501   3.755 -1.7283  1.4227 -0.4692
  124SOPE   C3813275   1.981   4.596   3.912  0.2482  0.3556 -0.1795
  124SOPE   H8X13276   1.966   4.495   3.956 -1.6705 -0.2599 -2.0831
  124SOPE   H8Y13277   1.894   4.655   3.949 -0.0694 -0.3906  0.2847
  124SOPE   C3913278   2.114   4.665   3.939  0.1719 -0.7673 -0.5435
  124SOPE   H9X13279   2.112   4.762   3.884 -1.9013 -0.0246  0.7044
  124SOPE   H9Y13280   2.194   4.597   3.905 -0.8744 -1.1817 -2.2923
  124SOPE  C31013281   2.139   4.691   4.089 -0.2091 -0.3983 -0.1399
  124SOPE  H10X13282   2.239   4.739   4.091 -0.2255 -0.1027 -2.5878
  124SOPE  H10Y13283   2.148   4.591   4.138  0.2303 -0.6878 -0.7994
  124SOPE  C31113284   2.032   4.786   4.140  0.0207  0.2952  0.0422
  124SOPE  H11X13285   1.941   4.724   4.130  0.9991 -1.2572  0.3440
  124SOPE  H11Y13286   2.034   4.880   4.080  0.7910 -1.6935 -3.3039
  124SOPE  C31213287   2.061   4.833   4.282  0.5273  0.1058  0.3338
  124SOPE  H12X13288   2.165   4.872   4.284  0.1877  1.2528 -1.8597
  124SOPE  H12Y13289   2.064   4.743   4.348  2.5921 -0.7582 -0.8548
  124SOPE  C31313290   1.967   4.949   4.323 -0.9128 -0.2336  0.0599
  124SOPE  H13X13291   1.866   4.910   4.346 -2.2682  2.0623 -1.6466
  124SOPE  H13Y13292   1.953   5.011   4.232  0.6702  0.3112  0.1522
  124SOPE  C31413293   2.029   5.016   4.448  0.4592 -0.2077  0.5976
  124SOPE  H14X13294   2.120   5.076   4.428  0.7474  0.0912  2.5852
  124SOPE  H14Y13295   2.070   4.941   4.518 -0.6021 -0.4294  1.0065
  124SOPE  C31513296   1.923   5.099   4.512  0.2194  0.1343 -0.8711
  124SOPE  H15X13297   1.825   5.048   4.512 -1.2547  2.7523 -1.3605
  124SOPE  H15Y13298   1.927   5.183   4.439  0.3601  0.7582 -0.1661
  124SOPE  C31613299   1.965   5.161   4.645 -0.2884  0.1682  0.2148
  124SOPE  H16X13300   2.064   5.203   4.614 -1.1661  2.0439 -0.1931
  124SOPE  H16Y13301   1.982   5.079   4.717  2.2604  0.1577 -0.2951
  124SOPE  C31713302   1.871   5.269   4.689  0.2153  0.2688  0.3964
  124SOPE  H17X13303   1.765   5.238   4.683 -0.3422  2.2514 -3.7884
  124SOPE  H17Y13304   1.878   5.350   4.613 -2.6605 -0.5789 -0.9124
  124SOPE  C31813305   1.901   5.321   4.829  0.0982 -0.3108  0.2099
  124SOPE  H18X13306   1.824   5.393   4.864 -0.7620 -2.4554  3.1464
  124SOPE  H18Y13307   2.006   5.358   4.838 -0.7390  2.1154  0.6727
  124SOPE  H18Z13308   1.888   5.237   4.901  0.7550 -0.7438 -0.1581
  125SOPE     N13309   6.151   5.362   2.755 -0.0608 -0.7220 -0.2579
  125SOPE   HN113310   6.196   5.310   2.834 -0.2874 -0.6931 -0.1094
  125SOPE   HN213311   6.211   5.443   2.728  1.0819 -0.5362  2.5265
  125SOPE   HN313312   6.058   5.399   2.781 -0.5966 -0.7195 -2.0492
  125SOPE   C1213313   6.116   5.273   2.635  0.1473  0.9224  0.5022
  125SOPE  H12A13314   6.206   5.212   2.610  0.5739  0.4478  2.9381
  125SOPE  H12B13315   6.089   5.336   2.548 -0.6591  0.0547  0.1101
  125SOPE   C1113316   5.993   5.188   2.664  1.5231 -0.0512  0.3703
  125SOPE  H11A13317   5.950   5.129   2.579 -0.1918 -0.0452  1.1943
  125SOPE  H11B13318   5.911   5.259   2.687  0.4874 -1.5550  1.5421
  125SOPE     P13319   5.906   5.033   2.859 -0.1377 -0.3200 -0.4698
  125SOPE   O1313320   5.968   4.923   2.938 -0.7748  0.4991 -0.1346
  125SOPE   O1413321   5.783   5.001   2.783  0.4901  0.1729 -0.1992
  125SOPE   O1213322   6.009   5.094   2.763  0.1169  0.0462 -0.5030
  125SOPE   O1113323   5.874   5.154   2.954 -0.3476  0.3843 -0.7239
  125SOPE    C113324   5.766   5.160   3.047  0.5086 -0.7482  0.4525
  125SOPE    HA13325   5.688   5.083   3.036 -2.1236  1.9417 -1.5265
  125SOPE    HB13326   5.713   5.257   3.032  0.0941 -0.9898  0.3589
  125SOPE    C213327   5.800   5.152   3.194  0.1831  0.1113  0.6943
  125SOPE    HS13328   5.870   5.235   3.218 -2.2971  2.0466  1.6621
  125SOPE   O2113329   5.868   5.030   3.209  0.0399 -0.4199  0.7895
  125SOPE   C2113330   5.972   5.027   3.295  0.0001  0.2868 -0.5492
  125SOPE   O2213331   6.015   5.110   3.369 -0.0120 -0.0361  0.4294
  125SOPE   C2213332   6.045   4.890   3.270  0.5128  0.6009  0.1223
  125SOPE   H2R13333   6.107   4.893   3.178 -1.6928 -0.1430 -1.4568
  125SOPE   H2S13334   5.969   4.810   3.258  1.0177 -0.4453  2.9833
  125SOPE    C313335   5.678   5.158   3.277  0.2021  0.7813  0.7333
  125SOPE    HX13336   5.626   5.060   3.269  1.6614  0.0077  0.4527
  125SOPE    HY13337   5.616   5.242   3.239  0.9612  0.2497 -1.9360
  125SOPE   O3113338   5.721   5.166   3.413 -0.2016 -0.1654  0.0465
  125SOPE   C3113339   5.760   5.276   3.460 -0.4148  0.9026 -1.1951
  125SOPE   O3213340   5.764   5.382   3.403 -0.2907 -0.3333 -0.3196
  125SOPE   C3213341   5.797   5.254   3.609 -0.7234 -0.5829  0.3277
  125SOPE   H2X13342   5.886   5.187   3.608  1.3197  1.9877  0.8606
  125SOPE   H2Y13343   5.719   5.198   3.666 -1.9490 -1.0844 -1.7451
  125SOPE   C2313344   6.136   4.843   3.389  0.5634  0.6943 -0.1688
  125SOPE   H3R13345   6.216   4.921   3.396  0.5414  0.7366 -0.3824
  125SOPE   H3S13346   6.161   4.739   3.360 -1.0519  0.4598 -0.8260
  125SOPE   C2413347   6.057   4.821   3.523  0.8674  0.5419 -0.8012
  125SOPE   H4R13348   6.017   4.917   3.564  0.2691  0.3433 -0.9140
  125SOPE   H4S13349   5.973   4.753   3.498  0.0830  1.0525  0.3755
  125SOPE   C2513350   6.141   4.748   3.630  0.6287 -0.3320  0.1111
  125SOPE   H5R13351   6.181   4.650   3.594 -0.3579 -0.7719  0.1808
  125SOPE   H5S13352   6.231   4.808   3.653  0.8742  0.6686 -2.9786
  125SOPE   C2613353   6.057   4.725   3.757  0.8274  0.1637  0.5873
  125SOPE   H6R13354   6.049   4.822   3.811  0.0981  2.1557 -2.7923
  125SOPE   H6S13355   5.956   4.699   3.719  0.8725  0.2938  0.3709
  125SOPE   C2713356   6.096   4.608   3.846  0.8241 -0.5067  0.0956
  125SOPE   H7R13357   6.073   4.511   3.797 -0.3730 -1.4965  2.4418
  125SOPE   H7S13358   6.204   4.608   3.873  0.5096  0.1167  1.4099
  125SOPE   C2813359   6.012   4.630   3.980  0.0129 -0.2974  0.1180
  125SOPE   H8R13360   6.045   4.729   4.020  1.4209 -0.9940  0.7391
  125SOPE   H8S13361   5.902   4.636   3.962 -0.6152  0.2419  3.3444
  125SOPE   C2913362   6.033   4.518   4.077 -0.4847 -0.3013 -0.2424
  125SOPE   H9113363   5.981   4.427   4.044 -2.5318  0.0699  1.6926
  125SOPE  C21013364   6.100   4.512   4.195 -0.4941 -0.3392  0.1499
  125SOPE  H10113365   6.111   4.409   4.233 -0.2169 -1.0089 -1.6335
  125SOPE  C21113366   6.187   4.615   4.267 -0.2401 -0.7092  0.0815
  125SOPE  H11R13367   6.196   4.706   4.205 -1.8583  0.4440  1.4500
  125SOPE  H11S13368   6.289   4.579   4.294 -1.4295 -3.2634  1.4970
  125SOPE  C21213369   6.108   4.664   4.392 -0.3579  0.0392 -0.1993
  125SOPE  H12R13370   6.007   4.708   4.375 -0.3986  0.4885  1.0649
  125SOPE  H12S13371   6.175   4.751   4.412 -0.3292  0.4604 -1.9380
  125SOPE  C21313372   6.104   4.560   4.505 -0.0958 -0.4094 -0.4042
  125SOPE  H13R13373   6.196   4.498   4.506  1.6331  1.7029  4.7839
  125SOPE  H13S13374   6.014   4.498   4.485 -0.7893  0.1875  0.7782
  125SOPE  C21413375   6.103   4.633   4.641 -0.8393 -0.4162 -0.3243
  125SOPE  H14R13376   6.026   4.713   4.630  1.2955  1.9101  0.6542
  125SOPE  H14S13377   6.198   4.687   4.658 -0.8527 -1.0610  2.1196
  125SOPE  C21513378   6.076   4.553   4.764  0.4711  0.3786  0.2351
  125SOPE  H15R13379   6.131   4.598   4.849  0.3051 -0.0682  0.5799
  125SOPE  H15S13380   6.111   4.449   4.746 -1.2662 -0.2209  0.1454
  125SOPE  C21613381   5.930   4.555   4.818 -0.3379  0.7764 -0.0458
  125SOPE  H16R13382   5.861   4.507   4.745 -0.4158  1.4849 -0.4460
  125SOPE  H16S13383   5.900   4.662   4.822 -0.1185  0.8435 -0.1867
  125SOPE  C21713384   5.916   4.485   4.959 -0.7549  0.3652  0.9243
  125SOPE  H17R13385   5.981   4.551   5.021  1.2150  0.3256 -0.9721
  125SOPE  H17S13386   5.958   4.382   4.961  1.2543  1.1306  0.8785
  125SOPE  C21813387   5.780   4.493   5.017  0.0853  0.1473 -0.4107
  125SOPE  H18R13388   5.709   4.430   4.959  1.3985 -1.1319 -0.7028
  125SOPE  H18S13389   5.748   4.599   5.022 -1.7534 -0.4366  3.3211
  125SOPE  H18T13390   5.787   4.449   5.119  0.7081 -0.8370 -0.8650
  125SOPE   C3313391   5.834   5.378   3.687 -0.2139 -0.8550  0.2020
  125SOPE   H3X13392   5.757   5.459   3.683  0.7750  0.2198  1.7521
  125SOPE   H3Y13393   5.931   5.422   3.654 -0.6512 -0.5624 -0.7377
  125SOPE   C3413394   5.851   5.346   3.841  0.3163  0.3681  1.0167
  125SOPE   H4X13395   5.922   5.421   3.881  0.3746  0.8278  0.0694
  125SOPE   H4Y13396   5.905   5.249   3.841  0.3209  0.3703  0.9163
  125SOPE   C3513397   5.716   5.347   3.924  0.3258  0.2912  0.1224
  125SOPE   H5X13398   5.664   5.251   3.904  1.9852 -0.2275 -1.9980
  125SOPE   H5Y13399   5.668   5.440   3.886  0.4613  0.4134  0.2484
  125SOPE   C3613400   5.745   5.348   4.076  0.4484  1.1537 -0.2132
  125SOPE   H6X13401   5.838   5.408   4.089  2.2748 -1.2483 -1.2112
  125SOPE   H6Y13402   5.782   5.245   4.099  1.3409  1.7837  1.3643
  125SOPE   C3713403   5.631   5.384   4.171  0.4856  0.1499 -0.7620
  125SOPE   H7X13404   5.561   5.297   4.175  0.9246 -0.1743  0.0099
  125SOPE   H7Y13405   5.580   5.481   4.150  0.1347  0.1922  0.2435
  125SOPE   C3813406   5.660   5.387   4.330  1.0981  0.3848  0.2169
  125SOPE   H8X13407   5.709   5.289   4.350  1.2018  0.2080 -0.8218
  125SOPE   H8Y13408   5.566   5.386   4.389  0.9695 -2.5475  0.0969
  125SOPE   C3913409   5.756   5.501   4.371  1.0149  0.5807 -0.2980
  125SOPE   H9X13410   5.706   5.600   4.362  1.7335  0.8450 -1.6055
  125SOPE   H9Y13411   5.835   5.506   4.294  0.8154 -0.2644 -0.5708
  125SOPE  C31013412   5.799   5.484   4.513  0.9542  0.0512  0.4706
  125SOPE  H10X13413   5.875   5.564   4.527  0.5245  0.6202 -0.3935
  125SOPE  H10Y13414   5.838   5.381   4.525 -0.1845 -0.3945  0.4578
  125SOPE  C31113415   5.690   5.509   4.622 -0.1305  0.4371 -0.3011
  125SOPE  H11X13416   5.652   5.410   4.654  0.2324  0.0908 -0.9223
  125SOPE  H11Y13417   5.603   5.558   4.573  0.5382  0.3206 -1.6294
  125SOPE  C31213418   5.741   5.604   4.728 -0.2970 -0.1797 -0.2523
  125SOPE  H12X13419   5.659   5.609   4.803 -0.8209 -1.3726 -0.7092
  125SOPE  H12Y13420   5.765   5.703   4.685 -0.3698  1.4039  3.0225
  125SOPE  C31313421   5.865   5.553   4.807  0.2637  0.8335  0.0306
  125SOPE  H13X13422   5.890   5.626   4.887  0.8271 -1.0238  1.6510
  125SOPE  H13Y13423   5.948   5.537   4.735 -2.0075 -2.7510 -2.1351
  125SOPE  C31413424   5.838   5.416   4.877  0.2481 -0.3775 -0.6779
  125SOPE  H14X13425   5.802   5.347   4.798  0.8786  1.3869 -2.5995
  125SOPE  H14Y13426   5.758   5.429   4.954 -0.8289 -1.0560 -1.6412
  125SOPE  C31513427   5.961   5.351   4.936 -0.3999 -0.1412 -0.1733
  125SOPE  H15X13428   6.032   5.312   4.860 -0.9292 -0.7063 -0.3912
  125SOPE  H15Y13429   5.931   5.264   4.999 -0.9181 -0.4310 -0.7988
  125SOPE  C31613430   6.039   5.449   5.023  0.0452  0.3494  0.4915
  125SOPE  H16X13431   5.968   5.503   5.090 -1.9809  0.2627 -1.4832
  125SOPE  H16Y13432   6.096   5.520   4.960  2.3198  0.9529  3.0314
  125SOPE  C31713433   6.151   5.391   5.111  0.4528  0.4977  0.6069
  125SOPE  H17X13434   6.227   5.465   5.145 -0.3158  0.9110  1.4739
  125SOPE  H17Y13435   6.204   5.311   5.055 -1.1746  1.3378 -2.3453
  125SOPE  C31813436   6.110   5.324   5.249 -0.1471 -0.2564 -0.1792
  125SOPE  H18X13437   6.055   5.401   5.309 -1.1336 -0.4251 -0.8401
  125SOPE  H18Y13438   6.197   5.294   5.312 -0.1526  0.7071  0.3090
  125SOPE  H18Z13439   6.040   5.242   5.221 -4.0349  2.5175  0.5691
  126SOPE     N13440   0.517   0.796   2.593  0.2188 -0.0380 -0.4795
  126SOPE   HN113441   0.544   0.708   2.546  1.3470 -0.1674  0.3552
  126SOPE   HN213442   0.465   0.773   2.680 -0.2233  1.2436 -0.3784
  126SOPE   HN313443   0.455   0.850   2.531 -0.6449  0.4077  0.7275
  126SOPE   C1213444   0.640   0.870   2.630 -1.3428  0.6502  0.6801
  126SOPE  H12A13445   0.676   0.922   2.539 -0.3738 -0.3549  0.4657
  126SOPE  H12B13446   0.721   0.803   2.667 -1.2448 -0.3974 -1.3145
  126SOPE   C1113447   0.616   0.977   2.741  0.9001 -0.5673  0.4385
  126SOPE  H11A13448   0.696   1.055   2.733  0.0065  0.1842 -2.6826
  126SOPE  H11B13449   0.629   0.927   2.839 -0.7238 -3.2930 -0.6209
  126SOPE     P13450   0.468   1.173   2.681  0.0563  0.0734  0.0598
  126SOPE   O1313451   0.331   1.172   2.612  0.1127  0.4903  0.2500
  126SOPE   O1413452   0.585   1.221   2.606 -0.0717 -0.3734 -0.9755
  126SOPE   O1213453   0.488   1.032   2.744  0.0447  0.2740 -0.0522
  126SOPE   O1113454   0.464   1.273   2.803  0.2666  0.4271  0.2284
  126SOPE    C113455   0.401   1.256   2.927 -0.2976 -0.2618 -0.2927
  126SOPE    HA13456   0.299   1.213   2.917  0.0329 -1.7364  2.0413
  126SOPE    HB13457   0.392   1.354   2.977 -1.9542 -1.0168  0.9879
  126SOPE    C213458   0.478   1.165   3.032 -0.8890 -0.6555 -0.3076
  126SOPE    HS13459   0.465   1.056   3.014 -0.6202 -1.3366  2.9670
  126SOPE   O2113460   0.455   1.200   3.171  0.8248 -0.0824 -0.6345
  126SOPE   C2113461   0.334   1.174   3.218  0.8512 -0.4463  0.2846
  126SOPE   O2213462   0.256   1.090   3.175  0.1621  0.1468 -0.2227
  126SOPE   C2213463   0.295   1.259   3.338  0.3211  0.0826  0.3258
  126SOPE   H2R13464   0.194   1.225   3.367  1.4122 -2.9492  1.0091
  126SOPE   H2S13465   0.300   1.364   3.304 -2.9059 -0.1316 -1.1453
  126SOPE    C313466   0.629   1.206   3.017 -0.1872 -0.3880 -0.4341
  126SOPE    HX13467   0.631   1.314   3.044  2.2980 -0.4796  0.0001
  126SOPE    HY13468   0.665   1.192   2.913  0.3732 -2.0134 -0.0564
  126SOPE   O3113469   0.717   1.124   3.096  0.0773  0.5458 -0.0881
  126SOPE   C3113470   0.835   1.181   3.105 -0.0808  0.6060 -0.2179
  126SOPE   O3213471   0.871   1.278   3.048 -0.3863 -0.5362 -0.4614
  126SOPE   C3213472   0.923   1.103   3.197  0.4030  0.2198 -0.1964
  126SOPE   H2X13473   1.008   1.170   3.225 -0.6684  1.0905  1.0847
  126SOPE   H2Y13474   0.959   1.024   3.127 -0.5829  0.0095 -0.4742
  126SOPE   C2313475   0.380   1.244   3.469 -0.7364 -0.0823  0.6390
  126SOPE   H3R13476   0.482   1.282   3.446 -1.5486  1.0490 -1.2800
  126SOPE   H3S13477   0.381   1.136   3.493  0.1741  0.1453  1.7005
  126SOPE   C2413478   0.334   1.306   3.601  0.6177  0.2173 -0.0706
  126SOPE   H4R13479   0.334   1.413   3.571  1.4559 -0.3368 -2.2067
  126SOPE   H4S13480   0.230   1.273   3.621  0.4144  1.8871  2.0954
  126SOPE   C2513481   0.432   1.290   3.718 -0.3632 -0.5598 -0.5490
  126SOPE   H5R13482   0.448   1.181   3.722  1.8479 -0.3572 -1.9301
  126SOPE   H5S13483   0.528   1.333   3.681 -0.3825 -1.1013 -1.2323
  126SOPE   C2613484   0.397   1.348   3.853  1.3399  0.2626 -0.7840
  126SOPE   H6R13485   0.420   1.456   3.862  2.6589 -0.1585  1.7234
  126SOPE   H6S13486   0.290   1.321   3.868  1.4001 -0.4472 -1.5451
  126SOPE   C2713487   0.473   1.279   3.964 -0.7102 -0.0440 -0.1803
  126SOPE   H7R13488   0.464   1.168   3.965  3.5320 -0.5419 -0.2058
  126SOPE   H7S13489   0.581   1.294   3.939  0.0314 -0.6003  2.4552
  126SOPE   C2813490   0.457   1.338   4.108 -0.2163  0.1217 -0.2666
  126SOPE   H8R13491   0.473   1.448   4.106 -2.5417  0.5168  0.1283
  126SOPE   H8S13492   0.349   1.323   4.129 -0.1627 -0.5057 -0.4320
  126SOPE   C2913493   0.537   1.278   4.216  0.3991 -0.2784  0.2328
  126SOPE   H9113494   0.644   1.263   4.195  0.7009  1.3055  0.4447
  126SOPE  C21013495   0.495   1.246   4.334  0.4134  0.9583  0.0354
  126SOPE  H10113496   0.574   1.207   4.401 -2.3180 -2.8545  1.3877
  126SOPE  C21113497   0.355   1.262   4.391  0.1712 -0.6477  0.1894
  126SOPE  H11R13498   0.298   1.170   4.368  0.8289 -0.6951 -1.3615
  126SOPE  H11S13499   0.298   1.349   4.351 -0.6159  0.0063  2.5442
  126SOPE  C21213500   0.339   1.300   4.544  0.3034 -0.0324  0.3541
  126SOPE  H12R13501   0.235   1.322   4.577  0.7767  2.2488  0.4877
  126SOPE  H12S13502   0.397   1.391   4.566 -2.0611  1.2194  1.8391
  126SOPE  C21313503   0.405   1.196   4.632 -0.2739  0.4881  0.4692
  126SOPE  H13R13504   0.515   1.185   4.616 -0.0658  1.1569  1.3667
  126SOPE  H13S13505   0.356   1.099   4.607 -0.2613  0.7187 -0.4730
  126SOPE  C21413506   0.383   1.230   4.774 -0.0502 -0.4754 -0.0555
  126SOPE  H14R13507   0.278   1.262   4.788  0.0228 -0.4008  0.3523
  126SOPE  H14S13508   0.443   1.319   4.801  1.0549 -0.9311 -0.8951
  126SOPE  C21513509   0.428   1.116   4.858  0.2907 -0.9707  0.3699
  126SOPE  H15R13510   0.529   1.079   4.833  1.1121  1.6024 -0.5255
  126SOPE  H15S13511   0.346   1.041   4.852 -1.3076  0.5782  1.5273
  126SOPE  C21613512   0.443   1.142   5.016 -0.5487 -0.1618  0.9965
  126SOPE  H16R13513   0.493   1.058   5.070 -0.4085 -0.3698  0.5570
  126SOPE  H16S13514   0.339   1.146   5.052 -1.4387 -2.2486 -1.0259
  126SOPE  C21713515   0.531   1.269   5.052  0.4178  0.0401 -0.8088
  126SOPE  H17R13516   0.479   1.359   5.012  3.4720  0.4465 -4.5190
  126SOPE  H17S13517   0.635   1.254   5.016  0.7707 -1.2959  0.6602
  126SOPE  C21813518   0.546   1.296   5.199 -0.1720  0.6735 -0.5204
  126SOPE  H18R13519   0.448   1.294   5.252  1.4209  1.4638  2.7061
  126SOPE  H18S13520   0.596   1.394   5.215 -0.4247  0.5288  1.3842
  126SOPE  H18T13521   0.617   1.225   5.246  0.6013  1.8070  0.0531
  126SOPE   C3313522   0.856   1.047   3.327 -0.1462 -0.0750 -0.0509
  126SOPE   H3X13523   0.942   1.012   3.389  0.5619  0.2833 -0.8152
  126SOPE   H3Y13524   0.792   0.965   3.290  3.4909 -3.1599 -0.0978
  126SOPE   C3413525   0.767   1.147   3.408  0.3635  0.3791 -0.1105
  126SOPE   H4X13526   0.664   1.146   3.368  0.2233 -2.7732  0.0373
  126SOPE   H4Y13527   0.817   1.246   3.404 -0.1932  0.6190 -2.2690
  126SOPE   C3513528   0.761   1.099   3.553  1.0660 -0.0137 -0.2749
  126SOPE   H5X13529   0.702   1.179   3.603 -0.3831 -0.4920 -1.1369
  126SOPE   H5Y13530   0.865   1.094   3.591  1.8336 -2.3246 -2.3906
  126SOPE   C3613531   0.682   0.972   3.571  0.0191  0.0852 -0.4645
  126SOPE   H6X13532   0.719   0.891   3.505 -2.7276 -2.2139  0.6054
  126SOPE   H6Y13533   0.574   0.990   3.553 -0.0442  0.5379  0.3405
  126SOPE   C3713534   0.709   0.917   3.714  0.4389 -0.1136 -0.4325
  126SOPE   H7X13535   0.817   0.901   3.734  0.3891  0.0311 -0.0373
  126SOPE   H7Y13536   0.678   0.810   3.713 -0.3362  0.0777  0.5876
  126SOPE   C3813537   0.638   0.996   3.826  0.7606  0.0223 -0.1769
  126SOPE   H8X13538   0.528   0.994   3.810  0.6921  0.7508  0.1737
  126SOPE   H8Y13539   0.677   1.100   3.830  1.4010 -0.2253  0.1250
  126SOPE   C3913540   0.686   0.919   3.947 -0.6115  0.3780 -0.4300
  126SOPE   H9X13541   0.794   0.933   3.969 -0.4079  0.2386 -1.2784
  126SOPE   H9Y13542   0.664   0.812   3.927  0.3982  0.3758 -1.6980
  126SOPE  C31013543   0.603   0.947   4.072  0.3524  0.0843 -0.2208
  126SOPE  H10X13544   0.494   0.942   4.051  0.4974 -0.9252 -0.7953
  126SOPE  H10Y13545   0.628   1.045   4.117  1.9893  0.5311 -1.9777
  126SOPE  C31113546   0.624   0.847   4.192 -0.2641 -0.3732 -0.0366
  126SOPE  H11X13547   0.730   0.841   4.225 -0.4367 -0.2414  0.5513
  126SOPE  H11Y13548   0.596   0.744   4.160  2.1896 -0.9779 -0.4446
  126SOPE  C31213549   0.550   0.883   4.328 -0.2044  0.9133 -0.3336
  126SOPE  H12X13550   0.445   0.877   4.292 -0.6358 -2.5094  1.1418
  126SOPE  H12Y13551   0.580   0.989   4.344 -0.8698  0.8583  1.5668
  126SOPE  C31313552   0.563   0.783   4.446  0.3997  0.5946 -0.0366
  126SOPE  H13X13553   0.670   0.757   4.458  1.0673  3.4074  1.0960
  126SOPE  H13Y13554   0.489   0.701   4.437  0.2381  0.8568 -1.2713
  126SOPE  C31413555   0.503   0.862   4.565 -0.2136 -0.0804 -0.1588
  126SOPE  H14X13556   0.395   0.885   4.562 -1.1724 -3.8388  0.6692
  126SOPE  H14Y13557   0.568   0.952   4.565 -1.3941  0.9118  3.0506
  126SOPE  C31513558   0.536   0.784   4.698 -0.6936  0.1332 -0.8254
  126SOPE  H15X13559   0.528   0.856   4.783 -1.9484 -1.6720  0.6656
  126SOPE  H15Y13560   0.642   0.752   4.703 -1.4792 -2.5357  0.7837
  126SOPE  C31613561   0.443   0.669   4.726 -1.0983 -0.1698  0.1466
  126SOPE  H16X13562   0.478   0.585   4.662  0.4906  0.0847  0.6518
  126SOPE  H16Y13563   0.348   0.710   4.685 -0.6419 -0.0065 -0.7730
  126SOPE  C31713564   0.446   0.626   4.874  0.4049 -0.3004 -0.2543
  126SOPE  H17X13565   0.555   0.627   4.897  0.2070 -0.2222  0.7315
  126SOPE  H17Y13566   0.409   0.523   4.895 -0.5433  0.1637  0.4105
  126SOPE  C31813567   0.378   0.721   4.970  0.8430  0.1049 -0.6134
  126SOPE  H18X13568   0.422   0.822   4.958  0.0796  0.4933 -0.2335
  126SOPE  H18Y13569   0.402   0.688   5.073  2.0721  1.0475 -0.5753
  126SOPE  H18Z13570   0.267   0.715   4.968  0.5858  1.5666  2.4982
  127SOPE     N13571   3.208   5.020   2.597  0.0428  0.4940 -0.0915
  127SOPE   HN113572   3.243   4.929   2.633 -0.8769  1.1977  2.9257
  127SOPE   HN213573   3.130   4.988   2.537  0.2923 -2.2630  0.9145
  127SOPE   HN313574   3.286   5.057   2.539  1.0781 -1.8994 -0.3212
  127SOPE   C1213575   3.180   5.102   2.709  0.5857  0.0792 -0.2209
  127SOPE  H12A13576   3.093   5.066   2.768 -0.8595  0.8916 -1.7671
  127SOPE  H12B13577   3.158   5.207   2.677  0.6336  1.1768  3.0023
  127SOPE   C1113578   3.301   5.109   2.800  0.3313 -0.3149  0.8028
  127SOPE  H11A13579   3.334   5.005   2.817  0.8890  0.0100  1.8374
  127SOPE  H11B13580   3.272   5.152   2.899  0.9772 -0.9008  1.2601
  127SOPE     P13581   3.562   5.160   2.787  0.1393 -0.1676 -0.2850
  127SOPE   O1313582   3.659   5.256   2.728 -0.4117  0.1204 -0.1027
  127SOPE   O1413583   3.598   5.020   2.767  0.3217  0.0799 -0.2974
  127SOPE   O1213584   3.412   5.186   2.734 -0.4030  0.3329 -0.2044
  127SOPE   O1113585   3.556   5.180   2.944 -0.3292 -0.0588 -0.4299
  127SOPE    C113586   3.568   5.315   2.990 -0.5743 -0.7941  0.0919
  127SOPE    HA13587   3.491   5.378   2.941 -0.9817 -0.1772  1.4732
  127SOPE    HB13588   3.669   5.355   2.970  0.7036 -2.5770  2.4783
  127SOPE    C213589   3.531   5.317   3.136 -0.2043  0.0741 -0.5641
  127SOPE    HS13590   3.530   5.421   3.176 -0.3165  0.2291 -0.9614
  127SOPE   O2113591   3.614   5.229   3.211 -0.1120  0.2806 -0.0911
  127SOPE   C2113592   3.726   5.298   3.237  0.3859  0.0557 -0.1207
  127SOPE   O2213593   3.759   5.411   3.202 -0.3825 -0.5389  0.2203
  127SOPE   C2213594   3.800   5.220   3.336  0.3564 -0.2681  0.4384
  127SOPE   H2R13595   3.902   5.205   3.295 -0.2381 -0.5460 -0.9953
  127SOPE   H2S13596   3.765   5.115   3.349  0.1731 -0.1623  0.8042
  127SOPE    C313597   3.383   5.272   3.155 -0.1509  0.2334  0.3099
  127SOPE    HX13598   3.348   5.189   3.091 -0.4040 -1.2265  2.2759
  127SOPE    HY13599   3.323   5.359   3.120 -3.4638 -1.4852  1.3946
  127SOPE   O3113600   3.353   5.255   3.292 -0.0714 -0.1153 -0.0767
  127SOPE   C3113601   3.368   5.128   3.327 -0.5353 -0.7653 -0.6527
  127SOPE   O3213602   3.399   5.032   3.256 -0.0874  0.4272  0.2556
  127SOPE   C3213603   3.305   5.119   3.467  0.3812 -0.7259  0.6652
  127SOPE   H2X13604   3.216   5.053   3.458 -0.6185  0.6480  0.0546
  127SOPE   H2Y13605   3.253   5.216   3.482 -1.3616 -0.9419 -3.0061
  127SOPE   C2313606   3.819   5.303   3.471  0.5210 -0.2998  0.3581
  127SOPE   H3R13607   3.713   5.325   3.497  0.5333  0.3746 -0.1154
  127SOPE   H3S13608   3.876   5.393   3.438  0.4281 -1.1664 -2.3866
  127SOPE   C2413609   3.900   5.232   3.584  0.4790 -0.3875  0.1584
  127SOPE   H4R13610   3.837   5.151   3.625  0.1444  0.0634  0.5395
  127SOPE   H4S13611   3.986   5.173   3.546  0.8271 -3.0950  4.5481
  127SOPE   C2513612   3.944   5.323   3.695  0.0525  0.2680 -0.5736
  127SOPE   H5R13613   4.055   5.333   3.697  0.1385 -0.5909 -0.8855
  127SOPE   H5S13614   3.915   5.430   3.682  2.2062  0.8057 -1.5034
  127SOPE   C2613615   3.904   5.267   3.836  0.3038  0.1151 -0.0365
  127SOPE   H6R13616   3.794   5.258   3.853  0.2205  0.2059 -0.5122
  127SOPE   H6S13617   3.947   5.165   3.845  0.1493  0.2453  4.0537
  127SOPE   C2713618   3.950   5.356   3.948 -0.3942 -0.4379  1.0169
  127SOPE   H7R13619   4.050   5.394   3.920 -1.9939  3.1808 -0.3667
  127SOPE   H7S13620   3.895   5.452   3.960  0.0838  0.0946 -0.8511
  127SOPE   C2813621   3.949   5.282   4.083  0.3778 -0.6817 -0.1184
  127SOPE   H8R13622   3.842   5.254   4.091  0.2545  0.0216  0.8503
  127SOPE   H8S13623   4.016   5.194   4.087  3.4082  1.3777 -1.7398
  127SOPE   C2913624   3.991   5.377   4.187 -0.1634 -0.0714  0.4609
  127SOPE   H9113625   4.074   5.445   4.163  0.8606 -1.3144  0.3628
  127SOPE  C21013626   3.916   5.421   4.290  0.2684  0.1658  0.3594
  127SOPE  H10113627   3.960   5.480   4.372  0.8117 -0.6380  0.6594
  127SOPE  C21113628   3.792   5.359   4.340 -0.4354 -0.0322  0.2036
  127SOPE  H11R13629   3.734   5.305   4.262  1.7024 -2.5755  0.2277
  127SOPE  H11S13630   3.729   5.437   4.387  0.4864  1.8385 -1.4822
  127SOPE  C21213631   3.825   5.263   4.454 -0.0248 -0.3114 -0.3396
  127SOPE  H12R13632   3.907   5.290   4.524  1.5032 -1.9720 -1.3892
  127SOPE  H12S13633   3.870   5.170   4.412  0.1439 -0.0671 -0.7036
  127SOPE  C21313634   3.702   5.209   4.532 -1.0081  0.1414 -0.2596
  127SOPE  H13R13635   3.718   5.104   4.564 -1.3540  0.4112  0.8292
  127SOPE  H13S13636   3.613   5.211   4.464 -0.9653 -0.6856 -0.3450
  127SOPE  C21413637   3.652   5.287   4.662 -0.7416 -0.2419  0.4753
  127SOPE  H14R13638   3.650   5.395   4.638 -1.4701 -0.5417 -0.9718
  127SOPE  H14S13639   3.728   5.270   4.741 -0.6936 -1.7346  0.1457
  127SOPE  C21513640   3.521   5.224   4.709  0.4284 -0.1642 -0.5150
  127SOPE  H15R13641   3.457   5.214   4.618 -0.7689  0.6094  0.2190
  127SOPE  H15S13642   3.469   5.299   4.772  0.2546 -1.4491  0.9347
  127SOPE  C21613643   3.529   5.109   4.804 -0.6337  0.4738  0.2465
  127SOPE  H16R13644   3.570   5.018   4.755  0.0344  1.2686 -0.7031
  127SOPE  H16S13645   3.427   5.077   4.835 -0.5316 -0.9613 -0.7968
  127SOPE  C21713646   3.604   5.117   4.937  0.1524  0.4045 -0.1511
  127SOPE  H17R13647   3.543   5.201   4.979 -0.9275  0.1880 -1.2348
  127SOPE  H17S13648   3.710   5.147   4.923 -0.0320  0.8867 -0.5871
  127SOPE  C21813649   3.593   4.996   5.028 -0.5341  0.1218  0.8217
  127SOPE  H18R13650   3.490   4.970   5.060 -0.1139 -2.5104  0.1931
  127SOPE  H18S13651   3.657   5.022   5.116 -0.6966  4.6746 -0.1276
  127SOPE  H18T13652   3.621   4.901   4.978 -1.6363  1.0653 -1.7107
  127SOPE   C3313653   3.407   5.101   3.575 -0.6523 -0.1749 -0.1753
  127SOPE   H3X13654   3.490   5.170   3.549 -1.1333 -0.1406 -1.6626
  127SOPE   H3Y13655   3.449   4.998   3.579  1.7570  0.6748  4.1494
  127SOPE   C3413656   3.362   5.135   3.720  0.1195 -0.5046  0.0186
  127SOPE   H4X13657   3.268   5.080   3.739  0.2288 -1.1347 -1.1654
  127SOPE   H4Y13658   3.344   5.245   3.719 -0.6863 -0.5896 -2.3849
  127SOPE   C3513659   3.458   5.091   3.831  0.6651  0.4615 -0.1343
  127SOPE   H5X13660   3.557   5.136   3.808  0.3388  0.4324 -1.7093
  127SOPE   H5Y13661   3.465   4.981   3.819 -3.2079  0.0982 -0.1261
  127SOPE   C3613662   3.420   5.135   3.966  0.3197  0.0281 -0.7690
  127SOPE   H6X13663   3.320   5.094   3.989  0.9005 -2.1967 -1.9659
  127SOPE   H6Y13664   3.419   5.246   3.962  1.3496  0.1860  1.4845
  127SOPE   C3713665   3.516   5.081   4.078  0.2856 -0.2702 -0.0895
  127SOPE   H7X13666   3.623   5.097   4.054  0.7098 -0.6980  1.4480
  127SOPE   H7Y13667   3.509   4.971   4.079  0.5047 -0.2978 -0.8036
  127SOPE   C3813668   3.503   5.136   4.217 -0.7989 -0.4600  0.1795
  127SOPE   H8X13669   3.503   5.247   4.219 -1.2402 -0.4638  0.6105
  127SOPE   H8Y13670   3.594   5.105   4.273 -0.0711 -1.7140 -1.6027
  127SOPE   C3913671   3.371   5.093   4.278  0.1409 -0.5569 -0.7071
  127SOPE   H9X13672   3.288   5.125   4.212  0.0388  1.3066  0.2784
  127SOPE   H9Y13673   3.363   5.151   4.372  1.4105 -3.0732  1.0731
  127SOPE  C31013674   3.364   4.947   4.328  0.8307  0.6188  0.1395
  127SOPE  H10X13675   3.382   4.875   4.245  1.8631 -0.5381  1.3087
  127SOPE  H10Y13676   3.258   4.927   4.354  0.5580  1.1913 -0.5016
  127SOPE  C31113677   3.444   4.910   4.450 -0.6031  0.0021  0.3167
  127SOPE  H11X13678   3.423   4.981   4.533  0.1295 -0.2261  0.7110
  127SOPE  H11Y13679   3.550   4.917   4.419 -0.9991 -1.0779 -1.4138
  127SOPE  C31213680   3.406   4.770   4.492 -0.4289  0.6026  0.3695
  127SOPE  H12X13681   3.435   4.698   4.413  0.6171 -0.1988  1.4463
  127SOPE  H12Y13682   3.295   4.759   4.493 -0.3071 -2.5151 -3.0696
  127SOPE  C31313683   3.440   4.716   4.628 -0.7232 -0.0652  0.0530
  127SOPE  H13X13684   3.523   4.764   4.684 -0.2828 -0.1816 -0.4930
  127SOPE  H13Y13685   3.473   4.610   4.615 -0.5236  0.1728 -1.6224
  127SOPE  C31413686   3.317   4.720   4.717 -0.1919 -0.1356  0.0428
  127SOPE  H14X13687   3.255   4.638   4.675  1.6469 -2.2946  1.2958
  127SOPE  H14Y13688   3.273   4.821   4.709  0.5749  0.4812  2.4606
  127SOPE  C31513689   3.336   4.669   4.862  0.1961 -0.4794  0.4698
  127SOPE  H15X13690   3.424   4.723   4.904 -0.2413 -0.5014  1.4402
  127SOPE  H15Y13691   3.361   4.561   4.861 -1.6949 -0.9990 -1.9672
  127SOPE  C31613692   3.215   4.675   4.961 -0.1341 -0.4372 -0.2762
  127SOPE  H16X13693   3.257   4.661   5.063 -2.9687 -0.3172  1.0154
  127SOPE  H16Y13694   3.140   4.597   4.936 -1.7738  1.4530 -1.5700
  127SOPE  C31713695   3.133   4.805   4.951  0.2076  0.7783  0.5602
  127SOPE  H17X13696   3.083   4.802   4.852  1.7493  0.4697 -0.2234
  127SOPE  H17Y13697   3.202   4.892   4.948  0.5997  0.4765  0.7270
  127SOPE  C31813698   3.028   4.835   5.056 -0.6192 -0.4891  0.6302
  127SOPE  H18X13699   3.066   4.805   5.157 -2.0737  0.7167  1.5792
  127SOPE  H18Y13700   2.944   4.768   5.028 -0.9277 -0.4681  1.4815
  127SOPE  H18Z13701   3.012   4.944   5.054 -1.8972 -0.6704 -0.1378
  128SOPE     N13702   6.492   3.398   2.926 -0.0946  0.5652  0.9559
  128SOPE   HN113703   6.581   3.443   2.896 -0.0612  1.4632  2.3234
  128SOPE   HN213704   6.463   3.334   2.850 -0.1187  0.4170  1.0903
  128SOPE   HN313705   6.430   3.481   2.928  0.5597  1.3957 -3.7658
  128SOPE   C1213706   6.509   3.320   3.048 -0.1635 -0.0638  0.5005
  128SOPE  H12A13707   6.573   3.375   3.121  1.6254  0.1760 -1.1605
  128SOPE  H12B13708   6.576   3.238   3.015 -1.1037  0.3564 -2.8016
  128SOPE   C1113709   6.376   3.275   3.100 -0.2049 -1.4788 -0.0584
  128SOPE  H11A13710   6.322   3.364   3.141  0.4775 -1.4784  0.8595
  128SOPE  H11B13711   6.385   3.208   3.188  1.1096 -1.4623 -0.1668
  128SOPE     P13712   6.262   3.065   2.980 -0.2653 -0.2935 -0.0009
  128SOPE   O1313713   6.393   3.002   2.929  0.1251 -0.7869 -0.2238
  128SOPE   O1413714   6.141   3.044   2.900  0.5036 -0.5491 -0.7159
  128SOPE   O1213715   6.280   3.224   3.006 -0.1289  0.0002  0.3543
  128SOPE   O1113716   6.224   3.012   3.125  0.0020  0.3755 -0.3639
  128SOPE    C113717   6.108   3.055   3.194 -0.3557 -0.2126  0.1313
  128SOPE    HA13718   6.068   2.966   3.248  1.0786 -0.6730  0.4745
  128SOPE    HB13719   6.025   3.090   3.128  0.4417  0.3509 -0.5946
  128SOPE    C213720   6.120   3.157   3.303 -0.3460 -0.5302 -0.0026
  128SOPE    HS13721   6.123   3.254   3.249  1.1827 -0.2240  0.5843
  128SOPE   O2113722   6.250   3.136   3.363 -0.2206  0.3628 -0.0582
  128SOPE   C2113723   6.279   3.221   3.459 -0.5736  0.4325  0.7491
  128SOPE   O2213724   6.222   3.323   3.489  0.2259  0.0573 -0.1750
  128SOPE   C2213725   6.410   3.166   3.519  0.2617  0.2632  1.0999
  128SOPE   H2R13726   6.496   3.186   3.452  0.3118  1.3445  1.4618
  128SOPE   H2S13727   6.400   3.057   3.533 -0.2375 -0.0011 -1.0455
  128SOPE    C313728   6.002   3.153   3.404 -0.5338 -0.4098  0.1143
  128SOPE    HX13729   6.001   3.236   3.478  1.8146  0.7076 -0.9712
  128SOPE    HY13730   6.024   3.064   3.467  0.5050  0.5639  1.1746
  128SOPE   O3113731   5.869   3.129   3.348  0.2261  0.4523 -0.1350
  128SOPE   C3113732   5.806   3.239   3.315  0.0454  0.0430 -0.4373
  128SOPE   O3213733   5.857   3.348   3.317  0.2507 -0.5672  0.5101
  128SOPE   C3213734   5.662   3.207   3.283 -0.5927 -0.5809 -0.0373
  128SOPE   H2X13735   5.632   3.112   3.333 -0.1205 -0.5684  0.2771
  128SOPE   H2Y13736   5.664   3.198   3.173 -1.7883 -0.3919 -0.0891
  128SOPE   C2313737   6.472   3.240   3.645 -0.0864 -0.1111  0.4016
  128SOPE   H3R13738   6.469   3.351   3.638 -1.1254 -0.1002  0.8746
  128SOPE   H3S13739   6.578   3.208   3.657 -0.5892 -1.2902  1.9718
  128SOPE   C2413740   6.381   3.198   3.766  0.1656  0.3157 -0.0491
  128SOPE   H4R13741   6.273   3.214   3.747 -0.1184 -1.1802  0.1167
  128SOPE   H4S13742   6.389   3.088   3.786  1.7578  0.2833 -0.6994
  128SOPE   C2513743   6.394   3.261   3.902 -0.4249 -0.6520  0.2227
  128SOPE   H5R13744   6.497   3.300   3.918 -0.5584 -0.0295 -0.4118
  128SOPE   H5S13745   6.334   3.355   3.902  2.3688  1.3156  2.4032
  128SOPE   C2613746   6.338   3.173   4.018  0.2781  0.1397  0.3974
  128SOPE   H6R13747   6.232   3.141   4.007 -0.1007  0.2892  3.0453
  128SOPE   H6S13748   6.397   3.081   4.034 -2.5067 -2.0278 -0.9626
  128SOPE   C2713749   6.340   3.263   4.142  0.6894  0.4563  0.3791
  128SOPE   H7R13750   6.443   3.275   4.183  1.0800  0.8411 -0.6930
  128SOPE   H7S13751   6.301   3.367   4.133  0.9978  0.6253  0.9682
  128SOPE   C2813752   6.249   3.197   4.255 -0.1757 -0.1116  0.3613
  128SOPE   H8R13753   6.145   3.186   4.218 -0.4301 -0.7213  1.2377
  128SOPE   H8S13754   6.286   3.093   4.268 -3.2451 -1.1842  1.3116
  128SOPE   C2913755   6.265   3.286   4.383  0.5213  0.5735 -0.7817
  128SOPE   H9113756   6.367   3.312   4.415  0.8828  0.9078 -2.1656
  128SOPE  C21013757   6.159   3.324   4.464 -0.6401  0.5913 -0.0777
  128SOPE  H10113758   6.198   3.383   4.548  0.9809  1.4750 -1.3949
  128SOPE  C21113759   6.013   3.296   4.464  0.0591  0.4056  0.0579
  128SOPE  H11R13760   5.980   3.280   4.359  1.4738  0.9703 -0.4866
  128SOPE  H11S13761   5.971   3.390   4.506  1.4870  1.0194  0.1526
  128SOPE  C21213762   5.985   3.168   4.547  0.3549  0.2917  0.3116
  128SOPE  H12R13763   6.022   3.186   4.651 -2.0806  0.1219  1.2589
  128SOPE  H12S13764   6.045   3.090   4.496 -0.2867  0.4589 -0.7134
  128SOPE  C21313765   5.837   3.128   4.555 -0.6647  0.1335  0.2389
  128SOPE  H13R13766   5.805   3.092   4.455  1.6593  0.6099 -0.7337
  128SOPE  H13S13767   5.765   3.210   4.577 -1.1659 -0.5213  1.1361
  128SOPE  C21413768   5.814   3.006   4.641  0.2223  0.1540  0.3475
  128SOPE  H14R13769   5.847   3.032   4.744 -1.4296  2.4315  0.3848
  128SOPE  H14S13770   5.873   2.918   4.606 -1.4203 -0.3893 -1.2101
  128SOPE  C21513771   5.667   2.970   4.653 -0.1294  0.8070 -0.2514
  128SOPE  H15R13772   5.618   3.056   4.704 -0.2052  0.4443  0.3018
  128SOPE  H15S13773   5.659   2.882   4.721  0.8296  0.4530 -0.5808
  128SOPE  C21613774   5.598   2.944   4.511  0.4694 -0.1637 -0.2012
  128SOPE  H16R13775   5.602   3.047   4.469  0.2479  0.8033  2.0012
  128SOPE  H16S13776   5.490   2.917   4.507 -0.3251  2.6371 -0.0029
  128SOPE  C21713777   5.671   2.835   4.435  0.2550 -0.1752  0.9495
  128SOPE  H17R13778   5.709   2.755   4.502  1.8003 -0.7369 -0.5288
  128SOPE  H17S13779   5.755   2.892   4.391 -2.1589  2.0767 -1.1102
  128SOPE  C21813780   5.583   2.757   4.342  0.8244  0.2682  0.3055
  128SOPE  H18R13781   5.475   2.765   4.369  0.5472 -0.2510 -0.5937
  128SOPE  H18S13782   5.605   2.648   4.337  1.0235  0.2582  1.2444
  128SOPE  H18T13783   5.602   2.803   4.242  1.6974  2.7554  1.5293
  128SOPE   C3313784   5.560   3.314   3.327  0.3345 -0.1120  0.0920
  128SOPE   H3X13785   5.460   3.289   3.286  1.1865 -1.1835 -1.4707
  128SOPE   H3Y13786   5.585   3.415   3.288 -1.2579  0.7318  1.1497
  128SOPE   C3413787   5.560   3.330   3.483  0.8317 -0.6119  0.6498
  128SOPE   H4X13788   5.659   3.319   3.532  0.4330 -2.4115  1.1225
  128SOPE   H4Y13789   5.499   3.244   3.517  1.3009 -0.7514  1.1547
  128SOPE   C3513790   5.495   3.460   3.532  0.4461 -0.5077  0.9576
  128SOPE   H5X13791   5.387   3.469   3.509  0.8883 -0.6373 -1.3847
  128SOPE   H5Y13792   5.551   3.534   3.471  1.0422 -1.9480 -0.3079
  128SOPE   C3613793   5.525   3.486   3.682  0.4875 -0.0651  0.2672
  128SOPE   H6X13794   5.630   3.469   3.715  0.3838  1.7719  1.7166
  128SOPE   H6Y13795   5.460   3.429   3.752 -0.5158  0.4792 -0.2055
  128SOPE   C3713796   5.500   3.637   3.719  0.1021  0.2854  0.2706
  128SOPE   H7X13797   5.401   3.665   3.676  0.1023  1.2661  0.8822
  128SOPE   H7Y13798   5.576   3.706   3.676 -1.3799  1.2887 -0.8379
  128SOPE   C3813799   5.489   3.657   3.871  0.0177 -0.0645  0.3752
  128SOPE   H8X13800   5.585   3.632   3.921  0.4537  1.6026  0.4506
  128SOPE   H8Y13801   5.419   3.578   3.904  1.7587 -2.5486 -1.4986
  128SOPE   C3913802   5.439   3.795   3.910 -0.6009 -0.0051 -0.5831
  128SOPE   H9X13803   5.351   3.826   3.850 -1.0491  0.6792  0.3996
  128SOPE   H9Y13804   5.507   3.874   3.870 -1.4482  0.0047 -2.0695
  128SOPE  C31013805   5.404   3.811   4.059  0.3211  0.2763 -0.4570
  128SOPE  H10X13806   5.481   3.770   4.128  3.1830  2.5309 -2.0847
  128SOPE  H10Y13807   5.308   3.755   4.067  1.2144 -1.5360 -1.5707
  128SOPE  C31113808   5.403   3.954   4.103  0.6529  0.3618 -0.4375
  128SOPE  H11X13809   5.491   4.008   4.062  2.7991 -1.8392  0.9616
  128SOPE  H11Y13810   5.381   3.959   4.212  1.5998  1.8023 -0.2948
  128SOPE  C31213811   5.289   4.028   4.035 -0.1960  0.2561 -0.1994
  128SOPE  H12X13812   5.194   3.979   4.064  0.3135 -1.2333 -0.9648
  128SOPE  H12Y13813   5.302   4.035   3.925 -0.8110 -1.1492 -0.3781
  128SOPE  C31313814   5.271   4.180   4.086  0.0147 -0.3617  1.1972
  128SOPE  H13X13815   5.191   4.220   4.021  0.1794  0.5944  1.5667
  128SOPE  H13Y13816   5.361   4.242   4.069 -0.8671  0.4610 -0.7301
  128SOPE  C31413817   5.228   4.195   4.237 -0.0770 -0.6566  0.1129
  128SOPE  H14X13818   5.320   4.178   4.298  1.0285  0.7513 -1.0582
  128SOPE  H14Y13819   5.150   4.123   4.267 -1.3994  0.3890 -0.6764
  128SOPE  C31513820   5.189   4.338   4.262  0.1599  0.5816 -0.4117
  128SOPE  H15X13821   5.101   4.378   4.208  0.5100 -0.9653 -2.1869
  128SOPE  H15Y13822   5.267   4.410   4.227  1.2128  0.6033  1.7973
  128SOPE  C31613823   5.176   4.369   4.412 -0.2405 -0.1046  0.2520
  128SOPE  H16X13824   5.277   4.359   4.457  0.3998  0.9472 -0.8992
  128SOPE  H16Y13825   5.090   4.309   4.451 -1.6039  2.2068  1.0274
  128SOPE  C31713826   5.132   4.515   4.449 -0.4257  1.0445 -0.5722
  128SOPE  H17X13827   5.045   4.541   4.384 -0.6000 -1.4254 -1.4288
  128SOPE  H17Y13828   5.214   4.585   4.422  0.3379  0.2387 -0.3967
  128SOPE  C31813829   5.094   4.535   4.593 -0.1086 -0.3816  0.1713
  128SOPE  H18X13830   5.049   4.635   4.609 -0.2247 -0.6937  1.9371
  128SOPE  H18Y13831   5.186   4.541   4.655  2.3180 -0.0120 -3.1997
  128SOPE  H18Z13832   5.023   4.457   4.629  3.3001 -3.1384  1.5056
  129OSM      N13833   3.039   4.240   7.346  0.8083 -0.1438 -0.4423
  129OSM    C1513834   3.162   4.214   7.269 -0.3158 -0.7368  0.1603
  129OSM   H15A13835   3.227   4.300   7.257  0.4923 -1.3329  0.1618
  129OSM   H15B13836   3.144   4.166   7.174 -0.6019 -0.9124  0.3008
  129OSM   H15C13837   3.211   4.133   7.322 -1.4246 -1.1671  0.5431
  129OSM    C1413838   3.071   4.300   7.480 -0.0736  0.1562  0.5838
  129OSM   H14A13839   2.983   4.351   7.517 -0.6951  1.0400 -1.9194
  129OSM   H14B13840   3.154   4.365   7.459 -0.2448 -1.0898 -5.9880
  129OSM   H14C13841   3.087   4.215   7.545 -1.6285 -1.0952 -0.5643
  129OSM    C1313842   2.958   4.339   7.269  0.3827  0.1541 -0.6892
  129OSM   H13A13843   2.860   4.319   7.309  1.3211 -2.3176  0.5694
  129OSM   H13B13844   2.954   4.317   7.163  0.9395  1.9378 -1.1279
  129OSM   H13C13845   2.978   4.444   7.285 -2.2484  0.3987  1.8984
  129OSM    C1213846   2.959   4.110   7.361  0.4962 -0.2475  0.1918
  129OSM   H12A13847   2.859   4.136   7.392 -0.0060  0.0530 -1.5606
  129OSM   H12B13848   3.009   4.038   7.423  0.9802  0.0423  0.1509
  129OSM    C1113849   2.922   4.025   7.238  0.2942  0.3339  0.9028
  129OSM   H11A13850   2.846   4.085   7.185  1.3803  0.7889 -0.1950
  129OSM   H11B13851   2.883   3.928   7.275  0.9885 -0.0317  0.7001
  129OSM      P13852   3.125   3.884   7.160  0.6564 -0.3453 -0.2449
  129OSM    O1313853   3.217   3.890   7.045  0.0793 -0.3250  0.0280
  129OSM    O1413854   3.184   3.886   7.296 -0.2892  0.7416 -0.2225
  129OSM    O1113855   3.033   3.753   7.144 -0.1916 -0.5791  0.2333
  129OSM    O1213856   3.021   4.003   7.140 -0.3701 -0.0137  0.1316
  129OSM    C1S13857   2.968   3.733   7.018 -0.7466 -0.6043 -0.4076
  129OSM    H1S13858   2.956   3.822   6.953 -0.7142 -0.2770  0.0345
  129OSM    H1T13859   2.867   3.694   7.043 -0.7867 -0.2078  0.0686
  129OSM     NF13860   2.981   3.617   6.794 -0.1863  0.7465 -0.7527
  129OSM    HNF13861   2.889   3.584   6.775 -0.6130  2.3578 -1.6453
  129OSM    C2S13862   3.027   3.615   6.933 -0.2308 -0.3200  0.1718
  129OSM    H2S13863   3.136   3.630   6.944  0.2406 -3.8752  2.0298
  129OSM    C3S13864   3.010   3.471   7.005 -0.5519 -0.2258  0.5430
  129OSM    H3S13865   2.901   3.451   7.004 -0.5393 -0.4966  2.0961
  129OSM     O313866   3.037   3.472   7.144  0.4484 -0.6064 -0.0375
  129OSM    HO313867   3.053   3.565   7.162  1.1947 -0.8538  0.6325
  129OSM    C4S13868   3.083   3.354   6.945  0.7691  0.1222  0.0435
  129OSM    H4S13869   3.036   3.319   6.852 -0.9059  2.1224  0.0355
  129OSM    C5S13870   3.197   3.297   6.989 -0.0568 -0.0835  0.2796
  129OSM    H5S13871   3.253   3.342   7.073 -0.1350  0.3881  0.0829
  129OSM    C6S13872   3.274   3.187   6.917  0.4299 -0.5814 -0.1555
  129OSM    H6S13873   3.311   3.111   6.989  0.5986  1.1589  1.7026
  129OSM    H6T13874   3.367   3.230   6.875  2.2128  0.7646  4.5408
  129OSM    C7S13875   3.191   3.127   6.809  0.2885 -0.0705  0.2760
  129OSM    H7S13876   3.171   3.201   6.728 -1.8450  0.7258  1.4412
  129OSM    H7T13877   3.089   3.093   6.837  0.0530 -0.4134 -0.9653
  129OSM    C8S13878   3.254   3.000   6.746 -0.6096  0.2634  0.0799
  129OSM    H8S13879   3.258   2.923   6.826 -0.8289  1.7364  1.5472
  129OSM    H8T13880   3.361   3.019   6.722 -0.3514 -2.3067 -1.2415
  129OSM    C9S13881   3.172   2.963   6.627  0.0948  0.5328 -0.3744
  129OSM    H9S13882   3.174   3.051   6.558  1.2269  0.4016 -0.5270
  129OSM    H9T13883   3.069   2.946   6.664 -0.4748  2.4925 -0.9385
  129OSM   C10S13884   3.226   2.838   6.557 -0.0067 -0.1953  0.8198
  129OSM   H10S13885   3.223   2.751   6.625 -1.1227  2.2266  4.1609
  129OSM   H10T13886   3.335   2.849   6.538 -0.3356 -0.1937 -1.3065
  129OSM   C11S13887   3.156   2.797   6.431 -0.0848  0.2660 -0.2500
  129OSM   H11S13888   3.051   2.767   6.449 -0.1653 -1.7003 -3.3169
  129OSM   H11T13889   3.209   2.709   6.388 -0.4681 -0.3732  0.5705
  129OSM   C12S13890   3.168   2.887   6.301 -0.1243  0.1902 -0.5366
  129OSM   H12S13891   3.106   2.976   6.325 -1.8837 -1.0357 -0.3503
  129OSM   H12T13892   3.145   2.833   6.207  0.7587  1.8698 -1.7728
  129OSM   C13S13893   3.313   2.933   6.272  0.3370 -0.2792  0.0351
  129OSM   H13S13894   3.387   2.850   6.269 -0.0823 -0.7092  1.1358
  129OSM   H13T13895   3.326   2.995   6.363 -0.8826  3.6973 -2.2545
  129OSM   C14S13896   3.323   3.049   6.162  0.3424  0.3514  0.7483
  129OSM   H14S13897   3.424   3.088   6.138  0.4766 -0.8700 -0.8810
  129OSM   H14T13898   3.265   3.138   6.194 -1.4224 -0.4082 -0.1797
  129OSM   C15S13899   3.258   3.009   6.031  0.5399  0.5454  0.0025
  129OSM   H15S13900   3.147   3.012   6.042  0.5068 -2.3540  1.6374
  129OSM   H15T13901   3.283   2.902   6.014  1.5959  1.0302 -1.7513
  129OSM   C16S13902   3.301   3.101   5.918  0.5526 -0.0953  0.0906
  129OSM   H16S13903   3.408   3.079   5.897  0.2936 -0.9808 -0.3963
  129OSM   H16T13904   3.288   3.203   5.959 -1.5498 -0.8401  1.4468
  129OSM   C17S13905   3.206   3.093   5.794 -0.0368 -0.0298 -0.6914
  129OSM   H17S13906   3.196   3.191   5.742  0.7472 -0.2538 -1.2847
  129OSM   H17T13907   3.105   3.085   5.840 -0.2070  0.7509 -0.9114
  129OSM   C18S13908   3.243   2.984   5.688 -0.6833  0.2956 -0.7155
  129OSM   H18S13909   3.174   2.993   5.602 -1.3719  1.1622 -0.0830
  129OSM   H18T13910   3.253   2.890   5.746  1.4526  0.8568 -0.0663
  129OSM   H18U13911   3.345   3.012   5.652 -0.8884  1.6170 -0.3227
  129OSM    C1F13912   3.006   3.724   6.721 -0.3489  0.0380 -0.2435
  129OSM     OF13913   3.092   3.801   6.758 -0.6844 -0.1538 -0.0735
  129OSM    C2F13914   2.909   3.752   6.608 -0.2388  0.4266 -0.5902
  129OSM    H2F13915   2.808   3.783   6.642 -0.0756  0.9266 -0.5526
  129OSM    H2G13916   2.896   3.663   6.542 -2.8838  0.6954 -0.5500
  129OSM    C3F13917   2.958   3.867   6.524  0.4288 -0.6927  0.6160
  129OSM    H3F13918   3.066   3.861   6.500  0.2567  1.2275 -0.9619
  129OSM    H3G13919   2.936   3.968   6.563  0.7003  0.1902 -1.3974
  129OSM    C4F13920   2.899   3.863   6.378 -0.4686  0.1394  0.2358
  129OSM    H4F13921   2.855   3.963   6.355  2.0342  1.8955  2.4662
  129OSM    H4G13922   2.822   3.783   6.385 -2.4993  1.9984  0.2153
  129OSM    C5F13923   3.003   3.815   6.276  0.3967 -0.5961  0.3212
  129OSM    H5F13924   3.056   3.727   6.317  2.9005 -0.4765 -2.3121
  129OSM    H5G13925   3.077   3.895   6.255 -0.4708  0.3868  0.9260
  129OSM    C6F13926   2.934   3.796   6.135 -0.1038 -0.1883 -0.2111
  129OSM    H6F13927   2.877   3.702   6.148  0.0855 -0.2204  0.4268
  129OSM    H6G13928   3.015   3.765   6.066 -0.5940  1.0323 -1.3651
  129OSM    C7F13929   2.833   3.899   6.079 -0.4218  0.5391  0.0843
  129OSM    H7F13930   2.753   3.888   6.155  0.7311 -0.8559  1.1383
  129OSM    H7G13931   2.803   3.860   5.979  0.0572 -0.7218  0.4278
  129OSM    C8F13932   2.887   4.045   6.069  0.2053  0.7315 -0.1449
  129OSM    H8F13933   2.959   4.047   5.985 -0.7011 -0.5085 -0.9906
  129OSM    H8G13934   2.947   4.062   6.161  0.0798  0.4847 -0.0172
  129OSM    C9F13935   2.770   4.141   6.063 -0.2582  0.0486  0.5645
  129OSM    H9F13936   2.710   4.160   6.153  0.5932  1.6362  0.8210
  129OSM   C10F13937   2.715   4.174   5.944 -0.5202 -0.3328  0.0565
  129OSM   H10F13938   2.628   4.242   5.936  0.4772  1.0120  0.2034
  129OSM   C11F13939   2.769   4.132   5.813  0.4060 -0.0495  0.2144
  129OSM   H11F13940   2.683   4.119   5.744  1.4265 -4.5035 -0.5609
  129OSM   H11G13941   2.830   4.039   5.817  0.6037  0.1048  0.9444
  129OSM   C12F13942   2.854   4.244   5.756 -0.5384 -0.0625 -0.0011
  129OSM   H12F13943   2.942   4.268   5.820  0.9434  0.3297 -2.0430
  129OSM   H12G13944   2.789   4.334   5.752 -0.4844 -0.0522 -2.1625
  129OSM   C13F13945   2.896   4.220   5.612 -0.4812  0.1107  0.0405
  129OSM   H13F13946   2.898   4.311   5.548 -0.5270  0.2081  0.1751
  129OSM   H13G13947   2.825   4.151   5.562 -0.6310 -0.4950  1.0517
  129OSM   C14F13948   3.027   4.150   5.601  0.4086 -0.6622  0.3808
  129OSM   H14F13949   3.027   4.071   5.679 -0.0735 -0.1373  0.9308
  129OSM   H14G13950   3.094   4.234   5.630  0.2333 -0.6754  0.8374
  129OSM   C15F13951   3.072   4.095   5.471  0.2077 -0.1869 -0.1832
  129OSM   H15F13952   2.999   4.017   5.441  0.2703  0.4848 -2.3197
  129OSM   H15G13953   3.173   4.055   5.491 -0.0208 -0.9929 -0.6092
  129OSM   C16F13954   3.089   4.198   5.356 -0.1792 -0.2994 -0.3919
  129OSM   H16F13955   3.162   4.282   5.356 -2.6651  2.0029 -0.2765
  129OSM   H16G13956   2.991   4.246   5.332 -0.7252 -0.9504  0.4590
  129OSM   C17F13957   3.119   4.122   5.227 -0.2857  0.0762 -0.6370
  129OSM   H17F13958   3.048   4.041   5.200  1.7090 -1.1776 -2.5092
  129OSM   H17G13959   3.219   4.078   5.250 -0.9201  0.3351  3.1871
  129OSM   C18F13960   3.130   4.210   5.099 -0.0163  0.1290 -0.5890
  129OSM   H18F13961   3.171   4.148   5.017  1.1120 -0.5632  0.4614
  129OSM   H18G13962   3.190   4.300   5.125  1.2603 -0.9553  0.3120
  129OSM   H18H13963   3.031   4.242   5.058 -1.0994 -1.9174  0.2729
  130OSM      N13964   2.335   5.629   7.511 -0.3121 -0.3711 -0.1276
  130OSM    C1513965   2.464   5.626   7.589  0.6395  0.3450  0.0454
  130OSM   H15A13966   2.508   5.723   7.608  0.4968  0.3060  0.6048
  130OSM   H15B13967   2.544   5.565   7.550  0.3292  2.0771 -3.7119
  130OSM   H15C13968   2.444   5.579   7.684 -1.8517  1.7259  0.2960
  130OSM    C1413969   2.286   5.491   7.489  0.6289  0.3962 -0.3409
  130OSM   H14A13970   2.251   5.443   7.580 -0.1534  0.7784 -0.4323
  130OSM   H14B13971   2.372   5.445   7.443  0.9927  1.0848 -0.3470
  130OSM   H14C13972   2.207   5.502   7.417  0.2532  0.7818  0.1192
  130OSM    C1313973   2.231   5.704   7.588 -0.2671 -0.1867 -0.0876
  130OSM   H13A13974   2.192   5.654   7.675  0.8651 -0.0783  0.4865
  130OSM   H13B13975   2.151   5.717   7.516  0.7003  2.9817 -0.7602
  130OSM   H13C13976   2.265   5.804   7.610  0.1166 -0.2927 -0.1935
  130OSM    C1213977   2.365   5.701   7.377 -0.4534 -0.5922  0.4501
  130OSM   H12A13978   2.440   5.644   7.325  0.6321  0.9252  0.2685
  130OSM   H12B13979   2.418   5.792   7.402 -0.1848 -0.4441 -0.6157
  130OSM    C1113980   2.251   5.744   7.286  0.6140  0.0986  0.3860
  130OSM   H11A13981   2.201   5.647   7.263  3.1912 -0.9300 -1.4335
  130OSM   H11B13982   2.286   5.773   7.184  0.6376 -1.1078  0.0287
  130OSM      P13983   2.016   5.862   7.296  0.2314  0.4418  0.2848
  130OSM    O1313984   1.926   5.761   7.360  0.2404 -0.0413  0.6563
  130OSM    O1413985   1.978   6.007   7.324  0.1372  0.2216 -0.2236
  130OSM    O1113986   2.034   5.834   7.146 -0.1888  0.1362  0.4052
  130OSM    O1213987   2.156   5.835   7.350  0.5520 -0.6409  0.2589
  130OSM    C1S13988   1.927   5.813   7.059  0.0305  0.5100 -0.3735
  130OSM    H1S13989   1.840   5.879   7.084  0.7592  0.5399  2.3907
  130OSM    H1T13990   1.895   5.708   7.077  2.0583 -0.3047 -1.3166
  130OSM     NF13991   1.842   5.833   6.821  0.7485  0.2840  1.0607
  130OSM    HNF13992   1.810   5.740   6.803  1.1815  0.2666  0.3596
  130OSM    C2S13993   1.962   5.819   6.898 -0.2975 -0.2400  0.5739
  130OSM    H2S13994   2.012   5.917   6.882  0.5518 -0.8775 -0.9469
  130OSM    C3S13995   2.057   5.699   6.867  0.3758 -0.1469 -0.6040
  130OSM    H3S13996   2.003   5.603   6.876  2.2716 -1.1555  0.6978
  130OSM     O313997   2.164   5.685   6.960  0.3114  0.4260 -0.7809
  130OSM    HO313998   2.137   5.743   7.031 -1.7050  1.2729 -2.1647
  130OSM    C4S13999   2.117   5.719   6.728  0.0219  0.2403  0.6797
  130OSM    H4S14000   2.128   5.816   6.678 -1.3240  0.0613 -0.0190
  130OSM    C5S14001   2.171   5.616   6.652  0.0782  0.2049 -0.4029
  130OSM    H5S14002   2.165   5.518   6.702 -0.8749  0.0486 -0.7978
  130OSM    C6S14003   2.231   5.614   6.508  0.4831 -0.1294  0.1246
  130OSM    H6S14004   2.175   5.538   6.450 -1.2339  2.7153 -2.2468
  130OSM    H6T14005   2.338   5.590   6.521  0.8960  1.2538 -0.5861
  130OSM    C7S14006   2.204   5.750   6.438  0.4248 -0.4281 -0.6594
  130OSM    H7S14007   2.251   5.828   6.502 -0.2340 -0.8820  0.4178
  130OSM    H7T14008   2.097   5.771   6.460  0.4186 -0.2574 -0.8608
  130OSM    C8S14009   2.245   5.755   6.291 -0.0823 -0.1299  0.7588
  130OSM    H8S14010   2.182   5.671   6.256 -1.0445  0.2675  1.4804
  130OSM    H8T14011   2.350   5.728   6.270 -0.3539 -2.0238  1.6446
  130OSM    C9S14012   2.195   5.891   6.230 -0.2719 -0.7877 -0.2768
  130OSM    H9S14013   2.247   5.980   6.272 -1.8748  0.0388  0.0706
  130OSM    H9T14014   2.092   5.921   6.261  0.9981  2.0014  1.6401
  130OSM   C10S14015   2.193   5.894   6.079 -0.0337 -0.4882 -0.4351
  130OSM   H10S14016   2.273   5.828   6.039 -0.0522 -1.2986  0.8265
  130OSM   H10T14017   2.212   5.995   6.038 -0.3344 -0.2017  0.1196
  130OSM   C11S14018   2.065   5.855   6.004  0.2252  0.0136 -0.0826
  130OSM   H11S14019   1.991   5.933   6.033  1.3377  0.5509  1.4086
  130OSM   H11T14020   2.025   5.756   6.037 -0.5289  0.5701  0.6963
  130OSM   C12S14021   2.076   5.859   5.853  0.1914  0.3520  0.3573
  130OSM   H12S14022   2.148   5.776   5.837 -1.0430 -0.5707 -0.6276
  130OSM   H12T14023   2.126   5.950   5.814  1.7651 -0.8737 -0.6071
  130OSM   C13S14024   1.946   5.837   5.776  0.1977 -0.0990  0.3001
  130OSM   H13S14025   1.890   5.931   5.793 -0.3120 -0.7106  2.3189
  130OSM   H13T14026   1.887   5.760   5.831 -1.3587  1.3606  0.7415
  130OSM   C14S14027   1.960   5.797   5.623  0.0680 -0.2058 -0.0883
  130OSM   H14S14028   2.012   5.702   5.599  1.2937  0.5780 -0.7075
  130OSM   H14T14029   2.031   5.874   5.584  0.6615  0.0178  1.3725
  130OSM   C15S14030   1.830   5.801   5.540  0.6007  0.1995  0.5717
  130OSM   H15S14031   1.777   5.898   5.534 -1.1488 -0.6657  1.3743
  130OSM   H15T14032   1.768   5.733   5.602  0.2587 -0.2062 -0.1970
  130OSM   C16S14033   1.845   5.733   5.404  0.4490 -0.0723 -0.2472
  130OSM   H16S14034   1.913   5.645   5.408 -1.0850 -1.5395 -3.2667
  130OSM   H16T14035   1.895   5.808   5.340  0.7629 -0.7861 -0.8519
  130OSM   C17S14036   1.719   5.677   5.335 -0.5805  0.5846 -0.5035
  130OSM   H17S14037   1.661   5.763   5.295 -2.1930  0.0169  0.5123
  130OSM   H17T14038   1.658   5.628   5.414  1.3351 -1.4735 -0.1933
  130OSM   C18S14039   1.743   5.570   5.225  0.0819 -0.0508  0.3099
  130OSM   H18S14040   1.645   5.528   5.196 -1.1377  1.6468  1.7324
  130OSM   H18T14041   1.804   5.490   5.272 -1.1038 -0.0412  1.9547
  130OSM   H18U14042   1.796   5.612   5.136 -1.8300 -0.2210 -0.9514
  130OSM    C1F14043   1.767   5.948   6.809  0.6521 -0.2825  0.3097
  130OSM     OF14044   1.792   6.052   6.871  0.2036 -0.4441  0.6931
  130OSM    C2F14045   1.639   5.936   6.720 -0.0345  0.1698 -0.3676
  130OSM    H2F14046   1.564   5.908   6.797  0.4725  1.4298  0.6258
  130OSM    H2G14047   1.659   5.848   6.655 -0.5873  0.7760 -1.3652
  130OSM    C3F14048   1.611   6.062   6.639 -0.1623 -0.8204 -0.0080
  130OSM    H3F14049   1.699   6.082   6.575 -1.1986 -0.1718 -1.2722
  130OSM    H3G14050   1.601   6.146   6.711  3.2852 -0.1000 -0.2065
  130OSM    C4F14051   1.487   6.060   6.552  0.1641 -0.1723  0.6784
  130OSM    H4F14052   1.404   6.056   6.626 -0.2677  0.0534  0.2121
  130OSM    H4G14053   1.494   5.967   6.492 -1.0409 -0.9774  1.7224
  130OSM    C5F14054   1.464   6.184   6.471 -0.3821  0.0041  0.9663
  130OSM    H5F14055   1.467   6.270   6.541  1.3994  1.9065 -1.2700
  130OSM    H5G14056   1.362   6.193   6.429  0.6199 -0.2788 -1.6949
  130OSM    C6F14057   1.564   6.204   6.358 -0.5411 -0.2907  0.9200
  130OSM    H6F14058   1.582   6.118   6.290  1.0035  0.3487  0.4668
  130OSM    H6G14059   1.662   6.212   6.409  0.2237 -0.4231 -0.4672
  130OSM    C7F14060   1.541   6.340   6.288  0.1992 -0.4472  0.9384
  130OSM    H7F14061   1.634   6.356   6.229  0.1772  1.1821  1.2849
  130OSM    H7G14062   1.542   6.423   6.362  0.8815  1.1446 -0.7560
  130OSM    C8F14063   1.420   6.346   6.191 -0.0397 -0.4630 -0.1276
  130OSM    H8F14064   1.322   6.344   6.243 -0.3585 -1.3754 -0.7358
  130OSM    H8G14065   1.434   6.262   6.120 -0.5036 -1.9512  1.4612
  130OSM    C9F14066   1.428   6.478   6.116  0.0812  0.5838  0.5442
  130OSM    H9F14067   1.369   6.559   6.160 -0.6426 -0.1319  0.9190
  130OSM   C10F14068   1.502   6.509   6.005  0.0902  0.8778 -0.2319
  130OSM   H10F14069   1.495   6.613   5.970  0.4415  1.3312  1.0182
  130OSM   C11F14070   1.580   6.413   5.913  0.4537  0.2440  0.1341
  130OSM   H11F14071   1.577   6.305   5.941  1.5811 -0.3449 -1.8269
  130OSM   H11G14072   1.686   6.445   5.924  0.2248  0.7714  0.9136
  130OSM   C12F14073   1.534   6.435   5.762 -0.4195  0.3208  0.2230
  130OSM   H12F14074   1.592   6.360   5.703 -0.9066  0.9160 -1.0559
  130OSM   H12G14075   1.583   6.530   5.731  2.6727 -1.3669 -0.5039
  130OSM   C13F14076   1.382   6.438   5.748 -0.1252  0.1581  0.4004
  130OSM   H13F14077   1.336   6.537   5.769 -2.1907 -0.7472  0.4274
  130OSM   H13G14078   1.331   6.374   5.823  2.1941 -1.8236  0.4279
  130OSM   C14F14079   1.342   6.401   5.606  0.4671 -0.2568 -0.3397
  130OSM   H14F14080   1.232   6.388   5.601  0.6317 -1.7613 -0.4077
  130OSM   H14G14081   1.403   6.316   5.570  2.3041  0.5047  0.8442
  130OSM   C15F14082   1.368   6.507   5.495 -0.6368 -0.1589  0.4063
  130OSM   H15F14083   1.347   6.609   5.533  4.3144  1.8618 -1.3464
  130OSM   H15G14084   1.300   6.474   5.414 -0.8161  0.2275  0.3997
  130OSM   C16F14085   1.510   6.504   5.428  0.1614  0.5295  0.2347
  130OSM   H16F14086   1.533   6.397   5.405 -0.7133  0.3247  0.2990
  130OSM   H16G14087   1.584   6.526   5.508  0.0098 -2.2617  1.2404
  130OSM   C17F14088   1.538   6.601   5.307  0.2665 -0.1285  0.1798
  130OSM   H17F14089   1.483   6.550   5.225  0.2594  1.1737 -0.6617
  130OSM   H17G14090   1.648   6.599   5.298  0.2203  0.1051 -0.4776
  130OSM   C18F14091   1.476   6.741   5.335 -0.9273  0.3861  0.0449
  130OSM   H18F14092   1.368   6.716   5.328 -0.2865 -2.2724 -2.5247
  130OSM   H18G14093   1.510   6.802   5.248  0.1340 -1.4800 -0.9146
  130OSM   H18H14094   1.510   6.785   5.431  0.7321 -1.9852  0.6442
  131OSM      N14095   3.093   2.744   7.578  0.1714 -0.4092 -0.2602
  131OSM    C1514096   2.957   2.721   7.644  0.4537  0.5307 -0.0778
  131OSM   H15A14097   2.960   2.719   7.752 -0.9370 -1.2510 -0.0406
  131OSM   H15B14098   2.926   2.622   7.612 -3.9631  1.1411  1.6464
  131OSM   H15C14099   2.888   2.794   7.605 -0.5639  0.5970  1.7603
  131OSM    C1414100   3.149   2.875   7.625  0.5472 -0.3671  0.3344
  131OSM   H14A14101   3.073   2.949   7.606 -2.6102 -3.6273 -0.9509
  131OSM   H14B14102   3.244   2.893   7.577 -0.5713  3.1083 -0.8144
  131OSM   H14C14103   3.164   2.870   7.732  0.9928 -3.3322  0.2144
  131OSM    C1314104   3.191   2.635   7.603  0.6662 -0.0296 -0.0089
  131OSM   H13A14105   3.137   2.544   7.584  0.1727  0.4926 -1.1871
  131OSM   H13B14106   3.227   2.637   7.705 -0.1072  2.2555  0.2876
  131OSM   H13C14107   3.280   2.630   7.543  0.9830 -0.3827  0.4804
  131OSM    C1214108   3.072   2.747   7.421 -0.2767 -0.1218 -0.4820
  131OSM   H12A14109   3.169   2.764   7.377 -0.4757  0.9457 -0.5213
  131OSM   H12B14110   3.023   2.839   7.395 -0.5935 -0.3864 -0.8319
  131OSM    C1114111   2.999   2.627   7.356  0.3852 -0.7261  0.2182
  131OSM   H11A14112   2.995   2.631   7.245  0.1273 -1.4691  0.1922
  131OSM   H11B14113   2.890   2.643   7.375  0.3256  0.1738 -0.7896
  131OSM      P14114   2.987   2.375   7.442  0.1749  0.0318  0.0938
  131OSM    O1314115   3.065   2.309   7.550 -0.9024  0.4398 -0.1919
  131OSM    O1414116   2.849   2.424   7.470  0.0337  0.3485 -0.6129
  131OSM    O1114117   2.978   2.279   7.317  0.6505 -0.4754  0.0993
  131OSM    O1214118   3.070   2.498   7.385  0.1489  0.6393 -0.0989
  131OSM    C1S14119   2.873   2.292   7.211  0.1989 -0.1179  0.2090
  131OSM    H1S14120   2.782   2.348   7.242 -0.7322 -0.9768 -0.8824
  131OSM    H1T14121   2.837   2.194   7.175 -0.9726 -0.7234  2.7895
  131OSM     NF14122   2.824   2.404   6.990  0.4284 -0.0045  0.1925
  131OSM    HNF14123   2.823   2.358   6.902 -0.4143  0.7693 -0.2060
  131OSM    C2S14124   2.933   2.356   7.080 -0.0363 -0.0591  0.6528
  131OSM    H2S14125   2.992   2.446   7.110  1.4096 -1.0959  1.0493
  131OSM    C3S14126   3.034   2.258   7.017 -0.3259  0.7947  0.4155
  131OSM    H3S14127   2.971   2.174   6.981  0.3006  0.4895  0.0105
  131OSM     O314128   3.130   2.215   7.114  0.4943  0.2874  0.1880
  131OSM    HO314129   3.086   2.231   7.198 -2.0035  0.4891 -1.0620
  131OSM    C4S14130   3.098   2.317   6.888  0.7345  0.0437 -0.4897
  131OSM    H4S14131   3.037   2.293   6.800  1.6044 -1.2838 -0.7652
  131OSM    C5S14132   3.218   2.377   6.867 -0.2459 -0.1476 -0.5931
  131OSM    H5S14133   3.280   2.390   6.957 -1.9243 -0.2757  0.6405
  131OSM    C6S14134   3.288   2.418   6.743  0.3249  0.1167 -0.6149
  131OSM    H6S14135   3.378   2.356   6.724  1.2912  1.5271 -0.7832
  131OSM    H6T14136   3.324   2.522   6.749 -3.7888  1.7100 -0.3015
  131OSM    C7S14137   3.208   2.404   6.608  0.2001 -0.3075  0.3925
  131OSM    H7S14138   3.110   2.455   6.603  0.6722  0.6763  0.9759
  131OSM    H7T14139   3.179   2.299   6.586  0.0452  0.0554 -1.2641
  131OSM    C8S14140   3.287   2.441   6.481  0.5326 -0.3860  0.2793
  131OSM    H8S14141   3.379   2.379   6.488  0.4353 -0.4466  1.0594
  131OSM    H8T14142   3.313   2.549   6.483  0.9460 -0.4259 -1.3611
  131OSM    C9S14143   3.210   2.406   6.354 -0.0911 -0.4243  0.3717
  131OSM    H9S14144   3.119   2.470   6.351  0.6872  0.6543 -1.1679
  131OSM    H9T14145   3.186   2.298   6.365  2.7192 -1.1729 -0.1798
  131OSM   C10S14146   3.286   2.420   6.226 -0.0178 -0.0845 -0.3388
  131OSM   H10S14147   3.236   2.370   6.141  1.5611  1.0635 -2.0340
  131OSM   H10T14148   3.383   2.369   6.246 -1.2789 -1.6543  2.5057
  131OSM   C11S14149   3.323   2.563   6.192 -0.0873 -0.3627 -0.6483
  131OSM   H11S14150   3.368   2.608   6.283 -1.2051 -1.2227  0.3712
  131OSM   H11T14151   3.224   2.613   6.183 -0.5098 -0.8287  0.9156
  131OSM   C12S14152   3.417   2.590   6.074  0.6413  0.0403  0.7010
  131OSM   H12S14153   3.490   2.508   6.058  0.7330  0.2035  0.2684
  131OSM   H12T14154   3.461   2.690   6.097 -1.8288  1.1428  1.0018
  131OSM   C13S14155   3.324   2.598   5.953 -0.2937 -0.0179 -0.4575
  131OSM   H13S14156   3.253   2.683   5.963 -1.9790 -1.2095 -1.7707
  131OSM   H13T14157   3.253   2.513   5.953 -0.4510  0.1052  0.4292
  131OSM   C14S14158   3.405   2.602   5.817  0.6526  0.1947  0.4511
  131OSM   H14S14159   3.493   2.534   5.806  0.1671 -0.3293 -0.4111
  131OSM   H14T14160   3.436   2.708   5.806  1.2490 -0.0383 -0.2462
  131OSM   C15S14161   3.313   2.553   5.701 -0.0120 -0.7701 -0.0057
  131OSM   H15S14162   3.206   2.571   5.725 -0.2643 -0.3509 -1.3694
  131OSM   H15T14163   3.326   2.443   5.695  1.3164 -0.7193  1.3208
  131OSM   C16S14164   3.350   2.624   5.572 -0.2906 -0.2492 -0.4414
  131OSM   H16S14165   3.350   2.735   5.581 -2.1061 -0.1756 -1.0317
  131OSM   H16T14166   3.275   2.586   5.500  1.3813 -0.5098 -2.1285
  131OSM   C17S14167   3.484   2.575   5.524 -0.4537 -0.0132 -0.4778
  131OSM   H17S14168   3.484   2.464   5.524 -0.8561 -0.0745  2.0000
  131OSM   H17T14169   3.564   2.612   5.592 -1.1304  0.0731  0.2954
  131OSM   C18S14170   3.511   2.635   5.387  0.2196  0.6502 -0.4249
  131OSM   H18S14171   3.443   2.593   5.309 -0.5928 -1.5931  1.3883
  131OSM   H18T14172   3.616   2.607   5.362 -0.0066 -3.7410  2.4502
  131OSM   H18U14173   3.501   2.744   5.371 -0.5722  0.7520  0.6621
  131OSM    C1F14174   2.736   2.496   7.029 -0.0743 -0.2666 -0.8267
  131OSM     OF14175   2.767   2.573   7.130  0.5322 -0.5466  0.2411
  131OSM    C2F14176   2.610   2.515   6.940  0.5998  0.7336  0.0859
  131OSM    H2F14177   2.533   2.458   6.996  0.2262  0.8555 -0.2913
  131OSM    H2G14178   2.616   2.465   6.841 -0.9567 -0.1468  0.4027
  131OSM    C3F14179   2.567   2.660   6.941 -0.9004 -0.1635  0.3292
  131OSM    H3F14180   2.648   2.709   6.882  0.6665 -1.7747  1.0489
  131OSM    H3G14181   2.554   2.709   7.040 -1.6913  2.7444 -1.0846
  131OSM    C4F14182   2.434   2.678   6.864 -0.8465  0.0030 -0.0459
  131OSM    H4F14183   2.350   2.696   6.933 -1.7526  1.5036 -1.4665
  131OSM    H4G14184   2.405   2.583   6.813  1.3174 -0.8850  0.2665
  131OSM    C5F14185   2.429   2.800   6.771 -0.1271 -0.9742  0.1585
  131OSM    H5F14186   2.478   2.892   6.809 -1.2852  0.1497 -0.9219
  131OSM    H5G14187   2.320   2.823   6.765  0.1728  1.5742  2.4523
  131OSM    C6F14188   2.508   2.769   6.640 -0.2472 -0.2906 -0.0472
  131OSM    H6F14189   2.469   2.676   6.592  0.9112  0.1001 -1.8371
  131OSM    H6G14190   2.616   2.749   6.654 -0.3586 -1.4371 -0.6601
  131OSM    C7F14191   2.479   2.865   6.529  0.7145 -0.3556  0.4631
  131OSM    H7F14192   2.513   2.965   6.563 -2.2176  0.7009  0.6115
  131OSM    H7G14193   2.368   2.868   6.525  0.5236 -3.8898 -0.0851
  131OSM    C8F14194   2.534   2.834   6.392 -0.0739  0.4212  0.3693
  131OSM    H8F14195   2.494   2.906   6.317  2.6004 -2.0765 -3.9331
  131OSM    H8G14196   2.489   2.737   6.359 -0.3831  0.1690  1.5055
  131OSM    C9F14197   2.683   2.818   6.387  0.6513 -0.6122  0.3318
  131OSM    H9F14198   2.727   2.768   6.474 -1.0869  1.0671  2.2660
  131OSM   C10F14199   2.766   2.839   6.277  0.3437 -0.1110 -0.1472
  131OSM   H10F14200   2.875   2.822   6.287  0.3741 -0.1392 -0.4915
  131OSM   C11F14201   2.707   2.876   6.141 -0.4245 -0.3492 -0.3795
  131OSM   H11F14202   2.737   2.979   6.114  0.1162 -0.2960  0.3846
  131OSM   H11G14203   2.597   2.865   6.153 -0.4015  0.6389  1.0149
  131OSM   C12F14204   2.750   2.800   6.011  0.3510 -0.5465 -0.1430
  131OSM   H12F14205   2.690   2.832   5.923  1.0396  1.0828 -0.0461
  131OSM   H12G14206   2.742   2.689   6.021 -1.8419 -0.2907  1.6780
  131OSM   C13F14207   2.901   2.816   5.982 -0.9058  0.5124 -0.0908
  131OSM   H13F14208   2.961   2.742   6.039 -0.6415 -1.9637 -3.3284
  131OSM   H13G14209   2.941   2.914   6.016  4.2187 -0.5182 -2.2792
  131OSM   C14F14210   2.936   2.803   5.831 -0.4428 -0.3141  0.0767
  131OSM   H14F14211   3.046   2.798   5.820  0.2182 -0.1808  4.5467
  131OSM   H14G14212   2.900   2.890   5.772 -0.6548 -0.0847  0.5388
  131OSM   C15F14213   2.889   2.670   5.775  0.3453  0.7689 -0.1019
  131OSM   H15F14214   2.783   2.650   5.801  0.3095  0.9239 -0.1264
  131OSM   H15G14215   2.950   2.592   5.826  0.4108  0.2267 -1.0066
  131OSM   C16F14216   2.901   2.658   5.624  0.5152  0.2424  0.1187
  131OSM   H16F14217   2.990   2.716   5.592  0.5883 -0.5846 -1.2613
  131OSM   H16G14218   2.819   2.715   5.575  2.2842  1.9485 -0.9488
  131OSM   C17F14219   2.902   2.513   5.567 -0.1473  0.6605 -0.1725
  131OSM   H17F14220   2.802   2.468   5.587  0.8211 -1.3125  0.5636
  131OSM   H17G14221   2.987   2.459   5.616  0.7632  1.3613 -0.9506
  131OSM   C18F14222   2.915   2.515   5.414  0.2747  0.6275 -0.1933
  131OSM   H18F14223   3.019   2.547   5.392  1.7262 -3.0234  0.6176
  131OSM   H18G14224   2.846   2.594   5.377  0.6507  0.4924 -1.2077
  131OSM   H18H14225   2.883   2.416   5.374 -1.1789 -0.3614  3.0544
  132OSM      N14226   2.815   5.571   6.893  0.1668 -0.2714 -0.0946
  132OSM    C1514227   2.720   5.529   7.005  0.2665  0.8824  0.0070
  132OSM   H15A14228   2.664   5.617   7.033  0.8285  0.5134  2.5618
  132OSM   H15B14229   2.772   5.488   7.091  0.9762  1.1362 -0.2943
  132OSM   H15C14230   2.653   5.454   6.966  0.9923  1.9146 -3.5679
  132OSM    C1414231   2.743   5.638   6.785 -0.4222  0.1086  0.1551
  132OSM   H14A14232   2.666   5.578   6.739 -1.4098  0.9542  0.6573
  132OSM   H14B14233   2.809   5.683   6.711 -0.5155 -0.5400 -0.3304
  132OSM   H14C14234   2.696   5.726   6.825 -0.4892 -0.6038  1.7189
  132OSM    C1314235   2.904   5.670   6.956 -0.6985  0.2118 -0.1529
  132OSM   H13A14236   2.844   5.752   6.992  1.1874  0.5818  2.4510
  132OSM   H13B14237   2.987   5.705   6.895 -2.0915 -0.1674 -2.3652
  132OSM   H13C14238   2.943   5.634   7.050  0.6225 -0.5070 -0.9510
  132OSM    C1214239   2.887   5.444   6.836 -0.5245  0.6768 -0.8727
  132OSM   H12A14240   2.943   5.399   6.917  0.1004  0.8627 -1.1911
  132OSM   H12B14241   2.959   5.480   6.763 -2.0945  1.8370 -1.9180
  132OSM    C1114242   2.806   5.325   6.768 -0.4161 -0.8814 -0.4572
  132OSM   H11A14243   2.882   5.255   6.728  1.0243 -0.6524  1.6649
  132OSM   H11B14244   2.754   5.366   6.679  0.0461  0.6963 -0.0323
  132OSM      P14245   2.755   5.144   6.947 -0.5435 -0.3791  0.0098
  132OSM    O1314246   2.862   5.185   7.038 -0.3692  0.2241 -0.1762
  132OSM    O1414247   2.639   5.081   7.019 -0.9017  0.3416  0.4595
  132OSM    O1114248   2.807   5.045   6.841  0.3178 -0.1541 -0.3874
  132OSM    O1214249   2.722   5.268   6.862  0.1491  0.2548  0.3026
  132OSM    C1S14250   2.735   4.994   6.730 -0.7641  0.2785  0.9838
  132OSM    H1S14251   2.641   5.049   6.711 -0.4752 -0.4001 -3.6247
  132OSM    H1T14252   2.717   4.884   6.736 -0.0103  0.0609 -0.3750
  132OSM     NF14253   2.748   4.960   6.484  0.2591 -0.1316  0.6556
  132OSM    HNF14254   2.773   4.874   6.440  0.1635  0.2899 -0.2503
  132OSM    C2S14255   2.822   4.999   6.597  0.8023 -0.0878  0.0038
  132OSM    H2S14256   2.841   5.108   6.585 -0.4820  0.1249 -0.2103
  132OSM    C3S14257   2.955   4.929   6.627 -0.9884 -0.1312  0.7016
  132OSM    H3S14258   2.941   4.827   6.670 -0.0350 -0.0863  1.1463
  132OSM     O314259   3.040   5.001   6.717  0.3802  0.2575 -0.2493
  132OSM    HO314260   2.977   5.048   6.772  1.4281 -0.4271  1.6239
  132OSM    C4S14261   3.031   4.911   6.490 -0.3143  0.3123 -0.1566
  132OSM    H4S14262   3.045   4.805   6.464  1.1475 -0.1154  2.0653
  132OSM    C5S14263   3.075   5.003   6.401  0.0207 -0.1135 -0.0996
  132OSM    H5S14264   3.052   5.110   6.414 -0.7938 -0.1531 -1.0565
  132OSM    C6S14265   3.145   4.977   6.267 -0.1829  0.2277 -0.6219
  132OSM    H6S14266   3.140   4.869   6.243  0.1436  0.2200 -0.6523
  132OSM    H6T14267   3.250   5.013   6.259 -0.6698  1.6207 -1.0095
  132OSM    C7S14268   3.060   5.056   6.167 -0.4283  0.1553  0.2900
  132OSM    H7S14269   3.076   5.165   6.175 -0.0341  0.2471 -1.4974
  132OSM    H7T14270   2.951   5.042   6.186 -0.5957 -1.1435 -1.3321
  132OSM    C8S14271   3.085   5.005   6.018 -0.1145  0.4680 -0.2673
  132OSM    H8S14272   3.091   4.895   6.024  0.4493  0.5418  0.8604
  132OSM    H8T14273   3.188   5.039   5.992  0.5605 -1.4150 -0.1887
  132OSM    C9S14274   2.978   5.060   5.924  0.3047 -0.4092 -0.1729
  132OSM    H9S14275   2.986   5.167   5.953  0.8560 -0.9135  1.6725
  132OSM    H9T14276   2.873   5.037   5.952 -0.4492  0.4838 -2.0621
  132OSM   C10S14277   3.014   5.044   5.779 -0.3416  0.0602 -0.0355
  132OSM   H10S14278   2.994   4.940   5.744  0.1795 -1.3154  3.3635
  132OSM   H10T14279   3.124   5.055   5.773 -0.4576  0.6310 -1.9552
  132OSM   C11S14280   2.935   5.150   5.698 -0.9842 -0.8092  0.0191
  132OSM   H11S14281   2.933   5.248   5.750 -1.3662 -1.6701  1.7011
  132OSM   H11T14282   2.829   5.117   5.694 -0.9071 -1.0153 -0.3451
  132OSM   C12S14283   3.002   5.161   5.559  0.5031  0.0529  0.5291
  132OSM   H12S14284   2.989   5.060   5.514 -0.9807 -0.0452  1.1149
  132OSM   H12T14285   3.112   5.170   5.574  0.5176  0.4011  0.2342
  132OSM   C13S14286   2.930   5.271   5.476 -0.0013  0.5019 -0.6753
  132OSM   H13S14287   2.949   5.375   5.508  1.4120  0.3821 -1.0374
  132OSM   H13T14288   2.822   5.245   5.474 -0.8390  3.6669 -0.5989
  132OSM   C14S14289   2.976   5.259   5.329  0.2131 -0.4861  0.2595
  132OSM   H14S14290   2.951   5.155   5.302 -1.2078 -0.8839  2.7697
  132OSM   H14T14291   3.084   5.286   5.327 -0.2896  1.7343 -0.7084
  132OSM   C15S14292   2.892   5.362   5.244 -0.2560 -0.2149 -0.3786
  132OSM   H15S14293   2.913   5.462   5.289  0.0525 -0.2791 -0.3781
  132OSM   H15T14294   2.784   5.340   5.256 -0.6380  1.6864  0.1108
  132OSM   C16S14295   2.924   5.368   5.094  0.2949 -0.2865 -0.4116
  132OSM   H16S14296   2.912   5.261   5.068 -2.3243 -0.3752  0.8208
  132OSM   H16T14297   3.032   5.397   5.091  0.2049  0.1081 -0.0288
  132OSM   C17S14298   2.834   5.449   5.001  0.1785  0.4195  0.5122
  132OSM   H17S14299   2.868   5.445   4.895 -4.5421  0.9533 -1.2398
  132OSM   H17T14300   2.836   5.556   5.028  0.4949  0.4989  0.1833
  132OSM   C18S14301   2.687   5.419   4.999  0.2329 -0.0941 -0.3618
  132OSM   H18S14302   2.618   5.493   4.953 -0.8594 -0.9923 -0.2175
  132OSM   H18T14303   2.659   5.415   5.106 -0.1098 -0.9490 -0.4726
  132OSM   H18U14304   2.662   5.320   4.955  1.4584 -0.5473 -0.0544
  132OSM    C1F14305   2.642   5.017   6.427 -0.3302  0.3301  0.4049
  132OSM     OF14306   2.571   5.098   6.486  0.3225 -0.2681 -0.1677
  132OSM    C2F14307   2.621   4.979   6.281  0.9365  0.7621 -0.6266
  132OSM    H2F14308   2.578   4.877   6.274  0.0310  0.5983  4.0789
  132OSM    H2G14309   2.720   4.979   6.232  0.5678  1.6509 -1.3992
  132OSM    C3F14310   2.529   5.073   6.200 -0.8194  0.0748  0.3240
  132OSM    H3F14311   2.555   5.181   6.199  0.8462 -0.2675 -1.8375
  132OSM    H3G14312   2.434   5.066   6.257 -0.4365  0.2015  0.9789
  132OSM    C4F14313   2.513   5.024   6.052 -0.3016 -0.2903  0.5805
  132OSM    H4F14314   2.484   4.917   6.048 -2.0827  0.2048 -0.6262
  132OSM    H4G14315   2.610   5.041   6.002  0.6037 -1.5052  1.8381
  132OSM    C5F14316   2.378   5.065   5.977 -0.6794  0.1855  0.0263
  132OSM    H5F14317   2.400   5.171   5.950 -0.5602  0.2631  0.4108
  132OSM    H5G14318   2.296   5.063   6.052 -0.3177 -0.0644  0.4204
  132OSM    C6F14319   2.345   4.984   5.854 -0.0420  0.5423  0.2795
  132OSM    H6F14320   2.329   4.877   5.881 -0.7042 -0.0903 -2.3822
  132OSM    H6G14321   2.435   4.983   5.789  0.3515  0.1781  0.8171
  132OSM    C7F14322   2.221   5.045   5.789 -0.0016  0.8762  0.0440
  132OSM    H7F14323   2.233   5.154   5.809 -0.6910  0.7833  1.0087
  132OSM    H7G14324   2.133   5.010   5.846  0.7834  0.2808  0.9065
  132OSM    C8F14325   2.202   5.010   5.645  0.8289  0.1359 -0.1729
  132OSM    H8F14326   2.103   5.056   5.627  0.6588  0.2171  0.9172
  132OSM    H8G14327   2.201   4.899   5.640  1.3072  0.1253 -0.0849
  132OSM    C9F14328   2.300   5.068   5.544  0.5381 -0.2642  0.0683
  132OSM    H9F14329   2.333   5.168   5.575  1.9189 -1.0803  1.3676
  132OSM   C10F14330   2.344   5.017   5.425 -0.0175 -0.3221  0.1198
  132OSM   H10F14331   2.413   5.074   5.362 -0.1786 -1.4424 -1.1263
  132OSM   C11F14332   2.296   4.885   5.366  0.4802  0.4857 -0.0355
  132OSM   H11F14333   2.201   4.853   5.415  0.4284 -0.0445 -0.4713
  132OSM   H11G14334   2.369   4.806   5.394 -0.4194 -1.2291 -2.2312
  132OSM   C12F14335   2.265   4.882   5.214  0.0148  0.2480  0.1647
  132OSM   H12F14336   2.341   4.927   5.148 -0.4745 -1.9774 -2.0629
  132OSM   H12G14337   2.173   4.938   5.186 -0.9816 -1.7867 -0.8000
  132OSM   C13F14338   2.231   4.734   5.179  0.0353 -0.5480  0.2729
  132OSM   H13F14339   2.154   4.700   5.252  0.3481  1.1246  1.4547
  132OSM   H13G14340   2.327   4.680   5.190 -0.1009 -1.1796 -1.3899
  132OSM   C14F14341   2.197   4.723   5.028 -0.9535  0.4023 -0.5888
  132OSM   H14F14342   2.168   4.617   5.018  1.1442 -0.2290 -0.4460
  132OSM   H14G14343   2.286   4.753   4.969 -0.0110  0.3395  0.7591
  132OSM   C15F14344   2.086   4.810   4.983 -0.3736 -0.5325 -0.1396
  132OSM   H15F14345   2.105   4.916   5.010 -1.4729 -0.2876 -0.2970
  132OSM   H15G14346   1.987   4.792   5.031 -0.5082  1.8516  0.5647
  132OSM   C16F14347   2.076   4.802   4.831  0.4800  0.2500 -0.9951
  132OSM   H16F14348   2.151   4.729   4.793  0.3752  0.4112 -1.5184
  132OSM   H16G14349   2.078   4.895   4.771 -2.1677  0.4825 -0.8364
  132OSM   C17F14350   1.950   4.733   4.791  0.5373 -0.2692  0.5507
  132OSM   H17F14351   1.872   4.799   4.834  0.7493 -0.4582  1.2409
  132OSM   H17G14352   1.942   4.639   4.851  2.0379 -1.4391 -0.9801
  132OSM   C18F14353   1.917   4.701   4.642 -0.4205 -0.3923  0.1514
  132OSM   H18F14354   1.812   4.668   4.628 -0.4148 -1.0312  1.4479
  132OSM   H18G14355   1.990   4.632   4.596 -0.9604 -2.0548  1.6842
  132OSM   H18H14356   1.930   4.798   4.588  1.1042 -1.0345 -0.6910
  133OSM      N14357   0.575   4.895   7.309 -0.0126 -0.3880  0.8832
  133OSM    C1514358   0.522   4.806   7.421 -0.0990  0.3582  0.5422
  133OSM   H15A14359   0.550   4.859   7.511  0.8386  1.3276 -0.2728
  133OSM   H15B14360   0.572   4.711   7.419 -0.3965  0.2131 -0.0484
  133OSM   H15C14361   0.415   4.798   7.432 -0.4359  3.6109  0.6013
  133OSM    C1414362   0.513   5.031   7.327 -0.2082  0.4605  0.3761
  133OSM   H14A14363   0.522   5.085   7.234  0.5509  0.1219  0.2513
  133OSM   H14B14364   0.550   5.088   7.411 -0.4081  2.2363 -0.6892
  133OSM   H14C14365   0.406   5.017   7.339 -0.0403 -0.4058  0.9077
  133OSM    C1314366   0.721   4.911   7.334  0.2402 -0.4080 -0.1388
  133OSM   H13A14367   0.746   4.962   7.427 -1.0850 -1.3043  0.7397
  133OSM   H13B14368   0.772   4.959   7.252  0.1187 -0.7248 -0.4000
  133OSM   H13C14369   0.775   4.818   7.336  0.6449 -0.1898 -0.7129
  133OSM    C1214370   0.538   4.845   7.170  0.6249  0.3647 -0.5733
  133OSM   H12A14371   0.553   4.922   7.095  0.8892 -0.8934 -1.8699
  133OSM   H12B14372   0.434   4.817   7.169  0.4607  0.9551 -1.7342
  133OSM    C1114373   0.628   4.718   7.133 -0.3854  0.5336 -0.4247
  133OSM   H11A14374   0.731   4.759   7.123 -1.0247  1.6526 -3.7244
  133OSM   H11B14375   0.606   4.683   7.030  2.6681 -1.6318 -0.4777
  133OSM      P14376   0.565   4.456   7.184 -0.2171  0.1497 -0.0699
  133OSM    O1314377   0.678   4.365   7.191  0.4160  0.5757 -0.4485
  133OSM    O1414378   0.443   4.423   7.268 -0.8449 -0.6244  0.0456
  133OSM    O1114379   0.498   4.450   7.038 -0.3081 -0.4613  0.3558
  133OSM    O1214380   0.607   4.607   7.222 -0.4788  0.1162  0.2481
  133OSM    C1S14381   0.432   4.332   6.988 -0.5779 -0.0963  0.2099
  133OSM    H1S14382   0.374   4.281   7.068  0.1883 -1.1255  0.1185
  133OSM    H1T14383   0.508   4.265   6.942 -0.5816  0.0163  0.0376
  133OSM     NF14384   0.281   4.257   6.812  0.5923 -0.1331  0.5999
  133OSM    HNF14385   0.311   4.225   6.723 -1.9292  3.2370 -1.7333
  133OSM    C2S14386   0.350   4.375   6.866  0.7887  0.9058 -0.0466
  133OSM    H2S14387   0.270   4.444   6.901 -0.5130 -0.1554 -0.8230
  133OSM    C3S14388   0.443   4.441   6.752 -0.4390  0.2385 -0.5191
  133OSM    H3S14389   0.511   4.356   6.727  0.1227  0.0433  1.4499
  133OSM     O314390   0.533   4.540   6.797  0.0984  0.4095  0.0204
  133OSM    HO314391   0.525   4.529   6.892  1.2366  1.2380  0.2446
  133OSM    C4S14392   0.376   4.483   6.624 -0.1277  0.8379  0.2861
  133OSM    H4S14393   0.293   4.552   6.646 -0.9990 -0.7421  2.2190
  133OSM    C5S14394   0.412   4.455   6.497  0.4559 -0.2391 -0.1482
  133OSM    H5S14395   0.505   4.400   6.474  0.0198 -1.1596  0.2237
  133OSM    C6S14396   0.346   4.496   6.365  0.1207 -0.1463 -0.4628
  133OSM    H6S14397   0.382   4.593   6.327 -1.2257  0.8204  0.6341
  133OSM    H6T14398   0.236   4.507   6.376  0.5294  2.4673  2.4295
  133OSM    C7S14399   0.370   4.379   6.264 -0.7950 -0.0114  0.5314
  133OSM    H7S14400   0.361   4.280   6.314 -0.1774 -0.5600 -0.3969
  133OSM    H7T14401   0.474   4.388   6.224 -1.8833 -0.2238 -2.6608
  133OSM    C8S14402   0.271   4.374   6.143 -0.5711 -0.7674  0.1371
  133OSM    H8S14403   0.165   4.382   6.175 -0.6409 -0.8090 -0.0786
  133OSM    H8T14404   0.284   4.273   6.099  1.5620 -0.6555  0.4153
  133OSM    C9S14405   0.297   4.475   6.029 -0.0982 -0.3384 -0.3874
  133OSM    H9S14406   0.287   4.583   6.049  2.1874 -0.5095  2.2941
  133OSM    H9T14407   0.221   4.461   5.949 -3.9323  4.7716  1.7775
  133OSM   C10S14408   0.442   4.447   5.965 -0.0175 -0.5622 -0.0387
  133OSM   H10S14409   0.478   4.348   6.002  2.3205  0.4151  0.4425
  133OSM   H10T14410   0.515   4.530   5.971 -0.3717 -0.1705 -0.9419
  133OSM   C11S14411   0.420   4.433   5.809 -0.3263 -0.1555 -0.1125
  133OSM   H11S14412   0.379   4.526   5.764  0.5768  0.5636  0.5295
  133OSM   H11T14413   0.352   4.345   5.805 -1.2177  0.4933  0.3622
  133OSM   C12S14414   0.556   4.411   5.744 -0.0103  0.5822  0.2994
  133OSM   H12S14415   0.614   4.337   5.803 -0.1765  0.6249  0.5170
  133OSM   H12T14416   0.616   4.504   5.747 -1.7718  1.8100 -0.7691
  133OSM   C13S14417   0.548   4.374   5.595 -0.2910 -0.0173 -0.3685
  133OSM   H13S14418   0.524   4.467   5.540 -1.5662  1.3306  2.2859
  133OSM   H13T14419   0.470   4.297   5.575 -0.8960  0.5912 -0.3949
  133OSM   C14S14420   0.680   4.316   5.545 -1.1320 -0.9507 -0.1059
  133OSM   H14S14421   0.663   4.278   5.441  2.7238 -0.0519 -1.2246
  133OSM   H14T14422   0.725   4.238   5.611 -0.2579 -0.7684 -0.4671
  133OSM   C15S14423   0.796   4.422   5.524 -1.1605  0.9061 -0.7173
  133OSM   H15S14424   0.875   4.362   5.475 -3.4939 -0.6557 -2.7909
  133OSM   H15T14425   0.823   4.475   5.618  3.9110  0.3160 -1.5568
  133OSM   C16S14426   0.758   4.530   5.427 -0.0647  0.1471  0.1870
  133OSM   H16S14427   0.687   4.598   5.479 -1.7888 -1.0845 -0.4872
  133OSM   H16T14428   0.692   4.492   5.346 -0.7645  1.8347 -0.0760
  133OSM   C17S14429   0.872   4.613   5.366  0.3024 -0.1111 -0.2330
  133OSM   H17S14430   0.925   4.564   5.282 -1.7765 -0.6385 -1.3281
  133OSM   H17T14431   0.935   4.645   5.452  2.1246  0.8791 -1.8614
  133OSM   C18S14432   0.832   4.753   5.313  0.8622 -0.0367 -0.3917
  133OSM   H18S14433   0.800   4.733   5.209 -2.8129  1.8255  0.2158
  133OSM   H18T14434   0.913   4.829   5.323  1.0255 -0.0151 -1.7151
  133OSM   H18U14435   0.746   4.799   5.367 -0.4627 -0.3453 -2.1768
  133OSM    C1F14436   0.188   4.194   6.880  0.1231 -0.0689  0.4240
  133OSM     OF14437   0.148   4.234   6.986  0.0975 -0.7248  0.2415
  133OSM    C2F14438   0.127   4.072   6.818 -0.0490 -0.9618 -0.1262
  133OSM    H2F14439   0.212   4.007   6.787 -0.3029 -0.1193 -2.8476
  133OSM    H2G14440   0.077   4.112   6.727  0.4070  1.9956  0.8075
  133OSM    C3F14441   0.013   4.005   6.905 -0.0668 -0.3801 -0.0559
  133OSM    H3F14442  -0.064   4.080   6.931  2.1161  1.5863  1.1747
  133OSM    H3G14443   0.066   3.967   6.995  0.0454  0.4496  0.2368
  133OSM    C4F14444  -0.048   3.891   6.822 -0.4420  0.2701  0.1122
  133OSM    H4F14445  -0.116   3.830   6.886  2.3368 -1.2116  1.8869
  133OSM    H4G14446   0.040   3.829   6.793  0.5637  1.8355 -0.3509
  133OSM    C5F14447  -0.120   3.941   6.694  0.0290 -0.4257 -0.3369
  133OSM    H5F14448  -0.060   3.993   6.616 -3.4147 -0.3379 -3.1550
  133OSM    H5G14449  -0.188   4.021   6.729  2.5615  2.7474 -2.0729
  133OSM    C6F14450  -0.196   3.833   6.611 -0.3645 -0.4819  0.0448
  133OSM    H6F14451  -0.130   3.797   6.529  0.8368  1.6492 -0.0112
  133OSM    H6G14452  -0.281   3.887   6.566 -1.1208 -1.0255  0.7807
  133OSM    C7F14453  -0.248   3.722   6.699  0.2578  0.2584 -0.5581
  133OSM    H7F14454  -0.305   3.766   6.785  2.2456  0.6386  0.6296
  133OSM    H7G14455  -0.168   3.664   6.750 -1.6594 -1.2500  0.8817
  133OSM    C8F14456  -0.340   3.622   6.620 -0.1193 -0.0979 -0.1614
  133OSM    H8F14457  -0.352   3.528   6.678  0.1896  0.6616  1.1802
  133OSM    H8G14458  -0.281   3.596   6.530 -0.8884 -0.4722 -0.5683
  133OSM    C9F14459  -0.475   3.682   6.582  0.0027 -0.2635 -0.1681
  133OSM    H9F14460  -0.536   3.714   6.668  1.0919 -1.4340  1.0855
  133OSM   C10F14461  -0.516   3.699   6.451  0.4941  0.8330  0.4779
  133OSM   H10F14462  -0.617   3.740   6.438  0.7079  1.5011  0.8882
  133OSM   C11F14463  -0.463   3.644   6.324  0.0777 -0.1484  0.0925
  133OSM   H11F14464  -0.544   3.607   6.258 -2.0091 -0.1868  2.5267
  133OSM   H11G14465  -0.412   3.548   6.346 -1.7150 -1.3708 -0.8438
  133OSM   C12F14466  -0.366   3.739   6.247  0.1760 -0.0181 -0.1201
  133OSM   H12F14467  -0.274   3.742   6.310 -0.1043  0.7559  0.2560
  133OSM   H12G14468  -0.395   3.845   6.262  2.3375  0.7056 -0.5984
  133OSM   C13F14469  -0.339   3.695   6.104  0.7696  0.7132  0.4598
  133OSM   H13F14470  -0.435   3.699   6.048  0.2481 -0.0050  1.2861
  133OSM   H13G14471  -0.305   3.589   6.107 -0.3893  0.3413  1.1442
  133OSM   C14F14472  -0.238   3.777   6.016 -0.5287 -0.0087  0.6330
  133OSM   H14F14473  -0.140   3.761   6.067  0.9685 -1.5764 -2.4323
  133OSM   H14G14474  -0.259   3.885   6.005 -0.1054 -0.1103 -1.6554
  133OSM   C15F14475  -0.222   3.724   5.876  0.3135 -0.4013 -0.5170
  133OSM   H15F14476  -0.310   3.756   5.817 -0.8697  0.5466  1.6151
  133OSM   H15G14477  -0.218   3.613   5.873 -3.2229 -0.8868  3.0097
  133OSM   C16F14478  -0.101   3.783   5.807  0.5030  0.1255 -0.0275
  133OSM   H16F14479  -0.004   3.764   5.857 -0.5936 -0.9096  1.8003
  133OSM   H16G14480  -0.119   3.892   5.813 -1.4518 -0.2371  2.9234
  133OSM   C17F14481  -0.094   3.749   5.662  0.4516 -0.2225 -0.1665
  133OSM   H17F14482  -0.192   3.767   5.613  1.0979 -1.1090 -1.8783
  133OSM   H17G14483  -0.089   3.638   5.673  3.8112  0.0479  5.9473
  133OSM   C18F14484   0.022   3.810   5.579 -0.0175  1.2170 -0.1592
  133OSM   H18F14485   0.023   3.921   5.587  0.6373  1.2085 -0.0763
  133OSM   H18G14486   0.011   3.782   5.472  0.0586 -0.2177  0.1902
  133OSM   H18H14487   0.117   3.773   5.624 -0.5412 -0.8592 -0.6342
  134OSM      N14488   0.532   4.070   7.388 -0.0589 -0.0659  0.4965
  134OSM    C1514489   0.632   3.969   7.398  0.0216 -0.3835 -0.4856
  134OSM   H15A14490   0.602   3.877   7.350 -0.8287 -0.2123 -0.3025
  134OSM   H15B14491   0.652   3.938   7.500  0.6736 -0.5852 -0.6717
  134OSM   H15C14492   0.728   3.990   7.353  0.8329 -0.6184  1.0615
  134OSM    C1414493   0.400   4.027   7.445  0.1272  0.0886 -0.1517
  134OSM   H14A14494   0.326   4.104   7.439  0.7476  0.6193 -1.5563
  134OSM   H14B14495   0.421   3.999   7.547  0.8915 -0.4451 -0.4436
  134OSM   H14C14496   0.357   3.940   7.397 -3.4672  0.7739  1.5529
  134OSM    C1314497   0.585   4.191   7.465 -0.2456  0.5609 -0.0123
  134OSM   H13A14498   0.682   4.217   7.427  1.3460 -1.6602  2.2431
  134OSM   H13B14499   0.603   4.162   7.567  0.4587  1.0294 -0.0024
  134OSM   H13C14500   0.527   4.282   7.462  2.0007  2.0518 -2.0027
  134OSM    C1214501   0.510   4.105   7.243  0.2973  0.3273  0.6213
  134OSM   H12A14502   0.604   4.119   7.193 -0.6078  0.2969 -1.1682
  134OSM   H12B14503   0.460   4.200   7.237  1.3642  0.8438 -0.4826
  134OSM    C1114504   0.445   3.996   7.148 -0.3034  0.0577  0.1800
  134OSM   H11A14505   0.414   4.038   7.049 -2.1671  0.4402  0.8862
  134OSM   H11B14506   0.348   3.963   7.191  1.7801 -1.3495  4.2227
  134OSM      P14507   0.661   3.909   7.035  0.0869 -0.4431  0.3451
  134OSM    O1314508   0.770   3.976   7.113 -0.6105  0.3348  0.2616
  134OSM    O1414509   0.695   3.780   6.968 -0.5778  0.2185 -0.6641
  134OSM    O1114510   0.620   4.010   6.921  0.1324  0.1467 -0.3485
  134OSM    O1214511   0.535   3.888   7.130  0.1305 -0.0930 -0.0332
  134OSM    C1S14512   0.560   3.953   6.799  0.7087  0.2684  0.2485
  134OSM    H1S14513   0.450   3.950   6.810  0.2408 -2.3153 -3.3557
  134OSM    H1T14514   0.599   3.853   6.771  2.6116  1.2290 -0.7343
  134OSM     NF14515   0.524   3.985   6.564  0.4200 -0.3266  0.3213
  134OSM    HNF14516   0.586   3.919   6.522  1.3128 -0.2000  1.4148
  134OSM    C2S14517   0.577   4.053   6.676 -0.1141  0.2345  0.8059
  134OSM    H2S14518   0.505   4.134   6.698 -3.6175 -2.9603  2.2882
  134OSM    C3S14519   0.724   4.101   6.654  0.4718 -0.1040  0.0947
  134OSM    H3S14520   0.789   4.010   6.649 -0.1002 -0.4954 -0.3309
  134OSM     O314521   0.770   4.187   6.765  0.0845  0.7710  0.7038
  134OSM    HO314522   0.730   4.148   6.843  0.5014  0.0352  0.5630
  134OSM    C4S14523   0.739   4.176   6.522 -0.0770 -0.1317 -0.7510
  134OSM    H4S14524   0.647   4.233   6.502  1.0794  2.7261  1.3514
  134OSM    C5S14525   0.824   4.143   6.428 -0.9760  0.4400 -0.1194
  134OSM    H5S14526   0.887   4.054   6.445 -0.3595  0.8407 -0.2904
  134OSM    C6S14527   0.804   4.195   6.289 -0.2319 -0.7510 -0.1515
  134OSM    H6S14528   0.894   4.223   6.231  0.4539  2.8683  2.3534
  134OSM    H6T14529   0.740   4.285   6.281 -0.0677 -0.7915 -2.4314
  134OSM    C7S14530   0.743   4.090   6.203  0.0350  0.5505  0.2505
  134OSM    H7S14531   0.655   4.044   6.252  0.3707  1.5626  1.8655
  134OSM    H7T14532   0.812   4.004   6.199 -0.1456  0.2971  1.8432
  134OSM    C8S14533   0.707   4.119   6.053 -0.5660 -0.7470  0.4925
  134OSM    H8S14534   0.798   4.149   5.997 -1.3233  1.7514  0.4915
  134OSM    H8T14535   0.643   4.209   6.046 -1.6765 -1.5277  0.3497
  134OSM    C9S14536   0.645   3.990   5.980 -0.5260 -0.6166 -1.0583
  134OSM    H9S14537   0.567   3.937   6.038  0.3857 -0.0749  0.7168
  134OSM    H9T14538   0.727   3.916   5.966  0.7708  0.2220  1.4547
  134OSM   C10S14539   0.580   4.026   5.848  0.5672  0.4244 -0.3481
  134OSM   H10S14540   0.640   4.107   5.801  0.0204  1.7284  1.1238
  134OSM   H10T14541   0.480   4.068   5.871  0.1809 -0.8117  0.3682
  134OSM   C11S14542   0.539   3.907   5.756  0.2443  0.0602 -0.8845
  134OSM   H11S14543   0.448   3.864   5.803  0.4690  1.2680  0.7401
  134OSM   H11T14544   0.620   3.833   5.770  0.3147  0.5881  1.9852
  134OSM   C12S14545   0.524   3.939   5.608 -0.0341 -0.2757 -0.7929
  134OSM   H12S14546   0.622   3.970   5.564  1.0564  0.1694  1.7580
  134OSM   H12T14547   0.446   4.017   5.601  0.6965  0.3715 -2.4121
  134OSM   C13S14548   0.469   3.822   5.539  0.1812 -0.6982  0.6342
  134OSM   H13S14549   0.402   3.761   5.603 -0.0074  0.8396  1.9487
  134OSM   H13T14550   0.540   3.743   5.505 -0.0648 -1.2854  1.4484
  134OSM   C14S14551   0.398   3.867   5.406 -0.4300  0.7894  0.1571
  134OSM   H14S14552   0.472   3.919   5.342  1.5594 -3.1037 -1.0125
  134OSM   H14T14553   0.310   3.930   5.432  0.1692  1.3094  0.9626
  134OSM   C15S14554   0.348   3.747   5.330 -0.4655 -0.4813  0.5237
  134OSM   H15S14555   0.286   3.679   5.393  1.2864 -0.5940  2.2424
  134OSM   H15T14556   0.428   3.673   5.309 -0.9260 -1.2119  1.2731
  134OSM   C16S14557   0.256   3.789   5.217  0.0327 -0.0287 -0.1475
  134OSM   H16S14558   0.305   3.853   5.141 -2.4585 -0.0952 -1.9402
  134OSM   H16T14559   0.176   3.850   5.264  1.5569  1.6162  0.4348
  134OSM   C17S14560   0.193   3.670   5.143  0.2495  0.4055  0.6884
  134OSM   H17S14561   0.275   3.595   5.135 -0.7224 -0.7232  1.0781
  134OSM   H17T14562   0.164   3.702   5.040 -2.0512  2.8389  1.9498
  134OSM   C18S14563   0.075   3.595   5.211 -0.6190  0.2849  0.1246
  134OSM   H18S14564  -0.016   3.659   5.213  0.4913  1.9590 -0.2164
  134OSM   H18T14565   0.105   3.581   5.317  4.8958 -0.2254 -1.1881
  134OSM   H18U14566   0.053   3.503   5.152  2.1388 -1.2206  1.2438
  134OSM    C1F14567   0.397   3.987   6.535 -0.3035  0.0722  0.0632
  134OSM     OF14568   0.320   4.075   6.577 -0.1969  0.0175  0.3148
  134OSM    C2F14569   0.349   3.868   6.454  0.7384  0.5144  0.1336
  134OSM    H2F14570   0.379   3.779   6.513  0.5095 -0.4016 -1.0932
  134OSM    H2G14571   0.410   3.863   6.361  1.7483  1.2035  0.7379
  134OSM    C3F14572   0.200   3.872   6.438 -0.2574 -0.6967 -0.0529
  134OSM    H3F14573   0.143   3.889   6.532 -0.9691 -1.1746 -0.3973
  134OSM    H3G14574   0.168   3.778   6.390  0.4014 -1.8090  1.5842
  134OSM    C4F14575   0.158   3.967   6.320  0.6321  0.4531  0.9944
  134OSM    H4F14576   0.209   4.065   6.333  1.7987 -0.2626  2.0084
  134OSM    H4G14577   0.053   4.001   6.313  0.6293  0.1786 -1.6686
  134OSM    C5F14578   0.196   3.922   6.182 -0.0588 -0.1013 -0.3851
  134OSM    H5F14579   0.174   3.815   6.163  1.9005 -0.2842 -1.9165
  134OSM    H5G14580   0.307   3.929   6.179  0.0641 -1.3681  0.4877
  134OSM    C6F14581   0.138   4.007   6.072  0.1910  0.5709 -0.1914
  134OSM    H6F14582   0.168   4.112   6.090  1.5256  0.0719  0.7111
  134OSM    H6G14583   0.028   4.010   6.066  0.1265  3.8727  0.8974
  134OSM    C7F14584   0.200   3.968   5.931 -0.5982  0.2524  0.6484
  134OSM    H7F14585   0.146   3.882   5.886 -2.6809  1.8839 -0.1553
  134OSM    H7G14586   0.306   3.952   5.959 -0.8338 -0.4166  1.1779
  134OSM    C8F14587   0.198   4.079   5.824 -0.2274 -1.1626  0.4444
  134OSM    H8F14588   0.252   4.046   5.733 -0.8553 -4.0547  1.0324
  134OSM    H8G14589   0.249   4.171   5.858 -1.1257  0.4211 -2.1451
  134OSM    C9F14590   0.054   4.113   5.797 -0.0362  0.3421  0.7035
  134OSM    H9F14591  -0.027   4.076   5.861 -0.4188  2.1802  1.3296
  134OSM   C10F14592   0.015   4.192   5.694  0.2120  0.1930  0.1079
  134OSM   H10F14593  -0.092   4.211   5.681  0.4057  1.3541  0.0954
  134OSM   C11F14594   0.111   4.270   5.608  0.1435  0.1147 -0.0240
  134OSM   H11F14595   0.209   4.275   5.660 -1.1276  1.0714  2.4670
  134OSM   H11G14596   0.072   4.373   5.594 -1.8797 -0.4151  1.2549
  134OSM   C12F14597   0.125   4.202   5.468  0.1113  0.2636 -0.9217
  134OSM   H12F14598   0.027   4.183   5.420  0.8149  0.2999 -2.4138
  134OSM   H12G14599   0.162   4.100   5.491 -1.1217  0.2022  1.0383
  134OSM   C13F14600   0.209   4.279   5.372  0.4316  0.0114 -0.0118
  134OSM   H13F14601   0.315   4.275   5.404  0.1019 -0.5755  1.0442
  134OSM   H13G14602   0.174   4.385   5.378 -2.7550 -0.9304  0.0026
  134OSM   C14F14603   0.199   4.228   5.226  0.2903 -0.5370  0.5693
  134OSM   H14F14604   0.091   4.217   5.201  0.3807  0.2625 -0.2320
  134OSM   H14G14605   0.249   4.129   5.220 -1.4561 -1.4138 -0.6207
  134OSM   C15F14606   0.257   4.317   5.112 -0.0213  0.2235  0.2367
  134OSM   H15F14607   0.187   4.399   5.086 -0.3665 -0.5961 -1.6273
  134OSM   H15G14608   0.248   4.250   5.023  1.6721 -0.2592  0.3965
  134OSM   C16F14609   0.398   4.369   5.132 -0.3001  0.8374 -0.5056
  134OSM   H16F14610   0.404   4.439   5.218  2.2560  0.2167 -0.0976
  134OSM   H16G14611   0.427   4.429   5.043  0.5359  1.0429 -0.0982
  134OSM   C17F14612   0.504   4.260   5.150 -0.2990  0.8854  0.4123
  134OSM   H17F14613   0.504   4.231   5.257 -3.0396 -0.5628  0.0929
  134OSM   H17G14614   0.601   4.310   5.127 -1.1108  1.0880 -3.2556
  134OSM   C18F14615   0.491   4.130   5.058 -0.0616 -0.5863  0.4107
  134OSM   H18F14616   0.402   4.069   5.084 -1.5198  1.9007  1.6134
  134OSM   H18G14617   0.586   4.072   5.067 -1.5745 -3.4110 -0.6932
  134OSM   H18H14618   0.483   4.162   4.952  2.2588  1.6734  0.8164
  135OSM      N14619   0.141   1.465   7.437  0.9526 -0.2034  0.0724
  135OSM    C1514620   0.050   1.520   7.340  0.0159  0.1508 -0.0013
  135OSM   H15A14621  -0.008   1.594   7.394 -0.3267 -0.5789  0.6659
  135OSM   H15B14622  -0.022   1.456   7.291 -0.3403  0.1412  0.5229
  135OSM   H15C14623   0.106   1.563   7.259  0.4754  1.3075  0.8951
  135OSM    C1414624   0.197   1.579   7.520 -0.7125 -0.3376 -0.5031
  135OSM   H14A14625   0.262   1.632   7.451 -1.4273 -0.6709 -1.4446
  135OSM   H14B14626   0.265   1.550   7.599 -1.7926 -0.4552  0.4042
  135OSM   H14C14627   0.119   1.639   7.564  0.0275 -0.8896  1.6949
  135OSM    C1314628   0.051   1.386   7.532  0.2467  0.1284  0.0498
  135OSM   H13A14629  -0.040   1.431   7.569  0.3328 -1.5201  2.4529
  135OSM   H13B14630   0.105   1.362   7.622 -1.1103  0.1202  0.8947
  135OSM   H13C14631   0.016   1.296   7.482  0.2430  0.4614 -0.5576
  135OSM    C1214632   0.237   1.370   7.376 -0.0452 -0.2497  0.0230
  135OSM   H12A14633   0.182   1.293   7.324  1.3987 -2.1047  1.1404
  135OSM   H12B14634   0.287   1.322   7.458 -1.2588  1.7794  2.0482
  135OSM    C1114635   0.349   1.420   7.282  0.3597 -0.2924  0.2235
  135OSM   H11A14636   0.305   1.500   7.219 -1.6252 -2.8437 -1.8605
  135OSM   H11B14637   0.371   1.344   7.204 -1.0127 -0.6178  0.1302
  135OSM      P14638   0.552   1.355   7.421  0.5375 -0.4916  0.1361
  135OSM    O1314639   0.665   1.418   7.496 -0.0512 -0.6723  0.1606
  135OSM    O1414640   0.461   1.273   7.505 -0.0973 -0.0341 -0.5544
  135OSM    O1114641   0.604   1.275   7.291 -0.0112  0.7332  0.4500
  135OSM    O1214642   0.467   1.470   7.348  0.5959 -0.4711 -0.4393
  135OSM    C1S14643   0.662   1.345   7.181 -0.2329 -0.2406 -0.2072
  135OSM    H1S14644   0.759   1.392   7.208 -0.6915 -0.2378  1.5341
  135OSM    H1T14645   0.589   1.427   7.159 -0.1221  0.7116  2.5570
  135OSM     NF14646   0.772   1.339   6.967 -0.2698  0.3000  0.0099
  135OSM    HNF14647   0.730   1.351   6.877 -0.0825  0.8609 -0.0079
  135OSM    C2S14648   0.691   1.261   7.062 -0.5196 -0.0235 -0.1687
  135OSM    H2S14649   0.752   1.175   7.098 -2.0384 -0.6107  1.1731
  135OSM    C3S14650   0.570   1.189   7.006  0.1814  0.1263  0.7429
  135OSM    H3S14651   0.491   1.259   6.972 -0.4037 -0.6557  0.4617
  135OSM     O314652   0.506   1.101   7.107 -0.1739 -0.1745 -0.3867
  135OSM    HO314653   0.532   1.138   7.191 -1.7725  1.1206 -0.4258
  135OSM    C4S14654   0.597   1.116   6.873  0.0101  0.0163  0.1434
  135OSM    H4S14655   0.602   1.193   6.795  1.7497 -0.9444 -0.7333
  135OSM    C5S14656   0.631   0.988   6.856 -0.3719 -0.1268 -0.4149
  135OSM    H5S14657   0.656   0.933   6.948 -1.1791  2.3432  1.3843
  135OSM    C6S14658   0.652   0.928   6.722  0.7979 -0.1377 -0.1144
  135OSM    H6S14659   0.572   0.852   6.714  0.9235 -0.2779 -0.0514
  135OSM    H6T14660   0.755   0.885   6.713  1.8350  2.2171 -0.3251
  135OSM    C7S14661   0.626   1.025   6.606 -0.4733 -0.1658  0.0584
  135OSM    H7S14662   0.716   1.089   6.592 -1.0609  0.4426 -1.1022
  135OSM    H7T14663   0.531   1.081   6.620 -1.7537 -2.5952  1.8349
  135OSM    C8S14664   0.617   0.936   6.472  0.2060  0.0565  0.4570
  135OSM    H8S14665   0.532   0.865   6.471  1.3885 -1.4235 -0.6128
  135OSM    H8T14666   0.716   0.886   6.469  0.2754  0.1728  0.8211
  135OSM    C9S14667   0.616   1.026   6.347 -0.4168 -0.3573 -0.1223
  135OSM    H9S14668   0.696   1.103   6.351 -2.4930  1.8908  0.5121
  135OSM    H9T14669   0.522   1.085   6.343  0.1097  0.8506  2.8767
  135OSM   C10S14670   0.624   0.943   6.220 -0.3139  0.5335  0.1161
  135OSM   H10S14671   0.550   0.861   6.213 -0.8307  1.0126 -0.0964
  135OSM   H10T14672   0.727   0.901   6.217 -0.6958 -0.4120  0.1746
  135OSM   C11S14673   0.611   1.018   6.087 -0.4366 -0.1171  0.9404
  135OSM   H11S14674   0.697   1.085   6.066 -0.3697 -0.3934  0.3101
  135OSM   H11T14675   0.513   1.069   6.076 -0.2090  0.7936  2.7560
  135OSM   C12S14676   0.604   0.925   5.965 -0.4101  0.6019  0.4886
  135OSM   H12S14677   0.503   0.879   5.968 -0.1050 -0.5701 -3.0746
  135OSM   H12T14678   0.681   0.846   5.982 -0.8472  0.3614  1.4282
  135OSM   C13S14679   0.614   0.994   5.825 -0.2451 -1.1698 -0.6867
  135OSM   H13S14680   0.709   1.051   5.824 -1.6926  1.3633 -1.9104
  135OSM   H13T14681   0.530   1.065   5.815  0.2739 -0.3143  0.7328
  135OSM   C14S14682   0.627   0.901   5.706  0.2235  0.7942  0.5062
  135OSM   H14S14683   0.525   0.891   5.663 -0.1743  0.1618  1.5582
  135OSM   H14T14684   0.665   0.801   5.734 -1.1066 -0.3933 -1.6487
  135OSM   C15S14685   0.718   0.953   5.595 -0.0716  0.0701 -0.1124
  135OSM   H15S14686   0.824   0.973   5.621 -0.2266  1.1171 -0.2476
  135OSM   H15T14687   0.670   1.044   5.553 -0.2927  0.9388  1.9115
  135OSM   C16S14688   0.728   0.851   5.480 -0.1999  0.2256  0.1004
  135OSM   H16S14689   0.625   0.822   5.450 -0.4079 -0.2209  1.2029
  135OSM   H16T14690   0.783   0.761   5.514  0.8320  0.4165 -0.9903
  135OSM   C17S14691   0.807   0.910   5.367 -0.4545 -0.4466  0.1428
  135OSM   H17S14692   0.914   0.904   5.397 -0.4274 -0.8603 -0.0243
  135OSM   H17T14693   0.786   1.019   5.361  0.0256 -0.3926 -1.0110
  135OSM   C18S14694   0.788   0.839   5.239 -0.5821  0.0526  0.0589
  135OSM   H18S14695   0.785   0.730   5.259 -0.2157  0.1200  0.4921
  135OSM   H18T14696   0.876   0.858   5.173  0.8563 -3.4459  0.7378
  135OSM   H18U14697   0.691   0.864   5.191  1.3758  1.7662 -3.4284
  135OSM    C1F14698   0.893   1.384   6.990  0.3942  0.2396 -0.3352
  135OSM     OF14699   0.974   1.330   7.072  0.0322 -0.4118 -0.1173
  135OSM    C2F14700   0.936   1.498   6.908 -0.3241  0.5343  0.0947
  135OSM    H2F14701   0.919   1.596   6.959  0.5551  0.2095  1.0597
  135OSM    H2G14702   0.886   1.493   6.809  1.4680  2.6588 -1.0244
  135OSM    C3F14703   1.090   1.481   6.887 -0.4584 -0.0173  0.7558
  135OSM    H3F14704   1.110   1.386   6.834 -0.5282  0.8945 -0.9582
  135OSM    H3G14705   1.145   1.493   6.983 -1.3691 -1.3511  1.4859
  135OSM    C4F14706   1.143   1.591   6.791  0.9175  0.0410  0.3783
  135OSM    H4F14707   1.083   1.590   6.697  0.5282  3.4038  0.4465
  135OSM    H4G14708   1.119   1.689   6.839 -0.5557  0.2326 -0.6797
  135OSM    C5F14709   1.292   1.588   6.758 -0.4165  0.1555 -0.3051
  135OSM    H5F14710   1.344   1.618   6.851 -0.4481 -0.1796 -0.1785
  135OSM    H5G14711   1.319   1.650   6.670 -1.6545  0.5222 -0.4530
  135OSM    C6F14712   1.339   1.443   6.730  0.3279 -0.1382  0.4663
  135OSM    H6F14713   1.323   1.381   6.821 -1.1008 -0.7163 -0.1583
  135OSM    H6G14714   1.449   1.455   6.719  0.5174 -1.5297  0.6060
  135OSM    C7F14715   1.281   1.362   6.605  0.0354  0.1248 -0.5484
  135OSM    H7F14716   1.181   1.326   6.639 -0.6432  1.6876 -0.8241
  135OSM    H7G14717   1.340   1.268   6.599  1.7086  1.1799 -1.1981
  135OSM    C8F14718   1.273   1.434   6.473 -0.1860  0.0810  0.8146
  135OSM    H8F14719   1.256   1.544   6.484 -0.5484  0.0911  0.2113
  135OSM    H8G14720   1.186   1.392   6.420 -0.3140 -1.6388  2.2979
  135OSM    C9F14721   1.404   1.435   6.401 -0.2065  0.4685  0.1470
  135OSM    H9F14722   1.489   1.482   6.453 -0.6211  2.3554 -0.8125
  135OSM   C10F14723   1.425   1.410   6.273 -0.1983 -0.2819 -0.3483
  135OSM   H10F14724   1.528   1.405   6.235 -0.6231  3.9279 -2.6690
  135OSM   C11F14725   1.315   1.360   6.180 -0.7515  0.8541 -0.2092
  135OSM   H11F14726   1.237   1.297   6.227  0.8991  0.4073  2.0843
  135OSM   H11G14727   1.364   1.290   6.109  0.5826  1.7424 -0.2089
  135OSM   C12F14728   1.254   1.476   6.107  0.3450 -0.0037 -1.2001
  135OSM   H12F14729   1.212   1.550   6.179 -2.4718  0.3052 -2.9952
  135OSM   H12G14730   1.174   1.438   6.040 -1.6399  3.8684 -1.3521
  135OSM   C13F14731   1.347   1.560   6.020  0.2656 -0.1409  0.1323
  135OSM   H13F14732   1.427   1.596   6.088  0.7320 -3.0262  1.2586
  135OSM   H13G14733   1.296   1.651   5.982  0.0122 -0.3747 -0.0996
  135OSM   C14F14734   1.406   1.493   5.893 -0.0074 -0.3388  0.0425
  135OSM   H14F14735   1.431   1.388   5.919 -1.3192 -1.3074 -2.3224
  135OSM   H14G14736   1.501   1.547   5.871 -0.1034  0.2193  0.9412
  135OSM   C15F14737   1.315   1.498   5.773  0.3547 -0.1025 -0.2585
  135OSM   H15F14738   1.266   1.598   5.780 -0.6085 -0.5001 -1.0997
  135OSM   H15G14739   1.238   1.419   5.766  1.1100 -0.8127 -0.7117
  135OSM   C16F14740   1.409   1.500   5.648  0.0444  0.0858  0.3328
  135OSM   H16F14741   1.471   1.408   5.638  0.6178  0.5642 -0.6252
  135OSM   H16G14742   1.477   1.588   5.648  0.3757 -0.1620  0.9702
  135OSM   C17F14743   1.334   1.511   5.517 -0.0283  1.1316 -0.0820
  135OSM   H17F14744   1.279   1.416   5.503  2.8196 -0.2107 -3.9463
  135OSM   H17G14745   1.403   1.509   5.430 -1.0285 -0.5575 -0.8881
  135OSM   C18F14746   1.233   1.618   5.494 -0.2638 -0.4643  0.7313
  135OSM   H18F14747   1.192   1.624   5.392  0.8192  3.0053  0.3824
  135OSM   H18G14748   1.276   1.716   5.524 -1.1162  0.7110 -1.6802
  135OSM   H18H14749   1.140   1.594   5.550  0.8774 -1.9225  2.1124
  136OSM      N14750   3.595   1.418   7.384 -0.8213  0.0306 -0.0487
  136OSM    C1514751   3.460   1.438   7.441  0.2930  0.6866  0.3281
  136OSM   H15A14752   3.473   1.473   7.542  1.1733 -0.0016  0.4744
  136OSM   H15B14753   3.404   1.346   7.449 -0.5530  1.2605  1.2533
  136OSM   H15C14754   3.407   1.516   7.389 -0.8922 -0.7979 -0.7730
  136OSM    C1414755   3.658   1.345   7.496 -0.1254  0.0747  0.0571
  136OSM   H14A14756   3.671   1.408   7.583 -1.7533  0.1741  0.2466
  136OSM   H14B14757   3.755   1.312   7.462 -0.2619  1.1616 -1.4723
  136OSM   H14C14758   3.604   1.254   7.521 -0.6539  0.3553 -0.0637
  136OSM    C1314759   3.585   1.346   7.257 -0.2760  0.0985  0.1354
  136OSM   H13A14760   3.539   1.405   7.179 -2.0122 -0.0518  0.9857
  136OSM   H13B14761   3.522   1.258   7.265 -0.1551  0.1041  1.2277
  136OSM   H13C14762   3.683   1.319   7.221 -0.8117 -1.7699 -0.0148
  136OSM    C1214763   3.677   1.546   7.360 -0.3908 -0.4332  0.9577
  136OSM   H12A14764   3.700   1.601   7.450  3.7952  1.0844 -0.8012
  136OSM   H12B14765   3.617   1.619   7.307 -2.4461 -1.5546  1.6338
  136OSM    C1114766   3.814   1.530   7.287 -0.6600 -0.5319 -0.0289
  136OSM   H11A14767   3.862   1.625   7.256 -0.4635 -0.5079  0.3560
  136OSM   H11B14768   3.790   1.475   7.193 -1.6394 -0.1866  0.0035
  136OSM      P14769   3.976   1.534   7.481 -0.2413  0.7786  0.0890
  136OSM    O1314770   3.894   1.629   7.560  0.1046 -0.4255 -0.1835
  136OSM    O1414771   4.080   1.449   7.547  0.4386 -0.1530 -0.6046
  136OSM    O1114772   4.061   1.626   7.382  0.6387  0.4508  0.3634
  136OSM    O1214773   3.904   1.458   7.372 -0.3328 -0.0108  0.3944
  136OSM    C1S14774   4.147   1.583   7.283 -0.1278 -0.0245  0.4671
  136OSM    H1S14775   4.137   1.474   7.267 -0.8320  0.3671 -2.2433
  136OSM    H1T14776   4.249   1.606   7.320 -0.5307 -0.2239  1.7607
  136OSM     NF14777   4.229   1.639   7.056 -0.3843 -0.5342 -0.4502
  136OSM    HNF14778   4.305   1.703   7.048  0.3275 -1.2676  0.2974
  136OSM    C2S14779   4.127   1.669   7.153 -0.3772 -0.6039 -0.3998
  136OSM    H2S14780   4.027   1.633   7.117  0.0034 -1.4615 -0.6351
  136OSM    C3S14781   4.105   1.822   7.177  0.0380  0.5650  0.1272
  136OSM    H3S14782   4.204   1.851   7.217 -0.0736 -1.3847  1.9458
  136OSM     O314783   4.025   1.862   7.285 -0.6325 -0.3880  0.5839
  136OSM    HO314784   4.035   1.785   7.342  0.8325 -1.9791 -1.6642
  136OSM    C4S14785   4.072   1.900   7.051 -1.1924  0.6297 -0.2187
  136OSM    H4S14786   4.158   1.951   7.004 -0.0652  0.6578  1.7634
  136OSM    C5S14787   3.949   1.924   7.001  0.1524  0.2589 -0.7364
  136OSM    H5S14788   3.871   1.894   7.073  0.0766 -1.3114 -1.4207
  136OSM    C6S14789   3.911   2.011   6.884 -0.2196 -0.0069 -0.3742
  136OSM    H6S14790   3.886   2.117   6.906  1.2576 -0.2119  2.7434
  136OSM    H6T14791   3.833   1.965   6.819  1.7142 -1.7313 -1.6242
  136OSM    C7S14792   4.030   2.036   6.787 -0.6428 -0.1845  0.2400
  136OSM    H7S14793   4.075   1.938   6.761  0.3650  0.2255  0.4099
  136OSM    H7T14794   4.105   2.090   6.850 -1.0476  0.4294  0.2035
  136OSM    C8S14795   4.000   2.121   6.664 -0.1101  0.4853  0.0687
  136OSM    H8S14796   3.933   2.202   6.701 -0.4644 -0.2918  1.1963
  136OSM    H8T14797   3.953   2.069   6.578 -0.0735 -1.1697  1.0200
  136OSM    C9S14798   4.125   2.180   6.598  0.5294  0.3340  0.4382
  136OSM    H9S14799   4.201   2.099   6.588  0.1454  0.0183  0.0138
  136OSM    H9T14800   4.159   2.254   6.673 -5.2377  0.5585  3.3689
  136OSM   C10S14801   4.099   2.249   6.462  0.0691  0.2900 -0.1089
  136OSM   H10S14802   4.036   2.338   6.478 -0.8789 -0.3571 -0.1740
  136OSM   H10T14803   4.035   2.182   6.400 -1.4070  1.9143 -0.4017
  136OSM   C11S14804   4.229   2.267   6.388  0.0975  0.2255 -0.8585
  136OSM   H11S14805   4.296   2.179   6.378  0.1077 -0.0425  1.1436
  136OSM   H11T14806   4.294   2.337   6.446  0.3463  0.3434 -1.2749
  136OSM   C12S14807   4.201   2.319   6.251 -0.1022 -0.8731 -0.1345
  136OSM   H12S14808   4.170   2.426   6.253 -0.4230 -0.9650 -0.0178
  136OSM   H12T14809   4.115   2.257   6.217 -0.3225 -1.1681  0.9171
  136OSM   C13S14810   4.314   2.310   6.152 -0.7410  0.4509  0.5089
  136OSM   H13S14811   4.345   2.203   6.148  0.2010  0.7122  0.7985
  136OSM   H13T14812   4.403   2.373   6.172 -0.0052 -0.9466  1.8836
  136OSM   C14S14813   4.268   2.341   6.012  0.4043  0.4478  0.2977
  136OSM   H14S14814   4.184   2.271   5.991  0.1760  1.1632 -1.3830
  136OSM   H14T14815   4.347   2.313   5.939  0.7930 -0.7255  1.1522
  136OSM   C15S14816   4.234   2.491   5.984  0.1516  0.2423 -0.4166
  136OSM   H15S14817   4.314   2.549   6.035  1.8987 -2.9419  0.7727
  136OSM   H15T14818   4.138   2.521   6.031  0.3405  1.0283 -0.5287
  136OSM   C16S14819   4.231   2.523   5.833 -0.1248  0.0063 -0.7342
  136OSM   H16S14820   4.166   2.611   5.816 -0.1074  0.0432 -0.6080
  136OSM   H16T14821   4.172   2.437   5.793 -0.5294 -0.3708  0.6242
  136OSM   C17S14822   4.364   2.552   5.765  0.3355  0.0504  0.5962
  136OSM   H17S14823   4.418   2.455   5.757  0.8282  0.2258  1.6013
  136OSM   H17T14824   4.432   2.612   5.831  0.5802 -1.3013  1.6277
  136OSM   C18S14825   4.342   2.620   5.630  0.7904 -0.3679 -0.0647
  136OSM   H18S14826   4.437   2.646   5.578  0.6951 -1.8631 -1.0543
  136OSM   H18T14827   4.285   2.714   5.639  1.0684 -0.1108 -0.8948
  136OSM   H18U14828   4.280   2.548   5.572  0.7871 -0.8488  0.5264
  136OSM    C1F14829   4.249   1.518   7.015  0.3674  0.3045  0.1153
  136OSM     OF14830   4.178   1.420   7.047  0.6223 -0.1097 -0.2083
  136OSM    C2F14831   4.368   1.491   6.929 -0.1731 -0.0912  0.1800
  136OSM    H2F14832   4.460   1.505   6.989  0.0959 -0.1261 -0.2216
  136OSM    H2G14833   4.366   1.569   6.850 -2.5513 -0.0163  0.2445
  136OSM    C3F14834   4.365   1.348   6.861  0.3002 -0.3298  0.0250
  136OSM    H3F14835   4.289   1.346   6.780 -2.3229 -0.1554  2.2988
  136OSM    H3G14836   4.337   1.267   6.931  0.0849 -0.4781 -0.2286
  136OSM    C4F14837   4.498   1.316   6.807  0.1705 -0.2893 -0.9188
  136OSM    H4F14838   4.486   1.208   6.782 -1.2816 -1.0719  2.5745
  136OSM    H4G14839   4.578   1.322   6.884  0.0901  0.0602 -0.8645
  136OSM    C5F14840   4.541   1.402   6.687  0.4634 -0.1507  0.0065
  136OSM    H5F14841   4.562   1.503   6.728 -0.8125  0.2502 -0.3072
  136OSM    H5G14842   4.454   1.412   6.620 -1.4177 -1.4041  2.1194
  136OSM    C6F14843   4.667   1.345   6.617  0.4485 -0.2031 -0.0738
  136OSM    H6F14844   4.627   1.253   6.569 -0.1192  0.1986 -0.3732
  136OSM    H6G14845   4.746   1.317   6.690  0.2638 -2.6795 -0.7082
  136OSM    C7F14846   4.734   1.446   6.525  0.6939 -0.0856  0.1707
  136OSM    H7F14847   4.762   1.533   6.588  3.5242 -0.3383 -0.6204
  136OSM    H7G14848   4.661   1.476   6.446  1.1577 -1.3678 -0.7757
  136OSM    C8F14849   4.864   1.378   6.469  0.1869  0.1323 -0.4380
  136OSM    H8F14850   4.837   1.271   6.460  0.2960  0.0040  0.5942
  136OSM    H8G14851   4.937   1.384   6.553  0.4551 -0.1591 -0.6529
  136OSM    C9F14852   4.917   1.439   6.341 -0.0517 -0.4158 -0.4128
  136OSM    H9F14853   4.993   1.517   6.356  1.1492 -1.3836 -1.2727
  136OSM   C10F14854   4.891   1.394   6.219  0.3315  0.3947  0.2894
  136OSM   H10F14855   4.946   1.444   6.138 -0.7383 -1.2659 -1.5576
  136OSM   C11F14856   4.803   1.289   6.171  0.4529  0.3356  0.2422
  136OSM   H11F14857   4.735   1.243   6.246 -0.2651  0.2885 -0.4203
  136OSM   H11G14858   4.863   1.201   6.137  0.8100  0.1428  1.3576
  136OSM   C12F14859   4.707   1.327   6.051 -0.1702  0.3743 -0.2688
  136OSM   H12F14860   4.687   1.435   6.068  1.3754  0.7033 -0.4307
  136OSM   H12G14861   4.608   1.276   6.062 -0.5622  0.9116 -1.1776
  136OSM   C13F14862   4.758   1.302   5.907 -0.2785  0.8799  0.2690
  136OSM   H13F14863   4.779   1.194   5.890  1.0989  1.3496 -1.3541
  136OSM   H13G14864   4.858   1.350   5.902 -0.4709  1.2138 -0.5144
  136OSM   C14F14865   4.657   1.362   5.808 -0.2770 -0.0143  0.3070
  136OSM   H14F14866   4.674   1.472   5.801 -2.3782  0.2742 -1.3272
  136OSM   H14G14867   4.552   1.341   5.836 -0.9926  0.7485 -1.6280
  136OSM   C15F14868   4.675   1.308   5.668 -0.4057  0.9273  0.2169
  136OSM   H15F14869   4.780   1.327   5.639  0.7924 -1.6412  2.3991
  136OSM   H15G14870   4.599   1.360   5.605 -3.1386 -0.4762  2.1530
  136OSM   C16F14871   4.635   1.158   5.649 -0.6302  0.7796  0.2671
  136OSM   H16F14872   4.531   1.142   5.684 -0.7830 -1.0477 -0.9400
  136OSM   H16G14873   4.705   1.095   5.707 -1.3053 -1.7201 -1.4661
  136OSM   C17F14874   4.646   1.110   5.508  0.4509  0.0069 -0.1787
  136OSM   H17F14875   4.670   1.001   5.503 -2.0172 -0.5931 -0.2190
  136OSM   H17G14876   4.734   1.154   5.457  0.9398  0.8660  1.3429
  136OSM   C18F14877   4.527   1.153   5.423  0.1917  0.5983 -0.5274
  136OSM   H18F14878   4.521   1.263   5.408  0.4794  0.9161  1.3888
  136OSM   H18G14879   4.431   1.129   5.473  0.4369 -0.3517 -0.4925
  136OSM   H18H14880   4.532   1.101   5.325 -2.9979  1.1559 -1.1185
  137OSM      N14881   5.481   1.319   7.110  0.4868  0.0829 -0.5105
  137OSM    C1514882   5.414   1.208   7.031  1.2664 -0.4696  0.4027
  137OSM   H15A14883   5.479   1.174   6.951 -0.4602 -0.9143 -0.8584
  137OSM   H15B14884   5.331   1.250   6.976  3.5705 -1.0238 -3.9050
  137OSM   H15C14885   5.377   1.119   7.079  1.4413 -1.6553 -1.5854
  137OSM    C1414886   5.381   1.362   7.215 -0.7003 -0.5590  0.0861
  137OSM   H14A14887   5.415   1.425   7.295  0.0524 -0.6768 -0.1332
  137OSM   H14B14888   5.356   1.273   7.271  1.9370 -1.2596  0.3013
  137OSM   H14C14889   5.298   1.415   7.171 -0.8589 -0.4391  0.5337
  137OSM    C1314890   5.605   1.271   7.181  0.1503  0.0792  0.6569
  137OSM   H13A14891   5.653   1.349   7.239 -0.4926  1.3289 -0.4276
  137OSM   H13B14892   5.683   1.239   7.113  1.6080 -0.5591  2.5332
  137OSM   H13C14893   5.585   1.200   7.260 -1.0954  2.0999  2.2615
  137OSM    C1214894   5.510   1.443   7.025  0.5370 -0.1368  0.4758
  137OSM   H12A14895   5.556   1.516   7.090 -0.9853  1.1592  0.1436
  137OSM   H12B14896   5.411   1.478   6.999  0.2334  0.6135  2.4528
  137OSM    C1114897   5.598   1.435   6.902  0.7872  0.5383 -0.4864
  137OSM   H11A14898   5.585   1.537   6.860 -1.0843  0.7322  0.4807
  137OSM   H11B14899   5.562   1.373   6.817 -1.4569  2.1296 -0.7949
  137OSM      P14900   5.815   1.528   6.987 -0.1600  0.0758 -0.1810
  137OSM    O1314901   5.733   1.622   7.062 -0.3366  0.0988 -0.3854
  137OSM    O1414902   5.943   1.483   7.053 -0.2191 -0.1721  0.5027
  137OSM    O1114903   5.853   1.589   6.851 -0.4083 -0.0788 -0.5894
  137OSM    O1214904   5.730   1.401   6.936 -0.2809  0.4618 -0.0546
  137OSM    C1S14905   5.900   1.502   6.746 -0.4152  0.6773 -0.5085
  137OSM    H1S14906   5.819   1.464   6.681  0.7725 -0.8291 -1.1635
  137OSM    H1T14907   5.955   1.413   6.783 -1.0885  0.8892  1.0965
  137OSM     NF14908   6.056   1.491   6.557  0.6620  0.6394  0.0264
  137OSM    HNF14909   6.145   1.448   6.573  1.4735  1.9351 -0.8068
  137OSM    C2S14910   6.006   1.581   6.659  0.1358 -0.3191 -1.0307
  137OSM    H2S14911   5.953   1.669   6.616  0.0712  0.2227  0.1064
  137OSM    C3S14912   6.123   1.646   6.742 -0.0349 -0.2756 -0.0831
  137OSM    H3S14913   6.194   1.568   6.778 -0.2755 -0.0769  0.8417
  137OSM     O314914   6.083   1.711   6.863 -0.3662  0.4899 -0.5127
  137OSM    HO314915   5.998   1.683   6.897 -0.2442  1.4563  0.6518
  137OSM    C4S14916   6.195   1.738   6.646  0.1741 -0.0089 -0.6123
  137OSM    H4S14917   6.128   1.797   6.581 -3.0127 -0.9698  1.5145
  137OSM    C5S14918   6.328   1.748   6.626 -0.1285 -0.5688 -0.5443
  137OSM    H5S14919   6.398   1.690   6.688  0.1479  0.4865  0.1532
  137OSM    C6S14920   6.388   1.834   6.514 -0.6504  0.3133 -0.0050
  137OSM    H6S14921   6.469   1.902   6.547  1.3666 -1.5308 -0.9742
  137OSM    H6T14922   6.305   1.892   6.468 -1.2663  0.5282  1.3088
  137OSM    C7S14923   6.447   1.741   6.406 -0.3654 -0.4519  0.5447
  137OSM    H7S14924   6.516   1.663   6.444  1.6046 -0.3326 -2.4752
  137OSM    H7T14925   6.514   1.784   6.328 -0.7199 -2.5014 -0.9753
  137OSM    C8S14926   6.333   1.695   6.323  0.3160 -0.8526 -0.1991
  137OSM    H8S14927   6.292   1.785   6.272 -0.9915 -0.0585  2.0917
  137OSM    H8T14928   6.262   1.639   6.387 -1.1039  0.2656 -0.7233
  137OSM    C9S14929   6.388   1.596   6.222 -0.3249  0.3784 -0.0218
  137OSM    H9S14930   6.424   1.505   6.273 -0.9896  0.6589  0.9873
  137OSM    H9T14931   6.468   1.646   6.164  0.2840 -1.3024 -0.6753
  137OSM   C10S14932   6.273   1.570   6.117 -0.0056 -0.1838  0.1935
  137OSM   H10S14933   6.256   1.668   6.068 -0.8368 -0.1725  0.4818
  137OSM   H10T14934   6.182   1.536   6.171  1.3778 -1.7717  1.6327
  137OSM   C11S14935   6.315   1.465   6.016 -0.3218 -0.1916  0.0612
  137OSM   H11S14936   6.322   1.366   6.066  1.5863 -0.2430 -0.2336
  137OSM   H11T14937   6.416   1.501   5.989 -0.8154  1.6500  0.5172
  137OSM   C12S14938   6.215   1.467   5.898  0.0982 -0.2455 -0.4999
  137OSM   H12S14939   6.198   1.574   5.876 -1.6525 -0.5132 -0.6739
  137OSM   H12T14940   6.120   1.425   5.938  0.1757  0.1369  0.0908
  137OSM   C13S14941   6.260   1.394   5.774  0.4013 -0.5008  0.7349
  137OSM   H13S14942   6.277   1.285   5.788  2.8773 -0.7128 -2.7124
  137OSM   H13T14943   6.354   1.433   5.730 -0.1283 -0.8771 -0.8055
  137OSM   C14S14944   6.142   1.385   5.672 -0.3993  0.0507  0.4836
  137OSM   H14S14945   6.156   1.479   5.614  1.2993  0.8845  2.1296
  137OSM   H14T14946   6.042   1.364   5.716 -1.7951  0.6856 -2.1532
  137OSM   C15S14947   6.168   1.267   5.568  0.6277  0.6090 -0.1194
  137OSM   H15S14948   6.168   1.163   5.608 -0.6434  0.2226 -1.0496
  137OSM   H15T14949   6.273   1.270   5.531  1.0341 -1.3290  0.7841
  137OSM   C16S14950   6.074   1.266   5.447  0.0707  0.2853  0.3982
  137OSM   H16S14951   6.082   1.369   5.405  0.2235  1.0511  2.1801
  137OSM   H16T14952   5.965   1.251   5.464 -0.6090  2.1247 -1.7900
  137OSM   C17S14953   6.125   1.157   5.352  0.5019 -0.4313 -0.0403
  137OSM   H17S14954   6.109   1.063   5.409  1.3156  0.3826  1.5887
  137OSM   H17T14955   6.234   1.169   5.334  0.3461  1.7326  0.1791
  137OSM   C18S14956   6.044   1.150   5.225 -0.2082 -0.5097  0.2157
  137OSM   H18S14957   5.940   1.120   5.251 -0.7766  0.9474 -0.2537
  137OSM   H18T14958   6.086   1.075   5.155 -0.9238 -1.3246  0.6400
  137OSM   H18U14959   6.037   1.250   5.176  0.6537 -0.4603  0.1865
  137OSM    C1F14960   5.982   1.457   6.455 -0.5638 -0.5400  0.5681
  137OSM     OF14961   5.875   1.504   6.432  0.5546 -0.9962  0.1356
  137OSM    C2F14962   6.041   1.351   6.361  0.1987  0.6726 -0.1421
  137OSM    H2F14963   6.096   1.272   6.416  0.7370  0.1822 -1.3647
  137OSM    H2G14964   6.124   1.411   6.319  0.9401  0.2141  0.6402
  137OSM    C3F14965   5.936   1.299   6.265 -0.9776 -0.1674 -0.2410
  137OSM    H3F14966   5.924   1.387   6.198 -0.6851 -0.1470 -0.2638
  137OSM    H3G14967   5.843   1.273   6.320 -0.3519 -1.8566  0.0662
  137OSM    C4F14968   5.982   1.182   6.180  0.0694  0.1574  0.0757
  137OSM    H4F14969   5.990   1.090   6.241 -3.3225  0.7129  1.5921
  137OSM    H4G14970   6.083   1.200   6.138  0.6627 -2.1639  0.4011
  137OSM    C5F14971   5.888   1.162   6.058  0.4584  0.3362 -0.4021
  137OSM    H5F14972   5.854   1.262   6.022 -0.5533  0.2449  0.2477
  137OSM    H5G14973   5.801   1.104   6.095  1.0503  0.1087  0.6709
  137OSM    C6F14974   5.967   1.096   5.943 -0.1259  0.0221  0.0513
  137OSM    H6F14975   6.044   1.026   5.985  2.4868  1.7609 -1.5511
  137OSM    H6G14976   6.017   1.186   5.902 -1.7587  1.2148  0.6002
  137OSM    C7F14977   5.884   1.025   5.834  0.1472  0.2312 -0.3971
  137OSM    H7F14978   5.846   0.927   5.872  0.8740 -0.9125 -2.4105
  137OSM    H7G14979   5.961   1.004   5.757 -0.6827  0.9156 -1.4455
  137OSM    C8F14980   5.771   1.101   5.766  0.3491  0.6841  0.1733
  137OSM    H8F14981   5.805   1.182   5.699  1.6402 -1.0741 -1.4123
  137OSM    H8G14982   5.725   1.166   5.843 -0.9357  0.2324 -0.1752
  137OSM    C9F14983   5.661   1.012   5.707  0.3725 -0.2682  0.2061
  137OSM    H9F14984   5.616   0.941   5.778  3.3608  0.6233  3.2460
  137OSM   C10F14985   5.603   1.019   5.581 -0.1232 -0.5279 -0.2558
  137OSM   H10F14986   5.522   0.948   5.559 -0.6707 -0.9921  2.8209
  137OSM   C11F14987   5.650   1.101   5.470 -0.0376  0.4471  0.3685
  137OSM   H11F14988   5.757   1.128   5.476 -0.0694  1.2110 -1.5853
  137OSM   H11G14989   5.590   1.195   5.466 -0.0654  0.4831  1.3501
  137OSM   C12F14990   5.635   1.005   5.351 -0.0666 -0.6430 -0.0790
  137OSM   H12F14991   5.538   0.951   5.345 -0.4981  0.1996 -0.9487
  137OSM   H12G14992   5.709   0.923   5.360 -0.2935 -0.7939  0.4970
  137OSM   C13F14993   5.651   1.081   5.216 -0.4433  0.5795 -0.4870
  137OSM   H13F14994   5.712   1.169   5.246 -3.2052  2.7523 -0.7986
  137OSM   H13G14995   5.553   1.120   5.181  0.0417  0.8401 -1.5930
  137OSM   C14F14996   5.715   0.990   5.107  0.1192  0.0744  0.4716
  137OSM   H14F14997   5.652   0.902   5.085 -0.7164  0.5907  0.7476
  137OSM   H14G14998   5.808   0.953   5.155  0.7415  1.6496  0.5351
  137OSM   C15F14999   5.746   1.066   4.983  0.1681 -0.3437 -0.4812
  137OSM   H15F15000   5.817   1.148   5.007  0.5447 -0.8308  0.0987
  137OSM   H15G15001   5.649   1.111   4.954 -0.0585  1.1708  2.2591
  137OSM   C16F15002   5.812   0.975   4.880  0.0301 -0.8053 -0.1075
  137OSM   H16F15003   5.741   0.893   4.855  0.8274 -1.3656 -0.5772
  137OSM   H16G15004   5.901   0.928   4.927  0.8595  2.8653  2.3775
  137OSM   C17F15005   5.841   1.050   4.749 -0.1551 -0.2334 -0.1676
  137OSM   H17F15006   5.891   0.972   4.686  0.7640 -1.7727  2.3239
  137OSM   H17G15007   5.917   1.131   4.760  0.4767 -0.9345  0.7341
  137OSM   C18F15008   5.717   1.125   4.681  0.1749 -0.0252  0.0371
  137OSM   H18F15009   5.687   1.205   4.752 -2.2184 -2.5234  2.0804
  137OSM   H18G15010   5.620   1.071   4.670 -1.4755  3.2918 -4.2685
  137OSM   H18H15011   5.742   1.152   4.577 -0.7769  1.0718  0.0759
  138OSM      N15012   1.307   1.461   7.302 -1.1223 -0.4212  0.0797
  138OSM    C1515013   1.164   1.467   7.272  0.4003 -1.1873 -0.6562
  138OSM   H15A15014   1.136   1.571   7.270  3.5668 -0.2493 -2.0118
  138OSM   H15B15015   1.101   1.423   7.348 -0.7774  2.8446  0.9702
  138OSM   H15C15016   1.142   1.427   7.175  0.6039 -1.3894 -0.6208
  138OSM    C1415017   1.340   1.521   7.431 -0.1512  0.2609  0.2110
  138OSM   H14A15018   1.444   1.496   7.445 -0.3171 -0.8566 -0.4714
  138OSM   H14B15019   1.288   1.474   7.512 -0.4527  0.7419  0.3009
  138OSM   H14C15020   1.328   1.629   7.436  1.0621  0.3833  0.9206
  138OSM    C1315021   1.356   1.322   7.302  0.3823  0.5769  0.4811
  138OSM   H13A15022   1.312   1.268   7.385  0.7658  2.0483  1.6875
  138OSM   H13B15023   1.463   1.305   7.301  0.2817 -0.0642 -0.7868
  138OSM   H13C15024   1.310   1.277   7.215 -0.5908  1.5723  0.4673
  138OSM    C1215025   1.371   1.548   7.196 -0.3886 -0.2912 -0.0803
  138OSM   H12A15026   1.370   1.654   7.217  0.7924 -0.5779  1.5680
  138OSM   H12B15027   1.304   1.540   7.111 -1.7704 -0.0623  0.9536
  138OSM    C1115028   1.517   1.521   7.173  0.2204  0.1577 -0.1225
  138OSM   H11A15029   1.546   1.579   7.083 -2.0012 -1.0474 -1.7106
  138OSM   H11B15030   1.537   1.418   7.136 -0.9093 -0.3260  0.5661
  138OSM      P15031   1.721   1.483   7.335  0.0002  0.3021  0.2409
  138OSM    O1315032   1.793   1.554   7.438  0.2780 -0.8899  0.5581
  138OSM    O1415033   1.675   1.342   7.369  0.2854 -0.0944  0.8523
  138OSM    O1115034   1.804   1.473   7.199 -0.6411  0.4140 -0.2332
  138OSM    O1215035   1.597   1.575   7.283 -0.2590  0.0790  0.8965
  138OSM    C1S15036   1.938   1.416   7.214 -0.1025  0.1071 -0.4614
  138OSM    H1S15037   1.928   1.305   7.217 -1.2352  0.1920  2.7041
  138OSM    H1T15038   2.002   1.450   7.298  1.2489 -0.1774 -1.3406
  138OSM     NF15039   2.150   1.357   7.082 -0.0652 -0.0141  0.4260
  138OSM    HNF15040   2.226   1.388   7.139  1.0094 -0.6609 -0.6271
  138OSM    C2S15041   2.035   1.446   7.092 -0.2700  0.0041 -0.3733
  138OSM    H2S15042   1.976   1.428   6.999 -1.7774 -1.5483  0.8183
  138OSM    C3S15043   2.077   1.600   7.090 -0.1337  0.1647  0.3086
  138OSM    H3S15044   2.140   1.616   7.180 -0.1439  2.9796 -0.0893
  138OSM     O315045   1.970   1.692   7.074  0.2689  0.1102 -0.0521
  138OSM    HO315046   1.887   1.643   7.081  0.7215 -1.1785 -2.3691
  138OSM    C4S15047   2.174   1.615   6.967 -0.8506 -0.3213 -0.6591
  138OSM    H4S15048   2.141   1.552   6.883 -0.7526 -0.2366 -0.7605
  138OSM    C5S15049   2.290   1.682   6.953  0.2889 -0.4542  1.3313
  138OSM    H5S15050   2.335   1.740   7.035  1.3021  0.6347  0.0517
  138OSM    C6S15051   2.375   1.669   6.829 -0.2462 -1.0751 -0.2996
  138OSM    H6S15052   2.351   1.576   6.774 -1.3490 -0.0609 -1.6198
  138OSM    H6T15053   2.478   1.658   6.870  0.3016  2.4043 -0.4007
  138OSM    C7S15054   2.385   1.800   6.739 -0.2531 -0.3644  1.0155
  138OSM    H7S15055   2.485   1.798   6.689  0.0435  1.3804  1.4825
  138OSM    H7T15056   2.386   1.894   6.797  0.1438  0.7541 -0.7193
  138OSM    C8S15057   2.290   1.810   6.620 -0.0993  0.0939  0.7189
  138OSM    H8S15058   2.189   1.842   6.651 -0.7662 -0.1655 -1.0731
  138OSM    H8T15059   2.266   1.711   6.577 -1.2334  0.0827  1.3406
  138OSM    C9S15060   2.328   1.909   6.502  0.7742  0.2846  0.0654
  138OSM    H9S15061   2.438   1.898   6.489  0.9502  3.1526 -1.7279
  138OSM    H9T15062   2.313   2.013   6.538 -2.8205 -0.6502  1.7359
  138OSM   C10S15063   2.254   1.883   6.369 -0.4460 -0.8272  0.7719
  138OSM   H10S15064   2.144   1.873   6.382 -0.6993  0.2676 -0.4744
  138OSM   H10T15065   2.301   1.793   6.324 -2.9799 -0.4217 -3.1184
  138OSM   C11S15066   2.277   1.999   6.271 -0.0829 -0.2780 -0.3609
  138OSM   H11S15067   2.384   2.015   6.247 -0.9506  1.1621 -3.8048
  138OSM   H11T15068   2.248   2.090   6.328 -0.1790 -0.5633  0.0505
  138OSM   C12S15069   2.205   1.977   6.143 -0.4491  0.1929  0.0440
  138OSM   H12S15070   2.104   1.942   6.173 -0.5425 -0.0781 -0.5833
  138OSM   H12T15071   2.239   1.885   6.091  3.3229  1.0506  0.6931
  138OSM   C13S15072   2.202   2.096   6.045  0.3378 -1.1076 -0.5772
  138OSM   H13S15073   2.302   2.101   5.996 -0.7970  0.1554 -2.9203
  138OSM   H13T15074   2.201   2.178   6.119  1.1490 -2.8415  1.4814
  138OSM   C14S15075   2.090   2.102   5.943  0.1391  0.3518 -0.5047
  138OSM   H14S15076   2.074   2.202   5.897 -0.1503  0.8972  0.7468
  138OSM   H14T15077   1.991   2.071   5.984  0.6066  0.8742  1.0529
  138OSM   C15S15078   2.120   1.995   5.836  0.0356 -0.0875 -0.5054
  138OSM   H15S15079   2.135   1.895   5.881 -0.1789 -0.1138 -0.4903
  138OSM   H15T15080   2.220   2.023   5.798  0.5981  0.4616  1.2930
  138OSM   C16S15081   2.035   1.984   5.711  0.0836  0.3233 -0.5831
  138OSM   H16S15082   2.049   2.076   5.650  1.3435  1.4786  1.3470
  138OSM   H16T15083   1.927   1.985   5.740  0.3716 -0.5406  0.6015
  138OSM   C17S15084   2.060   1.853   5.623  0.2238 -0.0477  0.2281
  138OSM   H17S15085   1.962   1.824   5.580 -0.6341  0.7412  1.5753
  138OSM   H17T15086   2.073   1.767   5.692 -2.9322 -3.0805 -2.5613
  138OSM   C18S15087   2.172   1.863   5.511  0.6189 -0.4672  0.2199
  138OSM   H18S15088   2.147   1.946   5.442 -0.1421 -0.7759  0.1145
  138OSM   H18T15089   2.173   1.773   5.445 -0.7132 -0.3276 -0.0238
  138OSM   H18U15090   2.272   1.882   5.555  0.8876  1.2471 -1.0402
  138OSM    C1F15091   2.135   1.226   7.050 -0.4915 -0.2250 -0.1051
  138OSM     OF15092   2.022   1.185   7.032  0.2019  0.2044  0.2729
  138OSM    C2F15093   2.261   1.148   7.038 -0.1149  0.3873  0.1818
  138OSM    H2F15094   2.237   1.060   7.103  0.9534 -2.4122 -2.9168
  138OSM    H2G15095   2.337   1.212   7.086  0.5169 -0.2197  0.0092
  138OSM    C3F15096   2.310   1.109   6.899 -0.3202 -0.2290 -0.2403
  138OSM    H3F15097   2.247   1.029   6.856  1.5908 -1.2174 -1.3133
  138OSM    H3G15098   2.413   1.072   6.918 -0.1411  0.9294  1.3453
  138OSM    C4F15099   2.323   1.226   6.804  0.1875 -0.3310 -0.1514
  138OSM    H4F15100   2.389   1.312   6.830 -1.3683  1.2309 -1.1807
  138OSM    H4G15101   2.221   1.269   6.790  0.1458  0.1335  1.3775
  138OSM    C5F15102   2.365   1.186   6.664  0.5577  0.4019  0.3102
  138OSM    H5F15103   2.288   1.125   6.613  2.0797 -0.3183 -1.2399
  138OSM    H5G15104   2.466   1.141   6.668  0.8339  1.1170  1.8763
  138OSM    C6F15105   2.385   1.313   6.583  0.2756 -0.0601  0.2685
  138OSM    H6F15106   2.487   1.303   6.541  0.8057 -0.1820  1.5632
  138OSM    H6G15107   2.386   1.406   6.643 -0.1173  0.9397 -1.2201
  138OSM    C7F15108   2.279   1.346   6.481  0.4501 -0.4694 -0.6372
  138OSM    H7F15109   2.183   1.352   6.537  0.2454  1.3528 -1.0966
  138OSM    H7G15110   2.278   1.258   6.413 -2.2470  0.2452 -1.6630
  138OSM    C8F15111   2.314   1.473   6.399 -0.1056 -0.4732 -0.7396
  138OSM    H8F15112   2.418   1.468   6.359  0.5530  0.8612  0.6981
  138OSM    H8G15113   2.309   1.561   6.468 -2.4767 -0.7302 -0.5206
  138OSM    C9F15114   2.202   1.507   6.301  0.1501 -0.1718 -1.0448
  138OSM    H9F15115   2.110   1.493   6.360  0.8062 -0.1474  0.0171
  138OSM   C10F15116   2.213   1.525   6.174  0.1120  0.5604  0.2953
  138OSM   H10F15117   2.126   1.517   6.107 -0.2658 -0.3432  0.8707
  138OSM   C11F15118   2.343   1.543   6.101  0.0971  0.3090 -0.1254
  138OSM   H11F15119   2.392   1.444   6.089  1.0619  0.5049  1.7889
  138OSM   H11G15120   2.421   1.607   6.148  0.2122 -1.1601  1.8503
  138OSM   C12F15121   2.328   1.611   5.960  0.7371 -0.3674 -1.1798
  138OSM   H12F15122   2.410   1.684   5.940 -2.2818  4.0441  0.9581
  138OSM   H12G15123   2.240   1.679   5.959  2.3746  1.9563  1.1547
  138OSM   C13F15124   2.321   1.510   5.847  0.2437  0.3331 -0.8034
  138OSM   H13F15125   2.224   1.457   5.860  0.4411  0.6891  3.0744
  138OSM   H13G15126   2.402   1.437   5.868  0.9466  1.4849  0.5922
  138OSM   C14F15127   2.338   1.568   5.708  0.0317 -0.4964 -0.5387
  138OSM   H14F15128   2.406   1.653   5.726 -0.7307 -0.4404  2.9157
  138OSM   H14G15129   2.242   1.617   5.680 -0.4445 -0.2012  1.4132
  138OSM   C15F15130   2.391   1.471   5.600  0.2025 -0.5882  0.3003
  138OSM   H15F15131   2.327   1.382   5.588 -0.1551 -0.4302  1.0003
  138OSM   H15G15132   2.492   1.443   5.636  0.1455 -1.0021  0.1412
  138OSM   C16F15133   2.405   1.547   5.465 -0.7992 -0.5681 -0.5787
  138OSM   H16F15134   2.473   1.635   5.473  0.4224 -1.6660  4.0467
  138OSM   H16G15135   2.312   1.605   5.448 -0.1710 -0.0821 -2.6231
  138OSM   C17F15136   2.435   1.470   5.335  0.2148 -0.0750  0.3854
  138OSM   H17F15137   2.522   1.402   5.348  0.9019  0.9673  1.5136
  138OSM   H17G15138   2.468   1.551   5.267 -0.1006  0.3040  0.6742
  138OSM   C18F15139   2.314   1.395   5.282 -0.8057 -0.3465 -0.2876
  138OSM   H18F15140   2.226   1.459   5.258  0.5512  1.3371 -0.9537
  138OSM   H18G15141   2.294   1.317   5.359 -0.7718  1.8127  2.0473
  138OSM   H18H15142   2.347   1.339   5.192 -0.2327  0.0568 -0.3365
  139OSM      N15143   5.396   5.605   7.603  0.5722 -0.1893  0.3531
  139OSM    C1515144   5.300   5.667   7.504  0.5173  0.1995 -0.4258
  139OSM   H15A15145   5.342   5.710   7.415  2.2808  0.2368  0.3810
  139OSM   H15B15146   5.241   5.746   7.550 -1.3733 -1.9518  1.1249
  139OSM   H15C15147   5.221   5.602   7.469 -0.2055  0.9511 -0.2433
  139OSM    C1415148   5.321   5.546   7.717  0.6130  0.3537  0.8544
  139OSM   H14A15149   5.283   5.621   7.785  0.8008  3.1728 -1.9076
  139OSM   H14B15150   5.388   5.483   7.773  1.0731 -0.4118 -0.5060
  139OSM   H14C15151   5.246   5.474   7.685  1.2715 -0.3014  0.7563
  139OSM    C1315152   5.476   5.495   7.543 -0.4365 -0.6729 -0.0498
  139OSM   H13A15153   5.535   5.440   7.615 -0.0690  0.1391  0.2745
  139OSM   H13B15154   5.551   5.524   7.471 -0.0606  1.5616  1.1466
  139OSM   H13C15155   5.410   5.421   7.500  0.1994 -0.7917 -0.8454
  139OSM    C1215156   5.490   5.715   7.651  0.3445 -1.1126  0.1003
  139OSM   H12A15157   5.427   5.776   7.714 -0.1081 -0.9828 -0.4777
  139OSM   H12B15158   5.512   5.774   7.563 -2.2679 -0.3044 -0.0863
  139OSM    C1115159   5.618   5.675   7.725  0.1978  0.5773  0.5002
  139OSM   H11A15160   5.592   5.613   7.814 -1.0309  0.4446  0.0646
  139OSM   H11B15161   5.660   5.768   7.770 -2.1481 -0.0469  4.4327
  139OSM      P15162   5.798   5.696   7.540  0.1337  0.1545 -0.0941
  139OSM    O1315163   5.891   5.783   7.617 -0.0379 -0.0246  0.1707
  139OSM    O1415164   5.859   5.599   7.450  0.4266 -0.0062 -0.0510
  139OSM    O1115165   5.690   5.775   7.458 -0.3082 -0.0274 -0.5385
  139OSM    O1215166   5.718   5.609   7.646  0.3524  0.0387 -0.8489
  139OSM    C1S15167   5.719   5.812   7.322 -0.5531 -0.0600 -0.3470
  139OSM    H1S15168   5.704   5.719   7.263 -2.9122  0.7290 -1.0792
  139OSM    H1T15169   5.821   5.848   7.296 -0.0095 -1.2993  0.0259
  139OSM     NF15170   5.678   5.947   7.136 -0.0704 -0.2085  0.9623
  139OSM    HNF15171   5.740   6.020   7.108 -1.4236  0.2778 -1.0195
  139OSM    C2S15172   5.634   5.928   7.271 -0.1487 -0.3504  0.3105
  139OSM    H2S15173   5.527   5.901   7.267 -0.5878  1.3434 -0.8059
  139OSM    C3S15174   5.645   6.058   7.352  0.0757  0.0754 -0.3437
  139OSM    H3S15175   5.748   6.097   7.332  1.1221 -0.9844  2.4508
  139OSM     O315176   5.630   6.030   7.490  0.0702 -0.3187 -0.2953
  139OSM    HO315177   5.653   5.937   7.499 -1.0042 -0.5312  0.4423
  139OSM    C4S15178   5.534   6.156   7.313 -0.9493 -0.5357  0.0419
  139OSM    H4S15179   5.434   6.129   7.349 -1.1335 -0.5434 -0.4742
  139OSM    C5S15180   5.540   6.265   7.236 -0.3193 -0.1582  0.2097
  139OSM    H5S15181   5.632   6.307   7.191  0.5451 -1.7198  0.4203
  139OSM    C6S15182   5.413   6.327   7.194  0.5424  0.6955  0.2036
  139OSM    H6S15183   5.418   6.434   7.224  0.2383  0.1181  2.5192
  139OSM    H6T15184   5.329   6.278   7.248  1.3965  1.0553  1.9608
  139OSM    C7S15185   5.390   6.318   7.045 -0.6276 -0.1974 -0.0544
  139OSM    H7S15186   5.460   6.379   6.982 -1.4914  0.4116 -0.4421
  139OSM    H7T15187   5.283   6.347   7.036 -0.6071 -0.4915 -1.5855
  139OSM    C8S15188   5.383   6.171   6.995 -0.6807  0.6648 -0.3531
  139OSM    H8S15189   5.309   6.119   7.059  0.3797 -1.1707 -0.5426
  139OSM    H8T15190   5.483   6.124   7.007  0.7144  3.7159  1.2955
  139OSM    C9S15191   5.327   6.160   6.851 -1.2292 -0.6150  0.1432
  139OSM    H9S15192   5.411   6.185   6.783 -1.1234  0.3613  0.6169
  139OSM    H9T15193   5.257   6.243   6.824  0.2947  1.2940  1.7920
  139OSM   C10S15194   5.251   6.033   6.817  0.3236  0.3245  0.1272
  139OSM   H10S15195   5.173   6.013   6.894 -2.3350 -0.3352 -2.5328
  139OSM   H10T15196   5.315   5.942   6.816 -2.8961 -2.1402 -0.4612
  139OSM   C11S15197   5.170   6.036   6.692 -0.3435  0.1699  0.5901
  139OSM   H11S15198   5.139   6.140   6.667 -0.5062 -0.3456 -1.5379
  139OSM   H11T15199   5.073   5.982   6.707 -0.0689 -0.8199 -0.9767
  139OSM   C12S15200   5.233   5.963   6.574  0.0779 -0.4815 -0.5262
  139OSM   H12S15201   5.212   5.855   6.579  1.4391 -0.7718 -0.6519
  139OSM   H12T15202   5.343   5.958   6.584  0.0222 -1.5226 -0.3870
  139OSM   C13S15203   5.188   6.027   6.443 -0.2786 -0.3849 -0.3233
  139OSM   H13S15204   5.188   6.136   6.464 -2.2308 -0.6475  1.4026
  139OSM   H13T15205   5.082   6.007   6.419 -1.0337  2.3149  0.4733
  139OSM   C14S15206   5.283   5.969   6.342 -0.2533  0.1017 -0.4138
  139OSM   H14S15207   5.284   5.859   6.355  3.4583  0.0767 -0.0182
  139OSM   H14T15208   5.388   5.989   6.369  0.1125 -2.2698  0.0986
  139OSM   C15S15209   5.255   6.010   6.195  0.1085 -0.0142 -0.1386
  139OSM   H15S15210   5.255   6.120   6.179 -0.8464 -0.1145 -0.9867
  139OSM   H15T15211   5.148   5.982   6.185 -0.0495  0.7587 -0.6868
  139OSM   C16S15212   5.335   5.943   6.085  0.4117 -0.2530 -0.0522
  139OSM   H16S15213   5.303   5.837   6.086  0.7387 -0.3553  0.8310
  139OSM   H16T15214   5.442   5.952   6.113  0.7902 -1.6496 -0.9478
  139OSM   C17S15215   5.299   5.991   5.948 -0.2337 -0.2804  0.1865
  139OSM   H17S15216   5.190   5.972   5.939 -0.2320  0.4121 -1.7151
  139OSM   H17T15217   5.350   5.932   5.869 -1.0016  0.1426 -0.6494
  139OSM   C18S15218   5.344   6.131   5.912 -0.1564  0.5021 -0.0840
  139OSM   H18S15219   5.313   6.169   5.812  0.9786  0.4373 -0.4757
  139OSM   H18T15220   5.454   6.145   5.919  0.0163 -1.2669  1.4080
  139OSM   H18U15221   5.292   6.202   5.980 -0.5714  1.8430 -1.7099
  139OSM    C1F15222   5.654   5.858   7.038  0.1699  0.4629 -0.0338
  139OSM     OF15223   5.593   5.753   7.058  0.3937  0.5686  0.3947
  139OSM    C2F15224   5.720   5.890   6.908 -0.3185 -1.1646  0.0427
  139OSM    H2F15225   5.820   5.844   6.891  0.8932  1.7558 -1.7041
  139OSM    H2G15226   5.750   5.997   6.899  0.4778 -1.2686  1.1568
  139OSM    C3F15227   5.629   5.861   6.792  0.5895 -0.0325 -0.3745
  139OSM    H3F15228   5.540   5.927   6.783 -0.4249 -1.2765  0.0790
  139OSM    H3G15229   5.592   5.758   6.811  0.4418 -0.3522 -2.2031
  139OSM    C4F15230   5.700   5.861   6.652 -0.1685 -0.4636 -0.2425
  139OSM    H4F15231   5.779   5.786   6.673 -0.0493 -0.4698 -0.7160
  139OSM    H4G15232   5.734   5.962   6.621 -1.5153 -0.0124 -0.3331
  139OSM    C5F15233   5.623   5.811   6.529  1.2259  0.5865  0.4617
  139OSM    H5F15234   5.698   5.825   6.448  0.1524  2.0254 -0.3242
  139OSM    H5G15235   5.531   5.866   6.501  1.0636 -0.9851 -2.5561
  139OSM    C6F15236   5.576   5.663   6.537 -0.0009 -0.1876 -0.4172
  139OSM    H6F15237   5.508   5.658   6.625 -0.2350 -1.8739 -0.6581
  139OSM    H6G15238   5.676   5.623   6.563  0.9952 -0.0745 -3.5640
  139OSM    C7F15239   5.500   5.614   6.419  0.6106  0.7593  0.4627
  139OSM    H7F15240   5.406   5.674   6.426 -0.5986 -0.9221 -0.5841
  139OSM    H7G15241   5.488   5.504   6.424 -1.8886  0.9491  0.1999
  139OSM    C8F15242   5.549   5.650   6.281  0.0040 -0.4098  0.5755
  139OSM    H8F15243   5.566   5.760   6.279  0.4322 -0.4731  0.6166
  139OSM    H8G15244   5.461   5.626   6.218 -0.5465  0.2140  1.0827
  139OSM    C9F15245   5.685   5.590   6.239  0.5934 -0.1684 -0.5446
  139OSM    H9F15246   5.768   5.593   6.311  2.6463 -0.2405 -2.7959
  139OSM   C10F15247   5.714   5.522   6.131  0.9037  0.9309  0.0733
  139OSM   H10F15248   5.822   5.506   6.119  0.5516  0.1089 -2.4237
  139OSM   C11F15249   5.631   5.505   6.006  0.7255 -0.9336 -0.2896
  139OSM   H11F15250   5.529   5.469   6.031  0.3285 -0.8904 -1.7744
  139OSM   H11G15251   5.675   5.422   5.946 -2.4201 -1.2168 -2.4512
  139OSM   C12F15252   5.608   5.633   5.930  0.0546 -0.5628 -0.4822
  139OSM   H12F15253   5.704   5.672   5.890  0.4936 -0.3802  0.7120
  139OSM   H12G15254   5.563   5.712   5.994 -0.9611 -1.4888 -0.0107
  139OSM   C13F15255   5.498   5.634   5.820 -0.3973 -0.0130  0.1445
  139OSM   H13F15256   5.484   5.740   5.791 -1.6771  0.2281  1.5058
  139OSM   H13G15257   5.401   5.609   5.870  1.2947 -1.1349  3.1104
  139OSM   C14F15258   5.537   5.551   5.696  0.2896  1.0350 -0.1453
  139OSM   H14F15259   5.467   5.558   5.611  0.2903 -0.6725 -0.3269
  139OSM   H14G15260   5.524   5.446   5.731  1.3667  0.9759  0.1121
  139OSM   C15F15261   5.684   5.561   5.644 -0.1449 -0.8048  0.2802
  139OSM   H15F15262   5.764   5.549   5.720  0.2628  1.1005  0.1868
  139OSM   H15G15263   5.716   5.665   5.622 -1.4639 -0.7868 -1.7329
  139OSM   C16F15264   5.707   5.499   5.507  0.6410  0.6115  0.1669
  139OSM   H16F15265   5.815   5.506   5.481  0.6671 -1.3822 -0.4260
  139OSM   H16G15266   5.652   5.559   5.432  0.9790 -2.1169 -2.4723
  139OSM   C17F15267   5.665   5.350   5.506 -0.8204  0.2241  0.2944
  139OSM   H17F15268   5.566   5.328   5.551 -1.3620  2.0069  0.0465
  139OSM   H17G15269   5.737   5.294   5.570 -2.6016 -0.4650  1.7703
  139OSM   C18F15270   5.664   5.284   5.363  0.4724 -0.1663 -0.6762
  139OSM   H18F15271   5.622   5.348   5.283 -0.5142 -0.4712 -0.4177
  139OSM   H18G15272   5.604   5.191   5.377  1.3553 -0.9400 -1.8456
  139OSM   H18H15273   5.759   5.250   5.316  0.8657 -1.0139  0.6600
  140OSM      N15274   6.770   3.175   7.533 -0.0990 -0.4511  0.3146
  140OSM    C1515275   6.919   3.139   7.541  0.3782 -0.7490 -0.8278
  140OSM   H15A15276   6.952   3.117   7.641  2.6226  0.1510 -1.2971
  140OSM   H15B15277   6.972   3.227   7.507  0.3427 -0.7160 -0.7961
  140OSM   H15C15278   6.949   3.048   7.490 -1.4116 -1.3220 -0.9308
  140OSM    C1415279   6.692   3.064   7.604 -0.0531 -0.1708  0.2129
  140OSM   H14A15280   6.586   3.080   7.606 -0.1051  0.5064 -3.1362
  140OSM   H14B15281   6.726   3.067   7.707  1.8862 -3.2968 -0.2005
  140OSM   H14C15282   6.713   2.969   7.557 -0.5058  0.1729 -0.6968
  140OSM    C1315283   6.754   3.314   7.604 -0.5447  0.4021 -0.6762
  140OSM   H13A15284   6.768   3.299   7.710  2.2696  0.2466 -1.0018
  140OSM   H13B15285   6.654   3.352   7.585 -0.8332 -0.6218 -1.2796
  140OSM   H13C15286   6.829   3.386   7.575  2.9654 -3.3374 -1.7709
  140OSM    C1215287   6.721   3.182   7.389 -0.1641  0.2017 -0.1620
  140OSM   H12A15288   6.745   3.279   7.348 -0.1065  1.5744  2.8192
  140OSM   H12B15289   6.614   3.183   7.404  0.0599 -0.1225  1.6864
  140OSM    C1115290   6.756   3.076   7.280 -0.2760  0.5298 -0.4913
  140OSM   H11A15291   6.865   3.056   7.280  0.1351  2.5076  0.2228
  140OSM   H11B15292   6.723   3.106   7.179 -1.9193 -1.3178 -0.5608
  140OSM      P15293   6.732   2.819   7.328 -0.3873  0.0807 -0.0807
  140OSM    O1315294   6.793   2.811   7.464 -0.4664  0.1550  0.2389
  140OSM    O1415295   6.627   2.716   7.303  0.2722 -0.7130 -0.3224
  140OSM    O1115296   6.856   2.813   7.228  0.1924 -0.0011  0.0280
  140OSM    O1215297   6.670   2.965   7.304 -0.5877  0.0573  0.3392
  140OSM    C1S15298   6.861   2.735   7.106  0.8210 -0.1893 -0.7003
  140OSM    H1S15299   6.764   2.686   7.086  1.2949 -2.0773  1.2026
  140OSM    H1T15300   6.937   2.656   7.125  0.5851 -0.4920 -1.0210
  140OSM     NF15301   6.911   2.736   6.865  0.3179 -0.0281  0.2330
  140OSM    HNF15302   6.999   2.724   6.819  0.0892  0.9865 -0.5268
  140OSM    C2S15303   6.903   2.820   6.979  0.2584 -0.7038  0.1235
  140OSM    H2S15304   6.828   2.900   6.963  1.7330  0.3690 -1.8273
  140OSM    C3S15305   7.039   2.888   7.004 -0.7407 -0.3096 -0.3602
  140OSM    H3S15306   7.106   2.799   7.011  0.7410  0.6619 -1.4616
  140OSM     O315307   7.053   2.958   7.126  0.5393 -0.5611 -0.1575
  140OSM    HO315308   6.995   2.905   7.182 -2.4624  1.9618 -0.5915
  140OSM    C4S15309   7.090   2.967   6.890  0.3093 -0.6310 -0.4734
  140OSM    H4S15310   7.171   2.919   6.833  0.5164  0.2358 -0.9288
  140OSM    C5S15311   7.064   3.094   6.860  0.6294 -0.6107 -0.7801
  140OSM    H5S15312   6.993   3.152   6.921  0.6283 -0.2713 -1.1045
  140OSM    C6S15313   7.111   3.175   6.747 -0.4628  0.5385  0.0230
  140OSM    H6S15314   7.135   3.273   6.793 -0.3908  0.5901 -0.1221
  140OSM    H6T15315   7.023   3.189   6.680  0.1139  2.5711 -0.3565
  140OSM    C7S15316   7.240   3.128   6.685  0.0194  0.6322 -0.4904
  140OSM    H7S15317   7.311   3.109   6.768  1.4716  1.8412 -1.3863
  140OSM    H7T15318   7.280   3.215   6.628  1.5230 -0.2970 -0.9012
  140OSM    C8S15319   7.234   3.008   6.583  0.1697  0.1538  0.4620
  140OSM    H8S15320   7.168   2.927   6.619 -3.4017  1.1916 -3.0852
  140OSM    H8T15321   7.334   2.959   6.586 -0.5919 -1.4257  2.0791
  140OSM    C9S15322   7.188   3.063   6.442  0.1675  0.3711  0.1241
  140OSM    H9S15323   7.262   3.139   6.406 -0.6918  1.1118 -0.1191
  140OSM    H9T15324   7.085   3.103   6.450  0.7431  2.0064 -0.0874
  140OSM   C10S15325   7.182   2.947   6.331  0.0773 -0.3207  0.1886
  140OSM   H10S15326   7.121   2.862   6.368 -0.9524 -0.0645 -0.8864
  140OSM   H10T15327   7.286   2.910   6.320 -0.1889 -0.9360 -0.2711
  140OSM   C11S15328   7.122   2.998   6.203  0.8520  0.7772 -0.5130
  140OSM   H11S15329   7.165   3.099   6.185  0.2306  1.6758  2.4882
  140OSM   H11T15330   7.012   3.013   6.211  0.3536 -2.6268  0.8024
  140OSM   C12S15331   7.156   2.902   6.082  0.2283  0.6787 -0.0058
  140OSM   H12S15332   7.085   2.817   6.074  0.9552  0.1782 -1.6297
  140OSM   H12T15333   7.251   2.849   6.103 -0.8253 -1.9674 -1.4781
  140OSM   C13S15334   7.158   2.975   5.952 -0.2640 -0.1188  1.0614
  140OSM   H13S15335   7.226   3.063   5.957  0.9760 -0.7791 -1.8265
  140OSM   H13T15336   7.059   3.025   5.953 -0.4200 -0.1500 -2.1126
  140OSM   C14S15337   7.181   2.886   5.834  0.5552 -0.5716  0.4112
  140OSM   H14S15338   7.086   2.830   5.823 -0.2210  0.9982 -1.4542
  140OSM   H14T15339   7.257   2.808   5.858  1.1048 -0.2339 -0.1803
  140OSM   C15S15340   7.222   2.964   5.708  0.2778 -1.0345  0.3257
  140OSM   H15S15341   7.317   3.021   5.713  1.4508 -2.5057 -2.4966
  140OSM   H15T15342   7.146   3.044   5.698  0.8994 -0.6408 -1.7698
  140OSM   C16S15343   7.224   2.885   5.572  0.0100 -0.4058 -0.1994
  140OSM   H16S15344   7.122   2.845   5.557 -0.5502  0.6158  0.6934
  140OSM   H16T15345   7.303   2.807   5.570  2.7756  2.2039 -0.9836
  140OSM   C17S15346   7.250   2.984   5.452  0.1242  1.0533  0.0243
  140OSM   H17S15347   7.323   3.061   5.485  2.6294 -1.4634  0.7414
  140OSM   H17T15348   7.157   3.034   5.418 -1.0496 -1.0868 -0.1108
  140OSM   C18S15349   7.308   2.908   5.332  0.1595  0.7363 -0.0425
  140OSM   H18S15350   7.226   2.856   5.279 -0.9867  2.1069  0.3131
  140OSM   H18T15351   7.397   2.845   5.356  0.3736  0.8705 -0.4732
  140OSM   H18U15352   7.351   2.971   5.251  1.8297  0.4781  0.5950
  140OSM    C1F15353   6.800   2.674   6.811  0.0277 -0.3150 -1.1956
  140OSM     OF15354   6.691   2.688   6.863  0.8050  0.0303  0.8724
  140OSM    C2F15355   6.822   2.599   6.685 -0.1025  0.0604  0.5650
  140OSM    H2F15356   6.774   2.501   6.706 -0.2515 -0.0774 -0.3713
  140OSM    H2G15357   6.926   2.573   6.655 -0.7212 -2.7636  0.6671
  140OSM    C3F15358   6.751   2.669   6.562  0.0775  0.5225  0.4728
  140OSM    H3F15359   6.641   2.683   6.572 -0.2089 -1.8558  1.5258
  140OSM    H3G15360   6.767   2.597   6.478 -2.9717 -0.6196  0.7255
  140OSM    C4F15361   6.821   2.802   6.530  0.0386 -0.3896 -0.1344
  140OSM    H4F15362   6.931   2.790   6.544  0.0976  1.2702  1.2176
  140OSM    H4G15363   6.787   2.866   6.614 -0.5641 -0.7518 -0.1030
  140OSM    C5F15364   6.768   2.874   6.405  0.2182 -0.0088 -0.3214
  140OSM    H5F15365   6.816   2.973   6.391 -1.3768  0.6937 -1.0337
  140OSM    H5G15366   6.660   2.894   6.424  0.4598  2.5818 -1.3222
  140OSM    C6F15367   6.784   2.793   6.279  0.5029 -0.0462  0.2796
  140OSM    H6F15368   6.760   2.686   6.292 -1.7634  0.0767 -2.1434
  140OSM    H6G15369   6.890   2.789   6.245  0.3398  1.2591 -0.4603
  140OSM    C7F15370   6.707   2.857   6.163  0.5269  0.2702  0.0368
  140OSM    H7F15371   6.694   2.962   6.197 -1.1868 -0.6776  2.6707
  140OSM    H7G15372   6.604   2.816   6.154  1.0062 -0.5485 -2.3483
  140OSM    C8F15373   6.782   2.849   6.029  0.2482  0.2963  0.3770
  140OSM    H8F15374   6.876   2.904   6.054  0.3706  0.4427 -0.3765
  140OSM    H8G15375   6.737   2.921   5.957  0.7551  1.1647  0.9011
  140OSM    C9F15376   6.820   2.715   5.968 -0.1325  0.1286 -0.4126
  140OSM    H9F15377   6.891   2.668   6.038 -2.2479  0.3250  2.0188
  140OSM   C10F15378   6.789   2.669   5.846  0.1765 -0.4700  0.8014
  140OSM   H10F15379   6.823   2.568   5.819 -2.4567 -0.9340 -1.2320
  140OSM   C11F15380   6.713   2.740   5.731  0.6162 -0.1741  0.0430
  140OSM   H11F15381   6.693   2.841   5.773  3.8546 -0.1086  1.6936
  140OSM   H11G15382   6.613   2.695   5.711  1.2255 -1.1038 -1.0353
  140OSM   C12F15383   6.788   2.772   5.601 -0.5302 -0.6536  0.2637
  140OSM   H12F15384   6.880   2.831   5.623 -0.0492 -2.2171  2.9284
  140OSM   H12G15385   6.742   2.831   5.519 -1.7575 -1.5248  0.3109
  140OSM   C13F15386   6.831   2.649   5.518  0.0077  0.1729  0.6095
  140OSM   H13F15387   6.740   2.587   5.501 -0.4566  1.5043 -2.6811
  140OSM   H13G15388   6.907   2.599   5.581 -0.8051  1.7959  2.9887
  140OSM   C14F15389   6.883   2.684   5.385 -0.4921  0.0990 -0.7710
  140OSM   H14F15390   6.977   2.743   5.393 -1.0221  1.0124 -1.0805
  140OSM   H14G15391   6.806   2.749   5.338  0.1648  0.3029 -1.5968
  140OSM   C15F15392   6.901   2.561   5.294 -0.0416  0.3920  1.0991
  140OSM   H15F15393   6.811   2.501   5.266  0.8143 -1.2037  1.6122
  140OSM   H15G15394   6.970   2.495   5.350  0.8859  0.3154 -0.0921
  140OSM   C16F15395   6.969   2.608   5.160 -0.2791  0.1178 -0.9881
  140OSM   H16F15396   7.061   2.668   5.179  0.2651 -0.5764 -1.4029
  140OSM   H16G15397   6.890   2.665   5.105  0.9514  1.5223 -1.3642
  140OSM   C17F15398   7.027   2.493   5.068 -0.4202  0.1381 -0.3595
  140OSM   H17F15399   7.068   2.424   5.144  1.6676  0.0275 -1.4770
  140OSM   H17G15400   7.106   2.531   4.999 -0.2708  1.2636  0.3916
  140OSM   C18F15401   6.918   2.416   4.985  0.1984 -0.5365 -0.9561
  140OSM   H18F15402   6.835   2.381   5.050  1.3104  1.0401  1.4681
  140OSM   H18G15403   6.965   2.329   4.935  0.7749 -0.1921 -1.0264
  140OSM   H18H15404   6.882   2.490   4.910  1.6450  2.3984  1.0323
  141OSM      N15405   5.864   1.875   7.398 -0.2076 -0.1213 -0.5609
  141OSM    C1515406   5.786   1.991   7.443  0.1100  0.8875  0.9918
  141OSM   H15A15407   5.680   1.976   7.428  0.3156  0.4266 -0.0923
  141OSM   H15B15408   5.803   2.076   7.379 -2.0930  2.2036  2.0350
  141OSM   H15C15409   5.800   2.027   7.544 -2.1734 -1.0257  2.0947
  141OSM    C1415410   6.010   1.888   7.436  0.4145  0.0669  0.2483
  141OSM   H14A15411   6.049   1.976   7.387 -2.8105  0.4350 -2.0129
  141OSM   H14B15412   6.046   1.787   7.427 -0.4529 -0.1563 -0.9404
  141OSM   H14C15413   6.012   1.911   7.542  1.3728  0.5465  0.1370
  141OSM    C1315414   5.819   1.750   7.466  0.6919 -0.5844 -0.2390
  141OSM   H13A15415   5.750   1.705   7.396  0.4957 -1.1475  0.3166
  141OSM   H13B15416   5.774   1.781   7.559 -4.4274 -1.8153 -2.0060
  141OSM   H13C15417   5.897   1.680   7.489  0.9807  0.6597  3.2326
  141OSM    C1215418   5.858   1.849   7.249  0.5659  0.5524 -0.0716
  141OSM   H12A15419   5.759   1.817   7.220 -0.0909  2.1512  0.3136
  141OSM   H12B15420   5.920   1.762   7.230 -1.9254 -1.6851  1.2896
  141OSM    C1115421   5.903   1.955   7.153 -0.2429  0.6386  0.6054
  141OSM   H11A15422   5.923   1.889   7.066  2.5649  0.5214  1.2486
  141OSM   H11B15423   6.001   2.003   7.176 -0.1796  1.2236 -0.7551
  141OSM      P15424   5.807   2.167   7.024 -0.3255  0.6390  0.0915
  141OSM    O1315425   5.672   2.223   6.989  0.9957 -0.1181  0.2560
  141OSM    O1415426   5.911   2.261   7.070  0.1644  0.0537 -0.8308
  141OSM    O1115427   5.870   2.096   6.900  0.1835 -0.6179  0.1855
  141OSM    O1215428   5.796   2.050   7.128 -0.6681  0.0084  0.4080
  141OSM    C1S15429   5.828   1.994   6.817 -0.2557  0.2484  0.3545
  141OSM    H1S15430   5.755   1.924   6.865 -2.4490  1.4069 -1.1175
  141OSM    H1T15431   5.908   1.923   6.785  0.5218  1.9701 -1.7500
  141OSM     NF15432   5.718   1.942   6.604 -0.0463 -0.0047  0.1217
  141OSM    HNF15433   5.776   1.895   6.538  0.9085  1.5079 -0.1541
  141OSM    C2S15434   5.766   2.052   6.691  0.0443  0.0948 -0.5041
  141OSM    H2S15435   5.681   2.120   6.711 -0.7764 -1.4402  1.6149
  141OSM    C3S15436   5.879   2.135   6.614 -0.0208  1.3035 -0.7766
  141OSM    H3S15437   5.951   2.057   6.580 -1.5845  0.1251 -1.5450
  141OSM     O315438   5.954   2.221   6.697 -0.6937 -0.3621  0.2782
  141OSM    HO315439   5.910   2.218   6.782  0.9384 -0.2122  1.1709
  141OSM    C4S15440   5.830   2.209   6.494 -0.0634 -0.0642 -0.2212
  141OSM    H4S15441   5.740   2.270   6.510 -1.4320 -2.0949  0.1662
  141OSM    C5S15442   5.888   2.207   6.366  0.2680  0.3245 -0.3869
  141OSM    H5S15443   5.985   2.160   6.347  0.4475  0.9677 -1.0857
  141OSM    C6S15444   5.830   2.289   6.252 -0.9015  0.3321 -0.6432
  141OSM    H6S15445   5.893   2.381   6.249 -1.2338  0.7337  2.1666
  141OSM    H6T15446   5.726   2.320   6.276 -0.2392  2.3708 -0.2140
  141OSM    C7S15447   5.824   2.217   6.117  0.7315  0.1380  0.1777
  141OSM    H7S15448   5.767   2.123   6.127 -0.5955  0.9328  0.2908
  141OSM    H7T15449   5.921   2.173   6.083 -1.0841 -2.7757 -1.6102
  141OSM    C8S15450   5.783   2.314   6.009  1.2114 -0.2399 -0.5807
  141OSM    H8S15451   5.847   2.405   6.001  0.1712  1.0009  3.2928
  141OSM    H8T15452   5.679   2.350   6.021  0.9538 -1.0065 -0.4864
  141OSM    C9S15453   5.783   2.245   5.871  1.0302  0.0031  0.0750
  141OSM    H9S15454   5.715   2.303   5.805  2.7990  3.4872  1.0484
  141OSM    H9T15455   5.731   2.149   5.889  0.0843  0.4418 -0.2798
  141OSM   C10S15456   5.906   2.222   5.798 -0.5370  0.9205  0.6543
  141OSM   H10S15457   5.969   2.156   5.861 -0.5516 -2.0160 -2.1763
  141OSM   H10T15458   5.958   2.321   5.796  2.3989 -0.5007  1.0634
  141OSM   C11S15459   5.889   2.152   5.664  0.1173  0.3098 -0.1710
  141OSM   H11S15460   5.812   2.073   5.673 -1.1767  1.4908 -0.6024
  141OSM   H11T15461   5.985   2.103   5.634  2.9695  4.3045  1.5091
  141OSM   C12S15462   5.845   2.240   5.548  0.3622 -0.1402  0.0771
  141OSM   H12S15463   5.915   2.319   5.513 -0.4267  0.6703  0.2756
  141OSM   H12T15464   5.750   2.295   5.567 -0.6899 -0.3480 -3.6689
  141OSM   C13S15465   5.822   2.152   5.421  0.6926 -1.1143 -0.0066
  141OSM   H13S15466   5.713   2.161   5.397  0.4078  0.7084  1.7561
  141OSM   H13T15467   5.843   2.047   5.451  2.3874 -0.3629  1.5829
  141OSM   C14S15468   5.893   2.190   5.296 -0.1340 -0.3135  0.4996
  141OSM   H14S15469   5.891   2.111   5.218  1.6019  0.8867 -0.8211
  141OSM   H14T15470   6.001   2.204   5.320 -0.0487 -1.9405  1.2751
  141OSM   C15S15471   5.842   2.325   5.231  0.8223  0.2590 -0.2280
  141OSM   H15S15472   5.891   2.338   5.133  1.6145 -0.1148  0.1086
  141OSM   H15T15473   5.861   2.410   5.299 -0.0056 -1.1551  1.8772
  141OSM   C16S15474   5.686   2.325   5.191  0.1180 -0.3819 -0.3498
  141OSM   H16S15475   5.654   2.422   5.147 -0.9879 -1.4117 -1.9411
  141OSM   H16T15476   5.629   2.303   5.284 -0.4497  1.3639 -0.2509
  141OSM   C17S15477   5.631   2.221   5.093 -0.7949 -0.3893  0.7969
  141OSM   H17S15478   5.659   2.129   5.148  1.7468 -0.3515 -0.2757
  141OSM   H17T15479   5.677   2.219   4.992 -0.3068 -1.4547  1.0343
  141OSM   C18S15480   5.484   2.236   5.085 -0.0568 -0.0279 -0.1367
  141OSM   H18S15481   5.459   2.342   5.059  0.3008 -0.1107 -0.8554
  141OSM   H18T15482   5.443   2.218   5.187  1.9761 -0.2157  0.6790
  141OSM   H18U15483   5.427   2.168   5.018 -0.5246  0.0175  0.2082
  141OSM    C1F15484   5.616   1.866   6.647 -0.2450  1.1898  0.5030
  141OSM     OF15485   5.559   1.909   6.744 -0.2722  0.3365  0.5179
  141OSM    C2F15486   5.581   1.739   6.572 -0.4633 -0.0179 -0.0660
  141OSM    H2F15487   5.634   1.645   6.595 -1.6619 -1.2815 -2.1470
  141OSM    H2G15488   5.603   1.755   6.464 -0.7459  1.7209  0.1024
  141OSM    C3F15489   5.427   1.706   6.587  0.1101 -0.3296 -0.0449
  141OSM    H3F15490   5.366   1.794   6.555 -0.9456 -1.5542 -1.5671
  141OSM    H3G15491   5.408   1.692   6.696 -2.5015  1.1389 -0.2148
  141OSM    C4F15492   5.371   1.584   6.514 -0.0666  0.3184  0.1044
  141OSM    H4F15493   5.263   1.578   6.538  0.1172  1.5039  1.3211
  141OSM    H4G15494   5.423   1.491   6.545  0.1405 -0.9293 -3.5335
  141OSM    C5F15495   5.381   1.592   6.358 -0.0361  1.1491 -0.0491
  141OSM    H5F15496   5.325   1.497   6.342 -1.4054  1.4564  2.4577
  141OSM    H5G15497   5.488   1.592   6.326  0.4377 -0.6634  1.3669
  141OSM    C6F15498   5.308   1.707   6.279 -0.4250  0.2168 -0.5731
  141OSM    H6F15499   5.367   1.800   6.275 -0.3145  0.4685  3.3341
  141OSM    H6G15500   5.211   1.721   6.332 -0.0760  0.2332  0.0633
  141OSM    C7F15501   5.273   1.663   6.137 -0.2910 -0.4912  0.9526
  141OSM    H7F15502   5.197   1.582   6.130  0.8928 -1.6120  0.5980
  141OSM    H7G15503   5.365   1.632   6.082 -1.1156 -0.5553 -0.4394
  141OSM    C8F15504   5.207   1.784   6.057 -0.5179 -0.3827 -0.1823
  141OSM    H8F15505   5.248   1.775   5.954  2.4932  2.0850  0.6541
  141OSM    H8G15506   5.242   1.883   6.091 -1.7000 -0.4703  1.4425
  141OSM    C9F15507   5.059   1.803   6.066 -0.5153 -0.1600 -0.1690
  141OSM    H9F15508   5.027   1.819   6.170  0.9541 -1.1707  0.4774
  141OSM   C10F15509   4.981   1.802   5.960  0.5812  0.2092  0.0871
  141OSM   H10F15510   4.875   1.828   5.973  0.5092 -0.3486  0.6546
  141OSM   C11F15511   5.022   1.796   5.810 -0.3872 -0.4431 -0.4407
  141OSM   H11F15512   5.130   1.780   5.793 -0.6740 -1.1888 -1.6807
  141OSM   H11G15513   4.983   1.887   5.758  1.0014 -0.4423 -1.5282
  141OSM   C12F15514   4.943   1.677   5.746  0.1291 -1.0148  0.3901
  141OSM   H12F15515   4.833   1.690   5.759 -0.0505  0.7976 -2.1665
  141OSM   H12G15516   4.982   1.584   5.794  0.9167 -0.3667  1.0398
  141OSM   C13F15517   4.978   1.657   5.597  0.1073  0.1914 -0.2258
  141OSM   H13F15518   5.083   1.622   5.595  0.5673  1.5521 -1.3528
  141OSM   H13G15519   4.968   1.758   5.553  0.2223  1.3767  2.3018
  141OSM   C14F15520   4.884   1.562   5.526  0.3498  0.0962 -0.0528
  141OSM   H14F15521   4.782   1.588   5.558  0.9242  1.1107  1.0250
  141OSM   H14G15522   4.912   1.459   5.559 -0.7141 -0.2379 -0.1508
  141OSM   C15F15523   4.901   1.558   5.374  0.0020 -0.5568 -0.1336
  141OSM   H15F15524   4.854   1.470   5.325  2.1024 -0.7709 -1.9173
  141OSM   H15G15525   5.007   1.537   5.346  0.5172  0.2151  1.1908
  141OSM   C16F15526   4.870   1.690   5.299 -0.6016  0.5312 -0.6404
  141OSM   H16F15527   4.919   1.770   5.357  0.9878 -1.1765  0.4724
  141OSM   H16G15528   4.759   1.703   5.300 -0.9930 -1.6482  3.2092
  141OSM   C17F15529   4.929   1.687   5.160  0.7977  0.1700  0.3333
  141OSM   H17F15530   4.892   1.591   5.117 -0.6500  0.1546  1.5227
  141OSM   H17G15531   5.040   1.686   5.155  0.7718 -1.1788 -0.6169
  141OSM   C18F15532   4.880   1.801   5.075 -0.3586 -0.5127 -0.1967
  141OSM   H18F15533   4.769   1.806   5.075 -0.2920  1.9645 -0.0919
  141OSM   H18G15534   4.915   1.785   4.971  2.0251 -2.4521  0.8187
  141OSM   H18H15535   4.925   1.894   5.115  0.3236 -1.1340  0.5199
  142OSM      N15536   4.519   0.517   7.367  0.2120  0.0673  0.4580
  142OSM    C1515537   4.597   0.450   7.472  0.4840 -0.0904  0.6397
  142OSM   H15A15538   4.672   0.523   7.496 -1.8000  2.4221  0.6681
  142OSM   H15B15539   4.652   0.369   7.426 -0.6525  0.3859 -1.7327
  142OSM   H15C15540   4.537   0.423   7.558  0.8483 -1.9970  0.3413
  142OSM    C1415541   4.387   0.454   7.340  0.7572 -0.1878 -0.2649
  142OSM   H14A15542   4.332   0.433   7.431 -0.6460  0.1825 -1.0013
  142OSM   H14B15543   4.403   0.359   7.291  0.5671 -0.6637  0.5645
  142OSM   H14C15544   4.336   0.522   7.274  0.3231 -0.9054 -0.6708
  142OSM    C1315545   4.504   0.662   7.413  0.2543 -0.0864  0.7078
  142OSM   H13A15546   4.435   0.719   7.354  0.5408  0.2434  0.6934
  142OSM   H13B15547   4.599   0.711   7.403  0.0339 -0.1160 -2.0454
  142OSM   H13C15548   4.463   0.667   7.513  0.1077 -1.9693  0.7775
  142OSM    C1215549   4.599   0.523   7.235 -1.0257 -0.1178 -0.5938
  142OSM   H12A15550   4.692   0.576   7.249 -1.3260  0.7034 -1.5786
  142OSM   H12B15551   4.549   0.587   7.164 -1.8694 -2.2767 -2.0212
  142OSM    C1115552   4.630   0.393   7.162 -0.1636 -0.0951 -0.0094
  142OSM   H11A15553   4.709   0.424   7.091  0.7407  3.1212  2.1854
  142OSM   H11B15554   4.538   0.358   7.111 -1.3442  0.8939  1.3371
  142OSM      P15555   4.646   0.144   7.268 -0.1726  0.3473  0.1586
  142OSM    O1315556   4.767   0.064   7.308 -0.0533 -0.0363 -0.0380
  142OSM    O1415557   4.532   0.142   7.362  0.4930  0.6027  0.4879
  142OSM    O1115558   4.586   0.107   7.125  0.6669 -0.7981  0.3272
  142OSM    O1215559   4.694   0.288   7.238 -0.2907 -0.2219  0.8227
  142OSM    C1S15560   4.682   0.052   7.032  0.4813  0.5508 -0.3625
  142OSM    H1S15561   4.702  -0.055   7.055 -0.7080  0.4818  0.4374
  142OSM    H1T15562   4.770   0.119   7.019 -0.2795  1.5383 -0.5553
  142OSM     NF15563   4.744   0.002   6.791  0.2269 -0.1948 -1.1878
  142OSM    HNF15564   4.784   0.078   6.739 -1.1518  2.0202  0.7818
  142OSM    C2S15565   4.629   0.037   6.888  0.5992 -0.2242  0.1053
  142OSM    H2S15566   4.561  -0.049   6.904 -0.9956  1.1425  0.9990
  142OSM    C3S15567   4.542   0.152   6.846 -0.3426 -0.1469  1.1368
  142OSM    H3S15568   4.609   0.240   6.839 -0.0830 -0.4116  0.0223
  142OSM     O315569   4.434   0.175   6.931  0.8749  0.1842 -0.3766
  142OSM    HO315570   4.471   0.136   7.010  0.7328  1.0220  0.1199
  142OSM    C4S15571   4.486   0.130   6.709  0.5108 -0.0915  0.8908
  142OSM    H4S15572   4.558   0.140   6.626 -1.2530  1.0682 -0.5542
  142OSM    C5S15573   4.369   0.070   6.669 -0.0054  0.0353 -0.8639
  142OSM    H5S15574   4.311   0.008   6.739 -0.8165  0.0099 -1.5415
  142OSM    C6S15575   4.327   0.031   6.531  0.2809  0.0056  0.5576
  142OSM    H6S15576   4.217   0.015   6.524  0.3719  0.0698 -1.4508
  142OSM    H6T15577   4.371  -0.065   6.496  0.4136  0.1848  0.2303
  142OSM    C7S15578   4.370   0.133   6.429 -0.2021 -0.2149 -0.8208
  142OSM    H7S15579   4.481   0.140   6.433 -0.2648  0.6459 -0.4318
  142OSM    H7T15580   4.336   0.237   6.447  1.1659  0.0369  0.4763
  142OSM    C8S15581   4.338   0.095   6.280 -0.6700 -0.3420 -0.0426
  142OSM    H8S15582   4.229   0.098   6.261 -0.7913  2.7574  0.6236
  142OSM    H8T15583   4.374  -0.009   6.263  2.3656  0.6414 -0.2310
  142OSM    C9S15584   4.412   0.185   6.187  0.2160 -0.2662  0.0568
  142OSM    H9S15585   4.521   0.188   6.203  0.1964  1.7171 -0.0014
  142OSM    H9T15586   4.383   0.288   6.215  2.7607  0.5573 -0.1371
  142OSM   C10S15587   4.373   0.162   6.044 -0.8531 -0.2927 -0.1319
  142OSM   H10S15588   4.262   0.169   6.042 -1.0234 -0.5345  3.2150
  142OSM   H10T15589   4.419   0.066   6.013  0.5651 -0.1834  1.4687
  142OSM   C11S15590   4.404   0.292   5.958 -0.9671  0.1537  0.8067
  142OSM   H11S15591   4.506   0.329   5.982 -0.6504 -0.5454  0.5597
  142OSM   H11T15592   4.331   0.366   5.997  0.0906  0.5930  2.0190
  142OSM   C12S15593   4.382   0.271   5.809 -0.3012 -0.3611 -0.1592
  142OSM   H12S15594   4.363   0.369   5.761 -0.9203 -1.2755 -1.8405
  142OSM   H12T15595   4.293   0.205   5.808  1.3017 -2.7164  1.6840
  142OSM   C13S15596   4.505   0.213   5.726 -0.5515  0.0404 -0.3044
  142OSM   H13S15597   4.565   0.141   5.787  0.8176  0.5368 -1.0312
  142OSM   H13T15598   4.579   0.295   5.726 -1.6128  1.0368  0.4121
  142OSM   C14S15599   4.462   0.158   5.589  0.3497 -0.0216 -0.1581
  142OSM   H14S15600   4.426   0.244   5.529  0.0545  0.3771  0.5742
  142OSM   H14T15601   4.387   0.077   5.600  1.4755 -1.2388 -1.1302
  142OSM   C15S15602   4.581   0.105   5.512  0.2654 -0.2920  0.8148
  142OSM   H15S15603   4.615   0.017   5.570 -0.5456 -0.1539  1.5143
  142OSM   H15T15604   4.667   0.176   5.515  0.9904 -1.0219 -1.1157
  142OSM   C16S15605   4.541   0.064   5.364 -0.1642  0.3151  0.2280
  142OSM   H16S15606   4.624   0.010   5.316 -1.3172 -0.3359 -1.0873
  142OSM   H16T15607   4.532   0.161   5.310 -2.4372  0.5823  0.9842
  142OSM   C17S15608   4.413  -0.013   5.357 -0.5029 -0.1388  0.5284
  142OSM   H17S15609   4.331   0.056   5.386 -0.7206  0.6172 -1.6995
  142OSM   H17T15610   4.413  -0.105   5.421 -0.0646 -0.6921 -0.2465
  142OSM   C18S15611   4.371  -0.068   5.220 -0.6792 -0.2236  0.1799
  142OSM   H18S15612   4.266  -0.102   5.236 -1.2805  1.7281  0.7301
  142OSM   H18T15613   4.431  -0.150   5.174  2.1712  2.0805 -0.5205
  142OSM   H18U15614   4.366   0.021   5.153 -1.8314  1.8936  2.9007
  142OSM    C1F15615   4.804  -0.120   6.797  0.0342 -0.7593  0.3248
  142OSM     OF15616   4.769  -0.195   6.886 -0.4767  0.6150 -0.1184
  142OSM    C2F15617   4.923  -0.144   6.705 -0.0735  0.4297  0.0601
  142OSM    H2F15618   4.995  -0.067   6.739 -0.2155  1.4600 -1.8583
  142OSM    H2G15619   4.892  -0.121   6.601 -2.2687 -1.5178  0.2032
  142OSM    C3F15620   4.971  -0.292   6.712 -0.0576 -0.3860  0.4507
  142OSM    H3F15621   4.878  -0.353   6.721 -1.1229  0.9236 -1.0535
  142OSM    H3G15622   5.022  -0.305   6.810  1.2629  1.7011  0.0840
  142OSM    C4F15623   5.058  -0.330   6.582  0.1286 -0.3245  0.5207
  142OSM    H4F15624   5.096  -0.428   6.617 -1.4567 -1.3224 -0.4571
  142OSM    H4G15625   5.133  -0.248   6.573  0.3630 -0.0646  3.5747
  142OSM    C5F15626   4.968  -0.347   6.453 -0.2315  0.3271  0.0047
  142OSM    H5F15627   4.939  -0.244   6.422 -1.0562  0.0638 -0.1185
  142OSM    H5G15628   4.875  -0.406   6.466  0.9809 -1.8688 -0.6691
  142OSM    C6F15629   5.048  -0.395   6.333 -1.4204  1.0675  0.2218
  142OSM    H6F15630   5.080  -0.501   6.342 -0.8330  1.3784  2.7137
  142OSM    H6G15631   5.140  -0.338   6.308 -0.5764 -0.3754 -0.0837
  142OSM    C7F15632   4.971  -0.393   6.201 -0.7093 -0.1667  0.5201
  142OSM    H7F15633   4.953  -0.284   6.189 -0.9172 -0.2803 -0.2247
  142OSM    H7G15634   4.882  -0.458   6.209 -1.8475  1.0239 -1.5440
  142OSM    C8F15635   5.060  -0.442   6.078  0.2223 -0.3547 -0.3732
  142OSM    H8F15636   5.092  -0.544   6.107  0.3627 -0.6111 -1.4098
  142OSM    H8G15637   5.158  -0.390   6.081  1.3185 -2.3620  1.9226
  142OSM    C9F15638   5.007  -0.441   5.942 -0.3476  0.6896  0.0529
  142OSM    H9F15639   5.005  -0.343   5.892 -0.6610 -0.7430 -3.0213
  142OSM   C10F15640   4.939  -0.535   5.873  0.7477  0.1486 -0.0254
  142OSM   H10F15641   4.907  -0.515   5.770  1.6062  0.7222 -0.1917
  142OSM   C11F15642   4.920  -0.678   5.921  0.5348 -0.8381 -0.1554
  142OSM   H11F15643   4.973  -0.695   6.018 -1.2043 -1.6518  0.6931
  142OSM   H11G15644   4.957  -0.751   5.845 -2.9610 -0.9715 -1.9509
  142OSM   C12F15645   4.779  -0.727   5.962 -0.0147 -0.8447 -0.2705
  142OSM   H12F15646   4.711  -0.690   5.883  1.7998 -2.1675 -2.6060
  142OSM   H12G15647   4.733  -0.678   6.050  0.8436 -2.2364  1.0007
  142OSM   C13F15648   4.766  -0.878   5.965  0.6859 -0.2007  0.2015
  142OSM   H13F15649   4.813  -0.919   5.873 -0.7615  2.7019 -1.9957
  142OSM   H13G15650   4.660  -0.910   5.974  0.9702 -0.7479  1.9467
  142OSM   C14F15651   4.841  -0.939   6.080  0.1174 -0.3572 -0.4185
  142OSM   H14F15652   4.946  -0.907   6.065 -0.3202  2.2255  1.4788
  142OSM   H14G15653   4.819  -1.047   6.067  0.6543 -0.8110  1.9781
  142OSM   C15F15654   4.791  -0.904   6.224 -0.7655  0.2007  0.7884
  142OSM   H15F15655   4.800  -0.793   6.232 -3.6866  0.5624  0.2626
  142OSM   H15G15656   4.857  -0.945   6.304 -0.7393 -0.0172  0.6545
  142OSM   C16F15657   4.643  -0.949   6.250  0.0863  0.3833 -0.5251
  142OSM   H16F15658   4.658  -1.053   6.216  0.2740 -0.0516  0.8330
  142OSM   H16G15659   4.578  -0.903   6.172 -0.5296  0.6639  0.1443
  142OSM   C17F15660   4.585  -0.919   6.391  0.4786 -0.1922  0.3414
  142OSM   H17F15661   4.494  -0.980   6.410 -0.3710  0.6930 -0.6449
  142OSM   H17G15662   4.566  -0.809   6.390  0.0729 -0.2574  0.7269
  142OSM   C18F15663   4.678  -0.951   6.505  0.6590  0.2279  0.0618
  142OSM   H18F15664   4.774  -0.899   6.492  1.5051 -1.0833  0.7638
  142OSM   H18G15665   4.699  -1.060   6.495 -2.2284 -0.4187  0.0522
  142OSM   H18H15666   4.629  -0.931   6.603 -1.6556 -1.7719 -0.5661
  143OSM      N15667   1.411   4.939   7.241  0.7382 -0.2628 -0.5641
  143OSM    C1515668   1.474   4.806   7.242 -0.6283 -0.3129  0.7295
  143OSM   H15A15669   1.406   4.729   7.207  1.2273 -1.5409 -0.3092
  143OSM   H15B15670   1.505   4.773   7.340 -0.5698  0.3937  0.9548
  143OSM   H15C15671   1.555   4.798   7.171 -0.9856 -2.9841  0.5086
  143OSM    C1415672   1.299   4.946   7.344 -0.0135 -0.3848 -0.2725
  143OSM   H14A15673   1.215   4.894   7.300  0.8115 -0.7360 -1.4874
  143OSM   H14B15674   1.263   5.045   7.369  2.1106  0.0936  1.1665
  143OSM   H14C15675   1.335   4.893   7.431  0.0296 -1.1406 -0.7414
  143OSM    C1315676   1.517   5.042   7.272  0.0511  0.1438  0.1521
  143OSM   H13A15677   1.577   5.009   7.356 -2.7202 -0.2309  2.1423
  143OSM   H13B15678   1.482   5.143   7.291 -1.8401 -0.3995 -0.2710
  143OSM   H13C15679   1.585   5.050   7.189 -0.2738  1.5649  0.0023
  143OSM    C1215680   1.349   4.972   7.104  0.2567 -0.3723 -0.5041
  143OSM   H12A15681   1.418   4.932   7.031 -0.0193 -0.4111 -0.7451
  143OSM   H12B15682   1.341   5.079   7.097 -1.4496 -0.5693 -3.4946
  143OSM    C1115683   1.215   4.902   7.078 -0.5400 -0.3902  0.3714
  143OSM   H11A15684   1.229   4.797   7.111  1.2880  0.4445  2.5868
  143OSM   H11B15685   1.198   4.892   6.969  1.2718 -0.3276  0.0612
  143OSM      P15686   1.053   5.098   7.099  0.1499  0.0867 -0.2663
  143OSM    O1315687   0.926   5.127   7.166  0.1973 -0.7454 -0.3872
  143OSM    O1415688   1.170   5.192   7.112 -0.0297 -0.3130  0.3684
  143OSM    O1115689   1.024   5.079   6.943 -0.2310 -0.3738 -0.1648
  143OSM    O1215690   1.102   4.956   7.152 -0.4302  0.4314  0.1974
  143OSM    C1S15691   0.921   4.999   6.893  0.6910 -0.1901  0.6823
  143OSM    H1S15692   0.823   5.034   6.933  2.2035  2.6433  2.1287
  143OSM    H1T15693   0.938   4.891   6.915  1.6947 -0.2799 -0.4353
  143OSM     NF15694   0.791   4.948   6.685 -0.0500 -0.4937  0.1464
  143OSM    HNF15695   0.794   4.871   6.621 -3.9110  1.0019 -2.2047
  143OSM    C2S15696   0.908   5.006   6.738 -0.1092 -0.3252  0.3106
  143OSM    H2S15697   0.908   5.112   6.707 -0.2805 -0.5204 -0.3688
  143OSM    C3S15698   1.039   4.950   6.671  0.1540  0.6826 -0.3694
  143OSM    H3S15699   1.032   4.840   6.683 -0.8850  0.4404 -2.7129
  143OSM     O315700   1.161   4.997   6.725  0.4317  0.6752  0.1492
  143OSM    HO315701   1.134   5.019   6.814 -1.0604 -0.8648  0.1448
  143OSM    C4S15702   1.033   4.949   6.518 -0.0600  0.5649 -0.3372
  143OSM    H4S15703   0.933   4.916   6.487 -0.2838 -0.2435  1.1589
  143OSM    C5S15704   1.108   5.012   6.430  0.0515 -1.0968 -0.1773
  143OSM    H5S15705   1.193   5.078   6.453  0.3579 -1.2012 -0.9781
  143OSM    C6S15706   1.040   5.025   6.294  0.4897 -0.2107  0.2970
  143OSM    H6S15707   1.009   5.131   6.279 -0.2959 -0.6206 -1.1628
  143OSM    H6T15708   0.954   4.955   6.290  0.7124 -0.6892  2.5788
  143OSM    C7S15709   1.137   4.990   6.179  0.1435  0.1950 -0.5395
  143OSM    H7S15710   1.167   4.883   6.177 -1.4306 -0.2710 -1.9605
  143OSM    H7T15711   1.222   5.061   6.187  1.6502 -1.5574 -0.2832
  143OSM    C8S15712   1.077   5.017   6.045  0.1767 -0.0265  0.0045
  143OSM    H8S15713   0.990   5.085   6.058 -0.9872 -1.7902  2.3596
  143OSM    H8T15714   1.023   4.923   6.020 -0.6139 -0.1429  1.9850
  143OSM    C9S15715   1.184   5.054   5.945 -0.3584 -0.0441 -0.2756
  143OSM    H9S15716   1.239   5.146   5.974  0.5173 -0.7838  0.4284
  143OSM    H9T15717   1.131   5.075   5.849  1.4050 -1.2466 -1.5689
  143OSM   C10S15718   1.291   4.946   5.923 -0.4431 -0.5489 -0.2417
  143OSM   H10S15719   1.253   4.842   5.935  1.4342 -1.0791  1.6786
  143OSM   H10T15720   1.361   4.944   6.009 -0.1813 -0.9252 -0.4606
  143OSM   C11S15721   1.379   4.948   5.790  0.8639 -0.0728  0.0841
  143OSM   H11S15722   1.464   4.881   5.812 -0.3161 -0.6857  3.3119
  143OSM   H11T15723   1.411   5.050   5.760 -0.9913  0.5412  0.0629
  143OSM   C12S15724   1.299   4.884   5.675 -0.2596 -0.1997 -0.2085
  143OSM   H12S15725   1.196   4.924   5.679 -0.9942 -2.0451  0.1572
  143OSM   H12T15726   1.301   4.774   5.691  0.2603 -0.2110 -0.3358
  143OSM   C13S15727   1.368   4.893   5.539  0.1468  0.2108 -0.1673
  143OSM   H13S15728   1.472   4.855   5.552  0.7521  1.2215 -1.6669
  143OSM   H13T15729   1.356   5.000   5.510  1.2992  0.1583 -0.9294
  143OSM   C14S15730   1.295   4.812   5.427  0.4549  0.3403 -0.1790
  143OSM   H14S15731   1.328   4.851   5.329 -2.3692  0.9612 -0.9724
  143OSM   H14T15732   1.186   4.834   5.430  0.1680 -1.0345  2.1631
  143OSM   C15S15733   1.297   4.663   5.438 -0.4515 -0.5284 -0.4980
  143OSM   H15S15734   1.228   4.629   5.518  1.5044 -2.9890  0.3000
  143OSM   H15T15735   1.400   4.639   5.471 -0.8901  0.5935  1.8502
  143OSM   C16S15736   1.268   4.582   5.315 -0.2393  0.0519 -0.0934
  143OSM   H16S15737   1.334   4.620   5.234 -0.8273 -0.0798 -0.6428
  143OSM   H16T15738   1.161   4.603   5.292 -0.3626 -1.2422 -0.8272
  143OSM   C17S15739   1.276   4.425   5.333 -0.2040 -0.0055  0.4275
  143OSM   H17S15740   1.379   4.405   5.370  0.8730  1.8774 -1.3561
  143OSM   H17T15741   1.263   4.384   5.230  2.1998 -1.3618  0.5785
  143OSM   C18S15742   1.176   4.364   5.432 -0.5057  0.0892 -0.7442
  143OSM   H18S15743   1.076   4.352   5.386 -0.6070 -0.9186 -0.3025
  143OSM   H18T15744   1.173   4.415   5.530  2.8589 -0.5952 -0.1707
  143OSM   H18U15745   1.208   4.258   5.446  0.1485 -0.2355 -3.8196
  143OSM    C1F15746   0.666   4.989   6.712  0.4871 -0.3988  0.5442
  143OSM     OF15747   0.646   5.100   6.753 -0.3721 -0.6268  0.5165
  143OSM    C2F15748   0.555   4.895   6.716  0.1493 -0.3163  0.3154
  143OSM    H2F15749   0.498   4.898   6.811  1.1048  0.2626  0.8829
  143OSM    H2G15750   0.602   4.794   6.724 -0.1615 -0.6643 -1.6584
  143OSM    C3F15751   0.461   4.907   6.586 -0.8051 -0.1491 -0.2483
  143OSM    H3F15752   0.397   4.997   6.584 -1.6733 -0.7744 -2.1472
  143OSM    H3G15753   0.397   4.816   6.587  1.8085 -2.2558 -3.0867
  143OSM    C4F15754   0.535   4.912   6.447  0.1623  0.7923 -0.5546
  143OSM    H4F15755   0.574   4.810   6.429 -2.4518 -1.0041  2.7603
  143OSM    H4G15756   0.616   4.987   6.465  0.6014  0.3797 -0.7949
  143OSM    C5F15757   0.430   4.953   6.342 -0.3759 -0.5361 -0.2352
  143OSM    H5F15758   0.402   5.056   6.371 -1.0950 -1.0057  0.8288
  143OSM    H5G15759   0.346   4.881   6.353  0.5168 -1.6982 -0.7243
  143OSM    C6F15760   0.490   4.959   6.197  0.3197  0.4333  0.1635
  143OSM    H6F15761   0.501   4.858   6.152  0.8966  0.4319  0.3132
  143OSM    H6G15762   0.587   5.009   6.216  0.6218 -0.4816  1.1254
  143OSM    C7F15763   0.399   5.034   6.099 -0.2060  0.3791 -0.2838
  143OSM    H7F15764   0.381   5.132   6.147  1.9637  0.5555  0.2903
  143OSM    H7G15765   0.301   4.982   6.093 -0.2221 -0.1130  2.5522
  143OSM    C8F15766   0.458   5.060   5.959  0.0732 -0.8307  0.2649
  143OSM    H8F15767   0.535   5.139   5.972 -1.0378  0.1500  1.0713
  143OSM    H8G15768   0.378   5.097   5.892 -0.2246 -0.7326  0.6669
  143OSM    C9F15769   0.511   4.943   5.891  0.4389 -0.2707 -0.7111
  143OSM    H9F15770   0.614   4.917   5.921 -0.6740 -0.7148  3.1840
  143OSM   C10F15771   0.450   4.861   5.801  0.4812  0.6254  0.4360
  143OSM   H10F15772   0.504   4.776   5.759 -1.4555 -2.3276  3.4099
  143OSM   C11F15773   0.314   4.889   5.744 -0.2582  0.3279 -0.2169
  143OSM   H11F15774   0.269   4.985   5.778  1.7264  0.4242  2.4702
  143OSM   H11G15775   0.244   4.816   5.790  1.6594 -2.0617 -0.8562
  143OSM   C12F15776   0.315   4.887   5.582  0.8449  1.0991  0.3101
  143OSM   H12F15777   0.358   4.985   5.550  0.0057  1.1727 -0.6207
  143OSM   H12G15778   0.209   4.899   5.553  0.9069  0.2430 -0.2998
  143OSM   C13F15779   0.375   4.762   5.519  0.5532  0.0513  0.4696
  143OSM   H13F15780   0.309   4.674   5.535  0.2428  0.3320  0.7475
  143OSM   H13G15781   0.477   4.756   5.562 -0.0910 -1.5977  1.8989
  143OSM   C14F15782   0.386   4.767   5.363  0.5025 -0.1550  0.2007
  143OSM   H14F15783   0.377   4.664   5.322  1.0202  0.0523 -0.4356
  143OSM   H14G15784   0.488   4.800   5.335  0.9127 -0.2316  1.5627
  143OSM   C15F15785   0.268   4.842   5.291  0.9460 -0.2569 -0.5568
  143OSM   H15F15786   0.269   4.946   5.330  4.5154 -0.3149 -0.1845
  143OSM   H15G15787   0.176   4.807   5.342  1.6166 -0.7622  0.3472
  143OSM   C16F15788   0.246   4.817   5.142 -0.6553 -0.3824  0.7579
  143OSM   H16F15789   0.340   4.813   5.084 -1.2565 -0.2313 -0.2418
  143OSM   H16G15790   0.186   4.899   5.098 -0.2329 -1.5402 -2.1972
  143OSM   C17F15791   0.184   4.682   5.111  0.3148 -0.3683  0.0466
  143OSM   H17F15792   0.092   4.656   5.167  0.5921 -1.3541  0.0682
  143OSM   H17G15793   0.253   4.599   5.138 -0.6104 -0.5163  2.1606
  143OSM   C18F15794   0.129   4.677   4.963  0.2442 -0.8072  0.1147
  143OSM   H18F15795   0.207   4.709   4.890  0.3597  0.6880  0.8475
  143OSM   H18G15796   0.041   4.744   4.949  0.8913 -0.4045 -2.7505
  143OSM   H18H15797   0.108   4.568   4.958  1.5848 -1.0898  0.2303
  144OSM      N15798   4.164   4.222   7.654 -0.9756  0.5306  0.0727
  144OSM    C1515799   4.272   4.131   7.619  0.5315 -0.3975  0.3322
  144OSM   H15A15800   4.246   4.066   7.538  1.9777  0.8917 -1.2517
  144OSM   H15B15801   4.288   4.066   7.703 -1.1153  1.5577  2.2909
  144OSM   H15C15802   4.365   4.182   7.599 -0.2457  1.0702  0.2450
  144OSM    C1415803   4.031   4.155   7.654  0.5474  0.2789  0.5110
  144OSM   H14A15804   3.982   4.145   7.559  0.0305 -0.2857  0.8273
  144OSM   H14B15805   3.962   4.213   7.714  0.0867  2.1619 -1.7208
  144OSM   H14C15806   4.033   4.055   7.695 -1.8818 -0.1713 -0.2946
  144OSM    C1315807   4.186   4.276   7.788 -0.0682  0.6034 -0.4832
  144OSM   H13A15808   4.098   4.319   7.832  0.4772  2.1833 -0.8673
  144OSM   H13B15809   4.276   4.336   7.787  1.2454 -1.1320  2.1338
  144OSM   H13C15810   4.208   4.198   7.859  0.0215  0.1452 -1.0129
  144OSM    C1215811   4.166   4.336   7.550 -0.1159  0.0208 -0.4216
  144OSM   H12A15812   4.254   4.398   7.561 -0.1804 -0.0369  0.4953
  144OSM   H12B15813   4.093   4.412   7.573  0.6379  1.2344 -1.8007
  144OSM    C1115814   4.155   4.294   7.401 -0.0487 -0.4930 -1.0752
  144OSM   H11A15815   4.249   4.240   7.377 -1.2589 -3.6314  0.6851
  144OSM   H11B15816   4.153   4.380   7.331 -2.3534 -0.1623 -0.6719
  144OSM      P15817   3.906   4.265   7.347 -0.4383  0.4630  0.1758
  144OSM    O1315818   3.810   4.158   7.394 -0.7990  0.3865  1.1350
  144OSM    O1415819   3.889   4.398   7.411  0.0684 -0.4155 -0.2355
  144OSM    O1115820   3.902   4.284   7.188 -0.2186 -0.4182 -0.0769
  144OSM    O1215821   4.048   4.206   7.371  0.1171  0.3066 -0.0318
  144OSM    C1S15822   4.012   4.233   7.104  0.4858 -0.3987 -0.7145
  144OSM    H1S15823   3.997   4.126   7.079  0.4138  0.0215 -2.6793
  144OSM    H1T15824   4.117   4.264   7.125  0.1191 -0.2872  1.0518
  144OSM     NF15825   4.057   4.239   6.841  0.0384  0.4939 -0.1239
  144OSM    HNF15826   4.115   4.308   6.798  2.0272 -0.4102  0.9751
  144OSM    C2S15827   3.983   4.297   6.957  0.1606 -0.6674 -0.4820
  144OSM    H2S15828   3.878   4.267   6.936  0.2569 -1.4787  0.1481
  144OSM    C3S15829   3.988   4.452   6.964  0.4293  0.1423 -0.2460
  144OSM    H3S15830   4.087   4.488   6.929  0.7367  0.7074  1.1536
  144OSM     O315831   3.971   4.510   7.092 -1.0644  0.4894 -0.3025
  144OSM    HO315832   3.965   4.430   7.144 -1.5670 -0.3261 -1.5590
  144OSM    C4S15833   3.877   4.502   6.876  0.7667  0.2363 -0.0185
  144OSM    H4S15834   3.783   4.445   6.884  1.7676 -1.3632  0.6139
  144OSM    C5S15835   3.893   4.582   6.769 -0.3481  0.2835 -0.1074
  144OSM    H5S15836   3.990   4.631   6.750 -0.9267  1.0420 -1.2798
  144OSM    C6S15837   3.784   4.614   6.679 -0.8314 -0.4286 -0.0302
  144OSM    H6S15838   3.767   4.724   6.684 -1.9275 -0.4901 -1.5766
  144OSM    H6T15839   3.690   4.559   6.700 -1.3750  0.2891 -0.5258
  144OSM    C7S15840   3.810   4.580   6.529  0.6133 -0.5069  0.5203
  144OSM    H7S15841   3.883   4.643   6.475  0.5917 -2.0969 -1.4863
  144OSM    H7T15842   3.717   4.601   6.472 -1.1767 -2.5602  2.4698
  144OSM    C8S15843   3.830   4.428   6.501  0.4661 -0.2437 -0.2828
  144OSM    H8S15844   3.735   4.379   6.531  0.7269 -0.7812 -0.3215
  144OSM    H8T15845   3.920   4.405   6.561  0.4116  2.5910  1.0561
  144OSM    C9S15846   3.862   4.384   6.357 -0.2530  0.3580  0.3965
  144OSM    H9S15847   3.863   4.273   6.351  1.8265  0.0818  3.5925
  144OSM    H9T15848   3.966   4.420   6.342 -0.2021  1.0953  2.3184
  144OSM   C10S15849   3.771   4.448   6.247  0.7487 -0.5548  0.2524
  144OSM   H10S15850   3.779   4.559   6.243  0.5367 -0.5669 -0.9860
  144OSM   H10T15851   3.669   4.413   6.271  1.1633  0.0230  3.3006
  144OSM   C11S15852   3.825   4.409   6.105  0.0221 -0.3985 -0.0734
  144OSM   H11S15853   3.819   4.298   6.106  1.6440 -0.5169 -0.4492
  144OSM   H11T15854   3.929   4.445   6.089 -1.3495  3.2833 -1.7233
  144OSM   C12S15855   3.737   4.457   5.988  0.3618  0.0438  0.8905
  144OSM   H12S15856   3.764   4.561   5.959 -0.4425  0.6612  2.2444
  144OSM   H12T15857   3.634   4.457   6.030  0.0528 -0.1600  0.1575
  144OSM   C13S15858   3.729   4.362   5.869  0.1517 -0.3717 -0.0162
  144OSM   H13S15859   3.708   4.262   5.912  0.4612 -0.2778  0.3666
  144OSM   H13T15860   3.829   4.356   5.820  0.1311 -1.5584  0.0516
  144OSM   C14S15861   3.617   4.400   5.779 -0.2902 -0.0339 -0.5665
  144OSM   H14S15862   3.623   4.510   5.762  0.2387  0.0601  0.1908
  144OSM   H14T15863   3.515   4.385   5.819 -1.6577  0.5433 -3.5751
  144OSM   C15S15864   3.625   4.313   5.652 -0.1336  0.0302 -0.2715
  144OSM   H15S15865   3.597   4.210   5.683 -2.4288  1.1841  1.8181
  144OSM   H15T15866   3.730   4.330   5.620 -0.0803  0.8839  0.3213
  144OSM   C16S15867   3.523   4.357   5.539 -0.2929 -0.2839 -0.2232
  144OSM   H16S15868   3.547   4.466   5.537 -0.4036 -0.2409  0.4306
  144OSM   H16T15869   3.415   4.348   5.563 -0.9421  1.7013 -2.1232
  144OSM   C17S15870   3.551   4.292   5.403  0.4204 -0.3471 -0.2233
  144OSM   H17S15871   3.656   4.306   5.368  0.3029  1.1109 -0.0396
  144OSM   H17T15872   3.497   4.355   5.329 -0.3360  2.8546  2.7998
  144OSM   C18S15873   3.508   4.146   5.405 -1.2205 -0.3157 -0.0864
  144OSM   H18S15874   3.399   4.141   5.386 -0.9729 -0.6494 -1.5739
  144OSM   H18T15875   3.527   4.105   5.507 -0.6328  0.1164 -0.0178
  144OSM   H18U15876   3.577   4.093   5.335  0.7548  3.0151 -0.8662
  144OSM    C1F15877   4.042   4.120   6.798 -0.6384  0.4844 -1.0420
  144OSM     OF15878   3.946   4.058   6.838  0.3635  0.5052 -0.0600
  144OSM    C2F15879   4.137   4.068   6.699 -0.1786  0.7029 -0.5249
  144OSM    H2F15880   4.240   4.086   6.736  0.3983  0.4047 -1.9407
  144OSM    H2G15881   4.123   4.129   6.607 -1.5134 -0.0123 -0.8339
  144OSM    C3F15882   4.115   3.921   6.664 -0.5615 -0.6995 -0.4342
  144OSM    H3F15883   4.013   3.893   6.633 -0.5499 -2.3028  0.8259
  144OSM    H3G15884   4.133   3.853   6.750  0.8178 -0.0232 -0.1562
  144OSM    C4F15885   4.223   3.876   6.558 -0.0448 -0.1191 -0.0160
  144OSM    H4F15886   4.203   3.769   6.534 -0.4292  0.1694 -1.0224
  144OSM    H4G15887   4.324   3.869   6.603  0.4666 -0.9913 -1.2191
  144OSM    C5F15888   4.233   3.963   6.428 -0.3011  0.8007 -0.3839
  144OSM    H5F15889   4.294   4.055   6.443  0.6723 -0.0148  0.8908
  144OSM    H5G15890   4.136   3.986   6.379  0.4032  2.0493 -1.2589
  144OSM    C6F15891   4.316   3.885   6.328 -0.3785  0.2487 -0.1934
  144OSM    H6F15892   4.268   3.786   6.309 -1.3358  0.7288 -0.3389
  144OSM    H6G15893   4.415   3.866   6.374 -0.1693  3.1712  0.7403
  144OSM    C7F15894   4.337   3.964   6.195 -0.2183  0.1837 -0.3265
  144OSM    H7F15895   4.372   4.069   6.212 -1.6644  0.9976 -2.0735
  144OSM    H7G15896   4.238   3.968   6.145 -1.4466 -2.3252  1.6539
  144OSM    C8F15897   4.445   3.902   6.105 -0.8103  0.3349 -0.4059
  144OSM    H8F15898   4.531   3.862   6.162 -0.7150  0.1995 -0.6462
  144OSM    H8G15899   4.474   3.980   6.031  0.0400 -0.7679 -1.2626
  144OSM    C9F15900   4.380   3.776   6.048 -0.2816 -0.3631  0.5591
  144OSM    H9F15901   4.354   3.687   6.108  1.1049 -1.6576 -0.6992
  144OSM   C10F15902   4.359   3.754   5.918 -0.2816 -0.3490  0.0076
  144OSM   H10F15903   4.317   3.660   5.880  2.9402 -0.7455 -3.1568
  144OSM   C11F15904   4.382   3.855   5.808 -0.1998 -0.1808  0.6551
  144OSM   H11F15905   4.341   3.954   5.837  1.1815  1.4145 -2.3375
  144OSM   H11G15906   4.321   3.815   5.724 -1.3276  2.0310  0.3634
  144OSM   C12F15907   4.523   3.875   5.749 -0.7391  0.0965 -0.1920
  144OSM   H12F15908   4.551   3.784   5.692 -0.1292 -0.3673  0.8105
  144OSM   H12G15909   4.599   3.900   5.827 -0.8145 -0.5636  0.1010
  144OSM   C13F15910   4.531   3.982   5.640  0.0648  0.2608  0.9788
  144OSM   H13F15911   4.466   4.065   5.676  0.6991  0.4583  1.6781
  144OSM   H13G15912   4.484   3.941   5.548 -0.4582  0.7801  1.0093
  144OSM   C14F15913   4.675   4.035   5.609 -0.2865  0.6071 -0.3842
  144OSM   H14F15914   4.733   3.942   5.591 -0.8607 -0.2409  1.8423
  144OSM   H14G15915   4.727   4.079   5.696  0.8410 -0.7894 -0.3107
  144OSM   C15F15916   4.694   4.145   5.491 -0.1026  0.1208  0.6352
  144OSM   H15F15917   4.621   4.121   5.410 -0.1867 -3.2172  1.5726
  144OSM   H15G15918   4.796   4.144   5.449 -0.4892 -2.2679 -0.4020
  144OSM   C16F15919   4.655   4.279   5.543  0.2529 -0.0198  1.0335
  144OSM   H16F15920   4.711   4.351   5.480  0.1382  0.2315  1.2160
  144OSM   H16G15921   4.694   4.294   5.646  1.6804  1.5682  0.2930
  144OSM   C17F15922   4.501   4.317   5.531 -0.6967  0.0333  1.2349
  144OSM   H17F15923   4.459   4.262   5.617 -0.6271 -2.4358 -0.2154
  144OSM   H17G15924   4.459   4.278   5.436 -0.4949 -0.3619  1.3081
  144OSM   C18F15925   4.472   4.466   5.553  0.6060  0.2158 -0.3928
  144OSM   H18F15926   4.554   4.524   5.505  1.6066 -0.5755  0.2979
  144OSM   H18G15927   4.490   4.491   5.660  1.3479  1.4217 -0.7701
  144OSM   H18H15928   4.370   4.497   5.523 -1.0024 -1.4817  2.8784
  145OSM      N15929   5.370   0.578   7.316  0.0753  0.3454 -0.8790
  145OSM    C1515930   5.328   0.708   7.388  0.0699 -0.5074  0.4784
  145OSM   H15A15931   5.373   0.800   7.354 -2.4764  1.5046  2.2427
  145OSM   H15B15932   5.356   0.707   7.492 -0.8276  1.5961  0.7750
  145OSM   H15C15933   5.222   0.726   7.386  0.2705  0.7221 -0.2192
  145OSM    C1415934   5.320   0.462   7.405  0.4045  0.7987  0.0351
  145OSM   H14A15935   5.214   0.457   7.387  0.1324  3.0614  0.6636
  145OSM   H14B15936   5.342   0.486   7.508  1.2287 -1.1572  0.3608
  145OSM   H14C15937   5.362   0.365   7.383 -3.3163 -1.3422  1.4022
  145OSM    C1315938   5.321   0.574   7.177 -0.4051  0.5835  0.0721
  145OSM   H13A15939   5.348   0.479   7.134  0.3828  0.9817 -0.3389
  145OSM   H13B15940   5.369   0.654   7.124  0.1628  1.4651  1.8478
  145OSM   H13C15941   5.213   0.583   7.180 -0.6325 -1.7395  1.5495
  145OSM    C1215942   5.520   0.571   7.311 -0.0455 -0.4565  0.1357
  145OSM   H12A15943   5.538   0.550   7.416 -0.9981 -1.2158  0.1560
  145OSM   H12B15944   5.550   0.667   7.273 -1.8166  1.0954  2.3282
  145OSM    C1115945   5.591   0.454   7.237 -0.4706  0.5402 -0.1670
  145OSM   H11A15946   5.698   0.455   7.267 -0.4178  1.9553 -0.2965
  145OSM   H11B15947   5.594   0.488   7.131 -1.5031 -0.9007 -0.6788
  145OSM      P15948   5.613   0.196   7.230 -0.1023  0.3828  0.0166
  145OSM    O1315949   5.754   0.205   7.275 -0.7400  0.1686  0.1690
  145OSM    O1415950   5.536   0.075   7.279  0.6009 -0.0484  0.4067
  145OSM    O1115951   5.612   0.199   7.073  0.4358 -0.5613 -1.3302
  145OSM    O1215952   5.529   0.325   7.266 -0.0050  0.2984 -0.4262
  145OSM    C1S15953   5.565   0.088   7.003 -0.4801  0.6515  0.2420
  145OSM    H1S15954   5.454   0.081   6.992 -0.5726  0.2808  1.2635
  145OSM    H1T15955   5.603  -0.005   7.051 -1.4775  0.5855  0.9295
  145OSM     NF15956   5.536   0.016   6.767 -0.1288 -0.4383 -0.1819
  145OSM    HNF15957   5.563  -0.079   6.752  1.2560 -0.2076  0.6988
  145OSM    C2S15958   5.626   0.088   6.856 -0.7544 -0.7006  0.3455
  145OSM    H2S15959   5.630   0.187   6.805 -0.8512 -1.4750 -1.2480
  145OSM    C3S15960   5.778   0.047   6.865  0.4006 -0.2726  0.0444
  145OSM    H3S15961   5.802  -0.045   6.923  2.5341  0.0357 -0.2789
  145OSM     O315962   5.850   0.156   6.918 -0.7262  0.2436 -0.3673
  145OSM    HO315963   5.781   0.221   6.931 -1.9561 -1.2355  0.9078
  145OSM    C4S15964   5.822   0.043   6.725 -0.3146  0.0486 -0.4509
  145OSM    H4S15965   5.871   0.132   6.682 -0.4027  0.2537 -0.1326
  145OSM    C5S15966   5.822  -0.057   6.645 -0.5124  0.2916  0.6330
  145OSM    H5S15967   5.785  -0.156   6.675 -0.2807  0.0222  0.0626
  145OSM    C6S15968   5.884  -0.060   6.505 -0.9499  0.6500  0.0550
  145OSM    H6S15969   5.984  -0.108   6.510 -0.6408  1.3787  1.2890
  145OSM    H6T15970   5.887   0.037   6.450  2.4712  1.2669  1.1121
  145OSM    C7S15971   5.797  -0.147   6.408 -0.8854  0.1943 -0.1200
  145OSM    H7S15972   5.697  -0.101   6.404 -1.3887 -0.2024  3.7695
  145OSM    H7T15973   5.779  -0.255   6.429 -0.0213 -0.1167 -0.9194
  145OSM    C8S15974   5.862  -0.149   6.270  0.4118 -0.5226 -0.4673
  145OSM    H8S15975   5.956  -0.205   6.288 -0.0919 -1.4568 -0.6600
  145OSM    H8T15976   5.890  -0.045   6.245 -0.9073 -0.3650 -1.3705
  145OSM    C9S15977   5.781  -0.219   6.164 -0.5346 -0.0294  0.0977
  145OSM    H9S15978   5.692  -0.157   6.139 -1.0682 -1.2394 -1.1212
  145OSM    H9T15979   5.764  -0.319   6.208  2.5168 -0.1549  1.2427
  145OSM   C10S15980   5.864  -0.229   6.029 -0.0875  0.0114  0.2043
  145OSM   H10S15981   5.974  -0.234   6.046  0.1556 -1.8467 -1.5055
  145OSM   H10T15982   5.857  -0.126   5.987 -1.6309 -0.0164  0.3353
  145OSM   C11S15983   5.800  -0.329   5.925 -0.6039 -0.0555  0.4005
  145OSM   H11S15984   5.692  -0.305   5.918 -0.2126  1.4661 -1.0883
  145OSM   H11T15985   5.810  -0.432   5.966 -0.4517 -0.2639 -0.1467
  145OSM   C12S15986   5.882  -0.328   5.798 -0.0178  0.6731  0.1470
  145OSM   H12S15987   5.990  -0.345   5.819  0.1268 -1.3501 -1.7776
  145OSM   H12T15988   5.870  -0.231   5.745  0.6846 -1.3467 -4.1530
  145OSM   C13S15989   5.858  -0.439   5.701  0.4346  1.1503  0.3714
  145OSM   H13S15990   5.748  -0.450   5.686  0.6953 -0.3209 -0.6945
  145OSM   H13T15991   5.880  -0.540   5.741 -1.0202  1.0092  0.8709
  145OSM   C14S15992   5.929  -0.425   5.567 -0.2821 -0.2916 -0.8343
  145OSM   H14S15993   6.039  -0.410   5.569 -0.0469 -1.7569 -1.3626
  145OSM   H14T15994   5.893  -0.332   5.517 -1.2873 -0.3646 -0.2843
  145OSM   C15S15995   5.911  -0.548   5.471  0.0653 -0.1740  0.2999
  145OSM   H15S15996   5.885  -0.644   5.522  0.7177 -1.1311 -1.0891
  145OSM   H15T15997   6.002  -0.566   5.411 -0.1950  2.1306 -0.8828
  145OSM   C16S15998   5.794  -0.505   5.370 -0.1760  0.4677  0.3124
  145OSM   H16S15999   5.828  -0.416   5.313  0.9122 -0.1145  0.0370
  145OSM   H16T16000   5.701  -0.484   5.427 -1.2655  1.7757 -1.7875
  145OSM   C17S16001   5.759  -0.612   5.267 -0.7141  0.1093  0.1606
  145OSM   H17S16002   5.697  -0.694   5.311  0.4796 -0.9391 -0.0401
  145OSM   H17T16003   5.844  -0.669   5.225 -0.5732 -0.2935  0.9684
  145OSM   C18S16004   5.685  -0.550   5.155  0.2513  0.2020  0.1271
  145OSM   H18S16005   5.585  -0.523   5.195  0.3586 -1.3296  1.5325
  145OSM   H18T16006   5.671  -0.614   5.065  2.9772 -0.4207  0.0580
  145OSM   H18U16007   5.733  -0.458   5.116  0.4583  0.2013  0.3755
  145OSM    C1F16008   5.417   0.078   6.724 -0.5660  0.0332 -0.1771
  145OSM     OF16009   5.380   0.195   6.747 -0.0684 -0.1292  0.0676
  145OSM    C2F16010   5.342  -0.006   6.625  0.0672  0.5974  0.2198
  145OSM    H2F16011   5.239   0.025   6.595  0.3685 -0.7094 -2.5263
  145OSM    H2G16012   5.327  -0.103   6.676 -0.9897 -0.1862 -1.4636
  145OSM    C3F16013   5.409  -0.015   6.483 -0.0828 -0.2716  0.5158
  145OSM    H3F16014   5.509  -0.061   6.505 -0.2565 -2.2278 -2.2688
  145OSM    H3G16015   5.445   0.081   6.441 -0.8504 -0.5686 -0.8735
  145OSM    C4F16016   5.325  -0.081   6.369  0.7711 -0.3683 -0.7033
  145OSM    H4F16017   5.244  -0.006   6.351  2.8003  2.5465  1.4080
  145OSM    H4G16018   5.277  -0.176   6.398  0.8081  0.4562  2.3846
  145OSM    C5F16019   5.411  -0.106   6.247  0.1648 -0.3072  0.2109
  145OSM    H5F16020   5.513  -0.137   6.278 -0.2458 -1.9666  0.0166
  145OSM    H5G16021   5.409  -0.004   6.205 -1.4277 -1.3756 -2.5679
  145OSM    C6F16022   5.354  -0.192   6.138 -0.3737  0.0667 -0.2511
  145OSM    H6F16023   5.243  -0.195   6.131 -0.3701 -1.3823  0.1256
  145OSM    H6G16024   5.370  -0.295   6.176  0.1790 -0.2162 -1.1849
  145OSM    C7F16025   5.417  -0.161   5.998 -0.1665  0.8781  0.3438
  145OSM    H7F16026   5.525  -0.184   6.013  0.1171  2.8303  1.7745
  145OSM    H7G16027   5.402  -0.052   5.979  1.9159  1.2513  0.4887
  145OSM    C8F16028   5.358  -0.251   5.889  0.3522 -0.0393  0.0519
  145OSM    H8F16029   5.247  -0.255   5.901  0.1167  1.4678 -1.3399
  145OSM    H8G16030   5.395  -0.354   5.905  1.0543  0.0239 -1.0939
  145OSM    C9F16031   5.394  -0.220   5.748 -0.2992 -0.7654 -0.6052
  145OSM    H9F16032   5.412  -0.112   5.735 -0.4917 -0.5535  0.7297
  145OSM   C10F16033   5.378  -0.309   5.649  0.3785 -0.0031  0.0287
  145OSM   H10F16034   5.401  -0.284   5.544 -1.2532  2.0732  0.1102
  145OSM   C11F16035   5.329  -0.446   5.675  0.2691 -0.2885  0.1421
  145OSM   H11F16036   5.267  -0.451   5.767  0.4134 -1.1460  0.1922
  145OSM   H11G16037   5.418  -0.508   5.696  0.2107 -0.5749 -0.4315
  145OSM   C12F16038   5.251  -0.509   5.554  0.1853  0.2034  0.3796
  145OSM   H12F16039   5.227  -0.611   5.591 -0.5683  0.6240  1.0757
  145OSM   H12G16040   5.304  -0.504   5.456 -0.4190 -0.4608  0.0130
  145OSM   C13F16041   5.117  -0.438   5.529  0.6988  0.0599  0.5690
  145OSM   H13F16042   5.133  -0.354   5.458  2.2016 -1.1584 -0.6242
  145OSM   H13G16043   5.077  -0.391   5.621 -0.8407  0.7130 -0.3956
  145OSM   C14F16044   5.017  -0.524   5.458  0.6131  0.2238  0.0294
  145OSM   H14F16045   4.970  -0.600   5.524 -0.6601  1.8727  1.1214
  145OSM   H14G16046   5.068  -0.582   5.379  0.7070  1.4292 -0.8328
  145OSM   C15F16047   4.906  -0.423   5.406 -0.6548  0.0651  0.3864
  145OSM   H15F16048   4.941  -0.349   5.332  0.6306 -0.5267  0.3907
  145OSM   H15G16049   4.872  -0.368   5.497  0.9111  2.0985 -0.1939
  145OSM   C16F16050   4.801  -0.509   5.330  0.1705 -0.4182 -0.1071
  145OSM   H16F16051   4.805  -0.615   5.363 -3.5094 -0.5659  0.3591
  145OSM   H16G16052   4.816  -0.496   5.221 -0.6969 -1.2120 -0.3336
  145OSM   C17F16053   4.658  -0.462   5.361  0.2350  0.3319 -0.3036
  145OSM   H17F16054   4.638  -0.477   5.469  0.2900  1.1406 -0.1774
  145OSM   H17G16055   4.587  -0.533   5.313 -1.7486  1.0438  1.4009
  145OSM   C18F16056   4.618  -0.323   5.326 -0.3350 -0.5113  0.1372
  145OSM   H18F16057   4.680  -0.247   5.379  1.5080 -0.1176 -2.3989
  145OSM   H18G16058   4.510  -0.317   5.351  0.1890 -2.1585  3.4403
  145OSM   H18H16059   4.640  -0.303   5.219 -0.3983  0.0739  0.2321
  146OSM      N16060   4.711   1.095   7.364  0.6094  0.3486  0.1296
  146OSM    C1516061   4.825   1.157   7.297 -0.3274 -0.8809  0.1646
  146OSM   H15A16062   4.899   1.180   7.372 -0.0102  0.8124 -0.6381
  146OSM   H15B16063   4.793   1.251   7.255  1.0837 -0.7829 -0.7511
  146OSM   H15C16064   4.865   1.097   7.218 -1.4031 -0.1778 -0.9555
  146OSM    C1416065   4.765   1.012   7.467  0.3856 -0.2584  0.0066
  146OSM   H14A16066   4.825   0.932   7.426  0.3965  0.2301 -0.9650
  146OSM   H14B16067   4.682   0.976   7.526  0.3630  0.0038  0.1360
  146OSM   H14C16068   4.828   1.071   7.531  1.2457  1.9713 -2.6730
  146OSM    C1316069   4.627   1.200   7.424 -0.6353  0.1076 -0.1697
  146OSM   H13A16070   4.671   1.239   7.515  2.2473 -0.4874 -1.2027
  146OSM   H13B16071   4.528   1.166   7.447 -0.5497 -0.6101 -0.8185
  146OSM   H13C16072   4.623   1.286   7.358  0.3668  0.3427  0.0484
  146OSM    C1216073   4.625   1.019   7.267  0.6800 -0.1301  0.3935
  146OSM   H12A16074   4.590   1.085   7.189  0.0986 -1.7084 -0.7259
  146OSM   H12B16075   4.545   0.977   7.327  1.8749 -2.7041  0.3210
  146OSM    C1116076   4.704   0.911   7.191  0.5011  0.2677  0.0512
  146OSM   H11A16077   4.779   0.959   7.125  0.3518 -0.1531 -0.4347
  146OSM   H11B16078   4.636   0.863   7.117  2.1445  2.3337 -3.0105
  146OSM      P16079   4.908   0.766   7.241 -0.0858  0.3675  0.1195
  146OSM    O1316080   5.004   0.854   7.311 -0.0175 -0.0984  0.3110
  146OSM    O1416081   4.916   0.622   7.267  0.2984 -0.2416 -0.4969
  146OSM    O1116082   4.934   0.779   7.086  0.4035 -0.1417  0.0238
  146OSM    O1216083   4.762   0.806   7.275 -0.1455 -0.0643 -0.0989
  146OSM    C1S16084   4.884   0.684   6.986 -0.5104  0.3523  0.7234
  146OSM    H1S16085   4.775   0.702   6.975 -0.7185 -0.5448  1.2332
  146OSM    H1T16086   4.908   0.579   7.011 -1.4583 -0.2532 -0.7450
  146OSM     NF16087   4.866   0.611   6.750  0.8416  0.3837 -0.0511
  146OSM    HNF16088   4.913   0.532   6.713 -1.6230 -1.7236  0.9868
  146OSM    C2S16089   4.948   0.689   6.841 -0.4032  0.7029 -0.5434
  146OSM    H2S16090   4.947   0.795   6.811  3.6054  0.2354 -3.0633
  146OSM    C3S16091   5.104   0.650   6.842  0.9005 -0.6683  0.1108
  146OSM    H3S16092   5.105   0.547   6.883 -0.3284 -1.5526 -1.9230
  146OSM     O316093   5.175   0.732   6.930 -0.6485 -0.0289 -0.1439
  146OSM    HO316094   5.112   0.782   6.982 -0.2996 -0.7531  0.9992
  146OSM    C4S16095   5.174   0.658   6.710  0.3268 -0.3256  0.7358
  146OSM    H4S16096   5.164   0.757   6.665 -4.3277 -0.7471  0.3616
  146OSM    C5S16097   5.246   0.551   6.661  0.4041  0.0586  0.1077
  146OSM    H5S16098   5.257   0.466   6.730 -1.3642 -0.7410 -0.5149
  146OSM    C6S16099   5.334   0.532   6.537  0.7983  0.4337 -1.1244
  146OSM    H6S16100   5.344   0.424   6.511  1.1128  0.1941 -0.0630
  146OSM    H6T16101   5.436   0.568   6.560  1.6952 -2.1423 -0.7338
  146OSM    C7S16102   5.270   0.613   6.421 -0.3046  0.0916 -0.6155
  146OSM    H7S16103   5.264   0.722   6.443  0.2297  0.3483 -1.6883
  146OSM    H7T16104   5.167   0.577   6.397 -1.4225  2.8162 -0.2726
  146OSM    C8S16105   5.345   0.602   6.293 -0.0827  0.2164  0.3773
  146OSM    H8S16106   5.368   0.494   6.280 -3.0820 -0.2821 -1.8256
  146OSM    H8T16107   5.441   0.657   6.302 -1.1369  2.6212 -1.8268
  146OSM    C9S16108   5.269   0.653   6.170  0.2519  0.0151  0.1529
  146OSM    H9S16109   5.245   0.760   6.189 -0.4462 -0.1038 -0.0401
  146OSM    H9T16110   5.169   0.605   6.174  0.1984 -0.2385 -2.4841
  146OSM   C10S16111   5.342   0.637   6.041 -0.5326 -0.5105 -0.7119
  146OSM   H10S16112   5.377   0.532   6.029 -1.0356 -0.4544 -3.1524
  146OSM   H10T16113   5.430   0.704   6.050  0.2084 -1.6273  0.7737
  146OSM   C11S16114   5.265   0.675   5.920  0.0135 -0.0539  0.6346
  146OSM   H11S16115   5.232   0.781   5.916 -0.0788 -0.1145 -2.1368
  146OSM   H11T16116   5.172   0.615   5.909  1.3223 -1.7449 -2.5318
  146OSM   C12S16117   5.341   0.648   5.790  0.2008  0.4032  0.4711
  146OSM   H12S16118   5.390   0.549   5.793  0.6868  0.5783 -0.8252
  146OSM   H12T16119   5.428   0.716   5.778  0.3073  0.1994  0.0734
  146OSM   C13S16120   5.255   0.675   5.660  0.3883  0.4399 -0.3478
  146OSM   H13S16121   5.205   0.774   5.666 -2.4934 -0.8453 -1.0247
  146OSM   H13T16122   5.171   0.602   5.663  0.3210  0.4462 -1.6264
  146OSM   C14S16123   5.336   0.662   5.538 -0.6345 -0.0179 -0.1252
  146OSM   H14S16124   5.362   0.554   5.535  0.7398  0.2898  0.2491
  146OSM   H14T16125   5.433   0.715   5.546 -0.1516 -0.9234  0.1212
  146OSM   C15S16126   5.271   0.694   5.406  0.2143  0.0369 -0.3988
  146OSM   H15S16127   5.278   0.804   5.395  1.1641  0.2818  1.9912
  146OSM   H15T16128   5.162   0.672   5.408  0.2597 -0.6406 -2.6996
  146OSM   C16S16129   5.330   0.609   5.288 -0.2577 -0.4000 -0.1166
  146OSM   H16S16130   5.440   0.606   5.296 -0.2911  0.8195  1.1061
  146OSM   H16T16131   5.312   0.663   5.192  0.9702  0.0174 -0.1207
  146OSM   C17S16132   5.285   0.464   5.272 -0.5965  0.0914  0.1218
  146OSM   H17S16133   5.174   0.458   5.271 -0.6236 -0.5434  2.0731
  146OSM   H17T16134   5.318   0.415   5.366  0.9122 -0.3522 -0.5947
  146OSM   C18S16135   5.353   0.402   5.149 -0.4441 -0.1169 -0.6471
  146OSM   H18S16136   5.348   0.464   5.057  3.8635 -3.0781 -3.2688
  146OSM   H18T16137   5.306   0.305   5.122 -0.9123  0.4984 -2.1670
  146OSM   H18U16138   5.464   0.399   5.163 -0.5891  0.8622  0.8926
  146OSM    C1F16139   4.735   0.630   6.726 -0.7300 -0.0202  0.4462
  146OSM     OF16140   4.677   0.734   6.765  0.9021  0.0608  0.3464
  146OSM    C2F16141   4.664   0.525   6.647  0.0474  0.1737 -0.1325
  146OSM    H2F16142   4.681   0.427   6.697  2.2692  1.2652  1.4534
  146OSM    H2G16143   4.721   0.521   6.551 -0.8183  0.3217 -0.6633
  146OSM    C3F16144   4.520   0.556   6.612 -0.1338  0.0662 -0.5477
  146OSM    H3F16145   4.494   0.655   6.568  0.8967 -0.9435 -3.7849
  146OSM    H3G16146   4.465   0.547   6.708 -1.7860  1.5459 -1.2864
  146OSM    C4F16147   4.448   0.466   6.509  0.0336 -0.2722  0.2856
  146OSM    H4F16148   4.460   0.376   6.573  0.4036  0.3125  1.0475
  146OSM    H4G16149   4.503   0.458   6.413 -1.9743  1.0077 -1.0368
  146OSM    C5F16150   4.308   0.514   6.485  0.6630  0.1834  0.5844
  146OSM    H5F16151   4.266   0.554   6.580 -0.3288 -0.0198  0.2466
  146OSM    H5G16152   4.223   0.444   6.466  2.2523 -2.0126  1.2605
  146OSM    C6F16153   4.296   0.623   6.370  0.0394 -0.1941  0.1878
  146OSM    H6F16154   4.359   0.713   6.387  1.3068 -1.1422  0.6115
  146OSM    H6G16155   4.194   0.666   6.386  0.7783  1.5440  0.4911
  146OSM    C7F16156   4.294   0.572   6.217 -0.1796  0.2182 -0.6421
  146OSM    H7F16157   4.207   0.505   6.202 -0.6806  0.3727  1.2327
  146OSM    H7G16158   4.391   0.521   6.201  0.4681  0.8886  0.9216
  146OSM    C8F16159   4.302   0.681   6.113  0.5145 -0.0143  0.0885
  146OSM    H8F16160   4.330   0.643   6.013 -0.4189 -1.3160  0.2965
  146OSM    H8G16161   4.388   0.748   6.136  0.3819  0.6349 -1.2130
  146OSM    C9F16162   4.178   0.762   6.104  0.1220  0.5340 -0.9396
  146OSM    H9F16163   4.182   0.854   6.164  0.3846  0.4778 -0.8665
  146OSM   C10F16164   4.076   0.746   6.019  0.4350  0.0176 -0.2425
  146OSM   H10F16165   3.998   0.823   6.011 -1.4282 -1.7924 -0.3913
  146OSM   C11F16166   4.055   0.627   5.923  0.0962  0.1966  0.4107
  146OSM   H11F16167   3.958   0.579   5.950 -1.1124  0.8594 -2.3971
  146OSM   H11G16168   4.134   0.550   5.935  0.0625  0.0778 -0.1112
  146OSM   C12F16169   4.048   0.670   5.771  0.2661  0.0054  0.3948
  146OSM   H12F16170   3.958   0.730   5.746 -0.1178 -0.4969  0.5506
  146OSM   H12G16171   4.032   0.574   5.717 -1.7873 -0.5932  1.9263
  146OSM   C13F16172   4.179   0.725   5.709 -0.6391  0.4244  0.1611
  146OSM   H13F16173   4.261   0.652   5.728 -1.6176 -1.3673 -1.9326
  146OSM   H13G16174   4.191   0.833   5.730  0.7438  0.7406 -1.9220
  146OSM   C14F16175   4.166   0.737   5.557  0.1077 -0.4507 -0.0844
  146OSM   H14F16176   4.265   0.769   5.520 -0.3097 -0.4482 -1.2464
  146OSM   H14G16177   4.131   0.640   5.514  0.1175 -1.3132  1.7764
  146OSM   C15F16178   4.077   0.857   5.520  0.1829  0.1203 -0.2498
  146OSM   H15F16179   4.118   0.946   5.573  2.2077 -0.4409 -0.7700
  146OSM   H15G16180   3.976   0.849   5.565  0.7537  0.1796  1.0871
  146OSM   C16F16181   4.079   0.877   5.365 -0.4966 -0.0634  0.3767
  146OSM   H16F16182   4.019   0.794   5.321 -2.9579  1.0025  1.5276
  146OSM   H16G16183   4.187   0.872   5.340 -0.6283  2.5169 -1.1613
  146OSM   C17F16184   4.032   1.013   5.321 -0.9974 -0.3624 -0.1813
  146OSM   H17F16185   4.097   1.080   5.381 -1.2731 -0.3591  0.1193
  146OSM   H17G16186   3.924   1.034   5.337 -0.8022 -1.1295  2.8529
  146OSM   C18F16187   4.058   1.029   5.168 -0.4247 -0.1402 -0.5577
  146OSM   H18F16188   4.026   1.131   5.138 -2.5978 -0.7810 -0.5848
  146OSM   H18G16189   4.009   0.952   5.104  0.0080 -0.2420 -0.7677
  146OSM   H18H16190   4.165   1.002   5.164 -0.7360 -1.5370 -0.0213
  147OSM      N16191   1.935   4.411   2.169  0.1046 -0.4426 -0.3849
  147OSM    C1516192   1.992   4.312   2.073  0.2718  0.4415  0.1305
  147OSM   H15A16193   2.085   4.288   2.122  0.2927  0.1392 -0.0551
  147OSM   H15B16194   2.012   4.354   1.975  0.6014 -0.1389 -0.0569
  147OSM   H15C16195   1.942   4.217   2.070  0.4242  0.3598  0.1860
  147OSM    C1416196   2.008   4.538   2.155 -0.2533  1.0544  0.2967
  147OSM   H14A16197   1.974   4.588   2.065  1.4585  2.1384  0.2006
  147OSM   H14B16198   2.112   4.510   2.146 -1.2061 -2.8807 -0.3354
  147OSM   H14C16199   1.993   4.603   2.240 -0.9015  2.8182 -1.0958
  147OSM    C1316200   1.793   4.438   2.139  0.4881 -0.3994  0.4973
  147OSM   H13A16201   1.723   4.360   2.166 -3.1199  2.5039  0.4084
  147OSM   H13B16202   1.775   4.459   2.034 -4.2208 -0.3202  1.0912
  147OSM   H13C16203   1.761   4.521   2.200 -3.2790 -1.4963  0.3037
  147OSM    C1216204   1.950   4.363   2.310  0.2140 -0.3107 -0.7230
  147OSM   H12A16205   1.906   4.432   2.380  1.7041  1.8527 -1.7959
  147OSM   H12B16206   2.055   4.344   2.325  0.2724 -0.9327 -1.8051
  147OSM    C1116207   1.896   4.222   2.340 -0.9191 -0.2620 -1.1644
  147OSM   H11A16208   1.797   4.213   2.291 -2.0880 -0.3295  1.0919
  147OSM   H11B16209   1.872   4.214   2.448  1.3358  0.0162 -0.5827
  147OSM      P16210   2.094   4.048   2.390  0.5701  0.2473 -0.4559
  147OSM    O1316211   2.178   3.974   2.295 -0.3969 -0.7481 -0.7062
  147OSM    O1416212   2.157   4.147   2.482 -0.5046 -0.0106  0.3689
  147OSM    O1116213   2.016   3.947   2.482  0.7302  0.0698 -0.2286
  147OSM    O1216214   1.977   4.113   2.305 -0.4689  0.3250  0.4255
  147OSM    C1S16215   2.075   3.884   2.594  0.2596 -0.1638 -0.1941
  147OSM    H1S16216   2.186   3.876   2.592  0.3727 -1.8411  3.9211
  147OSM    H1T16217   2.035   3.781   2.587 -0.8105  0.3064 -1.2919
  147OSM     NF16218   2.115   3.885   2.840 -0.8287 -0.9528 -0.7861
  147OSM    HNF16219   2.081   3.809   2.895  0.5749 -0.6854  0.5091
  147OSM    C2S16220   2.043   3.948   2.736 -0.1669 -0.0651  0.1566
  147OSM    H2S16221   2.073   4.055   2.726 -1.6772  0.2950 -0.7647
  147OSM    C3S16222   1.889   3.949   2.760 -0.3602 -0.1362 -0.1297
  147OSM    H3S16223   1.853   3.844   2.764 -2.5506  0.6159  1.3237
  147OSM     O316224   1.814   4.016   2.654 -0.7776 -0.4533 -0.2719
  147OSM    HO316225   1.881   4.024   2.585 -1.0018 -0.6391 -0.5135
  147OSM    C4S16226   1.854   4.012   2.890  0.2618 -0.3260  0.3386
  147OSM    H4S16227   1.829   3.938   2.968  4.3019 -3.2334 -0.7940
  147OSM    C5S16228   1.841   4.144   2.915 -0.5768  0.1534  0.0469
  147OSM    H5S16229   1.878   4.209   2.834 -0.4601 -1.6756 -1.4361
  147OSM    C6S16230   1.798   4.221   3.045 -0.1177  0.0642 -0.1016
  147OSM    H6S16231   1.693   4.254   3.037  0.0996  0.5715 -1.1264
  147OSM    H6T16232   1.869   4.305   3.062 -0.1929  0.1689 -0.2952
  147OSM    C7S16233   1.806   4.134   3.170  0.4465 -0.4828  0.4159
  147OSM    H7S16234   1.910   4.094   3.177  0.7216  0.2292  0.5036
  147OSM    H7T16235   1.735   4.049   3.160 -0.8386  0.7685 -1.9484
  147OSM    C8S16236   1.778   4.218   3.299 -0.1675 -0.2909  0.4415
  147OSM    H8S16237   1.680   4.264   3.275  0.1051 -0.1711 -0.4727
  147OSM    H8T16238   1.862   4.288   3.319  0.9690 -1.1555 -1.0614
  147OSM    C9S16239   1.776   4.125   3.417  0.2626  0.2697  0.5320
  147OSM    H9S16240   1.853   4.050   3.394 -0.0303  0.2521 -0.4354
  147OSM    H9T16241   1.681   4.067   3.415  0.3915  0.0878 -0.6897
  147OSM   C10S16242   1.793   4.201   3.549  0.4358  1.1643 -0.3658
  147OSM   H10S16243   1.718   4.283   3.553  1.5309  2.1876 -0.1483
  147OSM   H10T16244   1.889   4.255   3.533  1.3671 -0.8239 -1.8383
  147OSM   C11S16245   1.787   4.104   3.669 -0.1085  0.4873  0.4221
  147OSM   H11S16246   1.856   4.018   3.655 -1.7498 -1.0303  1.1872
  147OSM   H11T16247   1.684   4.064   3.677  0.4653 -0.9691  0.9101
  147OSM   C12S16248   1.819   4.162   3.809  0.0347  0.1140 -0.1415
  147OSM   H12S16249   1.757   4.251   3.834 -0.2716  0.2608 -1.3552
  147OSM   H12T16250   1.923   4.201   3.809 -0.2135  0.9207 -2.5021
  147OSM   C13S16251   1.815   4.064   3.936  0.9377 -0.3580 -0.2421
  147OSM   H13S16252   1.852   4.111   4.029  1.4053  1.4868 -1.3031
  147OSM   H13T16253   1.878   3.979   3.902  0.5204 -0.4550 -0.7874
  147OSM   C14S16254   1.675   4.006   3.962  0.1436 -0.0145 -0.5280
  147OSM   H14S16255   1.665   3.926   3.885  0.2096  2.0753 -2.8402
  147OSM   H14T16256   1.596   4.077   3.930 -1.5165 -0.7606  1.6994
  147OSM   C15S16257   1.654   3.942   4.100  0.2112 -0.0167 -0.9412
  147OSM   H15S16258   1.753   3.893   4.105  1.3933  2.1428 -1.7957
  147OSM   H15T16259   1.571   3.869   4.083 -0.3348  0.0634  1.1498
  147OSM   C16S16260   1.633   4.024   4.226  0.5535 -0.4138 -0.7357
  147OSM   H16S16261   1.546   4.091   4.213  0.4969 -0.2004  0.6299
  147OSM   H16T16262   1.723   4.090   4.229  0.7755 -0.6411 -1.9390
  147OSM   C17S16263   1.609   3.942   4.358 -0.0737  0.1792  0.7153
  147OSM   H17S16264   1.694   3.874   4.378 -1.0775 -0.4637  3.1753
  147OSM   H17T16265   1.522   3.872   4.348  0.4333 -0.2788 -0.8217
  147OSM   C18S16266   1.580   4.033   4.482 -0.5015 -0.0103 -0.5311
  147OSM   H18S16267   1.676   4.082   4.507  1.0465 -2.3467 -1.6210
  147OSM   H18T16268   1.553   3.971   4.570 -0.6129  0.4146 -0.2588
  147OSM   H18U16269   1.510   4.116   4.458 -0.8565 -0.5533 -1.4259
  147OSM    C1F16270   2.242   3.918   2.852  0.4146 -0.5278 -0.2592
  147OSM     OF16271   2.291   4.008   2.782  0.5019 -0.0743  0.2987
  147OSM    C2F16272   2.323   3.838   2.940  0.1410  0.1113  0.1672
  147OSM    H2F16273   2.404   3.788   2.883 -0.5013  0.5501 -1.1655
  147OSM    H2G16274   2.259   3.774   3.005 -1.0304  0.0161 -1.0459
  147OSM    C3F16275   2.403   3.938   3.033  0.3648  0.2785 -0.0403
  147OSM    H3F16276   2.450   4.020   2.974 -1.1649  1.7468  0.7132
  147OSM    H3G16277   2.484   3.885   3.087 -1.1197  1.2669  3.4739
  147OSM    C4F16278   2.315   4.009   3.135  0.8193  0.1210  0.2821
  147OSM    H4F16279   2.231   4.069   3.092  1.1820  0.1883 -0.3404
  147OSM    H4G16280   2.371   4.090   3.188 -1.1000  1.4071  0.4493
  147OSM    C5F16281   2.266   3.921   3.247  0.4689  0.7180  0.0314
  147OSM    H5F16282   2.347   3.858   3.290 -1.2566 -1.4703  0.2155
  147OSM    H5G16283   2.184   3.855   3.213  0.8976 -0.8821  1.9444
  147OSM    C6F16284   2.217   4.005   3.370  0.0551  0.3999 -0.7609
  147OSM    H6F16285   2.122   4.056   3.344 -1.5080 -1.0075  1.7228
  147OSM    H6G16286   2.295   4.083   3.387  1.6040 -1.5075  1.6559
  147OSM    C7F16287   2.209   3.912   3.497 -0.1691  0.3250  0.2542
  147OSM    H7F16288   2.311   3.870   3.505  0.0382  0.3274 -1.8583
  147OSM    H7G16289   2.130   3.835   3.481  0.2698 -0.3697  1.2748
  147OSM    C8F16290   2.189   4.000   3.623  0.1978 -0.3507 -0.7510
  147OSM    H8F16291   2.094   4.056   3.609 -0.8443 -2.1637 -1.3873
  147OSM    H8G16292   2.277   4.065   3.637  1.5055 -2.0364 -0.7847
  147OSM    C9F16293   2.167   3.909   3.742  0.4723 -0.0797  0.4306
  147OSM    H9F16294   2.080   3.842   3.733 -0.0474  0.7428 -1.1519
  147OSM   C10F16295   2.236   3.896   3.852 -0.3053 -0.3129  0.0266
  147OSM   H10F16296   2.208   3.828   3.934 -0.1504 -1.0854 -0.5555
  147OSM   C11F16297   2.358   3.975   3.886  0.1713 -0.5486  0.0155
  147OSM   H11F16298   2.416   4.005   3.795  0.5709 -0.0297  0.4404
  147OSM   H11G16299   2.420   3.909   3.950  0.2211 -2.0360 -1.4629
  147OSM   C12F16300   2.324   4.108   3.962 -0.4861  0.4516  0.7964
  147OSM   H12F16301   2.275   4.170   3.884  0.0993 -0.5585 -0.4203
  147OSM   H12G16302   2.415   4.156   4.003  0.1784 -1.3949  1.6170
  147OSM   C13F16303   2.224   4.095   4.077  0.8933 -0.3601  0.4273
  147OSM   H13F16304   2.266   4.021   4.148 -0.5565 -1.4245  0.2095
  147OSM   H13G16305   2.129   4.060   4.034  1.9312  0.0064 -2.3378
  147OSM   C14F16306   2.200   4.222   4.148  0.2991 -0.4323  0.0025
  147OSM   H14F16307   2.153   4.286   4.071 -0.0039 -2.6191 -1.7178
  147OSM   H14G16308   2.293   4.262   4.194  0.4622 -0.2487 -0.4875
  147OSM   C15F16309   2.094   4.205   4.253  0.7478  0.1661  1.0208
  147OSM   H15F16310   2.122   4.121   4.320 -2.7074 -2.3247 -0.3431
  147OSM   H15G16311   1.999   4.164   4.214  1.5588 -0.1035 -0.7742
  147OSM   C16F16312   2.082   4.349   4.321  0.5737  0.6014 -0.3325
  147OSM   H16F16313   2.073   4.428   4.244  0.6642  0.1481 -0.8094
  147OSM   H16G16314   2.182   4.367   4.367  0.7979 -2.6605  0.7100
  147OSM   C17F16315   1.967   4.358   4.423 -0.0545  0.0886  0.0784
  147OSM   H17F16316   1.965   4.458   4.471  0.4977 -0.2857  0.9133
  147OSM   H17G16317   1.998   4.300   4.512  3.9925  2.9948  0.8780
  147OSM   C18F16318   1.831   4.313   4.376  0.3450  0.2315  0.2296
  147OSM   H18F16319   1.784   4.374   4.296 -0.9789 -3.0199 -1.6487
  147OSM   H18G16320   1.761   4.318   4.463  0.4840 -0.6595  0.3965
  147OSM   H18H16321   1.829   4.206   4.346  1.9889  0.1197  0.4605
  148OSM      N16322   0.094   2.568   2.504  0.3911 -0.3736 -0.0803
  148OSM    C1516323   0.158   2.532   2.378  0.2045  0.1237  0.1634
  148OSM   H15A16324   0.151   2.605   2.299  0.3788 -0.8663 -0.8032
  148OSM   H15B16325   0.107   2.443   2.343  0.4856 -0.3353  0.8904
  148OSM   H15C16326   0.260   2.499   2.392  0.3581  0.0569 -1.0056
  148OSM    C1416327  -0.052   2.579   2.473  0.1816 -0.2443 -0.1022
  148OSM   H14A16328  -0.092   2.479   2.465  1.1134 -1.0057  3.0435
  148OSM   H14B16329  -0.066   2.632   2.380  0.1754  2.8758  1.5306
  148OSM   H14C16330  -0.098   2.624   2.561  0.0280 -0.8170  0.1144
  148OSM    C1316331   0.106   2.457   2.604 -0.7760 -0.0011  0.1363
  148OSM   H13A16332   0.077   2.477   2.706 -1.2552 -5.2676  1.3385
  148OSM   H13B16333   0.209   2.424   2.598 -0.7060  0.2355  0.0437
  148OSM   H13C16334   0.043   2.374   2.577 -1.4473  0.1271  1.2689
  148OSM    C1216335   0.152   2.703   2.555  0.5403 -0.1502  0.3265
  148OSM   H12A16336   0.124   2.778   2.483 -3.2786  0.3788  2.1107
  148OSM   H12B16337   0.258   2.697   2.572  0.7155  1.9509  0.2490
  148OSM    C1116338   0.082   2.768   2.673  0.0221 -0.2246  0.1376
  148OSM   H11A16339  -0.023   2.788   2.642 -0.0648 -1.4716 -0.4406
  148OSM   H11B16340   0.129   2.864   2.703 -1.8388  0.8373 -0.1695
  148OSM      P16341   0.226   2.640   2.867 -0.1749 -0.0490 -0.0491
  148OSM    O1316342   0.181   2.556   2.980 -0.0377  0.3511 -0.9424
  148OSM    O1416343   0.333   2.592   2.771 -0.0337  0.2382 -0.7380
  148OSM    O1116344   0.266   2.783   2.926  0.1375  0.4046 -0.4252
  148OSM    O1216345   0.097   2.682   2.786 -0.7284 -0.4283  0.6938
  148OSM    C1S16346   0.193   2.839   3.038 -0.2630  0.6220  0.4035
  148OSM    H1S16347   0.093   2.790   3.043  0.6398 -1.3090  0.2423
  148OSM    H1T16348   0.168   2.944   3.012 -1.9071 -0.1131 -1.2064
  148OSM     NF16349   0.147   2.888   3.278  0.0040  0.1978  0.9410
  148OSM    HNF16350   0.152   2.981   3.313 -1.1282  0.2314  1.0555
  148OSM    C2S16351   0.249   2.832   3.185 -0.5057 -0.1150 -0.4556
  148OSM    H2S16352   0.268   2.723   3.194 -1.1062 -0.1451  0.5839
  148OSM    C3S16353   0.384   2.903   3.196 -0.0580  0.2098  0.1601
  148OSM    H3S16354   0.403   3.005   3.155 -0.7316  0.8218  1.3028
  148OSM     O316355   0.492   2.830   3.138  0.3508 -0.6116 -0.6071
  148OSM    HO316356   0.459   2.801   3.052 -2.1333  2.8975 -1.0304
  148OSM    C4S16357   0.419   2.903   3.340  0.1092  0.2784  0.0020
  148OSM    H4S16358   0.460   2.813   3.387 -0.8590 -0.1119  0.1214
  148OSM    C5S16359   0.426   3.008   3.420  0.4158  0.3713  0.2269
  148OSM    H5S16360   0.414   3.112   3.385  0.3320  0.3262  0.1205
  148OSM    C6S16361   0.449   2.994   3.568 -1.1087 -0.0583 -0.4832
  148OSM    H6S16362   0.552   3.025   3.595 -1.0269 -0.5071 -0.2804
  148OSM    H6T16363   0.437   2.886   3.591 -1.8782  0.2750  0.7887
  148OSM    C7S16364   0.345   3.062   3.656 -0.3367  1.6208 -0.0176
  148OSM    H7S16365   0.242   3.041   3.620  0.2534 -2.5950  0.2034
  148OSM    H7T16366   0.367   3.170   3.667  1.7642  1.5887 -2.8206
  148OSM    C8S16367   0.351   3.009   3.803 -0.4254  0.1188 -0.5073
  148OSM    H8S16368   0.331   2.900   3.798  1.4700 -0.2017 -2.5329
  148OSM    H8T16369   0.278   3.073   3.857  2.1501  3.2964 -0.4395
  148OSM    C9S16370   0.487   3.033   3.887 -0.0290 -0.3608 -0.3048
  148OSM    H9S16371   0.535   3.131   3.870  0.2301 -0.3556  0.4095
  148OSM    H9T16372   0.565   2.959   3.857  0.9836  0.2375  0.7712
  148OSM   C10S16373   0.484   3.018   4.039  0.5965  0.0232  0.7283
  148OSM   H10S16374   0.587   3.041   4.075  0.1181  1.4195  1.2687
  148OSM   H10T16375   0.459   2.915   4.072 -0.7199 -0.3063 -1.1169
  148OSM   C11S16376   0.390   3.114   4.106 -0.4987  0.5023 -0.0977
  148OSM   H11S16377   0.285   3.091   4.077 -0.1849 -0.9438 -0.1773
  148OSM   H11T16378   0.405   3.219   4.076 -2.3827  0.9655  0.4330
  148OSM   C12S16379   0.384   3.100   4.261  0.4091 -0.9416 -0.0598
  148OSM   H12S16380   0.325   3.186   4.301  0.8145 -1.3222  1.4389
  148OSM   H12T16381   0.486   3.105   4.304  1.0112 -2.3055 -1.2527
  148OSM   C13S16382   0.322   2.966   4.303  0.3043  0.5366 -0.9204
  148OSM   H13S16383   0.383   2.875   4.283  1.2964  0.8013  0.7197
  148OSM   H13T16384   0.228   2.967   4.245 -0.2930 -0.4276 -0.0035
  148OSM   C14S16385   0.277   2.969   4.453 -0.0575 -0.4708  0.6866
  148OSM   H14S16386   0.221   3.065   4.463  3.5968  1.8647  0.3550
  148OSM   H14T16387   0.370   2.988   4.510 -1.1098  0.7829  2.0652
  148OSM   C15S16388   0.200   2.856   4.509  0.1320 -0.2762  0.5239
  148OSM   H15S16389   0.250   2.765   4.469  0.7130  1.1141 -2.1166
  148OSM   H15T16390   0.099   2.867   4.463  1.1975  1.7135 -1.5088
  148OSM   C16S16391   0.190   2.859   4.666  0.4691  0.3389  0.0514
  148OSM   H16S16392   0.128   2.947   4.692 -0.0335  0.7930 -2.4673
  148OSM   H16T16393   0.293   2.868   4.706  0.7156 -1.4484 -0.0976
  148OSM   C17S16394   0.126   2.741   4.745 -0.2704  0.3096 -0.2941
  148OSM   H17S16395   0.107   2.757   4.853 -3.6323 -0.9846 -0.5728
  148OSM   H17T16396   0.184   2.647   4.752 -2.0850 -0.7511  2.6353
  148OSM   C18S16397  -0.016   2.711   4.677 -0.1241  0.0070 -0.1223
  148OSM   H18S16398  -0.067   2.640   4.746  0.8736 -0.5828  0.0340
  148OSM   H18T16399  -0.007   2.674   4.572  1.7662  3.3625 -1.2945
  148OSM   H18U16400  -0.072   2.806   4.668 -0.3682 -0.0350  0.8136
  148OSM    C1F16401   0.041   2.811   3.310  0.2481 -0.2190  0.0289
  148OSM     OF16402   0.017   2.702   3.261 -0.4980 -0.3313  0.2893
  148OSM    C2F16403  -0.046   2.866   3.421  0.3636 -0.4241  0.6382
  148OSM    H2F16404  -0.147   2.891   3.382  0.3843 -0.3207  0.6492
  148OSM    H2G16405  -0.010   2.964   3.459  0.9935 -0.0941 -0.7660
  148OSM    C3F16406  -0.074   2.768   3.540 -1.0042  0.2976 -0.1179
  148OSM    H3F16407  -0.083   2.663   3.505  3.2556 -0.5306  0.7012
  148OSM    H3G16408  -0.165   2.789   3.600 -0.7143 -0.0901  0.4653
  148OSM    C4F16409   0.038   2.786   3.642  0.5129 -0.0685  0.6327
  148OSM    H4F16410   0.131   2.793   3.582  2.0743 -1.8531  2.6524
  148OSM    H4G16411   0.037   2.694   3.706  0.7957  0.3518  1.2513
  148OSM    C5F16412   0.003   2.911   3.733  0.2595  0.5772 -0.4533
  148OSM    H5F16413  -0.022   3.002   3.674 -3.9285  0.4139  0.7723
  148OSM    H5G16414   0.092   2.931   3.796 -0.4854 -0.3473  0.9331
  148OSM    C6F16415  -0.114   2.888   3.828 -0.0532  0.6221 -0.0809
  148OSM    H6F16416  -0.095   2.782   3.854 -0.2393  0.9345  1.4007
  148OSM    H6G16417  -0.212   2.890   3.777 -0.0966  0.6137  0.0020
  148OSM    C7F16418  -0.113   2.963   3.962 -0.5980 -0.4850  0.6386
  148OSM    H7F16419  -0.157   3.064   3.944 -1.4508 -0.4955  2.4276
  148OSM    H7G16420  -0.009   2.994   3.982 -0.2432 -1.3598  0.1920
  148OSM    C8F16421  -0.182   2.885   4.070  0.5127  0.6732  0.3841
  148OSM    H8F16422  -0.109   2.820   4.123 -1.1791 -0.8899  0.8948
  148OSM    H8G16423  -0.257   2.831   4.009  2.0346 -2.3350  0.9870
  148OSM    C9F16424  -0.259   2.961   4.168 -0.1190 -0.0296 -0.1374
  148OSM    H9F16425  -0.301   3.055   4.130  0.2944 -1.5489 -4.9803
  148OSM   C10F16426  -0.277   2.925   4.292 -0.1079  0.2445 -0.1011
  148OSM   H10F16427  -0.341   2.993   4.350  1.5840  0.6350  1.3765
  148OSM   C11F16428  -0.221   2.807   4.368  0.1705 -0.6059  0.0564
  148OSM   H11F16429  -0.222   2.839   4.475 -1.5440 -2.3488  0.6198
  148OSM   H11G16430  -0.117   2.779   4.340  0.9967  0.8441  1.4711
  148OSM   C12F16431  -0.300   2.674   4.361 -0.3820 -0.5042  0.0681
  148OSM   H12F16432  -0.237   2.598   4.412 -3.1543 -1.9262  1.6424
  148OSM   H12G16433  -0.301   2.638   4.256  0.1315  0.2039 -0.1886
  148OSM   C13F16434  -0.436   2.679   4.429 -0.5383  0.7358 -0.1547
  148OSM   H13F16435  -0.498   2.594   4.395  0.1664  0.1105  0.0800
  148OSM   H13G16436  -0.495   2.761   4.384  1.4137  2.5105  0.3602
  148OSM   C14F16437  -0.432   2.692   4.581 -1.0213  0.0467  0.3933
  148OSM   H14F16438  -0.381   2.789   4.598  0.8407 -0.6439 -0.8088
  148OSM   H14G16439  -0.381   2.606   4.629  0.9879  0.2349 -1.2454
  148OSM   C15F16440  -0.574   2.705   4.642 -0.0914  0.1485  0.1000
  148OSM   H15F16441  -0.587   2.638   4.730  0.6172 -2.4243 -1.6655
  148OSM   H15G16442  -0.642   2.653   4.572  1.3994  0.0456 -1.3255
  148OSM   C16F16443  -0.623   2.847   4.655  0.0395  0.0096  0.7257
  148OSM   H16F16444  -0.734   2.848   4.648  0.0617 -1.7605 -0.1942
  148OSM   H16G16445  -0.599   2.924   4.578 -3.1561  1.5169  1.0630
  148OSM   C17F16446  -0.583   2.910   4.789  0.3642  0.4203  0.1394
  148OSM   H17F16447  -0.476   2.887   4.808  0.1254  0.4555  1.6193
  148OSM   H17G16448  -0.644   2.861   4.868 -0.1316  0.4198 -0.2412
  148OSM   C18F16449  -0.610   3.063   4.788 -0.0570  0.0814  0.7414
  148OSM   H18F16450  -0.586   3.106   4.888  1.3048  1.6289 -0.1940
  148OSM   H18G16451  -0.716   3.088   4.771  0.7118  2.2246 -1.4876
  148OSM   H18H16452  -0.561   3.130   4.714 -2.1366  0.6844 -0.1569
  149OSM      N16453   3.587   3.610   2.538  0.7845 -0.1953  0.8390
  149OSM    C1516454   3.684   3.703   2.475 -0.3079  0.0396  0.4658
  149OSM   H15A16455   3.645   3.803   2.462 -0.9839  0.0051  1.9482
  149OSM   H15B16456   3.729   3.668   2.383  0.8108  3.6935 -0.5562
  149OSM   H15C16457   3.770   3.718   2.540  2.3200 -0.4357 -2.6537
  149OSM    C1416458   3.463   3.604   2.454 -0.7783 -0.3776  0.2712
  149OSM   H14A16459   3.429   3.702   2.424 -0.9926 -0.3234  0.6924
  149OSM   H14B16460   3.389   3.569   2.524 -1.2086  2.4586  1.3904
  149OSM   H14C16461   3.467   3.539   2.368 -1.5916  0.9954 -0.8473
  149OSM    C1316462   3.660   3.479   2.548 -0.0227  0.5614  0.2541
  149OSM   H13A16463   3.765   3.493   2.572  0.9372 -3.1318 -1.0639
  149OSM   H13B16464   3.655   3.421   2.457  1.2400 -0.5255  0.8427
  149OSM   H13C16465   3.609   3.418   2.621 -1.4077  1.6648  0.2361
  149OSM    C1216466   3.571   3.665   2.678 -0.8022  0.4990 -0.4921
  149OSM   H12A16467   3.545   3.770   2.677 -1.9957  0.2213 -1.4814
  149OSM   H12B16468   3.669   3.652   2.721 -0.9547 -0.4916 -0.4230
  149OSM    C1116469   3.475   3.588   2.767  0.5153  0.1166 -0.0323
  149OSM   H11A16470   3.492   3.624   2.871  0.6801  0.9331 -0.3277
  149OSM   H11B16471   3.505   3.481   2.762  0.4776  0.1521 -2.2227
  149OSM      P16472   3.270   3.752   2.766 -0.3799  0.2011  0.3713
  149OSM    O1316473   3.358   3.862   2.724 -0.4874  0.3536 -0.6792
  149OSM    O1416474   3.137   3.752   2.710  0.2517 -0.0297 -0.7687
  149OSM    O1116475   3.255   3.748   2.925 -0.0666  0.1034 -0.3291
  149OSM    O1216476   3.339   3.617   2.725 -0.2696  0.5349  0.2251
  149OSM    C1S16477   3.173   3.837   2.996 -0.3584 -0.9241  0.3720
  149OSM    H1S16478   3.072   3.838   2.950 -0.3078 -1.9573  0.2106
  149OSM    H1T16479   3.216   3.939   2.986  0.2438 -1.2739 -0.8529
  149OSM     NF16480   3.056   3.861   3.204  0.0557  0.0617 -0.0013
  149OSM    HNF16481   3.068   3.950   3.248 -0.7253  0.4594 -0.5708
  149OSM    C2S16482   3.164   3.795   3.142 -0.7804  0.5378 -0.0600
  149OSM    H2S16483   3.148   3.686   3.158  0.0918  0.6657  2.0585
  149OSM    C3S16484   3.298   3.826   3.214  0.0007 -0.4057 -0.1156
  149OSM    H3S16485   3.306   3.936   3.226 -0.1085 -0.5689  1.8228
  149OSM     O316486   3.411   3.798   3.136 -0.1221  0.3761 -0.4123
  149OSM    HO316487   3.376   3.792   3.047  1.2873 -0.0610 -0.9669
  149OSM    C4S16488   3.305   3.756   3.350  0.3735 -0.2379 -0.4697
  149OSM    H4S16489   3.258   3.799   3.439  0.4453 -2.4170  0.6877
  149OSM    C5S16490   3.362   3.636   3.380  0.7345 -0.4789 -0.4186
  149OSM    H5S16491   3.414   3.578   3.302  4.5718 -1.1997  2.3625
  149OSM    C6S16492   3.375   3.559   3.512  0.8341 -0.7245 -0.5305
  149OSM    H6S16493   3.482   3.530   3.525  1.5357  2.1139  0.7217
  149OSM    H6T16494   3.308   3.470   3.519  0.8688 -0.8792 -1.8613
  149OSM    C7S16495   3.338   3.651   3.630  0.4327 -0.3950 -0.4079
  149OSM    H7S16496   3.232   3.685   3.623  0.4158 -0.7890 -3.3155
  149OSM    H7T16497   3.397   3.744   3.630  0.7281 -0.5819 -0.3394
  149OSM    C8S16498   3.366   3.585   3.766  0.5466 -0.1498  0.1120
  149OSM    H8S16499   3.470   3.549   3.780  1.0757  1.2618  0.0057
  149OSM    H8T16500   3.298   3.497   3.772 -2.5330  2.0003 -0.7380
  149OSM    C9S16501   3.342   3.678   3.882 -0.0988 -0.4704  0.1129
  149OSM    H9S16502   3.232   3.690   3.871  0.0127 -1.3094 -2.7445
  149OSM    H9T16503   3.392   3.777   3.879  1.4009 -1.0744  2.5303
  149OSM   C10S16504   3.371   3.611   4.017  0.1084 -0.2591  0.0670
  149OSM   H10S16505   3.474   3.569   4.010  0.2152 -0.3545  1.8836
  149OSM   H10T16506   3.300   3.526   4.026 -2.7318  1.8081 -1.0607
  149OSM   C11S16507   3.354   3.704   4.139 -0.3094 -0.2006  0.0728
  149OSM   H11S16508   3.252   3.749   4.139  0.4090  1.5472  1.2892
  149OSM   H11T16509   3.424   3.786   4.111 -0.1532 -0.4288 -0.2063
  149OSM   C12S16510   3.396   3.643   4.271  0.0009  0.1741  0.0927
  149OSM   H12S16511   3.467   3.560   4.254  0.4465  1.0766 -3.1030
  149OSM   H12T16512   3.311   3.595   4.324 -0.9828  1.2619 -0.4439
  149OSM   C13S16513   3.453   3.737   4.377  0.3573  0.3165  0.8935
  149OSM   H13S16514   3.369   3.805   4.403 -3.3242 -2.3139 -2.8125
  149OSM   H13T16515   3.540   3.798   4.344  2.5304 -1.1361  3.5562
  149OSM   C14S16516   3.518   3.671   4.509 -0.5922  0.4382 -0.2951
  149OSM   H14S16517   3.590   3.744   4.551  0.0753 -0.0114 -0.6428
  149OSM   H14T16518   3.562   3.578   4.466  0.2159  0.6973 -0.0409
  149OSM   C15S16519   3.414   3.632   4.622  0.0197 -0.2758 -0.5014
  149OSM   H15S16520   3.457   3.560   4.695 -2.4279 -0.0344  1.3188
  149OSM   H15T16521   3.331   3.581   4.569 -1.1979  0.5674  0.5281
  149OSM   C16S16522   3.354   3.749   4.693 -0.4253 -0.3826  0.4673
  149OSM   H16S16523   3.276   3.718   4.765 -0.2479 -0.7212  0.5141
  149OSM   H16T16524   3.306   3.811   4.614 -3.3070 -1.9107  0.8762
  149OSM   C17S16525   3.461   3.819   4.777 -0.0227  0.7262  0.0225
  149OSM   H17S16526   3.524   3.887   4.716 -0.7798  0.1022 -1.5022
  149OSM   H17T16527   3.526   3.745   4.829 -0.0094  0.4902 -0.3316
  149OSM   C18S16528   3.407   3.902   4.892 -0.7648  0.3818 -0.9308
  149OSM   H18S16529   3.488   3.918   4.967 -1.1716  0.7144 -0.5610
  149OSM   H18T16530   3.329   3.846   4.946  0.6863 -0.2790  0.5509
  149OSM   H18U16531   3.371   4.002   4.859  0.8015  1.2792 -0.0407
  149OSM    C1F16532   2.939   3.816   3.177  0.1312  0.2346  0.5881
  149OSM     OF16533   2.925   3.711   3.121 -0.2439 -0.3544 -0.1480
  149OSM    C2F16534   2.827   3.908   3.187  0.7053  0.0226 -0.3364
  149OSM    H2F16535   2.771   3.911   3.091 -1.1254 -1.4188  0.6082
  149OSM    H2G16536   2.871   4.007   3.209  2.0174 -0.5421 -0.3494
  149OSM    C3F16537   2.729   3.870   3.302  0.5392  0.2886 -0.2372
  149OSM    H3F16538   2.676   3.774   3.283 -2.1847  1.5493  0.5963
  149OSM    H3G16539   2.649   3.946   3.293 -0.9497 -1.2510 -0.6807
  149OSM    C4F16540   2.789   3.865   3.444 -0.0339 -0.0496 -0.0444
  149OSM    H4F16541   2.865   3.945   3.450  0.1647 -0.3236  1.3666
  149OSM    H4G16542   2.848   3.771   3.450 -0.0630 -0.1944 -1.5516
  149OSM    C5F16543   2.693   3.871   3.555  0.0112  0.1738  0.0219
  149OSM    H5F16544   2.717   3.791   3.629  0.4269  0.9330  0.7218
  149OSM    H5G16545   2.589   3.862   3.516  0.1876  0.1820 -0.4611
  149OSM    C6F16546   2.697   4.001   3.632  0.5031 -0.1030  0.5815
  149OSM    H6F16547   2.611   4.003   3.702 -0.2832 -1.1153 -0.3216
  149OSM    H6G16548   2.672   4.086   3.565  1.0017 -0.1874  0.2842
  149OSM    C7F16549   2.811   4.023   3.723  0.0685  0.5809  0.5318
  149OSM    H7F16550   2.785   4.115   3.778 -0.9028  1.0317 -0.6225
  149OSM    H7G16551   2.905   4.043   3.667 -0.4549  0.0147 -0.5858
  149OSM    C8F16552   2.839   3.918   3.836  0.3093  0.2942 -0.0106
  149OSM    H8F16553   2.888   3.829   3.789  0.7375 -0.7299  2.2347
  149OSM    H8G16554   2.750   3.868   3.880  1.0617 -2.1010 -1.0143
  149OSM    C9F16555   2.929   3.975   3.944  0.8258  0.2155 -0.0527
  149OSM    H9F16556   3.026   3.923   3.944 -0.1541 -1.6955 -1.0958
  149OSM   C10F16557   2.903   4.079   4.024 -0.1021 -0.7655  0.0327
  149OSM   H10F16558   2.977   4.110   4.098 -0.1319 -1.3623  0.3230
  149OSM   C11F16559   2.776   4.156   4.027  0.0448  0.4334  0.2443
  149OSM   H11F16560   2.691   4.099   3.985 -0.5256  1.3507  0.1228
  149OSM   H11G16561   2.789   4.251   3.971  0.0384  0.7931  0.8360
  149OSM   C12F16562   2.752   4.205   4.167 -0.6920 -0.4180 -0.4299
  149OSM   H12F16563   2.686   4.295   4.168  0.8050  0.7204 -0.2640
  149OSM   H12G16564   2.844   4.249   4.211  0.3306 -0.9638 -1.9223
  149OSM   C13F16565   2.698   4.104   4.270  0.0736 -0.4067  0.3743
  149OSM   H13F16566   2.716   4.156   4.367  1.6657  0.7498 -0.4892
  149OSM   H13G16567   2.753   4.008   4.276 -0.6117 -0.7212  2.1985
  149OSM   C14F16568   2.546   4.077   4.245 -0.4104  0.3971  0.5981
  149OSM   H14F16569   2.535   4.036   4.142  0.9582 -1.4709  1.1423
  149OSM   H14G16570   2.491   4.173   4.252  0.2838  0.8237  0.3688
  149OSM   C15F16571   2.496   3.978   4.347  0.0548 -0.1482 -0.1503
  149OSM   H15F16572   2.385   3.988   4.355 -0.0235  0.0943 -1.2848
  149OSM   H15G16573   2.542   3.995   4.446  0.0239 -2.4113  0.3029
  149OSM   C16F16574   2.517   3.830   4.304  0.4909  0.0762 -0.2110
  149OSM   H16F16575   2.618   3.817   4.260  1.0858  1.1176  0.7928
  149OSM   H16G16576   2.438   3.806   4.230  1.1387 -0.8248 -0.6265
  149OSM   C17F16577   2.499   3.733   4.424 -0.2016 -0.7838 -0.4086
  149OSM   H17F16578   2.400   3.765   4.464  0.3567  1.3704 -0.6823
  149OSM   H17G16579   2.567   3.748   4.510 -0.2496  1.9919 -0.7745
  149OSM   C18F16580   2.500   3.588   4.381 -0.4796 -0.1312 -0.0424
  149OSM   H18F16581   2.418   3.567   4.310  1.1429  0.3629 -2.1390
  149OSM   H18G16582   2.490   3.513   4.463 -2.5038 -0.9735 -0.9819
  149OSM   H18H16583   2.598   3.568   4.335 -1.1478 -1.2008 -1.0419
  150OSM      N16584   6.310   4.817   2.736  0.5323  0.4347 -0.1946
  150OSM    C1516585   6.454   4.773   2.748  0.5833  0.0960 -0.1818
  150OSM   H15A16586   6.502   4.772   2.651  0.1775  1.7647 -0.4296
  150OSM   H15B16587   6.467   4.688   2.814  1.6059  1.8368  1.9774
  150OSM   H15C16588   6.520   4.845   2.794  1.8895 -0.6052 -0.8755
  150OSM    C1416589   6.295   4.920   2.627  0.0797 -0.3302 -0.4997
  150OSM   H14A16590   6.353   5.008   2.649 -0.2670 -0.3475  0.5870
  150OSM   H14B16591   6.196   4.961   2.609  0.2170  1.1044  1.6063
  150OSM   H14C16592   6.325   4.880   2.532  0.6542  1.0393 -0.9261
  150OSM    C1316593   6.238   4.690   2.688 -0.6347 -0.3424 -0.7875
  150OSM   H13A16594   6.243   4.609   2.760 -0.7447  0.7927  0.5407
  150OSM   H13B16595   6.284   4.655   2.596  1.1692 -1.7610  0.5580
  150OSM   H13C16596   6.136   4.716   2.665 -1.1338  0.7315  2.1763
  150OSM    C1216597   6.251   4.852   2.877  0.6006  0.4644  0.9221
  150OSM   H12A16598   6.261   4.768   2.944 -1.1554 -2.5169 -2.2462
  150OSM   H12B16599   6.145   4.866   2.858  0.8492 -0.7773 -1.8609
  150OSM    C1116600   6.297   4.983   2.938 -0.1983 -0.0384 -0.1736
  150OSM   H11A16601   6.247   4.996   3.037  2.2059 -0.8297  1.2150
  150OSM   H11B16602   6.264   5.054   2.859  0.4741  1.3160  0.7369
  150OSM      P16603   6.522   5.112   2.939  0.1626 -0.3903  0.1960
  150OSM    O1316604   6.661   5.091   2.971 -0.3334 -0.5998  0.0740
  150OSM    O1416605   6.500   5.168   2.804 -0.1301 -0.0058 -0.9612
  150OSM    O1116606   6.467   5.211   3.049  0.2551 -0.2699  0.5302
  150OSM    O1216607   6.436   4.982   2.962 -0.0442  0.4229  0.8086
  150OSM    C1S16608   6.430   5.168   3.177  0.3426 -0.1356 -0.2208
  150OSM    H1S16609   6.515   5.168   3.248 -0.5399  0.6045  0.8508
  150OSM    H1T16610   6.384   5.067   3.179  0.8024 -0.3443  2.6834
  150OSM     NF16611   6.291   5.231   3.374  0.1955  0.2139 -0.3787
  150OSM    HNF16612   6.202   5.190   3.391  0.3384 -0.1265 -0.4587
  150OSM    C2S16613   6.322   5.268   3.238  0.2851  0.2927  0.4352
  150OSM    H2S16614   6.367   5.370   3.240 -1.6230  1.3367 -2.8957
  150OSM    C3S16615   6.204   5.286   3.142  0.1052 -0.4286  0.3784
  150OSM    H3S16616   6.148   5.191   3.128 -1.4414  0.1482  2.2332
  150OSM     O316617   6.249   5.320   3.013  0.1580  0.0146 -0.0961
  150OSM    HO316618   6.343   5.297   3.013  0.3083  0.4024  2.2024
  150OSM    C4S16619   6.110   5.387   3.196  0.3732 -0.4058  0.2528
  150OSM    H4S16620   6.018   5.349   3.244  1.7296 -1.7823  1.8476
  150OSM    C5S16621   6.116   5.519   3.194  0.6267 -0.2511  0.3580
  150OSM    H5S16622   6.202   5.574   3.153  1.2471 -1.3784  0.1170
  150OSM    C6S16623   6.008   5.615   3.247  0.2240  0.3363  0.6113
  150OSM    H6S16624   5.909   5.566   3.260  0.3952 -0.2890 -0.3245
  150OSM    H6T16625   5.989   5.687   3.164 -1.8869  0.3814  1.0542
  150OSM    C7S16626   6.053   5.663   3.387 -0.2134 -0.2648 -0.4821
  150OSM    H7S16627   6.131   5.740   3.371 -0.2555 -0.1499 -0.1364
  150OSM    H7T16628   6.097   5.581   3.448  0.0892  0.1030 -0.1987
  150OSM    C8S16629   5.931   5.722   3.454 -0.7915  0.5165 -0.5983
  150OSM    H8S16630   5.855   5.643   3.475  2.5582 -2.5482  1.1487
  150OSM    H8T16631   5.913   5.804   3.382  0.5207  0.6304 -0.8150
  150OSM    C9S16632   5.953   5.779   3.598  0.0346 -0.6528 -0.3598
  150OSM    H9S16633   5.867   5.837   3.635  0.2757 -1.3866  1.4667
  150OSM    H9T16634   6.042   5.845   3.592  0.1728 -0.8474 -0.4772
  150OSM   C10S16635   5.982   5.680   3.711  0.6999  0.4079 -0.7366
  150OSM   H10S16636   6.060   5.605   3.686  0.2608 -0.8959  1.5685
  150OSM   H10T16637   5.892   5.620   3.732  0.8698  0.4606  0.2112
  150OSM   C11S16638   6.024   5.743   3.837  0.0600 -0.4477 -0.4299
  150OSM   H11S16639   5.962   5.835   3.850  0.3176 -0.2625 -0.5059
  150OSM   H11T16640   6.128   5.781   3.825  0.0915 -0.9183 -1.7531
  150OSM   C12S16641   6.001   5.657   3.954 -0.3965  0.5799  0.1533
  150OSM   H12S16642   6.068   5.568   3.949  0.9693  1.4948  1.1874
  150OSM   H12T16643   5.896   5.621   3.954 -0.0687 -0.4101 -0.3285
  150OSM   C13S16644   6.036   5.723   4.090  0.4130 -0.4094 -0.0096
  150OSM   H13S16645   6.136   5.771   4.083  0.1097  0.0573 -1.4317
  150OSM   H13T16646   6.045   5.645   4.168  0.7798  0.6600  1.0574
  150OSM   C14S16647   5.923   5.815   4.151 -0.7254 -0.4831 -0.3384
  150OSM   H14S16648   5.822   5.770   4.143 -0.2081 -1.5197 -1.4222
  150OSM   H14T16649   5.929   5.917   4.108  0.0933 -0.2863  0.2161
  150OSM   C15S16650   5.937   5.825   4.298 -0.4278 -0.3643  0.2153
  150OSM   H15S16651   6.024   5.880   4.340  2.0859 -2.4086 -1.9657
  150OSM   H15T16652   5.949   5.721   4.337  1.5010 -0.8383 -1.4395
  150OSM   C16S16653   5.820   5.886   4.364  0.3514 -0.1901 -0.8869
  150OSM   H16S16654   5.738   5.812   4.349  0.0849 -0.5592  1.8912
  150OSM   H16T16655   5.787   5.978   4.312 -1.0511 -0.1599  0.0011
  150OSM   C17S16656   5.846   5.912   4.510 -0.0861  0.2378  0.3769
  150OSM   H17S16657   5.927   5.986   4.523 -0.0401 -0.1958  3.2147
  150OSM   H17T16658   5.882   5.824   4.567 -1.1783 -0.0948  0.5791
  150OSM   C18S16659   5.724   5.984   4.580  0.2812 -0.3572  0.8345
  150OSM   H18S16660   5.753   6.029   4.677 -0.3351  3.2615 -0.4960
  150OSM   H18T16661   5.637   5.914   4.587 -0.8166  1.0827  2.3520
  150OSM   H18U16662   5.688   6.068   4.517  0.3856 -0.5951  0.4522
  150OSM    C1F16663   6.376   5.252   3.471  0.1155  0.1419 -0.1325
  150OSM     OF16664   6.478   5.313   3.448 -0.4437 -0.3210 -0.1924
  150OSM    C2F16665   6.343   5.194   3.601  0.1828  0.8706 -0.4636
  150OSM    H2F16666   6.389   5.262   3.675  0.9696 -0.1450  0.0076
  150OSM    H2G16667   6.392   5.095   3.607 -0.2555  0.6630 -0.2385
  150OSM    C3F16668   6.195   5.159   3.622  0.1523 -0.0057 -1.5165
  150OSM    H3F16669   6.171   5.069   3.561  0.7731 -0.4127 -1.1817
  150OSM    H3G16670   6.126   5.241   3.595 -0.7956 -0.5256 -0.7154
  150OSM    C4F16671   6.152   5.106   3.766 -0.5682 -0.1957  0.7590
  150OSM    H4F16672   6.218   5.018   3.777  2.6196  1.6396 -1.7766
  150OSM    H4G16673   6.049   5.066   3.763 -0.0542 -1.8977  3.1560
  150OSM    C5F16674   6.170   5.213   3.869 -0.0793 -0.5144  0.6771
  150OSM    H5F16675   6.127   5.301   3.815  0.9500 -1.8885 -2.6525
  150OSM    H5G16676   6.277   5.240   3.885 -0.1054  1.0370 -1.3398
  150OSM    C6F16677   6.102   5.187   4.008 -0.1958 -0.7115  0.0746
  150OSM    H6F16678   5.994   5.165   3.990 -0.0553 -1.7413  0.4453
  150OSM    H6G16679   6.102   5.280   4.069 -0.3404 -1.0896  0.6608
  150OSM    C7F16680   6.166   5.083   4.085  0.2372  0.4319  0.1056
  150OSM    H7F16681   6.271   5.112   4.108  0.5713 -1.6087  1.5057
  150OSM    H7G16682   6.177   4.990   4.026  1.3751  0.2044  0.6374
  150OSM    C8F16683   6.102   5.034   4.211 -0.0829  0.9239 -0.1532
  150OSM    H8F16684   6.161   4.959   4.268  0.3825  0.1850 -1.5572
  150OSM    H8G16685   6.008   4.980   4.186 -0.2601  0.2980  1.7361
  150OSM    C9F16686   6.068   5.148   4.301 -0.7492  0.5477 -0.5901
  150OSM    H9F16687   5.979   5.209   4.278 -1.4934 -0.6565 -0.9989
  150OSM   C10F16688   6.122   5.159   4.428  0.2347 -0.4191 -0.1941
  150OSM   H10F16689   6.096   5.243   4.494  0.7756 -1.1188  0.9466
  150OSM   C11F16690   6.245   5.085   4.482 -0.1775 -0.2929  0.0353
  150OSM   H11F16691   6.328   5.153   4.511  1.6203 -1.1276 -2.7608
  150OSM   H11G16692   6.299   5.008   4.422  0.7251  1.2063 -1.1382
  150OSM   C12F16693   6.205   4.991   4.596 -0.3571  0.5812  0.1612
  150OSM   H12F16694   6.282   4.911   4.601  1.1619  1.9201 -0.7669
  150OSM   H12G16695   6.112   4.939   4.567 -0.0792  0.1001  0.1124
  150OSM   C13F16696   6.188   5.054   4.729  0.3605 -0.1661  0.1078
  150OSM   H13F16697   6.103   5.124   4.746  2.1612  2.2996 -0.4043
  150OSM   H13G16698   6.282   5.105   4.762 -0.3884  0.2525  1.6786
  150OSM   C14F16699   6.151   4.941   4.832 -0.7234  0.4336 -1.1152
  150OSM   H14F16700   6.226   4.859   4.839 -0.3264  0.9479  2.9799
  150OSM   H14G16701   6.063   4.892   4.785 -0.4976  1.7092 -2.9753
  150OSM   C15F16702   6.105   4.990   4.975 -0.4029  0.5903 -0.3553
  150OSM   H15F16703   6.007   5.043   4.970  0.2256  2.2177  2.4116
  150OSM   H15G16704   6.190   5.058   4.999 -0.6180  0.9683 -0.6504
  150OSM   C16F16705   6.088   4.880   5.082 -0.1933  0.1991 -0.6039
  150OSM   H16F16706   6.174   4.810   5.090 -0.5454 -0.1400  0.4678
  150OSM   H16G16707   6.012   4.811   5.038  1.3238 -1.8215 -0.1856
  150OSM   C17F16708   6.047   4.931   5.221  0.0459 -0.0752 -0.5397
  150OSM   H17F16709   6.114   5.005   5.269 -0.6541  1.6473 -2.0995
  150OSM   H17G16710   6.053   4.841   5.286 -0.0083  0.5392  0.3204
  150OSM   C18F16711   5.902   4.983   5.227  0.5358  0.0002  0.8362
  150OSM   H18F16712   5.827   4.907   5.195 -0.2049  1.1346 -0.2501
  150OSM   H18G16713   5.888   5.074   5.164 -1.0830 -1.5669 -1.2260
  150OSM   H18H16714   5.876   5.017   5.329 -0.1877  1.1009  0.3071
  151OSM      N16715   6.022   3.579   2.498  0.0002 -0.2557  0.3267
  151OSM    C1516716   6.153   3.511   2.537 -0.5428  0.0880  0.6097
  151OSM   H15A16717   6.227   3.581   2.574 -0.2144  1.0860 -1.6980
  151OSM   H15B16718   6.207   3.496   2.444 -2.0314  1.2942 -0.5092
  151OSM   H15C16719   6.143   3.422   2.597 -0.0716 -1.2231 -1.1482
  151OSM    C1416720   6.051   3.699   2.408  0.0223  0.0998 -0.0652
  151OSM   H14A16721   6.112   3.774   2.456 -0.2933  1.0779 -1.1238
  151OSM   H14B16722   5.962   3.754   2.380  1.9074  2.7219 -1.3493
  151OSM   H14C16723   6.092   3.659   2.316  0.7149 -0.6709  0.5662
  151OSM    C1316724   5.929   3.487   2.427  0.6234 -0.5290 -0.4464
  151OSM   H13A16725   5.977   3.420   2.357  0.7796  1.3381 -2.2438
  151OSM   H13B16726   5.850   3.534   2.370 -2.6462 -3.0535  1.6585
  151OSM   H13C16727   5.884   3.421   2.499  0.8199  1.9696  2.1557
  151OSM    C1216728   5.954   3.640   2.624  0.0664  0.0116 -0.5122
  151OSM   H12A16729   5.929   3.560   2.692  1.9583  2.5861  3.5610
  151OSM   H12B16730   5.855   3.678   2.602 -0.4709 -1.1781 -0.2434
  151OSM    C1116731   6.031   3.753   2.706 -0.1835  0.4291  0.4578
  151OSM   H11A16732   5.979   3.782   2.800 -0.2545  1.0428  0.2353
  151OSM   H11B16733   6.041   3.847   2.647  1.1879  1.0297  1.5961
  151OSM      P16734   6.212   3.682   2.885  0.4116 -0.1879 -0.3204
  151OSM    O1316735   6.338   3.605   2.882 -0.1197  0.6283  0.4170
  151OSM    O1416736   6.193   3.804   2.967 -0.4325  0.2399 -0.3416
  151OSM    O1116737   6.103   3.571   2.920  0.2909 -0.2664 -0.1602
  151OSM    O1216738   6.164   3.720   2.740  0.7763 -0.2862 -0.1742
  151OSM    C1S16739   6.084   3.534   3.059 -0.5066  0.4721 -0.1279
  151OSM    H1S16740   6.174   3.540   3.124 -1.9956  0.1041  2.1027
  151OSM    H1T16741   6.040   3.432   3.064  0.8248 -0.0853  0.5300
  151OSM     NF16742   5.994   3.610   3.273 -0.2029 -0.3001  0.0924
  151OSM    HNF16743   5.948   3.532   3.316  0.8582 -1.3649 -0.6460
  151OSM    C2S16744   5.980   3.626   3.129  0.1906  0.4737  0.4343
  151OSM    H2S16745   5.996   3.735   3.114 -1.7627  0.7691  0.1400
  151OSM    C3S16746   5.840   3.604   3.068 -0.4789  0.0623  0.3205
  151OSM    H3S16747   5.803   3.507   3.106  1.8050 -0.2999  1.8505
  151OSM     O316748   5.846   3.582   2.927  0.6058  0.1391 -0.2633
  151OSM    HO316749   5.938   3.559   2.912  0.5015 -0.1872 -0.4112
  151OSM    C4S16750   5.740   3.710   3.115  0.5368  0.5771 -0.4636
  151OSM    H4S16751   5.709   3.710   3.221  1.9845  0.2018 -0.0073
  151OSM    C5S16752   5.704   3.820   3.050  0.0770 -0.1994  0.5465
  151OSM    H5S16753   5.758   3.844   2.958 -3.4574 -0.8373 -1.9202
  151OSM    C6S16754   5.608   3.928   3.089 -0.0832 -0.0224  0.5353
  151OSM    H6S16755   5.509   3.895   3.050 -0.3297  0.7154  0.5155
  151OSM    H6T16756   5.631   4.026   3.043 -3.7110  1.9490  2.4248
  151OSM    C7S16757   5.604   3.956   3.246 -0.0425  0.1530  0.2777
  151OSM    H7S16758   5.561   3.865   3.293  1.5679 -0.2685  0.9957
  151OSM    H7T16759   5.522   4.030   3.254  0.0437  0.4052 -0.9701
  151OSM    C8S16760   5.735   4.014   3.312  0.0753 -0.8999 -0.3380
  151OSM    H8S16761   5.743   4.112   3.261  0.4076 -1.5579 -1.6102
  151OSM    H8T16762   5.816   3.947   3.276 -0.1856 -1.2867 -0.2101
  151OSM    C9S16763   5.723   4.047   3.463 -0.6046  0.8962  0.9284
  151OSM    H9S16764   5.637   4.114   3.485 -0.7866  0.6960  0.8294
  151OSM    H9T16765   5.813   4.110   3.482  0.4240 -0.6993  1.5952
  151OSM   C10S16766   5.714   3.922   3.555 -0.2024 -0.6171  0.4121
  151OSM   H10S16767   5.800   3.853   3.539 -0.6464 -0.7609 -1.7387
  151OSM   H10T16768   5.623   3.865   3.527 -0.1469 -0.5194  0.0184
  151OSM   C11S16769   5.701   3.964   3.700 -0.7486  0.1186  0.7212
  151OSM   H11S16770   5.676   3.871   3.756 -2.4811  1.4628  2.3376
  151OSM   H11T16771   5.616   4.034   3.718 -1.8728 -1.6702  2.7974
  151OSM   C12S16772   5.829   4.019   3.768 -0.3288  0.4584 -0.9817
  151OSM   H12S16773   5.852   4.124   3.741 -0.2798  1.3884  2.2322
  151OSM   H12T16774   5.922   3.968   3.735  0.8457  2.0092 -0.2001
  151OSM   C13S16775   5.798   4.021   3.919 -0.1555  0.2353 -0.0273
  151OSM   H13S16776   5.779   3.924   3.970  2.1864  0.0029  0.5076
  151OSM   H13T16777   5.704   4.081   3.928 -1.9161 -2.2195 -0.9629
  151OSM   C14S16778   5.903   4.085   4.001 -0.2055 -0.5751  0.1167
  151OSM   H14S16779   5.923   4.192   3.979 -2.6650  0.2560  1.5492
  151OSM   H14T16780   6.001   4.033   3.993 -0.2790 -0.5938 -0.8821
  151OSM   C15S16781   5.862   4.081   4.148 -0.4982  0.7020 -0.9977
  151OSM   H15S16782   5.844   3.974   4.173  0.5675  0.8370  0.5279
  151OSM   H15T16783   5.767   4.136   4.160  0.6323  2.1910  2.3043
  151OSM   C16S16784   5.962   4.133   4.241 -0.0633  0.1081  0.2083
  151OSM   H16S16785   5.976   4.240   4.215  0.4769 -0.0871 -0.3396
  151OSM   H16T16786   6.056   4.076   4.223  0.2333  0.3496  0.9376
  151OSM   C17S16787   5.921   4.135   4.392 -0.6521 -0.7322  0.1121
  151OSM   H17S16788   5.910   4.028   4.421 -1.6497 -0.6446  0.0914
  151OSM   H17T16789   5.818   4.170   4.415  0.0996  0.7583  1.3794
  151OSM   C18S16790   6.014   4.202   4.486 -0.2834  0.2477  0.0927
  151OSM   H18S16791   6.108   4.143   4.494 -0.7656 -0.5833 -0.2838
  151OSM   H18T16792   5.971   4.209   4.588 -0.1392 -1.0322  0.2610
  151OSM   H18U16793   6.042   4.306   4.458  3.1630 -0.2147  1.2879
  151OSM    C1F16794   6.095   3.672   3.340  0.0771  0.0308 -0.6212
  151OSM     OF16795   6.161   3.759   3.283 -0.5364 -0.1191 -0.3910
  151OSM    C2F16796   6.123   3.634   3.483 -0.2841 -0.3383 -1.2946
  151OSM    H2F16797   6.223   3.585   3.481  0.6896  1.4255  0.2817
  151OSM    H2G16798   6.037   3.573   3.517  0.5443  0.1403  2.0303
  151OSM    C3F16799   6.136   3.754   3.582 -0.1879  0.5653  0.2022
  151OSM    H3F16800   6.039   3.802   3.606  1.2617  2.7047  2.2919
  151OSM    H3G16801   6.205   3.830   3.540 -0.4113  1.8468  2.0412
  151OSM    C4F16802   6.197   3.702   3.724  0.3651  0.3920  0.1302
  151OSM    H4F16803   6.301   3.673   3.699  0.8373  0.4555  1.9294
  151OSM    H4G16804   6.151   3.602   3.743 -0.2244  0.2553 -1.7492
  151OSM    C5F16805   6.173   3.790   3.834  0.4031  0.1119  0.9286
  151OSM    H5F16806   6.064   3.786   3.856  0.7890 -0.2797  3.0243
  151OSM    H5G16807   6.201   3.892   3.800 -0.8555  0.0110 -0.5429
  151OSM    C6F16808   6.233   3.734   3.965  0.8555 -0.2791  0.8693
  151OSM    H6F16809   6.338   3.717   3.934  1.1509  0.9620  1.1484
  151OSM    H6G16810   6.187   3.639   4.000  0.1913  0.0341  0.8595
  151OSM    C7F16811   6.228   3.839   4.075 -0.5237 -0.1938  0.0148
  151OSM    H7F16812   6.126   3.850   4.116 -0.2057 -1.5772  1.2314
  151OSM    H7G16813   6.255   3.936   4.028 -1.8035  0.1118 -0.1386
  151OSM    C8F16814   6.314   3.806   4.190  0.1552  0.7211 -1.1571
  151OSM    H8F16815   6.422   3.817   4.169  0.1187  0.9278 -1.2361
  151OSM    H8G16816   6.304   3.697   4.211  1.2060  0.6337 -1.0938
  151OSM    C9F16817   6.272   3.888   4.315  0.0806  0.2607  0.6035
  151OSM    H9F16818   6.278   3.997   4.301 -0.0253  0.5029  2.2785
  151OSM   C10F16819   6.210   3.838   4.423 -0.9902 -0.4060  0.5513
  151OSM   H10F16820   6.184   3.914   4.498  0.8205  0.6813  0.1473
  151OSM   C11F16821   6.169   3.696   4.457 -0.3578 -0.2035 -0.1541
  151OSM   H11F16822   6.201   3.675   4.562  0.4240  0.1188 -0.3274
  151OSM   H11G16823   6.232   3.624   4.401  0.4436  0.6903 -0.4212
  151OSM   C12F16824   6.016   3.692   4.444  0.2465 -0.8016  0.4340
  151OSM   H12F16825   5.982   3.604   4.385 -0.4873  1.5193 -2.8665
  151OSM   H12G16826   5.981   3.780   4.386 -0.5935 -1.7067 -0.4826
  151OSM   C13F16827   5.943   3.712   4.576  0.5425 -0.0364 -0.1918
  151OSM   H13F16828   5.935   3.618   4.636  1.3843 -0.5016 -0.7908
  151OSM   H13G16829   5.833   3.722   4.559  0.2590 -0.3915  1.2600
  151OSM   C14F16830   6.002   3.817   4.663  0.3542 -0.0760  0.1288
  151OSM   H14F16831   6.000   3.908   4.599 -0.6779 -0.5315 -0.5166
  151OSM   H14G16832   6.104   3.792   4.699 -0.0316  0.0715  1.3762
  151OSM   C15F16833   5.926   3.857   4.784  0.2002  0.4966 -0.5579
  151OSM   H15F16834   5.916   3.771   4.854 -0.8205  1.3451  0.3658
  151OSM   H15G16835   5.818   3.879   4.771  0.6933  2.2210 -2.2687
  151OSM   C16F16836   5.984   3.982   4.844  0.0855 -0.2290  0.5724
  151OSM   H16F16837   5.986   4.061   4.765 -1.5701  0.4707  1.1914
  151OSM   H16G16838   6.087   3.960   4.878  0.1669  0.7397  1.0012
  151OSM   C17F16839   5.910   4.038   4.961 -0.4462 -0.2194  0.1117
  151OSM   H17F16840   5.974   4.123   4.994  0.8326 -1.1993  0.2288
  151OSM   H17G16841   5.910   3.965   5.045 -3.0051 -0.0329  0.3467
  151OSM   C18F16842   5.769   4.099   4.930 -0.1508  0.4636  0.1677
  151OSM   H18F16843   5.769   4.172   4.846  0.7575  0.3556  0.0617
  151OSM   H18G16844   5.721   4.144   5.019 -0.5158 -0.2029  0.3173
  151OSM   H18H16845   5.706   4.011   4.904  1.1618 -0.9132  1.4083
  152OSM      N16846   6.028   4.245   2.591  0.4073  0.3159 -0.1369
  152OSM    C1516847   6.128   4.316   2.508 -0.4827  0.2873 -0.2091
  152OSM   H15A16848   6.080   4.357   2.421 -1.1914  2.0338  0.9485
  152OSM   H15B16849   6.205   4.253   2.465  1.0359  0.8239  1.5775
  152OSM   H15C16850   6.173   4.402   2.557 -0.8322  0.6606 -0.5405
  152OSM    C1416851   5.915   4.340   2.626 -0.5227  0.3221 -0.2366
  152OSM   H14A16852   5.851   4.358   2.542 -0.5044 -1.8728 -0.7739
  152OSM   H14B16853   5.938   4.437   2.667 -2.1499 -0.1997  2.1258
  152OSM   H14C16854   5.851   4.299   2.704 -1.7023  0.7466 -0.9539
  152OSM    C1316855   5.963   4.128   2.523 -0.3079  0.6176 -0.3664
  152OSM   H13A16856   5.913   4.160   2.433 -0.9819 -0.8482 -0.5316
  152OSM   H13B16857   5.884   4.086   2.583 -0.9499  2.3442  0.0709
  152OSM   H13C16858   6.038   4.054   2.502  0.0955  1.5089 -2.2839
  152OSM    C1216859   6.095   4.190   2.715 -0.0477  0.1939 -0.3479
  152OSM   H12A16860   6.140   4.094   2.694 -2.1010 -0.7333 -0.7566
  152OSM   H12B16861   6.015   4.161   2.780 -0.2108 -0.9584 -1.0335
  152OSM    C1116862   6.195   4.270   2.796 -0.7529 -0.4223 -0.0757
  152OSM   H11A16863   6.215   4.217   2.892 -2.8106 -0.1376  0.5458
  152OSM   H11B16864   6.142   4.364   2.824 -3.0328 -1.9802  1.0992
  152OSM      P16865   6.427   4.190   2.715  0.3263  0.2987  0.2198
  152OSM    O1316866   6.369   4.059   2.701  0.0004  0.7403 -0.4201
  152OSM    O1416867   6.514   4.242   2.611  0.2018 -0.3317  0.3852
  152OSM    O1116868   6.494   4.212   2.860 -0.1165 -0.0581  0.1593
  152OSM    O1216869   6.313   4.298   2.723 -0.5901  0.5006 -0.1403
  152OSM    C1S16870   6.542   4.353   2.884 -0.7231  0.7535  0.0185
  152OSM    H1S16871   6.453   4.419   2.881 -2.2498 -1.2420 -3.0879
  152OSM    H1T16872   6.622   4.380   2.813 -0.2062 -1.1752 -0.1952
  152OSM     NF16873   6.643   4.497   3.073 -0.5437 -0.7304 -0.5166
  152OSM    HNF16874   6.738   4.504   3.100 -1.5541  0.6069  3.3420
  152OSM    C2S16875   6.605   4.362   3.031 -0.8056  0.0388  0.7068
  152OSM    H2S16876   6.524   4.329   3.100 -1.3436  1.4210  0.7768
  152OSM    C3S16877   6.717   4.249   3.045 -0.0390  0.5829  0.0941
  152OSM    H3S16878   6.803   4.280   2.981  2.0059 -2.0866  1.2879
  152OSM     O316879   6.693   4.115   2.999 -1.0912  0.2170  0.4159
  152OSM    HO316880   6.625   4.125   2.932 -2.1733 -0.8642  1.2742
  152OSM    C4S16881   6.767   4.242   3.188 -0.3027 -0.0107 -0.6318
  152OSM    H4S16882   6.863   4.289   3.212  0.2811 -1.7218  0.6288
  152OSM    C5S16883   6.712   4.184   3.294 -0.3640 -0.5378 -0.4601
  152OSM    H5S16884   6.608   4.148   3.283 -0.0780 -1.2550 -0.8744
  152OSM    C6S16885   6.762   4.214   3.434  0.2810  0.3887 -0.4634
  152OSM    H6S16886   6.680   4.206   3.508 -1.7601  2.1501 -2.4133
  152OSM    H6T16887   6.793   4.321   3.439 -1.1322  0.7754  0.4919
  152OSM    C7S16888   6.886   4.137   3.465  0.1642 -0.2403  0.3908
  152OSM    H7S16889   6.973   4.182   3.415  0.0362  0.3551  0.6956
  152OSM    H7T16890   6.874   4.032   3.429  0.0548 -0.3389  0.7101
  152OSM    C8S16891   6.913   4.125   3.616 -0.9776 -0.1131 -0.0548
  152OSM    H8S16892   6.818   4.094   3.666 -0.2498  1.0911  2.2201
  152OSM    H8T16893   6.943   4.224   3.655  1.6889 -0.4310 -1.1125
  152OSM    C9S16894   7.004   4.018   3.666 -0.8067  0.6453 -0.0929
  152OSM    H9S16895   7.101   4.021   3.612 -1.1122 -0.0273 -0.6984
  152OSM    H9T16896   6.972   3.922   3.620  1.2689 -0.9775  1.6526
  152OSM   C10S16897   7.016   4.003   3.821  0.3066 -0.2835 -0.8767
  152OSM   H10S16898   7.063   3.907   3.849 -0.5969 -0.5141 -0.1139
  152OSM   H10T16899   6.909   4.007   3.851  0.4773 -1.3795 -0.0588
  152OSM   C11S16900   7.102   4.108   3.884 -0.0054  0.3082 -0.2629
  152OSM   H11S16901   7.075   4.209   3.846 -1.7041 -0.7023 -1.9166
  152OSM   H11T16902   7.209   4.092   3.859  0.1734  0.3099  0.5021
  152OSM   C12S16903   7.084   4.103   4.033 -0.0618  0.4144  0.5464
  152OSM   H12S16904   7.090   3.998   4.072  0.7462  0.9487  1.9539
  152OSM   H12T16905   6.981   4.137   4.054 -0.8149 -0.6088 -1.3152
  152OSM   C13S16906   7.199   4.179   4.108  0.0432 -0.0882 -0.5908
  152OSM   H13S16907   7.200   4.287   4.082 -0.1013  0.3337  1.0669
  152OSM   H13T16908   7.301   4.148   4.074 -0.0126 -0.0782 -0.7695
  152OSM   C14S16909   7.183   4.162   4.252  0.2734 -0.0406  0.4277
  152OSM   H14S16910   7.262   4.225   4.297 -0.7946  1.9717 -0.3892
  152OSM   H14T16911   7.183   4.054   4.277 -1.0929 -0.4826 -1.2325
  152OSM   C15S16912   7.052   4.230   4.303 -0.0560  0.0957 -0.6021
  152OSM   H15S16913   6.967   4.164   4.276  0.2070 -0.3084 -0.4646
  152OSM   H15T16914   7.031   4.325   4.250  0.8043  0.3300 -0.5498
  152OSM   C16S16915   7.057   4.260   4.455 -0.1916 -0.0203 -0.5543
  152OSM   H16S16916   6.967   4.312   4.493 -0.7257 -1.3601  0.1070
  152OSM   H16T16917   7.140   4.331   4.468 -0.1617 -0.0327 -0.6814
  152OSM   C17S16918   7.086   4.133   4.543 -0.0267 -0.1581 -0.1427
  152OSM   H17S16919   7.185   4.093   4.514 -0.5211 -2.0790  0.6536
  152OSM   H17T16920   7.017   4.050   4.516  0.5112 -0.7822  0.3837
  152OSM   C18S16921   7.081   4.165   4.691 -0.0612  0.6526  0.4238
  152OSM   H18S16922   7.110   4.075   4.750 -0.0937 -0.0082 -0.5410
  152OSM   H18T16923   6.982   4.204   4.722 -0.5587  0.0660 -0.3870
  152OSM   H18U16924   7.167   4.230   4.718  1.1297 -0.2080 -1.1323
  152OSM    C1F16925   6.569   4.611   3.064 -0.0482 -0.5858 -0.0717
  152OSM     OF16926   6.453   4.605   3.027 -0.0067  0.4376 -0.0825
  152OSM    C2F16927   6.629   4.743   3.096  0.4998  0.3997 -0.2120
  152OSM    H2F16928   6.629   4.811   3.008  0.5174  0.8795  0.1532
  152OSM    H2G16929   6.733   4.717   3.125 -0.4196 -1.3198  1.7982
  152OSM    C3F16930   6.541   4.802   3.209  0.6214 -1.4614 -1.2740
  152OSM    H3F16931   6.438   4.804   3.168  0.7093 -1.5787 -1.5073
  152OSM    H3G16932   6.571   4.908   3.225  0.1964 -1.0347 -3.0240
  152OSM    C4F16933   6.547   4.747   3.349  1.3503  0.4776 -0.4870
  152OSM    H4F16934   6.631   4.675   3.357  1.4396  0.3728 -1.9707
  152OSM    H4G16935   6.447   4.700   3.363  1.4601 -0.4335 -2.3625
  152OSM    C5F16936   6.544   4.851   3.453  0.3486  0.3221  0.6068
  152OSM    H5F16937   6.452   4.913   3.445 -0.0940 -0.1874  1.5903
  152OSM    H5G16938   6.626   4.925   3.438  0.2352  0.5244  0.9584
  152OSM    C6F16939   6.544   4.805   3.598 -0.3302  0.2930  0.3776
  152OSM    H6F16940   6.608   4.717   3.617  1.6304  1.1661 -1.6633
  152OSM    H6G16941   6.437   4.783   3.615 -0.7851  3.5608  2.5813
  152OSM    C7F16942   6.592   4.918   3.697 -0.4056 -0.1001 -0.0364
  152OSM    H7F16943   6.585   5.024   3.664 -0.4211  0.2506  1.0555
  152OSM    H7G16944   6.700   4.900   3.715 -1.0068 -2.3891  1.7034
  152OSM    C8F16945   6.506   4.910   3.828  0.3090 -0.0131 -0.2319
  152OSM    H8F16946   6.402   4.927   3.793  0.9543  2.6242 -1.1222
  152OSM    H8G16947   6.527   5.004   3.884 -2.9781  0.5029  0.3560
  152OSM    C9F16948   6.513   4.783   3.901  0.0065  0.6469 -0.1652
  152OSM    H9F16949   6.504   4.697   3.834 -1.2073  1.5533 -1.2192
  152OSM   C10F16950   6.514   4.760   4.033 -0.1930  0.3222 -0.2974
  152OSM   H10F16951   6.539   4.662   4.077  1.2291  1.1450  0.8286
  152OSM   C11F16952   6.522   4.864   4.142  0.8833  1.2683  0.1048
  152OSM   H11F16953   6.439   4.838   4.211 -0.6928  2.2569 -1.3396
  152OSM   H11G16954   6.501   4.967   4.107 -2.9528  1.1963  1.7906
  152OSM   C12F16955   6.652   4.870   4.222  0.8235 -0.8844  0.2461
  152OSM   H12F16956   6.736   4.888   4.151 -0.6770  0.2900 -1.3066
  152OSM   H12G16957   6.674   4.775   4.274  2.3676 -0.4032  0.5268
  152OSM   C13F16958   6.643   4.976   4.329 -0.4442  0.0251 -0.5241
  152OSM   H13F16959   6.549   4.960   4.387 -0.3001  0.5900 -0.1167
  152OSM   H13G16960   6.633   5.073   4.277 -1.0616  0.1303 -0.2281
  152OSM   C14F16961   6.764   4.988   4.423 -0.8468  0.9346 -0.1622
  152OSM   H14F16962   6.850   4.982   4.354 -0.4409  1.4325  0.2913
  152OSM   H14G16963   6.765   4.900   4.491 -1.2313  0.8531 -0.2578
  152OSM   C15F16964   6.773   5.113   4.515  0.3378 -0.1744 -0.6998
  152OSM   H15F16965   6.691   5.088   4.585 -0.3221 -0.9434 -1.7054
  152OSM   H15G16966   6.747   5.202   4.454 -0.5343 -0.7566 -1.1881
  152OSM   C16F16967   6.905   5.121   4.582 -0.4483 -0.2352  0.0906
  152OSM   H16F16968   6.890   5.202   4.656 -0.6492  2.1529 -2.3910
  152OSM   H16G16969   6.991   5.152   4.518  1.0271 -1.8637  1.1887
  152OSM   C17F16970   6.950   4.997   4.668  0.1364 -0.6163  0.0067
  152OSM   H17F16971   6.975   4.904   4.611  2.1782  0.1183 -0.4161
  152OSM   H17G16972   6.871   4.973   4.741 -0.7207 -2.9961 -1.5675
  152OSM   C18F16973   7.089   5.018   4.741 -0.0179  0.6795 -0.6572
  152OSM   H18F16974   7.174   5.003   4.672  0.1967 -0.6759 -0.1304
  152OSM   H18G16975   7.099   4.946   4.826 -0.2895  2.2241  0.7319
  152OSM   H18H16976   7.103   5.121   4.780  2.4198  0.6429 -1.2701
  153OSM      N16977   0.223   0.164   3.002  0.1967  0.1766  0.4797
  153OSM    C1516978   0.075   0.131   3.028  0.8355  0.1243  0.1391
  153OSM   H15A16979   0.034   0.213   3.085  0.2004  0.0060 -0.1499
  153OSM   H15B16980   0.062   0.036   3.078 -0.1926  0.7034  1.0190
  153OSM   H15C16981   0.019   0.125   2.936 -1.5318 -0.3326  1.5462
  153OSM    C1416982   0.305   0.072   2.912 -0.0144  0.5936  1.0276
  153OSM   H14A16983   0.411   0.096   2.908 -0.2084  1.5425  1.4084
  153OSM   H14B16984   0.267   0.093   2.813  0.8399 -2.8343 -0.1597
  153OSM   H14C16985   0.294  -0.034   2.928  2.0277 -0.0259 -1.0527
  153OSM    C1316986   0.234   0.303   2.934 -0.5990 -0.9692 -0.4495
  153OSM   H13A16987   0.336   0.341   2.940 -1.4929  1.5710 -0.0464
  153OSM   H13B16988   0.173   0.379   2.982  0.3120 -0.3216 -0.2806
  153OSM   H13C16989   0.196   0.302   2.834 -0.9569  1.9453 -0.4282
  153OSM    C1216990   0.294   0.159   3.137  0.4411 -0.5141  0.6767
  153OSM   H12A16991   0.327   0.056   3.146 -0.9402 -1.1144 -0.6932
  153OSM   H12B16992   0.220   0.178   3.214 -0.0503  2.3309 -0.3789
  153OSM    C1116993   0.410   0.258   3.167  0.0144 -0.5705 -0.8399
  153OSM   H11A16994   0.423   0.238   3.276  1.1182  0.1276 -0.8304
  153OSM   H11B16995   0.371   0.360   3.150 -2.3802 -1.3458 -0.2722
  153OSM      P16996   0.615   0.111   3.120 -0.1788  0.1066  0.1605
  153OSM    O1316997   0.653   0.039   2.999 -0.1954 -0.4197  0.4576
  153OSM    O1416998   0.721   0.167   3.216  0.2714  0.1575  0.5285
  153OSM    O1116999   0.522   0.011   3.203 -0.2135  0.5567  0.3842
  153OSM    O1217000   0.525   0.230   3.085  0.5080 -0.2109 -0.1714
  153OSM    C1S17001   0.497  -0.118   3.157  0.4375 -0.2818  0.4587
  153OSM    H1S17002   0.584  -0.163   3.105  0.5931 -0.7606  1.1176
  153OSM    H1T17003   0.411  -0.113   3.087  2.6158  0.2219 -2.3391
  153OSM     NF17004   0.462  -0.370   3.230  0.2101 -0.3773 -0.6796
  153OSM    HNF17005   0.377  -0.421   3.219 -0.5006  0.2687  1.4032
  153OSM    C2S17006   0.455  -0.228   3.269 -1.1178 -0.8643  0.0819
  153OSM    H2S17007   0.535  -0.220   3.346 -0.9039 -1.0352 -0.1211
  153OSM    C3S17008   0.319  -0.189   3.337  0.2113 -0.5182  0.1109
  153OSM    H3S17009   0.236  -0.180   3.264 -0.3636  2.1546  0.9841
  153OSM     O317010   0.318  -0.052   3.378  0.2809  0.3675  0.0605
  153OSM    HO317011   0.402  -0.021   3.343  1.2278 -0.8424  1.1304
  153OSM    C4S17012   0.272  -0.280   3.450  0.4772  0.3669 -0.4795
  153OSM    H4S17013   0.348  -0.317   3.520 -0.3639 -0.9103 -0.2047
  153OSM    C5S17014   0.138  -0.315   3.470 -0.2756 -0.0769 -0.6932
  153OSM    H5S17015   0.061  -0.299   3.393 -1.5443 -1.8748  0.1344
  153OSM    C6S17016   0.107  -0.413   3.581  0.1563 -0.7405  0.8425
  153OSM    H6S17017   0.174  -0.376   3.662  2.4974  0.3631 -1.4476
  153OSM    H6T17018   0.155  -0.509   3.553  2.9649  1.6390 -3.7208
  153OSM    C7S17019  -0.047  -0.423   3.595  0.4601 -0.5850  0.0199
  153OSM    H7S17020  -0.090  -0.460   3.499 -0.9804 -2.9045  1.4894
  153OSM    H7T17021  -0.093  -0.321   3.595 -1.0959 -1.2024  2.2234
  153OSM    C8S17022  -0.091  -0.494   3.716 -0.1781 -0.2813  0.2733
  153OSM    H8S17023  -0.047  -0.596   3.724 -0.6232 -0.3948  1.4822
  153OSM    H8T17024  -0.201  -0.501   3.700 -0.0795  1.0306 -1.1872
  153OSM    C9S17025  -0.070  -0.420   3.848 -0.1227  0.1370  0.4076
  153OSM    H9S17026  -0.089  -0.315   3.818 -0.1363 -0.3544 -1.3726
  153OSM    H9T17027   0.031  -0.436   3.893  0.5551 -0.2954 -1.1885
  153OSM   C10S17028  -0.184  -0.454   3.946 -1.1289  0.0588  0.2954
  153OSM   H10S17029  -0.175  -0.564   3.956 -2.3577  0.0101  1.0597
  153OSM   H10T17030  -0.279  -0.433   3.894 -0.1966 -1.2001 -2.0697
  153OSM   C11S17031  -0.176  -0.371   4.071  0.3472  0.4651  0.3805
  153OSM   H11S17032  -0.194  -0.264   4.047  4.2598  0.6955 -2.2639
  153OSM   H11T17033  -0.073  -0.381   4.111 -0.0801  0.3568  1.4985
  153OSM   C12S17034  -0.275  -0.429   4.175 -0.4221  0.2517 -0.1540
  153OSM   H12S17035  -0.252  -0.537   4.187 -1.3970  0.0055 -0.3378
  153OSM   H12T17036  -0.379  -0.416   4.135 -0.4022 -0.7724 -0.5877
  153OSM   C13S17037  -0.274  -0.344   4.302  0.5993 -0.7687 -0.0786
  153OSM   H13S17038  -0.312  -0.244   4.274 -0.3228 -0.7633  1.1201
  153OSM   H13T17039  -0.170  -0.333   4.338 -0.4767  1.1208  2.7736
  153OSM   C14S17040  -0.365  -0.415   4.405  0.4637 -0.6128 -0.5795
  153OSM   H14S17041  -0.309  -0.508   4.427 -0.6352 -1.4608 -1.2884
  153OSM   H14T17042  -0.466  -0.430   4.361  1.8247 -0.7001 -3.9292
  153OSM   C15S17043  -0.393  -0.334   4.541  0.1187  0.6281  0.0707
  153OSM   H15S17044  -0.492  -0.355   4.586 -0.5628  1.2758 -1.0757
  153OSM   H15T17045  -0.394  -0.228   4.508 -0.2496  0.7539  0.4877
  153OSM   C16S17046  -0.284  -0.357   4.649 -0.0135  0.1273  0.0290
  153OSM   H16S17047  -0.188  -0.358   4.592  0.4220  1.5228  0.6850
  153OSM   H16T17048  -0.281  -0.457   4.697  1.7285  0.2325  0.2251
  153OSM   C17S17049  -0.266  -0.249   4.754  0.1285  0.2482 -1.1372
  153OSM   H17S17050  -0.258  -0.149   4.707  0.5258  0.2835 -0.9937
  153OSM   H17T17051  -0.171  -0.267   4.808  0.5428 -1.9738 -2.4628
  153OSM   C18S17052  -0.389  -0.228   4.842  0.5716  0.4606 -0.2993
  153OSM   H18S17053  -0.393  -0.307   4.920  1.6829  1.1642  0.5088
  153OSM   H18T17054  -0.480  -0.220   4.780  0.5063 -1.7104 -0.5654
  153OSM   H18U17055  -0.390  -0.136   4.905 -0.8745  2.2626 -2.7661
  153OSM    C1F17056   0.570  -0.429   3.173  0.1137  0.5476  0.0397
  153OSM     OF17057   0.680  -0.379   3.173 -0.1598  0.3467  0.5799
  153OSM    C2F17058   0.541  -0.563   3.120 -0.7484 -0.3905  0.1187
  153OSM    H2F17059   0.572  -0.569   3.013 -0.9543 -2.6149  0.1283
  153OSM    H2G17060   0.432  -0.583   3.112 -0.4346 -2.1752 -0.0897
  153OSM    C3F17061   0.605  -0.671   3.199  0.4227 -0.0801 -0.4223
  153OSM    H3F17062   0.709  -0.649   3.229  0.8442 -1.2887 -0.9232
  153OSM    H3G17063   0.598  -0.757   3.129 -3.2673 -1.0582  0.8982
  153OSM    C4F17064   0.516  -0.723   3.321 -0.3908 -0.1177  0.0585
  153OSM    H4F17065   0.569  -0.819   3.339  0.1950  0.2281  0.2192
  153OSM    H4G17066   0.409  -0.734   3.295 -0.3093 -0.8211  0.0038
  153OSM    C5F17067   0.526  -0.644   3.452 -0.8851  0.9394 -0.2409
  153OSM    H5F17068   0.494  -0.538   3.442 -1.3370  0.9022  0.6654
  153OSM    H5G17069   0.631  -0.635   3.488 -1.2245  0.4572  0.9448
  153OSM    C6F17070   0.442  -0.705   3.566 -0.0494 -0.2718  0.1965
  153OSM    H6F17071   0.506  -0.793   3.587  0.0296 -0.1648  0.4027
  153OSM    H6G17072   0.339  -0.739   3.541 -0.9436  1.0545  1.9107
  153OSM    C7F17073   0.433  -0.619   3.691  0.5533  0.3227  0.2726
  153OSM    H7F17074   0.374  -0.528   3.669 -1.3105 -0.9386 -0.1525
  153OSM    H7G17075   0.539  -0.590   3.706  1.0654 -0.6975 -1.2364
  153OSM    C8F17076   0.371  -0.687   3.810 -0.5017 -0.1252  0.2622
  153OSM    H8F17077   0.404  -0.793   3.814 -3.7075 -1.2251 -0.2332
  153OSM    H8G17078   0.262  -0.684   3.793 -0.8735  0.9376  2.4684
  153OSM    C9F17079   0.400  -0.619   3.943 -0.4143 -0.4169  0.0631
  153OSM    H9F17080   0.487  -0.552   3.946  0.6618 -1.7933  0.8026
  153OSM   C10F17081   0.316  -0.620   4.047  0.0109 -0.0995 -0.4827
  153OSM   H10F17082   0.345  -0.563   4.137  0.7573 -1.1880 -0.0181
  153OSM   C11F17083   0.190  -0.698   4.061  0.1574  0.6710  0.3466
  153OSM   H11F17084   0.202  -0.794   4.006 -0.6385  2.2725 -2.8638
  153OSM   H11G17085   0.106  -0.651   4.005 -0.8376 -1.1802  0.2002
  153OSM   C12F17086   0.145  -0.721   4.206  0.0654  0.2854  0.0254
  153OSM   H12F17087   0.215  -0.768   4.279  0.7131  1.0250 -0.0998
  153OSM   H12G17088   0.050  -0.777   4.206  0.5739 -0.5907  0.4690
  153OSM   C13F17089   0.109  -0.587   4.273 -0.0090 -0.1463 -0.4545
  153OSM   H13F17090   0.048  -0.529   4.201  0.1154  0.5281 -0.0225
  153OSM   H13G17091   0.196  -0.524   4.303 -0.4398  0.3989 -0.3390
  153OSM   C14F17092   0.021  -0.610   4.393  0.2139  0.7883  0.6078
  153OSM   H14F17093  -0.076  -0.658   4.370  0.5671 -0.1930  1.1115
  153OSM   H14G17094  -0.009  -0.513   4.437  0.5202  0.7099  0.9999
  153OSM   C15F17095   0.093  -0.692   4.503  0.0338 -0.0539 -0.3470
  153OSM   H15F17096   0.193  -0.655   4.536 -0.2463 -0.4403  0.9919
  153OSM   H15G17097   0.107  -0.797   4.470 -0.4107 -1.5335  3.5951
  153OSM   C16F17098  -0.004  -0.701   4.617  0.7455  0.0611 -0.1829
  153OSM   H16F17099  -0.101  -0.741   4.581  1.3124 -1.8182  0.2668
  153OSM   H16G17100  -0.035  -0.602   4.658 -0.7272 -0.5942  0.3449
  153OSM   C17F17101   0.046  -0.783   4.736 -0.5924  0.5174  0.2499
  153OSM   H17F17102   0.077  -0.881   4.691 -0.1311  1.7665 -2.3709
  153OSM   H17G17103  -0.032  -0.796   4.813  0.2443  0.1780  1.0568
  153OSM   C18F17104   0.163  -0.707   4.793  0.2059  0.9127 -0.4919
  153OSM   H18F17105   0.255  -0.722   4.733  0.4793 -3.5757  0.6530
  153OSM   H18G17106   0.198  -0.749   4.890  2.0908  0.9359 -1.1232
  153OSM   H18H17107   0.141  -0.599   4.802  2.4941  1.3631  0.1326
  154OSM      N17108   3.979   1.991   2.489  0.0960  0.0298 -0.3785
  154OSM    C1517109   4.032   1.901   2.388 -0.6858 -0.5186 -0.4142
  154OSM   H15A17110   3.984   1.894   2.292 -0.3873  0.3890 -0.6382
  154OSM   H15B17111   4.031   1.804   2.437 -2.2331  0.5900  1.9865
  154OSM   H15C17112   4.139   1.912   2.384 -0.6121 -0.7430  0.5918
  154OSM    C1417113   3.986   2.129   2.430  0.0079  0.2717 -0.0822
  154OSM   H14A17114   3.942   2.198   2.500  1.7627  0.9495  0.3930
  154OSM   H14B17115   3.920   2.124   2.344  3.5844 -1.7651 -2.9722
  154OSM   H14C17116   4.087   2.151   2.399  1.0464 -4.0235 -0.4171
  154OSM    C1317117   3.841   1.946   2.518 -0.1475 -0.0585 -0.0660
  154OSM   H13A17118   3.785   1.946   2.426 -0.7246  0.9110  0.2604
  154OSM   H13B17119   3.783   2.004   2.589 -1.6934 -1.9840  0.3141
  154OSM   H13C17120   3.847   1.844   2.551  0.5874  0.2241  0.7297
  154OSM    C1217121   4.062   1.993   2.613 -0.8933 -0.4232  0.1610
  154OSM   H12A17122   4.167   2.006   2.590  0.2374 -2.1138  3.6523
  154OSM   H12B17123   4.057   1.896   2.660 -1.5470  1.3319  4.1195
  154OSM    C1117124   4.017   2.098   2.721 -0.6238  0.2091 -0.5953
  154OSM   H11A17125   4.080   2.069   2.808 -1.1349  3.4306  0.9787
  154OSM   H11B17126   3.911   2.091   2.753 -0.2440 -0.4446  0.6199
  154OSM      P17127   4.196   2.270   2.677  0.1747  0.3881 -0.0612
  154OSM    O1317128   4.259   2.192   2.567  0.0154  0.3904  0.7040
  154OSM    O1417129   4.200   2.415   2.665 -0.9026 -0.3545 -0.0735
  154OSM    O1117130   4.253   2.223   2.816  0.9205  0.1430 -0.2557
  154OSM    O1217131   4.046   2.231   2.682 -0.1564 -0.0833  0.2367
  154OSM    C1S17132   4.237   2.296   2.938  0.4396 -0.6564  0.9618
  154OSM    H1S17133   4.137   2.276   2.981  0.0493 -3.4967 -1.0251
  154OSM    H1T17134   4.234   2.404   2.910 -0.6255 -0.9610 -0.1727
  154OSM     NF17135   4.318   2.316   3.175  0.2225  0.4767  0.4658
  154OSM    HNF17136   4.388   2.374   3.216  0.0969  1.3902 -0.5471
  154OSM    C2S17137   4.346   2.263   3.040 -0.5682 -0.4699 -0.2720
  154OSM    H2S17138   4.359   2.153   3.050  0.6362 -0.2757  0.4448
  154OSM    C3S17139   4.484   2.309   2.980 -0.5829  0.5281  0.3490
  154OSM    H3S17140   4.484   2.420   2.985  0.6449  0.6656 -1.7442
  154OSM     O317141   4.524   2.263   2.851 -0.2064 -0.2422 -0.1697
  154OSM    HO317142   4.444   2.218   2.821  0.0591 -0.5099 -0.4748
  154OSM    C4S17143   4.597   2.263   3.070  0.0445 -0.5036  0.5580
  154OSM    H4S17144   4.589   2.155   3.088  2.4970 -0.5298  1.8318
  154OSM    C5S17145   4.692   2.339   3.125 -0.7471  0.4740  0.5298
  154OSM    H5S17146   4.691   2.449   3.116 -0.7291  0.5506  1.3991
  154OSM    C6S17147   4.811   2.269   3.190 -0.3362  0.2622  0.2026
  154OSM    H6S17148   4.889   2.348   3.195  0.2451 -0.1492 -1.6597
  154OSM    H6T17149   4.858   2.196   3.121  1.5569 -0.7819  2.4395
  154OSM    C7S17150   4.773   2.201   3.330  0.5917  0.7327  0.7787
  154OSM    H7S17151   4.863   2.186   3.394  0.6695  0.6486  0.6495
  154OSM    H7T17152   4.714   2.107   3.324  1.9925 -0.2125  1.1777
  154OSM    C8S17153   4.699   2.294   3.431 -0.4570 -0.4377 -0.1935
  154OSM    H8S17154   4.617   2.339   3.370  0.6255 -1.1216 -2.2850
  154OSM    H8T17155   4.765   2.382   3.448 -2.4281  1.1677 -0.4477
  154OSM    C9S17156   4.677   2.239   3.569 -0.1312  0.0959 -0.2320
  154OSM    H9S17157   4.762   2.173   3.598  0.9276  1.4790 -0.1189
  154OSM    H9T17158   4.592   2.168   3.567 -0.9063  1.0122 -2.0228
  154OSM   C10S17159   4.631   2.341   3.681  0.4319 -0.9441  0.5904
  154OSM   H10S17160   4.537   2.389   3.647  1.9278  2.1465  0.5100
  154OSM   H10T17161   4.705   2.423   3.680 -0.1443 -0.4187  0.2951
  154OSM   C11S17162   4.589   2.275   3.814 -0.6453 -0.0532 -0.3802
  154OSM   H11S17163   4.676   2.208   3.828 -0.0281  0.3353 -2.1252
  154OSM   H11T17164   4.498   2.213   3.801 -2.5912  2.3626  0.9142
  154OSM   C12S17165   4.586   2.363   3.938 -0.1872  0.3165 -0.3161
  154OSM   H12S17166   4.512   2.446   3.923  0.5346  1.2077  0.8649
  154OSM   H12T17167   4.684   2.400   3.974 -0.4022  0.5976 -0.0033
  154OSM   C13S17168   4.523   2.281   4.054 -0.1761  0.5192 -0.3534
  154OSM   H13S17169   4.581   2.187   4.048 -1.9833 -0.5575 -2.1356
  154OSM   H13T17170   4.419   2.252   4.029  0.0848  0.0635 -0.9359
  154OSM   C14S17171   4.539   2.357   4.186  0.8379  0.5899 -0.3318
  154OSM   H14S17172   4.455   2.338   4.257  1.7914  0.3834  0.7698
  154OSM   H14T17173   4.533   2.468   4.185  2.0368  0.6735  0.2248
  154OSM   C15S17174   4.670   2.324   4.268 -0.2117 -0.9491  0.4495
  154OSM   H15S17175   4.754   2.355   4.204 -1.0485 -0.6288 -0.5195
  154OSM   H15T17176   4.691   2.217   4.288  0.5710 -1.1551 -1.2975
  154OSM   C16S17177   4.657   2.408   4.401 -0.9753 -0.2780  0.5857
  154OSM   H16S17178   4.637   2.514   4.375  0.9922  0.2430  1.0390
  154OSM   H16T17179   4.760   2.419   4.440 -0.9223  2.8537 -0.2232
  154OSM   C17S17180   4.564   2.330   4.497 -0.1794 -0.7182 -1.0645
  154OSM   H17S17181   4.621   2.242   4.534 -0.4612 -0.4295  0.1257
  154OSM   H17T17182   4.464   2.308   4.454 -0.3879  0.5022 -1.2351
  154OSM   C18S17183   4.551   2.426   4.613  0.2668 -0.2146 -0.0012
  154OSM   H18S17184   4.514   2.365   4.698 -1.1104 -0.3321 -0.6507
  154OSM   H18T17185   4.468   2.498   4.596  0.6545  0.4484  0.8525
  154OSM   H18U17186   4.643   2.481   4.641 -0.4006  0.5597  0.7030
  154OSM    C1F17187   4.217   2.279   3.249 -0.4438  0.4270  0.4223
  154OSM     OF17188   4.153   2.176   3.219  0.8247 -0.2225  0.2258
  154OSM    C2F17189   4.191   2.359   3.379  0.1964  0.1179 -0.4717
  154OSM    H2F17190   4.084   2.347   3.406  0.3007  0.8856  0.3355
  154OSM    H2G17191   4.218   2.467   3.376 -0.6017  0.5619  3.0803
  154OSM    C3F17192   4.268   2.302   3.502 -0.1085  0.1917 -0.2647
  154OSM    H3F17193   4.376   2.330   3.494  0.1746 -0.5398  0.6997
  154OSM    H3G17194   4.260   2.191   3.498 -1.5070  0.1906  1.5656
  154OSM    C4F17195   4.216   2.338   3.636 -0.5622 -0.3247  0.5856
  154OSM    H4F17196   4.228   2.448   3.635  0.5346 -0.4077  1.5005
  154OSM    H4G17197   4.279   2.287   3.712  0.6892  2.5373  1.6211
  154OSM    C5F17198   4.069   2.290   3.662  0.2391 -0.3241  0.6803
  154OSM    H5F17199   4.069   2.188   3.618  3.1274  0.6123 -1.9076
  154OSM    H5G17200   3.995   2.351   3.606 -1.2823 -1.3498  1.4973
  154OSM    C6F17201   4.032   2.301   3.813 -0.7500  0.7016  0.7761
  154OSM    H6F17202   3.924   2.276   3.815 -0.1545 -2.3202 -0.6592
  154OSM    H6G17203   4.040   2.407   3.848  0.0011  2.2231 -3.3574
  154OSM    C7F17204   4.089   2.199   3.905 -0.2143  0.1385 -0.6220
  154OSM    H7F17205   4.199   2.212   3.901  0.0732 -1.6157  0.3519
  154OSM    H7G17206   4.062   2.101   3.860  0.7973 -0.1306 -0.6576
  154OSM    C8F17207   4.041   2.214   4.049  0.0848  0.1752  0.0195
  154OSM    H8F17208   3.932   2.208   4.071 -0.0635  0.4264 -0.6315
  154OSM    H8G17209   4.069   2.315   4.087 -1.0823  0.6990 -0.4659
  154OSM    C9F17210   4.104   2.107   4.138  0.4482  0.1866 -0.0333
  154OSM    H9F17211   4.174   2.042   4.082  2.2530  0.4515  1.7704
  154OSM   C10F17212   4.092   2.084   4.274 -0.5217  0.3294  0.1850
  154OSM   H10F17213   4.150   2.005   4.325 -1.4742 -0.3371  0.2489
  154OSM   C11F17214   4.019   2.168   4.363 -0.0138  0.2278  0.0169
  154OSM   H11F17215   3.918   2.128   4.385 -1.1482  2.4441 -0.9489
  154OSM   H11G17216   3.998   2.270   4.325 -0.4397  0.5887  1.1737
  154OSM   C12F17217   4.088   2.193   4.494 -0.4308 -0.3506 -0.6078
  154OSM   H12F17218   4.178   2.254   4.475  1.4135 -1.8925  2.4640
  154OSM   H12G17219   4.126   2.097   4.534 -2.1912 -1.2982 -1.0742
  154OSM   C13F17220   3.996   2.263   4.591  0.5686 -0.9522  0.5914
  154OSM   H13F17221   3.894   2.225   4.571  0.6498 -0.0097 -1.8651
  154OSM   H13G17222   3.993   2.368   4.556  1.1356 -1.4021 -0.8662
  154OSM   C14F17223   4.036   2.258   4.738  0.6222 -0.3697  0.0099
  154OSM   H14F17224   3.981   2.336   4.795 -2.1463 -1.4786 -0.9578
  154OSM   H14G17225   4.145   2.281   4.738  0.6676 -0.5930  0.1105
  154OSM   C15F17226   3.997   2.121   4.785 -0.0031 -0.1805 -0.3534
  154OSM   H15F17227   4.043   2.045   4.718  0.6199 -1.3746  1.3656
  154OSM   H15G17228   3.887   2.106   4.787  0.0625 -0.6283  0.5441
  154OSM   C16F17229   4.052   2.107   4.928 -0.0279 -0.4151 -0.3959
  154OSM   H16F17230   4.003   2.177   4.999  0.0448 -1.5762  0.8545
  154OSM   H16G17231   4.160   2.132   4.925 -0.0894 -0.0566  0.2579
  154OSM   C17F17232   4.029   1.967   4.979  0.0934  0.3225  0.1859
  154OSM   H17F17233   4.109   1.956   5.056  1.0832  0.5478 -0.7858
  154OSM   H17G17234   4.046   1.891   4.900 -0.5597 -0.9258  1.2045
  154OSM   C18F17235   3.898   1.938   5.043  0.5444 -0.5221 -0.3531
  154OSM   H18F17236   3.886   2.017   5.120  1.2798 -0.9676  0.2337
  154OSM   H18G17237   3.887   1.838   5.088 -0.3788  0.6583  2.2359
  154OSM   H18H17238   3.825   1.954   4.961  0.5426  2.1247  0.0506
  155OSM      N17239   0.894   1.858   2.687 -0.3915  0.1233 -0.2087
  155OSM    C1517240   0.938   1.781   2.564  0.1893  0.9942  0.0594
  155OSM   H15A17241   1.043   1.764   2.544  0.3830  1.6980  0.4493
  155OSM   H15B17242   0.899   1.825   2.473  0.9536 -1.3098 -1.4997
  155OSM   H15C17243   0.904   1.679   2.571  1.9420  0.3119 -0.6505
  155OSM    C1417244   0.937   2.007   2.669  0.1788 -0.4301  0.7713
  155OSM   H14A17245   1.041   2.014   2.642  0.0827 -2.8027 -0.5395
  155OSM   H14B17246   0.923   2.055   2.764  3.6273 -0.2209  1.2877
  155OSM   H14C17247   0.873   2.046   2.590 -0.3887 -3.2018 -0.2599
  155OSM    C1317248   0.745   1.858   2.688 -0.2533  0.2653 -0.3001
  155OSM   H13A17249   0.713   1.940   2.750 -0.8047  0.4404 -0.8049
  155OSM   H13B17250   0.700   1.771   2.733  0.5036  0.1680  0.2748
  155OSM   H13C17251   0.713   1.863   2.585 -0.1145  2.7251 -0.2669
  155OSM    C1217252   0.949   1.793   2.811  0.1570 -0.0361 -0.4596
  155OSM   H12A17253   0.914   1.691   2.810  0.3712 -0.1579  1.3165
  155OSM   H12B17254   0.911   1.841   2.899 -0.6649 -0.5979 -0.5000
  155OSM    C1117255   1.101   1.792   2.818 -0.1106 -0.1577 -0.1440
  155OSM   H11A17256   1.141   1.777   2.715  2.2469  1.5014  0.4314
  155OSM   H11B17257   1.138   1.704   2.874  0.2880  0.0645 -0.0541
  155OSM      P17258   1.116   1.991   2.997 -0.3694 -0.4808 -0.2050
  155OSM    O1317259   1.234   2.054   3.064 -0.1330  0.0809 -0.1220
  155OSM    O1417260   1.005   2.083   2.964  0.0033  0.0415  0.1325
  155OSM    O1117261   1.068   1.876   3.092 -0.7961 -0.0167  0.2566
  155OSM    O1217262   1.160   1.917   2.861 -0.6356  0.6934  1.0021
  155OSM    C1S17263   1.168   1.801   3.167 -0.1475  0.1880 -0.3706
  155OSM    H1S17264   1.234   1.871   3.222  0.1876 -1.1587  0.9970
  155OSM    H1T17265   1.231   1.733   3.105  0.9546  0.3360  0.5658
  155OSM     NF17266   1.226   1.635   3.346  0.3257 -0.4147 -0.0827
  155OSM    HNF17267   1.234   1.538   3.324  0.9585 -1.2465  3.3485
  155OSM    C2S17268   1.114   1.707   3.283  0.1287  0.1377  0.1042
  155OSM    H2S17269   1.081   1.783   3.357  2.0835 -0.6131  1.8330
  155OSM    C3S17270   1.000   1.615   3.236  0.2077  0.6102 -0.3086
  155OSM    H3S17271   1.054   1.549   3.166  1.3696  2.2760 -1.0411
  155OSM     O317272   0.903   1.680   3.152 -0.3749  0.2969 -0.2458
  155OSM    HO317273   0.951   1.756   3.117  1.5934  0.3189  2.2120
  155OSM    C4S17274   0.949   1.534   3.356 -0.1088  0.1844 -0.5073
  155OSM    H4S17275   0.992   1.433   3.361  0.7263  0.5612 -0.0384
  155OSM    C5S17276   0.863   1.574   3.459  0.6123  0.6851  0.0594
  155OSM    H5S17277   0.815   1.672   3.467 -1.8004 -0.2715 -1.5179
  155OSM    C6S17278   0.822   1.489   3.580  0.4297  0.4369 -0.3220
  155OSM    H6S17279   0.875   1.391   3.587  1.3848  1.0642  2.2391
  155OSM    H6T17280   0.717   1.453   3.578  0.9125 -1.0314 -1.2476
  155OSM    C7S17281   0.861   1.558   3.719  1.2803  0.0344  0.1793
  155OSM    H7S17282   0.812   1.658   3.723 -1.5009 -1.2252  0.3177
  155OSM    H7T17283   0.971   1.572   3.715  1.5016 -1.3496  0.8382
  155OSM    C8S17284   0.810   1.470   3.840 -0.2196 -0.8476 -0.3002
  155OSM    H8S17285   0.804   1.368   3.798  0.4664 -0.2900 -1.8514
  155OSM    H8T17286   0.708   1.500   3.871  1.2140  3.4777  1.0817
  155OSM    C9S17287   0.902   1.474   3.958 -0.3148  0.9602  0.1115
  155OSM    H9S17288   0.900   1.576   4.002 -0.4450  1.2938 -0.6645
  155OSM    H9T17289   1.000   1.438   3.921 -0.2329  0.0982  1.1137
  155OSM   C10S17290   0.860   1.380   4.065 -0.2462  0.5753  0.3489
  155OSM   H10S17291   0.852   1.274   4.033 -0.9782  0.7071  0.0715
  155OSM   H10T17292   0.757   1.405   4.098 -0.2104 -1.9909  2.8004
  155OSM   C11S17293   0.964   1.384   4.177 -0.1657  0.0153  0.7114
  155OSM   H11S17294   1.000   1.485   4.208 -1.8703  0.8326  0.1208
  155OSM   H11T17295   1.052   1.329   4.136  0.0129 -1.2827  2.6870
  155OSM   C12S17296   0.904   1.323   4.307  0.0187 -0.3358 -0.2384
  155OSM   H12S17297   0.899   1.212   4.298  1.4360 -0.6236  1.7948
  155OSM   H12T17298   0.804   1.369   4.324 -0.5139 -1.1739 -0.9670
  155OSM   C13S17299   0.999   1.359   4.422 -0.0201  0.9411 -0.4974
  155OSM   H13S17300   1.022   1.468   4.419  2.5904  0.4695 -0.1672
  155OSM   H13T17301   1.096   1.309   4.404  0.6560  1.2031  2.0102
  155OSM   C14S17302   0.936   1.334   4.559  0.1828 -0.3252  0.1583
  155OSM   H14S17303   0.834   1.378   4.558 -0.2481 -1.1860 -2.4453
  155OSM   H14T17304   1.005   1.384   4.630  0.4560  1.0426 -1.0121
  155OSM   C15S17305   0.924   1.181   4.581  1.1485 -0.6079 -0.0501
  155OSM   H15S17306   1.021   1.137   4.549  0.4238 -1.5942 -0.9851
  155OSM   H15T17307   0.840   1.140   4.521 -0.7033  0.8462  1.4422
  155OSM   C16S17308   0.891   1.156   4.730 -0.4087  0.3208 -0.9255
  155OSM   H16S17309   0.790   1.197   4.749  0.6814  1.5141  3.7052
  155OSM   H16T17310   0.964   1.208   4.796  0.0750  0.0026 -1.2045
  155OSM   C17S17311   0.889   1.006   4.752 -0.2862 -0.0455 -0.2253
  155OSM   H17S17312   0.988   0.968   4.718 -0.4215 -1.1180  0.5608
  155OSM   H17T17313   0.818   0.956   4.683 -0.4038 -2.4634  1.5520
  155OSM   C18S17314   0.864   0.960   4.900 -0.6352 -0.5309 -0.2688
  155OSM   H18S17315   0.958   0.959   4.959 -0.3756 -0.1557 -0.6658
  155OSM   H18T17316   0.810   0.863   4.910 -0.6960 -0.4770 -0.0798
  155OSM   H18U17317   0.801   1.038   4.948 -0.3946 -1.0362  0.9100
  155OSM    C1F17318   1.314   1.702   3.414  0.8082  0.2272  1.3018
  155OSM     OF17319   1.302   1.820   3.433  0.2364  0.5054  0.2418
  155OSM    C2F17320   1.426   1.611   3.466 -0.0225  0.2175 -0.1294
  155OSM    H2F17321   1.527   1.654   3.447  0.5230 -0.7924  0.4422
  155OSM    H2G17322   1.421   1.511   3.418 -2.4369 -0.5140  1.5121
  155OSM    C3F17323   1.426   1.591   3.619  0.7482  0.3532 -0.0972
  155OSM    H3F17324   1.412   1.681   3.683 -0.9769 -1.1210  1.7636
  155OSM    H3G17325   1.520   1.551   3.663  0.0591  0.0915  1.1902
  155OSM    C4F17326   1.304   1.503   3.668  0.0831  0.2520  0.4949
  155OSM    H4F17327   1.309   1.400   3.625 -2.0999  0.9072 -1.5345
  155OSM    H4G17328   1.206   1.544   3.636 -0.5274  0.4682  2.5109
  155OSM    C5F17329   1.286   1.483   3.817 -0.7648 -0.4507 -0.0477
  155OSM    H5F17330   1.197   1.418   3.826 -1.0783  0.0818  0.8709
  155OSM    H5G17331   1.266   1.585   3.856  2.0930  1.0194 -2.0103
  155OSM    C6F17332   1.393   1.422   3.905 -0.4744 -0.2368 -0.6728
  155OSM    H6F17333   1.484   1.486   3.907 -0.1613 -0.6825 -0.5313
  155OSM    H6G17334   1.425   1.329   3.852 -2.5793 -0.5002 -1.5800
  155OSM    C7F17335   1.345   1.389   4.047 -0.1878 -0.1055 -0.6824
  155OSM    H7F17336   1.261   1.317   4.034  0.8440 -1.4535 -0.0186
  155OSM    H7G17337   1.315   1.476   4.110  0.2843  0.0825 -0.7159
  155OSM    C8F17338   1.441   1.312   4.138  0.0186  0.5163 -0.0348
  155OSM    H8F17339   1.487   1.224   4.088  1.0804 -0.1529  1.9979
  155OSM    H8G17340   1.388   1.267   4.225  0.4720 -0.8219 -0.4217
  155OSM    C9F17341   1.549   1.402   4.182  0.5510 -0.0002  0.8912
  155OSM    H9F17342   1.616   1.424   4.098 -0.3613 -1.0566 -0.1444
  155OSM   C10F17343   1.577   1.445   4.306  0.3345  0.8314  0.1898
  155OSM   H10F17344   1.667   1.506   4.318  1.2622 -0.6969  1.5149
  155OSM   C11F17345   1.492   1.407   4.429 -0.2824 -1.0331  0.1504
  155OSM   H11F17346   1.390   1.373   4.401 -0.5592 -0.2967  0.2616
  155OSM   H11G17347   1.485   1.491   4.501  1.3208 -0.7912  0.0549
  155OSM   C12F17348   1.547   1.287   4.510  0.4977 -0.0294  0.0696
  155OSM   H12F17349   1.560   1.199   4.444  0.0323 -0.5514  0.6603
  155OSM   H12G17350   1.464   1.264   4.580 -0.1013 -0.6633 -0.8157
  155OSM   C13F17351   1.663   1.319   4.589 -0.2125 -1.0625  0.2795
  155OSM   H13F17352   1.635   1.385   4.674 -0.9930 -1.8935  0.6918
  155OSM   H13G17353   1.742   1.369   4.530 -0.2972 -1.8687 -0.5415
  155OSM   C14F17354   1.736   1.193   4.644  0.7092 -0.7710 -0.5187
  155OSM   H14F17355   1.817   1.221   4.715 -0.2220  1.1575 -0.1455
  155OSM   H14G17356   1.780   1.149   4.552  1.2410 -0.7428 -0.2813
  155OSM   C15F17357   1.638   1.103   4.710  0.1134 -0.1586 -0.3653
  155OSM   H15F17358   1.572   1.060   4.631 -2.4939  2.0566  0.4683
  155OSM   H15G17359   1.566   1.165   4.767 -0.2526 -0.3974 -0.5670
  155OSM   C16F17360   1.704   0.987   4.782 -0.2334  0.3091 -0.1040
  155OSM   H16F17361   1.767   1.027   4.863  2.0607 -2.0892 -0.5549
  155OSM   H16G17362   1.764   0.946   4.698 -1.8709  1.5423 -1.9824
  155OSM   C17F17363   1.608   0.883   4.838 -0.2295 -0.4148  0.2545
  155OSM   H17F17364   1.648   0.788   4.878  0.9329  0.5508  1.4934
  155OSM   H17G17365   1.526   0.856   4.769  0.1325 -0.3374 -0.2090
  155OSM   C18F17366   1.531   0.933   4.966  0.6139 -0.1162  0.5846
  155OSM   H18F17367   1.446   0.869   4.998  1.3644 -1.4235  0.0140
  155OSM   H18G17368   1.483   1.032   4.946  1.3166 -0.0117 -0.6270
  155OSM   H18H17369   1.609   0.950   5.043  1.6005 -2.1752  0.1001
  156OSM      N17370   3.682   2.409   2.942 -1.0621 -0.1497  0.0498
  156OSM    C1517371   3.776   2.299   2.907  0.1150  0.0957 -0.7616
  156OSM   H15A17372   3.816   2.253   2.997  2.0300  0.4832 -1.3577
  156OSM   H15B17373   3.865   2.330   2.855  1.0338 -1.4309 -0.1733
  156OSM   H15C17374   3.727   2.228   2.842  0.1836 -0.5354 -0.1461
  156OSM    C1417375   3.734   2.485   3.070  0.2465 -0.0404 -0.5740
  156OSM   H14A17376   3.669   2.571   3.080 -1.4012 -1.2416 -0.5551
  156OSM   H14B17377   3.832   2.527   3.053  0.1887 -0.2567 -1.5150
  156OSM   H14C17378   3.742   2.412   3.148 -1.0148  0.3644 -0.0302
  156OSM    C1317379   3.680   2.508   2.833  0.5115  1.0324 -1.1725
  156OSM   H13A17380   3.613   2.590   2.853 -2.9088 -1.6484 -0.8102
  156OSM   H13B17381   3.636   2.458   2.748 -1.3661 -0.1926  0.4359
  156OSM   H13C17382   3.779   2.545   2.809  1.5745 -0.5810  0.4084
  156OSM    C1217383   3.541   2.358   2.957  0.5249  0.1888  0.3017
  156OSM   H12A17384   3.518   2.320   2.858  1.0513 -0.7943  0.5366
  156OSM   H12B17385   3.472   2.439   2.976 -0.0941  0.3245 -2.1328
  156OSM    C1117386   3.513   2.253   3.063 -0.9311 -0.4354  0.1843
  156OSM   H11A17387   3.584   2.269   3.148 -0.2950  0.3893 -0.4845
  156OSM   H11B17388   3.537   2.156   3.015  1.9377 -1.2353  2.8448
  156OSM      P17389   3.256   2.203   3.049  0.2589 -0.7984 -0.2084
  156OSM    O1317390   3.132   2.273   3.092  0.7203 -0.2365  0.1530
  156OSM    O1417391   3.262   2.186   2.905  0.1190  0.3923  1.0604
  156OSM    O1117392   3.248   2.063   3.118 -0.0388  0.3151  0.0677
  156OSM    O1217393   3.381   2.269   3.107  0.1522 -0.0784  0.4244
  156OSM    C1S17394   3.251   2.063   3.260  0.4657  0.2535 -0.1317
  156OSM    H1S17395   3.210   2.152   3.311  0.0848 -0.9888  1.8562
  156OSM    H1T17396   3.353   2.067   3.305  0.6450 -0.2364 -0.4884
  156OSM     NF17397   3.156   1.956   3.459  0.2341  0.0410 -0.5189
  156OSM    HNF17398   3.219   1.914   3.524  1.4358  2.7106  0.2057
  156OSM    C2S17399   3.184   1.934   3.319  0.2038  0.1450  0.6671
  156OSM    H2S17400   3.090   1.922   3.261  0.6793 -1.8989  0.2213
  156OSM    C3S17401   3.256   1.801   3.287  0.4127  0.0570 -0.1248
  156OSM    H3S17402   3.352   1.796   3.343  1.1583  0.5448 -1.3128
  156OSM     O317403   3.296   1.796   3.157  0.3921 -0.4660  0.1690
  156OSM    HO317404   3.297   1.886   3.123  0.5385 -1.7631 -3.8987
  156OSM    C4S17405   3.173   1.680   3.316  0.0669 -0.5768  0.2195
  156OSM    H4S17406   3.074   1.678   3.268  1.0338 -2.8215 -1.8762
  156OSM    C5S17407   3.200   1.558   3.372 -0.3229 -0.4692 -0.2037
  156OSM    H5S17408   3.310   1.549   3.370 -0.2247  0.4680 -2.7616
  156OSM    C6S17409   3.107   1.437   3.383 -0.3929 -0.5531  0.2881
  156OSM    H6S17410   3.164   1.348   3.352  0.8468 -0.5054  2.2498
  156OSM    H6T17411   3.019   1.443   3.315  2.1944 -1.6080 -3.5007
  156OSM    C7S17412   3.053   1.407   3.522  0.4631  0.9447 -0.1880
  156OSM    H7S17413   3.142   1.396   3.587  1.5558 -1.7967 -1.9768
  156OSM    H7T17414   3.020   1.301   3.533  0.5503  0.8704 -0.6421
  156OSM    C8S17415   2.959   1.523   3.577 -0.0026  0.2681 -0.3889
  156OSM    H8S17416   2.872   1.534   3.509  0.8678  0.0503 -1.5767
  156OSM    H8T17417   3.020   1.615   3.571 -1.8990  1.5478 -0.9222
  156OSM    C9S17418   2.910   1.486   3.714  0.1022 -0.1072 -0.2782
  156OSM    H9S17419   2.988   1.442   3.780 -2.7040 -3.2164  1.2753
  156OSM    H9T17420   2.844   1.397   3.700 -1.3286  1.0378 -1.1818
  156OSM   C10S17421   2.836   1.596   3.783  0.0831 -0.1460  0.4697
  156OSM   H10S17422   2.740   1.603   3.729  0.3880  2.6299  0.1349
  156OSM   H10T17423   2.893   1.691   3.779  1.3857 -0.8547  1.2775
  156OSM   C11S17424   2.818   1.577   3.934 -0.1760  0.4414 -0.5136
  156OSM   H11S17425   2.900   1.618   3.996 -0.0829 -0.4403 -0.0236
  156OSM   H11T17426   2.811   1.468   3.956 -0.9628  0.7434  0.8319
  156OSM   C12S17427   2.692   1.642   3.994 -0.3854 -0.7532  0.1895
  156OSM   H12S17428   2.602   1.614   3.935  0.4926 -1.4468 -0.8518
  156OSM   H12T17429   2.704   1.751   3.980  1.7233 -1.1649 -1.7386
  156OSM   C13S17430   2.667   1.617   4.145  0.5740 -0.7295  0.0034
  156OSM   H13S17431   2.580   1.680   4.176  0.3932  0.0762 -1.9785
  156OSM   H13T17432   2.753   1.652   4.206  0.7563 -2.4402  0.7788
  156OSM   C14S17433   2.615   1.474   4.179  0.0395 -0.9390 -0.2838
  156OSM   H14S17434   2.698   1.404   4.155  1.1553  1.0228 -2.5379
  156OSM   H14T17435   2.535   1.448   4.106  0.9306 -2.2066 -0.8418
  156OSM   C15S17436   2.559   1.464   4.320  0.2760 -0.0605  0.1905
  156OSM   H15S17437   2.475   1.535   4.333 -0.1129 -0.3646 -0.5868
  156OSM   H15T17438   2.643   1.499   4.384  0.2380 -2.1608  1.4946
  156OSM   C16S17439   2.544   1.311   4.353 -0.5576 -0.0943 -0.2817
  156OSM   H16S17440   2.642   1.266   4.328  0.5454  2.3598 -0.6333
  156OSM   H16T17441   2.473   1.270   4.277 -0.6973  0.4962 -0.4733
  156OSM   C17S17442   2.497   1.273   4.494  0.4406  0.1272  0.7053
  156OSM   H17S17443   2.413   1.341   4.520 -1.0426 -1.6982  0.9288
  156OSM   H17T17444   2.584   1.275   4.563  1.0907 -0.0691 -0.0891
  156OSM   C18S17445   2.433   1.128   4.498  0.1972 -1.0998 -0.6400
  156OSM   H18S17446   2.359   1.114   4.416  0.0914 -0.6700 -0.6219
  156OSM   H18T17447   2.393   1.115   4.601 -1.6505 -1.5000 -1.3670
  156OSM   H18U17448   2.518   1.058   4.482  2.0412  1.1760 -1.3406
  156OSM    C1F17449   3.063   2.042   3.502  0.2975  0.5822 -0.3606
  156OSM     OF17450   2.985   2.093   3.421  0.1683 -0.2975 -0.2413
  156OSM    C2F17451   3.061   2.083   3.650 -0.0409 -0.2939  0.3657
  156OSM    H2F17452   3.070   2.194   3.653  2.6643 -0.4447  1.3273
  156OSM    H2G17453   3.156   2.037   3.687  0.3712 -1.4444 -1.9427
  156OSM    C3F17454   2.939   2.042   3.722  0.4083  0.6723 -0.0656
  156OSM    H3F17455   2.949   1.931   3.728 -1.8103  0.4916  1.6329
  156OSM    H3G17456   2.842   2.067   3.675  0.4294  1.4385  0.2794
  156OSM    C4F17457   2.943   2.087   3.870 -0.3829 -0.6480 -0.2718
  156OSM    H4F17458   2.906   2.192   3.862  0.2439 -0.5746 -2.7401
  156OSM    H4G17459   3.045   2.093   3.914  0.0267  0.2587 -1.3118
  156OSM    C5F17460   2.862   1.995   3.968 -0.3633  0.7139 -0.3507
  156OSM    H5F17461   2.910   1.897   3.990 -0.6966  0.6525  0.1108
  156OSM    H5G17462   2.769   1.966   3.915  0.5188 -0.4754 -1.2985
  156OSM    C6F17463   2.837   2.056   4.110  0.7690 -0.4775  0.2876
  156OSM    H6F17464   2.773   2.146   4.107 -1.1014 -1.7135  1.0315
  156OSM    H6G17465   2.937   2.078   4.153  0.1150  0.6054  1.3010
  156OSM    C7F17466   2.763   1.956   4.195  0.0052 -0.0120 -0.1870
  156OSM    H7F17467   2.829   1.867   4.208  0.5553  0.3339 -0.6007
  156OSM    H7G17468   2.662   1.937   4.153 -0.2941  1.0640  0.0243
  156OSM    C8F17469   2.735   1.993   4.343  0.2467  0.1069  0.4679
  156OSM    H8F17470   2.688   2.093   4.358  0.1008  0.0639  0.2962
  156OSM    H8G17471   2.825   1.996   4.407  2.4741  0.5688 -2.4954
  156OSM    C9F17472   2.638   1.890   4.400 -0.0864  0.2450 -0.3883
  156OSM    H9F17473   2.643   1.795   4.344 -2.6275  1.0413 -2.1233
  156OSM   C10F17474   2.558   1.903   4.506 -0.3023 -0.0255 -0.3716
  156OSM   H10F17475   2.494   1.818   4.534 -3.6742  1.9629 -1.4190
  156OSM   C11F17476   2.540   2.030   4.586 -0.2291 -0.1181  0.0914
  156OSM   H11F17477   2.433   2.040   4.613  0.0587 -0.6402  1.4795
  156OSM   H11G17478   2.573   2.119   4.528  0.5241  0.0816  0.8130
  156OSM   C12F17479   2.631   2.018   4.710  0.0358  0.4781 -0.5936
  156OSM   H12F17480   2.641   2.124   4.742 -0.2579  0.8445 -1.6943
  156OSM   H12G17481   2.736   1.988   4.690 -0.3351 -1.4195  0.0406
  156OSM   C13F17482   2.579   1.932   4.825  0.4142  0.1160 -0.7151
  156OSM   H13F17483   2.560   1.827   4.796  1.1309 -0.2621  0.1395
  156OSM   H13G17484   2.475   1.967   4.846  0.3325 -1.7549  2.7416
  156OSM   C14F17485   2.680   1.929   4.939 -0.0702  0.4140 -0.4127
  156OSM   H14F17486   2.717   2.030   4.966  0.2395  0.7188 -1.8649
  156OSM   H14G17487   2.758   1.857   4.903 -0.4548  0.2344 -0.9009
  156OSM   C15F17488   2.626   1.889   5.077 -0.6738  0.0487  0.8383
  156OSM   H15F17489   2.585   1.786   5.068  0.5338 -0.4871  1.1949
  156OSM   H15G17490   2.536   1.952   5.090 -0.6743  0.6210 -1.5569
  156OSM   C16F17491   2.727   1.897   5.193  0.7223  0.0011 -0.6130
  156OSM   H16F17492   2.781   1.994   5.203  2.8880 -1.0733 -1.1325
  156OSM   H16G17493   2.809   1.826   5.168  0.8436  0.2971 -1.0657
  156OSM   C17F17494   2.674   1.846   5.328 -0.4545  0.2123 -0.2542
  156OSM   H17F17495   2.651   1.738   5.314 -0.1719 -0.0204  0.9542
  156OSM   H17G17496   2.572   1.881   5.354 -1.1597 -0.7694 -1.5760
  156OSM   C18F17497   2.771   1.885   5.444  0.3683 -0.0583 -1.1263
  156OSM   H18F17498   2.782   1.994   5.460  1.2492 -0.4505  1.3833
  156OSM   H18G17499   2.873   1.846   5.424  0.4597 -0.7653  0.5505
  156OSM   H18H17500   2.736   1.854   5.545  0.8450  2.6658 -0.0484
  157OSM      N17501   1.528   1.806   2.770  0.2533 -0.1951 -0.6284
  157OSM    C1517502   1.468   1.761   2.640 -0.8443 -0.2217  0.2396
  157OSM   H15A17503   1.361   1.775   2.640 -0.8320 -0.1238  0.2711
  157OSM   H15B17504   1.499   1.661   2.616 -2.4153 -0.9083  0.9678
  157OSM   H15C17505   1.516   1.824   2.566 -0.5352 -0.9356 -0.1781
  157OSM    C1417506   1.673   1.777   2.772 -0.1801 -0.1841 -0.4624
  157OSM   H14A17507   1.727   1.833   2.697  0.1374 -2.3115 -1.8861
  157OSM   H14B17508   1.700   1.673   2.775  0.2069 -0.0867 -0.5191
  157OSM   H14C17509   1.712   1.827   2.860  0.2223  0.6860 -1.1157
  157OSM    C1317510   1.508   1.957   2.784 -0.6644  0.2815  0.3050
  157OSM   H13A17511   1.572   2.002   2.858 -1.0689  0.2116  0.7034
  157OSM   H13B17512   1.405   1.975   2.810 -0.5038 -0.3425  1.4044
  157OSM   H13C17513   1.531   1.992   2.684  3.0400 -0.7934  0.6553
  157OSM    C1217514   1.445   1.736   2.875  0.4083  0.5386  0.2370
  157OSM   H12A17515   1.435   1.639   2.829  1.5900  0.1347  0.7729
  157OSM   H12B17516   1.343   1.771   2.878 -0.3693 -1.6371  2.0618
  157OSM    C1117517   1.509   1.717   3.020  0.3578  0.2077  0.1440
  157OSM   H11A17518   1.420   1.676   3.072 -1.0566  0.2054 -2.1205
  157OSM   H11B17519   1.544   1.812   3.063  3.4687 -1.0832  0.6980
  157OSM      P17520   1.579   1.466   3.005  0.2452 -0.5812 -0.1116
  157OSM    O1317521   1.436   1.434   3.039  0.2060 -0.5831  0.5043
  157OSM    O1417522   1.632   1.428   2.875 -0.3179 -0.1813 -0.0594
  157OSM    O1117523   1.664   1.394   3.116 -0.0939  0.1395 -0.9781
  157OSM    O1217524   1.615   1.619   3.032 -0.2875 -0.3036  0.3735
  157OSM    C1S17525   1.803   1.385   3.133 -0.2973  0.1165  0.4924
  157OSM    H1S17526   1.855   1.472   3.088  0.9037 -1.2196 -0.8270
  157OSM    H1T17527   1.849   1.304   3.073  0.7504 -2.8297  4.8421
  157OSM     NF17528   1.989   1.351   3.290  0.1353 -0.5528 -0.0309
  157OSM    HNF17529   2.033   1.266   3.316 -0.5888 -1.1663 -0.7774
  157OSM    C2S17530   1.842   1.362   3.284 -0.7564  1.0293  0.3387
  157OSM    H2S17531   1.812   1.462   3.324 -2.3185  0.5460  0.4695
  157OSM    C3S17532   1.757   1.249   3.354 -0.0121  0.5323 -0.0753
  157OSM    H3S17533   1.784   1.153   3.305 -0.7465 -0.5845  1.6086
  157OSM     O317534   1.618   1.246   3.344  0.8761  0.1947  0.1638
  157OSM    HO317535   1.595   1.308   3.275 -0.2375 -2.5683 -2.1593
  157OSM    C4S17536   1.784   1.237   3.503  0.0063 -0.1298 -0.4334
  157OSM    H4S17537   1.789   1.325   3.568  0.5123 -1.1104  0.9151
  157OSM    C5S17538   1.789   1.119   3.569 -0.5914 -0.0267 -0.1269
  157OSM    H5S17539   1.785   1.019   3.523 -0.0202 -1.5396  2.8530
  157OSM    C6S17540   1.826   1.111   3.717  0.2110 -0.0184  0.2642
  157OSM    H6S17541   1.908   1.035   3.724  1.0952  0.8627 -0.2606
  157OSM    H6T17542   1.741   1.063   3.769  0.5971 -0.5352  0.4285
  157OSM    C7S17543   1.869   1.239   3.794  0.0841 -0.0135  1.0318
  157OSM    H7S17544   1.780   1.305   3.799 -0.0066 -0.0604  0.1471
  157OSM    H7T17545   1.944   1.297   3.737  0.0914 -1.1273 -0.1618
  157OSM    C8S17546   1.939   1.221   3.930  0.5507  0.6556 -0.4282
  157OSM    H8S17547   1.998   1.313   3.947 -2.2897  2.4067  0.7719
  157OSM    H8T17548   2.005   1.131   3.933  1.5540  1.3919  1.6406
  157OSM    C9S17549   1.842   1.204   4.041 -0.0865  0.8654 -0.6279
  157OSM    H9S17550   1.735   1.218   4.014 -0.3645  1.1673  0.5666
  157OSM    H9T17551   1.844   1.280   4.122 -2.3198  1.1875 -0.8089
  157OSM   C10S17552   1.838   1.068   4.106  0.5051  0.3743 -0.5687
  157OSM   H10S17553   1.931   1.041   4.161  0.6807 -2.3521 -2.0317
  157OSM   H10T17554   1.834   0.988   4.029 -1.4433 -0.1526  0.0103
  157OSM   C11S17555   1.734   1.044   4.216  0.0289  0.7037  0.0464
  157OSM   H11S17556   1.637   1.079   4.173 -0.1962  0.9886  0.7812
  157OSM   H11T17557   1.752   1.120   4.295 -2.3310  2.3639 -0.8998
  157OSM   C12S17558   1.714   0.900   4.263 -0.1668 -0.5315 -0.3412
  157OSM   H12S17559   1.822   0.881   4.278 -0.7410 -3.2333  1.0235
  157OSM   H12T17560   1.679   0.839   4.177  1.8852 -1.2216 -0.7505
  157OSM   C13S17561   1.634   0.885   4.390 -0.3854 -0.7826  0.2733
  157OSM   H13S17562   1.525   0.884   4.373 -0.4110  0.7005  0.2640
  157OSM   H13T17563   1.653   0.976   4.451  2.5257 -1.2787  0.2839
  157OSM   C14S17564   1.685   0.764   4.480 -0.1998 -0.0008  1.0302
  157OSM   H14S17565   1.635   0.772   4.579 -1.0523 -0.0361  0.6155
  157OSM   H14T17566   1.794   0.759   4.500 -0.3426 -3.4654  1.5678
  157OSM   C15S17567   1.644   0.634   4.415  0.2158  0.5486  0.1478
  157OSM   H15S17568   1.672   0.638   4.307  1.0636  0.5350  0.3625
  157OSM   H15T17569   1.534   0.624   4.408 -0.0948  2.7054  1.0466
  157OSM   C16S17570   1.683   0.508   4.486 -0.0878  0.5137  0.1854
  157OSM   H16S17571   1.788   0.516   4.520  1.2236 -0.3986 -3.2371
  157OSM   H16T17572   1.682   0.426   4.410 -0.7915  0.0662  0.6602
  157OSM   C17S17573   1.584   0.477   4.602  0.0821  0.3074  0.9615
  157OSM   H17S17574   1.489   0.451   4.550  0.3353  2.7925 -1.0019
  157OSM   H17T17575   1.549   0.567   4.657  1.3959  0.0759  2.2387
  157OSM   C18S17576   1.634   0.364   4.692 -0.2145  0.2946  1.0251
  157OSM   H18S17577   1.727   0.398   4.742  1.3082  1.3278 -2.2044
  157OSM   H18T17578   1.669   0.278   4.630  1.0541  1.9966 -0.7655
  157OSM   H18U17579   1.563   0.324   4.767 -1.7199 -0.9675 -0.9581
  157OSM    C1F17580   2.074   1.446   3.243  0.8141  0.5719  0.7732
  157OSM     OF17581   2.036   1.559   3.221  0.5366  0.2438  0.0524
  157OSM    C2F17582   2.218   1.392   3.231  0.5534  0.1164  0.1107
  157OSM    H2F17583   2.220   1.289   3.190  0.4245  0.1317  0.0660
  157OSM    H2G17584   2.269   1.381   3.329 -0.6475  1.8824  0.9845
  157OSM    C3F17585   2.300   1.484   3.139 -0.0760  0.3038 -0.6872
  157OSM    H3F17586   2.245   1.507   3.045 -0.3987 -0.8300 -0.7866
  157OSM    H3G17587   2.397   1.437   3.115  0.2292 -0.2621  1.4380
  157OSM    C4F17588   2.343   1.619   3.212  0.3373 -0.0173 -0.0844
  157OSM    H4F17589   2.256   1.685   3.234  0.3715  0.5195 -1.4438
  157OSM    H4G17590   2.403   1.679   3.140 -0.4156  0.3523 -0.4135
  157OSM    C5F17591   2.428   1.595   3.338  0.2896 -0.1842  0.2145
  157OSM    H5F17592   2.520   1.537   3.313  0.2641 -0.0406 -0.2213
  157OSM    H5G17593   2.364   1.541   3.411 -1.7006  1.8759  0.0785
  157OSM    C6F17594   2.455   1.730   3.400 -0.5770  0.5592  0.4854
  157OSM    H6F17595   2.481   1.701   3.504 -4.3254  1.5593  1.8901
  157OSM    H6G17596   2.358   1.779   3.425 -1.2258 -1.6626  2.6724
  157OSM    C7F17597   2.570   1.803   3.329 -0.6596 -0.2787 -0.5113
  157OSM    H7F17598   2.543   1.847   3.231  3.9960  2.8821 -0.6951
  157OSM    H7G17599   2.654   1.735   3.306 -0.5725  0.0199 -1.0831
  157OSM    C8F17600   2.633   1.920   3.413 -0.3887 -0.1107  0.6843
  157OSM    H8F17601   2.557   2.000   3.427 -0.7366 -0.5882  1.6263
  157OSM    H8G17602   2.718   1.957   3.352 -1.7124  0.2000 -1.0325
  157OSM    C9F17603   2.683   1.880   3.547  0.4041 -0.4009  0.4723
  157OSM    H9F17604   2.786   1.842   3.546  0.3687 -0.5065  0.7478
  157OSM   C10F17605   2.623   1.887   3.659 -0.5422 -0.2679  0.2640
  157OSM   H10F17606   2.673   1.840   3.745 -1.1848  0.5923  1.1194
  157OSM   C11F17607   2.483   1.929   3.695  0.1005 -0.7025 -0.5231
  157OSM   H11F17608   2.409   1.851   3.668 -1.5947  0.4721  0.5792
  157OSM   H11G17609   2.449   2.017   3.637  0.6545  0.0043  0.2080
  157OSM   C12F17610   2.476   1.974   3.843 -0.0503  0.0065  0.2816
  157OSM   H12F17611   2.546   2.059   3.853  0.9112 -0.3762 -2.3173
  157OSM   H12G17612   2.506   1.895   3.914 -2.3400 -0.5408  0.7385
  157OSM   C13F17613   2.336   2.030   3.873  0.1304  0.4462 -0.2929
  157OSM   H13F17614   2.302   2.101   3.793  0.9539 -0.5107 -1.5353
  157OSM   H13G17615   2.344   2.084   3.969 -2.8092 -0.5293  0.6088
  157OSM   C14F17616   2.227   1.922   3.881  0.6430 -0.5024 -0.4512
  157OSM   H14F17617   2.241   1.862   3.788 -0.0829 -0.0924 -0.8427
  157OSM   H14G17618   2.127   1.971   3.871  1.0483  0.1828 -1.3652
  157OSM   C15F17619   2.219   1.828   4.003 -0.0473  0.5469  0.1051
  157OSM   H15F17620   2.293   1.746   3.989 -1.1207 -0.3658 -0.3487
  157OSM   H15G17621   2.117   1.787   4.008  0.1821  0.0930  1.6414
  157OSM   C16F17622   2.228   1.881   4.150  0.2896  0.1433 -0.1726
  157OSM   H16F17623   2.335   1.900   4.173  0.2337 -0.8568  0.9823
  157OSM   H16G17624   2.199   1.795   4.214  1.6031 -0.2670 -0.0988
  157OSM   C17F17625   2.136   1.998   4.194  0.6023  0.5850  0.9837
  157OSM   H17F17626   2.043   1.982   4.135  0.6249  2.1143  0.5107
  157OSM   H17G17627   2.183   2.089   4.152 -0.4016  1.4963  1.8045
  157OSM   C18F17628   2.120   2.020   4.344 -0.4842 -0.0550 -0.3648
  157OSM   H18F17629   2.070   2.116   4.370 -0.0606 -0.0084  0.2982
  157OSM   H18G17630   2.225   2.025   4.381 -0.4922 -1.0097 -0.1953
  157OSM   H18H17631   2.063   1.937   4.390  0.7159 -1.6342 -1.6157
  158OSM      N17632   1.381   1.055   2.826  0.2056 -0.1118  1.0816
  158OSM    C1517633   1.455   1.125   2.713  0.6233  0.3320 -0.1229
  158OSM   H15A17634   1.426   1.085   2.616 -1.0064  0.9580  0.0733
  158OSM   H15B17635   1.561   1.109   2.726  0.7908  0.8939 -0.7355
  158OSM   H15C17636   1.431   1.230   2.717  0.2337  0.3266 -1.4551
  158OSM    C1417637   1.401   0.909   2.818  0.3898  1.6035  0.5626
  158OSM   H14A17638   1.318   0.868   2.875 -1.3906  3.2950 -0.6933
  158OSM   H14B17639   1.498   0.871   2.845  1.4041  0.7008 -3.7277
  158OSM   H14C17640   1.382   0.877   2.717 -1.0179  0.1945  1.2252
  158OSM    C1317641   1.439   1.099   2.957 -0.2547  0.2257 -0.5040
  158OSM   H13A17642   1.375   1.065   3.037 -1.6465 -0.2889 -1.7836
  158OSM   H13B17643   1.442   1.207   2.962 -1.7232  0.2584  2.8573
  158OSM   H13C17644   1.541   1.068   2.973 -0.5373  0.0865  1.1781
  158OSM    C1217645   1.229   1.082   2.830 -0.3882  0.6511  1.0392
  158OSM   H12A17646   1.181   1.054   2.738  1.0311  2.3917 -0.3027
  158OSM   H12B17647   1.218   1.189   2.826  0.1190  0.7220  1.4366
  158OSM    C1117648   1.143   1.020   2.937  0.1876  0.2624 -0.0332
  158OSM   H11A17649   1.049   1.078   2.949 -0.1683 -0.2021 -0.5445
  158OSM   H11B17650   1.187   1.028   3.039 -0.8917 -0.4379  0.5003
  158OSM      P17651   1.009   0.838   2.800 -0.0206 -0.3834 -0.6451
  158OSM    O1317652   0.943   0.958   2.742 -0.0743 -0.1909 -0.3250
  158OSM    O1417653   1.062   0.739   2.708 -0.2281  0.1194 -0.4407
  158OSM    O1117654   0.908   0.760   2.899 -0.0612 -0.4899  0.8184
  158OSM    O1217655   1.124   0.879   2.905 -0.0647  0.1993 -0.4405
  158OSM    C1S17656   0.957   0.671   2.996  0.2493 -0.2134 -0.6750
  158OSM    H1S17657   1.055   0.700   3.040 -0.5886  1.8808 -0.0413
  158OSM    H1T17658   0.961   0.562   2.973  0.3123 -0.8979  2.2317
  158OSM     NF17659   0.922   0.625   3.239  0.3759 -0.2550  0.0156
  158OSM    HNF17660   0.905   0.529   3.259  1.5404 -0.5202 -0.2025
  158OSM    C2S17661   0.859   0.679   3.123  0.0792 -0.4432 -0.2028
  158OSM    H2S17662   0.858   0.787   3.147  0.5964 -0.6268  0.6848
  158OSM    C3S17663   0.721   0.612   3.079  0.2372 -0.7183 -0.1752
  158OSM    H3S17664   0.736   0.502   3.079  3.0277 -0.3951 -0.1004
  158OSM     O317665   0.676   0.649   2.951  0.1948  0.0463  0.2589
  158OSM    HO317666   0.746   0.702   2.913 -1.4420  1.0683 -1.5288
  158OSM    C4S17667   0.620   0.644   3.187 -0.2499 -0.3953  0.2734
  158OSM    H4S17668   0.624   0.569   3.267 -2.1370  0.2449  1.0176
  158OSM    C5S17669   0.544   0.753   3.209  0.6548  0.7034 -0.2402
  158OSM    H5S17670   0.574   0.839   3.146  0.4608  0.5047 -0.6107
  158OSM    C6S17671   0.465   0.788   3.331  0.9031 -1.0985 -0.2282
  158OSM    H6S17672   0.360   0.801   3.297  0.9629 -1.1846 -0.4438
  158OSM    H6T17673   0.510   0.879   3.376  1.6039 -1.2790 -0.5544
  158OSM    C7S17674   0.462   0.678   3.446  0.1480 -0.0038  0.1462
  158OSM    H7S17675   0.562   0.658   3.488  0.1045 -0.9038 -0.1564
  158OSM    H7T17676   0.436   0.583   3.395  2.3474 -1.2595  1.2504
  158OSM    C8S17677   0.382   0.707   3.568  0.2675 -0.1204 -0.3928
  158OSM    H8S17678   0.273   0.719   3.550 -0.2777 -3.3498  0.0871
  158OSM    H8T17679   0.413   0.803   3.615  0.5910 -0.8107  0.8369
  158OSM    C9S17680   0.405   0.598   3.682 -0.0492  0.1523  0.3211
  158OSM    H9S17681   0.514   0.593   3.704  0.3823  3.3121 -0.6574
  158OSM    H9T17682   0.376   0.504   3.630  2.5049 -0.8233  0.5120
  158OSM   C10S17683   0.339   0.621   3.815 -0.1555  0.3772  0.0673
  158OSM   H10S17684   0.233   0.645   3.794  0.0054 -0.3774 -1.8102
  158OSM   H10T17685   0.380   0.718   3.854  0.7918 -0.0359  0.1401
  158OSM   C11S17686   0.364   0.512   3.917  0.2144  0.2417  0.1441
  158OSM   H11S17687   0.470   0.481   3.912  0.2679  0.3953  0.3064
  158OSM   H11T17688   0.308   0.422   3.886  0.7842 -0.5984  1.4408
  158OSM   C12S17689   0.306   0.548   4.056  0.1728  0.3056 -0.7491
  158OSM   H12S17690   0.197   0.569   4.065 -0.4149 -2.4013 -0.4542
  158OSM   H12T17691   0.361   0.639   4.087  0.0821 -0.1107  0.7504
  158OSM   C13S17692   0.323   0.432   4.160  0.0688  0.4989 -0.0483
  158OSM   H13S17693   0.422   0.383   4.148  0.8678  1.4663  2.1157
  158OSM   H13T17694   0.246   0.362   4.122  1.4083  0.1524 -2.2924
  158OSM   C14S17695   0.291   0.462   4.304 -0.2502 -0.1000 -0.7691
  158OSM   H14S17696   0.196   0.518   4.317 -1.5231 -2.3065 -0.0053
  158OSM   H14T17697   0.375   0.521   4.346 -1.1038  0.7060 -0.1534
  158OSM   C15S17698   0.259   0.341   4.396 -0.4087  0.2561  0.1897
  158OSM   H15S17699   0.341   0.265   4.398 -2.9959 -2.7540 -0.7918
  158OSM   H15T17700   0.168   0.286   4.364 -0.2827 -0.3979  0.9125
  158OSM   C16S17701   0.244   0.390   4.540  0.3602 -0.0619 -0.4837
  158OSM   H16S17702   0.186   0.486   4.539  0.2175 -0.0914  1.2844
  158OSM   H16T17703   0.344   0.422   4.575  0.4070  2.4461 -2.5613
  158OSM   C17S17704   0.200   0.285   4.644  0.3902 -0.0047  0.1946
  158OSM   H17S17705   0.185   0.333   4.743 -3.9772 -0.2647 -0.1675
  158OSM   H17T17706   0.284   0.212   4.651  1.4674  1.1937  0.2396
  158OSM   C18S17707   0.072   0.200   4.612  0.0317 -0.3625 -0.2349
  158OSM   H18S17708  -0.016   0.268   4.607 -1.9266 -2.7896 -1.0296
  158OSM   H18T17709   0.058   0.124   4.692 -0.1320  0.7262  0.7862
  158OSM   H18U17710   0.082   0.146   4.515  0.1870 -0.1547 -0.3337
  158OSM    C1F17711   1.023   0.686   3.306 -0.0955  0.0375  0.5546
  158OSM     OF17712   1.073   0.793   3.267 -0.1232 -0.4459  0.2903
  158OSM    C2F17713   1.065   0.623   3.435  0.2885 -0.7016  0.1542
  158OSM    H2F17714   1.171   0.650   3.457 -0.6860  1.3187  2.9710
  158OSM    H2G17715   1.053   0.513   3.430  1.5827 -0.8871  0.6917
  158OSM    C3F17716   0.968   0.676   3.548 -0.5392 -0.7972 -0.1250
  158OSM    H3F17717   0.859   0.676   3.526 -0.6240  1.3962  0.1406
  158OSM    H3G17718   0.992   0.782   3.566 -2.6522 -0.4618  1.0450
  158OSM    C4F17719   0.996   0.599   3.679  0.7696  0.0313 -0.2538
  158OSM    H4F17720   1.078   0.644   3.738  0.5908 -0.7939  0.6393
  158OSM    H4G17721   1.032   0.494   3.665  1.5458 -0.0185  1.8565
  158OSM    C5F17722   0.877   0.597   3.777 -0.4676  0.0905 -0.1441
  158OSM    H5F17723   0.785   0.566   3.722 -0.1604 -1.2627  0.0774
  158OSM    H5G17724   0.877   0.708   3.783  2.4986  0.1249  0.8277
  158OSM    C6F17725   0.880   0.508   3.897  1.0280  0.7709 -0.3958
  158OSM    H6F17726   0.986   0.489   3.926  1.0967  2.8486  0.9416
  158OSM    H6G17727   0.835   0.407   3.887 -0.4892  1.1567  1.8200
  158OSM    C7F17728   0.819   0.581   4.018 -0.1317 -0.7996 -0.4455
  158OSM    H7F17729   0.712   0.603   3.996 -0.4752 -1.1132  0.8515
  158OSM    H7G17730   0.874   0.677   4.014  1.0404 -1.4453 -0.2406
  158OSM    C8F17731   0.841   0.512   4.158 -0.4329  0.5195 -0.2869
  158OSM    H8F17732   0.831   0.589   4.238  2.5829  0.3351  0.3618
  158OSM    H8G17733   0.941   0.466   4.149  0.4484  2.3229 -0.1456
  158OSM    C9F17734   0.743   0.397   4.158 -0.3307  0.2936  0.2051
  158OSM    H9F17735   0.712   0.365   4.057  2.7469  0.8634 -1.0254
  158OSM   C10F17736   0.703   0.324   4.266  0.3115  1.0009  0.5188
  158OSM   H10F17737   0.631   0.243   4.247  0.3053  1.0377  0.3848
  158OSM   C11F17738   0.752   0.346   4.411 -0.0436  0.1618 -0.1358
  158OSM   H11F17739   0.826   0.429   4.418  0.7202 -0.5759  0.8050
  158OSM   H11G17740   0.814   0.261   4.447  0.5532  0.7149  0.1764
  158OSM   C12F17741   0.629   0.356   4.514  0.0082 -0.0867  0.3937
  158OSM   H12F17742   0.549   0.284   4.491 -0.1674  0.7838 -1.9163
  158OSM   H12G17743   0.577   0.453   4.497 -1.4695 -0.2936  3.1481
  158OSM   C13F17744   0.669   0.358   4.664  0.7598 -0.8546 -0.2324
  158OSM   H13F17745   0.575   0.389   4.715 -0.1986 -1.8721 -1.3252
  158OSM   H13G17746   0.747   0.437   4.675 -0.1298 -0.0466  0.5261
  158OSM   C14F17747   0.707   0.232   4.736 -0.2991  0.6861 -0.7172
  158OSM   H14F17748   0.724   0.255   4.843 -1.8438  0.6129 -0.4462
  158OSM   H14G17749   0.801   0.183   4.703  1.7545  2.8251  1.5573
  158OSM   C15F17750   0.594   0.127   4.734 -0.1907 -0.0500 -0.8480
  158OSM   H15F17751   0.571   0.097   4.630 -0.7226  0.0477 -0.7622
  158OSM   H15G17752   0.511   0.187   4.777 -1.0651 -1.7431 -0.0617
  158OSM   C16F17753   0.632   0.010   4.821  0.3454  0.3258 -0.2352
  158OSM   H16F17754   0.726   0.028   4.877 -0.9037  2.1175  1.4086
  158OSM   H16G17755   0.658  -0.068   4.746  1.7651  0.1802  0.3890
  158OSM   C17F17756   0.534  -0.023   4.927  0.0793  0.2075 -0.3617
  158OSM   H17F17757   0.437  -0.064   4.890  0.9707 -1.2534 -1.1634
  158OSM   H17G17758   0.520   0.073   4.981 -0.7478  0.3462 -0.7999
  158OSM   C18F17759   0.581  -0.132   5.024 -0.3486 -0.3536 -0.4884
  158OSM   H18F17760   0.584  -0.229   4.969 -0.2385  0.6445 -2.3006
  158OSM   H18G17761   0.515  -0.146   5.112  0.3103 -2.6092 -0.2915
  158OSM   H18H17762   0.682  -0.110   5.063 -0.5913  2.4924 -1.2687
  159OSM      N17763   2.295   1.168   2.576 -0.6181  0.2300  0.5064
  159OSM    C1517764   2.441   1.146   2.611  0.1828  0.2544 -0.2256
  159OSM   H15A17765   2.498   1.121   2.523  0.3672  1.9803 -0.6283
  159OSM   H15B17766   2.470   1.075   2.687  0.8762 -0.0370 -0.7559
  159OSM   H15C17767   2.472   1.245   2.643 -0.8799  0.1305  1.3115
  159OSM    C1417768   2.293   1.267   2.464 -0.1281 -0.0225  0.6643
  159OSM   H14A17769   2.336   1.222   2.375 -0.2245 -2.2442  1.6606
  159OSM   H14B17770   2.352   1.355   2.485 -0.0591  0.2269 -0.4659
  159OSM   H14C17771   2.191   1.291   2.439 -0.0887 -1.2511 -0.9287
  159OSM    C1317772   2.225   1.047   2.530  0.4421 -0.5213 -0.1527
  159OSM   H13A17773   2.288   0.974   2.578  3.5341  0.6969 -2.0543
  159OSM   H13B17774   2.243   1.029   2.425 -1.3278 -2.1606 -0.2350
  159OSM   H13C17775   2.119   1.054   2.553  0.0369  2.1417 -2.2769
  159OSM    C1217776   2.217   1.233   2.697  0.2420  0.3746  0.3906
  159OSM   H12A17777   2.125   1.279   2.665  1.0707  2.4636  0.8645
  159OSM   H12B17778   2.275   1.320   2.721  0.4146  0.4770 -0.3518
  159OSM    C1117779   2.196   1.143   2.832  0.0192 -0.7304  0.5984
  159OSM   H11A17780   2.159   1.212   2.911  1.2586  1.2487 -0.4922
  159OSM   H11B17781   2.302   1.124   2.857  0.3810 -0.7808 -0.9237
  159OSM      P17782   1.957   1.038   2.804 -0.1945 -0.2498 -0.1441
  159OSM    O1317783   1.934   1.171   2.742  0.6437 -0.3621  0.0378
  159OSM    O1417784   1.905   0.920   2.735 -0.6464 -0.0614 -0.2438
  159OSM    O1117785   1.919   1.029   2.957  0.2964  1.0975  0.0629
  159OSM    O1217786   2.119   1.021   2.808  0.0044 -0.0148 -0.2207
  159OSM    C1S17787   2.015   0.970   3.053  0.2784  0.1241  0.1884
  159OSM    H1S17788   2.100   1.037   3.079 -0.2386  0.5334  0.8488
  159OSM    H1T17789   2.067   0.878   3.021 -0.1292  0.4224 -1.4186
  159OSM     NF17790   2.056   0.888   3.277 -0.0372  0.3907 -0.6440
  159OSM    HNF17791   2.081   0.792   3.278 -1.0464  0.0595  2.1542
  159OSM    C2S17792   1.955   0.934   3.189 -0.0164 -0.2220 -0.0569
  159OSM    H2S17793   1.905   1.020   3.238 -1.1393 -1.8869  1.8430
  159OSM    C3S17794   1.834   0.829   3.174 -0.3153 -0.4967  0.0747
  159OSM    H3S17795   1.878   0.736   3.133  2.3098  0.5797  0.2501
  159OSM     O317796   1.724   0.869   3.088 -0.2311 -0.0110 -0.0440
  159OSM    HO317797   1.757   0.945   3.040 -0.7727  0.7740  0.7907
  159OSM    C4S17798   1.775   0.797   3.307 -0.2060 -0.8554  0.0554
  159OSM    H4S17799   1.758   0.877   3.381 -0.1214 -0.2361 -0.5863
  159OSM    C5S17800   1.751   0.671   3.344  0.9798  0.4721  0.0712
  159OSM    H5S17801   1.768   0.594   3.267  1.4944 -0.0612  0.7074
  159OSM    C6S17802   1.695   0.623   3.479 -0.1692 -0.5321 -0.5240
  159OSM    H6S17803   1.740   0.522   3.489  0.7900  0.1000  2.7350
  159OSM    H6T17804   1.584   0.624   3.472 -0.1570  1.3758 -1.0609
  159OSM    C7S17805   1.750   0.706   3.597  0.8116 -0.0757 -0.7503
  159OSM    H7S17806   1.704   0.807   3.600  2.0287  0.4648  0.8041
  159OSM    H7T17807   1.860   0.715   3.603  0.7496 -0.2935  1.7453
  159OSM    C8S17808   1.703   0.639   3.728  0.3120  0.0603  0.7385
  159OSM    H8S17809   1.743   0.535   3.716 -3.3328 -1.3701 -0.3474
  159OSM    H8T17810   1.592   0.642   3.736  0.0645  0.6532 -2.0511
  159OSM    C9S17811   1.753   0.704   3.858  0.0477 -0.5292 -0.0895
  159OSM    H9S17812   1.755   0.815   3.858 -0.2490 -0.5184 -0.7089
  159OSM    H9T17813   1.860   0.678   3.877  0.7282  2.2565  0.2539
  159OSM   C10S17814   1.679   0.636   3.982  0.0842 -0.1238  0.2008
  159OSM   H10S17815   1.577   0.678   3.985  0.9273  2.0290  0.6240
  159OSM   H10T17816   1.729   0.670   4.075 -2.9300 -0.1924  1.9503
  159OSM   C11S17817   1.670   0.484   3.974 -0.2583 -0.3714 -0.0047
  159OSM   H11S17818   1.766   0.438   3.940 -0.6141 -2.7915  1.9186
  159OSM   H11T17819   1.594   0.455   3.899  0.9808 -4.5007  0.0785
  159OSM   C12S17820   1.639   0.411   4.104 -0.2367 -0.0327  0.3906
  159OSM   H12S17821   1.547   0.440   4.160 -0.2922  0.2915  0.1379
  159OSM   H12T17822   1.731   0.429   4.163  1.8511 -0.3388 -2.5732
  159OSM   C13S17823   1.652   0.259   4.077  0.1177  0.8252 -0.1423
  159OSM   H13S17824   1.752   0.231   4.038 -0.3575 -0.0460 -0.7618
  159OSM   H13T17825   1.569   0.227   4.010 -0.3178  0.6041  0.4878
  159OSM   C14S17826   1.654   0.176   4.207 -0.0910 -0.3309  0.0088
  159OSM   H14S17827   1.564   0.212   4.262  0.9008  1.4339  0.5665
  159OSM   H14T17828   1.736   0.208   4.275 -1.4194  1.5364  0.8122
  159OSM   C15S17829   1.653   0.028   4.168  0.0008 -0.6156  0.4111
  159OSM   H15S17830   1.754  -0.003   4.135  0.3327  0.6889  0.1631
  159OSM   H15T17831   1.583   0.020   4.082  1.3832  0.1388 -0.8258
  159OSM   C16S17832   1.604  -0.066   4.279  0.4276 -0.8914 -0.0567
  159OSM   H16S17833   1.497  -0.044   4.300  0.4583  0.1034 -0.8645
  159OSM   H16T17834   1.647  -0.045   4.380 -0.6185 -2.3544  0.7332
  159OSM   C17S17835   1.605  -0.219   4.252 -0.0410 -0.2198 -0.0063
  159OSM   H17S17836   1.708  -0.260   4.246  0.5953  1.0475  1.5150
  159OSM   H17T17837   1.542  -0.236   4.162 -0.6596  1.5897  0.0420
  159OSM   C18S17838   1.549  -0.291   4.377 -0.3521  0.1901  0.4494
  159OSM   H18S17839   1.456  -0.244   4.415 -0.8353 -1.0112  0.7945
  159OSM   H18T17840   1.636  -0.276   4.444  1.1408  0.1893 -1.3904
  159OSM   H18U17841   1.531  -0.398   4.356  1.1452 -0.2237  1.1341
  159OSM    C1F17842   2.148   0.967   3.339  0.3788 -0.6968 -0.2110
  159OSM     OF17843   2.128   1.088   3.348  0.1540 -0.4398  0.3424
  159OSM    C2F17844   2.275   0.909   3.396 -0.4446  0.1835 -0.4830
  159OSM    H2F17845   2.356   0.942   3.327 -0.3379  0.6302 -0.1412
  159OSM    H2G17846   2.281   0.798   3.405 -0.7971  0.2234  0.3027
  159OSM    C3F17847   2.320   0.973   3.525 -0.8531 -0.5276  0.1655
  159OSM    H3F17848   2.352   1.078   3.506 -1.8017 -0.3391 -0.4484
  159OSM    H3G17849   2.418   0.924   3.544  0.1214  0.9645 -0.8211
  159OSM    C4F17850   2.220   0.965   3.638 -0.5260 -0.3698 -0.6280
  159OSM    H4F17851   2.126   1.019   3.612 -2.5051 -3.0789  0.3853
  159OSM    H4G17852   2.270   1.019   3.722  0.1959 -4.4975  1.8801
  159OSM    C5F17853   2.198   0.817   3.680  0.7638 -0.7678  0.1378
  159OSM    H5F17854   2.299   0.772   3.685  0.5357 -1.2057  1.0124
  159OSM    H5G17855   2.134   0.754   3.614 -0.9907 -0.2565  1.2631
  159OSM    C6F17856   2.146   0.817   3.823 -0.1568 -0.2986  0.9550
  159OSM    H6F17857   2.108   0.715   3.847 -1.7756  0.2578  0.9074
  159OSM    H6G17858   2.060   0.883   3.849 -1.5534 -2.2063  1.4322
  159OSM    C7F17859   2.255   0.846   3.927 -0.0477 -0.3501  0.4680
  159OSM    H7F17860   2.253   0.957   3.927 -0.9443 -0.3213 -1.8070
  159OSM    H7G17861   2.354   0.808   3.894 -1.2758 -1.3412 -2.4153
  159OSM    C8F17862   2.201   0.783   4.063 -0.0392 -0.3521 -1.1627
  159OSM    H8F17863   2.200   0.674   4.043 -0.5078 -0.7297  0.6811
  159OSM    H8G17864   2.100   0.826   4.083  0.1486  0.1127 -1.2093
  159OSM    C9F17865   2.299   0.809   4.172  0.4431  0.1022  0.0010
  159OSM    H9F17866   2.398   0.849   4.145 -0.0572  1.2512 -0.1550
  159OSM   C10F17867   2.264   0.825   4.301  0.2719 -0.5394 -0.1436
  159OSM   H10F17868   2.342   0.858   4.372 -0.2570 -0.6009  0.4814
  159OSM   C11F17869   2.126   0.808   4.358 -0.3288 -0.2284  0.5069
  159OSM   H11F17870   2.063   0.735   4.304 -1.4430  1.6838 -0.9050
  159OSM   H11G17871   2.082   0.910   4.359  3.2415  1.4800 -0.1051
  159OSM   C12F17872   2.142   0.758   4.504  0.0649 -0.7562  0.1035
  159OSM   H12F17873   2.210   0.670   4.504 -0.5511 -1.2363 -0.2106
  159OSM   H12G17874   2.042   0.726   4.540  0.2931  0.3972  1.8948
  159OSM   C13F17875   2.201   0.855   4.608 -0.4979  0.5956 -0.3150
  159OSM   H13F17876   2.298   0.897   4.573 -0.5987  2.5511  1.5986
  159OSM   H13G17877   2.229   0.798   4.699  1.3524 -0.8259 -1.6624
  159OSM   C14F17878   2.110   0.977   4.649 -1.0849  0.1469  0.3455
  159OSM   H14F17879   2.005   0.946   4.666 -1.2883  0.9119  0.5168
  159OSM   H14G17880   2.105   1.046   4.563 -0.4414 -0.3608 -0.1176
  159OSM   C15F17881   2.163   1.048   4.778 -0.0918  0.1798  0.2104
  159OSM   H15F17882   2.264   1.091   4.761  0.2809 -1.2171 -1.3821
  159OSM   H15G17883   2.161   0.971   4.858  3.5839  1.0823  1.3616
  159OSM   C16F17884   2.070   1.152   4.828 -0.2853 -0.6250 -0.7454
  159OSM   H16F17885   1.973   1.107   4.857 -0.8199  0.4633 -0.8193
  159OSM   H16G17886   2.055   1.237   4.758 -2.2842  0.0537  0.4468
  159OSM   C17F17887   2.118   1.212   4.962 -0.5145  0.5188  0.2760
  159OSM   H17F17888   2.221   1.251   4.948 -1.1357  1.4646 -2.2887
  159OSM   H17G17889   2.119   1.127   5.034 -0.8084 -1.9190 -2.3941
  159OSM   C18F17890   2.026   1.319   5.013  0.4788 -0.3077 -0.2253
  159OSM   H18F17891   1.920   1.288   5.003  1.0317 -1.5128 -4.1003
  159OSM   H18G17892   2.038   1.413   4.955  1.6443 -0.1799  0.1876
  159OSM   H18H17893   2.051   1.350   5.117 -1.6652 -0.3587  0.3585
  160OSM      N17894   6.255   0.755   2.127 -0.3107  0.8602 -0.6456
  160OSM    C1517895   6.370   0.848   2.121 -0.0747 -0.6953 -0.8792
  160OSM   H15A17896   6.354   0.926   2.048  0.5775  0.6450  0.3590
  160OSM   H15B17897   6.453   0.782   2.100 -0.0838 -0.3930 -1.9159
  160OSM   H15C17898   6.387   0.902   2.213  0.0422 -0.7039 -0.8952
  160OSM    C1417899   6.131   0.829   2.158 -0.4502 -0.4403 -0.3775
  160OSM   H14A17900   6.159   0.912   2.221  0.3955 -1.1409  0.1989
  160OSM   H14B17901   6.060   0.764   2.207 -0.0795 -1.2323 -0.8633
  160OSM   H14C17902   6.087   0.867   2.067  1.6443  0.7224 -0.9889
  160OSM    C1317903   6.240   0.690   1.988 -0.0476 -0.8149 -0.1034
  160OSM   H13A17904   6.155   0.624   1.990 -0.6706 -0.0187  1.8506
  160OSM   H13B17905   6.324   0.636   1.947  1.9343  2.5128 -0.8110
  160OSM   H13C17906   6.223   0.762   1.909  1.0996  0.3015  0.6176
  160OSM    C1217907   6.278   0.649   2.231 -0.4711 -0.0576 -0.6481
  160OSM   H12A17908   6.371   0.597   2.214 -0.3064 -0.0184  0.1074
  160OSM   H12B17909   6.200   0.575   2.223 -0.5915  0.0244 -0.2441
  160OSM    C1117910   6.276   0.694   2.382  0.3158 -0.6273  0.5411
  160OSM   H11A17911   6.346   0.776   2.407 -1.9676  1.5120  0.3593
  160OSM   H11B17912   6.325   0.612   2.438  0.0422 -1.0355  0.1919
  160OSM      P17913   6.054   0.602   2.481 -0.5273 -0.0582  0.2066
  160OSM    O1317914   5.910   0.611   2.439  0.3361 -0.1852 -0.4642
  160OSM    O1417915   6.117   0.469   2.452  0.4461 -0.5069  0.4594
  160OSM    O1117916   6.053   0.616   2.635  0.4633  1.1741  0.4913
  160OSM    O1217917   6.140   0.723   2.430  0.3379 -0.2302 -0.2686
  160OSM    C1S17918   6.130   0.705   2.713 -0.0179  0.1371  0.3545
  160OSM    H1S17919   6.084   0.803   2.686  0.7726  0.3146 -0.3722
  160OSM    H1T17920   6.237   0.703   2.685 -0.3157  1.8951 -1.1336
  160OSM     NF17921   6.113   0.788   2.961 -0.4718 -0.3259  0.5820
  160OSM    HNF17922   6.200   0.796   3.010 -0.6065  2.2797  0.5727
  160OSM    C2S17923   6.109   0.676   2.866 -0.0973 -0.4703  0.1018
  160OSM    H2S17924   6.006   0.635   2.868 -0.7532  1.0083 -1.2800
  160OSM    C3S17925   6.194   0.548   2.906  0.2486  0.0482  0.0364
  160OSM    H3S17926   6.302   0.567   2.889  0.6691 -2.7315 -0.9302
  160OSM     O317927   6.168   0.436   2.823 -0.2522  0.4903 -0.3984
  160OSM    HO317928   6.113   0.470   2.752 -0.2885 -1.4318 -1.3474
  160OSM    C4S17929   6.169   0.518   3.062 -0.3976  0.4333  0.2458
  160OSM    H4S17930   6.219   0.591   3.128  3.1937  0.2135 -1.9745
  160OSM    C5S17931   6.085   0.424   3.110 -0.3946 -0.3046 -0.4676
  160OSM    H5S17932   6.031   0.354   3.044 -2.3472 -2.7115  3.3285
  160OSM    C6S17933   6.044   0.416   3.251 -0.2792  0.4206  0.0979
  160OSM    H6S17934   6.038   0.308   3.277  0.3758  0.5455  0.7890
  160OSM    H6T17935   5.936   0.442   3.254 -0.4604 -0.3615  0.4915
  160OSM    C7S17936   6.109   0.488   3.365  0.3173 -0.2293 -0.3153
  160OSM    H7S17937   6.122   0.595   3.337 -2.5286  0.0994 -0.7202
  160OSM    H7T17938   6.209   0.447   3.390 -0.3571 -1.3419  0.6331
  160OSM    C8S17939   6.026   0.478   3.496 -0.0372 -0.1906  0.0398
  160OSM    H8S17940   6.029   0.371   3.527  0.9348  0.2409  1.5908
  160OSM    H8T17941   5.919   0.505   3.486 -0.1386  0.1850  1.7726
  160OSM    C9S17942   6.082   0.562   3.603 -0.0146 -0.1644 -0.4322
  160OSM    H9S17943   6.094   0.665   3.564 -0.4952  0.3618  0.7934
  160OSM    H9T17944   6.186   0.529   3.624 -1.0613 -1.8099  2.8348
  160OSM   C10S17945   5.992   0.574   3.721 -0.1932  0.0922 -0.0668
  160OSM   H10S17946   5.981   0.475   3.770 -0.0679 -1.1129 -2.3311
  160OSM   H10T17947   5.890   0.606   3.690 -0.0984  0.6073  0.1543
  160OSM   C11S17948   6.046   0.675   3.826 -0.1575  0.8036 -0.2629
  160OSM   H11S17949   6.094   0.759   3.771  3.2608 -1.2039 -0.6095
  160OSM   H11T17950   6.132   0.635   3.884 -0.9841  0.4486  0.7677
  160OSM   C12S17951   5.935   0.732   3.927  0.3911 -0.0277  0.7284
  160OSM   H12S17952   5.915   0.643   3.990  1.6835 -1.1267 -0.3563
  160OSM   H12T17953   5.849   0.762   3.863 -1.0364 -3.0882  1.0269
  160OSM   C13S17954   5.991   0.844   4.004 -0.7491 -0.2582 -0.0108
  160OSM   H13S17955   6.006   0.923   3.928  0.6459 -0.9330 -0.4783
  160OSM   H13T17956   6.095   0.836   4.043 -0.7754 -0.4957  0.0150
  160OSM   C14S17957   5.907   0.900   4.123  0.1003  0.7088  0.5434
  160OSM   H14S17958   5.814   0.940   4.078 -0.2792 -1.1209 -0.3987
  160OSM   H14T17959   5.960   0.982   4.175 -0.5290  0.9671  0.7878
  160OSM   C15S17960   5.876   0.788   4.219 -0.0319 -0.1332 -0.5040
  160OSM   H15S17961   5.964   0.722   4.233 -0.5554 -0.7240  0.0731
  160OSM   H15T17962   5.802   0.719   4.173  0.4451 -0.0520 -1.4137
  160OSM   C16S17963   5.843   0.835   4.365 -0.8043 -0.0202  0.0997
  160OSM   H16S17964   5.752   0.898   4.351 -1.4861 -1.0416 -0.1492
  160OSM   H16T17965   5.930   0.896   4.397 -2.9033  3.9427 -1.0867
  160OSM   C17S17966   5.822   0.715   4.452 -1.1349  0.0427  0.1319
  160OSM   H17S17967   5.759   0.639   4.401  1.2070 -1.5558 -0.5225
  160OSM   H17T17968   5.785   0.749   4.551 -0.0648  2.6089 -0.2654
  160OSM   C18S17969   5.949   0.635   4.491 -1.1182  0.0195  0.2492
  160OSM   H18S17970   5.923   0.545   4.550  1.0005 -0.9699 -0.2244
  160OSM   H18T17971   6.016   0.701   4.549  0.2108 -2.2384  1.3930
  160OSM   H18U17972   6.001   0.603   4.398  1.7919 -1.7361  2.3273
  160OSM    C1F17973   6.039   0.896   2.961 -0.6724 -0.4134 -0.5852
  160OSM     OF17974   5.942   0.915   2.899  0.2163  0.0710  0.5545
  160OSM    C2F17975   6.097   0.999   3.052 -0.2934 -0.3645 -0.0972
  160OSM    H2F17976   6.185   1.048   3.006 -1.0107  2.7707  1.5795
  160OSM    H2G17977   6.134   0.948   3.144  0.0104 -1.1918 -0.6728
  160OSM    C3F17978   5.990   1.097   3.085  0.1621  0.1155  0.3163
  160OSM    H3F17979   5.893   1.047   3.106  1.0320 -1.1028  1.6588
  160OSM    H3G17980   5.982   1.161   2.995  2.2582  0.8727  0.6053
  160OSM    C4F17981   6.033   1.180   3.203  0.3167  0.0714 -0.0523
  160OSM    H4F17982   6.132   1.221   3.174  1.9131 -2.8264  0.9759
  160OSM    H4G17983   6.054   1.119   3.293  1.0918 -0.9333 -0.8817
  160OSM    C5F17984   5.945   1.302   3.233  0.7362 -0.2912  0.8025
  160OSM    H5F17985   5.846   1.267   3.270  0.3125 -1.6969 -1.4568
  160OSM    H5G17986   5.930   1.358   3.138  1.2224  0.7644  1.3276
  160OSM    C6F17987   6.015   1.395   3.324 -0.0291 -0.6424 -0.9265
  160OSM    H6F17988   6.122   1.420   3.308 -0.0261 -0.0035 -0.0182
  160OSM    H6G17989   6.013   1.351   3.426  2.0624  0.7330 -0.2293
  160OSM    C7F17990   5.941   1.527   3.323 -0.0798  0.3427  0.2680
  160OSM    H7F17991   5.834   1.498   3.330  0.5542 -1.6998  2.6724
  160OSM    H7G17992   5.958   1.584   3.229  2.3509  0.9084  0.9702
  160OSM    C8F17993   5.965   1.622   3.444  0.3669  0.5751 -0.9672
  160OSM    H8F17994   6.072   1.654   3.449  1.3695 -2.4547 -1.3217
  160OSM    H8G17995   5.941   1.566   3.536  1.7109 -0.7218 -1.3687
  160OSM    C9F17996   5.884   1.751   3.450 -0.1854  0.2881 -0.0769
  160OSM    H9F17997   5.867   1.782   3.346  0.2747 -1.2985 -0.6506
  160OSM   C10F17998   5.818   1.816   3.551 -1.3244 -0.7144  0.3964
  160OSM   H10F17999   5.788   1.920   3.532  0.4565 -0.5035 -1.6602
  160OSM   C11F18000   5.827   1.774   3.693  0.3152 -0.1496  0.0425
  160OSM   H11F18001   5.927   1.810   3.725 -0.5914  2.7100 -0.0379
  160OSM   H11G18002   5.821   1.664   3.708 -0.1152 -0.1990 -0.4364
  160OSM   C12F18003   5.724   1.848   3.772  0.4189 -1.1075  0.2790
  160OSM   H12F18004   5.703   1.953   3.744  0.8088 -1.0188  0.3109
  160OSM   H12G18005   5.736   1.845   3.883  1.7007 -2.1539  0.1439
  160OSM   C13F18006   5.582   1.788   3.752 -0.1946  0.3460 -0.1246
  160OSM   H13F18007   5.548   1.814   3.649 -0.4134 -2.8200 -0.9447
  160OSM   H13G18008   5.517   1.840   3.824 -0.4961  1.0160 -0.8606
  160OSM   C14F18009   5.557   1.632   3.761  0.3499 -0.6908 -0.4298
  160OSM   H14F18010   5.585   1.600   3.864  3.2250  0.2435 -0.8469
  160OSM   H14G18011   5.627   1.584   3.690  2.0667  1.4398 -0.2505
  160OSM   C15F18012   5.410   1.590   3.738  0.6560 -0.0752 -1.2204
  160OSM   H15F18013   5.414   1.492   3.686  0.8700 -0.8376  0.1731
  160OSM   H15G18014   5.367   1.670   3.674  3.2683  0.8844 -1.9223
  160OSM   C16F18015   5.330   1.565   3.869 -1.1942  0.1675  0.6480
  160OSM   H16F18016   5.390   1.507   3.942 -2.0028  0.2377  1.3781
  160OSM   H16G18017   5.236   1.507   3.853 -0.9035 -0.2487  0.4198
  160OSM   C17F18018   5.292   1.702   3.940 -0.0692  0.6201  0.0730
  160OSM   H17F18019   5.235   1.773   3.876  0.0658 -0.2202 -1.0213
  160OSM   H17G18020   5.384   1.753   3.975  0.6288 -0.3749 -0.2595
  160OSM   C18F18021   5.212   1.676   4.069  0.6845 -0.8180  0.1807
  160OSM   H18F18022   5.271   1.673   4.163 -0.8600  0.0683  1.2172
  160OSM   H18G18023   5.157   1.580   4.056  1.9511 -1.4809 -0.4475
  160OSM   H18H18024   5.144   1.763   4.080  2.1115  0.1885  1.5188
  161OSM      N18025   3.820   1.056   2.746  0.7221 -0.2929 -0.8788
  161OSM    C1518026   3.763   0.961   2.646  0.2829 -0.2322  0.1591
  161OSM   H15A18027   3.834   0.925   2.573 -0.7597 -0.8948 -0.5644
  161OSM   H15B18028   3.676   1.011   2.606 -0.3493  0.0914  1.8518
  161OSM   H15C18029   3.728   0.881   2.710 -1.5359  1.4426  1.3674
  161OSM    C1418030   3.926   0.990   2.833 -0.2097  0.0876  0.2166
  161OSM   H14A18031   3.881   0.911   2.891 -0.6951 -1.2286 -1.8136
  161OSM   H14B18032   3.968   1.069   2.893 -0.2878 -0.3010  0.7924
  161OSM   H14C18033   4.004   0.949   2.770 -1.9447  0.2576 -2.1974
  161OSM    C1318034   3.869   1.167   2.665 -0.2863 -0.1725 -0.1484
  161OSM   H13A18035   3.953   1.140   2.603 -2.3887 -1.8261 -2.4877
  161OSM   H13B18036   3.905   1.249   2.726  1.6990 -0.9112 -0.2555
  161OSM   H13C18037   3.790   1.201   2.599 -2.9216  0.1323  2.8853
  161OSM    C1218038   3.714   1.116   2.836 -0.3227  0.9759  0.1931
  161OSM   H12A18039   3.644   1.161   2.768 -1.0789 -2.5264 -1.5463
  161OSM   H12B18040   3.767   1.195   2.887  1.2547  0.2724 -0.2859
  161OSM    C1118041   3.637   1.025   2.931 -0.0791  0.3397  0.2117
  161OSM   H11A18042   3.565   1.082   2.993 -2.0598 -1.8152  0.0532
  161OSM   H11B18043   3.698   0.974   3.009 -0.9790 -0.6604  0.2916
  161OSM      P18044   3.413   0.938   2.814 -0.3615 -0.3942  0.0297
  161OSM    O1318045   3.387   1.076   2.759 -0.2220  0.4162  0.3335
  161OSM    O1418046   3.387   0.818   2.737  0.3198 -0.1006 -0.4255
  161OSM    O1118047   3.344   0.935   2.955 -0.2721  0.3045  0.0364
  161OSM    O1218048   3.562   0.920   2.865 -0.1970  0.9864  0.3214
  161OSM    C1S18049   3.347   0.828   3.050 -0.0029 -0.4819 -0.6846
  161OSM    H1S18050   3.427   0.755   3.024  1.7310  1.3080 -0.6791
  161OSM    H1T18051   3.244   0.786   3.051 -0.6868  1.0241  2.2455
  161OSM     NF18052   3.382   0.793   3.301  0.1822 -0.5702  0.0389
  161OSM    HNF18053   3.294   0.775   3.345  0.1080  0.9764  0.5917
  161OSM    C2S18054   3.384   0.892   3.194  0.5550 -0.9516  0.4227
  161OSM    H2S18055   3.490   0.924   3.192 -0.2012  1.7812  0.3460
  161OSM    C3S18056   3.299   1.019   3.225  0.0463 -0.1118  0.6110
  161OSM    H3S18057   3.195   0.982   3.244 -1.1149  1.5118 -1.9899
  161OSM     O318058   3.272   1.112   3.119 -0.3173  0.8360 -0.1177
  161OSM    HO318059   3.297   1.058   3.044 -0.7466  0.5807 -0.0806
  161OSM    C4S18060   3.348   1.095   3.342  0.0464 -0.8542 -0.3213
  161OSM    H4S18061   3.293   1.065   3.432  0.7066  3.7569  1.9224
  161OSM    C5S18062   3.440   1.197   3.360 -0.8197  0.4932  0.2270
  161OSM    H5S18063   3.490   1.229   3.267 -0.6351  1.2039  0.5618
  161OSM    C6S18064   3.484   1.271   3.490  0.4825  0.5041  0.5433
  161OSM    H6S18065   3.448   1.376   3.491  0.2464  0.4334  2.0394
  161OSM    H6T18066   3.595   1.273   3.492  0.5042 -0.4395  1.8061
  161OSM    C7S18067   3.451   1.201   3.626 -0.4336  0.0292  0.3866
  161OSM    H7S18068   3.475   1.093   3.621  2.2503  0.5995 -2.3757
  161OSM    H7T18069   3.341   1.202   3.636 -0.3580  0.3367  1.2280
  161OSM    C8S18070   3.530   1.260   3.743 -0.3355  0.2213  0.2456
  161OSM    H8S18071   3.506   1.367   3.760 -1.0846 -0.0350  0.8516
  161OSM    H8T18072   3.638   1.257   3.717  0.3187  2.6079  2.3151
  161OSM    C9S18073   3.513   1.194   3.883  0.1744 -0.0132 -0.1196
  161OSM    H9S18074   3.516   1.085   3.863 -1.7709  0.0403 -0.9183
  161OSM    H9T18075   3.416   1.222   3.930 -0.3151 -0.0592 -1.0777
  161OSM   C10S18076   3.625   1.229   3.973 -0.2122 -0.0862  0.5347
  161OSM   H10S18077   3.658   1.335   3.961 -0.9417  0.0696 -0.2174
  161OSM   H10T18078   3.714   1.169   3.944 -0.0451  0.1440  0.5680
  161OSM   C11S18079   3.583   1.203   4.113  0.1544 -0.0593 -0.3322
  161OSM   H11S18080   3.570   1.093   4.125  1.6102 -0.2427 -0.1885
  161OSM   H11T18081   3.487   1.256   4.126  0.6435  0.9586 -0.7562
  161OSM   C12S18082   3.679   1.251   4.226 -0.2106 -0.2494 -0.1325
  161OSM   H12S18083   3.694   1.359   4.207 -2.1250  0.6047  2.7345
  161OSM   H12T18084   3.776   1.200   4.205 -0.3048 -0.6457  0.3872
  161OSM   C13S18085   3.630   1.236   4.372 -0.2705  0.3282  0.0545
  161OSM   H13S18086   3.649   1.136   4.415  0.6971  1.3342  2.1246
  161OSM   H13T18087   3.521   1.259   4.367 -0.2500  0.2253 -1.0015
  161OSM   C14S18088   3.703   1.338   4.462 -0.7193 -0.4242 -0.2587
  161OSM   H14S18089   3.704   1.437   4.412 -0.1476  0.2312  0.9997
  161OSM   H14T18090   3.810   1.307   4.461 -0.9008 -1.0807 -2.0206
  161OSM   C15S18091   3.635   1.361   4.600 -0.0740 -0.6368 -0.1913
  161OSM   H15S18092   3.641   1.264   4.654  1.5438  0.5975  2.0523
  161OSM   H15T18093   3.530   1.378   4.570 -0.3158  0.5811  1.2222
  161OSM   C16S18094   3.693   1.464   4.693 -0.4747 -0.2930  0.1784
  161OSM   H16S18095   3.799   1.445   4.719  0.4535  4.7323  1.0272
  161OSM   H16T18096   3.640   1.456   4.790 -1.6974  2.6007 -0.1359
  161OSM   C17S18097   3.675   1.610   4.655  0.1432 -0.0938 -0.8740
  161OSM   H17S18098   3.567   1.636   4.653  0.4832  1.5027 -0.2352
  161OSM   H17T18099   3.707   1.629   4.550 -1.6795 -1.5303 -1.7480
  161OSM   C18S18100   3.756   1.704   4.748 -0.6518 -0.3763  1.2068
  161OSM   H18S18101   3.731   1.810   4.726  1.7930 -0.1230 -0.8420
  161OSM   H18T18102   3.862   1.693   4.716 -0.0841  0.3090  2.7427
  161OSM   H18U18103   3.736   1.684   4.855 -3.9330 -1.1823  0.5287
  161OSM    C1F18104   3.458   0.682   3.291 -0.9334 -0.2989  0.4346
  161OSM     OF18105   3.558   0.684   3.222 -0.3505  0.5880  0.1837
  161OSM    C2F18106   3.424   0.569   3.382 -0.6962  0.0432 -0.0883
  161OSM    H2F18107   3.342   0.519   3.326  0.1927  1.3396 -2.7338
  161OSM    H2G18108   3.384   0.616   3.474 -0.4323 -1.9378  1.0824
  161OSM    C3F18109   3.536   0.468   3.417 -0.4254  0.0849  0.8416
  161OSM    H3F18110   3.626   0.517   3.459  1.1976  0.2023 -2.4381
  161OSM    H3G18111   3.574   0.432   3.319 -3.0394  0.2150 -0.3032
  161OSM    C4F18112   3.470   0.358   3.506  0.2042 -0.2475 -0.3949
  161OSM    H4F18113   3.392   0.311   3.443  2.6203 -0.6928 -3.2707
  161OSM    H4G18114   3.428   0.403   3.599  2.2218 -0.3838  0.6519
  161OSM    C5F18115   3.562   0.248   3.559 -0.2213  0.0583  0.1535
  161OSM    H5F18116   3.634   0.232   3.476 -0.4126 -1.7032  0.3079
  161OSM    H5G18117   3.512   0.149   3.562  1.7288 -1.1517 -2.8336
  161OSM    C6F18118   3.633   0.295   3.690 -0.3766  0.0648  0.0799
  161OSM    H6F18119   3.560   0.279   3.773 -2.3252  1.4942 -1.2730
  161OSM    H6G18120   3.661   0.402   3.688 -1.2967  0.3019 -0.7072
  161OSM    C7F18121   3.764   0.225   3.709 -0.3909  0.4949  1.3248
  161OSM    H7F18122   3.830   0.241   3.621  0.3141 -1.9675  1.3295
  161OSM    H7G18123   3.739   0.117   3.717  0.9592  0.1796  1.6178
  161OSM    C8F18124   3.836   0.264   3.838  1.0310 -0.1145 -0.5042
  161OSM    H8F18125   3.838   0.375   3.846  1.3737 -0.2044  1.0322
  161OSM    H8G18126   3.943   0.249   3.816  1.3626 -0.1907  1.0396
  161OSM    C9F18127   3.787   0.194   3.964 -0.2866 -0.1193  0.1188
  161OSM    H9F18128   3.802   0.085   3.960  0.4990  0.0128 -0.6843
  161OSM   C10F18129   3.719   0.253   4.065  0.4245  0.0976  0.0267
  161OSM   H10F18130   3.691   0.190   4.151  1.0396  0.1603  0.2723
  161OSM   C11F18131   3.688   0.396   4.084  0.3442  0.2457 -0.5434
  161OSM   H11F18132   3.585   0.410   4.123  0.7201  0.9517  0.2330
  161OSM   H11G18133   3.710   0.466   4.000 -1.9876  1.8538  0.0753
  161OSM   C12F18134   3.765   0.443   4.206 -0.0368 -0.0726  0.3117
  161OSM   H12F18135   3.779   0.553   4.214  0.3502 -0.1954  1.5465
  161OSM   H12G18136   3.872   0.412   4.202  0.1595  0.4683  0.9770
  161OSM   C13F18137   3.709   0.409   4.348 -0.1094 -0.1542  0.2710
  161OSM   H13F18138   3.711   0.300   4.367 -1.4807 -0.6706 -2.0940
  161OSM   H13G18139   3.604   0.443   4.354 -0.5128 -1.5395  1.2636
  161OSM   C14F18140   3.802   0.468   4.463  0.3155  0.1777 -0.0810
  161OSM   H14F18141   3.844   0.565   4.426 -0.2464 -0.0748 -1.4526
  161OSM   H14G18142   3.888   0.398   4.473 -1.4292 -1.8828  1.3392
  161OSM   C15F18143   3.738   0.486   4.605  0.3474 -0.4913  0.2678
  161OSM   H15F18144   3.652   0.555   4.592  1.6758  1.3174  0.6609
  161OSM   H15G18145   3.805   0.548   4.668  1.9648  1.4103 -3.0261
  161OSM   C16F18146   3.707   0.357   4.669 -0.3884 -0.2550 -0.5850
  161OSM   H16F18147   3.710   0.383   4.777  3.5333 -0.7544 -0.4448
  161OSM   H16G18148   3.790   0.286   4.650  0.7491  0.2509  1.9576
  161OSM   C17F18149   3.582   0.287   4.635 -0.5833 -0.2928  0.1714
  161OSM   H17F18150   3.598   0.188   4.684  0.2150 -0.9779 -1.4053
  161OSM   H17G18151   3.573   0.272   4.526  1.3294  0.2936 -0.0896
  161OSM   C18F18152   3.452   0.365   4.668 -0.8417 -0.0927 -0.0618
  161OSM   H18F18153   3.460   0.466   4.622 -2.6161  0.1051 -0.0305
  161OSM   H18G18154   3.442   0.393   4.775 -1.4433  2.5577 -0.7309
  161OSM   H18H18155   3.356   0.322   4.631 -0.7971 -1.8787  1.7721
  162OSM      N18156   4.840   0.559   2.575 -0.1866  0.3682  0.1658
  162OSM    C1518157   4.918   0.462   2.489  0.0303  0.0116  0.3807
  162OSM   H15A18158   4.980   0.392   2.544 -0.5729 -0.4575  0.4846
  162OSM   H15B18159   4.970   0.513   2.409  1.1382 -1.3564  0.1821
  162OSM   H15C18160   4.844   0.397   2.444 -0.4666  0.3662  0.6753
  162OSM    C1418161   4.933   0.668   2.615 -0.0509  0.5148  0.1000
  162OSM   H14A18162   4.952   0.732   2.529 -1.5265 -1.2521 -1.6394
  162OSM   H14B18163   5.024   0.626   2.655 -1.0625 -0.4489  1.4650
  162OSM   H14C18164   4.893   0.720   2.700  0.9265 -1.4437  1.8509
  162OSM    C1318165   4.728   0.618   2.492  0.6145 -0.0131  0.3091
  162OSM   H13A18166   4.753   0.671   2.402  0.5042 -1.2843 -0.4770
  162OSM   H13B18167   4.657   0.671   2.555  0.3013  0.1155 -0.1452
  162OSM   H13C18168   4.679   0.525   2.469 -1.3631  0.4548  2.2137
  162OSM    C1218169   4.796   0.483   2.698  0.8570 -0.2236  0.3818
  162OSM   H12A18170   4.885   0.439   2.740  0.7439 -0.2833  0.5608
  162OSM   H12B18171   4.731   0.400   2.675 -0.0010 -0.7201  3.9881
  162OSM    C1118172   4.722   0.563   2.806 -0.6540  0.3010 -0.1829
  162OSM   H11A18173   4.775   0.653   2.842 -0.9518  0.2635  0.3566
  162OSM   H11B18174   4.721   0.501   2.898 -1.5847  0.5983  0.0163
  162OSM      P18175   4.484   0.476   2.753 -0.0297 -0.0614 -0.0851
  162OSM    O1318176   4.348   0.533   2.777 -0.2797  0.0410 -0.2390
  162OSM    O1418177   4.509   0.409   2.625  0.4062  0.0767 -0.0713
  162OSM    O1118178   4.531   0.379   2.865  0.0983  0.2436  0.5512
  162OSM    O1218179   4.590   0.594   2.763  0.3205 -0.8699  0.0372
  162OSM    C1S18180   4.457   0.258   2.896  0.0220 -0.2322  0.5229
  162OSM    H1S18181   4.480   0.173   2.829 -0.6375 -0.9797  1.2218
  162OSM    H1T18182   4.349   0.285   2.895  0.0449 -0.1072 -0.8330
  162OSM     NF18183   4.435   0.090   3.074 -0.2973  0.0577 -0.1311
  162OSM    HNF18184   4.355   0.105   3.131 -1.4360 -1.5842 -1.2184
  162OSM    C2S18185   4.499   0.213   3.041  0.4763  0.2979 -0.6948
  162OSM    H2S18186   4.608   0.194   3.048  0.4005  0.1992  0.6300
  162OSM    C3S18187   4.473   0.316   3.155  0.2798 -1.1697 -0.0082
  162OSM    H3S18188   4.367   0.345   3.142  1.0158  1.3785 -0.8743
  162OSM     O318189   4.540   0.445   3.154 -0.6726 -0.3773  0.7537
  162OSM    HO318190   4.538   0.458   3.059 -1.2186 -1.3321  0.6161
  162OSM    C4S18191   4.487   0.259   3.302  0.6904  0.3722  0.2043
  162OSM    H4S18192   4.387   0.240   3.344 -1.0088  1.1647 -3.1074
  162OSM    C5S18193   4.600   0.242   3.371 -0.1105 -1.0058 -0.1263
  162OSM    H5S18194   4.691   0.284   3.325 -0.2150  0.0793  0.6131
  162OSM    C6S18195   4.613   0.188   3.506 -0.8032  0.3694 -0.3059
  162OSM    H6S18196   4.661   0.263   3.573 -2.1487 -0.1689  1.3112
  162OSM    H6T18197   4.688   0.106   3.499 -1.5247 -0.6887  2.8059
  162OSM    C7S18198   4.496   0.115   3.566  0.2266  0.0888 -0.0743
  162OSM    H7S18199   4.454   0.029   3.510  0.9908 -1.7085  1.9676
  162OSM    H7T18200   4.420   0.192   3.591  0.5772  0.0380  1.2253
  162OSM    C8S18201   4.533   0.048   3.698 -0.0212  0.2303 -0.2699
  162OSM    H8S18202   4.627  -0.011   3.686  0.0380  0.0958  0.7430
  162OSM    H8T18203   4.440  -0.009   3.713  0.5084 -0.6237 -0.1649
  162OSM    C9S18204   4.547   0.151   3.815 -0.2760 -0.5228  0.3027
  162OSM    H9S18205   4.464   0.224   3.826 -1.7640 -2.2201  0.8924
  162OSM    H9T18206   4.631   0.224   3.803 -1.4567  0.9585  0.7352
  162OSM   C10S18207   4.563   0.071   3.945  0.2043 -0.4771  0.0177
  162OSM   H10S18208   4.648   0.002   3.935 -0.3162 -1.3220  1.1277
  162OSM   H10T18209   4.481  -0.001   3.968  0.5493 -0.6099  0.8821
  162OSM   C11S18210   4.580   0.156   4.076 -0.3189 -0.1423 -0.0159
  162OSM   H11S18211   4.493   0.221   4.098 -0.5552 -0.4081 -0.1564
  162OSM   H11T18212   4.671   0.220   4.074 -0.8306  0.5822 -0.5601
  162OSM   C12S18213   4.608   0.066   4.204  0.6373 -0.2032 -0.0113
  162OSM   H12S18214   4.714   0.033   4.196  0.4375 -0.5952 -1.3185
  162OSM   H12T18215   4.544  -0.021   4.176  1.4259 -0.1540 -2.1768
  162OSM   C13S18216   4.574   0.127   4.340 -0.0292 -0.1478  0.2623
  162OSM   H13S18217   4.476   0.177   4.323 -0.0373  0.4651  1.9791
  162OSM   H13T18218   4.643   0.211   4.360  0.6274 -0.1419 -1.8002
  162OSM   C14S18219   4.576   0.029   4.452 -0.0829  0.5790 -0.0283
  162OSM   H14S18220   4.656  -0.043   4.423  0.2266  0.9403 -0.0825
  162OSM   H14T18221   4.480  -0.027   4.460  0.7474 -0.7458  0.9601
  162OSM   C15S18222   4.609   0.093   4.588  0.4550  0.7189  0.8372
  162OSM   H15S18223   4.519   0.146   4.626  0.7149  3.0828 -1.5720
  162OSM   H15T18224   4.685   0.172   4.572  0.6166  0.0987 -2.0351
  162OSM   C16S18225   4.652  -0.027   4.687  0.3525 -0.1876  0.9742
  162OSM   H16S18226   4.760  -0.049   4.670  0.1338 -1.3425  1.0669
  162OSM   H16T18227   4.597  -0.119   4.661 -1.5972  0.7820  1.4776
  162OSM   C17S18228   4.629   0.018   4.826 -0.1833  0.3075  0.3343
  162OSM   H17S18229   4.522   0.041   4.841 -0.4561  0.3954 -1.5900
  162OSM   H17T18230   4.678   0.116   4.847  3.2609 -1.5011  1.4975
  162OSM   C18S18231   4.678  -0.079   4.933 -0.2526 -0.7002 -0.1752
  162OSM   H18S18232   4.787  -0.095   4.918  0.3306  0.9780  1.7172
  162OSM   H18T18233   4.622  -0.175   4.934 -0.4393 -0.5913 -0.2236
  162OSM   H18U18234   4.667  -0.032   5.033  1.3799 -1.9514  0.6425
  162OSM    C1F18235   4.476  -0.023   3.026 -0.3565 -0.5006  0.5676
  162OSM     OF18236   4.557  -0.033   2.934 -0.3622  0.1675  0.0480
  162OSM    C2F18237   4.418  -0.152   3.072  0.0798  0.3061 -0.3249
  162OSM    H2F18238   4.459  -0.227   3.001 -1.9746 -2.0079  0.7785
  162OSM    H2G18239   4.308  -0.147   3.059  0.0202 -2.4550 -1.5978
  162OSM    C3F18240   4.465  -0.184   3.215 -0.0237 -0.0377 -0.1446
  162OSM    H3F18241   4.421  -0.102   3.276  1.6812  1.8689 -1.3589
  162OSM    H3G18242   4.576  -0.173   3.219  0.2181 -1.8362 -0.6515
  162OSM    C4F18243   4.422  -0.323   3.257  0.4552  0.4498  0.8101
  162OSM    H4F18244   4.455  -0.400   3.184  0.5293  0.9845  0.2695
  162OSM    H4G18245   4.312  -0.311   3.244  0.7544  1.1083 -1.7929
  162OSM    C5F18246   4.439  -0.367   3.403  0.0757  0.7971 -0.3017
  162OSM    H5F18247   4.383  -0.461   3.422 -0.4641  0.5885 -2.6873
  162OSM    H5G18248   4.395  -0.278   3.453  1.9582  1.1274  0.8831
  162OSM    C6F18249   4.587  -0.366   3.446  0.0663  0.3065  0.5312
  162OSM    H6F18250   4.636  -0.271   3.477  0.4452  0.2946 -0.0105
  162OSM    H6G18251   4.648  -0.399   3.359 -0.1780 -0.3524  0.6072
  162OSM    C7F18252   4.605  -0.480   3.554  0.0011 -0.3862  0.1706
  162OSM    H7F18253   4.712  -0.507   3.565 -0.5110 -1.5091  3.4611
  162OSM    H7G18254   4.548  -0.571   3.526 -1.0298 -0.1721  1.4652
  162OSM    C8F18255   4.547  -0.444   3.695  0.2231  0.4365 -0.4297
  162OSM    H8F18256   4.540  -0.534   3.761  0.6511  0.8927  0.2523
  162OSM    H8G18257   4.441  -0.414   3.680  0.6852  1.4027 -1.9485
  162OSM    C9F18258   4.629  -0.334   3.760  1.1532  0.4980 -0.0754
  162OSM    H9F18259   4.618  -0.235   3.712  0.9418  0.6208  0.2232
  162OSM   C10F18260   4.709  -0.344   3.867  0.7860  0.1600  0.5108
  162OSM   H10F18261   4.740  -0.245   3.905  1.9345  0.0650 -0.1569
  162OSM   C11F18262   4.745  -0.458   3.952 -0.4569 -0.1425  0.2058
  162OSM   H11F18263   4.856  -0.467   3.951 -0.3520  0.7158  1.4365
  162OSM   H11G18264   4.712  -0.555   3.909 -0.5944  0.2832 -0.6735
  162OSM   C12F18265   4.701  -0.445   4.100  0.3334  0.5692 -0.1374
  162OSM   H12F18266   4.741  -0.532   4.156  0.5078 -0.2448 -1.4928
  162OSM   H12G18267   4.591  -0.455   4.095  0.2179  1.4134  0.4386
  162OSM   C13F18268   4.737  -0.310   4.171  0.3241  0.0033  1.2672
  162OSM   H13F18269   4.680  -0.223   4.133  0.6445 -0.3946 -0.1801
  162OSM   H13G18270   4.841  -0.288   4.140 -0.6223  2.8687 -0.2007
  162OSM   C14F18271   4.728  -0.314   4.318  0.1461  0.0261  0.0690
  162OSM   H14F18272   4.629  -0.338   4.364 -0.1959 -1.3255 -1.3127
  162OSM   H14G18273   4.762  -0.211   4.343  0.2890  0.4336 -1.6942
  162OSM   C15F18274   4.833  -0.400   4.390  0.0206 -0.3419 -0.1066
  162OSM   H15F18275   4.936  -0.370   4.362 -0.3544  3.5350  1.9095
  162OSM   H15G18276   4.804  -0.505   4.368 -2.0775  0.6139 -2.2802
  162OSM   C16F18277   4.827  -0.384   4.541  0.2366 -0.5677  0.4650
  162OSM   H16F18278   4.720  -0.404   4.564 -0.0867  0.8829  0.3095
  162OSM   H16G18279   4.847  -0.279   4.568 -1.3455 -0.2678  0.5615
  162OSM   C17F18280   4.897  -0.476   4.637  0.7429  0.2242 -0.6974
  162OSM   H17F18281   4.988  -0.521   4.591  1.5572 -0.3366  1.3426
  162OSM   H17G18282   4.838  -0.568   4.658  1.5350 -0.5880 -1.8479
  162OSM   C18F18283   4.960  -0.414   4.758  0.0921  0.1746 -0.3060
  162OSM   H18F18284   4.893  -0.336   4.801 -2.0038 -2.0852  0.7884
  162OSM   H18G18285   5.058  -0.368   4.733 -0.4757  0.8160 -1.4288
  162OSM   H18H18286   4.965  -0.487   4.842 -4.6796 -1.0215 -0.7772
  163OSM      N18287   2.959   2.819   3.114  0.1482  0.2747  0.4190
  163OSM    C1518288   3.043   2.758   3.002  0.3826  0.1364  0.4671
  163OSM   H15A18289   3.118   2.828   2.969 -0.2683  0.9491  0.6653
  163OSM   H15B18290   2.975   2.757   2.919  0.0723  0.1445  0.7187
  163OSM   H15C18291   3.084   2.661   3.027 -0.7338 -0.2985  0.6640
  163OSM    C1418292   2.856   2.714   3.153  0.7279  0.9164  0.0475
  163OSM   H14A18293   2.889   2.642   3.226  2.1097  2.0945  0.6370
  163OSM   H14B18294   2.825   2.673   3.058 -2.2931 -0.1244  1.3393
  163OSM   H14C18295   2.767   2.762   3.193  0.4054 -1.2137  2.0934
  163OSM    C1318296   3.037   2.839   3.234 -0.7551 -0.1063  0.0151
  163OSM   H13A18297   2.966   2.850   3.315 -0.5637  2.0177 -0.0277
  163OSM   H13B18298   3.109   2.919   3.236 -1.3667  0.4391  1.5222
  163OSM   H13C18299   3.094   2.750   3.249 -1.5676 -0.7641 -0.6580
  163OSM    C1218300   2.886   2.946   3.063  0.0496  0.0888  0.1256
  163OSM   H12A18301   2.958   3.026   3.051 -1.1458  1.1921  0.1278
  163OSM   H12B18302   2.819   2.978   3.141 -1.8519 -2.8540 -0.1594
  163OSM    C1118303   2.822   2.945   2.923  0.2493 -0.2443 -0.3092
  163OSM   H11A18304   2.756   3.033   2.908  2.2688  1.6012  0.9896
  163OSM   H11B18305   2.763   2.851   2.915 -0.2602 -0.0414  0.8245
  163OSM      P18306   2.985   3.077   2.759  0.3700 -0.5317 -0.0715
  163OSM    O1318307   3.119   3.043   2.712 -0.7140  0.2143 -0.0868
  163OSM    O1418308   2.888   3.144   2.670 -0.0223  0.9310  0.1555
  163OSM    O1118309   3.007   3.174   2.886  0.5319 -0.3120 -0.3457
  163OSM    O1218310   2.921   2.949   2.820 -0.0289  0.4326  0.4406
  163OSM    C1S18311   2.909   3.280   2.916  0.0022  0.1363 -0.5263
  163OSM    H1S18312   2.807   3.245   2.891 -0.3856  0.6828  0.2933
  163OSM    H1T18313   2.936   3.372   2.860 -0.9998  1.3379  0.8892
  163OSM     NF18314   2.796   3.419   3.086 -0.3762  0.6833  0.1063
  163OSM    HNF18315   2.839   3.508   3.094  0.0586  0.3291  2.0331
  163OSM    C2S18316   2.889   3.314   3.067 -0.3582  0.1801  0.1115
  163OSM    H2S18317   2.849   3.223   3.116  0.2409  0.8891  2.0044
  163OSM    C3S18318   3.025   3.339   3.130 -0.4995  0.3355  0.0755
  163OSM    H3S18319   3.068   3.412   3.059  0.7639 -0.3037  0.1670
  163OSM     O318320   3.111   3.224   3.114  0.3201 -0.0887 -0.4239
  163OSM    HO318321   3.073   3.183   3.035 -1.6626  0.1057  0.3684
  163OSM    C4S18322   3.041   3.398   3.271  0.3294  0.2001 -0.0025
  163OSM    H4S18323   3.082   3.500   3.276 -2.5790  1.4246  1.5357
  163OSM    C5S18324   3.018   3.333   3.387  0.0560 -0.0599  0.7466
  163OSM    H5S18325   2.968   3.235   3.391  1.7234 -0.9564  0.5063
  163OSM    C6S18326   3.056   3.398   3.521 -0.0792 -0.0615 -0.4542
  163OSM    H6S18327   3.106   3.496   3.502 -0.0105 -0.2270 -1.1688
  163OSM    H6T18328   3.128   3.329   3.570  0.3861 -0.3530 -1.5233
  163OSM    C7S18329   2.941   3.437   3.612 -0.3375  0.3408 -0.7717
  163OSM    H7S18330   2.905   3.342   3.657  1.5402  0.7213  1.7166
  163OSM    H7T18331   2.858   3.493   3.563  0.8707  1.1556 -1.9727
  163OSM    C8S18332   2.989   3.514   3.736  0.6537  0.1313 -0.3512
  163OSM    H8S18333   3.013   3.615   3.697 -0.5973  0.5079 -0.1870
  163OSM    H8T18334   3.080   3.464   3.775  1.7113  2.2985  0.0922
  163OSM    C9S18335   2.879   3.535   3.844  0.1561  0.8161 -0.6393
  163OSM    H9S18336   2.831   3.438   3.871  0.0450  1.6101  2.3910
  163OSM    H9T18337   2.799   3.605   3.813 -1.1906  0.1378  1.1216
  163OSM   C10S18338   2.923   3.584   3.983  0.3352  0.1079  0.3164
  163OSM   H10S18339   2.988   3.674   3.975  1.9995 -0.9444  1.4069
  163OSM   H10T18340   2.989   3.503   4.020 -0.2159 -0.3845  0.2505
  163OSM   C11S18341   2.813   3.602   4.082  0.3156 -0.1830 -0.0126
  163OSM   H11S18342   2.748   3.514   4.096  0.9828 -0.4211  1.8904
  163OSM   H11T18343   2.750   3.679   4.032  1.3814 -0.6724 -2.2184
  163OSM   C12S18344   2.860   3.662   4.211  0.0764  0.6399  0.1268
  163OSM   H12S18345   2.773   3.683   4.276  0.2505  0.8011  0.3101
  163OSM   H12T18346   2.913   3.758   4.192 -0.0206  0.8084  0.6904
  163OSM   C13S18347   2.961   3.574   4.286 -0.0653  0.1393 -0.0693
  163OSM   H13S18348   3.061   3.587   4.239  0.0498  1.1486  0.4253
  163OSM   H13T18349   2.928   3.468   4.285 -0.3689  0.0986  3.1395
  163OSM   C14S18350   2.965   3.610   4.438 -0.1555  0.0447  0.3648
  163OSM   H14S18351   2.868   3.639   4.484  0.1365  4.0130 -1.1645
  163OSM   H14T18352   3.023   3.704   4.444 -0.4443  0.1338  2.5255
  163OSM   C15S18353   3.026   3.502   4.528  0.5588  0.3946  0.5754
  163OSM   H15S18354   3.044   3.548   4.628  0.0344  2.2125 -0.1225
  163OSM   H15T18355   3.116   3.466   4.474 -1.0517 -0.6153 -1.5712
  163OSM   C16S18356   2.945   3.377   4.553 -0.5512  0.7497  0.2727
  163OSM   H16S18357   2.981   3.316   4.639  1.4202  1.8258  0.2594
  163OSM   H16T18358   2.961   3.307   4.468  3.0116  0.6328  0.8818
  163OSM   C17S18359   2.791   3.379   4.579 -0.3923 -0.6380  0.4862
  163OSM   H17S18360   2.747   3.278   4.566 -0.2546 -0.6416  0.0350
  163OSM   H17T18361   2.754   3.439   4.492  1.0211 -1.0017 -0.4034
  163OSM   C18S18362   2.738   3.426   4.717 -0.4362  0.0772 -0.7620
  163OSM   H18S18363   2.763   3.531   4.745  0.4617 -0.4334  0.4613
  163OSM   H18T18364   2.788   3.374   4.801 -0.8247  0.1810 -0.4676
  163OSM   H18U18365   2.628   3.431   4.722 -0.3251  1.5091  1.9131
  163OSM    C1F18366   2.670   3.422   3.052 -0.2218 -0.8762 -0.2806
  163OSM     OF18367   2.619   3.324   3.004 -0.3508 -0.0523  0.0952
  163OSM    C2F18368   2.603   3.545   3.067 -0.7641 -0.4361 -0.1595
  163OSM    H2F18369   2.563   3.565   2.966  3.1174 -1.7896 -2.1670
  163OSM    H2G18370   2.668   3.630   3.095  1.4345 -2.9679  3.4094
  163OSM    C3F18371   2.487   3.531   3.173  0.6098  0.4432  0.7681
  163OSM    H3F18372   2.418   3.449   3.147  0.6999  1.1112 -1.8792
  163OSM    H3G18373   2.433   3.628   3.181 -1.4085 -0.4113 -1.6360
  163OSM    C4F18374   2.545   3.499   3.321 -0.6039 -0.2074 -0.4144
  163OSM    H4F18375   2.647   3.538   3.336  0.1925 -1.9394 -1.0767
  163OSM    H4G18376   2.556   3.388   3.318 -1.2120 -0.2681 -0.6525
  163OSM    C5F18377   2.459   3.555   3.435 -0.2410 -0.0995 -0.4239
  163OSM    H5F18378   2.355   3.523   3.411  0.0461 -1.0595 -0.4453
  163OSM    H5G18379   2.458   3.666   3.440 -1.0655 -0.0235  6.4036
  163OSM    C6F18380   2.518   3.511   3.564  0.7362 -0.0221  0.5359
  163OSM    H6F18381   2.620   3.552   3.573  0.2843  1.1121  0.6721
  163OSM    H6G18382   2.538   3.402   3.565  1.5322  0.0648 -1.4709
  163OSM    C7F18383   2.438   3.558   3.692  0.2015  0.3257 -0.3627
  163OSM    H7F18384   2.342   3.501   3.687 -0.6507  1.7947 -1.8747
  163OSM    H7G18385   2.413   3.666   3.688 -2.2077 -0.1452  0.0673
  163OSM    C8F18386   2.516   3.515   3.816  0.2907  0.2825  0.0114
  163OSM    H8F18387   2.615   3.562   3.802  0.7710 -1.2864 -2.5739
  163OSM    H8G18388   2.525   3.404   3.806  0.1324  0.3630 -1.1407
  163OSM    C9F18389   2.455   3.554   3.947  0.1746  0.2233  0.0090
  163OSM    H9F18390   2.478   3.655   3.983 -0.1788  0.1012  0.5872
  163OSM   C10F18391   2.382   3.475   4.027  0.0671 -0.2001  0.2634
  163OSM   H10F18392   2.352   3.521   4.122  1.6276  1.7958 -0.1285
  163OSM   C11F18393   2.345   3.333   4.008 -0.1887  0.7756  0.2184
  163OSM   H11F18394   2.378   3.288   3.912  0.1282  0.9744  0.2338
  163OSM   H11G18395   2.236   3.335   3.989  0.1938 -1.2718 -2.7717
  163OSM   C12F18396   2.383   3.231   4.121  0.4397  0.1704  0.1882
  163OSM   H12F18397   2.493   3.231   4.132  0.4740 -1.5710  0.0390
  163OSM   H12G18398   2.345   3.141   4.070 -1.6519  0.8595  0.4253
  163OSM   C13F18399   2.296   3.264   4.246 -0.0393  0.2777 -0.4964
  163OSM   H13F18400   2.188   3.270   4.220 -0.4571  1.0114  1.3009
  163OSM   H13G18401   2.325   3.367   4.273  2.5467 -0.2373 -1.0304
  163OSM   C14F18402   2.337   3.166   4.358 -0.0860  0.1989  0.1527
  163OSM   H14F18403   2.448   3.163   4.368 -0.1749 -1.6376  1.0571
  163OSM   H14G18404   2.322   3.062   4.322 -0.7884 -0.1323  1.3390
  163OSM   C15F18405   2.275   3.189   4.490 -0.2621  0.1352 -0.2860
  163OSM   H15F18406   2.323   3.112   4.554 -0.2740 -2.0130 -2.6834
  163OSM   H15G18407   2.166   3.172   4.483 -0.4489  1.5787 -1.4230
  163OSM   C16F18408   2.285   3.329   4.555  0.1854 -0.4117 -0.0885
  163OSM   H16F18409   2.256   3.410   4.485  1.2575 -0.3796 -0.5253
  163OSM   H16G18410   2.394   3.341   4.572  0.5912 -1.7279 -1.4168
  163OSM   C17F18411   2.207   3.349   4.682 -0.5531  1.0528  0.5222
  163OSM   H17F18412   2.215   3.264   4.753  2.0962  1.3360  0.6551
  163OSM   H17G18413   2.099   3.345   4.654  0.1473 -0.7483 -2.4091
  163OSM   C18F18414   2.220   3.489   4.751 -0.4185  0.5316 -0.2536
  163OSM   H18F18415   2.186   3.569   4.682 -0.1676  0.9362  0.0842
  163OSM   H18G18416   2.319   3.510   4.797 -0.3661 -0.8182  0.3149
  163OSM   H18H18417   2.149   3.497   4.837  0.1814  2.4466  0.1062
  164OSM      N18418   5.305   1.872   2.551  0.5659 -0.0917  0.0715
  164OSM    C1518419   5.390   1.990   2.531  0.1639  0.8103 -0.4854
  164OSM   H15A18420   5.494   1.961   2.523  0.2398  0.7164  0.6699
  164OSM   H15B18421   5.373   2.069   2.603 -0.6753 -1.3708  1.8506
  164OSM   H15C18422   5.375   2.033   2.433  0.5464 -0.8147 -1.2935
  164OSM    C1418423   5.158   1.905   2.560 -0.2212 -0.2833 -0.6268
  164OSM   H14A18424   5.113   1.807   2.556  0.0019 -0.3681 -4.1482
  164OSM   H14B18425   5.122   1.970   2.482  0.3484  0.4794 -0.2645
  164OSM   H14C18426   5.123   1.961   2.645 -1.0765  0.1611 -1.2577
  164OSM    C1318427   5.325   1.793   2.422  0.3907  0.3323  0.1127
  164OSM   H13A18428   5.282   1.694   2.433  0.0516  0.5160  0.4347
  164OSM   H13B18429   5.432   1.786   2.404  0.2882  1.9929 -1.3998
  164OSM   H13C18430   5.288   1.828   2.328 -1.8531  0.4060  0.9720
  164OSM    C1218431   5.345   1.790   2.681 -0.3313 -0.5975  0.3180
  164OSM   H12A18432   5.369   1.860   2.759  0.2033 -0.1619 -0.2267
  164OSM   H12B18433   5.431   1.740   2.639 -0.7877  0.6146 -2.2516
  164OSM    C1118434   5.255   1.670   2.731  0.3385 -0.3968  0.4122
  164OSM   H11A18435   5.156   1.715   2.754  0.2442 -0.3980  0.0203
  164OSM   H11B18436   5.297   1.625   2.823 -0.6627 -0.3181  0.9226
  164OSM      P18437   5.107   1.508   2.610  0.1073  0.0561 -0.1350
  164OSM    O1318438   5.016   1.602   2.544 -0.4459 -0.3541  0.0217
  164OSM    O1418439   5.133   1.375   2.548 -0.3611  0.0279  0.4405
  164OSM    O1118440   5.054   1.464   2.750  0.3670 -0.0028  0.7859
  164OSM    O1218441   5.253   1.571   2.627 -0.4995  0.4478  0.2898
  164OSM    C1S18442   5.107   1.349   2.816 -0.3949  0.7690  0.8077
  164OSM    H1S18443   5.211   1.327   2.784  0.2773  3.3536  0.9876
  164OSM    H1T18444   5.044   1.259   2.803  0.6281  0.0308  0.8213
  164OSM     NF18445   5.173   1.272   3.028 -0.3335 -0.4533 -0.0226
  164OSM    HNF18446   5.113   1.197   3.052  0.2036 -0.4528  1.4362
  164OSM    C2S18447   5.113   1.383   2.963 -0.4163  0.0171 -0.3998
  164OSM    H2S18448   5.176   1.474   2.973  0.5246 -0.5494 -0.9291
  164OSM    C3S18449   4.975   1.422   3.022  0.5111 -0.3580 -0.4052
  164OSM    H3S18450   4.907   1.338   2.996 -1.6068  1.2411 -0.3624
  164OSM     O318451   4.906   1.528   2.958  0.4863 -0.5329  0.4812
  164OSM    HO318452   4.957   1.541   2.878  0.9771 -0.7706  0.7507
  164OSM    C4S18453   4.982   1.453   3.166  0.1422  0.2541  0.4897
  164OSM    H4S18454   5.068   1.517   3.190 -0.2853  0.6226  1.0833
  164OSM    C5S18455   4.911   1.407   3.268  0.2105  0.2012  0.0676
  164OSM    H5S18456   4.829   1.338   3.245 -1.0679  1.7047 -0.0160
  164OSM    C6S18457   4.952   1.420   3.409  0.6647 -0.2291 -0.4527
  164OSM    H6S18458   5.031   1.495   3.431  2.3184 -2.7496  3.2018
  164OSM    H6T18459   4.999   1.326   3.446 -1.2820 -1.1435 -0.1236
  164OSM    C7S18460   4.841   1.462   3.511 -0.8425 -0.5265 -0.3016
  164OSM    H7S18461   4.744   1.415   3.485 -0.2380 -1.7661 -0.3691
  164OSM    H7T18462   4.836   1.571   3.490  1.1183 -0.3518  0.0025
  164OSM    C8S18463   4.888   1.432   3.656  0.8916 -0.0583 -0.7053
  164OSM    H8S18464   4.996   1.457   3.667  0.7104  0.1549  0.8708
  164OSM    H8T18465   4.868   1.326   3.685 -0.1728  0.1868 -0.4974
  164OSM    C9S18466   4.815   1.521   3.751 -0.2503 -0.3486 -0.1504
  164OSM    H9S18467   4.705   1.510   3.742 -0.5570  1.9838  0.0305
  164OSM    H9T18468   4.833   1.628   3.728 -2.4929  0.2286  0.4943
  164OSM   C10S18469   4.858   1.495   3.895 -0.1818  0.1916  0.0328
  164OSM   H10S18470   4.968   1.497   3.908 -0.0403  3.3247 -0.8819
  164OSM   H10T18471   4.815   1.397   3.925 -0.3815  0.1085 -0.5028
  164OSM   C11S18472   4.790   1.597   3.993  0.2852  0.0217  1.2416
  164OSM   H11S18473   4.683   1.576   3.971  0.3629  1.2215 -0.4802
  164OSM   H11T18474   4.813   1.700   3.961 -1.5323 -0.0581 -0.5091
  164OSM   C12S18475   4.828   1.582   4.142  0.0707  0.4553  0.2564
  164OSM   H12S18476   4.939   1.590   4.145  0.1306  0.4203 -1.0488
  164OSM   H12T18477   4.801   1.477   4.166  0.7658 -0.3212 -2.0288
  164OSM   C13S18478   4.772   1.684   4.243  0.6233 -0.1973  0.0673
  164OSM   H13S18479   4.662   1.666   4.243  0.8941 -1.9773 -0.7902
  164OSM   H13T18480   4.798   1.785   4.206  0.6160  0.1136  0.8785
  164OSM   C14S18481   4.821   1.659   4.384  0.5099 -0.2711 -0.0082
  164OSM   H14S18482   4.930   1.639   4.380  0.3693 -0.9097 -1.2470
  164OSM   H14T18483   4.769   1.568   4.419 -0.2384  0.3389  0.4911
  164OSM   C15S18484   4.796   1.773   4.479  0.0347  0.1117 -0.1924
  164OSM   H15S18485   4.686   1.790   4.486 -0.3622 -1.3309 -2.0934
  164OSM   H15T18486   4.855   1.864   4.453  3.6423 -1.0214  3.1498
  164OSM   C16S18487   4.839   1.748   4.625  0.3228  0.1648  0.2780
  164OSM   H16S18488   4.776   1.681   4.686 -0.3511  2.5172  2.3265
  164OSM   H16T18489   4.815   1.841   4.681 -2.0256 -0.3896  0.2987
  164OSM   C17S18490   4.982   1.708   4.645 -0.5649  0.0912 -0.1409
  164OSM   H17S18491   5.006   1.615   4.590 -0.2743  0.1384 -0.0908
  164OSM   H17T18492   4.996   1.679   4.751  0.7428 -1.6298 -0.7556
  164OSM   C18S18493   5.092   1.813   4.621 -0.4245 -0.8021 -0.3393
  164OSM   H18S18494   5.196   1.773   4.632  0.1383  0.5598 -0.6018
  164OSM   H18T18495   5.080   1.892   4.698  3.1551  0.1558 -0.5597
  164OSM   H18U18496   5.094   1.860   4.520  0.8538  0.9180  0.4374
  164OSM    C1F18497   5.299   1.244   3.032  0.0950 -0.5923  0.6353
  164OSM     OF18498   5.384   1.326   3.000  0.0646 -0.1563 -0.1411
  164OSM    C2F18499   5.336   1.101   3.076  0.1081 -0.2068  0.6311
  164OSM    H2F18500   5.380   1.033   3.000  2.5276  1.7342  0.1677
  164OSM    H2G18501   5.244   1.048   3.111 -0.3083 -1.0914 -1.6168
  164OSM    C3F18502   5.449   1.105   3.180  0.6682 -0.2607 -0.1209
  164OSM    H3F18503   5.531   1.169   3.141 -0.3264  1.2783  0.2379
  164OSM    H3G18504   5.487   1.001   3.181 -3.9904 -2.2173 -0.8530
  164OSM    C4F18505   5.422   1.171   3.318 -0.0804  0.0324  0.9641
  164OSM    H4F18506   5.428   1.282   3.310 -2.1508  0.2949  2.2010
  164OSM    H4G18507   5.511   1.151   3.382  0.2845  1.5540  0.9926
  164OSM    C5F18508   5.294   1.128   3.392  0.2201  0.2335  0.2812
  164OSM    H5F18509   5.294   1.018   3.409  1.9756  0.5930  3.3789
  164OSM    H5G18510   5.201   1.148   3.333  0.1765  0.3605  0.3908
  164OSM    C6F18511   5.288   1.189   3.531 -0.3151 -0.1106 -0.4827
  164OSM    H6F18512   5.281   1.300   3.536  1.9689  0.0791 -0.0471
  164OSM    H6G18513   5.385   1.163   3.580 -0.3366 -3.1205 -1.7965
  164OSM    C7F18514   5.174   1.129   3.610  0.4374  0.2771 -0.1200
  164OSM    H7F18515   5.213   1.025   3.607  1.0482  0.5108 -2.0326
  164OSM    H7G18516   5.085   1.132   3.543 -0.2408 -2.2883  0.5711
  164OSM    C8F18517   5.140   1.188   3.751  0.5889 -0.6947  0.5901
  164OSM    H8F18518   5.036   1.153   3.769 -0.5242  2.0331 -0.0553
  164OSM    H8G18519   5.128   1.297   3.738  1.7466 -0.7137 -0.8688
  164OSM    C9F18520   5.240   1.150   3.856  0.0863 -0.1619 -0.1585
  164OSM    H9F18521   5.332   1.105   3.816  0.0783  1.2651 -1.9050
  164OSM   C10F18522   5.230   1.173   3.987 -0.0519 -0.6309 -0.3007
  164OSM   H10F18523   5.325   1.175   4.042  1.0140 -0.0441 -2.0822
  164OSM   C11F18524   5.106   1.234   4.053 -0.0255 -0.1401 -0.2305
  164OSM   H11F18525   5.013   1.215   3.994 -0.8218  0.1259  0.9128
  164OSM   H11G18526   5.116   1.344   4.048 -1.2331  0.0744  1.3789
  164OSM   C12F18527   5.082   1.183   4.193  0.4001  0.5657 -0.0450
  164OSM   H12F18528   5.171   1.178   4.258  0.0012 -0.1362  0.4625
  164OSM   H12G18529   5.027   1.088   4.174 -0.3817  1.3703 -2.0585
  164OSM   C13F18530   4.977   1.267   4.266 -0.5882 -0.0313  0.1979
  164OSM   H13F18531   4.883   1.254   4.208  1.3499 -0.9620 -2.9560
  164OSM   H13G18532   5.006   1.374   4.252 -2.5616  0.4317 -0.8559
  164OSM   C14F18533   4.965   1.230   4.418 -0.0609 -0.1732 -0.3816
  164OSM   H14F18534   4.948   1.121   4.430 -2.5847  0.1505 -0.3608
  164OSM   H14G18535   4.871   1.268   4.464  0.8452  0.7449  0.7444
  164OSM   C15F18536   5.093   1.278   4.492  0.3353 -0.6056  0.0747
  164OSM   H15F18537   5.108   1.388   4.486 -0.5168 -0.4456  0.5984
  164OSM   H15G18538   5.188   1.237   4.452  0.4844  0.9305 -1.2549
  164OSM   C16F18539   5.099   1.233   4.637  0.5739  0.2734 -0.0223
  164OSM   H16F18540   5.206   1.219   4.661  1.3673  2.6784 -1.7790
  164OSM   H16G18541   5.048   1.137   4.660  0.0836  0.6887  0.6710
  164OSM   C17F18542   5.028   1.319   4.749 -0.1781 -0.3120  0.1748
  164OSM   H17F18543   4.976   1.252   4.820 -0.4868 -0.9149 -0.5958
  164OSM   H17G18544   4.951   1.380   4.696  0.3724  1.3494  1.2132
  164OSM   C18F18545   5.141   1.401   4.818 -0.4724 -0.1024 -0.4626
  164OSM   H18F18546   5.194   1.468   4.746  1.2347  2.1157  2.6306
  164OSM   H18G18547   5.213   1.336   4.871  1.1339  1.3802 -0.7314
  164OSM   H18H18548   5.093   1.474   4.887  1.0645  0.2386  0.2969
  165SAPS     N18549   3.053   3.686   7.453 -0.3192  0.4648  0.0500
  165SAPS   HN118550   2.984   3.636   7.394  0.9087  1.1304 -2.0758
  165SAPS   HN218551   2.997   3.767   7.487  0.0129  1.0707 -0.8115
  165SAPS   HN318552   3.128   3.719   7.388 -0.2923  2.2557  0.9226
  165SAPS   C1218553   3.109   3.610   7.570 -0.0442 -0.4403  0.1842
  165SAPS  H12A18554   3.175   3.682   7.615 -0.0871 -1.3541  1.7647
  165SAPS   C1318555   3.007   3.550   7.675 -0.5413  0.4846  0.5518
  165SAPS  O13A18556   2.883   3.549   7.660 -0.3103 -0.3240  0.3257
  165SAPS  O13B18557   3.056   3.503   7.779  0.5984 -0.5273 -0.0276
  165SAPS   C1118558   3.199   3.494   7.515 -0.8420  0.1831  0.5537
  165SAPS  H11A18559   3.124   3.418   7.487 -0.3559 -0.9682  2.2354
  165SAPS  H11B18560   3.257   3.450   7.600 -1.2901 -1.3279  0.0978
  165SAPS     P18561   3.397   3.447   7.355  0.0275  0.3529 -0.4856
  165SAPS   O1318562   3.508   3.455   7.456 -0.4049 -0.6561  0.8306
  165SAPS   O1418563   3.337   3.313   7.324 -0.2464 -0.2954  0.1624
  165SAPS   O1218564   3.283   3.535   7.407 -0.3473 -0.5628 -0.3608
  165SAPS   O1118565   3.449   3.525   7.224 -0.0335  0.4655  0.3564
  165SAPS    C118566   3.390   3.634   7.161 -0.0528  0.1663  0.5099
  165SAPS    HA18567   3.283   3.614   7.140  0.0206 -0.7755  0.9543
  165SAPS    HB18568   3.395   3.724   7.225  1.5929 -0.0128  0.6729
  165SAPS    C218569   3.455   3.673   7.021  0.4746 -0.4240 -0.4765
  165SAPS    HS18570   3.417   3.775   6.998  1.6621  0.5884  1.8288
  165SAPS   O2118571   3.425   3.570   6.924  0.2481 -0.0861 -0.1033
  165SAPS   C2118572   3.387   3.615   6.805  0.4191  0.5224 -0.3881
  165SAPS   O2218573   3.374   3.732   6.779 -0.5231 -0.1952 -0.0393
  165SAPS   C2218574   3.354   3.487   6.722  0.0246  0.0876 -0.8369
  165SAPS   H2R18575   3.435   3.413   6.736 -0.3326  0.1468  2.3452
  165SAPS   H2S18576   3.253   3.448   6.750  0.1407 -0.6664 -1.4521
  165SAPS    C318577   3.605   3.701   7.037 -0.6504  0.1001  0.1659
  165SAPS    HX18578   3.660   3.616   7.084 -0.1877  0.3952  0.1693
  165SAPS    HY18579   3.606   3.780   7.115 -3.9984 -0.2073  0.6513
  165SAPS   O3118580   3.678   3.745   6.925  0.4016  0.2422  0.2269
  165SAPS   C3118581   3.745   3.649   6.857 -0.1978 -0.9955  0.3388
  165SAPS   O3218582   3.760   3.534   6.886 -0.1242  0.7832 -0.3408
  165SAPS   C3218583   3.815   3.717   6.735  0.3424  0.3185 -0.4375
  165SAPS   H2X18584   3.925   3.706   6.743  0.1595 -0.6914  0.9990
  165SAPS   H2Y18585   3.788   3.825   6.741 -3.6340 -0.4031 -1.9805
  165SAPS   C2318586   3.328   3.536   6.579  0.1717 -0.2595  0.1381
  165SAPS   H3R18587   3.419   3.573   6.526 -0.0036  0.3156  0.2338
  165SAPS   H3S18588   3.253   3.617   6.576  0.8892  0.4733  1.2336
  165SAPS   C2418589   3.262   3.428   6.481 -0.8660 -0.2273  0.3717
  165SAPS   H4R18590   3.253   3.475   6.381  0.4957 -3.1698 -1.2526
  165SAPS   H4S18591   3.156   3.413   6.511 -2.4149  2.1518 -3.2230
  165SAPS   C2518592   3.346   3.300   6.466  0.1714 -0.2177  0.4511
  165SAPS   H5R18593   3.307   3.213   6.522 -0.1773 -0.4829 -0.1952
  165SAPS   C2618594   3.440   3.281   6.375 -0.8668  0.5777  0.0701
  165SAPS   H6R18595   3.485   3.181   6.378 -2.6997 -0.2984 -0.3600
  165SAPS   C2718596   3.506   3.384   6.282 -0.3383  0.0133 -0.2467
  165SAPS   H7R18597   3.581   3.443   6.338  0.9963 -0.8627 -1.0370
  165SAPS   H7S18598   3.429   3.453   6.241  0.0877  0.2861 -0.5889
  165SAPS   C2818599   3.594   3.317   6.177  0.9007  0.1584  0.1603
  165SAPS   H8R18600   3.639   3.222   6.209  1.9996  0.3698 -0.7196
  165SAPS   C2918601   3.613   3.355   6.050  0.6298  0.0588 -0.2179
  165SAPS   H9R18602   3.669   3.284   5.988 -0.4459 -4.5533  3.5036
  165SAPS  C21018603   3.551   3.476   5.977  0.0573 -0.5603 -0.6888
  165SAPS  H10R18604   3.547   3.570   6.036 -2.2176 -0.4525 -0.9349
  165SAPS  H10S18605   3.445   3.455   5.953 -1.1000  3.9877 -0.3103
  165SAPS  C21118606   3.617   3.510   5.841  0.2546 -0.3255  0.5535
  165SAPS  H11R18607   3.689   3.593   5.837 -1.1480  0.8774 -2.6409
  165SAPS  C21218608   3.581   3.469   5.716 -0.5086  0.6472 -0.6552
  165SAPS  H12R18609   3.625   3.508   5.623  0.9468 -1.0389 -0.7512
  165SAPS  C21318610   3.474   3.359   5.696  0.0255  0.2358  0.6625
  165SAPS  H13R18611   3.409   3.364   5.786  1.0401  3.3536  1.3427
  165SAPS  H13S18612   3.527   3.264   5.717  2.8013  1.4920 -0.2163
  165SAPS  C21418613   3.377   3.363   5.576 -0.9036 -0.4667  0.5374
  165SAPS  H14R18614   3.311   3.450   5.587  0.2989  0.4661  0.6148
  165SAPS  C21518615   3.374   3.295   5.461  0.1482  0.4675 -0.3708
  165SAPS  H15R18616   3.292   3.298   5.388  0.2573 -3.2686 -0.8129
  165SAPS  C21618617   3.463   3.180   5.430  0.0234 -0.3039 -0.2913
  165SAPS  H16R18618   3.395   3.094   5.413 -1.4366  0.9328 -0.9387
  165SAPS  H16S18619   3.511   3.149   5.525  0.4777  0.0301 -0.4059
  165SAPS  C21718620   3.564   3.196   5.315 -0.3036 -0.5637 -0.3882
  165SAPS  H17R18621   3.605   3.093   5.304  0.8371 -0.3111  1.1520
  165SAPS  H17S18622   3.653   3.255   5.345  0.5152 -1.7094 -0.4642
  165SAPS  C21818623   3.516   3.242   5.177  0.0287  0.0171 -1.0188
  165SAPS  H18R18624   3.607   3.239   5.112 -0.7505  0.2129 -2.1562
  165SAPS  H18S18625   3.482   3.347   5.185 -0.3361  0.3826 -5.1666
  165SAPS  C21918626   3.408   3.153   5.109 -0.1212 -0.0088 -0.1084
  165SAPS  H19R18627   3.366   3.201   5.018  0.9415  1.2009  0.0001
  165SAPS  H19S18628   3.320   3.129   5.172 -1.3436 -1.0230 -2.1340
  165SAPS  C22018629   3.473   3.024   5.055  0.0415 -0.4674  0.3374
  165SAPS  H20R18630   3.401   2.952   5.011 -0.9369 -0.1028  1.2848
  165SAPS  H20S18631   3.510   2.970   5.145  0.9832  1.3849  1.1191
  165SAPS  H20T18632   3.569   3.040   5.002  1.3613 -1.1737  2.3966
  165SAPS   C3318633   3.763   3.660   6.605 -0.4797  0.3179  0.4779
  165SAPS   H3X18634   3.654   3.674   6.591 -0.4032 -1.3230 -2.5814
  165SAPS   H3Y18635   3.792   3.554   6.618  0.2514  0.3824 -0.5182
  165SAPS   C3418636   3.837   3.727   6.487 -0.2214  0.3860 -0.0336
  165SAPS   H4X18637   3.945   3.728   6.511  0.3014 -2.2424 -1.8217
  165SAPS   H4Y18638   3.791   3.827   6.473 -0.0095  0.4382 -0.3441
  165SAPS   C3518639   3.826   3.660   6.346  0.2358 -0.3121  0.3186
  165SAPS   H5X18640   3.721   3.657   6.313  0.1515 -1.5353  0.6473
  165SAPS   H5Y18641   3.865   3.557   6.360  0.3337 -0.5927 -1.7484
  165SAPS   C3618642   3.912   3.728   6.242 -0.5257  0.2210  0.3932
  165SAPS   H6X18643   3.892   3.668   6.150  0.2703  0.2684  0.1875
  165SAPS   H6Y18644   4.022   3.722   6.252 -0.5453 -1.1549  0.0821
  165SAPS   C3718645   3.868   3.873   6.223  0.5003 -0.1843  0.3355
  165SAPS   H7X18646   3.921   3.939   6.294  0.3807 -1.1298  1.3399
  165SAPS   H7Y18647   3.765   3.882   6.262 -0.0245 -1.5577 -0.6450
  165SAPS   C3818648   3.860   3.915   6.075 -0.1737 -0.2034 -0.5414
  165SAPS   H8X18649   3.793   4.001   6.057  0.0259 -0.0297 -0.4628
  165SAPS   H8Y18650   3.804   3.841   6.014  0.0744 -1.2576  0.4748
  165SAPS   C3918651   4.003   3.944   6.018  0.4672  0.0591 -0.0973
  165SAPS   H9X18652   4.074   3.878   6.071  1.8779  0.3990 -1.4845
  165SAPS   H9Y18653   4.036   4.049   6.035 -0.5866  0.5759 -1.0504
  165SAPS  C31018654   4.022   3.908   5.874 -0.5883  0.3543 -0.1633
  165SAPS  H10X18655   3.964   3.814   5.861  0.4852 -0.3125 -0.2247
  165SAPS  H10Y18656   4.125   3.874   5.851 -1.1205 -1.5920  0.0918
  165SAPS  C31118657   3.974   4.019   5.780 -0.3244 -0.4610 -0.0921
  165SAPS  H11X18658   4.040   4.106   5.762  1.3057 -2.3262 -4.8485
  165SAPS  H11Y18659   3.874   4.053   5.815 -1.5053 -3.2349 -0.5120
  165SAPS  C31218660   3.954   3.958   5.640  0.1930 -0.2910  0.1208
  165SAPS  H12X18661   3.882   3.875   5.660  0.6401 -0.4495  1.1637
  165SAPS  H12Y18662   4.050   3.914   5.607  0.3573  1.2371 -1.5811
  165SAPS  C31318663   3.915   4.061   5.529  0.3141  0.4718 -0.0234
  165SAPS  H13X18664   3.997   4.136   5.532 -0.9896  1.9254 -0.0142
  165SAPS  H13Y18665   3.823   4.110   5.567 -1.2153 -1.5172 -0.9604
  165SAPS  C31418666   3.900   3.993   5.386 -0.0945 -0.5956  0.2758
  165SAPS  H14X18667   3.813   3.924   5.398 -0.0305 -0.4844  1.4281
  165SAPS  H14Y18668   3.998   3.944   5.370 -0.0691 -0.4984  0.1331
  165SAPS  C31518669   3.873   4.099   5.273 -0.0700  0.4207 -0.3799
  165SAPS  H15X18670   3.952   4.177   5.273 -0.9315  1.3374 -1.6911
  165SAPS  H15Y18671   3.777   4.155   5.284 -0.0137  0.5802 -0.6860
  165SAPS  C31618672   3.870   4.040   5.135 -0.0367  0.3159  0.4556
  165SAPS  H16X18673   3.796   3.957   5.142 -1.1161  1.1913 -0.3487
  165SAPS  H16Y18674   3.968   3.995   5.110  1.1759  1.9890  1.9282
  165SAPS  C31718675   3.813   4.135   5.021 -0.3074  0.4794  0.1350
  165SAPS  H17X18676   3.809   4.096   4.917 -0.0230  1.4866 -0.2633
  165SAPS  H17Y18677   3.877   4.225   5.017  1.5962 -0.8628 -1.6109
  165SAPS  C31818678   3.666   4.177   5.046 -0.6096 -0.1800 -0.3771
  165SAPS  H18X18679   3.606   4.090   5.080  0.1768 -0.5942 -0.0447
  165SAPS  H18Y18680   3.616   4.219   4.956  2.4856  1.3420 -1.5244
  165SAPS  H18Z18681   3.652   4.244   5.133 -0.9310 -0.3039 -0.3295
  166SAPS     N18682   6.511   3.924   7.133 -0.4141 -0.5178  0.0797
  166SAPS   HN118683   6.523   3.994   7.057  1.6847  1.0854  1.7632
  166SAPS   HN218684   6.456   3.842   7.100 -3.2856  1.5900 -0.8103
  166SAPS   HN318685   6.453   3.968   7.207  1.6696  0.0809  1.4633
  166SAPS   C1218686   6.646   3.901   7.180 -0.6718  0.0590 -0.1768
  166SAPS  H12A18687   6.711   3.869   7.100  1.4128  0.5543  1.2584
  166SAPS   C1318688   6.702   4.036   7.236 -0.4596 -0.1698 -0.0007
  166SAPS  O13A18689   6.644   4.145   7.222  0.2253  0.0652  0.3858
  166SAPS  O13B18690   6.829   4.029   7.261  0.4647 -0.2319  0.4268
  166SAPS   C1118691   6.651   3.787   7.286 -0.1331 -0.4071 -0.1066
  166SAPS  H11A18692   6.593   3.824   7.373  0.7242  2.5830 -0.7076
  166SAPS  H11B18693   6.757   3.765   7.311 -0.3724 -1.4419  0.0449
  166SAPS     P18694   6.591   3.539   7.319 -0.2213 -0.3866 -0.0090
  166SAPS   O1318695   6.653   3.569   7.452  0.0248 -0.5626 -0.1183
  166SAPS   O1418696   6.460   3.476   7.317 -0.4536 -0.5380 -0.4984
  166SAPS   O1218697   6.595   3.667   7.232  0.0324  0.2161 -0.4455
  166SAPS   O1118698   6.687   3.446   7.244 -0.0588  0.2584  0.3724
  166SAPS    C118699   6.830   3.472   7.234 -0.1851  0.0190  0.8537
  166SAPS    HA18700   6.858   3.561   7.294 -1.1531  0.0482  1.2867
  166SAPS    HB18701   6.878   3.381   7.277 -0.2768 -0.5792 -0.2842
  166SAPS    C218702   6.886   3.493   7.085 -0.3560 -0.7384 -0.0514
  166SAPS    HS18703   6.850   3.591   7.048  4.0099  0.7643 -0.8932
  166SAPS   O2118704   6.843   3.382   7.005 -0.3757  0.3538 -0.5459
  166SAPS   C2118705   6.723   3.395   6.953  0.0270  0.3085 -0.3468
  166SAPS   O2218706   6.664   3.499   6.948  0.3216  0.2656  0.9000
  166SAPS   C2218707   6.669   3.263   6.895  0.7277 -0.5777  0.2619
  166SAPS   H2R18708   6.706   3.174   6.950 -0.0407 -2.0512 -1.5200
  166SAPS   H2S18709   6.559   3.264   6.912  0.8395 -0.2771  1.0169
  166SAPS    C318710   7.037   3.496   7.080  0.1901 -0.5459  0.7713
  166SAPS    HX18711   7.072   3.395   7.113 -0.9561 -1.6613 -1.2609
  166SAPS    HY18712   7.093   3.560   7.152  5.3059 -2.0837 -1.3576
  166SAPS   O3118713   7.078   3.512   6.940 -0.2162  0.3835 -0.4385
  166SAPS   C3118714   7.116   3.632   6.908  0.1840 -0.0511 -0.8801
  166SAPS   O3218715   7.116   3.730   6.985 -1.0645  0.0625  0.0405
  166SAPS   C3218716   7.181   3.644   6.770 -0.0829 -0.5147  0.2829
  166SAPS   H2X18717   7.291   3.660   6.776  0.0803 -0.5991 -1.7178
  166SAPS   H2Y18718   7.127   3.733   6.730  0.2849  0.1260  1.1852
  166SAPS   C2318719   6.698   3.248   6.737  0.5023  0.2609  0.0335
  166SAPS   H3R18720   6.808   3.232   6.723  0.7774  1.1554  1.0486
  166SAPS   H3S18721   6.668   3.337   6.678 -1.9260 -0.5611 -0.0761
  166SAPS   C2418722   6.634   3.117   6.672 -0.5324 -0.3806  0.3494
  166SAPS   H4R18723   6.644   3.032   6.742 -0.4318  0.2927  1.1687
  166SAPS   H4S18724   6.692   3.110   6.577  2.1662  1.7132  1.7003
  166SAPS   C2518725   6.488   3.160   6.659 -0.5903 -0.7369 -0.7805
  166SAPS   H5R18726   6.445   3.185   6.757  1.0983 -2.2090  0.4075
  166SAPS   C2618727   6.410   3.179   6.554  0.5389  0.8127  0.4747
  166SAPS   H6R18728   6.306   3.199   6.582 -0.0557 -1.8414  0.4148
  166SAPS   C2718729   6.445   3.142   6.409 -0.0808 -0.0529 -0.1141
  166SAPS   H7R18730   6.401   3.042   6.388 -1.4417  0.1544  1.5391
  166SAPS   H7S18731   6.555   3.140   6.399 -0.0253  0.8834  0.2385
  166SAPS   C2818732   6.405   3.254   6.320 -0.0494  0.2226 -0.7698
  166SAPS   H8R18733   6.378   3.349   6.369  0.7365  0.8532 -1.5349
  166SAPS   C2918734   6.373   3.246   6.194 -0.3904  0.7659  0.1244
  166SAPS   H9R18735   6.351   3.336   6.134  1.7353 -0.1963 -2.2707
  166SAPS  C21018736   6.372   3.119   6.112 -0.2089  0.0345 -0.2162
  166SAPS  H10R18737   6.281   3.108   6.050 -0.6384 -0.4526  0.4931
  166SAPS  H10S18738   6.365   3.028   6.176  1.5057  0.6279  0.8932
  166SAPS  C21118739   6.502   3.113   6.031 -0.5116 -0.2386 -0.5262
  166SAPS  H11R18740   6.592   3.143   6.087  0.0127  1.4404 -2.1544
  166SAPS  C21218741   6.505   3.115   5.898  0.2566  0.1953 -0.7906
  166SAPS  H12R18742   6.602   3.130   5.849  0.8964 -1.8394 -0.2607
  166SAPS  C21318743   6.395   3.085   5.796 -0.3168  0.3613 -0.8287
  166SAPS  H13R18744   6.375   3.176   5.736  1.5283  1.1690 -0.2815
  166SAPS  H13S18745   6.295   3.070   5.843  0.4821 -2.1756  0.2481
  166SAPS  C21418746   6.419   2.966   5.712 -0.3747  0.3359  0.2040
  166SAPS  H14R18747   6.461   2.881   5.768 -0.3045  0.7927  0.8572
  166SAPS  C21518748   6.414   2.955   5.577 -0.3942 -0.4404  0.8479
  166SAPS  H15R18749   6.412   2.855   5.530  0.5313 -0.5755  1.0754
  166SAPS  C21618750   6.375   3.061   5.479  0.4661 -0.8189  0.2094
  166SAPS  H16R18751   6.420   3.161   5.501 -2.5547  0.9373 -0.9636
  166SAPS  H16S18752   6.265   3.070   5.473  0.1506 -2.6832  2.1749
  166SAPS  C21718753   6.427   3.041   5.332  0.2983  0.2329 -0.4660
  166SAPS  H17R18754   6.538   3.037   5.343  0.3349 -2.0432 -1.2026
  166SAPS  H17S18755   6.398   3.129   5.271 -2.0030  0.1298  0.4029
  166SAPS  C21818756   6.382   2.914   5.269  0.6910  0.7297 -0.0013
  166SAPS  H18R18757   6.276   2.913   5.240  1.2157  2.6430 -2.2823
  166SAPS  H18S18758   6.404   2.825   5.332  0.7707 -0.1453 -1.2391
  166SAPS  C21918759   6.440   2.882   5.130  0.3733 -0.4591 -0.9982
  166SAPS  H19R18760   6.550   2.896   5.135  0.1638  1.0702  0.2656
  166SAPS  H19S18761   6.404   2.950   5.050 -2.0555  1.0577  1.2051
  166SAPS  C22018762   6.403   2.737   5.090  0.2588 -0.0265  0.1778
  166SAPS  H20R18763   6.481   2.694   5.024  1.1178 -0.1426  1.2301
  166SAPS  H20S18764   6.301   2.725   5.047 -0.9060 -2.8633  3.2381
  166SAPS  H20T18765   6.403   2.677   5.184 -0.6498 -1.6367 -0.8196
  166SAPS   C3318766   7.162   3.528   6.667 -0.4135  0.2057  0.6738
  166SAPS   H3X18767   7.195   3.435   6.719 -1.1390 -0.3615  0.1418
  166SAPS   H3Y18768   7.224   3.542   6.575 -0.5594  0.3843  0.6027
  166SAPS   C3418769   7.012   3.509   6.630  0.1243  0.0382  0.3337
  166SAPS   H4X18770   6.950   3.602   6.632 -1.5903 -1.0201 -0.4673
  166SAPS   H4Y18771   6.976   3.445   6.713 -0.6088  1.3270  1.0457
  166SAPS   C3518772   6.991   3.445   6.496 -0.3813 -0.1596  0.3224
  166SAPS   H5X18773   7.027   3.340   6.497 -0.2197 -0.2359 -2.6937
  166SAPS   H5Y18774   7.048   3.498   6.417 -0.0802 -2.2153 -0.9038
  166SAPS   C3618775   6.840   3.452   6.449  0.3787  0.1642 -0.6945
  166SAPS   H6X18776   6.820   3.559   6.467  2.3271  0.7337 -1.6740
  166SAPS   H6Y18777   6.765   3.390   6.503 -0.8971  2.3385  0.1505
  166SAPS   C3718778   6.833   3.430   6.299  0.3503  0.4315  0.7226
  166SAPS   H7X18779   6.907   3.482   6.236 -1.0311  2.0617  0.3720
  166SAPS   H7Y18780   6.735   3.475   6.273 -0.1757 -1.0267  0.1049
  166SAPS   C3818781   6.822   3.279   6.257  0.2591  0.2548 -0.4235
  166SAPS   H8X18782   6.726   3.241   6.298  1.1579  0.6323  2.2901
  166SAPS   H8Y18783   6.908   3.219   6.295 -0.1687 -0.7719 -1.0195
  166SAPS   C3918784   6.807   3.259   6.105 -0.5989  0.5227  0.4838
  166SAPS   H9X18785   6.730   3.327   6.064 -0.9123 -0.4122 -0.5023
  166SAPS   H9Y18786   6.793   3.154   6.072  1.2201  0.2912  0.3148
  166SAPS  C31018787   6.934   3.301   6.027 -0.4734 -0.0262  0.0040
  166SAPS  H10X18788   7.020   3.246   6.070 -1.6749 -1.4963  0.6573
  166SAPS  H10Y18789   6.956   3.406   6.054 -0.6399  0.1894 -0.7018
  166SAPS  C31118790   6.923   3.281   5.881 -0.2639 -0.4582 -0.1654
  166SAPS  H11X18791   6.887   3.178   5.862 -0.5637 -0.2687 -0.6573
  166SAPS  H11Y18792   7.027   3.281   5.843 -0.3807  1.5383 -0.5881
  166SAPS  C31218793   6.848   3.395   5.807 -0.1665  0.4431 -0.5181
  166SAPS  H12X18794   6.891   3.497   5.817 -0.8865  0.7416 -0.3854
  166SAPS  H12Y18795   6.752   3.401   5.863 -0.6047 -0.5095 -1.1341
  166SAPS  C31318796   6.812   3.344   5.667  0.2961 -0.6110  0.2962
  166SAPS  H13X18797   6.749   3.421   5.616  2.0862  1.1235  0.5790
  166SAPS  H13Y18798   6.759   3.247   5.675  2.0720 -1.4686  3.0155
  166SAPS  C31418799   6.942   3.338   5.577 -0.3444  0.2404 -0.3730
  166SAPS  H14X18800   7.005   3.253   5.612 -0.1938  1.0890  1.5099
  166SAPS  H14Y18801   7.005   3.429   5.584  1.8310 -1.0195 -1.9073
  166SAPS  C31518802   6.922   3.321   5.430  1.5290 -0.2775  0.2581
  166SAPS  H15X18803   7.021   3.333   5.381  1.3583 -2.6673 -0.8343
  166SAPS  H15Y18804   6.868   3.409   5.389  0.7901  0.8321  3.3647
  166SAPS  C31618805   6.870   3.183   5.389  0.6187  0.2100  0.3718
  166SAPS  H16X18806   6.761   3.168   5.405  0.1126  2.6451 -0.4311
  166SAPS  H16Y18807   6.931   3.124   5.460  2.9888  1.0544 -0.8332
  166SAPS  C31718808   6.910   3.140   5.243 -0.0041  0.1297 -0.3021
  166SAPS  H17X18809   6.888   3.033   5.221 -0.9092 -0.2631  2.2761
  166SAPS  H17Y18810   7.021   3.142   5.238  0.0358 -0.8325  0.0550
  166SAPS  C31818811   6.830   3.215   5.138  0.4659 -0.1152 -0.2820
  166SAPS  H18X18812   6.723   3.187   5.143  0.2483  0.8130  0.9708
  166SAPS  H18Y18813   6.857   3.179   5.036 -0.2129 -1.1653 -0.0994
  166SAPS  H18Z18814   6.851   3.325   5.142  1.9861 -0.3338 -1.1159
  167SAPS     N18815   3.062   5.294   7.151  0.1499 -0.1221 -0.2316
  167SAPS   HN118816   2.978   5.257   7.103 -0.2063  2.0681 -1.4238
  167SAPS   HN218817   3.038   5.291   7.253 -1.1100  1.8247 -0.4060
  167SAPS   HN318818   3.061   5.397   7.136 -1.5564 -0.1751 -0.6864
  167SAPS   C1218819   3.195   5.228   7.133 -0.5828 -0.6928  0.5436
  167SAPS  H12A18820   3.274   5.290   7.174  1.4024 -2.5293 -0.2999
  167SAPS   C1318821   3.213   5.105   7.216 -0.0667 -0.3542 -0.1163
  167SAPS  O13A18822   3.109   5.047   7.262 -0.7736  0.3011 -0.4939
  167SAPS  O13B18823   3.329   5.063   7.233  0.4385 -0.1274  0.7864
  167SAPS   C1118824   3.216   5.212   6.978  0.4129  0.4089 -0.5112
  167SAPS  H11A18825   3.144   5.133   6.946 -0.9106  0.5151  1.9303
  167SAPS  H11B18826   3.321   5.177   6.969 -0.0263 -0.7819 -1.2826
  167SAPS     P18827   3.297   5.398   6.809  0.1413 -0.2160  0.4609
  167SAPS   O1318828   3.210   5.466   6.708 -0.0844 -0.0254  0.4680
  167SAPS   O1418829   3.380   5.487   6.886 -0.1497  0.1019 -0.2134
  167SAPS   O1218830   3.196   5.333   6.899  0.2924  0.5130 -0.6044
  167SAPS   O1118831   3.376   5.271   6.754  0.7071  0.4867  0.1374
  167SAPS    C118832   3.504   5.286   6.689  0.5490 -0.3270  0.2560
  167SAPS    HA18833   3.562   5.363   6.744 -0.4251 -0.8553  2.1064
  167SAPS    HB18834   3.567   5.196   6.703  1.0346 -0.1699 -0.7579
  167SAPS    C218835   3.491   5.328   6.536 -0.1777 -0.1409  0.6067
  167SAPS    HS18836   3.593   5.342   6.493  0.9180  1.0414  3.3318
  167SAPS   O2118837   3.429   5.458   6.520  0.5577 -0.6487 -1.1468
  167SAPS   C2118838   3.473   5.539   6.423  0.0789  0.5161 -0.0480
  167SAPS   O2218839   3.547   5.503   6.334  0.5893  0.3773  0.1005
  167SAPS   C2218840   3.403   5.673   6.422  0.4805  0.4386  0.0710
  167SAPS   H2R18841   3.296   5.653   6.400  0.4060  1.0108 -0.1124
  167SAPS   H2S18842   3.393   5.716   6.524 -0.9101 -0.0539  0.1624
  167SAPS    C318843   3.409   5.216   6.460  0.6105 -0.2717 -0.3201
  167SAPS    HX18844   3.305   5.211   6.498  0.3656  0.5388 -0.8611
  167SAPS    HY18845   3.456   5.124   6.501  0.5640 -0.7743 -1.3787
  167SAPS   O3118846   3.414   5.217   6.316  0.5902  0.0530 -0.2090
  167SAPS   C3118847   3.321   5.286   6.253 -0.3784  0.2047 -0.1451
  167SAPS   O3218848   3.216   5.335   6.294  0.2784  0.6601 -0.0182
  167SAPS   C3218849   3.358   5.294   6.104 -0.3840  0.3669  0.3747
  167SAPS   H2X18850   3.364   5.194   6.056  0.2309  1.5862 -2.2733
  167SAPS   H2Y18851   3.458   5.340   6.093 -0.2702 -0.0473 -0.4201
  167SAPS   C2318852   3.450   5.767   6.312 -0.0132 -0.2843  1.2580
  167SAPS   H3R18853   3.450   5.714   6.215 -1.4018  1.3159  0.3318
  167SAPS   H3S18854   3.555   5.802   6.324  0.2182 -0.8491  0.9112
  167SAPS   C2418855   3.359   5.897   6.304 -0.1967  0.1853 -0.9244
  167SAPS   H4R18856   3.369   5.956   6.397 -0.0887  0.0369 -0.8401
  167SAPS   H4S18857   3.259   5.849   6.315 -0.1779 -0.1123 -1.8922
  167SAPS   C2518858   3.382   5.972   6.175 -0.4660 -0.3314  0.5823
  167SAPS   H5R18859   3.459   6.050   6.174 -1.6363  0.8626  0.7529
  167SAPS   C2618860   3.308   5.965   6.064  0.0075  0.5894 -0.3400
  167SAPS   H6R18861   3.331   6.037   5.984 -1.1746 -0.9675 -2.1939
  167SAPS   C2718862   3.180   5.889   6.034 -0.0257  0.1486 -0.6869
  167SAPS   H7R18863   3.105   5.970   6.028  0.4852  0.5239 -2.8150
  167SAPS   H7S18864   3.162   5.816   6.115 -0.4311  1.5336  0.5076
  167SAPS   C2818865   3.186   5.819   5.899  0.8359 -0.3032 -0.9658
  167SAPS   H8R18866   3.276   5.758   5.882  1.9039  0.8045  0.3714
  167SAPS   C2918867   3.093   5.833   5.803 -0.2217 -0.7388  0.1843
  167SAPS   H9R18868   3.120   5.793   5.705  0.7314  0.1700  0.0521
  167SAPS  C21018869   2.959   5.899   5.806 -0.2485 -0.0541  0.1065
  167SAPS  H10R18870   2.932   5.919   5.912 -2.5196 -1.3513 -0.1746
  167SAPS  H10S18871   2.890   5.830   5.754  0.4238 -0.1641 -0.6422
  167SAPS  C21118872   2.971   6.026   5.725 -0.5475  0.8650  0.0996
  167SAPS  H11R18873   3.037   6.097   5.777  1.4586 -1.9096  1.5855
  167SAPS  C21218874   2.915   6.044   5.602 -0.5639  0.2569 -0.1941
  167SAPS  H12R18875   2.931   6.137   5.545  0.7547  1.2320  1.6634
  167SAPS  C21318876   2.837   5.944   5.534  0.4692 -0.1180  0.1032
  167SAPS  H13R18877   2.759   5.905   5.603 -2.8084  0.3661 -3.0124
  167SAPS  H13S18878   2.899   5.854   5.516 -0.2840 -0.8192  0.8926
  167SAPS  C21418879   2.772   5.977   5.403 -0.1347 -0.1116  0.1567
  167SAPS  H14R18880   2.690   6.051   5.397  0.1204  0.2465  0.8423
  167SAPS  C21518881   2.806   5.925   5.285  0.2695 -0.0221  0.7599
  167SAPS  H15R18882   2.756   5.970   5.198 -2.7231 -1.9256  1.3631
  167SAPS  C21618883   2.910   5.829   5.250  0.3608 -0.1011  0.9528
  167SAPS  H16R18884   2.874   5.728   5.220 -0.5319  0.4517  0.1043
  167SAPS  H16S18885   2.981   5.819   5.335  1.3253  2.5563  0.5632
  167SAPS  C21718886   2.996   5.885   5.136  0.6283 -0.0805  0.1245
  167SAPS  H17R18887   3.086   5.823   5.116  0.1223 -0.5383 -0.8186
  167SAPS  H17S18888   3.032   5.981   5.178 -1.5843  1.8764 -2.1237
  167SAPS  C21818889   2.920   5.894   5.000 -0.8984 -0.1303 -0.0104
  167SAPS  H18R18890   2.880   5.995   4.976 -0.9604  0.1841  1.3480
  167SAPS  H18S18891   2.830   5.829   5.000 -1.2783  0.3866  0.2117
  167SAPS  C21918892   3.011   5.847   4.885  0.5140 -0.0044 -1.0756
  167SAPS  H19R18893   3.027   5.742   4.915  0.9256  0.1176 -0.8689
  167SAPS  H19S18894   3.114   5.886   4.897 -0.3325  1.7344  1.6367
  167SAPS  C22018895   2.961   5.863   4.742  0.0810 -0.1434 -0.6979
  167SAPS  H20R18896   2.935   5.965   4.704 -2.1854 -0.4129 -0.0286
  167SAPS  H20S18897   2.870   5.801   4.729 -1.2005  1.5666 -0.3333
  167SAPS  H20T18898   3.036   5.822   4.672  0.2733  1.6512 -1.6215
  167SAPS   C3318899   3.257   5.381   6.023 -0.4128  0.4288  0.8502
  167SAPS   H3X18900   3.295   5.484   6.039  1.8940 -0.5095  1.9199
  167SAPS   H3Y18901   3.159   5.360   6.070  0.4599 -1.3043  2.0507
  167SAPS   C3418902   3.256   5.347   5.871 -0.0546 -0.4820 -0.7020
  167SAPS   H4X18903   3.219   5.246   5.844 -0.4034  0.2285 -3.0387
  167SAPS   H4Y18904   3.362   5.332   5.842  0.2737 -0.8910  0.6269
  167SAPS   C3518905   3.211   5.458   5.772  0.8430 -0.0129 -0.4044
  167SAPS   H5X18906   3.253   5.550   5.818  0.7318 -0.5714  0.8628
  167SAPS   H5Y18907   3.099   5.459   5.770  0.7500  0.4861  2.1491
  167SAPS   C3618908   3.265   5.443   5.631  0.3299 -1.0599 -0.2601
  167SAPS   H6X18909   3.257   5.339   5.591 -0.3516 -0.6263 -1.2840
  167SAPS   H6Y18910   3.375   5.461   5.624  0.2306 -0.8165 -1.3345
  167SAPS   C3718911   3.186   5.531   5.527  0.5198  0.3308 -0.1006
  167SAPS   H7X18912   3.110   5.590   5.583 -0.8785 -0.2404 -1.3198
  167SAPS   H7Y18913   3.129   5.463   5.460  3.9711 -0.5364 -2.4457
  167SAPS   C3818914   3.259   5.627   5.439  0.1127  0.3254  0.4098
  167SAPS   H8X18915   3.296   5.715   5.496 -3.3817  2.7301 -0.7510
  167SAPS   H8Y18916   3.187   5.670   5.367 -0.1727 -0.6072  0.1196
  167SAPS   C3918917   3.379   5.566   5.371  0.4520  0.2305  0.2243
  167SAPS   H9X18918   3.456   5.565   5.452 -0.2253  2.9629  1.0285
  167SAPS   H9Y18919   3.412   5.655   5.313  0.7116 -0.2253 -0.3316
  167SAPS  C31018920   3.364   5.448   5.280 -0.0302  0.4544 -0.1921
  167SAPS  H10X18921   3.297   5.477   5.196 -0.9491 -0.8014  0.0616
  167SAPS  H10Y18922   3.307   5.363   5.323 -1.9150  0.5726 -2.3000
  167SAPS  C31118923   3.493   5.391   5.218 -0.2748  0.2874  0.7554
  167SAPS  H11X18924   3.525   5.468   5.145 -1.4514 -0.5207 -0.6682
  167SAPS  H11Y18925   3.480   5.291   5.170 -1.3281  0.3819  0.8153
  167SAPS  C31218926   3.597   5.361   5.326  0.2239 -0.6507 -0.3647
  167SAPS  H12X18927   3.534   5.303   5.398 -1.3388  0.6414 -0.6280
  167SAPS  H12Y18928   3.626   5.446   5.392  1.0907 -1.2274  0.0230
  167SAPS  C31318929   3.718   5.289   5.267  0.1996  0.0417  0.5565
  167SAPS  H13X18930   3.692   5.208   5.195 -0.8042  1.4401 -0.7189
  167SAPS  H13Y18931   3.764   5.236   5.353  2.5092  0.5605 -0.2707
  167SAPS  C31418932   3.820   5.391   5.202  0.1646 -0.3374 -0.8045
  167SAPS  H14X18933   3.922   5.357   5.228 -0.3487 -2.5512 -1.4609
  167SAPS  H14Y18934   3.792   5.488   5.249 -1.2107 -0.6137 -1.0175
  167SAPS  C31518935   3.813   5.404   5.051 -0.1846 -0.4627 -0.6254
  167SAPS  H15X18936   3.708   5.434   5.035 -0.8228 -1.4965  1.2759
  167SAPS  H15Y18937   3.819   5.311   4.990 -0.8683  0.4222 -2.0884
  167SAPS  C31618938   3.921   5.505   5.001 -0.5427 -0.1117  0.0961
  167SAPS  H16X18939   4.026   5.475   5.017 -0.5486  1.1900  3.6456
  167SAPS  H16Y18940   3.909   5.601   5.056  0.3648 -0.6700  1.3301
  167SAPS  C31718941   3.894   5.535   4.849 -0.0267  1.1341 -0.3929
  167SAPS  H17X18942   3.793   5.574   4.825 -0.4214  1.1973  1.2295
  167SAPS  H17Y18943   3.893   5.435   4.801  0.2669  1.2612 -0.6633
  167SAPS  C31818944   3.995   5.624   4.787 -0.4336 -0.3548 -0.4581
  167SAPS  H18X18945   4.099   5.604   4.821  0.0274  0.8668 -1.1103
  167SAPS  H18Y18946   3.990   5.729   4.824 -0.8313 -0.3062 -0.6363
  167SAPS  H18Z18947   4.005   5.612   4.677  0.6160 -1.0969 -0.3006
  168SAPS     N18948   6.059   5.408   7.410 -0.0666  0.0636  0.1683
  168SAPS   HN118949   6.017   5.349   7.335  0.7881  0.5146 -0.6989
  168SAPS   HN218950   6.008   5.499   7.414 -0.3906 -0.0447 -0.9932
  168SAPS   HN318951   6.159   5.429   7.390  0.1571  0.4665  1.6383
  168SAPS   C1218952   6.059   5.337   7.540  0.4283  0.1516  0.0446
  168SAPS  H12A18953   6.100   5.240   7.517  1.2285  0.5615 -0.3025
  168SAPS   C1318954   6.137   5.403   7.652  0.0761  0.3528  0.3555
  168SAPS  O13A18955   6.187   5.516   7.632 -0.3885  0.0761 -0.0396
  168SAPS  O13B18956   6.164   5.343   7.758 -0.1665 -1.1381 -0.2048
  168SAPS   C1118957   5.917   5.302   7.581  0.2675 -0.9166  0.3817
  168SAPS  H11A18958   5.856   5.392   7.602  1.6437  0.0351  0.4246
  168SAPS  H11B18959   5.911   5.241   7.673 -2.2583 -0.2284  0.7487
  168SAPS     P18960   5.836   5.062   7.494 -0.1741 -0.0714 -0.4132
  168SAPS   O1318961   5.965   5.012   7.538  0.1012 -0.1674  0.1866
  168SAPS   O1418962   5.716   5.031   7.574 -0.8723  0.0336 -0.2525
  168SAPS   O1218963   5.847   5.225   7.475 -0.3592  0.0994 -0.2329
  168SAPS   O1118964   5.813   5.010   7.345  0.6521 -0.2395 -0.4068
  168SAPS    C118965   5.695   5.051   7.272  0.0910  0.0463 -0.0152
  168SAPS    HA18966   5.605   5.017   7.327  0.1619  0.3517  0.2947
  168SAPS    HB18967   5.701   5.161   7.255 -1.2299  0.1188 -0.0647
  168SAPS    C218968   5.687   4.992   7.126 -0.1470  0.4454 -0.1230
  168SAPS    HS18969   5.647   4.889   7.138 -0.4172  0.7951  2.6142
  168SAPS   O2118970   5.812   4.996   7.058  0.0032  0.9180  0.2017
  168SAPS   C2118971   5.839   4.880   6.994 -0.6086  0.2025 -0.4235
  168SAPS   O2218972   5.766   4.782   6.987  0.5835 -0.4038  0.1501
  168SAPS   C2218973   5.971   4.892   6.916 -0.3119 -1.0142  0.7745
  168SAPS   H2R18974   6.000   4.999   6.907  0.3058 -1.2887 -0.7791
  168SAPS   H2S18975   6.048   4.824   6.958  0.1922 -0.6800  0.3999
  168SAPS    C318976   5.582   5.054   7.039 -0.5380 -0.0552 -0.0897
  168SAPS    HX18977   5.607   5.158   7.010 -1.0414  0.0258 -0.2407
  168SAPS    HY18978   5.491   5.069   7.101 -1.7023 -4.5137 -0.3518
  168SAPS   O3118979   5.557   4.977   6.920  0.1733 -0.2196 -0.5147
  168SAPS   C3118980   5.463   4.887   6.921  0.3302 -0.0830 -0.3695
  168SAPS   O3218981   5.385   4.879   7.013  0.1525  1.0325 -0.7065
  168SAPS   C3218982   5.456   4.797   6.792  0.2798 -0.1631 -0.4018
  168SAPS   H2X18983   5.392   4.709   6.816  0.3294 -0.3182 -0.8371
  168SAPS   H2Y18984   5.557   4.761   6.766  1.3948  1.7469  1.0176
  168SAPS   C2318985   5.948   4.859   6.762 -0.9970  0.4113 -0.9521
  168SAPS   H3R18986   5.848   4.888   6.723  0.1853  1.6009 -3.3337
  168SAPS   H3S18987   5.951   4.748   6.757  0.9011  0.3458  0.2540
  168SAPS   C2418988   6.066   4.918   6.689  0.3420  0.9209  0.4121
  168SAPS   H4R18989   6.094   5.018   6.729  1.6426  0.5608  0.4323
  168SAPS   H4S18990   6.036   4.944   6.585  2.4980  1.1247 -0.2041
  168SAPS   C2518991   6.183   4.826   6.705  0.4181 -0.5651 -0.5174
  168SAPS   H5R18992   6.225   4.829   6.806 -2.3618 -0.1125  0.7372
  168SAPS   C2618993   6.253   4.763   6.611 -0.0119 -0.1765 -0.1617
  168SAPS   H6R18994   6.330   4.691   6.641 -0.3953  0.0290  1.4025
  168SAPS   C2718995   6.225   4.765   6.463 -0.3024 -0.5749  0.0574
  168SAPS   H7R18996   6.165   4.855   6.436  2.2700  0.3461 -3.3683
  168SAPS   H7S18997   6.178   4.672   6.427 -1.2194 -0.2804  0.4637
  168SAPS   C2818998   6.353   4.785   6.389 -0.0209 -0.5361  0.5132
  168SAPS   H8R18999   6.445   4.787   6.450  1.1913  3.2917 -1.1596
  168SAPS   C2919000   6.368   4.795   6.250  0.2465 -0.3138  0.1841
  168SAPS   H9R19001   6.467   4.809   6.204  0.5365 -0.3640  0.7866
  168SAPS  C21019002   6.258   4.806   6.157  0.6937  0.1897  0.0719
  168SAPS  H10R19003   6.161   4.794   6.209  1.3727 -0.8229  1.1412
  168SAPS  H10S19004   6.262   4.720   6.087 -0.7051 -1.5772  2.0302
  168SAPS  C21119005   6.258   4.939   6.084 -0.9711  0.9834  0.1047
  168SAPS  H11R19006   6.285   5.027   6.144  1.1081  0.4203  0.0727
  168SAPS  C21219007   6.240   4.953   5.955  0.2035 -0.7992 -0.5645
  168SAPS  H12R19008   6.243   5.059   5.924 -1.0342 -0.0592  1.6258
  168SAPS  C21319009   6.219   4.858   5.845 -0.7378  0.1230  0.0819
  168SAPS  H13R19010   6.129   4.894   5.791 -0.1659  0.9668 -0.3134
  168SAPS  H13S19011   6.198   4.752   5.873  0.0667 -0.3127 -0.8846
  168SAPS  C21419012   6.331   4.862   5.750  0.0016  0.7178 -0.6048
  168SAPS  H14R19013   6.428   4.830   5.791 -0.4583 -0.5957 -0.4740
  168SAPS  C21519014   6.330   4.891   5.615 -0.3909 -0.0246  0.0652
  168SAPS  H15R19015   6.427   4.883   5.565 -0.2235 -2.3793  0.6297
  168SAPS  C21619016   6.213   4.943   5.529  0.0283  0.5823 -0.2786
  168SAPS  H16R19017   6.113   4.913   5.566 -0.3144  2.0210  0.0237
  168SAPS  H16S19018   6.229   4.907   5.425  1.5324  1.8060 -0.5085
  168SAPS  C21719019   6.187   5.095   5.525 -0.3246  0.0783  0.3291
  168SAPS  H17R19020   6.124   5.128   5.441  2.2563  0.0865 -1.7388
  168SAPS  H17S19021   6.283   5.148   5.505 -1.8555  1.9990 -2.6547
  168SAPS  C21819022   6.120   5.145   5.651  0.1440 -0.5142  0.5120
  168SAPS  H18R19023   6.202   5.125   5.723  0.1587  1.6739  1.2012
  168SAPS  H18S19024   6.033   5.089   5.691 -1.0516  0.7365 -0.2526
  168SAPS  C21919025   6.095   5.296   5.657 -0.0256  0.0206  0.7314
  168SAPS  H19R19026   5.998   5.322   5.609 -0.6145  0.0031  1.8505
  168SAPS  H19S19027   6.181   5.346   5.609 -0.6132  1.2882  0.9560
  168SAPS  C22019028   6.096   5.333   5.804 -0.4834  0.0228 -0.4341
  168SAPS  H20R19029   6.187   5.315   5.865 -1.4993  1.1087  1.4957
  168SAPS  H20S19030   6.026   5.258   5.846  1.9924 -1.5653  1.1160
  168SAPS  H20T19031   6.062   5.437   5.823 -0.4123 -0.3489  1.9546
  168SAPS   C3319032   5.403   4.867   6.657  0.0565  0.3743 -0.3166
  168SAPS   H3X19033   5.426   4.976   6.656 -1.2074  0.6704  0.4718
  168SAPS   H3Y19034   5.293   4.852   6.657  0.4157 -3.2245  0.7790
  168SAPS   C3419035   5.457   4.792   6.537  0.7938  0.4883 -0.3240
  168SAPS   H4X19036   5.429   4.685   6.545  2.1970  0.0716 -0.8169
  168SAPS   H4Y19037   5.566   4.811   6.528  0.9707  0.2982  1.2281
  168SAPS   C3519038   5.385   4.839   6.411  0.2859  0.0429  0.3236
  168SAPS   H5X19039   5.410   4.944   6.383  1.5147  0.1326  1.6102
  168SAPS   H5Y19040   5.274   4.842   6.421  0.2895  0.3558  0.2846
  168SAPS   C3619041   5.398   4.740   6.301 -0.3372  0.1983  0.1744
  168SAPS   H6X19042   5.376   4.633   6.319  1.9136 -0.9696 -3.0785
  168SAPS   H6Y19043   5.506   4.737   6.274  0.2319  3.6856  1.5260
  168SAPS   C3719044   5.327   4.794   6.175  0.0945 -0.3381  0.0492
  168SAPS   H7X19045   5.350   4.903   6.174 -0.1856 -0.2230  1.9753
  168SAPS   H7Y19046   5.216   4.796   6.178  0.1163 -0.2949  1.5774
  168SAPS   C3819047   5.374   4.741   6.039 -0.4163 -0.3672  0.1809
  168SAPS   H8X19048   5.347   4.633   6.039  1.9210 -1.0255 -1.7425
  168SAPS   H8Y19049   5.485   4.738   6.032 -0.3101  0.6053  1.2012
  168SAPS   C3919050   5.310   4.808   5.924  0.7386 -0.1847 -0.5878
  168SAPS   H9X19051   5.352   4.909   5.908 -1.6583  1.1680  1.0864
  168SAPS   H9Y19052   5.202   4.823   5.941 -0.1250 -3.5841 -2.2172
  168SAPS  C31019053   5.336   4.727   5.793 -0.6151 -0.1471 -0.0484
  168SAPS  H10X19054   5.298   4.624   5.805 -0.4280 -0.4006 -1.4071
  168SAPS  H10Y19055   5.445   4.710   5.780 -0.3002  0.7939  1.1158
  168SAPS  C31119056   5.284   4.792   5.668 -0.3070  0.3512 -0.3167
  168SAPS  H11X19057   5.343   4.884   5.649 -1.0176  1.4026  2.1313
  168SAPS  H11Y19058   5.177   4.821   5.673 -0.0173  1.2745  1.3242
  168SAPS  C31219059   5.311   4.695   5.552  0.4426 -0.3801 -0.1031
  168SAPS  H12X19060   5.237   4.612   5.555  1.6799 -1.5636 -0.9083
  168SAPS  H12Y19061   5.409   4.643   5.553 -0.1226 -1.4629  0.9672
  168SAPS  C31319062   5.284   4.772   5.425  0.1311  0.0646  0.3827
  168SAPS  H13X19063   5.344   4.866   5.419 -3.4051  2.5021 -0.2533
  168SAPS  H13Y19064   5.178   4.806   5.422 -0.2802 -1.1736  0.5947
  168SAPS  C31419065   5.304   4.687   5.296  0.1533 -0.0476 -0.3369
  168SAPS  H14X19066   5.235   4.600   5.295  0.3601 -0.2457  0.8450
  168SAPS  H14Y19067   5.408   4.648   5.290  0.1402 -0.1023 -0.2132
  168SAPS  C31519068   5.263   4.757   5.166 -0.3583  0.2918  0.2945
  168SAPS  H15X19069   5.332   4.839   5.138  0.7771 -1.8119 -3.8656
  168SAPS  H15Y19070   5.155   4.783   5.175 -0.5687 -0.2816 -0.4413
  168SAPS  C31619071   5.277   4.662   5.044  0.3041 -0.3408  1.1266
  168SAPS  H16X19072   5.199   4.583   5.037 -1.5686  1.5156 -0.5773
  168SAPS  H16Y19073   5.378   4.617   5.052 -0.9104 -3.2985  0.9508
  168SAPS  C31719074   5.280   4.737   4.903  0.1734 -0.1368  0.7420
  168SAPS  H17X19075   5.311   4.652   4.838 -1.0904 -1.1768  1.4486
  168SAPS  H17Y19076   5.360   4.814   4.903  1.2545 -1.2180  1.1792
  168SAPS  C31819077   5.147   4.793   4.853  0.1323  0.1309 -0.4437
  168SAPS  H18X19078   5.114   4.879   4.915 -1.7413  0.5362 -1.8783
  168SAPS  H18Y19079   5.064   4.719   4.854 -1.2259  1.5618  2.4063
  168SAPS  H18Z19080   5.159   4.823   4.746  1.5466  0.4410 -0.2225
  169SAPS     N19081   2.862   1.320   7.693  0.3340  0.1631  0.2180
  169SAPS   HN119082   2.837   1.231   7.644 -1.8512  0.7142  0.2487
  169SAPS   HN219083   2.925   1.289   7.770 -0.3003  1.3687  1.2413
  169SAPS   HN319084   2.776   1.362   7.731 -0.7211 -1.6330 -0.0639
  169SAPS   C1219085   2.946   1.412   7.605  0.2261  0.3129  0.5804
  169SAPS  H12A19086   2.901   1.417   7.507  1.5062  0.9323 -0.0125
  169SAPS   C1319087   2.954   1.557   7.663 -0.3604 -0.0740  1.2196
  169SAPS  O13A19088   2.906   1.583   7.775  0.0523  0.8047 -0.0437
  169SAPS  O13B19089   3.011   1.643   7.590 -0.2159  0.1697 -0.0050
  169SAPS   C1119090   3.094   1.363   7.590 -0.4140  0.3479 -0.4171
  169SAPS  H11A19091   3.153   1.393   7.679 -5.8823  2.2822  3.0656
  169SAPS  H11B19092   3.142   1.413   7.503 -0.1673 -0.3992 -0.7157
  169SAPS     P19093   3.194   1.147   7.479 -0.2838 -0.2016 -0.4391
  169SAPS   O1319094   3.332   1.185   7.527 -0.0258  1.0371  0.3903
  169SAPS   O1419095   3.161   1.006   7.482  0.0585  0.4572  0.4305
  169SAPS   O1219096   3.090   1.223   7.565 -0.3007 -0.0331 -0.1377
  169SAPS   O1119097   3.177   1.202   7.330 -0.2940  0.2739  0.2365
  169SAPS    C119098   3.057   1.217   7.266  0.6536 -0.3667 -0.0772
  169SAPS    HA19099   2.968   1.239   7.329  1.9266 -0.8688  1.9968
  169SAPS    HB19100   3.068   1.305   7.198 -1.4715  1.8496  2.1920
  169SAPS    C219101   3.029   1.093   7.186  0.1531 -0.6185  0.1043
  169SAPS    HS19102   3.037   1.004   7.253  0.0581 -0.7820 -0.0983
  169SAPS   O2119103   3.125   1.080   7.078  0.7970 -0.1726 -0.1316
  169SAPS   C2119104   3.150   0.962   7.020  0.7295  0.3140  0.5786
  169SAPS   O2219105   3.103   0.858   7.054  0.4347  0.2476  0.0759
  169SAPS   C2219106   3.233   0.985   6.898 -0.3760 -0.7396 -0.6144
  169SAPS   H2R19107   3.164   0.973   6.811 -0.7220  0.2711 -0.4827
  169SAPS   H2S19108   3.264   1.091   6.894 -1.0063 -0.4998  0.6324
  169SAPS    C319109   2.877   1.093   7.125  0.1588  0.5238  0.2802
  169SAPS    HX19110   2.812   1.082   7.214 -0.6688  1.1214 -0.2352
  169SAPS    HY19111   2.858   0.994   7.078  0.0116 -0.3601  2.0926
  169SAPS   O3119112   2.845   1.216   7.047 -0.3486  0.2264 -0.0777
  169SAPS   C3119113   2.723   1.241   7.032 -0.4714 -0.2901 -0.6541
  169SAPS   O3219114   2.625   1.179   7.065  0.8012  0.1581  0.1607
  169SAPS   C3219115   2.718   1.376   6.966  0.3064 -0.0142  0.1697
  169SAPS   H2X19116   2.778   1.444   7.031 -3.3931  2.4982  1.3064
  169SAPS   H2Y19117   2.612   1.411   6.966  0.0027 -0.8932 -1.0951
  169SAPS   C2319118   3.349   0.872   6.893  0.6597 -0.7911 -0.0939
  169SAPS   H3R19119   3.336   0.779   6.952 -0.0601 -0.0888  0.8960
  169SAPS   H3S19120   3.441   0.911   6.943 -0.3647  2.0237 -0.1968
  169SAPS   C2419121   3.383   0.833   6.751 -0.4518  0.1741  0.3132
  169SAPS   H4R19122   3.485   0.788   6.748 -0.8424 -0.6795 -1.2936
  169SAPS   H4S19123   3.383   0.930   6.697  2.1133  0.1479  0.1193
  169SAPS   C2519124   3.273   0.739   6.701 -1.1697  0.3665  0.2339
  169SAPS   H5R19125   3.249   0.670   6.783 -1.3527  1.3471  1.0337
  169SAPS   C2619126   3.218   0.733   6.574  0.0910 -0.2303 -0.5111
  169SAPS   H6R19127   3.157   0.645   6.546 -0.2275 -0.5413  1.0781
  169SAPS   C2719128   3.242   0.839   6.468 -0.4048  1.0196  0.3048
  169SAPS   H7R19129   3.253   0.943   6.507 -0.2449  0.8558  0.6985
  169SAPS   H7S19130   3.155   0.834   6.399 -1.0762 -2.1263  1.2323
  169SAPS   C2819131   3.370   0.813   6.393 -0.5916 -0.5285  0.5958
  169SAPS   H8R19132   3.452   0.771   6.454  0.5329  0.3802 -0.2464
  169SAPS   C2919133   3.395   0.840   6.260 -0.0261  0.1615  0.3554
  169SAPS   H9R19134   3.494   0.821   6.215 -0.9895 -1.1463 -1.3027
  169SAPS  C21019135   3.292   0.892   6.163  0.3265  0.1931 -0.2481
  169SAPS  H10R19136   3.259   0.988   6.208  2.2876  0.5136  0.6336
  169SAPS  H10S19137   3.202   0.827   6.162  0.4273  0.0569 -0.5963
  169SAPS  C21119138   3.335   0.919   6.023  0.0834 -0.2625 -0.3323
  169SAPS  H11R19139   3.410   0.999   6.013  0.7290 -1.0658 -2.5490
  169SAPS  C21219140   3.296   0.850   5.917  0.4168 -0.3744 -0.5196
  169SAPS  H12R19141   3.329   0.879   5.816  2.9866  0.8546  0.5782
  169SAPS  C21319142   3.198   0.735   5.918 -0.5435 -0.1834 -0.4009
  169SAPS  H13R19143   3.190   0.679   6.013 -0.8680 -0.8132 -0.7908
  169SAPS  H13S19144   3.247   0.666   5.846 -0.3882  0.3959 -0.8637
  169SAPS  C21419145   3.057   0.762   5.873 -1.1110  0.1557  0.0238
  169SAPS  H14R19146   3.002   0.824   5.945  0.3012  2.6663 -0.9282
  169SAPS  C21519147   3.009   0.751   5.741  0.4084  0.3200 -0.7189
  169SAPS  H15R19148   2.904   0.778   5.720 -1.0076 -3.6134  0.4160
  169SAPS  C21619149   3.091   0.717   5.617 -0.0912 -0.0750 -0.0053
  169SAPS  H16R19150   3.037   0.644   5.554 -1.7070  2.3823 -1.6379
  169SAPS  H16S19151   3.188   0.672   5.648 -0.5402 -0.1238  1.3990
  169SAPS  C21719152   3.136   0.845   5.541 -0.3249 -0.4384  0.4772
  169SAPS  H17R19153   3.191   0.809   5.451  0.6743  2.2351 -0.0752
  169SAPS  H17S19154   3.191   0.900   5.620 -0.4980 -1.8686  1.6329
  169SAPS  C21819155   3.023   0.930   5.491 -0.3840  0.6202  0.1283
  169SAPS  H18R19156   2.975   0.953   5.589 -0.1418 -0.6397  0.5617
  169SAPS  H18S19157   2.947   0.876   5.431  0.7504 -0.9886  0.0779
  169SAPS  C21919158   3.060   1.068   5.423 -0.0734  0.1292 -0.0901
  169SAPS  H19R19159   3.104   1.041   5.324 -2.0383  1.3468 -1.3712
  169SAPS  H19S19160   3.140   1.121   5.479 -0.7015 -0.3253  1.2551
  169SAPS  C22019161   2.948   1.168   5.406 -0.3966 -0.8978  0.4013
  169SAPS  H20R19162   2.980   1.253   5.342  2.0714  0.2367  2.9063
  169SAPS  H20S19163   2.929   1.217   5.504  0.6700 -0.7834  0.5678
  169SAPS  H20T19164   2.860   1.123   5.356 -0.2352  0.5078 -1.2378
  169SAPS   C3319165   2.762   1.363   6.822  0.0348  0.0024  0.3173
  169SAPS   H3X19166   2.728   1.265   6.782  0.4871  0.1065 -0.3361
  169SAPS   H3Y19167   2.868   1.353   6.792  0.1471  1.9822 -0.0489
  169SAPS   C3419168   2.707   1.484   6.749  0.4412  0.0389 -0.5401
  169SAPS   H4X19169   2.738   1.576   6.802 -1.3008  1.0811 -1.2373
  169SAPS   H4Y19170   2.600   1.500   6.775  0.9155  0.8711  1.0086
  169SAPS   C3519171   2.738   1.494   6.600 -0.2347 -0.6743 -0.0080
  169SAPS   H5X19172   2.686   1.414   6.543 -1.9847 -0.2242  0.8938
  169SAPS   H5Y19173   2.846   1.476   6.579  0.1633  0.3558  1.0596
  169SAPS   C3619174   2.682   1.625   6.543 -0.0540  0.2152  0.4402
  169SAPS   H6X19175   2.727   1.709   6.601 -3.1888  1.1853  1.6882
  169SAPS   H6Y19176   2.573   1.639   6.554 -0.1563  1.8763 -1.9257
  169SAPS   C3719177   2.716   1.645   6.391  0.8232 -0.1460  0.4134
  169SAPS   H7X19178   2.696   1.546   6.345 -0.4280 -0.4162  1.4926
  169SAPS   H7Y19179   2.823   1.671   6.374  0.7061  0.3751  0.4459
  169SAPS   C3819180   2.630   1.747   6.313 -0.1246  0.6588 -0.1210
  169SAPS   H8X19181   2.644   1.845   6.363  2.3504 -0.0963  0.8266
  169SAPS   H8Y19182   2.522   1.723   6.315  0.4886 -2.4899  0.0374
  169SAPS   C3919183   2.662   1.762   6.165 -0.9316  0.1196 -0.2050
  169SAPS   H9X19184   2.658   1.663   6.114 -1.1318  0.1010 -0.1533
  169SAPS   H9Y19185   2.770   1.788   6.158 -1.2990  1.4275 -1.5682
  169SAPS  C31019186   2.579   1.873   6.099  0.5000 -0.0555  0.1688
  169SAPS  H10X19187   2.563   1.954   6.173  0.3136 -0.4802  0.5944
  169SAPS  H10Y19188   2.477   1.836   6.078 -0.1638  0.9314  1.5151
  169SAPS  C31119189   2.651   1.915   5.972  0.3387 -0.4145  0.3857
  169SAPS  H11X19190   2.663   1.831   5.900  0.6803 -0.0231 -0.0238
  169SAPS  H11Y19191   2.753   1.955   5.993  0.0332  3.9263 -4.3812
  169SAPS  C31219192   2.582   2.021   5.890  0.3043  0.6679 -0.9858
  169SAPS  H12X19193   2.593   2.126   5.923 -0.5047  1.1514 -2.2203
  169SAPS  H12Y19194   2.475   1.994   5.901  1.0396 -2.6423 -0.6794
  169SAPS  C31319195   2.620   2.031   5.746 -0.9881  0.3989  0.0544
  169SAPS  H13X19196   2.602   1.925   5.719  0.8944  0.2611 -0.8236
  169SAPS  H13Y19197   2.727   2.058   5.731 -1.3031  1.4171 -0.4827
  169SAPS  C31419198   2.526   2.115   5.654 -0.4310  0.5650  0.6841
  169SAPS  H14X19199   2.420   2.089   5.677 -0.6127 -0.9192 -1.5663
  169SAPS  H14Y19200   2.538   2.080   5.549 -2.9071  0.0669  0.4959
  169SAPS  C31519201   2.557   2.264   5.661  0.1426  0.1788 -0.4448
  169SAPS  H15X19202   2.664   2.275   5.633  0.4090 -0.1749  0.3909
  169SAPS  H15Y19203   2.543   2.304   5.764  1.2135  1.9238 -0.9437
  169SAPS  C31619204   2.476   2.349   5.565 -0.3317 -0.4538  0.0499
  169SAPS  H16X19205   2.491   2.459   5.569  0.9907 -0.4371 -2.9212
  169SAPS  H16Y19206   2.371   2.320   5.584 -1.0708  1.9705  0.0760
  169SAPS  C31719207   2.513   2.320   5.416 -0.4752 -0.5013 -0.0329
  169SAPS  H17X19208   2.484   2.214   5.400  4.0542 -1.9541  0.0104
  169SAPS  H17Y19209   2.624   2.313   5.407 -0.1758  0.4298  2.1537
  169SAPS  C31819210   2.462   2.421   5.310 -0.0827  0.0375 -0.0226
  169SAPS  H18X19211   2.477   2.382   5.208  2.6173 -1.4340  0.8279
  169SAPS  H18Y19212   2.527   2.511   5.318 -0.0421 -0.0066  0.1485
  169SAPS  H18Z19213   2.358   2.447   5.339  0.9455  2.6718  1.6676
  170SAPS     N19214   3.621   4.321   7.738  0.1961  0.0309  0.6593
  170SAPS   HN119215   3.651   4.245   7.802 -0.1315 -0.7027 -0.0481
  170SAPS   HN219216   3.696   4.389   7.712 -1.8359  2.5451  0.9735
  170SAPS   HN319217   3.554   4.382   7.790 -3.0778 -2.4942 -0.2804
  170SAPS   C1219218   3.549   4.239   7.632  0.0393 -0.1765  0.0422
  170SAPS  H12A19219   3.623   4.220   7.555 -1.0801  2.8634 -1.9768
  170SAPS   C1319220   3.490   4.110   7.684 -0.1076 -0.0942  0.4158
  170SAPS  O13A19221   3.505   4.066   7.800 -0.2013 -0.6116 -0.2038
  170SAPS  O13B19222   3.439   4.038   7.595  0.0868  0.2203 -0.6271
  170SAPS   C1119223   3.432   4.323   7.569  0.1841 -0.8281 -0.2708
  170SAPS  H11A19224   3.350   4.333   7.642  1.5048 -0.2326  1.1965
  170SAPS  H11B19225   3.394   4.261   7.485  0.1458 -0.9444 -0.1672
  170SAPS     P19226   3.408   4.526   7.407 -0.0220 -0.1053  0.0172
  170SAPS   O1319227   3.269   4.544   7.448  0.4291  0.0998  0.0970
  170SAPS   O1419228   3.476   4.659   7.374 -0.4329 -0.2544 -0.4938
  170SAPS   O1219229   3.484   4.444   7.514  0.5607  0.4635 -0.3149
  170SAPS   O1119230   3.410   4.430   7.277 -0.1943  0.5183 -0.4658
  170SAPS    C119231   3.526   4.345   7.250  0.3395  0.2271 -0.1699
  170SAPS    HA19232   3.613   4.366   7.316  1.5936  3.1086 -2.4809
  170SAPS    HB19233   3.491   4.242   7.271  0.3115  0.3246  0.2640
  170SAPS    C219234   3.574   4.357   7.103 -0.4749  0.0711 -0.0695
  170SAPS    HS19235   3.679   4.319   7.099  0.3764  2.2436  0.5224
  170SAPS   O2119236   3.559   4.492   7.042  0.2709  0.0129 -0.4020
  170SAPS   C2119237   3.640   4.581   7.095  0.1227 -0.0357 -0.6782
  170SAPS   O2219238   3.725   4.562   7.181  0.1527 -0.2759 -0.4663
  170SAPS   C2219239   3.603   4.720   7.034 -0.1567  0.2110  0.4599
  170SAPS   H2R19240   3.567   4.696   6.932  0.0598  1.0443  0.1835
  170SAPS   H2S19241   3.524   4.774   7.091  0.8935 -0.3218  2.5223
  170SAPS    C319242   3.489   4.255   7.015  0.3348  0.2066 -0.0729
  170SAPS    HX19243   3.384   4.276   7.044 -0.5680 -0.0559 -2.8221
  170SAPS    HY19244   3.521   4.154   7.048  1.8734  0.7313  0.1495
  170SAPS   O3119245   3.505   4.287   6.873 -0.6295  0.0692 -0.0121
  170SAPS   C3119246   3.491   4.186   6.798 -0.4423  0.2454 -0.4049
  170SAPS   O3219247   3.437   4.078   6.838 -0.1746 -1.2268  0.1147
  170SAPS   C3219248   3.545   4.212   6.668  0.1498 -0.0781  0.3327
  170SAPS   H2X19249   3.649   4.174   6.659 -0.0787 -0.4855 -0.7225
  170SAPS   H2Y19250   3.549   4.322   6.649  1.5980 -0.6736 -3.8904
  170SAPS   C2319251   3.726   4.811   7.018 -0.6045 -0.6628  0.4309
  170SAPS   H3R19252   3.804   4.763   6.955 -0.8414  1.8020 -1.9458
  170SAPS   H3S19253   3.764   4.834   7.119  0.7696  1.0560 -0.4092
  170SAPS   C2419254   3.688   4.940   6.935  0.3654  0.1503 -1.0288
  170SAPS   H4R19255   3.617   5.007   6.987  0.6114  0.7891 -1.5086
  170SAPS   H4S19256   3.643   4.896   6.844  0.2485 -2.9001  0.3732
  170SAPS   C2519257   3.808   5.023   6.896 -0.8591  0.9076  0.1728
  170SAPS   H5R19258   3.863   5.069   6.979  1.2147  0.7818 -1.0561
  170SAPS   C2619259   3.862   5.036   6.773  0.1818 -0.6525 -0.7550
  170SAPS   H6R19260   3.959   5.088   6.765  0.8044 -1.8152 -0.8811
  170SAPS   C2719261   3.811   4.983   6.642 -0.4623  0.0041  0.6262
  170SAPS   H7R19262   3.710   4.936   6.646 -0.9042  0.8279 -0.3909
  170SAPS   H7S19263   3.876   4.899   6.609  0.5193  0.7467  0.6237
  170SAPS   C2819264   3.815   5.087   6.533 -0.2924  0.2729  0.3802
  170SAPS   H8R19265   3.857   5.185   6.559  0.1302 -0.2405  1.7729
  170SAPS   C2919266   3.763   5.080   6.411 -0.6142 -0.2035  0.0462
  170SAPS   H9R19267   3.772   5.167   6.345 -2.1324 -0.2839 -0.2893
  170SAPS  C21019268   3.714   4.951   6.341  0.5144  0.2235  0.0397
  170SAPS  H10R19269   3.604   4.958   6.329  0.5074  0.2577  0.1247
  170SAPS  H10S19270   3.729   4.866   6.411 -1.7593 -0.4308 -0.1931
  170SAPS  C21119271   3.784   4.930   6.213  0.2023  0.2352 -0.5546
  170SAPS  H11R19272   3.893   4.926   6.226  0.1582 -0.0759 -0.2576
  170SAPS  C21219273   3.730   4.929   6.092  0.8946 -0.0291  0.1379
  170SAPS  H12R19274   3.802   4.920   6.008 -1.7078  2.2287 -2.5441
  170SAPS  C21319275   3.583   4.926   6.050 -1.0690 -0.5141 -0.6843
  170SAPS  H13R19276   3.558   5.026   6.009 -0.3077 -0.1349 -0.2541
  170SAPS  H13S19277   3.523   4.924   6.144 -0.1278  2.7205  0.1162
  170SAPS  C21419278   3.550   4.816   5.955 -0.2987 -0.6546 -0.0919
  170SAPS  H14R19279   3.609   4.723   5.964  0.0913 -0.4163 -0.1580
  170SAPS  C21519280   3.476   4.835   5.845  0.3706  0.3783 -0.9866
  170SAPS  H15R19281   3.464   4.755   5.771  2.3614 -0.6031 -0.3203
  170SAPS  C21619282   3.399   4.956   5.805  0.5934 -0.3433 -0.3381
  170SAPS  H16R19283   3.434   5.040   5.869  1.3540  0.4827 -1.7556
  170SAPS  H16S19284   3.290   4.950   5.827  0.7709  2.9546  2.3055
  170SAPS  C21719285   3.414   5.011   5.666  0.8573 -0.0999 -0.5393
  170SAPS  H17R19286   3.521   5.027   5.639  0.3885 -0.1660 -2.6009
  170SAPS  H17S19287   3.377   5.116   5.660 -0.1729 -0.4138  0.1380
  170SAPS  C21819288   3.344   4.929   5.556  0.2620 -0.2310 -0.0508
  170SAPS  H18R19289   3.236   4.938   5.581  0.5186  2.0827  0.4080
  170SAPS  H18S19290   3.378   4.823   5.556  3.0962  0.5206 -2.2883
  170SAPS  C21919291   3.359   4.991   5.415 -0.5989 -0.2927  0.1370
  170SAPS  H19R19292   3.466   4.997   5.386 -1.1369 -1.4042 -2.3854
  170SAPS  H19S19293   3.306   5.088   5.401 -1.3619 -0.6690  0.3695
  170SAPS  C22019294   3.292   4.901   5.304  0.0383 -0.6190  0.0856
  170SAPS  H20R19295   3.349   4.806   5.307  0.0874 -0.5719  1.0169
  170SAPS  H20S19296   3.310   4.942   5.203  0.0988  0.9884  0.7107
  170SAPS  H20T19297   3.186   4.879   5.327 -0.4556  1.1042 -0.3700
  170SAPS   C3319298   3.458   4.152   6.557 -0.1704  0.2615  0.2312
  170SAPS   H3X19299   3.349   4.168   6.575  0.0713  1.0085  1.0953
  170SAPS   H3Y19300   3.472   4.042   6.568  0.1756  0.2122 -0.6009
  170SAPS   C3419301   3.488   4.193   6.412 -0.2423 -0.7789  0.2848
  170SAPS   H4X19302   3.595   4.168   6.400  0.0692 -0.3776  1.9621
  170SAPS   H4Y19303   3.479   4.304   6.403  1.7723 -0.6347 -0.3373
  170SAPS   C3519304   3.407   4.122   6.304  0.4493  0.7353 -0.5020
  170SAPS   H5X19305   3.303   4.162   6.306  0.4779  0.7809  1.1271
  170SAPS   H5Y19306   3.399   4.013   6.323 -0.4411  0.5086 -2.0191
  170SAPS   C3619307   3.460   4.150   6.163 -0.3863  0.2603  0.1632
  170SAPS   H6X19308   3.569   4.126   6.160 -0.0956  1.4808  0.6206
  170SAPS   H6Y19309   3.456   4.254   6.125 -0.1424 -0.2057 -1.1754
  170SAPS   C3719310   3.370   4.067   6.067 -0.0167 -0.1100  0.8665
  170SAPS   H7X19311   3.267   4.090   6.100  0.7652  0.8324  2.7605
  170SAPS   H7Y19312   3.381   3.958   6.086 -2.5621 -1.1959 -2.6741
  170SAPS   C3819313   3.387   4.101   5.916 -0.1996  0.3363  0.4753
  170SAPS   H8X19314   3.491   4.086   5.880 -0.3554  0.1425  0.0902
  170SAPS   H8Y19315   3.358   4.207   5.897 -0.2232  0.5370  1.5640
  170SAPS   C3919316   3.288   4.017   5.836  0.3858 -0.3339  0.4263
  170SAPS   H9X19317   3.284   4.058   5.733  2.6320 -0.7147  0.1323
  170SAPS   H9Y19318   3.187   4.027   5.881 -0.9363  0.0471 -2.3970
  170SAPS  C31019319   3.310   3.864   5.828 -0.0537 -0.2696 -0.0445
  170SAPS  H10X19320   3.218   3.807   5.803 -0.2254  0.1678 -0.4132
  170SAPS  H10Y19321   3.332   3.837   5.933 -2.8483 -0.7271  0.4978
  170SAPS  C31119322   3.433   3.824   5.732  0.1844  0.0675 -0.5776
  170SAPS  H11X19323   3.462   3.720   5.755  0.1571  0.3502  0.8400
  170SAPS  H11Y19324   3.520   3.889   5.757  0.6766 -1.5616  2.3105
  170SAPS  C31219325   3.396   3.825   5.581 -0.4105 -0.0468 -0.3840
  170SAPS  H12X19326   3.367   3.927   5.548 -0.5135  0.7431  1.9714
  170SAPS  H12Y19327   3.306   3.762   5.570  0.6944 -1.5260 -1.2969
  170SAPS  C31319328   3.513   3.783   5.493 -0.1936 -0.8651  0.4240
  170SAPS  H13X19329   3.558   3.685   5.521 -0.4655 -1.7337 -1.9484
  170SAPS  H13Y19330   3.586   3.866   5.506  0.5934 -0.6711 -3.8527
  170SAPS  C31419331   3.479   3.787   5.343  0.8226 -0.1359 -0.3728
  170SAPS  H14X19332   3.446   3.888   5.312  0.7449  1.1612  3.4356
  170SAPS  H14Y19333   3.399   3.712   5.329  1.2383 -1.2820  2.7116
  170SAPS  C31519334   3.602   3.751   5.254 -0.0683  0.7521 -0.3066
  170SAPS  H15X19335   3.667   3.841   5.250  2.2785 -0.8891 -3.7835
  170SAPS  H15Y19336   3.561   3.744   5.151  2.5040 -1.3611 -1.2948
  170SAPS  C31619337   3.693   3.636   5.290 -0.3260  0.2440 -0.3294
  170SAPS  H16X19338   3.634   3.542   5.304  0.2424 -0.2819 -1.3467
  170SAPS  H16Y19339   3.739   3.656   5.389 -0.5582  2.0134 -0.5578
  170SAPS  C31719340   3.815   3.610   5.189 -0.4804 -0.3453  0.1587
  170SAPS  H17X19341   3.856   3.706   5.151  2.2126 -1.9651 -1.3182
  170SAPS  H17Y19342   3.784   3.552   5.099  0.8097 -3.4581  1.6014
  170SAPS  C31819343   3.929   3.526   5.254  1.0581 -0.3270 -0.0840
  170SAPS  H18X19344   4.000   3.587   5.313 -0.0893  0.0353  0.9746
  170SAPS  H18Y19345   3.983   3.483   5.167 -0.4748  1.5867 -2.0816
  170SAPS  H18Z19346   3.888   3.437   5.308  1.4272 -1.4651 -1.6023
  171SAPS     N19347   4.656   6.028   7.801  0.2521 -0.2743 -0.4920
  171SAPS   HN119348   4.569   6.071   7.839  0.6323 -1.3161  1.7591
  171SAPS   HN219349   4.631   5.951   7.735 -1.4870  0.3817 -0.6591
  171SAPS   HN319350   4.694   5.982   7.886  0.2893  0.8077  0.0912
  171SAPS   C1219351   4.746   6.127   7.737 -0.8615 -0.2101 -0.0102
  171SAPS  H12A19352   4.756   6.204   7.813 -2.2030 -4.2675  4.7975
  171SAPS   C1319353   4.890   6.072   7.702 -0.7043  0.1895  0.2248
  171SAPS  O13A19354   4.920   5.959   7.750  0.2106  0.2643  0.4849
  171SAPS  O13B19355   4.967   6.136   7.632 -0.6644  0.0873 -0.6049
  171SAPS   C1119356   4.691   6.162   7.596  0.1412 -0.4915  0.2145
  171SAPS  H11A19357   4.694   6.081   7.520  0.2144  0.1315 -0.4584
  171SAPS  H11B19358   4.758   6.242   7.557  0.3885 -0.9570 -0.3258
  171SAPS     P19359   4.513   6.363   7.622 -0.1500 -0.0360 -0.1484
  171SAPS   O1319360   4.405   6.362   7.716  0.2740 -0.0926 -0.3805
  171SAPS   O1419361   4.628   6.454   7.663  0.2742  0.1583 -0.5766
  171SAPS   O1219362   4.558   6.216   7.596  0.3073 -0.1338  0.2392
  171SAPS   O1119363   4.464   6.405   7.476 -0.2109  0.2545  0.3179
  171SAPS    C119364   4.548   6.390   7.363  0.4636  0.2194  0.1144
  171SAPS    HA19365   4.582   6.492   7.334  2.1181 -0.2826  0.2244
  171SAPS    HB19366   4.640   6.332   7.386  1.7938  2.7454  1.6238
  171SAPS    C219367   4.474   6.333   7.234 -0.3925 -0.0282  0.4796
  171SAPS    HS19368   4.550   6.349   7.154  2.6268 -2.1728  2.6608
  171SAPS   O2119369   4.350   6.400   7.201  0.0598  0.7397 -0.3842
  171SAPS   C2119370   4.362   6.522   7.155  0.7871  0.1140 -0.2151
  171SAPS   O2219371   4.460   6.589   7.145 -0.4340 -0.0162  0.5050
  171SAPS   C2219372   4.217   6.579   7.132 -0.1744 -0.6204  0.9793
  171SAPS   H2R19373   4.161   6.588   7.228  0.4030  1.0192  1.1955
  171SAPS   H2S19374   4.235   6.679   7.087  0.5427 -0.9927  0.4156
  171SAPS    C319375   4.442   6.177   7.248 -0.3338  0.4399  0.3692
  171SAPS    HX19376   4.374   6.176   7.336  1.6212 -0.2726  1.9445
  171SAPS    HY19377   4.533   6.123   7.282 -0.3718  0.9546  1.2931
  171SAPS   O3119378   4.386   6.120   7.125  0.4472 -0.1331 -0.1034
  171SAPS   C3119379   4.262   6.112   7.120  0.3305  0.0347 -0.7333
  171SAPS   O3219380   4.177   6.141   7.208  0.6296 -0.4717  0.7353
  171SAPS   C3219381   4.226   6.032   7.001  0.0041  0.3338  0.1527
  171SAPS   H2X19382   4.134   5.978   7.031  1.2105  0.1158  4.0982
  171SAPS   H2Y19383   4.310   5.960   6.986  0.7108  1.6309 -2.9023
  171SAPS   C2319384   4.134   6.489   7.026  0.2105  0.2087  0.8225
  171SAPS   H3R19385   4.025   6.505   7.041  0.2449  0.3700  0.9060
  171SAPS   H3S19386   4.153   6.381   7.047  1.1309 -0.2450 -1.9080
  171SAPS   C2419387   4.161   6.530   6.876 -0.0831 -0.2489  0.2596
  171SAPS   H4R19388   4.139   6.436   6.821 -0.3745  0.0894 -0.2079
  171SAPS   H4S19389   4.268   6.558   6.871 -0.0968 -0.2333  0.0394
  171SAPS   C2519390   4.080   6.644   6.821  0.6094  0.6991 -0.0745
  171SAPS   H5R19391   4.030   6.713   6.891 -0.8599  0.4719 -0.8537
  171SAPS   C2619392   4.045   6.666   6.692 -0.0243  0.4767 -0.2017
  171SAPS   H6R19393   3.982   6.755   6.678  2.5071  2.2545 -1.1045
  171SAPS   C2719394   4.087   6.599   6.569  0.4695 -0.1405 -0.7202
  171SAPS   H7R19395   4.133   6.499   6.585  1.8595  0.4527 -0.8904
  171SAPS   H7S19396   4.166   6.668   6.534  1.4522 -0.3684  0.9446
  171SAPS   C2819397   3.973   6.594   6.463 -0.3278  0.6559 -0.5396
  171SAPS   H8R19398   3.889   6.536   6.502  2.6002 -2.5032  1.7029
  171SAPS   C2919399   3.970   6.623   6.334 -0.4723  0.2867 -0.6523
  171SAPS   H9R19400   3.877   6.598   6.281 -2.1703 -0.0198  2.2445
  171SAPS  C21019401   4.078   6.672   6.239  0.0121  0.1717 -0.3426
  171SAPS  H10R19402   4.170   6.697   6.297 -0.3807  0.1616  0.2891
  171SAPS  H10S19403   4.045   6.768   6.194 -1.1856  0.1398  0.4356
  171SAPS  C21119404   4.101   6.558   6.141  0.5475 -0.7566 -0.3462
  171SAPS  H11R19405   4.099   6.458   6.186 -1.1101 -1.6043 -2.1271
  171SAPS  C21219406   4.121   6.573   6.007 -0.0938  0.0853 -0.7969
  171SAPS  H12R19407   4.106   6.483   5.946 -1.5023  1.4839 -2.6386
  171SAPS  C21319408   4.130   6.702   5.934 -0.8871  0.0917  0.4497
  171SAPS  H13R19409   4.156   6.780   6.009 -1.7811  0.2118  0.6485
  171SAPS  H13S19410   4.026   6.720   5.901  0.2314  1.7416 -2.4983
  171SAPS  C21419411   4.222   6.707   5.810  0.7544 -0.8046 -0.7093
  171SAPS  H14R19412   4.312   6.771   5.813  0.6944 -0.7279 -0.4916
  171SAPS  C21519413   4.182   6.671   5.688  1.2632  0.7156 -0.0027
  171SAPS  H15R19414   4.251   6.689   5.604  1.9866 -1.5957  0.0516
  171SAPS  C21619415   4.054   6.598   5.660 -0.3989 -0.9195 -0.7295
  171SAPS  H16R19416   3.970   6.668   5.682 -0.2829 -0.7993 -0.6612
  171SAPS  H16S19417   4.034   6.511   5.725 -1.1062 -1.0273 -1.0840
  171SAPS  C21719418   4.035   6.554   5.513 -0.1491 -0.0585  0.1704
  171SAPS  H17R19419   4.119   6.484   5.496  0.6493  0.2637  2.4927
  171SAPS  H17S19420   4.044   6.638   5.441 -2.4123 -0.8395 -1.1296
  171SAPS  C21819421   3.897   6.489   5.499 -0.1319  0.1105  0.0655
  171SAPS  H18R19422   3.844   6.496   5.597  0.7651 -0.6296  0.6153
  171SAPS  H18S19423   3.924   6.382   5.486  0.4175  0.5029 -2.6408
  171SAPS  C21919424   3.808   6.538   5.385  0.7254  1.0949  0.1660
  171SAPS  H19R19425   3.864   6.512   5.293 -0.7594  0.3651 -0.5631
  171SAPS  H19S19426   3.798   6.648   5.397 -1.4996  1.1075 -1.1517
  171SAPS  C22019427   3.668   6.479   5.387  0.3525  0.2899  0.4407
  171SAPS  H20R19428   3.631   6.513   5.287  1.1475  1.4441  0.5261
  171SAPS  H20S19429   3.608   6.527   5.467  0.9388 -0.6510  1.4748
  171SAPS  H20T19430   3.671   6.369   5.398  0.2508  0.1624 -0.6297
  171SAPS   C3319431   4.197   6.114   6.875 -0.6567 -0.5138 -0.3892
  171SAPS   H3X19432   4.297   6.127   6.826 -0.3400 -1.6947 -0.0995
  171SAPS   H3Y19433   4.142   6.205   6.906  0.1279 -0.2910  0.3845
  171SAPS   C3419434   4.103   6.041   6.773 -0.3397 -0.4826  0.0413
  171SAPS   H4X19435   4.024   5.995   6.835  0.0661 -0.0606  0.8918
  171SAPS   H4Y19436   4.153   5.950   6.732  0.9159 -0.6300  1.7897
  171SAPS   C3519437   4.046   6.139   6.668  0.0221  0.5645  0.8751
  171SAPS   H5X19438   4.013   6.229   6.723 -0.4516 -0.7323  2.8308
  171SAPS   H5Y19439   3.965   6.090   6.611  0.7953  1.3530 -0.9948
  171SAPS   C3619440   4.149   6.169   6.558  0.8608 -0.5127 -0.6539
  171SAPS   H6X19441   4.220   6.084   6.557  0.5789 -0.7500 -0.5170
  171SAPS   H6Y19442   4.222   6.248   6.583  3.6932 -2.6886 -1.5458
  171SAPS   C3719443   4.102   6.191   6.413  0.2615  0.4630  0.3222
  171SAPS   H7X19444   4.049   6.286   6.392  2.9413  2.0298  0.1099
  171SAPS   H7Y19445   4.045   6.097   6.399  1.4931 -0.1946 -0.4971
  171SAPS   C3819446   4.212   6.174   6.299 -0.2496 -0.3456 -0.5292
  171SAPS   H8X19447   4.280   6.091   6.326  1.3151  1.4476  1.4174
  171SAPS   H8Y19448   4.283   6.259   6.291  0.3479 -0.4648  2.3238
  171SAPS   C3919449   4.135   6.165   6.169  0.4075 -0.4061 -0.5887
  171SAPS   H9X19450   4.052   6.238   6.161  0.3453 -0.5743 -1.5771
  171SAPS   H9Y19451   4.089   6.064   6.156  0.6097 -0.3395 -1.8878
  171SAPS  C31019452   4.226   6.197   6.053  0.4358  1.1643  1.0009
  171SAPS  H10X19453   4.309   6.123   6.055 -1.7303 -1.5349 -1.2043
  171SAPS  H10Y19454   4.282   6.293   6.043  1.5643  0.4755  0.5489
  171SAPS  C31119455   4.145   6.182   5.921 -0.4311  0.3439  0.2984
  171SAPS  H11X19456   4.063   6.257   5.911 -1.4963 -0.5095  2.0908
  171SAPS  H11Y19457   4.098   6.082   5.910  0.3546  0.0160 -0.1653
  171SAPS  C31219458   4.251   6.215   5.810  0.4652  0.0526  0.4256
  171SAPS  H12X19459   4.288   6.320   5.818 -0.7234  0.6843 -1.5968
  171SAPS  H12Y19460   4.191   6.209   5.717 -0.2217 -1.2254  0.9374
  171SAPS  C31319461   4.364   6.114   5.802  0.3610 -0.1260 -0.7493
  171SAPS  H13X19462   4.319   6.013   5.793  0.2605  0.0913 -3.7023
  171SAPS  H13Y19463   4.425   6.118   5.895 -1.5926 -0.3509  0.5913
  171SAPS  C31419464   4.458   6.141   5.687  0.4992 -0.6230 -0.3367
  171SAPS  H14X19465   4.524   6.230   5.694  1.5001 -1.3856  0.2249
  171SAPS  H14Y19466   4.395   6.155   5.597 -2.0856  1.9822  1.6470
  171SAPS  C31519467   4.550   6.023   5.659 -0.4732 -0.5929  0.1099
  171SAPS  H15X19468   4.486   5.934   5.641 -2.7217  1.1862 -1.2618
  171SAPS  H15Y19469   4.603   5.985   5.749  1.8556  1.2437 -0.3999
  171SAPS  C31619470   4.633   6.045   5.530 -0.9244 -0.5151  0.1963
  171SAPS  H16X19471   4.716   6.115   5.553  1.1269 -2.6958 -0.2420
  171SAPS  H16Y19472   4.571   6.092   5.451  1.7291 -0.4785 -1.9803
  171SAPS  C31719473   4.696   5.916   5.482  0.4638  0.7584  0.1074
  171SAPS  H17X19474   4.614   5.845   5.460 -0.0157  1.7856 -1.6702
  171SAPS  H17Y19475   4.756   5.875   5.565  1.9105  0.6369 -0.9576
  171SAPS  C31819476   4.795   5.945   5.370 -0.2922  0.7759  0.4843
  171SAPS  H18X19477   4.855   6.036   5.392  0.9241  0.4605 -1.3192
  171SAPS  H18Y19478   4.748   5.967   5.272  0.3941 -1.4984 -0.4158
  171SAPS  H18Z19479   4.878   5.871   5.369 -1.5094 -0.6739  1.4826
  172SAPS     N19480   4.568   5.388   7.477 -0.4560  0.0547 -0.4985
  172SAPS   HN119481   4.562   5.320   7.398  0.2064  1.7796 -2.1233
  172SAPS   HN219482   4.610   5.477   7.442 -2.7567  0.6418 -2.0401
  172SAPS   HN319483   4.631   5.356   7.553  0.0966  1.7609 -0.1861
  172SAPS   C1219484   4.433   5.422   7.527  0.3385 -0.3269 -0.5082
  172SAPS  H12A19485   4.371   5.396   7.442 -0.6472 -2.1114  0.6937
  172SAPS   C1319486   4.382   5.334   7.655  0.2188  0.8509  0.0164
  172SAPS  O13A19487   4.459   5.252   7.714  0.8371  0.1276 -0.2945
  172SAPS  O13B19488   4.262   5.341   7.694  0.1028 -0.2382  0.0850
  172SAPS   C1119489   4.420   5.570   7.579 -0.3524 -0.0847  0.4459
  172SAPS  H11A19490   4.472   5.567   7.677 -0.1893  0.3687  0.3758
  172SAPS  H11B19491   4.313   5.598   7.588 -0.6775 -0.9468 -0.5289
  172SAPS     P19492   4.499   5.811   7.518  0.2063 -0.2109 -0.1566
  172SAPS   O1319493   4.374   5.885   7.490  0.0889 -0.4532 -0.3917
  172SAPS   O1419494   4.549   5.817   7.658 -0.0027 -0.3946  0.0129
  172SAPS   O1219495   4.481   5.656   7.489  0.1372  0.0584  0.3168
  172SAPS   O1119496   4.615   5.870   7.418  0.4541  0.0270  0.6988
  172SAPS    C119497   4.596   5.835   7.280 -0.0083 -0.1126  0.0215
  172SAPS    HA19498   4.574   5.728   7.261  3.6501 -0.8828 -0.5968
  172SAPS    HB19499   4.518   5.900   7.233  2.3238  1.8032 -1.4324
  172SAPS    C219500   4.730   5.868   7.199  0.3454 -0.3856  0.3602
  172SAPS    HS19501   4.806   5.803   7.249  3.3962  2.8518  0.2619
  172SAPS   O2119502   4.772   6.009   7.226 -0.5613  0.1866  0.3806
  172SAPS   C2119503   4.902   6.026   7.216 -0.0542  0.3579  0.1485
  172SAPS   O2219504   4.985   5.945   7.177 -0.2764  0.1100  0.1552
  172SAPS   C2219505   4.927   6.168   7.239  0.4549 -0.2547  0.0346
  172SAPS   H2R19506   4.829   6.221   7.240  1.0963  1.1006 -1.7193
  172SAPS   H2S19507   4.968   6.175   7.342 -1.5268  0.8967  0.7947
  172SAPS    C319508   4.707   5.839   7.049 -0.1365  0.3520  0.3953
  172SAPS    HX19509   4.647   5.927   7.019  0.8801  1.6628  2.0343
  172SAPS    HY19510   4.649   5.747   7.025  0.7204  0.3821 -2.0801
  172SAPS   O3119511   4.827   5.822   6.981 -0.5781  0.6358 -0.5065
  172SAPS   C3119512   4.894   5.704   6.982  0.1802 -0.4246 -0.2342
  172SAPS   O3219513   4.851   5.604   7.035 -0.4428  0.5307 -0.3031
  172SAPS   C3219514   5.018   5.715   6.900 -0.0977 -0.3607  0.0616
  172SAPS   H2X19515   5.058   5.818   6.909  1.1951 -0.8355 -0.0064
  172SAPS   H2Y19516   4.991   5.703   6.793  1.6081  1.8313 -0.6862
  172SAPS   C2319517   5.022   6.230   7.136 -0.0080  0.2542 -0.0747
  172SAPS   H3R19518   5.119   6.182   7.111  0.4683 -0.3604  2.6342
  172SAPS   H3S19519   5.058   6.326   7.180  4.1457 -1.1278  0.0301
  172SAPS   C2419520   4.951   6.263   7.006  0.2729  0.0393 -0.3410
  172SAPS   H4R19521   5.016   6.334   6.951 -1.2696  0.4682 -1.6880
  172SAPS   H4S19522   4.860   6.321   7.031 -0.2809 -1.1138  0.3772
  172SAPS   C2519523   4.924   6.149   6.913  0.6077 -0.1244  0.0384
  172SAPS   H5R19524   4.973   6.052   6.932 -1.4517 -1.1543  0.4103
  172SAPS   C2619525   4.816   6.136   6.827 -0.4271  0.0865  0.9819
  172SAPS   H6R19526   4.822   6.040   6.774  2.2281  0.9780 -0.4909
  172SAPS   C2719527   4.730   6.250   6.789  0.6719 -0.0434 -0.2017
  172SAPS   H7R19528   4.701   6.243   6.682  0.6776  1.7941 -0.3640
  172SAPS   H7S19529   4.771   6.352   6.805  0.7883 -0.2229  0.6995
  172SAPS   C2819530   4.601   6.251   6.867 -0.0881 -0.5899  0.3306
  172SAPS   H8R19531   4.610   6.215   6.970 -0.5350 -1.2184  0.1581
  172SAPS   C2919532   4.488   6.312   6.820 -0.6289  0.1101  0.7168
  172SAPS   H9R19533   4.401   6.326   6.886  0.0001 -1.2722  1.8819
  172SAPS  C21019534   4.469   6.377   6.682  0.0196  0.2234  0.3664
  172SAPS  H10R19535   4.368   6.377   6.634  0.7654 -2.5401 -1.4156
  172SAPS  H10S19536   4.530   6.321   6.608 -0.2750  0.0731  0.2357
  172SAPS  C21119537   4.517   6.526   6.683  0.7113 -0.4705 -0.3614
  172SAPS  H11R19538   4.518   6.575   6.782 -1.7908  0.1783 -0.5770
  172SAPS  C21219539   4.573   6.584   6.575 -0.1667 -0.0700 -0.5488
  172SAPS  H12R19540   4.594   6.691   6.584 -2.6474  0.3115  3.4963
  172SAPS  C21319541   4.588   6.522   6.438 -0.4091  0.6024 -0.2661
  172SAPS  H13R19542   4.648   6.429   6.449  1.1374  1.5369 -0.5453
  172SAPS  H13S19543   4.665   6.589   6.394 -2.2718  2.3917 -0.9670
  172SAPS  C21419544   4.473   6.483   6.352  0.4946 -0.6370 -0.5097
  172SAPS  H14R19545   4.397   6.419   6.399  1.0329 -2.0964 -1.5739
  172SAPS  C21519546   4.471   6.522   6.223 -0.2494 -0.0608  0.2826
  172SAPS  H15R19547   4.393   6.500   6.148  1.7924  2.2494 -2.7936
  172SAPS  C21619548   4.566   6.615   6.147  0.1330 -0.7080  0.2016
  172SAPS  H16R19549   4.672   6.616   6.178  0.2946  0.6802 -0.3490
  172SAPS  H16S19550   4.527   6.716   6.170  3.4915  1.1058 -1.3400
  172SAPS  C21719551   4.548   6.607   5.995  0.8163 -0.4017  0.0557
  172SAPS  H17R19552   4.588   6.706   5.962 -1.8050  0.7943  0.2751
  172SAPS  H17S19553   4.440   6.609   5.969  1.0700 -2.4509 -1.4263
  172SAPS  C21819554   4.603   6.478   5.936 -0.0096 -0.9537  0.9589
  172SAPS  H18R19555   4.546   6.395   5.983  0.5072 -1.3720  0.8621
  172SAPS  H18S19556   4.712   6.465   5.957  0.7985  2.4828 -0.4300
  172SAPS  C21919557   4.600   6.471   5.785  0.4868  0.2131 -0.0863
  172SAPS  H19R19558   4.496   6.487   5.747  1.2476  1.2291 -1.8619
  172SAPS  H19S19559   4.645   6.373   5.757 -1.2891 -0.9346  0.8999
  172SAPS  C22019560   4.675   6.587   5.713  0.1250  0.5820  0.0147
  172SAPS  H20R19561   4.618   6.681   5.729 -0.5765 -0.2728  3.3398
  172SAPS  H20S19562   4.683   6.571   5.603  0.5556 -1.3887  0.2790
  172SAPS  H20T19563   4.776   6.608   5.754 -0.7639  2.7556  1.2571
  172SAPS   C3319564   5.126   5.618   6.941 -0.1534 -0.1707 -0.4085
  172SAPS   H3X19565   5.095   5.511   6.937  0.6093 -0.3760 -1.0555
  172SAPS   H3Y19566   5.142   5.632   7.050  0.9471  0.8919 -0.6891
  172SAPS   C3419567   5.248   5.636   6.869  0.5881 -0.2464  0.3710
  172SAPS   H4X19568   5.292   5.730   6.910  0.8055 -0.6183  0.9999
  172SAPS   H4Y19569   5.232   5.637   6.759 -2.5484 -1.2448  0.7234
  172SAPS   C3519570   5.346   5.525   6.897 -0.2521  0.2798 -0.0186
  172SAPS   H5X19571   5.354   5.526   7.008  2.6990  2.8108 -0.1119
  172SAPS   H5Y19572   5.444   5.553   6.853  0.7227 -1.5224  0.8739
  172SAPS   C3619573   5.319   5.386   6.845 -0.3918  0.3134 -0.1501
  172SAPS   H6X19574   5.246   5.329   6.907  0.7525 -2.1576 -0.9333
  172SAPS   H6Y19575   5.412   5.334   6.878  0.2461  0.9613 -0.8728
  172SAPS   C3719576   5.291   5.364   6.697 -0.0044 -0.5172  0.0208
  172SAPS   H7X19577   5.375   5.404   6.635  0.7700 -1.5888  0.3434
  172SAPS   H7Y19578   5.191   5.404   6.670  0.5418  0.9209  0.0237
  172SAPS   C3819579   5.284   5.218   6.669  0.2207 -0.1082 -0.5914
  172SAPS   H8X19580   5.227   5.164   6.748  0.8007 -0.0011 -0.0902
  172SAPS   H8Y19581   5.389   5.184   6.677 -0.2742 -1.7601 -0.6400
  172SAPS   C3919582   5.232   5.183   6.526 -0.7596  0.0111  0.1912
  172SAPS   H9X19583   5.124   5.206   6.522 -0.5493  0.9372 -0.5785
  172SAPS   H9Y19584   5.248   5.076   6.503 -0.5488  0.1318 -0.2460
  172SAPS  C31019585   5.316   5.253   6.412  0.1269  0.6946 -0.0817
  172SAPS  H10X19586   5.422   5.220   6.420 -0.4312 -1.2808 -0.1403
  172SAPS  H10Y19587   5.289   5.360   6.421  0.7080  0.9178 -0.9390
  172SAPS  C31119588   5.271   5.208   6.272 -0.6700 -0.0056  0.2079
  172SAPS  H11X19589   5.167   5.244   6.257 -0.3740  0.4801 -0.6960
  172SAPS  H11Y19590   5.273   5.097   6.259 -2.1591 -0.1467  0.9962
  172SAPS  C31219591   5.355   5.281   6.161 -0.4714 -0.6033  0.4045
  172SAPS  H12X19592   5.464   5.269   6.181 -0.3982 -1.4484 -0.4433
  172SAPS  H12Y19593   5.318   5.385   6.167 -1.0080 -0.6217 -1.7798
  172SAPS  C31319594   5.334   5.233   6.017  0.9184  0.2611  0.1679
  172SAPS  H13X19595   5.350   5.123   6.018  0.8697  0.2335 -0.9632
  172SAPS  H13Y19596   5.407   5.280   5.948  0.7951 -0.6179 -0.5689
  172SAPS  C31419597   5.192   5.273   5.956 -0.4468  0.0398  0.6346
  172SAPS  H14X19598   5.202   5.383   5.942  0.6628 -0.2694 -1.3304
  172SAPS  H14Y19599   5.105   5.253   6.023  0.5542 -1.1362  1.6347
  172SAPS  C31519600   5.155   5.206   5.822  0.0139  0.1048 -0.3835
  172SAPS  H15X19601   5.065   5.246   5.770 -0.4376 -0.5961 -0.1539
  172SAPS  H15Y19602   5.136   5.097   5.828 -1.8490  0.2761 -2.0208
  172SAPS  C31619603   5.269   5.213   5.719  0.5898  0.2438 -0.1501
  172SAPS  H16X19604   5.307   5.317   5.710  1.7954 -0.1891 -0.2225
  172SAPS  H16Y19605   5.349   5.153   5.768 -1.7320 -0.6034  3.0109
  172SAPS  C31719606   5.236   5.148   5.591  0.1326 -0.3509  0.9028
  172SAPS  H17X19607   5.183   5.052   5.609  1.2172 -1.2074 -0.2491
  172SAPS  H17Y19608   5.337   5.121   5.553 -0.5056  0.2006 -1.3646
  172SAPS  C31819609   5.159   5.239   5.498  0.0996 -0.2103 -0.0069
  172SAPS  H18X19610   5.136   5.203   5.396  0.2256  0.8001 -0.4123
  172SAPS  H18Y19611   5.184   5.347   5.491 -1.3372  0.1669  0.1560
  172SAPS  H18Z19612   5.058   5.245   5.544 -0.6755 -1.7519 -1.4134
  173SAPS     N19613   2.620   5.841   2.675 -0.2682  0.0259 -0.1324
  173SAPS   HN119614   2.563   5.859   2.590  0.6924 -1.6862 -1.1997
  173SAPS   HN219615   2.657   5.746   2.657 -0.7816 -0.1218 -0.4111
  173SAPS   HN319616   2.567   5.842   2.764 -1.0622 -0.9481 -0.5753
  173SAPS   C1219617   2.737   5.932   2.678  0.0285  0.7604  0.6184
  173SAPS  H12A19618   2.776   5.922   2.778  1.3493 -0.5945  0.0003
  173SAPS   C1319619   2.848   5.909   2.578  0.6547 -0.2002 -0.1722
  173SAPS  O13A19620   2.828   5.827   2.488 -0.1528 -0.4265 -0.2105
  173SAPS  O13B19621   2.952   5.980   2.587  0.0509  0.0748 -0.4741
  173SAPS   C1119622   2.673   6.071   2.665  0.1636 -0.4829 -0.1852
  173SAPS  H11A19623   2.616   6.080   2.570  2.3520 -0.4082 -1.5566
  173SAPS  H11B19624   2.750   6.149   2.650  1.4404 -1.6297  0.2854
  173SAPS     P19625   2.613   6.171   2.896  0.1638 -0.1700 -0.1424
  173SAPS   O1319626   2.692   6.295   2.866 -0.3286  0.0206 -0.0726
  173SAPS   O1419627   2.499   6.189   2.991  0.0886  0.2299 -0.2548
  173SAPS   O1219628   2.573   6.109   2.761  0.0508 -0.0714 -0.7297
  173SAPS   O1119629   2.707   6.056   2.963  0.5362 -0.1435  0.7120
  173SAPS    C119630   2.807   6.102   3.046  0.0580  0.0415 -0.6890
  173SAPS    HA19631   2.868   6.178   2.994 -1.0474  1.5225  0.0882
  173SAPS    HB19632   2.772   6.157   3.136  2.2994  1.6025 -0.7038
  173SAPS    C219633   2.893   5.987   3.108 -0.1660 -0.3331  0.9447
  173SAPS    HS19634   2.940   5.932   3.024  0.4871  3.1419 -1.1445
  173SAPS   O2119635   2.812   5.909   3.193  0.6356  0.3139  0.3626
  173SAPS   C2119636   2.860   5.789   3.217 -0.2814  0.5546 -0.3906
  173SAPS   O2219637   2.967   5.737   3.182  0.5087 -0.1540  0.5115
  173SAPS   C2219638   2.769   5.712   3.316 -0.4028  0.5192  0.1817
  173SAPS   H2R19639   2.677   5.763   3.352 -0.7175 -1.1198  1.8960
  173SAPS   H2S19640   2.747   5.620   3.258  0.2649  0.7281 -0.4070
  173SAPS    C319641   3.014   6.045   3.189 -0.1627  0.0511  0.3304
  173SAPS    HX19642   3.066   6.117   3.122 -0.3494 -0.6312 -0.5655
  173SAPS    HY19643   3.083   5.966   3.226  2.4805  2.5474  1.0800
  173SAPS   O3119644   2.959   6.106   3.304 -0.7592  0.0408 -0.8541
  173SAPS   C3119645   3.043   6.151   3.400  0.3857 -0.4568  0.4163
  173SAPS   O3219646   3.165   6.149   3.386  0.7821  0.4210 -0.2144
  173SAPS   C3219647   2.963   6.207   3.511  0.3848  0.0717 -0.2142
  173SAPS   H2X19648   2.878   6.140   3.535 -1.7407  1.7748 -2.3923
  173SAPS   H2Y19649   2.913   6.301   3.478  0.7161  0.1259 -0.5774
  173SAPS   C2319650   2.841   5.681   3.451 -0.7693 -0.5376 -0.1394
  173SAPS   H3R19651   2.931   5.621   3.428 -0.5950 -0.4350  0.2832
  173SAPS   H3S19652   2.774   5.608   3.501  1.2435 -2.4800 -0.1362
  173SAPS   C2419653   2.871   5.801   3.545 -0.3550  0.1773 -0.0113
  173SAPS   H4R19654   2.901   5.886   3.481 -0.2263  1.0097  1.1269
  173SAPS   H4S19655   2.958   5.770   3.608  0.4645 -1.1304 -1.6900
  173SAPS   C2519656   2.748   5.845   3.618  0.3806 -0.2220 -0.1030
  173SAPS   H5R19657   2.656   5.853   3.557 -0.9469 -2.4382  1.4572
  173SAPS   C2619658   2.735   5.878   3.750  0.0625  1.1516 -0.1584
  173SAPS   H6R19659   2.636   5.886   3.796  0.8443  0.1393  1.8213
  173SAPS   C2719660   2.854   5.874   3.844  0.0888 -0.0190 -0.2090
  173SAPS   H7R19661   2.952   5.913   3.809  0.5555  1.4244  2.4022
  173SAPS   H7S19662   2.881   5.767   3.860  2.6407  0.6631  0.4965
  173SAPS   C2819663   2.837   5.949   3.973  0.1259 -0.1372  0.8444
  173SAPS   H8R19664   2.890   6.045   3.972 -1.3552  0.7067  1.1825
  173SAPS   C2919665   2.759   5.923   4.076 -0.1887 -0.1746 -0.9752
  173SAPS   H9R19666   2.773   5.983   4.167 -1.5482  0.3329 -1.0808
  173SAPS  C21019667   2.695   5.787   4.089  1.1751  0.2413 -0.3269
  173SAPS  H10R19668   2.769   5.729   4.148  0.4642  1.9847  2.5023
  173SAPS  H10S19669   2.672   5.734   3.995 -0.6429  0.2672  0.0534
  173SAPS  C21119670   2.565   5.789   4.171 -0.3189 -0.9649  0.6085
  173SAPS  H11R19671   2.486   5.828   4.106 -0.5458 -1.0939  0.8070
  173SAPS  C21219672   2.552   5.760   4.302 -0.1037  0.6562  0.1982
  173SAPS  H12R19673   2.448   5.761   4.338  0.2382 -0.7506  1.3056
  173SAPS  C21319674   2.663   5.718   4.396  0.5938 -1.1102  0.5828
  173SAPS  H13R19675   2.632   5.730   4.502  1.4515 -0.7037  0.8026
  173SAPS  H13S19676   2.745   5.793   4.386 -0.4734  0.1159  0.6398
  173SAPS  C21419677   2.697   5.577   4.365  0.0076 -0.4590  0.5562
  173SAPS  H14R19678   2.646   5.521   4.285 -0.1436 -1.0066  1.0317
  173SAPS  C21519679   2.790   5.501   4.431 -0.2712  0.2361  0.2057
  173SAPS  H15R19680   2.791   5.391   4.426  1.3915  0.0797  2.4742
  173SAPS  C21619681   2.880   5.546   4.546 -0.0217  0.3775 -0.1206
  173SAPS  H16R19682   2.841   5.493   4.635  0.9174  2.7089  1.8138
  173SAPS  H16S19683   2.873   5.654   4.571 -0.2893  0.3154  0.0773
  173SAPS  C21719684   3.031   5.500   4.539  0.2984 -0.5682  0.2255
  173SAPS  H17R19685   3.079   5.571   4.610 -1.3152  0.2913  0.5205
  173SAPS  H17S19686   3.068   5.513   4.435  1.1613  1.8440  0.7552
  173SAPS  C21819687   3.034   5.355   4.592 -1.4245  0.0662  0.2292
  173SAPS  H18R19688   2.948   5.305   4.542  1.2726 -0.4760 -4.3547
  173SAPS  H18S19689   3.022   5.367   4.702  2.5766  0.3763  0.7807
  173SAPS  C21919690   3.173   5.285   4.565  0.0547  0.1779 -0.7489
  173SAPS  H19R19691   3.255   5.355   4.592  1.0889 -1.1243 -0.4105
  173SAPS  H19S19692   3.193   5.257   4.459  0.0621 -2.9294 -0.0180
  173SAPS  C22019693   3.184   5.158   4.642  0.2521  0.0734 -0.2236
  173SAPS  H20R19694   3.255   5.083   4.600  0.2178 -0.6714  0.9836
  173SAPS  H20S19695   3.086   5.107   4.630 -0.4986  1.7333 -1.5543
  173SAPS  H20T19696   3.204   5.180   4.749  2.9844  2.1774 -1.0527
  173SAPS   C3319697   3.043   6.234   3.641 -0.2346 -0.1364  0.0496
  173SAPS   H3X19698   3.142   6.273   3.610 -0.4768  0.5591  0.1278
  173SAPS   H3Y19699   3.049   6.136   3.693 -0.2073 -0.4356 -0.5127
  173SAPS   C3419700   2.970   6.326   3.743 -0.4038  0.4795 -0.8295
  173SAPS   H4X19701   2.866   6.287   3.746 -0.3060  0.1058 -1.8618
  173SAPS   H4Y19702   2.964   6.430   3.704 -0.0808 -0.0413 -2.3497
  173SAPS   C3519703   3.042   6.313   3.879 -0.7068 -0.5066 -0.0016
  173SAPS   H5X19704   3.145   6.347   3.855 -1.7768  2.4195 -0.7841
  173SAPS   H5Y19705   3.050   6.207   3.913  0.0363 -1.1097 -1.9412
  173SAPS   C3619706   2.992   6.390   3.999 -0.3061  0.0160  0.5977
  173SAPS   H6X19707   3.033   6.378   4.101 -1.7752 -1.0167  1.0937
  173SAPS   H6Y19708   2.889   6.352   4.016  0.0590 -0.8741  0.8632
  173SAPS   C3719709   2.982   6.536   3.974  0.2650 -0.8583 -0.4844
  173SAPS   H7X19710   2.919   6.544   3.882 -0.7701  1.4912  0.3324
  173SAPS   H7Y19711   3.084   6.577   3.960  0.0695 -0.4684 -0.7814
  173SAPS   C3819712   2.911   6.628   4.080 -0.4329 -0.6273  0.2892
  173SAPS   H8X19713   2.812   6.585   4.104 -2.2019  1.1376 -3.1307
  173SAPS   H8Y19714   2.883   6.720   4.024 -1.5925 -1.2611 -0.2159
  173SAPS   C3919715   3.002   6.677   4.193  0.5099 -0.1734  0.2412
  173SAPS   H9X19716   3.074   6.751   4.152  0.0121  1.3617  2.0046
  173SAPS   H9Y19717   3.062   6.597   4.243  0.6890  0.2775  0.7538
  173SAPS  C31019718   2.929   6.769   4.292  0.7008  0.0367 -0.3529
  173SAPS  H10X19719   2.848   6.707   4.334  0.6885 -0.5002 -1.1574
  173SAPS  H10Y19720   2.879   6.852   4.237 -1.8168 -0.5839  0.8546
  173SAPS  C31119721   3.017   6.823   4.410 -0.3233 -0.6684  0.8072
  173SAPS  H11X19722   2.954   6.893   4.469 -1.7396 -1.9452  0.8665
  173SAPS  H11Y19723   3.095   6.890   4.367 -2.3666  1.0922 -0.3822
  173SAPS  C31219724   3.080   6.716   4.497  0.6521 -0.4463  0.4897
  173SAPS  H12X19725   3.142   6.640   4.445  2.0343  1.3751 -0.6445
  173SAPS  H12Y19726   2.999   6.665   4.554  1.1157 -2.3280 -0.4653
  173SAPS  C31319727   3.179   6.769   4.602 -0.1553 -0.1003  0.0132
  173SAPS  H13X19728   3.138   6.861   4.649  0.9280  1.0098 -1.1289
  173SAPS  H13Y19729   3.265   6.822   4.556 -0.8097  0.9883  0.0061
  173SAPS  C31419730   3.244   6.677   4.709  0.3309 -0.5581 -0.2918
  173SAPS  H14X19731   3.306   6.733   4.782 -0.0723 -0.4738 -0.0144
  173SAPS  H14Y19732   3.307   6.602   4.656 -1.1953 -1.1218 -1.3709
  173SAPS  C31519733   3.132   6.603   4.796  0.1566 -0.5998  0.1704
  173SAPS  H15X19734   3.064   6.548   4.728 -2.1191  2.2146 -0.0380
  173SAPS  H15Y19735   3.076   6.687   4.844 -0.9931 -0.8275 -0.7264
  173SAPS  C31619736   3.186   6.506   4.901  0.3718 -0.1096 -0.1412
  173SAPS  H16X19737   3.247   6.574   4.964 -1.1416  0.1954  1.0439
  173SAPS  H16Y19738   3.247   6.422   4.862 -1.1478 -1.5772  0.5164
  173SAPS  C31719739   3.085   6.438   4.994 -0.2937  0.1245 -0.1907
  173SAPS  H17X19740   3.027   6.508   5.058 -2.3042 -2.3885  0.9487
  173SAPS  H17Y19741   3.149   6.376   5.060 -0.4321  0.5700  0.3674
  173SAPS  C31819742   2.993   6.346   4.917  0.3008 -0.0412 -0.1749
  173SAPS  H18X19743   3.057   6.283   4.852 -0.0047  0.0193 -0.5419
  173SAPS  H18Y19744   2.927   6.394   4.841 -0.7397 -1.6931 -0.3541
  173SAPS  H18Z19745   2.942   6.272   4.982  2.9152 -0.2777  1.7614
  174SAPS     N19746   4.762   4.319   2.685  0.7091  0.2454  0.0126
  174SAPS   HN119747   4.712   4.262   2.614 -1.2044  0.7969  0.8601
  174SAPS   HN219748   4.691   4.386   2.722 -0.2588 -0.6616 -0.1576
  174SAPS   HN319749   4.837   4.376   2.640  0.1879  0.7387 -0.2502
  174SAPS   C1219750   4.822   4.240   2.787  0.0818  0.7325  0.1438
  174SAPS  H12A19751   4.833   4.297   2.878 -0.7784 -2.4495  2.4273
  174SAPS   C1319752   4.743   4.109   2.833  0.4833  0.2278 -0.5543
  174SAPS  O13A19753   4.622   4.103   2.797 -0.2230 -0.1712  0.1806
  174SAPS  O13B19754   4.790   4.053   2.937  0.1028  0.1006  0.2141
  174SAPS   C1119755   4.969   4.211   2.743  0.2649  1.1290 -0.1352
  174SAPS  H11A19756   4.973   4.158   2.646 -1.4281 -0.7005  0.7372
  174SAPS  H11B19757   5.010   4.132   2.809 -4.1730  0.1862  1.8001
  174SAPS     P19758   5.207   4.338   2.768 -0.0628 -0.2029 -0.3302
  174SAPS   O1319759   5.284   4.251   2.686 -0.0682 -0.2725 -0.4726
  174SAPS   O1419760   5.241   4.480   2.756  0.1727 -0.9613  0.1649
  174SAPS   O1219761   5.050   4.331   2.727  0.2855 -0.3021 -0.3619
  174SAPS   O1119762   5.215   4.296   2.919  0.0280  0.0549  0.2328
  174SAPS    C119763   5.138   4.342   3.030 -0.0148  0.9313  0.1669
  174SAPS    HA19764   5.030   4.352   3.004 -0.4602 -1.0512  1.0701
  174SAPS    HB19765   5.138   4.255   3.099 -2.1808 -0.4720 -1.4580
  174SAPS    C219766   5.181   4.474   3.102  0.6962  0.6391  0.2477
  174SAPS    HS19767   5.136   4.553   3.038  2.0449  0.3596 -1.1202
  174SAPS   O2119768   5.320   4.475   3.102  0.4249  0.5699 -0.4613
  174SAPS   C2119769   5.363   4.599   3.125 -0.9908 -0.2289 -0.5811
  174SAPS   O2219770   5.302   4.706   3.103  0.0255  0.0856  0.2613
  174SAPS   C2219771   5.505   4.590   3.189 -0.5786 -0.1131  1.3192
  174SAPS   H2R19772   5.516   4.480   3.203 -0.7008 -0.5936 -1.6804
  174SAPS   H2S19773   5.569   4.633   3.109 -1.6026  0.8340  0.9869
  174SAPS    C319774   5.116   4.476   3.243 -0.7586  0.8480  0.1470
  174SAPS    HX19775   5.158   4.381   3.283 -0.9326  1.3727  1.6275
  174SAPS    HY19776   5.006   4.458   3.235 -0.6389  0.1875 -0.1490
  174SAPS   O3119777   5.144   4.588   3.328 -0.1051  0.1792 -0.2036
  174SAPS   C3119778   5.072   4.694   3.303 -0.6011 -0.1864 -0.0890
  174SAPS   O3219779   4.975   4.704   3.227 -0.2247  0.2929 -0.0821
  174SAPS   C3219780   5.139   4.813   3.376  0.4405  1.0590  0.0170
  174SAPS   H2X19781   5.101   4.907   3.331  2.2785  1.4469 -0.8339
  174SAPS   H2Y19782   5.249   4.804   3.361  0.7178  2.3636  1.1307
  174SAPS   C2319783   5.514   4.669   3.316 -0.9904  0.1589 -0.9989
  174SAPS   H3R19784   5.448   4.635   3.399 -0.6313  0.8092 -0.4290
  174SAPS   H3S19785   5.497   4.778   3.303  0.7712  0.4085 -1.5178
  174SAPS   C2419786   5.663   4.664   3.373  0.1827 -0.0718  0.0791
  174SAPS   H4R19787   5.669   4.717   3.470 -0.6430  0.9705 -0.4245
  174SAPS   H4S19788   5.724   4.723   3.302  0.1216  0.5365  0.5203
  174SAPS   C2519789   5.716   4.525   3.376  0.7455  0.1476 -0.1348
  174SAPS   H5R19790   5.740   4.484   3.277  0.7849 -1.8883  0.6749
  174SAPS   C2619791   5.741   4.449   3.480  0.4671 -0.1085  0.3576
  174SAPS   H6R19792   5.788   4.349   3.473  1.9549  0.4178  2.0929
  174SAPS   C2719793   5.700   4.483   3.622 -0.2184  0.2651  0.1938
  174SAPS   H7R19794   5.631   4.571   3.623 -0.1145  0.3472  1.4282
  174SAPS   H7S19795   5.788   4.526   3.675  0.9300  0.2700 -1.6434
  174SAPS   C2819796   5.628   4.368   3.679 -0.6989  0.0642  0.2598
  174SAPS   H8R19797   5.566   4.302   3.618 -1.0696 -0.2318  0.9453
  174SAPS   C2919798   5.632   4.329   3.806 -0.3371  0.0712  0.3956
  174SAPS   H9R19799   5.590   4.233   3.840 -1.1822  1.0364  2.2213
  174SAPS  C21019800   5.696   4.404   3.919  0.1657  0.2461  0.1656
  174SAPS  H10R19801   5.780   4.457   3.870  0.2029 -0.8875 -1.0506
  174SAPS  H10S19802   5.747   4.338   3.994  1.2815  0.1181 -0.6751
  174SAPS  C21119803   5.610   4.509   3.986  0.1446  0.4097 -0.3253
  174SAPS  H11R19804   5.589   4.598   3.925  3.4494  1.7146  0.2343
  174SAPS  C21219805   5.576   4.525   4.118 -0.9965 -0.4540  0.2716
  174SAPS  H12R19806   5.528   4.622   4.137  1.4218  2.0279 -4.3955
  174SAPS  C21319807   5.614   4.440   4.231 -0.2061  0.8602 -0.0797
  174SAPS  H13R19808   5.696   4.371   4.201  1.2695  2.5776 -0.1134
  174SAPS  H13S19809   5.521   4.381   4.248 -0.2905  0.6779 -1.1152
  174SAPS  C21419810   5.666   4.512   4.354  0.2446 -0.3620 -0.3535
  174SAPS  H14R19811   5.738   4.593   4.338  1.0947 -0.9081  0.5805
  174SAPS  C21519812   5.653   4.470   4.479  0.2742 -0.4472 -0.3224
  174SAPS  H15R19813   5.697   4.525   4.564 -0.6017 -0.8749  0.4372
  174SAPS  C21619814   5.576   4.347   4.524  0.0544 -0.0848 -0.5093
  174SAPS  H16R19815   5.651   4.264   4.532  1.0217  0.9170  1.9675
  174SAPS  H16S19816   5.500   4.311   4.451 -1.0027 -0.7013  0.8498
  174SAPS  C21719817   5.505   4.375   4.662 -0.6524  0.5346 -0.1601
  174SAPS  H17R19818   5.425   4.450   4.643  0.6489  1.9352 -0.2278
  174SAPS  H17S19819   5.572   4.406   4.744 -0.4709  1.0263 -0.4928
  174SAPS  C21819820   5.434   4.244   4.704  0.1117  0.2802 -0.5551
  174SAPS  H18R19821   5.496   4.153   4.689  0.4320  0.0973  1.5726
  174SAPS  H18S19822   5.347   4.223   4.638 -0.9099 -1.4012  1.2276
  174SAPS  C21919823   5.387   4.241   4.849 -0.5207  0.9823  0.0129
  174SAPS  H19R19824   5.330   4.334   4.872  0.6773  1.8207 -0.2886
  174SAPS  H19S19825   5.474   4.241   4.918 -2.0576 -0.9375  2.0911
  174SAPS  C22019826   5.307   4.119   4.884 -0.6927 -0.4098 -0.4563
  174SAPS  H20R19827   5.197   4.120   4.869 -0.5690 -1.0627 -1.5124
  174SAPS  H20S19828   5.327   4.104   4.992  0.1242  1.9241 -0.2223
  174SAPS  H20T19829   5.359   4.035   4.833  0.4463 -0.5091  0.8061
  174SAPS   C3319830   5.106   4.816   3.524  0.2015 -0.1196 -0.6245
  174SAPS   H3X19831   5.111   4.710   3.558  0.9233  0.2113  0.3237
  174SAPS   H3Y19832   5.004   4.861   3.523  0.9860  1.9608  2.2646
  174SAPS   C3419833   5.206   4.894   3.611 -0.7658  0.4743 -0.8852
  174SAPS   H4X19834   5.169   4.892   3.716  3.2160  2.9552  0.7568
  174SAPS   H4Y19835   5.215   5.000   3.580  1.3254  0.0216 -2.0285
  174SAPS   C3519836   5.350   4.838   3.605 -0.2870 -0.4789 -0.1947
  174SAPS   H5X19837   5.388   4.871   3.505  0.1694  2.4402  0.8446
  174SAPS   H5Y19838   5.351   4.729   3.625 -0.3019 -0.5860 -0.7673
  174SAPS   C3619839   5.438   4.899   3.720  1.0818  0.5306 -0.6102
  174SAPS   H6X19840   5.372   4.896   3.810 -0.3687 -0.0809 -1.6533
  174SAPS   H6Y19841   5.443   5.006   3.693 -2.4872  0.9487 -0.1477
  174SAPS   C3719842   5.577   4.839   3.729 -0.3835 -0.0929 -0.5826
  174SAPS   H7X19843   5.614   4.845   3.625  0.3332 -1.2800 -0.4117
  174SAPS   H7Y19844   5.551   4.733   3.751  1.1471 -0.0376  1.8611
  174SAPS   C3819845   5.669   4.901   3.836 -0.2354  0.7693  0.1715
  174SAPS   H8X19846   5.673   5.011   3.819 -2.3963  1.5060  3.3131
  174SAPS   H8Y19847   5.773   4.863   3.833 -0.1370  1.0875 -0.5356
  174SAPS   C3919848   5.619   4.902   3.979  0.1513 -0.5214 -0.0899
  174SAPS   H9X19849   5.561   4.813   4.012 -2.7717  1.7476  1.4605
  174SAPS   H9Y19850   5.553   4.991   3.989  0.2745 -0.3188 -1.0118
  174SAPS  C31019851   5.732   4.918   4.082 -0.3010 -0.2618  0.5578
  174SAPS  H10X19852   5.777   5.016   4.054 -1.0584  0.8383  2.9144
  174SAPS  H10Y19853   5.812   4.843   4.068  2.1603  2.1106  0.9861
  174SAPS  C31119854   5.667   4.930   4.222  0.5985  0.0216  0.2168
  174SAPS  H11X19855   5.579   4.864   4.233  1.5566 -1.1921  0.8069
  174SAPS  H11Y19856   5.628   5.034   4.227 -1.1141 -0.1876 -4.0034
  174SAPS  C31219857   5.754   4.889   4.329 -0.4023 -0.4071 -0.3557
  174SAPS  H12X19858   5.822   4.975   4.349 -0.4385  0.0646 -2.1643
  174SAPS  H12Y19859   5.802   4.795   4.294 -1.7976 -0.8987 -1.0451
  174SAPS  C31319860   5.676   4.870   4.456  0.6964  0.2763  0.1105
  174SAPS  H13X19861   5.643   4.766   4.477  1.4074 -0.6374 -2.9200
  174SAPS  H13Y19862   5.594   4.945   4.456  1.3881  1.0983 -1.7771
  174SAPS  C31419863   5.771   4.889   4.579 -0.1829 -0.4239 -0.2486
  174SAPS  H14X19864   5.876   4.898   4.543 -1.1229 -0.5287 -3.3212
  174SAPS  H14Y19865   5.774   4.806   4.653  1.1794  0.3036  0.5655
  174SAPS  C31519866   5.737   5.010   4.671  0.0662  0.6081 -0.2942
  174SAPS  H15X19867   5.708   5.091   4.602  0.1281  0.5139 -0.4331
  174SAPS  H15Y19868   5.831   5.037   4.724  0.3773  0.7570 -0.9130
  174SAPS  C31619869   5.623   4.992   4.768 -0.7444  0.3757 -1.0213
  174SAPS  H16X19870   5.631   4.900   4.829  4.3315  1.4294  0.3298
  174SAPS  H16Y19871   5.522   5.001   4.721 -0.7879  0.0947 -0.9836
  174SAPS  C31719872   5.652   5.102   4.874 -0.0849 -0.4306  0.3733
  174SAPS  H17X19873   5.618   5.195   4.823 -0.2707 -0.6767  0.0408
  174SAPS  H17Y19874   5.760   5.100   4.898  0.4149 -0.2305 -1.6823
  174SAPS  C31819875   5.566   5.082   4.999 -0.0077 -0.4994 -0.1635
  174SAPS  H18X19876   5.615   5.127   5.088  0.2441 -0.1482 -0.4749
  174SAPS  H18Y19877   5.553   4.973   5.014  1.4080 -0.9721 -2.0384
  174SAPS  H18Z19878   5.459   5.107   4.983 -0.4396 -2.4154 -0.5005
  175SAPS     N19879   4.431   2.448   2.441  0.4384  0.2403 -0.0334
  175SAPS   HN119880   4.347   2.475   2.497  0.9649  0.6957  0.5521
  175SAPS   HN219881   4.431   2.518   2.364 -0.2662 -1.7147 -1.9062
  175SAPS   HN319882   4.408   2.357   2.397  0.9543  0.5200 -0.9021
  175SAPS   C1219883   4.562   2.438   2.507  0.4385 -0.8364  0.1212
  175SAPS  H12A19884   4.547   2.400   2.607  1.6590  1.2278  1.1484
  175SAPS   C1319885   4.660   2.343   2.430  0.8708  0.2954  0.0602
  175SAPS  O13A19886   4.618   2.295   2.320 -0.0535 -0.4139  0.8676
  175SAPS  O13B19887   4.749   2.284   2.498  0.0250 -0.3122  0.1965
  175SAPS   C1119888   4.622   2.587   2.525  0.3340 -0.4163 -0.2309
  175SAPS  H11A19889   4.656   2.614   2.423  1.9328 -2.3545 -0.2621
  175SAPS  H11B19890   4.713   2.577   2.587  0.2972 -0.8406 -0.2409
  175SAPS     P19891   4.566   2.799   2.662  0.3550 -0.0233  0.1780
  175SAPS   O1319892   4.703   2.846   2.627  0.6958  0.0775  0.1870
  175SAPS   O1419893   4.459   2.900   2.649  0.5412  0.0444 -0.2364
  175SAPS   O1219894   4.522   2.682   2.579 -0.0586  0.1051 -0.0811
  175SAPS   O1119895   4.566   2.746   2.807 -0.3101  0.1649  0.0282
  175SAPS    C119896   4.449   2.687   2.860 -0.1780 -0.5937  0.9242
  175SAPS    HA19897   4.357   2.713   2.804  1.4920 -1.2637 -2.3998
  175SAPS    HB19898   4.468   2.577   2.858  0.7315 -0.4343 -0.2139
  175SAPS    C219899   4.417   2.730   3.006 -0.1987  0.7830 -0.5169
  175SAPS    HS19900   4.353   2.652   3.052  0.3186  3.0295  4.7309
  175SAPS   O2119901   4.339   2.847   2.986 -0.2509  0.0484 -0.7236
  175SAPS   C2119902   4.242   2.879   3.068 -0.1730  0.4437 -0.1797
  175SAPS   O2219903   4.208   2.810   3.166 -0.0838  0.3330  0.0281
  175SAPS   C2219904   4.184   3.020   3.040 -0.2954 -0.2239 -0.0428
  175SAPS   H2R19905   4.274   3.086   3.042  0.1947 -0.8486  3.0032
  175SAPS   H2S19906   4.141   3.018   2.937  0.6447 -1.0830 -0.4347
  175SAPS    C319907   4.547   2.750   3.091  0.4549 -0.7154 -0.3531
  175SAPS    HX19908   4.602   2.832   3.040 -0.6869  0.0676 -0.3589
  175SAPS    HY19909   4.604   2.658   3.068 -0.0977 -1.2437  0.3313
  175SAPS   O3119910   4.516   2.781   3.230  0.5456 -0.1738 -0.0606
  175SAPS   C3119911   4.465   2.687   3.297 -0.3561  0.3411  0.0929
  175SAPS   O3219912   4.464   2.570   3.255  0.0459 -0.7110 -0.4922
  175SAPS   C3219913   4.399   2.730   3.431 -0.0310  0.3031  0.6961
  175SAPS   H2X19914   4.356   2.636   3.472  1.6858 -1.2337 -0.8113
  175SAPS   H2Y19915   4.322   2.805   3.405  0.0340  0.4485  0.9231
  175SAPS   C2319916   4.081   3.070   3.141  0.6203 -0.1577  0.7536
  175SAPS   H3R19917   3.999   2.994   3.141 -1.0186  1.5243  0.0780
  175SAPS   H3S19918   4.041   3.161   3.091  2.6868  0.2470 -0.2893
  175SAPS   C2419919   4.127   3.096   3.283  0.1727 -0.2798 -0.2735
  175SAPS   H4R19920   4.188   3.189   3.279  1.4905 -1.1391 -1.0656
  175SAPS   H4S19921   4.201   3.024   3.326  1.6537 -0.1908 -2.5012
  175SAPS   C2519922   4.005   3.110   3.370  0.3906  0.2931  0.0852
  175SAPS   H5R19923   3.914   3.130   3.310  0.4287  0.3759  0.0557
  175SAPS   C2619924   3.999   3.092   3.501  0.6952 -0.7170 -0.2757
  175SAPS   H6R19925   3.903   3.122   3.546  1.8848  2.1402  0.6228
  175SAPS   C2719926   4.096   3.044   3.605 -0.5671 -0.7575 -0.3237
  175SAPS   H7R19927   4.147   2.958   3.556 -1.6820 -1.8413  0.3668
  175SAPS   H7S19928   4.042   2.996   3.689 -0.3225  0.1371  0.3568
  175SAPS   C2819929   4.206   3.136   3.648  0.5638  0.1774  0.3816
  175SAPS   H8R19930   4.282   3.146   3.569  1.0217 -0.3871  0.7433
  175SAPS   C2919931   4.214   3.207   3.766  0.2206  0.0078  0.3836
  175SAPS   H9R19932   4.294   3.281   3.783 -0.4672  0.6337  0.9271
  175SAPS  C21019933   4.115   3.200   3.877  0.3015 -0.3351  0.2051
  175SAPS  H10R19934   4.028   3.134   3.857  0.0378  0.0485  0.0896
  175SAPS  H10S19935   4.079   3.301   3.907 -1.7701 -0.9524 -0.0729
  175SAPS  C21119936   4.194   3.152   3.995 -0.1062 -0.2740 -0.0998
  175SAPS  H11R19937   4.285   3.094   3.974  0.8759  1.4033 -0.6254
  175SAPS  C21219938   4.151   3.159   4.121  0.1580 -0.4407 -0.0186
  175SAPS  H12R19939   4.204   3.113   4.206 -2.7985 -0.5640  1.9129
  175SAPS  C21319940   4.037   3.246   4.172  0.7398 -0.0450  0.0826
  175SAPS  H13R19941   3.964   3.181   4.226  0.2986  0.7169  0.4183
  175SAPS  H13S19942   3.987   3.293   4.085  2.7078 -0.4248 -1.3291
  175SAPS  C21419943   4.087   3.348   4.271  0.0694 -0.4607 -0.1440
  175SAPS  H14R19944   4.103   3.448   4.228 -1.6149 -0.4196 -0.7598
  175SAPS  C21519945   4.132   3.336   4.396 -0.0469 -0.0160  0.5179
  175SAPS  H15R19946   4.174   3.427   4.442 -1.0162  1.3315 -1.1253
  175SAPS  C21619947   4.161   3.208   4.464 -0.7331 -0.4227  0.0655
  175SAPS  H16R19948   4.257   3.166   4.427 -0.0554  1.3858 -0.3662
  175SAPS  H16S19949   4.080   3.133   4.460 -2.2476  1.0010  2.0480
  175SAPS  C21719950   4.181   3.240   4.608  0.1358  0.1301  0.0535
  175SAPS  H17R19951   4.254   3.319   4.637  1.2587 -1.3274  1.3559
  175SAPS  H17S19952   4.218   3.156   4.670  0.8880  0.6904  0.3779
  175SAPS  C21819953   4.051   3.274   4.690  0.0297 -0.4120  0.5914
  175SAPS  H18R19954   3.968   3.216   4.644  0.4055 -0.6348  0.1822
  175SAPS  H18S19955   4.029   3.381   4.668 -0.4111 -0.6261 -0.0484
  175SAPS  C21919956   4.049   3.248   4.842 -0.2923 -0.1659 -0.6869
  175SAPS  H19R19957   4.140   3.294   4.887 -1.9814  1.4342  1.2738
  175SAPS  H19S19958   4.045   3.140   4.868 -0.4340  0.6258  3.1599
  175SAPS  C22019959   3.935   3.314   4.915 -0.1145  1.0831  0.4657
  175SAPS  H20R19960   3.835   3.273   4.888  0.1752  1.5759 -1.4425
  175SAPS  H20S19961   3.935   3.424   4.908  0.6231  0.9888 -1.6730
  175SAPS  H20T19962   3.955   3.299   5.024 -0.2383  0.0451  0.3556
  175SAPS   C3319963   4.510   2.784   3.531 -0.0806 -0.0262 -0.2388
  175SAPS   H3X19964   4.537   2.886   3.495  0.8665 -0.3472 -0.4670
  175SAPS   H3Y19965   4.596   2.714   3.519  2.1264  1.8491  2.9542
  175SAPS   C3419966   4.434   2.783   3.669 -0.2671  0.2668 -0.9130
  175SAPS   H4X19967   4.395   2.680   3.675  0.2569  0.0407 -1.2260
  175SAPS   H4Y19968   4.349   2.853   3.657 -0.8051 -0.1668  0.2982
  175SAPS   C3519969   4.525   2.827   3.789  0.0256 -0.2547  0.1466
  175SAPS   H5X19970   4.556   2.931   3.765 -1.0985  0.3463  1.1629
  175SAPS   H5Y19971   4.617   2.765   3.799  1.3659  2.0064  3.3200
  175SAPS   C3619972   4.453   2.833   3.924  0.1642  0.3010 -0.7398
  175SAPS   H6X19973   4.372   2.757   3.920  0.6277 -0.1866 -1.0039
  175SAPS   H6Y19974   4.393   2.927   3.929 -0.3762  0.1196 -2.7759
  175SAPS   C3719975   4.548   2.828   4.038 -0.1853 -0.3150  0.8543
  175SAPS   H7X19976   4.620   2.913   4.035  0.6454 -0.9525  1.8393
  175SAPS   H7Y19977   4.609   2.735   4.046  3.1081  1.6875  1.0326
  175SAPS   C3819978   4.470   2.836   4.169 -0.3186 -0.1600 -0.7742
  175SAPS   H8X19979   4.410   2.745   4.190 -1.0640  0.3337 -0.6914
  175SAPS   H8Y19980   4.402   2.925   4.171  1.1424  1.0088 -1.0537
  175SAPS   C3919981   4.563   2.871   4.290 -0.3767  0.2903 -0.0788
  175SAPS   H9X19982   4.640   2.936   4.242 -0.6398  1.3348  0.8758
  175SAPS   H9Y19983   4.616   2.776   4.314 -1.8378 -1.1158 -2.0689
  175SAPS  C31019984   4.498   2.929   4.414  0.2143  0.0065  0.8342
  175SAPS  H10X19985   4.438   3.016   4.380 -3.5386 -2.5833  0.2524
  175SAPS  H10Y19986   4.585   2.961   4.475  1.6009  0.4934 -1.3012
  175SAPS  C31119987   4.406   2.829   4.488  0.9403 -0.0272 -0.0247
  175SAPS  H11X19988   4.455   2.729   4.492 -1.2488 -1.1510  0.1708
  175SAPS  H11Y19989   4.317   2.800   4.428  0.3834 -1.2399  1.3024
  175SAPS  C31219990   4.373   2.877   4.633 -0.7522 -0.2645 -0.2501
  175SAPS  H12X19991   4.339   2.982   4.619 -0.7271 -0.5498 -3.0456
  175SAPS  H12Y19992   4.456   2.873   4.707 -0.8438 -1.2314 -0.1944
  175SAPS  C31319993   4.270   2.783   4.709  0.3352  0.6342  0.1051
  175SAPS  H13X19994   4.304   2.765   4.814  2.4713 -2.5253 -0.9889
  175SAPS  H13Y19995   4.276   2.682   4.663 -1.0365  0.6983 -0.2266
  175SAPS  C31419996   4.119   2.830   4.712 -0.2521  0.0310  0.2679
  175SAPS  H14X19997   4.068   2.825   4.614 -3.1928  1.6569  1.6091
  175SAPS  H14Y19998   4.112   2.934   4.749 -2.0623  0.1049 -0.2224
  175SAPS  C31519999   4.029   2.751   4.816 -0.0008 -0.4899  0.8512
  175SAPS  H15X20000   4.040   2.641   4.805 -2.5308 -0.6947 -0.4634
  175SAPS  H15Y20001   3.926   2.779   4.786  0.6761 -0.2417 -1.4046
  175SAPS  C31620002   4.063   2.793   4.960  0.7679 -0.0687  0.6337
  175SAPS  H16X20003   4.138   2.875   4.957  0.5793  0.2317  2.6562
  175SAPS  H16Y20004   4.107   2.707   5.014 -1.4306 -0.7195  1.5312
  175SAPS  C31720005   3.937   2.825   5.047 -0.2036 -0.0404  0.5624
  175SAPS  H17X20006   3.979   2.844   5.148  1.9121  0.6770 -0.3939
  175SAPS  H17Y20007   3.877   2.732   5.039  1.6708 -1.2451 -0.0344
  175SAPS  C31820008   3.850   2.937   4.996  0.0281 -0.2272  0.3676
  175SAPS  H18X20009   3.911   3.028   4.977  2.6549 -1.9564 -0.1198
  175SAPS  H18Y20010   3.771   2.967   5.068 -1.5734  0.0617 -1.4469
  175SAPS  H18Z20011   3.795   2.911   4.904  0.6223 -1.0428  0.2255
  176SAPS     N20012   2.466   0.523   2.459 -0.1264  0.0923 -0.5218
  176SAPS   HN120013   2.370   0.484   2.448  0.8076 -2.2084 -0.9586
  176SAPS   HN220014   2.470   0.627   2.451  1.0926 -0.0516 -2.7620
  176SAPS   HN320015   2.534   0.481   2.392 -0.3460  0.1177 -0.7640
  176SAPS   C1220016   2.507   0.474   2.595  0.5443  0.8337 -1.6029
  176SAPS  H12A20017   2.438   0.505   2.673  1.9546 -0.5281  0.3132
  176SAPS   C1320018   2.522   0.320   2.609 -0.5094 -0.1495  0.5472
  176SAPS  O13A20019   2.514   0.244   2.509 -0.5066 -0.1527 -0.5272
  176SAPS  O13B20020   2.555   0.274   2.723  0.5579  0.7343  0.1477
  176SAPS   C1120021   2.647   0.521   2.643 -0.2547 -0.5130  0.4810
  176SAPS  H11A20022   2.730   0.468   2.593 -0.4463 -1.2457  0.9241
  176SAPS  H11B20023   2.664   0.496   2.750  0.5936  0.6112  0.6266
  176SAPS     P20024   2.638   0.781   2.718  0.1794 -0.0587 -0.0157
  176SAPS   O1320025   2.741   0.889   2.710  0.0299 -0.2841 -0.4898
  176SAPS   O1420026   2.498   0.817   2.677 -0.6384  0.2178 -0.0356
  176SAPS   O1220027   2.676   0.660   2.621 -0.0854 -0.0999  0.4989
  176SAPS   O1120028   2.644   0.715   2.867 -0.3455 -0.0113 -0.0749
  176SAPS    C120029   2.670   0.809   2.974 -0.3561 -0.1277 -0.0639
  176SAPS    HA20030   2.682   0.750   3.067  0.3914 -2.1822 -1.3887
  176SAPS    HB20031   2.760   0.873   2.963 -0.9194  0.8824  1.0018
  176SAPS    C220032   2.550   0.902   3.008  0.7963 -0.5122  1.0330
  176SAPS    HS20033   2.530   0.955   2.913 -1.8183 -1.1611  1.1414
  176SAPS   O2120034   2.582   0.985   3.121  0.0250  0.3101 -0.2826
  176SAPS   C2120035   2.517   1.103   3.125 -0.2322  0.2339  0.4549
  176SAPS   O2220036   2.440   1.144   3.039  0.7826  0.3078  0.6493
  176SAPS   C2220037   2.554   1.174   3.257  0.3888  0.0761  0.6500
  176SAPS   H2R20038   2.511   1.275   3.270 -0.0348 -0.1106  0.7221
  176SAPS   H2S20039   2.517   1.113   3.343  0.2479  2.9210  2.7401
  176SAPS    C320040   2.424   0.822   3.034  0.8060 -0.1474  0.2202
  176SAPS    HX20041   2.405   0.760   2.944  3.2626  1.3580 -1.4734
  176SAPS    HY20042   2.332   0.875   3.066  1.1399  0.1900  0.6405
  176SAPS   O3120043   2.456   0.732   3.148 -0.5971 -0.3586  0.1754
  176SAPS   C3120044   2.455   0.599   3.140 -0.0513 -0.9663  0.0474
  176SAPS   O3220045   2.435   0.537   3.039 -0.8906 -0.2284 -0.0363
  176SAPS   C3220046   2.472   0.558   3.280  0.1872 -0.1949  0.1992
  176SAPS   H2X20047   2.367   0.543   3.313 -0.1767  1.3217 -0.1843
  176SAPS   H2Y20048   2.529   0.635   3.336  2.1332 -1.4563  0.0355
  176SAPS   C2320049   2.707   1.200   3.277 -0.5567 -0.2646  1.4073
  176SAPS   H3R20050   2.738   1.278   3.205 -1.3915 -1.7260 -0.6033
  176SAPS   H3S20051   2.775   1.115   3.256 -1.2760 -0.7881  1.1845
  176SAPS   C2420052   2.755   1.277   3.406 -0.9610  0.2865 -0.0012
  176SAPS   H4R20053   2.724   1.383   3.409  0.2362  0.6400  0.5396
  176SAPS   H4S20054   2.866   1.288   3.407 -1.1534  2.5848  0.2905
  176SAPS   C2520055   2.712   1.193   3.525  0.5557  0.1483  0.0267
  176SAPS   H5R20056   2.767   1.098   3.524  1.7772  0.8419  0.1549
  176SAPS   C2620057   2.611   1.228   3.610 -0.2936  0.2075 -0.5187
  176SAPS   H6R20058   2.577   1.150   3.679 -0.8666  0.6227 -0.3294
  176SAPS   C2720059   2.529   1.350   3.609 -0.6785  0.4335 -0.3441
  176SAPS   H7R20060   2.556   1.420   3.527 -1.5116  0.4636 -0.5981
  176SAPS   H7S20061   2.560   1.397   3.705 -2.8288 -0.3406  0.7857
  176SAPS   C2820062   2.379   1.338   3.603 -0.1879 -0.4289  0.1554
  176SAPS   H8R20063   2.352   1.316   3.499  1.3093 -0.5480 -0.2364
  176SAPS   C2920064   2.288   1.375   3.698  0.4977  0.2957 -0.3772
  176SAPS   H9R20065   2.182   1.357   3.674  0.9352 -1.4219 -1.1463
  176SAPS  C21020066   2.321   1.416   3.838  0.1996 -0.4975  0.6210
  176SAPS  H10R20067   2.276   1.515   3.859  2.4827  0.9414 -0.8096
  176SAPS  H10S20068   2.432   1.427   3.837  0.3314 -1.6840  0.7915
  176SAPS  C21120069   2.293   1.307   3.941  0.7511 -0.5398 -0.2620
  176SAPS  H11R20070   2.309   1.201   3.916  0.2219 -0.6902  0.0041
  176SAPS  C21220071   2.230   1.334   4.062  0.2190 -0.0173 -0.1990
  176SAPS  H12R20072   2.203   1.250   4.128  0.4785  0.5264  0.6083
  176SAPS  C21320073   2.194   1.472   4.122  0.3080  0.5801  0.0655
  176SAPS  H13R20074   2.225   1.560   4.060  1.5334  0.1163 -0.0046
  176SAPS  H13S20075   2.264   1.490   4.207 -0.4582  1.4322  0.5308
  176SAPS  C21420076   2.053   1.482   4.186  0.6247  0.1751 -0.0359
  176SAPS  H14R20077   1.971   1.536   4.137 -0.6783 -1.6065  0.0928
  176SAPS  C21520078   2.026   1.430   4.305  0.1351 -0.3553  0.4975
  176SAPS  H15R20079   1.920   1.448   4.330  0.0532  3.5670 -1.7772
  176SAPS  C21620080   2.111   1.357   4.402 -0.2135  0.5578 -0.0217
  176SAPS  H16R20081   2.209   1.347   4.350 -0.5130 -0.2266 -0.4501
  176SAPS  H16S20082   2.073   1.256   4.429 -0.4239  1.0315  1.5248
  176SAPS  C21720083   2.117   1.434   4.527  0.0646 -0.0206  0.4874
  176SAPS  H17R20084   2.161   1.370   4.607 -1.9128 -1.2594  0.6464
  176SAPS  H17S20085   2.011   1.445   4.557  0.2449  0.8762  0.8237
  176SAPS  C21820086   2.188   1.574   4.531 -0.3692  0.9186  0.1954
  176SAPS  H18R20087   2.128   1.636   4.461 -0.2594  0.3847 -0.3767
  176SAPS  H18S20088   2.293   1.560   4.497 -0.3976 -0.4340  0.6032
  176SAPS  C21920089   2.189   1.639   4.673 -0.3620  0.1481 -0.2124
  176SAPS  H19R20090   2.089   1.638   4.723  0.3093  0.5077  1.2011
  176SAPS  H19S20091   2.221   1.744   4.660  0.1616 -0.1207 -1.1444
  176SAPS  C22020092   2.292   1.572   4.770  0.0726  0.2439  0.5124
  176SAPS  H20R20093   2.250   1.470   4.786  0.3493  0.3747  2.2631
  176SAPS  H20S20094   2.287   1.621   4.870 -1.4682 -1.1573  1.1706
  176SAPS  H20T20095   2.390   1.578   4.719 -0.4016  0.3511 -0.3971
  176SAPS   C3320096   2.549   0.421   3.296  1.0315  0.1333  1.0660
  176SAPS   H3X20097   2.632   0.423   3.222  1.3973 -1.4783  1.3868
  176SAPS   H3Y20098   2.484   0.332   3.281  1.1539  0.0865  0.8191
  176SAPS   C3420099   2.611   0.403   3.437 -0.3559  0.6444 -0.2363
  176SAPS   H4X20100   2.686   0.483   3.453  2.1487 -1.7734  0.9063
  176SAPS   H4Y20101   2.662   0.305   3.425 -0.0173  1.0677 -2.7157
  176SAPS   C3520102   2.512   0.402   3.559 -0.0923 -0.0168  0.1507
  176SAPS   H5X20103   2.436   0.324   3.540 -1.7908  1.3541  1.0266
  176SAPS   H5Y20104   2.448   0.493   3.559 -1.1134 -0.7069 -0.6653
  176SAPS   C3620105   2.582   0.376   3.690  0.4099  0.6086  0.1491
  176SAPS   H6X20106   2.679   0.430   3.700  0.7808 -0.0090 -0.0424
  176SAPS   H6Y20107   2.607   0.267   3.690 -3.0587 -0.2948 -0.3434
  176SAPS   C3720108   2.503   0.402   3.816  0.3027  0.2596  0.3390
  176SAPS   H7X20109   2.429   0.320   3.826 -0.8390  1.1954 -0.1942
  176SAPS   H7Y20110   2.454   0.501   3.801 -0.0450  0.0403  0.0078
  176SAPS   C3820111   2.570   0.394   3.948 -1.0611  0.0918  1.1434
  176SAPS   H8X20112   2.655   0.466   3.952 -1.0536  0.0635  1.5470
  176SAPS   H8Y20113   2.608   0.290   3.959  0.5955  0.0439 -3.0951
  176SAPS   C3920114   2.484   0.431   4.062 -0.7627 -0.4978 -0.1726
  176SAPS   H9X20115   2.395   0.367   4.079  0.7326 -2.4311  0.8401
  176SAPS   H9Y20116   2.441   0.532   4.045 -0.1665 -0.5134 -1.9764
  176SAPS  C31020117   2.570   0.439   4.192 -0.0669  0.0284 -0.4391
  176SAPS  H10X20118   2.639   0.523   4.169 -0.9799  1.0366  0.3990
  176SAPS  H10Y20119   2.629   0.347   4.208  0.2888  0.6062  1.9381
  176SAPS  C31120120   2.476   0.475   4.308  0.1211  0.3637  0.1025
  176SAPS  H11X20121   2.400   0.396   4.326 -0.1724 -0.0972 -2.6620
  176SAPS  H11Y20122   2.428   0.570   4.275 -1.4397 -0.4935 -0.1861
  176SAPS  C31220123   2.562   0.514   4.433 -0.1732 -0.1915  0.5424
  176SAPS  H12X20124   2.646   0.584   4.411  0.8660 -1.2771  0.9335
  176SAPS  H12Y20125   2.617   0.425   4.470  2.2043 -0.2140 -2.6398
  176SAPS  C31320126   2.468   0.558   4.553 -0.0204  0.0807 -0.1149
  176SAPS  H13X20127   2.382   0.491   4.577 -0.6484  0.1414 -2.0580
  176SAPS  H13Y20128   2.429   0.657   4.520 -0.5715 -0.1897 -0.2837
  176SAPS  C31420129   2.548   0.572   4.683  0.1015 -0.3133 -1.1838
  176SAPS  H14X20130   2.622   0.655   4.686  1.5894 -1.6094  2.0087
  176SAPS  H14Y20131   2.601   0.478   4.708 -0.0911 -0.3240 -0.8169
  176SAPS  C31520132   2.444   0.599   4.800  0.1521  0.3163  0.2844
  176SAPS  H15X20133   2.387   0.511   4.834 -0.3122  1.4824  2.7090
  176SAPS  H15Y20134   2.378   0.685   4.776 -2.0370 -0.5673  2.6955
  176SAPS  C31620135   2.514   0.642   4.927  0.0784 -0.3987  0.4172
  176SAPS  H16X20136   2.588   0.723   4.907  1.4922 -1.2332  1.9594
  176SAPS  H16Y20137   2.571   0.549   4.951 -0.2783 -0.7851 -0.2107
  176SAPS  C31720138   2.423   0.680   5.041  0.0162 -0.8036 -0.0356
  176SAPS  H17X20139   2.473   0.701   5.138 -1.7805  2.1069  0.3786
  176SAPS  H17Y20140   2.356   0.592   5.051 -1.1892 -0.1201 -1.6744
  176SAPS  C31820141   2.334   0.803   5.002  0.3952 -0.4015  0.2158
  176SAPS  H18X20142   2.374   0.866   4.920 -1.7747  1.3261  0.3940
  176SAPS  H18Y20143   2.304   0.862   5.091  3.8027  1.4194  0.3314
  176SAPS  H18Z20144   2.250   0.746   4.957  1.5281 -0.9288 -1.3296
  177SAPS     N20145   3.618   4.776   2.882 -0.0146 -0.3719  0.1095
  177SAPS   HN120146   3.635   4.826   2.792  1.9233 -1.1788 -0.0263
  177SAPS   HN220147   3.515   4.779   2.889 -0.0174  0.1123 -0.1069
  177SAPS   HN320148   3.651   4.837   2.959 -1.4832 -0.1865  0.6138
  177SAPS   C1220149   3.680   4.644   2.879  0.1856 -0.6661  0.5790
  177SAPS  H12A20150   3.670   4.603   2.978  2.9591 -0.6743  0.9509
  177SAPS   C1320151   3.624   4.557   2.765 -0.2519  0.0395 -0.0077
  177SAPS  O13A20152   3.542   4.611   2.687 -0.3230 -0.1592  0.3582
  177SAPS  O13B20153   3.684   4.452   2.731 -0.4289 -0.1280  0.2425
  177SAPS   C1120154   3.829   4.669   2.855 -0.3796  0.5876 -0.1142
  177SAPS  H11A20155   3.851   4.698   2.750 -0.9501  1.0575 -0.1080
  177SAPS  H11B20156   3.887   4.577   2.875 -0.7435  0.0698 -1.3306
  177SAPS     P20157   4.025   4.774   3.002 -0.0943  0.1605 -0.2212
  177SAPS   O1320158   4.124   4.735   2.896 -0.0344  0.3016  0.4216
  177SAPS   O1420159   4.055   4.908   3.059  0.0489 -0.4484  0.1138
  177SAPS   O1220160   3.885   4.774   2.936 -0.0192  0.3093  0.5651
  177SAPS   O1120161   4.017   4.665   3.112 -0.0542 -0.0959 -0.0332
  177SAPS    C120162   3.897   4.660   3.188  0.2455 -0.5077 -0.5644
  177SAPS    HA20163   3.830   4.748   3.173 -0.7201 -1.2426 -0.6038
  177SAPS    HB20164   3.830   4.580   3.150 -1.9889  1.3280 -0.7429
  177SAPS    C220165   3.930   4.655   3.341  0.1526  0.3436  0.4790
  177SAPS    HS20166   3.837   4.673   3.399  0.0963  3.2346 -0.3314
  177SAPS   O2120167   4.035   4.753   3.380 -0.1595 -0.6273 -0.0572
  177SAPS   C2120168   3.985   4.875   3.401 -0.5128 -0.0550  0.3064
  177SAPS   O2220169   3.865   4.902   3.393 -0.5471  0.0630  0.2069
  177SAPS   C2220170   4.101   4.973   3.393 -0.2993  0.4312 -0.0953
  177SAPS   H2R20171   4.170   4.935   3.315  0.4895  2.1110 -0.2599
  177SAPS   H2S20172   4.058   5.071   3.365 -1.7530 -0.3361 -0.6779
  177SAPS    C320173   3.976   4.511   3.362  0.0976 -0.0614 -0.0696
  177SAPS    HX20174   4.064   4.486   3.298  0.7923  1.5295  0.2167
  177SAPS    HY20175   3.889   4.449   3.332  0.5787 -0.1710 -1.2949
  177SAPS   O3120176   4.006   4.486   3.502  0.4282  0.3946 -0.3870
  177SAPS   C3120177   4.134   4.508   3.540 -0.6322  0.0601 -0.4132
  177SAPS   O3220178   4.228   4.534   3.467 -0.1901 -0.1237 -0.0271
  177SAPS   C3220179   4.160   4.490   3.687 -0.0437  0.8047 -0.0382
  177SAPS   H2X20180   4.098   4.407   3.726  0.2345 -0.5420 -2.2928
  177SAPS   H2Y20181   4.116   4.581   3.733 -0.5404  0.7428 -0.3784
  177SAPS   C2320182   4.179   4.978   3.525 -0.2194 -0.5302  0.2506
  177SAPS   H3R20183   4.120   5.026   3.606  1.3273  0.0126  1.1083
  177SAPS   H3S20184   4.264   5.045   3.495 -0.8201 -0.1903 -0.7536
  177SAPS   C2420185   4.228   4.842   3.582  0.0414  0.0233  0.4222
  177SAPS   H4R20186   4.260   4.778   3.497  0.0728  0.7962 -0.1656
  177SAPS   H4S20187   4.153   4.791   3.645  0.7935 -0.5796  0.8510
  177SAPS   C2520188   4.351   4.863   3.666 -0.2644  0.3531 -0.0160
  177SAPS   H5R20189   4.446   4.823   3.627 -0.0876 -0.8042  1.5417
  177SAPS   C2620190   4.359   4.909   3.792  0.2282  0.4475 -0.1576
  177SAPS   H6R20191   4.457   4.922   3.838  0.6853 -2.4510 -0.1053
  177SAPS   C2720192   4.242   4.950   3.878 -0.1833 -0.7160 -0.1395
  177SAPS   H7R20193   4.256   4.895   3.974  0.7637 -0.6059 -0.2049
  177SAPS   H7S20194   4.146   4.907   3.840 -1.0395  1.5376 -0.7172
  177SAPS   C2820195   4.235   5.104   3.897 -0.4950 -0.1991 -0.0444
  177SAPS   H8R20196   4.177   5.163   3.825 -2.9981 -0.4507  1.6387
  177SAPS   C2920197   4.274   5.168   4.008  0.3338 -0.0426 -0.0560
  177SAPS   H9R20198   4.267   5.278   4.012 -0.4760 -0.1059  0.6002
  177SAPS  C21020199   4.343   5.111   4.123  0.6085  0.3556  0.4461
  177SAPS  H10R20200   4.419   5.185   4.157  1.2656  0.8221 -1.8535
  177SAPS  H10S20201   4.407   5.026   4.091  1.3613  0.8847  0.5070
  177SAPS  C21120202   4.259   5.069   4.244 -0.0383  0.3764 -0.5936
  177SAPS  H11R20203   4.151   5.076   4.225  0.0490  0.2306 -1.1799
  177SAPS  C21220204   4.297   5.053   4.370 -0.0799  0.0059 -0.0475
  177SAPS  H12R20205   4.226   5.022   4.448 -1.2556 -1.1299 -1.5162
  177SAPS  C21320206   4.438   5.059   4.412  0.7645 -0.2494  0.4062
  177SAPS  H13R20207   4.498   5.002   4.338 -0.3996 -0.5562 -0.3277
  177SAPS  H13S20208   4.458   4.992   4.498  0.7589  1.2516  1.6153
  177SAPS  C21420209   4.487   5.204   4.429  0.9729  1.1034 -0.3253
  177SAPS  H14R20210   4.531   5.252   4.340 -1.1740  1.1792 -1.3920
  177SAPS  C21520211   4.475   5.269   4.546 -0.4428 -0.1864  0.5162
  177SAPS  H15R20212   4.507   5.372   4.563 -0.6585 -0.5293  3.5374
  177SAPS  C21620213   4.405   5.209   4.668 -0.1386  0.2381 -0.0857
  177SAPS  H16R20214   4.449   5.110   4.692 -0.4545  0.3879  1.1699
  177SAPS  H16S20215   4.296   5.190   4.652  0.5427 -2.5444 -2.3762
  177SAPS  C21720216   4.441   5.297   4.792 -0.5546  0.6083 -0.1079
  177SAPS  H17R20217   4.396   5.398   4.782  2.4795  1.9207 -1.6672
  177SAPS  H17S20218   4.549   5.316   4.807 -0.6753  0.1125  1.5887
  177SAPS  C21820219   4.385   5.233   4.919  0.2726 -0.2095  0.8044
  177SAPS  H18R20220   4.388   5.123   4.907  0.0335  0.0429 -2.7159
  177SAPS  H18S20221   4.279   5.266   4.920 -0.0879 -1.2478 -0.5646
  177SAPS  C21920222   4.455   5.293   5.040 -0.1556 -0.1702  0.0752
  177SAPS  H19R20223   4.457   5.404   5.051  1.8196 -0.2095  0.3900
  177SAPS  H19S20224   4.562   5.263   5.036  0.1246  0.7890  0.0378
  177SAPS  C22020225   4.398   5.250   5.170 -0.2159 -0.3987  0.3986
  177SAPS  H20R20226   4.454   5.283   5.260  1.7720 -0.4418 -0.7547
  177SAPS  H20S20227   4.390   5.139   5.177  0.7804 -0.6141 -1.1836
  177SAPS  H20T20228   4.293   5.283   5.177 -0.2911 -0.7315  0.8610
  177SAPS   C3320229   4.304   4.471   3.743 -0.6621  0.8846  1.1325
  177SAPS   H3X20230   4.381   4.549   3.727  1.1942 -0.5112  2.7769
  177SAPS   H3Y20231   4.343   4.377   3.697 -1.7632  1.2715 -0.7415
  177SAPS   C3420232   4.321   4.435   3.889  1.0247 -0.3272  0.4257
  177SAPS   H4X20233   4.429   4.424   3.910  1.5782  2.5863 -0.3851
  177SAPS   H4Y20234   4.268   4.343   3.923 -1.3814  0.7779 -0.0919
  177SAPS   C3520235   4.273   4.543   3.982  0.2665  0.0789  0.7659
  177SAPS   H5X20236   4.166   4.567   3.964  0.4250 -0.2643 -0.8005
  177SAPS   H5Y20237   4.319   4.640   3.952 -0.2874  0.1997  0.2841
  177SAPS   C3620238   4.293   4.515   4.132 -0.2542 -0.0457  0.2539
  177SAPS   H6X20239   4.394   4.470   4.126 -0.4079 -0.6248  1.5739
  177SAPS   H6Y20240   4.217   4.440   4.164 -1.2645  0.7299 -0.2942
  177SAPS   C3720241   4.303   4.635   4.233 -0.1192  0.0505 -0.5370
  177SAPS   H7X20242   4.222   4.707   4.207  0.1062  0.8502  0.8681
  177SAPS   H7Y20243   4.397   4.691   4.215  0.8130 -1.3551 -0.2244
  177SAPS   C3820244   4.290   4.593   4.378 -0.6209 -0.1070 -0.2691
  177SAPS   H8X20245   4.343   4.500   4.407  1.1546  1.5786  2.2677
  177SAPS   H8Y20246   4.181   4.570   4.378 -0.9247  0.5334 -4.2817
  177SAPS   C3920247   4.329   4.702   4.473 -0.0640  0.4040 -0.1554
  177SAPS   H9X20248   4.246   4.777   4.477 -0.2313  0.2169 -0.0826
  177SAPS   H9Y20249   4.416   4.754   4.428 -1.1396  2.3467 -0.1125
  177SAPS  C31020250   4.350   4.651   4.616  0.5517  0.1349 -0.0596
  177SAPS  H10X20251   4.430   4.574   4.622 -1.8648 -2.6756 -1.3601
  177SAPS  H10Y20252   4.259   4.604   4.658  0.7935 -1.5809 -1.3382
  177SAPS  C31120253   4.375   4.772   4.710  0.2053 -0.0602  0.2567
  177SAPS  H11X20254   4.280   4.829   4.723  2.0622  3.0135  1.4820
  177SAPS  H11Y20255   4.439   4.847   4.658 -1.5433 -0.2690 -2.4136
  177SAPS  C31220256   4.435   4.738   4.845  0.3826  0.2450 -0.3310
  177SAPS  H12X20257   4.463   4.830   4.902 -0.1463  0.4512 -0.4021
  177SAPS  H12Y20258   4.535   4.691   4.830  0.4166  1.3530 -5.0439
  177SAPS  C31320259   4.352   4.646   4.937 -0.4766 -0.6510  0.0419
  177SAPS  H13X20260   4.348   4.549   4.883  2.1414  1.0669 -3.6794
  177SAPS  H13Y20261   4.244   4.674   4.932 -0.4726 -0.5841  0.3590
  177SAPS  C31420262   4.407   4.649   5.082  0.6769  0.6371 -0.7667
  177SAPS  H14X20263   4.513   4.617   5.069  1.1216  0.4747  2.4975
  177SAPS  H14Y20264   4.350   4.567   5.129  2.9443 -0.2023  0.7114
  177SAPS  C31520265   4.384   4.773   5.157  0.3395  0.1713  0.3463
  177SAPS  H15X20266   4.276   4.798   5.151  0.3429 -0.1361 -1.9358
  177SAPS  H15Y20267   4.430   4.866   5.118 -2.2802  1.0569 -0.8769
  177SAPS  C31620268   4.428   4.751   5.306  0.0511  0.3906  0.0824
  177SAPS  H16X20269   4.538   4.732   5.312 -0.0958 -0.7281 -0.5253
  177SAPS  H16Y20270   4.386   4.657   5.348 -2.3454  0.4034 -2.0075
  177SAPS  C31720271   4.385   4.868   5.397  0.1005 -0.0331 -0.1709
  177SAPS  H17X20272   4.277   4.889   5.383 -0.9162 -3.8707  0.6382
  177SAPS  H17Y20273   4.438   4.960   5.366 -1.8764  1.9003  1.7825
  177SAPS  C31820274   4.409   4.839   5.547  0.2474 -0.0196 -0.7390
  177SAPS  H18X20275   4.413   4.936   5.602 -3.4519  0.0237 -0.2756
  177SAPS  H18Y20276   4.499   4.775   5.548  1.7994  2.0073 -2.0160
  177SAPS  H18Z20277   4.325   4.781   5.591  0.5235 -0.3536 -0.6507
  178SAPS     N20278   2.720   0.088   2.636 -0.4307 -0.0858  0.1268
  178SAPS   HN120279   2.720   0.003   2.696  4.0093 -0.9103 -0.7469
  178SAPS   HN220280   2.666   0.169   2.673 -1.2639 -0.4449 -0.2855
  178SAPS   HN320281   2.684   0.058   2.543 -4.0571  0.9493  1.0144
  178SAPS   C1220282   2.868   0.123   2.637  1.1144  0.2955 -0.5574
  178SAPS  H12A20283   2.932   0.037   2.648  1.6879  0.7481 -0.2424
  178SAPS   C1320284   2.915   0.195   2.508  0.2293  0.2820  0.0519
  178SAPS  O13A20285   2.853   0.179   2.401  0.5189  0.1222  0.0164
  178SAPS  O13B20286   3.037   0.234   2.508 -0.7953 -0.6709 -0.1729
  178SAPS   C1120287   2.896   0.209   2.760 -0.0219  0.8203 -0.5863
  178SAPS  H11A20288   2.827   0.295   2.747  0.7146  1.1959 -2.1957
  178SAPS  H11B20289   2.996   0.257   2.769 -0.0874  0.5578  2.6174
  178SAPS     P20290   2.998   0.052   2.950 -0.0068 -0.2556 -0.0940
  178SAPS   O1320291   2.940  -0.028   3.062 -0.4202  0.1921 -0.5295
  178SAPS   O1420292   3.058  -0.011   2.837 -0.5347 -0.0169 -0.1601
  178SAPS   O1220293   2.874   0.134   2.884 -0.0923  0.7724 -0.5396
  178SAPS   O1120294   3.103   0.163   3.003  0.1663  0.2195  0.0103
  178SAPS    C120295   3.049   0.263   3.091 -0.4009  0.8802  0.1656
  178SAPS    HA20296   3.013   0.345   3.024 -0.3049  0.5925 -0.2401
  178SAPS    HB20297   2.971   0.220   3.157  0.5219 -0.1480  0.6225
  178SAPS    C220298   3.151   0.323   3.196  0.2928  0.3987  0.5606
  178SAPS    HS20299   3.197   0.408   3.141 -1.2443  0.2802 -1.0080
  178SAPS   O2120300   3.251   0.227   3.245  0.6814 -0.3397  0.0616
  178SAPS   C2120301   3.344   0.202   3.155  0.3730  0.1482 -0.7275
  178SAPS   O2220302   3.359   0.249   3.042  0.0692 -0.7745  0.0375
  178SAPS   C2220303   3.436   0.092   3.218 -0.1442  0.4188 -0.4388
  178SAPS   H2R20304   3.453   0.119   3.324  2.3790 -0.8566 -0.4358
  178SAPS   H2S20305   3.372   0.001   3.228 -0.7832  0.8708 -0.3879
  178SAPS    C320306   3.082   0.391   3.319  0.7634 -0.4446 -1.1215
  178SAPS    HX20307   3.151   0.421   3.402 -2.4437  2.8091  0.7081
  178SAPS    HY20308   3.016   0.316   3.367  1.4160  0.4206  1.2825
  178SAPS   O3120309   2.995   0.497   3.272 -0.4195 -0.2901 -0.5526
  178SAPS   C3120310   3.020   0.621   3.307 -0.8572  0.2261 -0.1142
  178SAPS   O3220311   3.126   0.664   3.349  0.0295  0.0938  0.6380
  178SAPS   C3220312   2.901   0.706   3.262 -0.0573 -0.4808 -0.0212
  178SAPS   H2X20313   2.810   0.644   3.281 -1.8491  2.1924  0.6063
  178SAPS   H2Y20314   2.920   0.705   3.153 -1.4040 -1.0608 -0.2718
  178SAPS   C2320315   3.573   0.071   3.153 -0.2348  0.1428  0.2260
  178SAPS   H3R20316   3.625   0.167   3.134  0.2163 -0.3992 -1.4722
  178SAPS   H3S20317   3.557   0.035   3.049 -3.1437  1.8370 -0.0221
  178SAPS   C2420318   3.663  -0.025   3.225 -0.1615  0.6315 -0.0477
  178SAPS   H4R20319   3.676   0.001   3.333 -0.3835 -0.0268  0.1388
  178SAPS   H4S20320   3.765  -0.024   3.181  0.3229  0.4083  1.0237
  178SAPS   C2520321   3.619  -0.167   3.211 -0.0427  0.3031 -0.3234
  178SAPS   H5R20322   3.628  -0.216   3.113 -4.1262 -0.7143 -0.3934
  178SAPS   C2620323   3.593  -0.241   3.311 -0.0450  0.2039  0.6730
  178SAPS   H6R20324   3.553  -0.340   3.284 -0.8006  1.0888 -1.6730
  178SAPS   C2720325   3.572  -0.206   3.454  0.4660 -0.5357  0.4375
  178SAPS   H7R20326   3.486  -0.257   3.502 -0.9582  2.8110  1.7842
  178SAPS   H7S20327   3.543  -0.099   3.452  1.3970 -0.2067  2.1684
  178SAPS   C2820328   3.693  -0.210   3.537 -0.0392  0.3757  0.3332
  178SAPS   H8R20329   3.788  -0.218   3.484  0.2995 -1.3194  1.1456
  178SAPS   C2920330   3.700  -0.220   3.668 -0.2401  0.4623  0.4132
  178SAPS   H9R20331   3.797  -0.220   3.721  1.4107 -0.0984 -2.4063
  178SAPS  C21020332   3.585  -0.221   3.770  0.1419 -0.0584 -0.1303
  178SAPS  H10R20333   3.609  -0.297   3.848 -1.5462  2.5212  3.1711
  178SAPS  H10S20334   3.491  -0.255   3.722  0.5041 -1.5538  0.1696
  178SAPS  C21120335   3.554  -0.089   3.837 -0.5063 -0.1664 -0.3521
  178SAPS  H11R20336   3.554   0.000   3.772 -0.5849 -0.3279 -0.5748
  178SAPS  C21220337   3.518  -0.073   3.962  0.0063 -0.1559  0.1243
  178SAPS  H12R20338   3.499   0.031   3.993  2.9397  0.4444  0.2474
  178SAPS  C21320339   3.509  -0.187   4.068 -0.2037 -0.5149  0.5251
  178SAPS  H13R20340   3.610  -0.190   4.112 -0.7880 -2.0274  1.8893
  178SAPS  H13S20341   3.484  -0.286   4.023 -2.8552 -0.0901  0.8755
  178SAPS  C21420342   3.404  -0.162   4.178  0.1446 -0.5630  0.4483
  178SAPS  H14R20343   3.310  -0.218   4.167  0.1947 -0.3957 -1.1025
  178SAPS  C21520344   3.429  -0.093   4.294  0.2653 -0.4384  0.5033
  178SAPS  H15R20345   3.349  -0.076   4.368  0.3024  0.5680  0.3281
  178SAPS  C21620346   3.553  -0.028   4.336 -0.0047 -0.4876 -0.2124
  178SAPS  H16R20347   3.530   0.048   4.414 -1.2233  0.2619 -1.2608
  178SAPS  H16S20348   3.595   0.038   4.257 -0.7695  0.5591  0.2308
  178SAPS  C21720349   3.666  -0.123   4.386 -0.3044 -0.2638 -0.8775
  178SAPS  H17R20350   3.691  -0.196   4.307  2.5207  0.5226 -0.8202
  178SAPS  H17S20351   3.637  -0.173   4.481  3.4735  0.4383  0.8668
  178SAPS  C21820352   3.782  -0.036   4.427  0.5553  0.5799  0.0411
  178SAPS  H18R20353   3.836  -0.088   4.509 -0.1704 -0.4671 -0.1309
  178SAPS  H18S20354   3.756   0.065   4.466  1.2276  1.4106 -1.5511
  178SAPS  C21920355   3.888  -0.024   4.315 -0.0909 -0.5210 -0.0418
  178SAPS  H19R20356   3.833  -0.015   4.219  0.1512  0.5734 -0.0925
  178SAPS  H19S20357   3.940  -0.121   4.302  0.6998 -0.4082  1.9199
  178SAPS  C22020358   3.976   0.104   4.311 -0.6173  0.9105 -0.2519
  178SAPS  H20R20359   3.916   0.195   4.331 -2.3103  0.0711 -1.2523
  178SAPS  H20S20360   4.032   0.116   4.216 -1.2059  0.4909 -0.6571
  178SAPS  H20T20361   4.054   0.101   4.390 -0.7983 -0.3827 -0.1044
  178SAPS   C3320362   2.892   0.834   3.341  0.0543  0.4809  0.2162
  178SAPS   H3X20363   2.813   0.903   3.307 -2.3082 -2.5268 -0.8356
  178SAPS   H3Y20364   2.990   0.887   3.337  1.1571 -1.1956  2.2838
  178SAPS   C3420365   2.857   0.816   3.496  0.5340 -0.1281 -0.6936
  178SAPS   H4X20366   2.880   0.915   3.541  0.7555  0.3128 -1.7485
  178SAPS   H4Y20367   2.924   0.743   3.547  1.3936  1.8450  1.1589
  178SAPS   C3520368   2.708   0.788   3.527 -0.0556 -0.5478 -0.0926
  178SAPS   H5X20369   2.688   0.700   3.462 -0.3501 -1.2062  0.8676
  178SAPS   H5Y20370   2.649   0.878   3.501  2.9417  1.0372 -1.9758
  178SAPS   C3620371   2.672   0.751   3.668 -0.3818  0.7362  0.0551
  178SAPS   H6X20372   2.733   0.659   3.683 -0.1426  0.7813 -0.6199
  178SAPS   H6Y20373   2.569   0.714   3.687  0.4775 -1.3134  1.0111
  178SAPS   C3720374   2.706   0.842   3.784  0.1954 -0.1414 -0.2911
  178SAPS   H7X20375   2.653   0.939   3.779 -0.0765 -0.3487 -2.2250
  178SAPS   H7Y20376   2.814   0.870   3.787 -0.0947  1.0723  3.7949
  178SAPS   C3820377   2.681   0.784   3.927 -0.0800 -0.3474  0.1261
  178SAPS   H8X20378   2.745   0.694   3.939 -0.8892 -1.2167 -1.7405
  178SAPS   H8Y20379   2.577   0.746   3.924  0.3048 -1.3728 -2.1061
  178SAPS   C3920380   2.709   0.880   4.045  0.5828  0.4444  0.6509
  178SAPS   H9X20381   2.623   0.951   4.040  0.4214  0.3585  2.0495
  178SAPS   H9Y20382   2.807   0.929   4.025  0.9115 -0.3215  0.3195
  178SAPS  C31020383   2.714   0.814   4.184 -0.3046  1.0508  1.0557
  178SAPS  H10X20384   2.784   0.727   4.193  0.1766  1.3909  0.6519
  178SAPS  H10Y20385   2.613   0.778   4.212  0.0573  0.5057  1.7076
  178SAPS  C31120386   2.756   0.914   4.289 -0.7265 -0.4558  0.4442
  178SAPS  H11X20387   2.694   1.005   4.280 -1.1388 -0.8803 -1.4834
  178SAPS  H11Y20388   2.861   0.946   4.269 -0.0116 -1.7775  1.8643
  178SAPS  C31220389   2.758   0.857   4.429 -0.0095 -0.0169 -0.8042
  178SAPS  H12X20390   2.821   0.766   4.432  1.8841  1.2687  0.1370
  178SAPS  H12Y20391   2.654   0.821   4.446 -0.8191  2.6773  0.5484
  178SAPS  C31320392   2.810   0.960   4.535  0.3786 -0.0851 -0.0265
  178SAPS  H13X20393   2.748   1.053   4.532  1.7731  0.9675  1.6383
  178SAPS  H13Y20394   2.917   0.986   4.524  0.4323  0.9014  2.2421
  178SAPS  C31420395   2.808   0.892   4.672  0.0208 -0.4811  0.0341
  178SAPS  H14X20396   2.844   0.788   4.661  1.0751 -0.0875 -0.3969
  178SAPS  H14Y20397   2.702   0.885   4.704  0.5702  0.1367  2.1923
  178SAPS  C31520398   2.902   0.961   4.772  0.2428 -0.1787 -0.5267
  178SAPS  H15X20399   2.878   1.068   4.791 -0.5934 -0.1481 -1.6734
  178SAPS  H15Y20400   2.999   0.968   4.718 -0.6672  3.9142 -1.9779
  178SAPS  C31620401   2.910   0.880   4.901  0.2230  0.3034 -0.1146
  178SAPS  H16X20402   2.967   0.785   4.894 -0.6867 -0.1550 -1.5965
  178SAPS  H16Y20403   2.810   0.857   4.943  1.5498 -3.0503  1.6039
  178SAPS  C31720404   2.964   0.960   5.020 -0.1656  0.5192  0.3068
  178SAPS  H17X20405   2.945   0.888   5.103 -2.5725  1.1747  0.4013
  178SAPS  H17Y20406   2.912   1.054   5.047  0.6486  0.7471  1.1361
  178SAPS  C31820407   3.118   0.980   5.005 -0.1688 -0.5235 -0.1585
  178SAPS  H18X20408   3.168   0.886   4.973 -0.6272 -0.7968 -0.0731
  178SAPS  H18Y20409   3.161   1.032   5.094 -0.0047  0.9184 -1.0548
  178SAPS  H18Z20410   3.128   1.055   4.923  0.0753  1.6634  1.7375
  179SAPS     N20411   4.798   4.768   2.402 -0.3171  0.3785  0.3549
  179SAPS   HN120412   4.830   4.708   2.480  0.3311  1.5400  1.0228
  179SAPS   HN220413   4.876   4.762   2.333  0.4309 -2.4143  1.3142
  179SAPS   HN320414   4.785   4.852   2.462 -0.4558 -1.6148  3.3099
  179SAPS   C1220415   4.664   4.725   2.344 -0.4112 -0.1318  0.2398
  179SAPS  H12A20416   4.633   4.802   2.275  1.4776 -1.6239 -2.4519
  179SAPS   C1320417   4.664   4.588   2.261  0.3205 -0.4760 -0.8019
  179SAPS  O13A20418   4.770   4.517   2.251 -0.4009  0.0528  0.5178
  179SAPS  O13B20419   4.555   4.559   2.204 -0.3187  0.0984 -0.3478
  179SAPS   C1120420   4.561   4.719   2.462  0.3956 -0.8446  0.0424
  179SAPS  H11A20421   4.465   4.688   2.415  0.9648 -1.8881 -0.4565
  179SAPS  H11B20422   4.554   4.827   2.488  1.4264 -0.4982 -1.0079
  179SAPS     P20423   4.514   4.616   2.697 -0.0568  0.0926 -0.1126
  179SAPS   O1320424   4.377   4.601   2.648 -0.1150 -0.1295  0.8551
  179SAPS   O1420425   4.567   4.498   2.763 -0.0581  0.5599 -0.2578
  179SAPS   O1220426   4.606   4.634   2.570 -0.3124  0.2447  0.2014
  179SAPS   O1120427   4.536   4.755   2.772 -0.5916  0.4689 -0.0779
  179SAPS    C120428   4.655   4.837   2.773  0.1129  0.1849  0.3244
  179SAPS    HA20429   4.733   4.797   2.706  0.4023 -0.9326  1.3042
  179SAPS    HB20430   4.617   4.935   2.736  0.2212 -0.3058 -1.1725
  179SAPS    C220431   4.717   4.864   2.918 -0.3106 -0.6697  0.8599
  179SAPS    HS20432   4.827   4.882   2.911 -0.5162  0.0863 -1.4321
  179SAPS   O2120433   4.693   4.753   3.006 -0.6615  0.2858  0.5234
  179SAPS   C2120434   4.764   4.643   2.992  1.0233  0.2344  0.0795
  179SAPS   O2220435   4.846   4.621   2.909 -0.3208  0.3514  1.0145
  179SAPS   C2220436   4.727   4.551   3.103 -0.1640 -0.5598 -0.2566
  179SAPS   H2R20437   4.679   4.460   3.060  3.1443 -1.7880 -1.6989
  179SAPS   H2S20438   4.813   4.502   3.153 -0.2982  0.4649  1.0227
  179SAPS    C320439   4.648   4.987   2.990 -0.3877  0.2789  0.0680
  179SAPS    HX20440   4.538   4.980   2.978 -1.0276  3.5284  2.5812
  179SAPS    HY20441   4.678   5.086   2.950  0.6569  0.0972  0.3682
  179SAPS   O3120442   4.667   4.977   3.133 -0.4455  0.4354  0.3913
  179SAPS   C3120443   4.795   4.996   3.178 -0.3929  0.2967 -0.0724
  179SAPS   O3220444   4.888   5.020   3.104 -0.4132 -0.3821 -0.1185
  179SAPS   C3220445   4.802   5.005   3.331  0.1284  0.0498 -0.3986
  179SAPS   H2X20446   4.911   5.002   3.354  0.3267  2.0688 -0.9428
  179SAPS   H2Y20447   4.756   4.909   3.365 -1.7785  1.1593  0.2890
  179SAPS   C2320448   4.648   4.617   3.226 -0.7633  0.1032 -0.0293
  179SAPS   H3R20449   4.561   4.665   3.177 -1.0836 -2.6764 -2.4902
  179SAPS   H3S20450   4.727   4.687   3.263  0.5124 -2.0461  1.5582
  179SAPS   C2420451   4.598   4.507   3.329 -0.1612 -0.0285 -0.2476
  179SAPS   H4R20452   4.559   4.424   3.268  0.1334 -0.8311  0.6270
  179SAPS   H4S20453   4.513   4.539   3.393  0.3457  0.0472  0.4060
  179SAPS   C2520454   4.709   4.458   3.417  0.0240  1.2935  0.1898
  179SAPS   H5R20455   4.770   4.388   3.357 -4.5134 -1.4234 -1.7770
  179SAPS   C2620456   4.756   4.514   3.531  0.7565  0.8697 -0.3620
  179SAPS   H6R20457   4.826   4.463   3.599  1.9553  3.3053  0.3362
  179SAPS   C2720458   4.678   4.624   3.607  0.0542 -0.5390  0.4998
  179SAPS   H7R20459   4.625   4.583   3.696  1.2495 -0.2884  1.3553
  179SAPS   H7S20460   4.610   4.675   3.535  0.1451  0.4692  1.1021
  179SAPS   C2820461   4.773   4.730   3.640 -0.1838 -0.2450  0.1237
  179SAPS   H8R20462   4.798   4.803   3.562  0.7123  0.8061  1.3548
  179SAPS   C2920463   4.828   4.746   3.761 -0.2261  0.0640 -0.0580
  179SAPS   H9R20464   4.887   4.838   3.770 -0.2682  0.3707 -2.5106
  179SAPS  C21020465   4.808   4.659   3.885 -0.6743 -0.1685 -0.3296
  179SAPS  H10R20466   4.898   4.637   3.946 -0.0910 -0.2283 -1.1879
  179SAPS  H10S20467   4.785   4.565   3.830  1.1212 -0.7908 -0.0941
  179SAPS  C21120468   4.682   4.693   3.956  0.4676 -0.4149  0.4003
  179SAPS  H11R20469   4.592   4.693   3.892  1.2664  0.8036 -0.7679
  179SAPS  C21220470   4.675   4.699   4.092 -0.1184 -0.3610  0.2348
  179SAPS  H12R20471   4.575   4.705   4.137 -0.5078  0.2230 -0.6871
  179SAPS  C21320472   4.787   4.698   4.188 -0.3217 -0.5941  0.8443
  179SAPS  H13R20473   4.856   4.616   4.161  0.8287  1.0256 -1.4000
  179SAPS  H13S20474   4.743   4.669   4.286 -3.8828  0.6051 -0.2208
  179SAPS  C21420475   4.855   4.828   4.199 -0.1887 -0.0993 -0.9336
  179SAPS  H14R20476   4.889   4.874   4.105  0.5393 -0.1401 -0.6912
  179SAPS  C21520477   4.894   4.890   4.311 -0.1419  0.6423 -0.6208
  179SAPS  H15R20478   4.944   4.987   4.296 -1.1069  0.9844 -1.7424
  179SAPS  C21620479   4.870   4.844   4.457  0.0126 -0.5360  0.0089
  179SAPS  H16R20480   4.975   4.845   4.492  0.0502  0.4196 -0.1265
  179SAPS  H16S20481   4.832   4.740   4.470 -2.7426  0.2280 -1.3181
  179SAPS  C21720482   4.789   4.940   4.537  0.0232  0.1503 -0.8933
  179SAPS  H17R20483   4.684   4.922   4.506  0.6697 -2.9039 -1.6569
  179SAPS  H17S20484   4.827   5.043   4.520  1.7786  0.0796  1.8469
  179SAPS  C21820485   4.814   4.910   4.690 -0.0349 -0.0833 -0.2020
  179SAPS  H18R20486   4.920   4.935   4.715 -0.2042 -0.6153  1.1397
  179SAPS  H18S20487   4.803   4.801   4.707  4.6619 -0.5106  1.6940
  179SAPS  C21920488   4.720   4.993   4.776 -0.1965  0.1752 -0.1417
  179SAPS  H19R20489   4.614   4.966   4.759 -0.4799  0.8231  0.5156
  179SAPS  H19S20490   4.730   5.093   4.729  4.6342  0.6834  1.3379
  179SAPS  C22020491   4.742   4.996   4.931 -0.4084  0.4949 -0.3241
  179SAPS  H20R20492   4.719   4.902   4.986  0.6907 -0.2874 -1.1662
  179SAPS  H20S20493   4.669   5.072   4.966  1.4559  1.6984  1.1195
  179SAPS  H20T20494   4.844   5.028   4.960 -0.3816 -0.8248  1.2242
  179SAPS   C3320495   4.726   5.117   3.404  0.4241  0.0870  0.1388
  179SAPS   H3X20496   4.618   5.092   3.395  0.5163 -0.9510  1.4876
  179SAPS   H3Y20497   4.748   5.211   3.349  0.1125  0.6677  0.9954
  179SAPS   C3420498   4.756   5.123   3.555  0.4554  1.3966  0.4795
  179SAPS   H4X20499   4.864   5.105   3.574  0.4724  0.6635 -0.2339
  179SAPS   H4Y20500   4.699   5.045   3.609  1.8957  0.0626  0.1570
  179SAPS   C3520501   4.731   5.266   3.618  0.2133  0.2567  0.1185
  179SAPS   H5X20502   4.622   5.282   3.621  0.2956  0.6937  2.9831
  179SAPS   H5Y20503   4.784   5.347   3.562  0.5213 -0.4983 -0.7181
  179SAPS   C3620504   4.770   5.275   3.768 -0.1513  0.5506 -0.2883
  179SAPS   H6X20505   4.759   5.381   3.800 -1.9631  0.9187 -1.9119
  179SAPS   H6Y20506   4.878   5.251   3.779  0.2892  1.5271 -2.1282
  179SAPS   C3720507   4.696   5.182   3.854  0.8946 -0.1387 -0.4674
  179SAPS   H7X20508   4.687   5.079   3.814  0.4483 -0.3886  0.2506
  179SAPS   H7Y20509   4.590   5.214   3.866  0.3241 -2.2859  0.7852
  179SAPS   C3820510   4.744   5.174   3.999  0.2435  0.6666 -0.1387
  179SAPS   H8X20511   4.840   5.119   4.010  0.2622  0.7512  0.1225
  179SAPS   H8Y20512   4.667   5.117   4.056  0.5600  0.7765  0.4084
  179SAPS   C3920513   4.757   5.301   4.084  0.4087 -0.0467  0.0161
  179SAPS   H9X20514   4.672   5.369   4.063  0.0280 -0.2041  0.9945
  179SAPS   H9Y20515   4.847   5.357   4.049 -0.2590  1.3612  0.5014
  179SAPS  C31020516   4.788   5.276   4.233  0.3843  0.2038 -0.1361
  179SAPS  H10X20517   4.885   5.222   4.231 -0.3147 -1.1051 -1.6101
  179SAPS  H10Y20518   4.716   5.204   4.278 -0.7798  2.2971  1.4788
  179SAPS  C31120519   4.808   5.395   4.327  1.0520  0.1300 -0.0228
  179SAPS  H11X20520   4.712   5.449   4.315  0.5701 -1.0734 -2.1959
  179SAPS  H11Y20521   4.886   5.471   4.308  2.3195 -0.9845  0.5115
  179SAPS  C31220522   4.831   5.335   4.465 -0.6212  0.1488  0.3479
  179SAPS  H12X20523   4.928   5.281   4.476  0.5168  2.0532  0.0671
  179SAPS  H12Y20524   4.750   5.261   4.487 -0.3230 -0.8684 -1.7381
  179SAPS  C31320525   4.821   5.439   4.576 -0.0334  0.1837  0.1004
  179SAPS  H13X20526   4.713   5.462   4.588  0.0407 -0.6704  3.2518
  179SAPS  H13Y20527   4.886   5.529   4.563  1.2866 -0.1153  3.5439
  179SAPS  C31420528   4.852   5.380   4.712  0.3773 -0.5421  0.1752
  179SAPS  H14X20529   4.944   5.317   4.710 -1.3330 -3.1792  0.1347
  179SAPS  H14Y20530   4.763   5.322   4.743 -1.4165  1.6735 -0.5712
  179SAPS  C31520531   4.864   5.490   4.822 -0.4178  0.0332 -0.3442
  179SAPS  H15X20532   4.777   5.559   4.815 -0.8297 -0.5397 -0.8964
  179SAPS  H15Y20533   4.951   5.555   4.800  1.4151 -2.2681 -0.2525
  179SAPS  C31620534   4.877   5.432   4.965  0.4942  0.2709 -0.2719
  179SAPS  H16X20535   4.781   5.378   4.986  0.8028  0.1436  0.8794
  179SAPS  H16Y20536   4.870   5.517   5.035 -2.8044  1.1694 -1.5047
  179SAPS  C31720537   4.995   5.329   4.995 -0.6927 -0.0792 -0.0232
  179SAPS  H17X20538   4.988   5.236   4.935  3.3790 -0.5034 -0.1326
  179SAPS  H17Y20539   4.979   5.304   5.102  1.0939 -0.9327  0.0866
  179SAPS  C31820540   5.138   5.388   4.972 -0.0085  0.5305  0.3073
  179SAPS  H18X20541   5.219   5.323   5.012 -0.5932  0.1211  0.8591
  179SAPS  H18Y20542   5.146   5.491   5.013  1.2902  2.8181 -4.8836
  179SAPS  H18Z20543   5.161   5.404   4.864  0.1163  1.6544  0.4889
  180SAPS     N20544   3.290   2.968   2.510  0.4108  0.4123  0.2407
  180SAPS   HN120545   3.378   2.937   2.554 -0.9380 -0.0439  2.7737
  180SAPS   HN220546   3.300   3.053   2.451 -0.3059 -1.0106 -2.0719
  180SAPS   HN320547   3.223   2.982   2.587 -1.9319  0.0787 -1.6139
  180SAPS   C1220548   3.233   2.860   2.423  0.4001 -0.0988 -0.4254
  180SAPS  H12A20549   3.128   2.886   2.413  0.1588 -0.7322  0.3185
  180SAPS   C1320550   3.291   2.851   2.283 -0.7545  0.3940  0.6632
  180SAPS  O13A20551   3.383   2.927   2.244  0.6114 -0.0549  0.2656
  180SAPS  O13B20552   3.239   2.773   2.197  0.3379 -0.5570 -0.0545
  180SAPS   C1120553   3.251   2.718   2.502 -0.5199 -0.1728  1.1398
  180SAPS  H11A20554   3.353   2.683   2.479  0.4732  2.7540  0.7045
  180SAPS  H11B20555   3.179   2.645   2.459  1.1555 -1.2374  0.0807
  180SAPS     P20556   3.277   2.622   2.744  0.7531 -0.1559  0.0735
  180SAPS   O1320557   3.165   2.525   2.753  0.0359  0.1301 -0.3335
  180SAPS   O1420558   3.413   2.568   2.716 -0.1822  0.1132  0.4053
  180SAPS   O1220559   3.247   2.734   2.645  0.0358 -0.4409  0.0599
  180SAPS   O1120560   3.291   2.711   2.871 -0.6442  0.6368 -0.5779
  180SAPS    C120561   3.418   2.713   2.943  0.2478 -0.6949  0.0303
  180SAPS    HA20562   3.446   2.613   2.981  3.6626  1.0850  2.7991
  180SAPS    HB20563   3.492   2.752   2.871  0.1321 -1.4981 -0.5262
  180SAPS    C220564   3.407   2.810   3.065 -0.0529 -0.4213 -0.2707
  180SAPS    HS20565   3.513   2.818   3.098 -0.5153  0.0022  1.2308
  180SAPS   O2120566   3.324   2.756   3.171 -0.0993  0.0732 -0.3496
  180SAPS   C2120567   3.392   2.659   3.240 -0.4027  0.1480 -0.2071
  180SAPS   O2220568   3.506   2.629   3.227  0.2751 -0.0008 -0.0859
  180SAPS   C2220569   3.296   2.562   3.314 -0.0783 -0.7555 -0.2013
  180SAPS   H2R20570   3.227   2.626   3.373  1.7249  1.4089 -0.3366
  180SAPS   H2S20571   3.235   2.514   3.234 -3.5320  2.3791  0.2489
  180SAPS    C320572   3.359   2.952   3.026 -0.4364 -0.5149 -0.0664
  180SAPS    HX20573   3.266   2.929   2.970 -0.8936 -2.0077  1.2143
  180SAPS    HY20574   3.437   3.003   2.965 -1.9200  1.3213 -0.5215
  180SAPS   O3120575   3.326   3.031   3.148 -0.1451  0.6493 -0.0818
  180SAPS   C3120576   3.426   3.093   3.205 -0.7119  0.4692  0.9032
  180SAPS   O3220577   3.546   3.083   3.167 -0.4450  0.0885  0.1632
  180SAPS   C3220578   3.387   3.174   3.332 -0.1511  0.0135 -0.4137
  180SAPS   H2X20579   3.317   3.254   3.301  1.3363  2.3189  1.8698
  180SAPS   H2Y20580   3.481   3.208   3.380  0.5769 -1.4132 -0.7664
  180SAPS   C2320581   3.353   2.461   3.419 -0.5663 -0.8324  0.8398
  180SAPS   H3R20582   3.427   2.518   3.478 -0.3934 -2.6641  2.4773
  180SAPS   H3S20583   3.392   2.379   3.354 -0.1819  0.5096 -0.7067
  180SAPS   C2420584   3.241   2.401   3.499  0.3453  0.5652 -0.4272
  180SAPS   H4R20585   3.154   2.375   3.436  0.5303  0.6666 -0.7282
  180SAPS   H4S20586   3.205   2.475   3.573  0.7557 -0.3503  0.7141
  180SAPS   C2520587   3.314   2.288   3.575  0.6601 -0.6412 -0.0522
  180SAPS   H5R20588   3.347   2.208   3.507  0.4504  0.0240 -0.9548
  180SAPS   C2620589   3.343   2.289   3.708  0.1530  0.9786  0.1347
  180SAPS   H6R20590   3.386   2.192   3.738  0.9818  0.2832 -2.9576
  180SAPS   C2720591   3.315   2.391   3.814  0.0133 -0.3103 -0.3186
  180SAPS   H7R20592   3.229   2.456   3.787 -1.5281 -1.2661  2.0322
  180SAPS   H7S20593   3.405   2.457   3.812  0.4111 -0.8354 -0.0345
  180SAPS   C2820594   3.277   2.347   3.954 -0.2638  0.9013 -0.6294
  180SAPS   H8R20595   3.170   2.321   3.959 -0.0845 -0.0738 -1.3497
  180SAPS   C2920596   3.354   2.333   4.069  0.2711  0.0622  0.2278
  180SAPS   H9R20597   3.304   2.295   4.158  0.5665  1.0132  0.8124
  180SAPS  C21020598   3.503   2.359   4.073  0.1573  0.2645 -0.6270
  180SAPS  H10R20599   3.530   2.371   4.180  0.4475 -2.7461 -0.2757
  180SAPS  H10S20600   3.521   2.460   4.030  1.4758 -0.0150 -0.7698
  180SAPS  C21120601   3.595   2.260   4.003  0.7076  0.0979 -0.9571
  180SAPS  H11R20602   3.621   2.283   3.899 -0.1626 -0.3850 -1.2872
  180SAPS  C21220603   3.649   2.155   4.064  0.2271  0.1887 -0.1393
  180SAPS  H12R20604   3.725   2.105   4.002 -0.1621  1.6206 -1.8283
  180SAPS  C21320605   3.647   2.117   4.214  0.6530  0.6346  0.0750
  180SAPS  H13R20606   3.587   2.190   4.273 -0.0096  0.5910 -0.5316
  180SAPS  H13S20607   3.754   2.108   4.243  0.5767 -3.6857 -0.4608
  180SAPS  C21420608   3.568   1.993   4.257  0.2577 -0.6446 -0.5466
  180SAPS  H14R20609   3.540   1.921   4.179 -3.7981  0.9862 -0.8610
  180SAPS  C21520610   3.516   1.966   4.375  0.5070 -0.2719  0.5231
  180SAPS  H15R20611   3.452   1.877   4.384 -1.8347  1.2070 -0.7089
  180SAPS  C21620612   3.521   2.031   4.509  0.7953 -0.7983 -0.3165
  180SAPS  H16R20613   3.591   2.117   4.501  0.4079 -0.6380 -3.3097
  180SAPS  H16S20614   3.549   1.957   4.586  1.1582 -1.1290 -0.7590
  180SAPS  C21720615   3.381   2.081   4.534 -0.3973 -1.0237 -0.8923
  180SAPS  H17R20616   3.310   1.998   4.552 -1.3297 -0.4957 -1.9658
  180SAPS  H17S20617   3.339   2.135   4.446 -0.1678  0.2565 -0.2371
  180SAPS  C21820618   3.369   2.174   4.652 -0.6453 -0.4879 -0.6362
  180SAPS  H18R20619   3.406   2.274   4.621 -0.8918 -0.3571 -0.5176
  180SAPS  H18S20620   3.434   2.138   4.734 -2.5111 -1.3340  0.5629
  180SAPS  C21920621   3.241   2.181   4.719  0.7826  0.0938 -0.5907
  180SAPS  H19R20622   3.205   2.085   4.762  0.1808 -0.2872 -1.8976
  180SAPS  H19S20623   3.158   2.206   4.650  0.5609  0.2244 -0.2746
  180SAPS  C22020624   3.235   2.276   4.830  0.3237  0.0834  0.3540
  180SAPS  H20R20625   3.147   2.255   4.894 -0.2861 -0.5041 -0.6482
  180SAPS  H20S20626   3.327   2.265   4.892 -1.4663  3.9321  4.1884
  180SAPS  H20T20627   3.223   2.379   4.793 -0.9347 -0.1339  0.1389
  180SAPS   C3320628   3.305   3.090   3.437 -0.3710 -0.6362  0.2830
  180SAPS   H3X20629   3.221   3.048   3.377  0.7617 -1.7219 -0.6176
  180SAPS   H3Y20630   3.267   3.166   3.508  0.2751 -0.0859  0.0486
  180SAPS   C3420631   3.386   2.988   3.521  0.8326  0.2221  0.1092
  180SAPS   H4X20632   3.483   3.031   3.555  0.6224  2.0211 -1.4246
  180SAPS   H4Y20633   3.412   2.895   3.465 -0.4315 -1.3874  2.0654
  180SAPS   C3520634   3.292   2.949   3.641 -0.0577  0.3418 -0.4018
  180SAPS   H5X20635   3.202   2.900   3.597  0.3482 -2.4281  1.5736
  180SAPS   H5Y20636   3.264   3.034   3.708 -0.1789 -0.0695  0.0759
  180SAPS   C3620637   3.356   2.845   3.735 -0.5477 -0.2351  0.7050
  180SAPS   H6X20638   3.448   2.891   3.777 -1.8983  3.3709  0.0521
  180SAPS   H6Y20639   3.374   2.759   3.668 -1.3389  0.7397 -0.7994
  180SAPS   C3720640   3.275   2.791   3.853  0.2752  0.1720 -0.0523
  180SAPS   H7X20641   3.205   2.713   3.817  0.3421  0.1739 -0.1862
  180SAPS   H7Y20642   3.203   2.872   3.877 -0.6303 -0.3011 -1.1355
  180SAPS   C3820643   3.339   2.769   3.995  0.1070  0.2507 -0.0781
  180SAPS   H8X20644   3.413   2.851   4.009 -0.1126  0.5274 -0.5042
  180SAPS   H8Y20645   3.399   2.677   3.981  0.7333  0.2493  2.2007
  180SAPS   C3920646   3.241   2.757   4.111 -0.4402 -0.9367  0.0895
  180SAPS   H9X20647   3.173   2.669   4.110 -1.0810 -0.4519  0.0176
  180SAPS   H9Y20648   3.177   2.848   4.105  1.4481  0.3668 -1.7687
  180SAPS  C31020649   3.313   2.752   4.252  0.2572  0.4151  0.1853
  180SAPS  H10X20650   3.325   2.860   4.273 -0.3516  0.4826  0.2179
  180SAPS  H10Y20651   3.413   2.713   4.222  0.0066 -0.1445  0.0558
  180SAPS  C31120652   3.241   2.687   4.363 -0.4682 -0.3274 -0.2829
  180SAPS  H11X20653   3.216   2.581   4.338  1.4173 -1.3759  1.9415
  180SAPS  H11Y20654   3.144   2.740   4.375  0.8925  2.3370 -0.4329
  180SAPS  C31220655   3.314   2.675   4.501  0.2452  0.0240 -0.1475
  180SAPS  H12X20656   3.320   2.778   4.542 -0.3509 -0.0539  0.1581
  180SAPS  H12Y20657   3.417   2.640   4.484  0.9831  2.5767 -1.3923
  180SAPS  C31320658   3.241   2.589   4.605  0.0096 -0.2343  0.4282
  180SAPS  H13X20659   3.272   2.611   4.709 -2.5588  0.9399  1.0186
  180SAPS  H13Y20660   3.254   2.480   4.586  0.0399 -0.1903  0.1872
  180SAPS  C31420661   3.087   2.618   4.604 -0.4772  0.6332  0.3876
  180SAPS  H14X20662   3.035   2.614   4.506  1.6109 -1.1292 -0.7188
  180SAPS  H14Y20663   3.075   2.719   4.648 -1.8870 -0.0541  1.7012
  180SAPS  C31520664   3.012   2.529   4.709 -0.6228  0.1607  0.7526
  180SAPS  H15X20665   3.064   2.540   4.807 -2.1158 -1.9094  1.8737
  180SAPS  H15Y20666   3.026   2.429   4.663 -1.2587 -0.1814  1.2769
  180SAPS  C31620667   2.860   2.563   4.716  0.1401 -0.2238 -0.4125
  180SAPS  H16X20668   2.820   2.566   4.612  1.0232  1.8303 -0.7471
  180SAPS  H16Y20669   2.843   2.662   4.763 -0.0163 -0.0253 -0.8734
  180SAPS  C31720670   2.781   2.467   4.796  0.0494  0.0760 -0.7222
  180SAPS  H17X20671   2.808   2.463   4.903  0.4019 -0.9756 -0.8380
  180SAPS  H17Y20672   2.795   2.366   4.752  0.0338  1.0769 -3.2167
  180SAPS  C31820673   2.628   2.509   4.793 -0.0413 -0.6763  0.1127
  180SAPS  H18X20674   2.561   2.429   4.833 -0.0198  0.9060  3.6837
  180SAPS  H18Y20675   2.595   2.548   4.695 -0.3308  0.5633  0.6893
  180SAPS  H18Z20676   2.612   2.592   4.866  0.4900 -1.3643  1.0444
  181POPC     N20677   1.015   0.791   7.527 -0.3605  0.3637  0.5205
  181POPC   C1220678   1.083   0.856   7.406  0.2995 -0.0022 -0.5858
  181POPC  H12A20679   1.177   0.894   7.443  1.5636 -2.1372 -1.3979
  181POPC  H12B20680   1.027   0.944   7.377 -0.9549  1.1493  4.4302
  181POPC   C1320681   0.960   0.895   7.616  0.1941 -0.0957 -0.0024
  181POPC  H13A20682   0.906   0.855   7.700 -3.3781  0.6556 -1.7274
  181POPC  H13B20683   1.046   0.949   7.652  0.1621  1.3899 -1.9648
  181POPC  H13C20684   0.892   0.968   7.574  0.0576 -0.6542 -0.7765
  181POPC   C1420685   0.903   0.700   7.479 -0.0234  0.0226 -0.3900
  181POPC  H14A20686   0.814   0.760   7.464  0.4206  1.2676  1.5446
  181POPC  H14B20687   0.924   0.648   7.387 -1.6608  0.6051 -1.1261
  181POPC  H14C20688   0.887   0.628   7.558  2.9499  0.5182  0.8011
  181POPC   C1520689   1.113   0.703   7.589 -0.4022 -0.0677  0.1281
  181POPC  H15A20690   1.127   0.613   7.531  0.9849 -0.0544  0.4046
  181POPC  H15B20691   1.093   0.662   7.687  1.0848  0.4625  0.6743
  181POPC  H15C20692   1.211   0.748   7.599  0.1868 -1.1495 -0.5519
  181POPC   C1120693   1.125   0.778   7.283 -0.3053  0.1524 -0.3264
  181POPC  H11A20694   1.186   0.694   7.321 -2.0559 -0.9125  0.2254
  181POPC  H11B20695   1.207   0.829   7.227  1.6675  0.2094  2.3914
  181POPC     P20696   0.932   0.816   7.104 -0.0373  0.0046 -0.2155
  181POPC   O1320697   0.883   0.938   7.182 -0.1387  0.7322 -0.7442
  181POPC   O1420698   0.818   0.745   7.037  0.1301  0.2862 -0.2288
  181POPC   O1220699   1.018   0.727   7.203  0.2985 -0.3317 -0.6313
  181POPC   O1120700   1.032   0.866   6.991  0.0860  0.6765 -0.5776
  181POPC    C120701   0.997   0.980   6.915  0.1657  0.3785  0.0337
  181POPC    HA20702   0.976   1.067   6.981 -0.4226 -0.0102  0.3680
  181POPC    HB20703   0.907   0.963   6.851 -1.8573  2.2868  2.2044
  181POPC    C220704   1.122   1.030   6.826  0.9519  0.6371  0.2353
  181POPC    HS20705   1.095   1.134   6.796 -0.5036  0.6014  1.3217
  181POPC   O2120706   1.143   0.946   6.708 -0.2458 -0.0620  0.1238
  181POPC   C2120707   1.062   0.972   6.605 -0.3870 -0.3128 -0.8093
  181POPC   O2220708   0.995   1.074   6.594 -0.3506 -0.3534 -0.0012
  181POPC   C2220709   1.086   0.882   6.492 -0.1245  0.7332  0.8183
  181POPC   H2R20710   1.082   0.776   6.527  1.8342  0.9624  1.8712
  181POPC   H2S20711   1.192   0.901   6.467  0.2861 -3.1210 -1.1555
  181POPC    C320712   1.249   1.042   6.911  0.0465 -0.8225 -0.2739
  181POPC    HX20713   1.281   0.947   6.957  1.2578 -0.9403 -1.3100
  181POPC    HY20714   1.216   1.127   6.975  0.6392  1.7193 -3.1039
  181POPC   O3120715   1.355   1.091   6.825 -0.6745 -0.2503  0.5214
  181POPC   C3120716   1.463   1.139   6.891  0.7527  0.2288  0.2638
  181POPC   O3220717   1.475   1.159   7.013 -0.7674  0.7712 -0.5756
  181POPC   C3220718   1.565   1.177   6.779  0.3897  1.3300 -0.0951
  181POPC   H2X20719   1.522   1.236   6.695  0.3276  0.4663 -0.6823
  181POPC   H2Y20720   1.599   1.086   6.726  1.4158  1.2300  0.6935
  181POPC   C2320721   0.998   0.904   6.366 -0.2571 -0.0245 -0.2510
  181POPC   H3R20722   0.988   1.012   6.345  1.0469  0.3675  0.9915
  181POPC   H3S20723   0.907   0.842   6.375  0.1077 -0.5573 -0.1599
  181POPC   C2420724   1.088   0.855   6.244  0.1812  0.0596 -0.1010
  181POPC   H4R20725   1.122   0.752   6.268  0.3851  0.6737  2.4960
  181POPC   H4S20726   1.178   0.920   6.229 -0.5148  0.6495 -2.0544
  181POPC   C2520727   1.012   0.867   6.110 -0.3022 -0.0843 -0.4399
  181POPC   H5R20728   0.990   0.974   6.090 -1.3988 -0.2417 -0.1532
  181POPC   H5S20729   0.913   0.820   6.128 -1.7637  3.9016  4.0222
  181POPC   C2620730   1.082   0.804   5.988  0.2448  0.1609  0.6850
  181POPC   H6R20731   1.115   0.700   6.006 -0.6215 -0.4938 -1.2581
  181POPC   H6S20732   1.174   0.865   5.970  0.4535 -0.7395 -1.5954
  181POPC   C2720733   0.995   0.807   5.861  0.3574 -0.1043 -0.0271
  181POPC   H7R20734   0.972   0.913   5.839 -0.1551 -0.2138 -0.0358
  181POPC   H7S20735   0.901   0.752   5.885  1.4719 -1.7042  0.8828
  181POPC   C2820736   1.071   0.758   5.738 -0.7217 -0.0551  0.5874
  181POPC   H8R20737   1.180   0.761   5.757 -0.1761  0.6111 -2.2409
  181POPC   H8S20738   1.059   0.842   5.666 -0.3380  0.4126  1.0645
  181POPC   C2920739   1.025   0.631   5.668 -0.4496 -0.1663 -0.4583
  181POPC   H9120740   0.961   0.560   5.722 -1.7346 -0.2289 -2.0046
  181POPC  C21020741   1.037   0.592   5.539  0.0100 -0.6728  0.4213
  181POPC  H10120742   0.976   0.509   5.501 -2.1289  0.9063  0.2436
  181POPC  C21120743   1.122   0.659   5.431 -0.7089 -0.1277 -0.4848
  181POPC  H11R20744   1.195   0.733   5.472  0.6581 -1.9985  0.6355
  181POPC  H11S20745   1.059   0.729   5.373  0.2650  0.7482 -0.5252
  181POPC  C21220746   1.197   0.568   5.342  0.0419 -0.1817  0.0566
  181POPC  H12R20747   1.124   0.510   5.281  0.1162 -0.3643  0.1395
  181POPC  H12S20748   1.247   0.489   5.402  0.0915 -0.0691  0.1626
  181POPC  C21320749   1.310   0.634   5.256 -0.0954 -0.1833 -0.2739
  181POPC  H13R20750   1.383   0.673   5.330  0.5785  1.5165 -1.7714
  181POPC  H13S20751   1.264   0.723   5.208 -1.6257  0.6481  2.4658
  181POPC  C21420752   1.376   0.547   5.150  0.2166 -0.5694  0.9443
  181POPC  H14R20753   1.435   0.612   5.083  0.2853 -0.9118  0.6696
  181POPC  H14S20754   1.292   0.511   5.088  1.9576 -1.4213 -1.0517
  181POPC  C21520755   1.460   0.437   5.206  1.0064  0.4667 -0.0828
  181POPC  H15R20756   1.397   0.384   5.281 -1.6658  3.0259 -0.3445
  181POPC  H15S20757   1.555   0.463   5.257 -0.1683  0.3303  2.3454
  181POPC  C21620758   1.492   0.334   5.090  0.1835 -0.4036  0.1662
  181POPC  H16R20759   1.546   0.395   5.015  0.6527 -1.2797 -0.2179
  181POPC  H16S20760   1.401   0.287   5.046 -1.0593  1.7681  0.2594
  181POPC  C21720761   1.585   0.218   5.136  0.2137  0.0208  0.3230
  181POPC  H17R20762   1.513   0.147   5.183 -0.1119  1.0934  1.4997
  181POPC  H17S20763   1.648   0.252   5.221 -0.5845  1.2604  0.4454
  181POPC  C21820764   1.684   0.153   5.034 -0.1892 -0.1555  0.3318
  181POPC  H18R20765   1.632   0.142   4.936  0.0772 -1.5105  0.3157
  181POPC  H18S20766   1.708   0.047   5.058  0.6264  0.3961  2.0925
  181POPC  H18T20767   1.777   0.212   5.020 -0.0089 -0.1146  1.6273
  181POPC   C3320768   1.694   1.236   6.842  1.5717  0.3275 -0.0575
  181POPC   H3X20769   1.743   1.147   6.887 -0.2821 -0.1612  1.1125
  181POPC   H3Y20770   1.677   1.317   6.916 -0.1532  1.6778 -1.8475
  181POPC   C3420771   1.778   1.299   6.733 -0.1656 -0.1377 -0.1600
  181POPC   H4X20772   1.880   1.328   6.767 -0.0105 -0.9923  0.1311
  181POPC   H4Y20773   1.731   1.394   6.699 -1.1752 -0.5479  0.0551
  181POPC   C3520774   1.814   1.213   6.607  0.1002  0.3765 -0.0993
  181POPC   H5X20775   1.721   1.158   6.578 -0.3376  0.5808  0.8916
  181POPC   H5Y20776   1.893   1.143   6.639  0.7699  1.3793  0.4642
  181POPC   C3620777   1.867   1.294   6.488 -0.7347 -0.9673  0.3512
  181POPC   H6X20778   1.942   1.364   6.530  1.2299 -1.6153 -1.8538
  181POPC   H6Y20779   1.781   1.347   6.444  0.2788 -1.2818 -2.1696
  181POPC   C3720780   1.930   1.201   6.380 -0.4425 -0.5416 -0.1225
  181POPC   H7X20781   2.003   1.121   6.406  1.3765  0.1679 -2.6115
  181POPC   H7Y20782   1.975   1.268   6.304  0.8788 -2.2978 -0.9898
  181POPC   C3820783   1.817   1.127   6.299 -0.6266 -0.0354 -0.2167
  181POPC   H8X20784   1.723   1.180   6.273 -2.3085 -2.2970  0.9041
  181POPC   H8Y20785   1.780   1.060   6.380 -0.7643  0.0341 -0.2217
  181POPC   C3920786   1.862   1.039   6.190 -0.0772 -0.0501  0.1710
  181POPC   H9X20787   1.771   0.978   6.175 -1.4712  0.9250  3.7289
  181POPC   H9Y20788   1.943   0.969   6.220 -0.4812 -1.7232 -2.3071
  181POPC  C31020789   1.917   1.113   6.064  0.4814  0.0962 -0.1270
  181POPC  H10X20790   1.910   1.036   5.985 -0.3993 -1.0200  0.9962
  181POPC  H10Y20791   2.023   1.145   6.077  0.2440  0.8130  0.0833
  181POPC  C31120792   1.834   1.237   6.030  0.5156 -0.0191 -0.1443
  181POPC  H11X20793   1.857   1.305   6.115 -0.0341 -0.3315  0.2586
  181POPC  H11Y20794   1.725   1.226   6.016  0.4885 -0.0953  0.1255
  181POPC  C31220795   1.891   1.317   5.905  0.6291 -0.5480 -0.8711
  181POPC  H12X20796   1.990   1.360   5.927  0.0070 -0.6159  2.6537
  181POPC  H12Y20797   1.812   1.393   5.887 -0.4714 -1.3015  0.4998
  181POPC  C31320798   1.896   1.230   5.785 -0.3970  0.4014  0.5901
  181POPC  H13X20799   1.789   1.214   5.758 -0.2395 -0.4119  0.4332
  181POPC  H13Y20800   1.947   1.135   5.809 -1.6962 -0.9612 -1.7842
  181POPC  C31420801   1.974   1.283   5.659  0.2072  0.0755  0.0425
  181POPC  H14X20802   1.954   1.208   5.579 -0.0291  0.4244 -0.2275
  181POPC  H14Y20803   2.080   1.280   5.693 -0.5957 -0.9255  2.7347
  181POPC  C31520804   1.924   1.428   5.628 -0.0308  0.3265 -0.1633
  181POPC  H15X20805   2.004   1.477   5.569 -2.6882  0.3462 -4.1531
  181POPC  H15Y20806   1.902   1.482   5.722 -0.7234 -1.1701  0.5798
  181POPC  C31620807   1.794   1.440   5.541  0.7480  0.6966 -0.0705
  181POPC  H16X20808   1.775   1.549   5.532 -1.2517  0.6388  2.4413
  181POPC  H16Y20809   1.707   1.396   5.593  0.6342 -1.8231 -2.1625
  181POPC  H16Z20810   1.809   1.394   5.441  1.8338  0.3680  0.2311
  182POPC     N20811   6.825   2.415   7.478  0.4525  0.0031 -0.0711
  182POPC   C1220812   6.773   2.443   7.332  0.1180 -0.0683  0.2046
  182POPC  H12A20813   6.772   2.551   7.340  0.1951 -0.1456  1.6394
  182POPC  H12B20814   6.673   2.406   7.323  0.7055 -2.3082  1.9721
  182POPC   C1320815   6.724   2.468   7.576 -0.6850 -0.2498  0.0912
  182POPC  H13A20816   6.699   2.573   7.580 -0.7108 -0.2871  4.0529
  182POPC  H13B20817   6.632   2.411   7.570 -0.2624 -1.3340  2.6695
  182POPC  H13C20818   6.751   2.445   7.678 -0.1987  1.9088  0.5018
  182POPC   C1420819   6.827   2.265   7.499 -0.0642 -0.2747  0.4373
  182POPC  H14A20820   6.895   2.246   7.581 -1.0571 -0.4329  1.2444
  182POPC  H14B20821   6.725   2.232   7.512 -0.2588  0.1442 -0.0386
  182POPC  H14C20822   6.872   2.217   7.413  2.1095  0.7422  0.9468
  182POPC   C1520823   6.959   2.480   7.500 -0.5163  0.2100  0.8408
  182POPC  H15A20824   6.983   2.548   7.420 -0.4319 -0.6667  0.1012
  182POPC  H15B20825   7.034   2.402   7.496  0.7595  1.4268 -0.3464
  182POPC  H15C20826   6.962   2.525   7.598 -1.5121  1.0319  0.5096
  182POPC   C1120827   6.860   2.389   7.208  0.9791  0.0802 -0.4266
  182POPC  H11A20828   6.956   2.444   7.212 -0.1981  2.2125  1.2657
  182POPC  H11B20829   6.799   2.421   7.121 -2.2382 -1.4109  1.0981
  182POPC     P20830   7.004   2.173   7.139  0.2797  0.3288 -0.5178
  182POPC   O1320831   7.021   2.037   7.194 -0.4092  0.9242  0.2354
  182POPC   O1420832   7.129   2.260   7.132  0.4974 -0.1863  0.2818
  182POPC   O1220833   6.884   2.247   7.217  0.1379  0.4323 -0.5706
  182POPC   O1120834   6.944   2.151   6.994  0.0892  0.0849 -0.2667
  182POPC    C120835   6.930   2.261   6.898 -0.0123  0.7224 -0.2843
  182POPC    HA20836   6.923   2.361   6.946 -2.6326 -0.3854  1.9247
  182POPC    HB20837   6.833   2.247   6.845  0.0410 -1.3963  0.1131
  182POPC    C220838   7.050   2.252   6.794  0.3991  0.6244 -0.0689
  182POPC    HS20839   7.139   2.276   6.856 -0.2817 -1.0843  1.7053
  182POPC   O2120840   7.040   2.340   6.684 -0.6057 -0.1761  0.3133
  182POPC   C2120841   7.163   2.361   6.629  0.3630  0.2634 -0.3504
  182POPC   O2220842   7.269   2.320   6.671  0.6206 -0.2913  0.2403
  182POPC   C2220843   7.144   2.464   6.520 -0.2017 -0.4990 -0.4617
  182POPC   H2R20844   7.156   2.563   6.570  1.8562 -0.8368 -0.1679
  182POPC   H2S20845   7.039   2.467   6.484  0.0208 -0.3880 -1.1156
  182POPC    C320846   7.072   2.106   6.745 -0.2757  0.4760 -0.3930
  182POPC    HX20847   7.072   2.038   6.833  0.1360  0.2481 -0.5686
  182POPC    HY20848   7.173   2.088   6.703  0.1337  0.2110  0.6606
  182POPC   O3120849   6.960   2.063   6.667  0.3020  0.4249 -0.2205
  182POPC   C3120850   6.962   2.093   6.537  0.8702  0.0125 -0.5032
  182POPC   O3220851   7.057   2.122   6.476  0.0173  0.1117  0.3432
  182POPC   C3220852   6.833   2.078   6.473 -0.2713 -0.3085 -1.0668
  182POPC   H2X20853   6.766   2.019   6.539 -0.8500  0.6099 -0.8129
  182POPC   H2Y20854   6.837   2.019   6.379  1.9463 -0.5922 -0.8306
  182POPC   C2320855   7.245   2.452   6.401 -0.6726 -1.2258  0.0050
  182POPC   H3R20856   7.256   2.348   6.363 -1.0905 -2.2567  2.5368
  182POPC   H3S20857   7.345   2.465   6.449 -0.9130 -2.1240  0.7607
  182POPC   C2420858   7.209   2.551   6.295  0.1514  0.7561 -0.3392
  182POPC   H4R20859   7.285   2.558   6.214  1.7169  0.0520  1.0136
  182POPC   H4S20860   7.203   2.650   6.345  1.9300  0.7802 -0.1233
  182POPC   C2520861   7.084   2.519   6.216  0.5480  0.4904 -0.7038
  182POPC   H5R20862   7.067   2.606   6.150  0.1391  1.6327  0.8368
  182POPC   H5S20863   7.000   2.514   6.288  0.4734  1.5248 -0.7080
  182POPC   C2620864   7.088   2.393   6.133  0.8521 -1.1258  0.0619
  182POPC   H6R20865   7.081   2.303   6.198 -2.3667  0.4465  2.1984
  182POPC   H6S20866   7.180   2.373   6.076  2.0806  0.7787  1.2477
  182POPC   C2720867   6.967   2.384   6.031  0.2832 -0.8213 -0.6754
  182POPC   H7R20868   6.994   2.466   5.961  1.1556  0.1110  0.6920
  182POPC   H7S20869   6.871   2.425   6.069  0.3907 -2.1907  1.2220
  182POPC   C2820870   6.937   2.247   5.972  0.2460  0.9409  0.0226
  182POPC   H8R20871   6.829   2.249   5.948  0.5056  0.7670 -1.2859
  182POPC   H8S20872   6.965   2.170   6.047  2.1031 -0.7986 -2.2923
  182POPC   C2920873   7.020   2.214   5.850 -0.2205 -0.0061  0.5112
  182POPC   H9120874   7.128   2.228   5.863 -0.2870 -0.4221  1.6869
  182POPC  C21020875   6.976   2.167   5.731  0.2514 -0.9039 -0.0788
  182POPC  H10120876   7.058   2.135   5.665 -0.5493 -0.9156 -1.0930
  182POPC  C21120877   6.834   2.135   5.689  0.4308  0.2721  0.3497
  182POPC  H11R20878   6.761   2.130   5.773  0.3799 -1.9852  0.2390
  182POPC  H11S20879   6.846   2.030   5.655 -3.3539 -0.7642  1.6061
  182POPC  C21220880   6.776   2.220   5.576 -0.1987  0.1492 -0.1352
  182POPC  H12R20881   6.776   2.329   5.599 -0.3233  0.5675 -1.9624
  182POPC  H12S20882   6.669   2.190   5.565  0.2138 -0.5047 -3.0006
  182POPC  C21320883   6.848   2.209   5.445 -0.0435 -0.1059 -0.0716
  182POPC  H13R20884   6.954   2.214   5.479 -0.2086  0.3716  0.3865
  182POPC  H13S20885   6.825   2.292   5.376  0.3429 -0.3764 -0.5328
  182POPC  C21420886   6.819   2.080   5.374  0.5189  0.1758 -0.3504
  182POPC  H14R20887   6.728   2.028   5.410  0.2423  0.2284 -0.9603
  182POPC  H14S20888   6.904   2.008   5.381 -0.1164 -0.7359 -1.6502
  182POPC  C21520889   6.794   2.100   5.221  0.1508 -0.0769 -0.0717
  182POPC  H15R20890   6.882   2.151   5.176 -1.2197  1.1776 -1.4609
  182POPC  H15S20891   6.704   2.165   5.215 -0.1590 -0.5261 -0.3083
  182POPC  C21620892   6.753   1.964   5.154  0.6145 -0.4210 -0.7402
  182POPC  H16R20893   6.650   1.944   5.190  0.7365 -0.8654 -0.6299
  182POPC  H16S20894   6.828   1.886   5.178  1.1830  0.2453 -0.3172
  182POPC  C21720895   6.743   1.955   4.996  0.3450  0.1189 -0.8009
  182POPC  H17R20896   6.641   1.991   4.974  0.0556  0.0459  0.3406
  182POPC  H17S20897   6.736   1.845   4.980 -0.9846 -0.2395  1.7115
  182POPC  C21820898   6.843   2.018   4.905 -0.3647 -0.2993 -0.1939
  182POPC  H18R20899   6.821   1.989   4.800  0.8045 -1.1814 -0.2184
  182POPC  H18S20900   6.947   1.996   4.936  0.2894  3.3261  0.6306
  182POPC  H18T20901   6.831   2.129   4.906  4.1279  0.3730  0.5735
  182POPC   C3320902   6.770   2.221   6.457  0.4420  0.5682  0.0973
  182POPC   H3X20903   6.838   2.296   6.413 -1.0985  2.4810  0.8404
  182POPC   H3Y20904   6.737   2.249   6.560 -1.9061 -0.2050 -0.3707
  182POPC   C3420905   6.625   2.218   6.394 -0.1254 -0.0384 -0.4477
  182POPC   H4X20906   6.586   2.316   6.359 -0.2518 -0.1669 -0.6719
  182POPC   H4Y20907   6.563   2.185   6.480  0.9298 -1.0023 -0.0403
  182POPC   C3520908   6.616   2.126   6.275 -0.3677  0.1209 -0.3025
  182POPC   H5X20909   6.634   2.019   6.298  1.2773  0.7078  1.3876
  182POPC   H5Y20910   6.683   2.157   6.193 -1.1184 -1.4962 -1.5975
  182POPC   C3620911   6.473   2.135   6.217 -0.1802 -0.4166  0.2515
  182POPC   H6X20912   6.440   2.240   6.200 -0.1625 -0.7454 -2.1298
  182POPC   H6Y20913   6.402   2.095   6.292 -2.7782  0.5802 -1.5524
  182POPC   C3720914   6.454   2.047   6.094  0.3818  0.0649 -0.6993
  182POPC   H7X20915   6.502   1.949   6.116  1.7446  0.9125  0.2645
  182POPC   H7Y20916   6.511   2.089   6.008  0.5350  0.9227 -0.1880
  182POPC   C3820917   6.305   2.022   6.071 -0.4018 -0.1490  0.1185
  182POPC   H8X20918   6.255   2.116   6.101 -3.7192 -2.5257  2.7880
  182POPC   H8Y20919   6.253   1.947   6.134 -0.6273 -0.5154 -0.4891
  182POPC   C3920920   6.265   1.994   5.928  0.1813  0.0750 -0.1672
  182POPC   H9X20921   6.304   2.079   5.869  1.6420 -0.9190 -0.6825
  182POPC   H9Y20922   6.154   1.993   5.917  0.1123 -1.4068  0.3649
  182POPC  C31020923   6.324   1.876   5.861 -0.5821 -0.4531  0.0843
  182POPC  H10X20924   6.282   1.780   5.897  0.6843 -1.2128 -0.3869
  182POPC  H10Y20925   6.432   1.867   5.886 -0.2461 -0.0746 -1.1483
  182POPC  C31120926   6.313   1.893   5.709 -0.0798 -0.0800  0.4675
  182POPC  H11X20927   6.364   1.984   5.669  0.3920 -0.8960 -0.8501
  182POPC  H11Y20928   6.206   1.896   5.678  0.3553  1.5363 -1.0818
  182POPC  C31220929   6.359   1.772   5.639  0.3053  0.7052  0.1948
  182POPC  H12X20930   6.330   1.674   5.683  2.4169  0.5171  1.3057
  182POPC  H12Y20931   6.469   1.758   5.636  0.0581 -1.6830 -1.9665
  182POPC  C31320932   6.318   1.763   5.490  0.2085 -0.2665 -0.0596
  182POPC  H13X20933   6.358   1.850   5.434 -1.6167  1.0772  0.6404
  182POPC  H13Y20934   6.209   1.777   5.478  0.4830  0.5229 -1.9966
  182POPC  C31420935   6.371   1.637   5.417  0.2966  0.2528  0.1075
  182POPC  H14X20936   6.316   1.549   5.455 -2.2743  1.7405  0.0531
  182POPC  H14Y20937   6.482   1.635   5.431  0.8001 -0.1764 -3.1607
  182POPC  C31520938   6.343   1.634   5.262  0.7003 -0.1345  0.2186
  182POPC  H15X20939   6.380   1.726   5.211 -0.3369 -0.0559 -0.4172
  182POPC  H15Y20940   6.236   1.637   5.232  1.2809 -0.3197 -2.0674
  182POPC  C31620941   6.404   1.516   5.200 -0.7481  0.2886 -0.7319
  182POPC  H16X20942   6.368   1.423   5.250 -0.4866  1.1966  1.2338
  182POPC  H16Y20943   6.513   1.515   5.221 -1.3698  0.5879  3.3348
  182POPC  H16Z20944   6.380   1.500   5.093  0.4237  0.9556 -1.1088
  183POPC     N20945   6.686   6.160   7.006 -0.3300  0.7939  0.0812
  183POPC   C1220946   6.733   6.231   7.129 -0.4766 -0.2789  0.3163
  183POPC  H12A20947   6.706   6.181   7.221 -1.2894  1.0597  0.8418
  183POPC  H12B20948   6.689   6.329   7.137  0.0268 -0.1749  2.2090
  183POPC   C1320949   6.694   6.249   6.889 -0.0986 -0.0751  0.1669
  183POPC  H13A20950   6.635   6.338   6.907  1.1691  0.4567  1.8697
  183POPC  H13B20951   6.792   6.292   6.877  0.2230 -0.5490  1.0583
  183POPC  H13C20952   6.675   6.201   6.794  2.7507  0.2233 -0.6465
  183POPC   C1420953   6.779   6.047   6.961  0.3489 -0.0727  0.7257
  183POPC  H14A20954   6.788   5.972   7.039  0.4594 -1.3894 -0.5205
  183POPC  H14B20955   6.745   5.996   6.872  2.2983  1.1829 -0.8155
  183POPC  H14C20956   6.878   6.080   6.934  0.0218  3.0253  2.7954
  183POPC   C1520957   6.550   6.105   7.022  0.4974  0.7452 -0.1486
  183POPC  H15A20958   6.523   6.048   6.934  1.1332 -1.5745  1.0973
  183POPC  H15B20959   6.476   6.183   7.027 -0.2971  0.3483 -3.3911
  183POPC  H15C20960   6.548   6.037   7.105  0.7843  3.6299  2.4000
  183POPC   C1120961   6.884   6.264   7.126 -0.0571 -0.0500 -0.1799
  183POPC  H11A20962   6.934   6.167   7.105 -1.9212 -0.8380 -1.1909
  183POPC  H11B20963   6.911   6.294   7.230 -0.8094 -1.6252  0.5040
  183POPC     P20964   6.967   6.502   7.021  0.0800  0.1825 -0.1843
  183POPC   O1320965   7.097   6.524   7.091  0.2698  0.2331 -0.8164
  183POPC   O1420966   6.855   6.579   7.075  0.3108  0.5484  0.2298
  183POPC   O1220967   6.935   6.348   7.017  0.8196  0.0744 -0.0453
  183POPC   O1120968   6.977   6.527   6.868  0.1477  0.0322  0.7609
  183POPC    C120969   7.085   6.463   6.786  0.3184 -0.5151  0.5274
  183POPC    HA20970   7.050   6.443   6.683  1.0816  0.2042  0.1147
  183POPC    HB20971   7.124   6.372   6.836 -0.7707 -0.3075  1.8086
  183POPC    C220972   7.207   6.565   6.785 -0.4875  1.0858 -0.2164
  183POPC    HS20973   7.259   6.554   6.883  0.1460  0.7407 -0.5845
  183POPC   O2120974   7.158   6.693   6.754 -0.1179  0.3854 -0.3594
  183POPC   C2120975   7.224   6.790   6.815 -0.1919  0.3996 -0.4363
  183POPC   O2220976   7.320   6.780   6.887 -0.1101  0.4646 -0.1697
  183POPC   C2220977   7.151   6.926   6.789  0.2269  0.1206  0.2349
  183POPC   H2R20978   7.145   6.990   6.880 -0.5829  0.6152 -0.1501
  183POPC   H2S20979   7.047   6.907   6.753 -0.1807  1.5315  0.6045
  183POPC    C320980   7.314   6.514   6.685 -0.1000 -0.0077  0.5607
  183POPC    HX20981   7.329   6.407   6.712 -1.3392 -0.3696 -0.1139
  183POPC    HY20982   7.417   6.552   6.703 -0.3228  0.5128  0.7691
  183POPC   O3120983   7.274   6.518   6.545 -0.5837  0.1318 -0.4572
  183POPC   C3120984   7.330   6.613   6.476 -0.9789  0.4170 -0.1726
  183POPC   O3220985   7.422   6.689   6.500  0.5331  0.3257  0.3201
  183POPC   C3220986   7.282   6.586   6.332 -0.3263  0.3079  0.2047
  183POPC   H2X20987   7.216   6.669   6.299 -1.4212 -1.3651 -2.1306
  183POPC   H2Y20988   7.224   6.491   6.331  0.3426 -0.1208 -1.4789
  183POPC   C2320989   7.220   7.008   6.677 -0.2804  0.0637  0.1458
  183POPC   H3R20990   7.329   7.002   6.695 -0.4541 -2.1006  0.7618
  183POPC   H3S20991   7.197   7.115   6.693  1.8149  0.6201 -0.3662
  183POPC   C2420992   7.186   6.967   6.530  0.6244 -0.1375 -0.2023
  183POPC   H4R20993   7.076   6.952   6.524  0.4792  0.2227  1.2019
  183POPC   H4S20994   7.245   6.875   6.511 -2.8661 -2.2141 -2.0244
  183POPC   C2520995   7.205   7.086   6.439 -0.1702 -0.3018 -0.1993
  183POPC   H5R20996   7.307   7.122   6.465  0.2927 -1.7510  0.0722
  183POPC   H5S20997   7.131   7.165   6.466 -3.1770 -2.7734 -0.7120
  183POPC   C2620998   7.196   7.068   6.285 -0.0754  0.1653  0.3683
  183POPC   H6R20999   7.252   6.976   6.261 -0.0355  0.9577 -3.2392
  183POPC   H6S21000   7.253   7.154   6.243  1.2583 -1.1489 -0.6155
  183POPC   C2721001   7.053   7.061   6.218 -1.0473  0.3329 -1.2822
  183POPC   H7R21002   7.009   7.162   6.232  3.1182  2.2712 -0.7010
  183POPC   H7S21003   7.008   6.985   6.286 -1.8703  2.2131  0.3655
  183POPC   C2821004   7.052   7.019   6.073 -0.3090 -0.0689  0.1245
  183POPC   H8R21005   6.943   7.013   6.049 -0.6156 -1.3460  1.6696
  183POPC   H8S21006   7.109   6.926   6.054  1.6524  0.8020  1.4293
  183POPC   C2921007   7.130   7.126   5.989  0.1453  0.3188  0.0782
  183POPC   H9121008   7.208   7.184   6.040  0.9748 -1.2997  0.7160
  183POPC  C21021009   7.106   7.139   5.858 -0.4689  0.2635 -0.5106
  183POPC  H10121010   7.162   7.225   5.817  0.1798  0.9560  1.6546
  183POPC  C21121011   7.014   7.061   5.769 -0.9178  0.1850 -0.0752
  183POPC  H11R21012   6.983   6.973   5.829 -0.9471  1.1376  1.3365
  183POPC  H11S21013   7.065   7.018   5.680  2.4628  0.5468  1.5544
  183POPC  C21221014   6.891   7.152   5.736 -0.1130 -0.2732  0.7043
  183POPC  H12R21015   6.917   7.229   5.660 -3.0465 -1.1123 -1.3708
  183POPC  H12S21016   6.847   7.199   5.827  0.7968 -0.0645  1.0382
  183POPC  C21321017   6.778   7.078   5.677 -0.3631  0.7592  0.1499
  183POPC  H13R21018   6.764   6.989   5.742 -0.8711 -0.1305 -1.1271
  183POPC  H13S21019   6.811   7.037   5.579  1.7583 -0.3352  1.2604
  183POPC  C21421020   6.653   7.168   5.672  0.2559  0.5544  0.3580
  183POPC  H14R21021   6.690   7.269   5.646  3.2669 -0.0275  1.8430
  183POPC  H14S21022   6.607   7.174   5.773  1.5871 -1.3352  1.1402
  183POPC  C21521023   6.544   7.127   5.570  0.3477 -0.5475  0.0825
  183POPC  H15R21024   6.491   7.035   5.605 -1.6165 -0.2186 -1.8006
  183POPC  H15S21025   6.596   7.116   5.472 -0.3634  2.9747 -0.8019
  183POPC  C21621026   6.436   7.244   5.562 -0.0278 -0.9048 -0.1900
  183POPC  H16R21027   6.492   7.339   5.553  0.2639 -1.3017 -3.4116
  183POPC  H16S21028   6.371   7.229   5.651  0.8935 -1.6577  0.3891
  183POPC  C21721029   6.357   7.238   5.425 -0.7377  0.3394  1.3584
  183POPC  H17R21030   6.332   7.134   5.395  0.1157  1.2978 -3.7679
  183POPC  H17S21031   6.424   7.288   5.352 -0.9869  1.9380  2.1817
  183POPC  C21821032   6.223   7.308   5.421 -0.2386  0.2705  0.1405
  183POPC  H18R21033   6.201   7.348   5.319 -0.7465  0.2684  0.2448
  183POPC  H18S21034   6.226   7.386   5.499  2.6708 -0.5023  0.9063
  183POPC  H18T21035   6.151   7.228   5.452 -0.1584 -0.2162 -0.8886
  183POPC   C3321036   7.404   6.578   6.245  0.7100 -0.0617  0.7843
  183POPC   H3X21037   7.448   6.477   6.254  0.3312 -0.5302 -1.8879
  183POPC   H3Y21038   7.490   6.645   6.270  0.5739 -0.2008  1.6923
  183POPC   C3421039   7.359   6.591   6.097  0.3027  0.1071 -0.6256
  183POPC   H4X21040   7.259   6.543   6.091 -1.2041  2.8177  0.7680
  183POPC   H4Y21041   7.428   6.548   6.022 -0.4711 -1.6877 -0.3413
  183POPC   C3521042   7.347   6.740   6.066  0.1139 -0.1570  0.0112
  183POPC   H5X21043   7.444   6.792   6.081  0.4437 -0.5224 -0.8251
  183POPC   H5Y21044   7.279   6.798   6.132  1.6802  3.3787 -1.2439
  183POPC   C3621045   7.305   6.765   5.916 -0.4005 -0.4134 -0.8371
  183POPC   H6X21046   7.307   6.875   5.899 -0.1575 -0.3727 -0.5628
  183POPC   H6Y21047   7.201   6.731   5.898 -1.7620  3.1139 -0.4547
  183POPC   C3721048   7.377   6.688   5.812 -0.0595 -0.3191  0.4932
  183POPC   H7X21049   7.385   6.578   5.825 -1.9693 -0.6011 -0.3546
  183POPC   H7Y21050   7.482   6.724   5.809  0.1384 -0.8376  0.9775
  183POPC   C3821051   7.305   6.722   5.677  0.0716 -0.0418  0.7855
  183POPC   H8X21052   7.294   6.832   5.679 -0.8100 -0.1237  0.9379
  183POPC   H8Y21053   7.204   6.675   5.679  0.2070 -0.4154 -0.5060
  183POPC   C3921054   7.378   6.664   5.548  0.0088  0.1118 -0.3702
  183POPC   H9X21055   7.404   6.557   5.558  1.3030  0.3608 -0.8799
  183POPC   H9Y21056   7.474   6.720   5.542  1.4480 -2.1341  0.4422
  183POPC  C31021057   7.300   6.679   5.420 -0.6334 -0.0010 -0.7555
  183POPC  H10X21058   7.205   6.622   5.430  0.3772 -1.7962 -0.9876
  183POPC  H10Y21059   7.368   6.638   5.342  1.0370  1.3468 -0.0904
  183POPC  C31121060   7.278   6.831   5.392  0.4273  0.9201  0.2421
  183POPC  H11X21061   7.373   6.858   5.343  0.0695  1.3260 -0.2269
  183POPC  H11Y21062   7.250   6.888   5.484 -0.9681  1.3187 -0.4033
  183POPC  C31221063   7.170   6.846   5.285 -0.1829  0.0522  0.4986
  183POPC  H12X21064   7.070   6.823   5.330  0.2639 -1.2069  0.8619
  183POPC  H12Y21065   7.182   6.761   5.215  2.0679 -2.5858  3.7601
  183POPC  C31321066   7.151   6.985   5.220 -0.4427  0.8064  0.7094
  183POPC  H13X21067   7.253   7.018   5.189 -0.8634 -0.2290 -2.1152
  183POPC  H13Y21068   7.111   7.052   5.299 -2.0992  0.7443 -0.0399
  183POPC  C31421069   7.059   6.999   5.097 -0.4601  0.2097  0.2188
  183POPC  H14X21070   6.976   6.932   5.127  2.5629 -3.0051  2.2042
  183POPC  H14Y21071   7.107   6.941   5.016 -0.1953  0.1782  0.3971
  183POPC  C31521072   7.015   7.130   5.043 -0.5099  0.2689 -0.1994
  183POPC  H15X21073   6.957   7.200   5.106 -0.4763  1.4929 -1.4784
  183POPC  H15Y21074   6.954   7.104   4.954 -0.4908 -0.3800 -0.0257
  183POPC  C31621075   7.142   7.210   4.999 -0.2785  0.1188  0.1085
  183POPC  H16X21076   7.226   7.205   5.072  0.7851 -0.7087 -1.1108
  183POPC  H16Y21077   7.105   7.314   4.991  0.4574  0.3277 -0.8387
  183POPC  H16Z21078   7.189   7.178   4.903 -2.8782 -3.1274 -0.2889
  184POPC     N21079   1.071   6.486   7.646  0.2360 -0.3614  0.5245
  184POPC   C1221080   1.061   6.536   7.505  0.1239  0.4319  0.3541
  184POPC  H12A21081   1.052   6.643   7.516  0.5152  0.5402 -0.3311
  184POPC  H12B21082   0.975   6.490   7.459 -0.3501 -0.3043  1.8938
  184POPC   C1321083   1.211   6.485   7.692  0.6773 -0.2544 -0.4667
  184POPC  H13A21084   1.262   6.580   7.684 -0.0086  0.4116  2.0782
  184POPC  H13B21085   1.224   6.455   7.795  0.6440  1.3421  0.0179
  184POPC  H13C21086   1.274   6.423   7.629  2.3413  0.5021  0.3827
  184POPC   C1421087   0.987   6.563   7.740 -0.3499 -0.0343 -0.1462
  184POPC  H14A21088   1.021   6.532   7.838  0.3858  2.2756  0.3864
  184POPC  H14B21089   1.005   6.669   7.750  0.5669 -0.2425  0.5413
  184POPC  H14C21090   0.881   6.548   7.725 -0.1584  0.3359 -2.0575
  184POPC   C1521091   1.033   6.344   7.656  0.6779  0.6678 -0.1254
  184POPC  H15A21092   1.089   6.284   7.587  1.0173  0.4211  0.3605
  184POPC  H15B21093   0.928   6.336   7.631 -0.0830  2.0961  2.2728
  184POPC  H15C21094   1.046   6.294   7.751 -0.1504  0.4439 -0.1255
  184POPC   C1121095   1.180   6.516   7.404 -0.5514 -0.3815  0.4929
  184POPC  H11A21096   1.275   6.551   7.450 -1.1696 -0.4381  1.8657
  184POPC  H11B21097   1.161   6.575   7.311 -0.4640 -1.0510  0.0450
  184POPC     P21098   1.089   6.317   7.261  0.3327  0.2726  0.1446
  184POPC   O1321099   0.957   6.385   7.269 -0.1304  0.2443  0.1191
  184POPC   O1421100   1.092   6.173   7.282  0.1768 -0.1051  0.2125
  184POPC   O1221101   1.186   6.373   7.374 -0.1726  0.2330 -0.0546
  184POPC   O1121102   1.150   6.362   7.126 -0.7472 -0.1760  0.1900
  184POPC    C121103   1.282   6.320   7.089  0.0235 -0.0032 -0.2641
  184POPC    HA21104   1.300   6.211   7.077 -0.4715  0.0402 -1.5452
  184POPC    HB21105   1.362   6.360   7.156  0.5670 -0.1309 -0.8288
  184POPC    C221106   1.324   6.367   6.949  0.4963 -0.4380  0.7099
  184POPC    HS21107   1.336   6.478   6.954  1.1361 -0.5162  0.9898
  184POPC   O2121108   1.213   6.352   6.857 -0.0480  0.5393 -0.0115
  184POPC   C2121109   1.205   6.419   6.748 -0.1847  0.5856 -0.3385
  184POPC   O2221110   1.274   6.517   6.723 -0.2028  0.0012 -0.3621
  184POPC   C2221111   1.095   6.366   6.657 -0.3646 -0.0638  0.2169
  184POPC   H2R21112   1.016   6.331   6.727  0.9998 -0.8904  1.4111
  184POPC   H2S21113   1.138   6.282   6.598  0.7808  2.3030 -2.4961
  184POPC    C321114   1.453   6.302   6.904 -0.1257  0.1624  0.2388
  184POPC    HX21115   1.415   6.200   6.880 -2.2262  0.6947  1.0466
  184POPC    HY21116   1.531   6.284   6.981  1.5589  2.4903 -0.8165
  184POPC   O3121117   1.506   6.359   6.784 -0.1713  0.0457  0.5702
  184POPC   C3121118   1.581   6.465   6.804 -0.5031  0.4617 -0.6264
  184POPC   O3221119   1.615   6.509   6.910  0.3300  0.5520  0.2398
  184POPC   C3221120   1.624   6.525   6.669  0.1194  0.4940 -0.1311
  184POPC   H2X21121   1.550   6.502   6.589  1.9553 -2.1238 -1.2001
  184POPC   H2Y21122   1.721   6.476   6.651  0.1721 -0.5093  2.4753
  184POPC   C2321123   1.033   6.473   6.562 -0.5533  0.0881 -0.4257
  184POPC   H3R21124   1.024   6.570   6.615  0.6453  1.1283 -2.0308
  184POPC   H3S21125   0.933   6.429   6.545  0.1040 -0.7648 -2.3648
  184POPC   C2421126   1.113   6.492   6.435  0.8607 -0.1320  0.5888
  184POPC   H4R21127   1.124   6.396   6.381 -1.1299 -0.7663  1.2015
  184POPC   H4S21128   1.214   6.530   6.462 -0.0826  2.4411  0.7573
  184POPC   C2521129   1.041   6.595   6.344  0.1212  0.8696  0.1420
  184POPC   H5R21130   0.997   6.673   6.410 -1.7932 -0.8480  1.0102
  184POPC   H5S21131   0.958   6.545   6.289  0.5702 -0.2775  0.4898
  184POPC   C2621132   1.138   6.662   6.234  0.5300 -0.2612 -0.2470
  184POPC   H6R21133   1.155   6.587   6.154 -0.8970  1.2896 -2.0955
  184POPC   H6S21134   1.234   6.702   6.272  0.7346 -1.2961  0.3774
  184POPC   C2721135   1.079   6.792   6.173  0.0170 -0.5356 -0.4714
  184POPC   H7R21136   1.071   6.863   6.258  0.0628  0.1403 -1.0205
  184POPC   H7S21137   0.974   6.774   6.144  0.3629 -0.5825 -1.7336
  184POPC   C2821138   1.161   6.862   6.058  0.4985 -0.3485 -0.2161
  184POPC   H8R21139   1.259   6.896   6.098  0.9397  0.3781 -1.8327
  184POPC   H8S21140   1.104   6.948   6.018  0.4104  0.9652  2.5538
  184POPC   C2921141   1.192   6.769   5.950  0.5046  0.1845  0.6333
  184POPC   H9121142   1.295   6.732   5.957  0.3153 -0.1590  1.6690
  184POPC  C21021143   1.117   6.757   5.835  0.1042 -0.1703  0.2452
  184POPC  H10121144   1.129   6.680   5.757  0.0639 -0.8375  0.8892
  184POPC  C21121145   0.983   6.835   5.814 -0.2877  0.1591 -1.3212
  184POPC  H11R21146   0.952   6.900   5.899  0.2299 -1.3399  0.0723
  184POPC  H11S21147   0.893   6.773   5.794  0.9609 -1.1073 -3.3389
  184POPC  C21221148   0.988   6.930   5.691  0.4439  0.1041  0.2071
  184POPC  H12R21149   0.887   6.976   5.693  0.3639  0.0097  3.6427
  184POPC  H12S21150   0.999   6.864   5.602  1.2909 -0.0109  0.3888
  184POPC  C21321151   1.095   7.044   5.690  0.2802  0.1775  0.0136
  184POPC  H13R21152   1.192   7.000   5.720  0.1692 -2.5340 -3.0296
  184POPC  H13S21153   1.066   7.118   5.767 -0.0308  1.5584 -1.3966
  184POPC  C21421154   1.109   7.114   5.560 -0.6710 -0.7042  0.1844
  184POPC  H14R21155   1.153   7.216   5.570 -0.3619 -0.8400  0.2314
  184POPC  H14S21156   1.006   7.122   5.519 -1.7816 -0.3253  2.8418
  184POPC  C21521157   1.202   7.028   5.467  1.0703  0.2789  0.6287
  184POPC  H15R21158   1.168   6.923   5.474 -0.3829  0.8237  2.7058
  184POPC  H15S21159   1.309   7.043   5.496  1.2296  2.1569 -0.7188
  184POPC  C21621160   1.181   7.052   5.317  0.0643  0.1944 -0.0395
  184POPC  H16R21161   1.267   7.028   5.250  0.7988 -0.7911  1.2323
  184POPC  H16S21162   1.179   7.163   5.305 -0.8113  0.3098  1.0983
  184POPC  C21721163   1.055   6.984   5.258 -1.0846 -0.5349 -0.3675
  184POPC  H17R21164   0.965   7.013   5.316  0.0306 -2.5476  2.5661
  184POPC  H17S21165   1.069   6.874   5.267  1.9204 -0.1833  0.0699
  184POPC  C21821166   1.030   7.011   5.114 -0.5239  0.5506 -0.2126
  184POPC  H18R21167   1.029   7.119   5.092 -1.5549  0.4259 -0.8458
  184POPC  H18S21168   0.927   6.986   5.079 -0.7006  1.4004 -0.3263
  184POPC  H18T21169   1.113   6.965   5.056  1.0439  1.2997  1.3495
  184POPC   C3321170   1.648   6.681   6.679  0.4782  0.3110  0.4691
  184POPC   H3X21171   1.745   6.689   6.732  1.1738 -1.6336 -0.4021
  184POPC   H3Y21172   1.566   6.736   6.730 -1.1971 -0.0765 -1.6315
  184POPC   C3421173   1.675   6.745   6.541  0.0421  0.0414  0.3498
  184POPC   H4X21174   1.675   6.854   6.559 -0.9794 -0.1745  1.9181
  184POPC   H4Y21175   1.591   6.709   6.479  0.1151 -2.7923  1.7142
  184POPC   C3521176   1.802   6.691   6.466  0.0842 -0.9418 -0.2828
  184POPC   H5X21177   1.782   6.585   6.441  0.3560 -1.1076  0.1852
  184POPC   H5Y21178   1.884   6.684   6.541  0.1940 -2.1215 -0.4942
  184POPC   C3621179   1.850   6.779   6.345  0.2081 -0.3443 -0.2436
  184POPC   H6X21180   1.945   6.730   6.313  1.6605  2.4967 -0.6237
  184POPC   H6Y21181   1.877   6.881   6.381  0.9455  0.5080 -3.0081
  184POPC   C3721182   1.755   6.784   6.217 -0.6792  0.5428 -0.1657
  184POPC   H7X21183   1.682   6.862   6.248 -2.7808 -1.2440 -0.3231
  184POPC   H7Y21184   1.707   6.684   6.206 -0.4514  0.2512  1.2916
  184POPC   C3821185   1.830   6.822   6.097  0.4705 -0.3783  0.1932
  184POPC   H8X21186   1.937   6.806   6.122  0.2987 -0.8547  0.6396
  184POPC   H8Y21187   1.818   6.928   6.067 -1.6421 -0.7264 -0.3919
  184POPC   C3921188   1.806   6.734   5.967 -0.1274  0.5798 -0.0637
  184POPC   H9X21189   1.696   6.722   5.957 -0.0294 -1.9522  1.1031
  184POPC   H9Y21190   1.836   6.629   5.988  0.0983  0.5851 -0.3569
  184POPC  C31021191   1.871   6.775   5.831  0.1427  0.0627  0.6772
  184POPC  H10X21192   1.980   6.775   5.856 -0.1279 -1.3906  2.0604
  184POPC  H10Y21193   1.830   6.877   5.815 -1.4749 -0.0295  3.5297
  184POPC  C31121194   1.817   6.687   5.727 -0.1996 -0.0822  0.2929
  184POPC  H11X21195   1.706   6.683   5.738 -0.1896  1.7953  1.4513
  184POPC  H11Y21196   1.863   6.587   5.741 -1.2158 -0.8374 -1.4793
  184POPC  C31221197   1.850   6.724   5.576 -0.0902 -0.1413 -0.2041
  184POPC  H12X21198   1.803   6.642   5.517 -1.0447 -0.4544  0.9496
  184POPC  H12Y21199   1.958   6.708   5.555  0.2766  0.1421  1.3381
  184POPC  C31321200   1.805   6.863   5.532 -0.3539 -0.1840 -0.5835
  184POPC  H13X21201   1.856   6.940   5.593 -1.1058  1.1001 -1.5284
  184POPC  H13Y21202   1.697   6.866   5.558 -0.8440 -1.4201 -2.3208
  184POPC  C31421203   1.850   6.902   5.390  0.6957 -0.8520  0.3942
  184POPC  H14X21204   1.789   6.993   5.372  1.6701  0.1206  1.7855
  184POPC  H14Y21205   1.817   6.824   5.319 -1.1708 -0.8531  1.2004
  184POPC  C31521206   2.003   6.922   5.383 -0.0663 -0.5550  0.0247
  184POPC  H15X21207   2.053   6.825   5.402  1.9466  0.4172 -0.0934
  184POPC  H15Y21208   2.029   6.998   5.460 -1.0581 -1.9845  1.8846
  184POPC  C31621209   2.050   6.966   5.240  0.8867 -0.2110 -0.4717
  184POPC  H16X21210   2.018   6.897   5.158 -1.1916  1.2336 -0.9382
  184POPC  H16Y21211   2.157   6.993   5.233  1.0781 -0.6365  0.5534
  184POPC  H16Z21212   1.988   7.051   5.205  1.4257 -0.3318 -1.7797
  185POPC     N21213   1.337   4.014   2.193 -0.2545 -0.0057 -0.3780
  185POPC   C1221214   1.398   4.026   2.323 -0.0141  0.5267  0.0835
  185POPC  H12A21215   1.452   4.118   2.337 -1.9098  1.5361  1.1748
  185POPC  H12B21216   1.468   3.944   2.315 -1.5763 -0.7314 -1.4521
  185POPC   C1321217   1.206   4.093   2.183  0.2526 -0.0275  0.3250
  185POPC  H13A21218   1.144   4.077   2.270 -2.0067 -0.3132 -1.2617
  185POPC  H13B21219   1.219   4.200   2.173  2.5117 -0.1175  1.6987
  185POPC  H13C21220   1.151   4.058   2.097  1.2650  0.4296 -0.5378
  185POPC   C1421221   1.434   4.044   2.093 -0.6304 -0.0123 -0.5750
  185POPC  H14A21222   1.396   4.027   1.994  0.4715 -0.2154 -0.9815
  185POPC  H14B21223   1.455   4.149   2.110 -0.8934 -0.2576  1.4404
  185POPC  H14C21224   1.518   3.977   2.105 -1.3541 -0.8245 -0.0214
  185POPC   C1521225   1.300   3.870   2.176  0.1510 -0.3937  0.2166
  185POPC  H15A21226   1.381   3.808   2.139  0.3422  1.1678 -2.1968
  185POPC  H15B21227   1.213   3.860   2.113 -1.2087 -1.7197  2.1886
  185POPC  H15C21228   1.270   3.832   2.272 -0.9053 -0.5880 -0.1825
  185POPC   C1121229   1.307   4.011   2.446 -0.0275  1.3020 -0.2008
  185POPC  H11A21230   1.227   4.089   2.435 -1.0582  0.0106 -2.6946
  185POPC  H11B21231   1.362   4.032   2.541 -0.1368  2.2691 -0.3325
  185POPC     P21232   1.101   3.861   2.494 -0.0503  0.1758 -0.2448
  185POPC   O1321233   1.071   3.722   2.533 -0.0204 -0.8199 -0.0362
  185POPC   O1421234   1.025   3.926   2.384  0.0412  0.3602  0.2170
  185POPC   O1221235   1.250   3.876   2.457 -0.1410  0.0421  0.1825
  185POPC   O1121236   1.104   3.962   2.611  0.2944  0.1154  0.0570
  185POPC    C121237   1.176   3.931   2.736 -0.0955 -0.6963 -0.2124
  185POPC    HA21238   1.204   4.027   2.784  1.1258 -1.6750  1.0874
  185POPC    HB21239   1.274   3.880   2.726  0.4166  0.6326 -2.6191
  185POPC    C221240   1.082   3.865   2.842  0.0046 -0.4178 -0.6255
  185POPC    HS21241   1.030   3.783   2.788 -0.5348 -0.2563 -0.3539
  185POPC   O2121242   0.992   3.970   2.880 -0.6772 -0.1372 -0.0446
  185POPC   C2121243   0.878   3.923   2.925  1.4078  0.3061 -0.5896
  185POPC   O2221244   0.838   3.810   2.917  0.1840  0.0425  0.4872
  185POPC   C2221245   0.798   4.038   2.990 -0.0580  0.0243 -0.2644
  185POPC   H2R21246   0.703   4.047   2.933  0.8254 -1.0564 -2.0084
  185POPC   H2S21247   0.854   4.128   2.955  1.1311 -0.1229  1.1297
  185POPC    C321248   1.157   3.795   2.954 -0.5837 -0.4508 -0.0600
  185POPC    HX21249   1.230   3.728   2.904  1.2582  2.5048 -1.5985
  185POPC    HY21250   1.080   3.735   3.007  1.5156 -2.2025  1.1814
  185POPC   O3121251   1.212   3.888   3.054 -0.0209 -0.7124 -0.1712
  185POPC   C3121252   1.341   3.908   3.055 -0.7930 -1.3934 -0.4578
  185POPC   O3221253   1.427   3.854   2.987  0.2614 -0.1957  0.3160
  185POPC   C3221254   1.378   4.006   3.162  0.2021 -0.6673  0.2906
  185POPC   H2X21255   1.299   4.081   3.185  1.9882  1.2922  0.3504
  185POPC   H2Y21256   1.457   4.067   3.112 -0.4759 -0.4736 -0.5842
  185POPC   C2321257   0.792   4.032   3.140 -0.6293  0.6048 -0.1468
  185POPC   H3R21258   0.762   3.930   3.173  0.8438  0.4594  0.8517
  185POPC   H3S21259   0.704   4.090   3.174 -0.9491  0.5067 -0.8124
  185POPC   C2421260   0.927   4.062   3.212 -0.6155  0.1356  0.6864
  185POPC   H4R21261   0.951   4.161   3.168 -2.9305  0.2846 -0.3793
  185POPC   H4S21262   1.002   3.987   3.180 -0.6113  0.2491  0.4315
  185POPC   C2521263   0.918   4.068   3.367  0.1113 -1.1605  0.0408
  185POPC   H5R21264   0.992   3.994   3.404  1.0190  0.1590  0.9491
  185POPC   H5S21265   0.820   4.035   3.408  0.2937 -1.0446  0.5760
  185POPC   C2621266   0.961   4.207   3.421 -0.1086 -0.0057  0.1036
  185POPC   H6R21267   0.908   4.281   3.357 -1.0402 -0.0454  0.8191
  185POPC   H6S21268   1.067   4.202   3.388  0.6508 -2.4262  2.4936
  185POPC   C2721269   0.947   4.236   3.573 -0.5977 -0.9676  0.7042
  185POPC   H7R21270   0.837   4.249   3.587 -0.8910 -0.6610 -1.4874
  185POPC   H7S21271   1.010   4.326   3.593  2.2643 -2.3773 -1.3844
  185POPC   C2821272   1.003   4.123   3.663  0.0376  0.4491  0.4454
  185POPC   H8R21273   1.111   4.109   3.643  0.2756  0.7441  1.4978
  185POPC   H8S21274   0.958   4.027   3.630  0.6072 -0.3910  2.0364
  185POPC   C2921275   0.967   4.139   3.811  0.1417  0.0628  0.3055
  185POPC   H9121276   0.887   4.210   3.837  0.8849  0.1302  2.5674
  185POPC  C21021277   1.023   4.063   3.904 -0.0392  0.1219  0.0776
  185POPC  H10121278   0.995   4.093   4.006 -0.3736  1.1831 -0.3165
  185POPC  C21121279   1.127   3.964   3.891  0.0793 -0.7718  0.4370
  185POPC  H11R21280   1.194   3.978   3.803 -1.9454  0.5816 -0.9819
  185POPC  H11S21281   1.082   3.865   3.868  0.9222 -0.9819 -0.3789
  185POPC  C21221282   1.221   3.952   4.020  0.4038 -0.5009  0.0101
  185POPC  H12R21283   1.254   4.054   4.049 -2.8246  1.0444 -1.2415
  185POPC  H12S21284   1.317   3.900   3.997  2.0160  2.0706  0.5763
  185POPC  C21321285   1.148   3.879   4.138 -0.1762 -0.4714 -0.5174
  185POPC  H13R21286   1.152   3.770   4.119  1.5642 -0.2988 -1.2728
  185POPC  H13S21287   1.045   3.916   4.160 -0.2285 -1.6056  1.3357
  185POPC  C21421288   1.217   3.908   4.277 -0.3070  0.4375  0.3784
  185POPC  H14R21289   1.249   4.015   4.279 -1.2892  0.7529 -0.0045
  185POPC  H14S21290   1.311   3.848   4.277 -0.9113 -0.5389 -0.6249
  185POPC  C21521291   1.125   3.903   4.398 -0.2973  0.1346  0.5235
  185POPC  H15R21292   1.068   3.809   4.408 -0.6830  0.4546  1.4432
  185POPC  H15S21293   1.040   3.973   4.385 -0.4412 -0.4784 -2.3963
  185POPC  C21621294   1.197   3.942   4.524  0.1490  0.9382  0.5720
  185POPC  H16R21295   1.242   4.043   4.515  0.1821  0.7805 -1.2361
  185POPC  H16S21296   1.276   3.866   4.543 -1.2209 -0.9037 -0.7303
  185POPC  C21721297   1.106   3.920   4.643 -0.2561  0.2375  0.2050
  185POPC  H17R21298   1.071   3.815   4.643 -1.0039  0.4727 -1.2306
  185POPC  H17S21299   1.024   3.994   4.629 -0.7428 -0.7354 -2.8060
  185POPC  C21821300   1.169   3.954   4.783 -0.4800  1.0742  0.2495
  185POPC  H18R21301   1.247   3.876   4.796 -0.2966  0.1439 -4.6896
  185POPC  H18S21302   1.088   3.952   4.860 -1.6922 -1.4589 -0.9761
  185POPC  H18T21303   1.213   4.056   4.779 -0.2602  0.9408 -1.6875
  185POPC   C3321304   1.419   3.937   3.298  0.8997 -0.1785  0.1349
  185POPC   H3X21305   1.465   4.011   3.366 -1.3415  1.9040 -0.4603
  185POPC   H3Y21306   1.495   3.857   3.290  0.3697 -0.9360  2.1040
  185POPC   C3421307   1.295   3.890   3.368  0.5472 -0.2289  0.3815
  185POPC   H4X21308   1.253   3.801   3.316  0.0761  1.1526 -1.7425
  185POPC   H4Y21309   1.213   3.964   3.371  0.2576 -0.5853  1.4814
  185POPC   C3521310   1.327   3.845   3.512  0.6861 -0.4528  0.0092
  185POPC   H5X21311   1.342   3.924   3.588 -2.8298  0.2048  0.1816
  185POPC   H5Y21312   1.428   3.800   3.506  1.3868  0.8698  1.2293
  185POPC   C3621313   1.228   3.738   3.565 -0.1006 -0.4578 -0.7295
  185POPC   H6X21314   1.220   3.657   3.489 -1.4219 -2.2818  1.2066
  185POPC   H6Y21315   1.128   3.786   3.574 -1.0537 -2.3008 -0.8037
  185POPC   C3721316   1.278   3.688   3.703  0.5923 -0.0666  0.5364
  185POPC   H7X21317   1.209   3.623   3.760  0.5516 -0.7019 -0.2221
  185POPC   H7Y21318   1.311   3.785   3.747  1.3206 -0.1403  0.1723
  185POPC   C3821319   1.414   3.607   3.691 -0.0578 -0.3382 -1.0489
  185POPC   H8X21320   1.478   3.642   3.607  2.5367 -0.1202  0.9106
  185POPC   H8Y21321   1.378   3.502   3.680  0.3214 -0.6897  0.7446
  185POPC   C3921322   1.504   3.622   3.816 -0.4774 -0.3551 -0.3910
  185POPC   H9X21323   1.551   3.723   3.818 -1.5947  0.2218  2.5853
  185POPC   H9Y21324   1.592   3.555   3.823 -1.5710 -1.8610 -0.4712
  185POPC  C31021325   1.419   3.599   3.944 -0.2640 -0.3743 -0.0737
  185POPC  H10X21326   1.366   3.503   3.925  1.5519 -1.6679  1.0774
  185POPC  H10Y21327   1.354   3.688   3.962  1.1510  0.7753 -0.4281
  185POPC  C31121328   1.513   3.573   4.069  0.9223  1.2500  0.4355
  185POPC  H11X21329   1.572   3.661   4.104  0.6428  0.5964  2.6914
  185POPC  H11Y21330   1.579   3.489   4.041 -0.1780 -0.2082  2.0523
  185POPC  C31221331   1.425   3.526   4.191 -0.1055  0.1904 -0.0051
  185POPC  H12X21332   1.389   3.423   4.168 -1.2574  0.7302 -0.7077
  185POPC  H12Y21333   1.336   3.589   4.212 -0.1968 -0.3632  1.3398
  185POPC  C31321334   1.507   3.504   4.322  0.0002 -0.0013  0.7622
  185POPC  H13X21335   1.539   3.603   4.362  0.2773  0.3950 -0.3932
  185POPC  H13Y21336   1.600   3.452   4.291  0.8615  1.8872  0.0390
  185POPC  C31421337   1.432   3.424   4.428 -0.2003 -0.5778 -0.0423
  185POPC  H14X21338   1.497   3.407   4.516 -0.2147  0.7937  0.2434
  185POPC  H14Y21339   1.388   3.328   4.393  0.8201 -0.7845 -0.8431
  185POPC  C31521340   1.301   3.504   4.478 -0.0832 -1.1401 -0.2401
  185POPC  H15X21341   1.235   3.514   4.389  0.2655 -1.3765 -0.5307
  185POPC  H15Y21342   1.339   3.607   4.494 -0.2077 -1.2846  1.1193
  185POPC  C31621343   1.234   3.459   4.613 -0.6401 -1.0795  0.8865
  185POPC  H16X21344   1.154   3.531   4.641  0.8988  1.6233 -1.2509
  185POPC  H16Y21345   1.311   3.451   4.693  1.0279  2.5303 -0.1440
  185POPC  H16Z21346   1.191   3.357   4.602  0.3908 -1.5229  0.8719
  186POPC     N21347   4.035   6.756   2.337  0.5445  0.0871 -0.5339
  186POPC   C1221348   4.108   6.800   2.463 -0.9436 -0.2871 -0.0334
  186POPC  H12A21349   4.188   6.870   2.440 -2.3263  1.0146 -1.1221
  186POPC  H12B21350   4.157   6.713   2.502 -0.9724 -1.1888 -1.9047
  186POPC   C1321351   4.127   6.707   2.238 -0.8721 -0.4448  0.4982
  186POPC  H13A21352   4.196   6.631   2.273 -0.4421 -1.0681 -1.5681
  186POPC  H13B21353   4.069   6.662   2.158 -1.5012  0.0306  0.6801
  186POPC  H13C21354   4.177   6.790   2.192  1.4686 -1.3890  1.1977
  186POPC   C1421355   3.926   6.668   2.372 -0.3067  0.1595  0.2896
  186POPC  H14A21356   3.853   6.657   2.293  0.2653  2.1303 -0.5555
  186POPC  H14B21357   3.972   6.575   2.402 -0.7742 -0.4169 -0.6954
  186POPC  H14C21358   3.871   6.701   2.458  1.0151  1.7862  0.5414
  186POPC   C1521359   3.976   6.884   2.276 -0.1303 -0.3447 -0.4773
  186POPC  H15A21360   3.955   6.866   2.172 -2.9025 -0.4692  0.0344
  186POPC  H15B21361   4.052   6.961   2.272  1.1506 -1.5561 -0.1251
  186POPC  H15C21362   3.894   6.926   2.333  0.0667  0.8579 -1.0419
  186POPC   C1121363   4.021   6.864   2.580 -0.0464 -0.5996  0.3245
  186POPC  H11A21364   3.980   6.962   2.550 -2.7533 -0.8576  2.7725
  186POPC  H11B21365   4.088   6.892   2.664 -1.1805  2.1354  0.4244
  186POPC     P21366   3.926   6.685   2.754 -0.0004  0.0293  0.2830
  186POPC   O1321367   4.025   6.581   2.729 -0.0387  0.3842 -0.1995
  186POPC   O1421368   3.787   6.638   2.762  0.0562  0.4310 -0.1565
  186POPC   O1221369   3.919   6.779   2.630 -0.3000  0.0225  0.1553
  186POPC   O1121370   3.976   6.775   2.874 -0.5555  0.5918  0.2073
  186POPC    C121371   3.920   6.902   2.903 -0.5428 -0.1745  0.2710
  186POPC    HA21372   3.817   6.891   2.944 -0.8143  0.7746 -0.1111
  186POPC    HB21373   3.905   6.970   2.817  0.4733 -0.3199 -0.0262
  186POPC    C221374   4.010   6.972   3.016 -0.2892  1.2524  0.3170
  186POPC    HS21375   4.119   6.969   2.995 -0.5347  0.3282 -1.0149
  186POPC   O2121376   3.971   6.904   3.132  0.2766  0.1897  0.4361
  186POPC   C2121377   4.072   6.901   3.222  0.2129  0.1253  0.1395
  186POPC   O2221378   4.191   6.924   3.213  0.3474 -0.2605  0.6636
  186POPC   C2221379   4.007   6.865   3.357  0.3589 -0.0803  0.6584
  186POPC   H2R21380   3.925   6.792   3.337 -0.2670  0.6508  0.5218
  186POPC   H2S21381   3.954   6.952   3.401 -3.4044 -2.6515  1.7505
  186POPC    C321382   3.975   7.123   3.022 -0.4004 -0.1226  0.0980
  186POPC    HX21383   3.867   7.115   3.045 -0.2892 -1.2378  0.3065
  186POPC    HY21384   3.992   7.175   2.925  1.9233  1.4946  1.2721
  186POPC   O3121385   4.049   7.184   3.133  0.2068  0.2445  0.3662
  186POPC   C3121386   3.994   7.274   3.213  0.2267 -0.3147 -0.4553
  186POPC   O3221387   3.877   7.303   3.210  0.2164  0.0083 -0.2939
  186POPC   C3221388   4.097   7.322   3.306  0.3749 -0.3417  0.3201
  186POPC   H2X21389   4.090   7.432   3.305 -1.7354 -0.4368  0.0889
  186POPC   H2Y21390   4.198   7.295   3.270  0.2917  0.7459 -0.7688
  186POPC   C2321391   4.101   6.814   3.459 -0.0274 -0.9780 -0.5124
  186POPC   H3R21392   4.190   6.881   3.462 -0.7531 -0.0431  1.7992
  186POPC   H3S21393   4.148   6.714   3.441  1.6970  0.0130 -1.9860
  186POPC   C2421394   4.039   6.804   3.600  0.4441 -0.1042 -0.5757
  186POPC   H4R21395   3.976   6.712   3.598 -0.7399  0.5908  1.3530
  186POPC   H4S21396   3.981   6.892   3.634 -2.4333 -1.5893 -1.3535
  186POPC   C2521397   4.136   6.767   3.716  0.1505  0.2017 -0.0822
  186POPC   H5R21398   4.218   6.841   3.714 -0.1273  0.5419  0.5253
  186POPC   H5S21399   4.200   6.680   3.691 -1.3040 -0.8396 -0.3154
  186POPC   C2621400   4.070   6.754   3.852  0.6834  0.0009  0.4342
  186POPC   H6R21401   3.994   6.673   3.849 -0.2845  0.8836  0.3377
  186POPC   H6S21402   4.008   6.845   3.867  2.4441  1.2443  0.4351
  186POPC   C2721403   4.178   6.744   3.962  0.0881  0.1496  0.1178
  186POPC   H7R21404   4.142   6.800   4.051  0.3471  0.9471 -0.2589
  186POPC   H7S21405   4.262   6.805   3.921  0.5692 -0.6048 -0.0418
  186POPC   C2821406   4.223   6.595   3.995  0.2475 -0.1718  0.0546
  186POPC   H8R21407   4.226   6.543   3.896 -3.4984  1.9598 -1.3864
  186POPC   H8S21408   4.137   6.560   4.055  0.5990  1.5369  1.6539
  186POPC   C2921409   4.354   6.584   4.074  0.5057 -0.1488 -0.2726
  186POPC   H9121410   4.443   6.601   4.013 -0.4662  2.5778 -1.0819
  186POPC  C21021411   4.358   6.562   4.204 -0.3307 -0.5437 -0.6626
  186POPC  H10121412   4.451   6.533   4.255 -0.4524 -0.0357 -0.1487
  186POPC  C21121413   4.243   6.549   4.302  0.1036 -0.6185 -0.2525
  186POPC  H11R21414   4.240   6.446   4.342 -0.2631 -0.7531 -0.6133
  186POPC  H11S21415   4.146   6.588   4.264 -0.2864  0.5233  1.7847
  186POPC  C21221416   4.278   6.638   4.423 -0.6074 -0.4346  0.0437
  186POPC  H12R21417   4.306   6.743   4.400 -1.5031 -0.4088 -1.0263
  186POPC  H12S21418   4.371   6.589   4.457 -0.8383 -1.2406 -0.4578
  186POPC  C21321419   4.180   6.641   4.539  1.4141  0.3827 -0.8806
  186POPC  H13R21420   4.179   6.534   4.567  4.2324  0.5778  0.2884
  186POPC  H13S21421   4.078   6.673   4.508  1.2006  1.6924  1.0073
  186POPC  C21421422   4.212   6.714   4.663  0.2201 -0.5289 -0.7920
  186POPC  H14R21423   4.195   6.822   4.642 -1.0861 -0.0634  2.2013
  186POPC  H14S21424   4.316   6.702   4.701  0.1362 -0.9369 -0.6893
  186POPC  C21521425   4.127   6.684   4.789 -0.4258 -0.5899  0.4379
  186POPC  H15R21426   4.026   6.674   4.744  0.1572  1.4516 -1.4822
  186POPC  H15S21427   4.127   6.778   4.848  0.3444  1.2256 -2.2927
  186POPC  C21621428   4.174   6.571   4.882 -0.3758 -0.4297 -0.4098
  186POPC  H16R21429   4.280   6.590   4.909 -0.4953 -1.5955  0.9986
  186POPC  H16S21430   4.173   6.473   4.829  1.0980 -1.0593  0.6692
  186POPC  C21721431   4.093   6.567   5.012  0.6437 -0.5764  0.6070
  186POPC  H17R21432   3.984   6.553   4.996  0.0365  3.6899 -0.2695
  186POPC  H17S21433   4.089   6.664   5.067 -1.4968 -0.9544  1.2315
  186POPC  C21821434   4.138   6.460   5.105  0.1687  0.6891 -0.3130
  186POPC  H18R21435   4.141   6.364   5.049  2.5926  0.2101  0.4827
  186POPC  H18S21436   4.240   6.479   5.147  0.7686 -1.3898 -0.6836
  186POPC  H18T21437   4.065   6.445   5.188  0.0511 -0.4118 -0.6028
  186POPC   C3321438   4.075   7.267   3.447  0.0653 -0.0213  0.5643
  186POPC   H3X21439   4.070   7.156   3.455  0.1242 -0.1198 -0.6942
  186POPC   H3Y21440   3.975   7.302   3.480 -1.3767 -0.6653 -2.7995
  186POPC   C3421441   4.189   7.317   3.543  0.1475  0.2014 -0.4724
  186POPC   H4X21442   4.182   7.428   3.544  1.6563  0.4009 -3.0159
  186POPC   H4Y21443   4.289   7.289   3.505  0.9824 -0.9710  2.3567
  186POPC   C3521444   4.165   7.242   3.675 -0.2279  0.9871  0.0835
  186POPC   H5X21445   4.168   7.131   3.679 -1.9306  0.7199 -3.0535
  186POPC   H5Y21446   4.059   7.252   3.707 -0.2403 -0.5849  0.6264
  186POPC   C3621447   4.255   7.313   3.781 -0.1062  0.5229  0.0200
  186POPC   H6X21448   4.244   7.423   3.772  1.5383  0.5992 -1.5413
  186POPC   H6Y21449   4.362   7.299   3.758  0.3157  1.6077  1.2150
  186POPC   C3721450   4.211   7.267   3.917 -0.1772 -0.1045 -0.2458
  186POPC   H7X21451   4.191   7.160   3.935 -2.2869  0.2731 -0.0944
  186POPC   H7Y21452   4.110   7.307   3.941 -0.0073 -0.7312  1.6347
  186POPC   C3821453   4.297   7.311   4.040 -0.5334 -0.2041 -0.1189
  186POPC   H8X21454   4.297   7.421   4.058 -0.0469 -0.5072  1.9893
  186POPC   H8Y21455   4.402   7.281   4.019 -0.3096 -1.4424  2.4110
  186POPC   C3921456   4.254   7.238   4.163  0.5524 -0.4288 -0.1474
  186POPC   H9X21457   4.298   7.137   4.155 -0.2579 -1.0062  1.9759
  186POPC   H9Y21458   4.142   7.234   4.164  0.5697 -1.4065 -0.5219
  186POPC  C31021459   4.296   7.324   4.284 -0.0006 -0.1758  0.0806
  186POPC  H10X21460   4.272   7.432   4.276  2.0934  0.3200 -0.1148
  186POPC  H10Y21461   4.407   7.313   4.287 -0.0673 -1.0533 -0.2097
  186POPC  C31121462   4.237   7.282   4.421  0.7270 -0.3309 -0.0994
  186POPC  H11X21463   4.204   7.175   4.422  1.9248 -0.7229  1.6872
  186POPC  H11Y21464   4.148   7.341   4.453 -1.5484 -2.9188 -1.1720
  186POPC  C31221465   4.350   7.294   4.530  0.3058 -0.1518 -0.2574
  186POPC  H12X21466   4.360   7.401   4.557  1.6443 -0.1907 -0.5552
  186POPC  H12Y21467   4.441   7.259   4.477  0.0335 -1.4546  0.0750
  186POPC  C31321468   4.318   7.204   4.659 -0.3256 -0.6044  0.0887
  186POPC  H13X21469   4.412   7.188   4.717  0.6744  0.4938 -1.1679
  186POPC  H13Y21470   4.283   7.108   4.614  0.3537 -0.8040 -0.0281
  186POPC  C31421471   4.208   7.271   4.755 -0.8920  0.4533  0.2209
  186POPC  H14X21472   4.149   7.342   4.692  2.1395  0.8200 -2.4824
  186POPC  H14Y21473   4.256   7.343   4.825 -0.0236  0.3089 -0.2020
  186POPC  C31521474   4.138   7.166   4.845  0.8828  0.3025  0.0729
  186POPC  H15X21475   4.078   7.228   4.915  0.0709  1.6615 -1.7330
  186POPC  H15Y21476   4.206   7.099   4.901 -0.5619 -0.9682  0.3797
  186POPC  C31621477   4.035   7.088   4.760 -0.1495 -0.3007 -0.6386
  186POPC  H16X21478   4.032   7.124   4.655 -0.6435  0.4222 -0.3804
  186POPC  H16Y21479   3.934   7.086   4.806 -0.1332  0.0550 -0.5871
  186POPC  H16Z21480   4.066   6.981   4.750 -0.4861 -0.4908  0.2191
  187POPC     N21481   3.953   4.235   2.609  0.3734 -0.5541 -0.1788
  187POPC   C1221482   4.078   4.151   2.583  0.3879  0.2956  0.2371
  187POPC  H12A21483   4.154   4.163   2.659  3.2184  0.2889 -2.4081
  187POPC  H12B21484   4.112   4.185   2.486 -1.5657  0.8430 -0.3011
  187POPC   C1321485   3.895   4.199   2.743  0.4696  0.4258 -0.3439
  187POPC  H13A21486   3.887   4.092   2.748  2.8523  0.2168  0.1758
  187POPC  H13B21487   3.962   4.232   2.821 -1.9511  3.1051  0.7604
  187POPC  H13C21488   3.802   4.253   2.751  1.0525  1.4985 -0.5845
  187POPC   C1421489   3.964   4.379   2.616 -1.0508 -0.5657  0.0600
  187POPC  H14A21490   4.021   4.399   2.706  1.4703 -2.2690 -1.0459
  187POPC  H14B21491   4.022   4.419   2.535  0.9517 -1.0904  1.1547
  187POPC  H14C21492   3.867   4.425   2.610 -1.1229 -0.8354 -1.1374
  187POPC   C1521493   3.846   4.211   2.504  0.3208 -0.3346 -0.3020
  187POPC  H15A21494   3.825   4.105   2.496 -0.6108 -0.1072 -1.0558
  187POPC  H15B21495   3.880   4.243   2.407  0.3564 -0.5909 -0.3763
  187POPC  H15C21496   3.752   4.262   2.516  0.3095 -0.2919 -0.5745
  187POPC   C1121497   4.064   3.996   2.577  0.0091  0.4981 -0.3919
  187POPC  H11A21498   4.162   3.965   2.534 -0.6413 -0.0108 -1.5648
  187POPC  H11B21499   3.988   3.971   2.500 -1.5812 -0.9689  1.5760
  187POPC     P21500   3.918   3.835   2.714  0.2792  0.1053  0.0701
  187POPC   O1321501   3.933   3.725   2.620 -0.4370  0.4509 -0.3504
  187POPC   O1421502   3.789   3.914   2.702 -0.0305 -0.3813  0.0123
  187POPC   O1221503   4.033   3.939   2.700  0.7678  0.6113 -0.1537
  187POPC   O1121504   3.936   3.789   2.866  0.5963 -0.8094 -0.5136
  187POPC    C121505   3.934   3.887   2.979  0.6969  0.1089  0.4321
  187POPC    HA21506   3.827   3.903   3.003  0.3434  1.4229 -1.7475
  187POPC    HB21507   3.974   3.984   2.942 -0.4516  0.2032 -0.5918
  187POPC    C221508   4.020   3.826   3.098  0.7968  0.2262 -0.2893
  187POPC    HS21509   4.127   3.835   3.070  0.3660  0.0015 -2.1186
  187POPC   O2121510   3.986   3.689   3.133  0.1583  0.0059  0.4835
  187POPC   C2121511   4.072   3.614   3.209 -0.2072  0.7593 -0.2859
  187POPC   O2221512   4.183   3.645   3.251  0.2547  0.0168  0.3613
  187POPC   C2221513   4.016   3.476   3.243  0.2511  0.3744 -0.2093
  187POPC   H2R21514   4.102   3.406   3.231  0.0424  0.2780 -1.3001
  187POPC   H2S21515   3.947   3.460   3.157  1.3278  2.0036 -1.4342
  187POPC    C321516   3.978   3.921   3.217 -0.1309 -0.2943 -0.1183
  187POPC    HX21517   3.868   3.913   3.224 -0.1867 -0.5724 -1.1478
  187POPC    HY21518   3.992   4.030   3.199  0.0916 -0.4199 -0.7264
  187POPC   O3121519   4.031   3.873   3.347 -0.0538 -0.6250  0.0434
  187POPC   C3121520   4.160   3.911   3.359 -0.5415 -0.1697  0.5708
  187POPC   O3221521   4.216   3.985   3.274  0.2151  0.6791 -0.5319
  187POPC   C3221522   4.222   3.834   3.471 -1.3331 -0.1811  1.2752
  187POPC   H2X21523   4.318   3.794   3.432  0.5528  1.8620  3.4957
  187POPC   H2Y21524   4.150   3.755   3.503 -2.0906  0.0805  0.2730
  187POPC   C2321525   3.927   3.471   3.370  0.0518 -0.9488 -0.0735
  187POPC   H3R21526   3.860   3.383   3.378  0.5650 -1.4241 -0.8763
  187POPC   H3S21527   3.861   3.560   3.368  1.4803  0.2073  1.5576
  187POPC   C2421528   4.025   3.471   3.493  0.2190  0.1873  0.0832
  187POPC   H4R21529   4.104   3.548   3.485 -0.5614  1.0596  0.5411
  187POPC   H4S21530   4.075   3.372   3.493  2.8663  1.4119 -1.7251
  187POPC   C2521531   3.949   3.509   3.620  0.6396 -0.1012  0.5476
  187POPC   H5R21532   3.897   3.604   3.598  2.4011  0.4151 -1.7251
  187POPC   H5S21533   4.028   3.522   3.697  3.6652  1.3102 -2.5249
  187POPC   C2621534   3.864   3.395   3.668 -0.1738  0.0905  0.3901
  187POPC   H6R21535   3.926   3.304   3.684 -0.6591 -0.7532 -2.1585
  187POPC   H6S21536   3.790   3.361   3.593  1.3710  0.6925 -1.4753
  187POPC   C2721537   3.789   3.435   3.802 -0.3936 -0.1887  0.7082
  187POPC   H7R21538   3.730   3.528   3.784 -0.1776  0.1403  1.6302
  187POPC   H7S21539   3.873   3.472   3.864  1.2155  1.2167 -2.0999
  187POPC   C2821540   3.703   3.319   3.864 -1.1265  0.1468  1.2204
  187POPC   H8R21541   3.667   3.343   3.967  1.1098 -1.6882  2.5308
  187POPC   H8S21542   3.762   3.226   3.877 -1.4725 -0.0076  1.7401
  187POPC   C2921543   3.588   3.277   3.776 -0.4714 -0.8013 -0.5903
  187POPC   H9121544   3.610   3.271   3.668  1.0146  3.3234 -0.6714
  187POPC  C21021545   3.460   3.247   3.821  0.2348 -0.1546 -0.1549
  187POPC  H10121546   3.382   3.225   3.747 -0.4880 -0.7126  0.7529
  187POPC  C21121547   3.405   3.256   3.966 -0.3624 -0.1224 -0.1317
  187POPC  H11R21548   3.315   3.321   3.964 -0.5953 -0.4294  0.3225
  187POPC  H11S21549   3.472   3.321   4.027 -0.2296  0.1764 -0.5938
  187POPC  C21221550   3.380   3.122   4.034 -0.6450 -0.3792 -0.5289
  187POPC  H12R21551   3.474   3.065   4.052  0.0364  0.6701 -0.6827
  187POPC  H12S21552   3.306   3.060   3.980 -1.9792  0.4693  0.2842
  187POPC  C21321553   3.322   3.152   4.180 -0.4686  0.1996  0.4322
  187POPC  H13R21554   3.241   3.080   4.205 -1.0101  0.5702 -0.2294
  187POPC  H13S21555   3.268   3.249   4.174  0.2674  0.6233  0.5113
  187POPC  C21421556   3.432   3.160   4.287  0.0549  0.5589 -0.1610
  187POPC  H14R21557   3.522   3.216   4.254 -2.0805  3.8923 -0.7436
  187POPC  H14S21558   3.468   3.058   4.314 -1.0538  0.2342  0.1455
  187POPC  C21521559   3.389   3.244   4.400  0.1597  0.0042  0.1356
  187POPC  H15R21560   3.299   3.190   4.435 -0.1414  0.7723  0.5613
  187POPC  H15S21561   3.348   3.342   4.368 -0.0741 -0.1516 -0.0401
  187POPC  C21621562   3.476   3.275   4.520 -0.1688 -0.5051  0.1092
  187POPC  H16R21563   3.426   3.355   4.579 -0.3899  1.7623 -2.8789
  187POPC  H16S21564   3.576   3.313   4.490  0.1064 -2.4234 -1.6125
  187POPC  C21721565   3.506   3.158   4.606 -0.9559  0.4455 -0.3416
  187POPC  H17R21566   3.520   3.075   4.533 -1.7903 -1.0716  1.1532
  187POPC  H17S21567   3.414   3.125   4.659 -0.7791 -0.1486 -0.4006
  187POPC  C21821568   3.612   3.187   4.712 -0.1123 -0.2215  0.2257
  187POPC  H18R21569   3.701   3.226   4.659 -0.3051 -0.0589  0.0230
  187POPC  H18S21570   3.636   3.103   4.782  0.8030 -0.0911  0.0786
  187POPC  H18T21571   3.575   3.277   4.765  1.1078 -0.4170  1.4793
  187POPC   C3321572   4.262   3.929   3.587  1.0017  0.0299  0.5551
  187POPC   H3X21573   4.169   3.953   3.643  0.0107 -0.6497 -0.7259
  187POPC   H3Y21574   4.308   4.022   3.547 -4.2923  2.4523 -0.8329
  187POPC   C3421575   4.348   3.851   3.689  0.2993  0.2340  0.8365
  187POPC   H4X21576   4.372   3.917   3.775  1.7441 -0.3847  0.9353
  187POPC   H4Y21577   4.442   3.837   3.633 -2.3493 -0.2597 -4.0232
  187POPC   C3521578   4.302   3.721   3.751  0.1811  0.4538 -0.0580
  187POPC   H5X21579   4.317   3.636   3.680 -1.9710 -1.1012  1.2314
  187POPC   H5Y21580   4.192   3.724   3.763  0.0732 -2.1896  0.2410
  187POPC   C3621581   4.375   3.689   3.886  0.3672 -0.0604  0.4999
  187POPC   H6X21582   4.332   3.755   3.964  0.1222 -1.7659  1.8687
  187POPC   H6Y21583   4.483   3.707   3.868  0.3725 -1.0151 -0.5132
  187POPC   C3721584   4.344   3.549   3.943  0.5696 -0.8373  0.2380
  187POPC   H7X21585   4.386   3.480   3.867 -0.8641 -1.2058 -0.2454
  187POPC   H7Y21586   4.234   3.537   3.941  0.4736 -0.0214 -0.1003
  187POPC   C3821587   4.404   3.533   4.083 -0.3909 -0.5446 -0.2699
  187POPC   H8X21588   4.380   3.429   4.114  3.7594 -0.9876  2.3053
  187POPC   H8Y21589   4.352   3.602   4.154 -0.0119 -0.4745 -0.0592
  187POPC   C3921590   4.554   3.559   4.105  0.7449 -0.4678 -0.1476
  187POPC   H9X21591   4.573   3.664   4.076 -0.0608 -0.2523  0.0735
  187POPC   H9Y21592   4.599   3.485   4.035 -0.8700  0.0458 -1.8082
  187POPC  C31021593   4.603   3.537   4.252 -0.0892  0.0624 -0.4442
  187POPC  H10X21594   4.708   3.572   4.264 -0.8946  2.1798  1.0322
  187POPC  H10Y21595   4.613   3.428   4.269 -0.6439 -0.1383 -1.3358
  187POPC  C31121596   4.516   3.596   4.365  0.0366 -0.0911  0.3991
  187POPC  H11X21597   4.421   3.537   4.368  0.7213 -1.3404 -0.9782
  187POPC  H11Y21598   4.493   3.703   4.346 -0.5117 -0.2151  0.3280
  187POPC  C31221599   4.587   3.600   4.500  0.4566  0.8559  0.0125
  187POPC  H12X21600   4.673   3.670   4.490  1.1661  0.0615  0.4860
  187POPC  H12Y21601   4.625   3.497   4.514 -1.1766  0.1909 -0.2159
  187POPC  C31321602   4.494   3.646   4.614  0.0303 -0.2395 -0.7521
  187POPC  H13X21603   4.389   3.654   4.581  0.0196  0.6703 -0.5408
  187POPC  H13Y21604   4.537   3.745   4.643  2.4514 -1.4955  0.3312
  187POPC  C31421605   4.504   3.558   4.740  0.7621 -0.3517 -0.6311
  187POPC  H14X21606   4.608   3.571   4.775  0.3740  1.5632 -0.0408
  187POPC  H14Y21607   4.471   3.463   4.692  1.0138 -1.1639  0.7521
  187POPC  C31521608   4.409   3.604   4.847  0.0073  0.6433  0.2160
  187POPC  H15X21609   4.305   3.575   4.819  0.7315 -1.2003 -0.6890
  187POPC  H15Y21610   4.410   3.715   4.845 -0.7153  0.6540 -0.0174
  187POPC  C31621611   4.440   3.552   4.986  0.5325 -0.2388  0.0589
  187POPC  H16X21612   4.519   3.608   5.039  0.4811 -1.0764  1.0497
  187POPC  H16Y21613   4.470   3.446   4.978 -1.7178 -0.9586  0.3450
  187POPC  H16Z21614   4.352   3.570   5.051 -1.5583  1.5087 -2.9539
  188POPC     N21615   2.924   4.057   2.574 -0.4438 -0.3103 -0.2621
  188POPC   C1221616   2.901   3.941   2.667 -0.0307 -0.4266  0.1217
  188POPC  H12A21617   2.992   3.891   2.696 -0.6079 -1.4529  0.1974
  188POPC  H12B21618   2.851   3.863   2.612  1.7649 -0.8789 -0.9576
  188POPC   C1321619   3.009   4.160   2.646 -0.9191 -1.0898 -0.3067
  188POPC  H13A21620   2.994   4.259   2.604  0.4142  0.1956  2.0457
  188POPC  H13B21621   2.972   4.178   2.745 -1.0544  0.5866 -0.6340
  188POPC  H13C21622   3.115   4.137   2.649 -0.9330 -1.0466  1.2567
  188POPC   C1421623   2.993   4.011   2.452 -0.3442 -0.1095 -0.4047
  188POPC  H14A21624   2.926   3.954   2.389 -1.4354  0.7457 -0.0342
  188POPC  H14B21625   3.029   4.101   2.405  1.8650 -0.0507  1.2193
  188POPC  H14C21626   3.084   3.956   2.474  0.3548  0.7285 -1.0859
  188POPC   C1521627   2.794   4.127   2.535 -0.5294 -0.6200 -0.0837
  188POPC  H15A21628   2.735   4.051   2.486  0.4951 -1.5363  0.0482
  188POPC  H15B21629   2.815   4.195   2.453 -1.3471 -0.3921 -0.1078
  188POPC  H15C21630   2.743   4.168   2.620  1.3629  0.2763  0.6851
  188POPC   C1121631   2.831   3.982   2.800 -0.4589 -0.8246  0.2301
  188POPC  H11A21632   2.818   3.890   2.860 -0.7266 -2.0448 -1.6068
  188POPC  H11B21633   2.734   4.028   2.772  0.2443  0.6158  0.0457
  188POPC     P21634   2.869   4.194   2.966 -0.0644  0.1951  0.2924
  188POPC   O1321635   2.822   4.305   2.873  0.1016  0.0917  0.3354
  188POPC   O1421636   2.977   4.224   3.063 -1.0096  0.1743  0.2019
  188POPC   O1221637   2.916   4.069   2.882 -0.1523 -0.4473  0.3919
  188POPC   O1121638   2.741   4.143   3.032  0.7179 -0.0558  0.3299
  188POPC    C121639   2.636   4.230   3.079  0.5204 -0.2810  0.4379
  188POPC    HA21640   2.571   4.160   3.134 -0.6545  0.4827  0.0520
  188POPC    HB21641   2.582   4.279   2.995  2.4860  0.7137 -0.3125
  188POPC    C221642   2.672   4.344   3.180 -0.1208  0.6667  0.5165
  188POPC    HS21643   2.727   4.421   3.122 -0.2042  0.4101  0.0881
  188POPC   O2121644   2.739   4.293   3.296 -0.3683  0.2269 -0.0939
  188POPC   C2121645   2.829   4.376   3.357  0.2084 -0.1461  0.3058
  188POPC   O2221646   2.851   4.491   3.319 -0.0272 -0.2535 -0.1878
  188POPC   C2221647   2.876   4.319   3.491 -0.5951  0.4307 -0.1154
  188POPC   H2R21648   2.955   4.241   3.480 -0.2544  0.5153  1.4730
  188POPC   H2S21649   2.790   4.271   3.543 -0.9133  0.4856 -0.5868
  188POPC    C321650   2.540   4.409   3.231  0.4379  0.4991 -0.7013
  188POPC    HX21651   2.484   4.341   3.299  1.3853  0.8132  0.4235
  188POPC    HY21652   2.470   4.428   3.147  2.3633 -0.4001 -2.6247
  188POPC   O3121653   2.559   4.524   3.307 -0.2760  0.0595 -0.0490
  188POPC   C3121654   2.586   4.639   3.246 -0.1347  0.1359 -0.1807
  188POPC   O3221655   2.594   4.651   3.125 -0.4301 -0.0196 -0.4501
  188POPC   C3221656   2.615   4.753   3.343  0.0071  0.0344  0.0766
  188POPC   H2X21657   2.725   4.772   3.349 -0.3993  3.4810 -1.0175
  188POPC   H2Y21658   2.590   4.715   3.444 -1.0895 -0.8371 -0.5016
  188POPC   C2321659   2.943   4.432   3.576 -0.3868 -0.9195  0.0479
  188POPC   H3R21660   2.887   4.528   3.584  0.7442 -0.3102  1.0698
  188POPC   H3S21661   3.036   4.457   3.521 -0.2392  0.9459  1.0450
  188POPC   C2421662   2.989   4.388   3.716 -0.1583  1.3167 -0.2294
  188POPC   H4R21663   2.902   4.352   3.776  0.6099  1.6985  1.1536
  188POPC   H4S21664   3.028   4.477   3.769  2.3022  0.6128 -0.7245
  188POPC   C2521665   3.101   4.276   3.718  0.3758  1.2103  0.1414
  188POPC   H5R21666   3.182   4.310   3.650  1.1211  0.0478  0.4105
  188POPC   H5S21667   3.069   4.173   3.691  2.9146  0.7957 -1.5910
  188POPC   C2621668   3.169   4.263   3.861 -0.1055  1.0032 -0.3443
  188POPC   H6R21669   3.092   4.267   3.941  0.8266  1.0302  0.5614
  188POPC   H6S21670   3.239   4.349   3.874 -1.1132  1.6283  1.1594
  188POPC   C2721671   3.242   4.129   3.868 -0.5500  0.1439 -0.1573
  188POPC   H7R21672   3.314   4.118   3.785  0.8756  2.7315  0.6226
  188POPC   H7S21673   3.170   4.045   3.862  2.4736 -2.6370 -0.4677
  188POPC   C2821674   3.323   4.101   3.991 -0.1962 -1.2654 -0.0475
  188POPC   H8R21675   3.344   3.994   4.014  0.8881 -1.0318  0.1283
  188POPC   H8S21676   3.256   4.144   4.069  2.6705  1.7191  0.9923
  188POPC   C2921677   3.440   4.192   4.007  0.0525  0.3379  0.9665
  188POPC   H9121678   3.439   4.262   3.922 -2.6125  0.7872  1.3043
  188POPC  C21021679   3.530   4.186   4.104  0.3184 -0.1390 -0.1563
  188POPC  H10121680   3.620   4.249   4.101  0.0090  0.2953 -1.5012
  188POPC  C21121681   3.508   4.088   4.228  0.4064  0.0438 -0.4266
  188POPC  H11R21682   3.558   3.990   4.216  0.0218 -0.3594  1.0885
  188POPC  H11S21683   3.398   4.074   4.229  0.1698  1.7213 -0.2065
  188POPC  C21221684   3.546   4.177   4.352  0.0482  0.5651  0.3661
  188POPC  H12R21685   3.511   4.128   4.445 -0.6389  0.2763 -0.0359
  188POPC  H12S21686   3.497   4.276   4.342  1.3595  1.1596 -0.5983
  188POPC  C21321687   3.700   4.188   4.369 -0.1169 -0.5298 -0.0508
  188POPC  H13R21688   3.743   4.271   4.309  2.1440 -1.0514  0.7465
  188POPC  H13S21689   3.752   4.100   4.325 -0.0874 -0.6458  0.2122
  188POPC  C21421690   3.740   4.212   4.521  0.4186  1.1327 -0.2058
  188POPC  H14R21691   3.715   4.122   4.582 -0.7914  0.7044 -1.2888
  188POPC  H14S21692   3.692   4.305   4.557 -2.2045  0.6834 -2.2557
  188POPC  C21521693   3.888   4.245   4.553 -0.1993 -0.5190  0.2009
  188POPC  H15R21694   3.930   4.303   4.468 -0.4889 -0.0148  0.3996
  188POPC  H15S21695   3.948   4.152   4.557  0.5491 -0.0287  0.6156
  188POPC  C21621696   3.908   4.325   4.683  0.2428  0.4424  0.7585
  188POPC  H16R21697   3.864   4.264   4.766 -4.1531  0.6081 -1.1460
  188POPC  H16S21698   3.834   4.404   4.659 -1.5245 -1.5849 -0.8677
  188POPC  C21721699   4.047   4.371   4.717 -0.8267 -0.3873  0.1129
  188POPC  H17R21700   4.040   4.441   4.803 -0.1674 -0.6972  0.4264
  188POPC  H17S21701   4.085   4.432   4.632 -1.7924 -0.1476 -0.1555
  188POPC  C21821702   4.156   4.265   4.743  0.7291  0.1405  0.3998
  188POPC  H18R21703   4.115   4.175   4.794  1.0071 -1.0688 -1.4051
  188POPC  H18S21704   4.246   4.318   4.781 -0.4266  2.1446  0.5117
  188POPC  H18T21705   4.182   4.225   4.643 -2.4783  0.0232 -0.4947
  188POPC   C3321706   2.541   4.879   3.303  0.0565 -0.4098 -0.3019
  188POPC   H3X21707   2.441   4.847   3.265  0.7613 -0.4190 -2.2365
  188POPC   H3Y21708   2.587   4.929   3.216  0.6196  0.4717  0.4893
  188POPC   C3421709   2.536   4.972   3.421  0.6896  0.3604 -0.1859
  188POPC   H4X21710   2.468   5.058   3.402 -0.4460 -0.5349 -0.3136
  188POPC   H4Y21711   2.637   5.010   3.445 -0.1053  3.4840 -1.2196
  188POPC   C3521712   2.453   4.917   3.538  0.4351 -0.3503 -0.4415
  188POPC   H5X21713   2.469   4.808   3.555  1.2946 -0.3201 -0.9985
  188POPC   H5Y21714   2.344   4.935   3.524  0.0659 -1.3311  0.9038
  188POPC   C3621715   2.503   4.992   3.662  0.0248 -0.4735 -0.3259
  188POPC   H6X21716   2.513   5.098   3.630 -0.1976 -0.7278 -1.2605
  188POPC   H6Y21717   2.599   4.946   3.695 -0.7381 -0.8375  1.5098
  188POPC   C3721718   2.406   4.982   3.781  0.5622 -0.0330  0.6198
  188POPC   H7X21719   2.385   4.877   3.811 -1.3485  0.3625  0.7967
  188POPC   H7Y21720   2.308   5.025   3.749  0.2254 -1.0836  0.1941
  188POPC   C3821721   2.469   5.051   3.907  0.3632 -0.7807 -0.1728
  188POPC   H8X21722   2.475   5.161   3.915 -2.0135 -0.6016 -0.3562
  188POPC   H8Y21723   2.573   5.013   3.917  0.0079 -2.9517 -3.1850
  188POPC   C3921724   2.389   5.014   4.033  0.0629  0.0400  0.0817
  188POPC   H9X21725   2.356   4.908   4.037 -0.5735  0.2539  2.8817
  188POPC   H9Y21726   2.301   5.079   4.051 -1.1061 -2.2745  3.9387
  188POPC  C31021727   2.479   5.040   4.159 -0.9167  0.2606 -0.1700
  188POPC  H10X21728   2.524   5.138   4.133  0.5360  0.2955  2.1955
  188POPC  H10Y21729   2.563   4.967   4.156  1.4129  2.7703 -0.2664
  188POPC  C31121730   2.410   5.050   4.289  0.3966  0.0725  0.5421
  188POPC  H11X21731   2.361   4.954   4.314  0.5673 -0.0451  0.4203
  188POPC  H11Y21732   2.318   5.111   4.273  0.4054 -0.3925 -1.4159
  188POPC  C31221733   2.494   5.104   4.403 -0.7428 -0.5883  0.1804
  188POPC  H12X21734   2.523   5.207   4.372 -3.0413  0.3343  0.8283
  188POPC  H12Y21735   2.580   5.039   4.428  1.0109  1.7971  0.6518
  188POPC  C31321736   2.407   5.117   4.529  0.6724  0.0773  0.2580
  188POPC  H13X21737   2.342   5.027   4.526  0.0338  0.5068  0.7605
  188POPC  H13Y21738   2.332   5.198   4.513 -0.2805 -1.1023 -1.5955
  188POPC  C31421739   2.486   5.119   4.659 -0.0617  0.0095 -0.4437
  188POPC  H14X21740   2.526   5.221   4.679  1.2626 -0.6373  0.3296
  188POPC  H14Y21741   2.572   5.051   4.641  0.4173  0.3687  0.4388
  188POPC  C31521742   2.409   5.073   4.781  0.0501 -0.2209 -0.6432
  188POPC  H15X21743   2.361   4.977   4.751  1.3683 -1.0517 -0.1935
  188POPC  H15Y21744   2.325   5.140   4.809 -2.6752 -2.2209 -3.3630
  188POPC  C31621745   2.497   5.050   4.906  0.3932  0.0917  0.5490
  188POPC  H16X21746   2.524   5.145   4.957  2.2498 -0.6573  1.0516
  188POPC  H16Y21747   2.586   4.992   4.873  0.0511 -0.4255  0.5233
  188POPC  H16Z21748   2.440   4.985   4.976  3.4763 -1.2771  1.9693
  189SAPI   C1221749   2.512   2.016   7.576  0.0777  0.3302 -0.5537
  189SAPI    H221750   2.409   2.031   7.538  0.4085 -0.1925 -1.6782
  189SAPI    O221751   2.538   2.106   7.685  0.3276  0.0788 -0.6082
  189SAPI   HO221752   2.485   2.184   7.667 -1.3710 -1.1038 -1.0449
  189SAPI   C1321753   2.524   1.870   7.606  0.3138  0.9272 -0.3628
  189SAPI    H321754   2.503   1.819   7.510 -0.0128  1.2386 -0.4614
  189SAPI    O321755   2.424   1.830   7.701  0.1466 -0.4519  0.3997
  189SAPI   HO321756   2.399   1.908   7.751 -0.8887 -0.2310 -0.4348
  189SAPI   C1421757   2.656   1.837   7.661  0.0358  0.3705 -0.3984
  189SAPI    H421758   2.681   1.880   7.761  2.2227 -1.3647 -0.1215
  189SAPI    O421759   2.676   1.695   7.689 -0.2618 -0.2012  0.3533
  189SAPI   HO421760   2.762   1.677   7.727 -0.8718  1.2474  2.6001
  189SAPI   C1521761   2.768   1.889   7.571  0.1273  0.4779  0.0151
  189SAPI    H521762   2.777   1.809   7.494  0.9781  1.9989 -1.5318
  189SAPI    O521763   2.890   1.884   7.648  0.1088  0.2037 -0.3395
  189SAPI   HO521764   2.930   1.798   7.632 -0.2066  0.0815 -0.4826
  189SAPI   C1621765   2.745   2.018   7.491  0.7985 -0.6601 -0.2516
  189SAPI    H621766   2.790   2.100   7.551 -1.6338  0.5733 -0.0004
  189SAPI    O621767   2.823   2.021   7.372 -0.0918  0.7211  0.1815
  189SAPI   HO621768   2.797   2.107   7.339  1.3035  1.2255  0.2958
  189SAPI   C1121769   2.598   2.045   7.452 -0.0836 -0.7801 -0.0333
  189SAPI    H121770   2.564   1.962   7.387  0.4700 -1.6955  0.8290
  189SAPI     P21771   2.495   2.219   7.267  0.4264 -0.0743 -0.0472
  189SAPI   O1321772   2.482   2.367   7.274  0.3676 -0.0321  0.5053
  189SAPI   O1421773   2.369   2.137   7.273  0.0938 -0.1734 -0.1275
  189SAPI   O1221774   2.586   2.182   7.398  0.1343  0.1042  0.5698
  189SAPI   O1121775   2.578   2.173   7.142 -0.0416 -0.2770 -0.2497
  189SAPI    C121776   2.535   2.042   7.098 -0.1501  0.5169  0.8267
  189SAPI    HA21777   2.539   1.963   7.175 -2.8134 -0.4370  0.0856
  189SAPI    HB21778   2.432   2.053   7.057 -0.1518  1.6281  1.0955
  189SAPI    C221779   2.628   2.006   6.984 -0.5276  0.3835  0.0594
  189SAPI    HS21780   2.587   1.912   6.940 -0.4321 -0.2926  1.3744
  189SAPI   O2121781   2.768   2.004   7.020  0.2868 -0.5071 -0.2742
  189SAPI   C2121782   2.806   1.881   7.043  0.1253  0.6257  0.3686
  189SAPI   O2221783   2.729   1.785   7.051  0.4345 -1.0492  0.2691
  189SAPI   C2221784   2.956   1.855   7.035  0.2250 -0.3588  0.4974
  189SAPI   H2R21785   3.002   1.928   7.105  0.3223  0.7581 -0.7102
  189SAPI   H2S21786   2.985   1.755   7.073  0.7566  0.2093  1.6320
  189SAPI    C321787   2.613   2.106   6.868 -0.3834  0.3182  0.4797
  189SAPI    HX21788   2.658   2.203   6.900  1.2235 -0.0638 -0.4771
  189SAPI    HY21789   2.504   2.116   6.851 -0.1949 -0.4552 -1.3850
  189SAPI   O3121790   2.685   2.050   6.758 -0.1400  0.3872  0.5197
  189SAPI   C3121791   2.756   2.142   6.684 -0.5687  0.1835 -0.0032
  189SAPI   O3221792   2.786   2.253   6.723  0.3049 -0.1781 -0.4841
  189SAPI   C3221793   2.810   2.061   6.564 -0.2741 -0.1166  0.0571
  189SAPI   H2X21794   2.726   2.003   6.519  1.3243 -0.4703 -2.6680
  189SAPI   H2Y21795   2.883   1.984   6.597  0.5818  0.5482 -0.2487
  189SAPI   C2321796   3.013   1.861   6.889 -0.0963 -0.1781 -0.2422
  189SAPI   H3R21797   3.124   1.862   6.897 -0.1799  0.1997  1.2952
  189SAPI   H3S21798   2.982   1.952   6.834  0.0421 -0.1426 -0.2614
  189SAPI   C2421799   2.966   1.734   6.808 -0.6204 -0.0373  0.2398
  189SAPI   H4R21800   2.859   1.752   6.781 -0.3999  2.0743  0.5854
  189SAPI   H4S21801   2.975   1.642   6.869  1.4712 -0.8241 -1.1468
  189SAPI   C2521802   3.041   1.728   6.679 -0.1191  0.2186  0.9272
  189SAPI   H5R21803   2.993   1.766   6.588  0.4030  2.1618  1.4228
  189SAPI   C2621804   3.158   1.662   6.660 -0.5888  0.0320  0.2390
  189SAPI   H6R21805   3.196   1.647   6.558 -1.0830 -0.9926  0.1962
  189SAPI   C2721806   3.229   1.586   6.765  0.6436 -0.0923  0.2841
  189SAPI   H7R21807   3.196   1.606   6.869 -0.5433  1.1086 -0.2995
  189SAPI   H7S21808   3.336   1.616   6.758  1.1785 -1.9937 -0.6189
  189SAPI   C2821809   3.204   1.441   6.734  0.4513  0.1509 -0.0700
  189SAPI   H8R21810   3.118   1.390   6.778  0.6879 -0.6052 -0.4635
  189SAPI   C2921811   3.295   1.353   6.681  0.5536 -0.1098  0.0356
  189SAPI   H9R21812   3.258   1.252   6.658  1.2940 -0.4482  0.2867
  189SAPI  C21021813   3.434   1.389   6.621 -0.7326  0.2903 -0.0555
  189SAPI  H10R21814   3.480   1.465   6.687 -1.1299  0.9290 -0.4958
  189SAPI  H10S21815   3.422   1.441   6.523 -0.9246 -1.1814 -0.8346
  189SAPI  C21121816   3.524   1.265   6.618 -0.7343  0.1645  0.5621
  189SAPI  H11R21817   3.576   1.227   6.707  0.9931  0.0144 -0.4614
  189SAPI  C21221818   3.549   1.195   6.504 -0.7454  0.0627 -0.0841
  189SAPI  H12R21819   3.614   1.108   6.519  0.7354  1.5426  3.0842
  189SAPI  C21321820   3.502   1.218   6.366  0.7691  0.1457  0.3347
  189SAPI  H13R21821   3.542   1.132   6.308  0.0216 -2.7424  3.6807
  189SAPI  H13S21822   3.545   1.310   6.323  2.6245 -0.7474  0.1873
  189SAPI  C21421823   3.352   1.217   6.357 -0.0250  0.3022  0.0967
  189SAPI  H14R21824   3.313   1.133   6.416 -1.7666 -0.1782 -1.6193
  189SAPI  C21521825   3.273   1.295   6.279 -0.5608  0.1008 -0.8388
  189SAPI  H15R21826   3.165   1.281   6.293 -0.7065 -0.4910 -2.4229
  189SAPI  C21621827   3.316   1.394   6.178 -0.1474  0.0522  0.6177
  189SAPI  H16R21828   3.413   1.363   6.134 -0.4542  0.4277 -0.3556
  189SAPI  H16S21829   3.332   1.495   6.220 -1.5435  0.8283 -0.6161
  189SAPI  C21721830   3.216   1.407   6.065 -0.1260  0.6055 -0.1248
  189SAPI  H17R21831   3.254   1.479   5.990  0.4532 -0.3448 -0.7727
  189SAPI  H17S21832   3.116   1.435   6.105 -0.4891  0.5958 -1.0082
  189SAPI  C21821833   3.205   1.269   5.987 -0.1376  0.2107 -0.6018
  189SAPI  H18R21834   3.214   1.179   6.051  2.0323 -0.6120 -1.9718
  189SAPI  H18S21835   3.296   1.261   5.924 -0.7654 -1.6358 -1.3318
  189SAPI  C21921836   3.093   1.274   5.889 -1.0980  0.1166  0.2079
  189SAPI  H19R21837   3.120   1.356   5.818 -3.0644  1.1855  0.6398
  189SAPI  H19S21838   2.996   1.301   5.935 -0.4623  1.9854  0.5580
  189SAPI  C22021839   3.068   1.147   5.807 -0.4671  0.8573 -0.8429
  189SAPI  H20R21840   3.167   1.102   5.784 -0.7184 -1.4532  1.9627
  189SAPI  H20S21841   3.007   1.170   5.717  1.2778  0.2729 -2.2260
  189SAPI  H20T21842   3.011   1.075   5.869  2.0946  0.1198  0.7853
  189SAPI   C3321843   2.873   2.143   6.457  0.6358 -0.1490 -0.0927
  189SAPI   H3X21844   2.956   2.196   6.507 -0.0833  0.1994  0.7681
  189SAPI   H3Y21845   2.809   2.230   6.428  0.5440  0.5563  2.0116
  189SAPI   C3421846   2.911   2.061   6.333  0.2457 -0.2168  0.2588
  189SAPI   H4X21847   2.919   2.134   6.249  0.6665  0.6659  1.0552
  189SAPI   H4Y21848   2.827   2.001   6.293  1.1558  0.0134 -2.1793
  189SAPI   C3521849   3.040   1.974   6.354  0.5073 -0.1478 -0.3960
  189SAPI   H5X21850   3.043   1.926   6.454  1.0792 -3.2372 -1.7890
  189SAPI   H5Y21851   3.130   2.039   6.348 -0.5282  1.4509  0.5574
  189SAPI   C3621852   3.056   1.862   6.257 -0.1287 -0.0842 -0.8921
  189SAPI   H6X21853   2.991   1.774   6.278  1.2036 -0.8786  0.0542
  189SAPI   H6Y21854   3.158   1.822   6.272  0.8693  1.5118 -2.9638
  189SAPI   C3721855   3.035   1.902   6.114 -0.3468  0.1890 -0.1346
  189SAPI   H7X21856   3.106   1.981   6.080 -0.4576 -0.1993 -1.2908
  189SAPI   H7Y21857   2.935   1.949   6.102  0.2621  1.5081 -0.2810
  189SAPI   C3821858   3.046   1.792   6.013  0.1987  0.0542  0.0352
  189SAPI   H8X21859   2.951   1.733   6.010  0.4742 -0.3615 -1.6815
  189SAPI   H8Y21860   3.123   1.716   6.040 -0.9857 -1.7871 -1.4517
  189SAPI   C3921861   3.082   1.826   5.871 -0.3957 -0.0438  0.4240
  189SAPI   H9X21862   3.156   1.905   5.848 -0.8815  0.6108  1.0672
  189SAPI   H9Y21863   2.982   1.843   5.825  0.1466 -1.2959 -1.3476
  189SAPI  C31021864   3.112   1.701   5.775  0.3114 -0.4265  0.0336
  189SAPI  H10X21865   3.056   1.617   5.822  1.2333 -0.7086  0.6587
  189SAPI  H10Y21866   3.223   1.691   5.781  0.8767  4.1992  1.8157
  189SAPI  C31121867   3.083   1.730   5.627 -0.5099  0.4042  0.1306
  189SAPI  H11X21868   3.133   1.825   5.598 -0.5688  0.7460  1.1184
  189SAPI  H11Y21869   2.973   1.734   5.617 -0.6123 -0.9188  0.4702
  189SAPI  C31221870   3.135   1.622   5.530 -0.4268 -0.0204 -0.6899
  189SAPI  H12X21871   3.093   1.524   5.561 -0.7538  0.2381 -0.3108
  189SAPI  H12Y21872   3.246   1.619   5.520 -0.3174 -2.1396  0.5427
  189SAPI  C31321873   3.091   1.653   5.388  0.3127 -0.1071  0.5570
  189SAPI  H13X21874   3.127   1.754   5.359  1.5390  0.2457  3.0219
  189SAPI  H13Y21875   2.980   1.661   5.391  0.2503 -0.6065 -0.1683
  189SAPI  C31421876   3.144   1.551   5.285  0.4285 -0.1209 -0.3192
  189SAPI  H14X21877   3.105   1.454   5.325 -2.8145  0.2516 -2.2383
  189SAPI  H14Y21878   3.255   1.542   5.284  0.4443 -1.7099  2.6259
  189SAPI  C31521879   3.096   1.573   5.139  0.2276 -0.4547 -0.0969
  189SAPI  H15X21880   3.065   1.679   5.133 -0.2848 -0.6206 -0.4353
  189SAPI  H15Y21881   3.010   1.503   5.134 -1.6716  1.7966 -0.5915
  189SAPI  C31621882   3.199   1.552   5.027 -0.0899  0.2352 -0.1403
  189SAPI  H16X21883   3.291   1.613   5.043  0.8293 -0.8818 -0.9229
  189SAPI  H16Y21884   3.142   1.599   4.944 -1.0475  0.4820  0.6542
  189SAPI  C31721885   3.226   1.404   5.003  0.1614  0.0723  0.6362
  189SAPI  H17X21886   3.131   1.361   4.965  0.1790  1.2757 -0.8814
  189SAPI  H17Y21887   3.253   1.354   5.098 -1.6758 -1.1918  0.5676
  189SAPI  C31821888   3.329   1.381   4.893 -0.5234  0.2961  0.0318
  189SAPI  H18X21889   3.304   1.429   4.796 -0.6293 -0.2946 -0.2384
  189SAPI  H18Y21890   3.353   1.274   4.873  0.5386  0.2541  1.3552
  189SAPI  H18Z21891   3.429   1.420   4.922  0.0726 -1.7286  0.8854
  190SAPI   C1221892   0.505   6.025   7.225 -0.0121 -0.2572 -0.1993
  190SAPI    H221893   0.580   6.020   7.307 -1.9031 -1.2014  1.5584
  190SAPI    O221894   0.391   5.953   7.280 -0.3855 -0.2931 -0.4854
  190SAPI   HO221895   0.421   5.867   7.311  0.3815 -0.2214 -0.9978
  190SAPI   C1321896   0.494   6.176   7.213  0.2954 -0.5349  0.1564
  190SAPI    H321897   0.597   6.211   7.190 -0.4026  3.0301  1.8330
  190SAPI    O321898   0.457   6.244   7.336  0.0858 -0.1075 -0.3544
  190SAPI   HO321899   0.371   6.214   7.367 -0.6210  2.7500  0.7960
  190SAPI   C1421900   0.397   6.210   7.101 -0.1050  0.8170  0.2827
  190SAPI    H421901   0.298   6.219   7.149 -1.4594 -2.7837 -1.4293
  190SAPI    O421902   0.416   6.344   7.050 -0.2941 -0.1393 -0.1426
  190SAPI   HO421903   0.344   6.401   7.078 -0.6454 -0.3028 -0.7073
  190SAPI   C1521904   0.385   6.109   6.984 -0.5614 -0.1957  0.5233
  190SAPI    H521905   0.432   6.154   6.894 -0.4126  1.2601  1.3050
  190SAPI    O521906   0.252   6.110   6.942  0.5615  0.1210  0.1119
  190SAPI   HO521907   0.227   6.203   6.941 -0.8984 -0.2410 -0.3708
  190SAPI   C1621908   0.449   5.968   6.990 -0.2191 -0.4456  0.1049
  190SAPI    H621909   0.374   5.900   7.037 -0.6800  0.0044  0.0354
  190SAPI    O621910   0.497   5.928   6.858  0.5239  0.0943  0.1606
  190SAPI   HO621911   0.569   5.867   6.876  1.4690  1.2010  0.2644
  190SAPI   C1121912   0.554   5.966   7.095 -0.2845  0.0166 -0.6702
  190SAPI    H121913   0.641   6.028   7.065  1.2931 -1.7313  0.1312
  190SAPI     P21914   0.747   5.780   7.102  0.1931  0.1090 -0.0832
  190SAPI   O1321915   0.780   5.661   7.186 -0.0286 -0.0333  0.1969
  190SAPI   O1421916   0.828   5.900   7.120  0.3613  0.9685  0.0797
  190SAPI   O1221917   0.587   5.825   7.130 -0.4691 -0.0934  0.6946
  190SAPI   O1121918   0.743   5.751   6.951  0.2851  0.2617  0.7758
  190SAPI    C121919   0.650   5.645   6.910 -0.4319 -0.5312 -0.1439
  190SAPI    HA21920   0.628   5.565   6.983 -1.0375 -0.0407  0.2195
  190SAPI    HB21921   0.551   5.691   6.889  1.1947  3.2368 -0.5290
  190SAPI    C221922   0.710   5.580   6.784 -0.6987  0.3849  0.1875
  190SAPI    HS21923   0.816   5.551   6.795 -0.8026 -0.1730 -0.2387
  190SAPI   O2121924   0.681   5.672   6.670 -0.3090  0.0114  0.1251
  190SAPI   C2121925   0.785   5.739   6.630 -0.0758  0.1267  0.2063
  190SAPI   O2221926   0.898   5.731   6.677 -0.0414 -0.3618 -0.0120
  190SAPI   C2221927   0.745   5.826   6.522  0.2294  0.2265 -0.0491
  190SAPI   H2R21928   0.691   5.765   6.446  1.1441  1.8068 -2.0616
  190SAPI   H2S21929   0.689   5.919   6.544  1.3431  0.9780 -0.3472
  190SAPI    C321930   0.639   5.447   6.752  0.8413 -0.3344  0.1686
  190SAPI    HX21931   0.530   5.463   6.766  0.5848 -1.4823 -0.4045
  190SAPI    HY21932   0.663   5.364   6.821  0.1083 -0.5313  0.1943
  190SAPI   O3121933   0.659   5.402   6.608  1.1144 -0.2523 -0.2066
  190SAPI   C3121934   0.783   5.356   6.584  0.0557  0.1305  0.3568
  190SAPI   O3221935   0.870   5.334   6.664  0.5017 -0.2912 -0.0245
  190SAPI   C3221936   0.801   5.328   6.440 -0.6056 -0.5787 -0.4252
  190SAPI   H2X21937   0.711   5.277   6.399  1.2341 -2.8731 -1.8422
  190SAPI   H2Y21938   0.885   5.256   6.439  1.9526  2.0441  2.6212
  190SAPI   C2321939   0.870   5.863   6.439  0.3455  0.6520  0.3104
  190SAPI   H3R21940   0.841   5.863   6.332  0.4628 -0.0695  0.2704
  190SAPI   H3S21941   0.945   5.781   6.446 -0.7858 -0.4519 -0.0078
  190SAPI   C2421942   0.920   6.003   6.481  0.3667 -0.4416 -0.2000
  190SAPI   H4R21943   1.021   6.006   6.436  0.3056  0.4470 -0.2980
  190SAPI   H4S21944   0.956   6.004   6.586  0.2291 -2.2060 -0.1032
  190SAPI   C2521945   0.844   6.131   6.439  0.9450 -0.4539 -0.3613
  190SAPI   H5R21946   0.794   6.182   6.523  0.8398 -1.4338  0.1859
  190SAPI   C2621947   0.842   6.185   6.320 -0.4585  0.3219  0.7441
  190SAPI   H6R21948   0.776   6.273   6.317 -1.9373 -0.6282  2.9465
  190SAPI   C2721949   0.906   6.143   6.192  0.1954  1.2238 -0.6953
  190SAPI   H7R21950   0.825   6.139   6.116  0.3044  2.9288 -0.9235
  190SAPI   H7S21951   0.942   6.038   6.184 -2.1209  0.1277  1.7278
  190SAPI   C2821952   1.023   6.227   6.144  1.0264 -0.3089  0.2540
  190SAPI   H8R21953   1.118   6.246   6.197  2.0594  2.1229 -2.2435
  190SAPI   C2921954   1.022   6.297   6.024  0.1175 -0.5571 -0.5966
  190SAPI   H9R21955   1.114   6.352   6.000 -0.5007 -0.2675 -2.4466
  190SAPI  C21021956   0.924   6.308   5.916 -0.0577 -0.7080 -0.3759
  190SAPI  H10R21957   0.824   6.290   5.963 -0.1706 -1.0411 -0.7393
  190SAPI  H10S21958   0.943   6.225   5.845  2.8002  0.7241 -1.4113
  190SAPI  C21121959   0.921   6.439   5.835  0.2782  0.4203 -0.1218
  190SAPI  H11R21960   0.982   6.519   5.880  0.6453  0.6093 -0.9465
  190SAPI  C21221961   0.888   6.457   5.708  0.0094  0.2290  0.4223
  190SAPI  H12R21962   0.905   6.558   5.668 -1.2064  0.7260  1.1050
  190SAPI  C21321963   0.845   6.352   5.608 -0.0765  0.4577  0.0146
  190SAPI  H13R21964   0.775   6.398   5.534 -0.5501 -2.1493 -1.2865
  190SAPI  H13S21965   0.781   6.282   5.667  1.5894 -0.3275  0.9414
  190SAPI  C21421966   0.956   6.272   5.531  0.1477  0.2368 -0.5221
  190SAPI  H14R21967   1.029   6.337   5.480  1.8394 -0.6101  0.7211
  190SAPI  C21521968   0.963   6.138   5.515  0.6129  0.5802 -0.4446
  190SAPI  H15R21969   1.047   6.094   5.459 -1.2020 -1.2584 -1.8714
  190SAPI  C21621970   0.860   6.034   5.553  0.1193 -0.1783 -0.4237
  190SAPI  H16R21971   0.785   6.090   5.612 -0.0656  2.6715 -3.1189
  190SAPI  H16S21972   0.892   5.945   5.612 -1.0502 -0.2289  0.1600
  190SAPI  C21721973   0.804   5.969   5.430 -0.4995 -0.8811  0.2584
  190SAPI  H17R21974   0.882   5.966   5.351 -1.0900  2.6387 -0.6669
  190SAPI  H17S21975   0.729   6.044   5.397 -0.9019 -1.8812 -1.2337
  190SAPI  C21821976   0.749   5.834   5.453  0.1059 -0.3146  0.7351
  190SAPI  H18R21977   0.652   5.853   5.504  0.0646 -0.2904  0.6455
  190SAPI  H18S21978   0.804   5.757   5.513  0.5119 -1.8693 -1.5069
  190SAPI  C21921979   0.725   5.754   5.322  0.6745  0.0859 -0.8389
  190SAPI  H19R21980   0.810   5.772   5.252  1.0579 -0.7337 -0.5901
  190SAPI  H19S21981   0.636   5.802   5.277 -1.2371 -1.6636  0.9270
  190SAPI  C22021982   0.694   5.606   5.338 -0.2461 -0.3950 -0.2407
  190SAPI  H20R21983   0.629   5.592   5.427 -2.1091 -2.3279 -1.8163
  190SAPI  H20S21984   0.788   5.552   5.362 -0.2479 -0.2717  0.0530
  190SAPI  H20T21985   0.634   5.573   5.251  0.7913 -0.2126 -1.0595
  190SAPI   C3321986   0.848   5.445   6.359  0.1465  0.1406 -0.6740
  190SAPI   H3X21987   0.919   5.507   6.418 -0.8843  1.8501 -1.1348
  190SAPI   H3Y21988   0.762   5.502   6.317 -1.0426 -0.5594  0.6894
  190SAPI   C3421989   0.923   5.406   6.235  0.4365 -0.5246  0.0714
  190SAPI   H4X21990   1.016   5.351   6.261 -0.3221 -1.6737  0.4541
  190SAPI   H4Y21991   0.945   5.506   6.191  0.5123 -0.3244  0.5575
  190SAPI   C3521992   0.842   5.322   6.135 -0.4677 -0.6060  0.0841
  190SAPI   H5X21993   0.740   5.366   6.129 -0.8882 -1.7852 -2.1885
  190SAPI   H5Y21994   0.833   5.216   6.167 -1.8681 -0.2706  0.8703
  190SAPI   C3621995   0.895   5.345   5.987  0.7354  0.1328  0.4794
  190SAPI   H6X21996   1.006   5.346   5.986  0.7704  1.0615  2.1614
  190SAPI   H6Y21997   0.867   5.447   5.953  1.6779  0.0664 -0.5568
  190SAPI   C3721998   0.832   5.256   5.888 -0.4083 -0.0384 -1.2417
  190SAPI   H7X21999   0.723   5.262   5.909 -0.3265  2.9339 -1.3591
  190SAPI   H7Y22000   0.871   5.152   5.895  0.0613  0.1869 -0.4811
  190SAPI   C3822001   0.863   5.288   5.743 -0.3312  0.2814  0.0447
  190SAPI   H8X22002   0.969   5.286   5.709 -0.3753  1.5943 -0.2490
  190SAPI   H8Y22003   0.847   5.398   5.739  0.1584  0.4916  2.3678
  190SAPI   C3922004   0.775   5.215   5.644  0.1851 -0.4680 -0.2964
  190SAPI   H9X22005   0.738   5.274   5.557 -4.5611 -1.4550  0.7648
  190SAPI   H9Y22006   0.682   5.191   5.701  0.6518 -2.1100 -0.1926
  190SAPI  C31022007   0.840   5.090   5.581 -0.6054  0.1187 -0.3815
  190SAPI  H10X22008   0.919   5.129   5.514 -1.7489  2.1039 -0.6554
  190SAPI  H10Y22009   0.764   5.041   5.517 -1.6522 -1.0366  1.6562
  190SAPI  C31122010   0.898   4.982   5.681 -0.6843 -0.1250  0.2632
  190SAPI  H11X22011   0.854   4.977   5.782 -0.4850 -0.4997  0.3325
  190SAPI  H11Y22012   1.004   5.008   5.704 -0.1910  2.0168 -3.5318
  190SAPI  C31222013   0.911   4.838   5.629 -0.6329 -0.5494 -0.4214
  190SAPI  H12X22014   0.977   4.849   5.541  0.3256  0.1704  0.3614
  190SAPI  H12Y22015   0.808   4.798   5.612 -0.4620 -2.1671  1.7557
  190SAPI  C31322016   0.979   4.746   5.733  0.5514  0.1693 -0.6905
  190SAPI  H13X22017   1.059   4.803   5.785  1.6213 -0.3192 -1.7633
  190SAPI  H13Y22018   1.012   4.654   5.682 -0.5711 -0.7037  0.1025
  190SAPI  C31422019   0.868   4.712   5.836  0.0375  0.4074  0.2242
  190SAPI  H14X22020   0.783   4.656   5.790 -0.2160  0.4374  0.6472
  190SAPI  H14Y22021   0.819   4.797   5.888 -1.3634  0.3187 -0.8776
  190SAPI  C31522022   0.929   4.623   5.943  0.0261  0.3496  0.1614
  190SAPI  H15X22023   1.003   4.685   5.998 -1.4841  0.3695  2.3013
  190SAPI  H15Y22024   0.986   4.543   5.891  0.9366  0.2307  1.3000
  190SAPI  C31622025   0.831   4.564   6.044  0.1150 -0.3163 -0.1611
  190SAPI  H16X22026   0.898   4.500   6.105  1.1871  1.3483  0.4796
  190SAPI  H16Y22027   0.763   4.501   5.983 -0.9909 -0.5122  1.2030
  190SAPI  C31722028   0.765   4.664   6.133 -0.4853 -0.3280  0.7773
  190SAPI  H17X22029   0.673   4.622   6.179 -1.1512  1.2852  0.9894
  190SAPI  H17Y22030   0.743   4.754   6.072  0.7570 -0.9719 -0.6894
  190SAPI  C31822031   0.855   4.697   6.256  0.0161 -0.0683  0.3819
  190SAPI  H18X22032   0.956   4.718   6.215 -1.1056  0.7260 -2.1442
  190SAPI  H18Y22033   0.853   4.613   6.329 -1.9826 -0.3304  0.0714
  190SAPI  H18Z22034   0.808   4.775   6.321 -1.9901 -1.1877  0.3663
  191SAPI   C1222035   5.281   6.723   2.394  1.1929  0.5493 -0.3314
  191SAPI    H222036   5.305   6.701   2.501 -2.9296 -0.7807  0.5159
  191SAPI    O222037   5.141   6.742   2.393  0.6954  0.5246 -0.2629
  191SAPI   HO222038   5.103   6.760   2.479 -1.6120 -2.3182 -0.5497
  191SAPI   C1322039   5.348   6.854   2.366  0.0341 -0.5423  0.1679
  191SAPI    H322040   5.456   6.832   2.350  0.3328  0.8236  0.2139
  191SAPI    O322041   5.338   6.954   2.464  0.7275 -0.5883 -0.5259
  191SAPI   HO322042   5.412   7.015   2.462  0.2707 -0.0235 -0.3594
  191SAPI   C1422043   5.292   6.900   2.225 -0.1222  0.1597 -0.6398
  191SAPI    H422044   5.185   6.923   2.240 -0.8799 -1.5789 -2.8929
  191SAPI    O422045   5.360   7.019   2.179 -0.5041  0.6893  0.3600
  191SAPI   HO422046   5.291   7.084   2.166  0.0257  0.9861 -1.2759
  191SAPI   C1522047   5.284   6.785   2.121  0.0566  0.4578  0.7719
  191SAPI    H522048   5.390   6.790   2.088  0.2651 -1.1496  1.0909
  191SAPI    O522049   5.198   6.812   2.011  0.2823 -0.5632 -0.2321
  191SAPI   HO522050   5.249   6.836   1.934  0.9510 -0.7517  0.1423
  191SAPI   C1622051   5.271   6.639   2.168 -0.1964 -0.3055  0.0519
  191SAPI    H622052   5.163   6.615   2.171 -0.8765  2.4759  0.0757
  191SAPI    O622053   5.322   6.546   2.072 -0.6957  0.4962  0.6722
  191SAPI   HO622054   5.337   6.462   2.116 -3.7180 -0.1511  0.6923
  191SAPI   C1122055   5.330   6.622   2.305 -0.0695  0.7036 -0.3040
  191SAPI    H122056   5.441   6.621   2.307 -0.0745 -0.6582  0.9070
  191SAPI     P22057   5.385   6.357   2.359  0.0842 -0.4056 -0.1491
  191SAPI   O1322058   5.462   6.356   2.235  0.0867 -0.0678  0.2679
  191SAPI   O1422059   5.299   6.241   2.393 -0.4526 -0.1126  0.3319
  191SAPI   O1222060   5.286   6.501   2.361 -0.2234  0.3200  0.0232
  191SAPI   O1122061   5.491   6.391   2.478  0.5598 -0.1483  0.4277
  191SAPI    C122062   5.434   6.427   2.608 -0.0475 -0.2124 -0.4043
  191SAPI    HA22063   5.374   6.520   2.600 -0.6472 -0.4338  1.2113
  191SAPI    HB22064   5.372   6.347   2.654 -0.1050  1.2612  2.2416
  191SAPI    C222065   5.542   6.471   2.710  0.2215  0.3387 -0.4099
  191SAPI    HS22066   5.490   6.511   2.799  0.1915  1.0887 -0.7582
  191SAPI   O2122067   5.646   6.555   2.668 -0.5269 -0.0563 -0.3702
  191SAPI   C2122068   5.615   6.679   2.674  0.3371 -0.2728 -0.0304
  191SAPI   O2222069   5.507   6.732   2.706  0.4408 -0.0401  0.2543
  191SAPI   C2222070   5.742   6.759   2.657  0.1522  0.0542  0.3072
  191SAPI   H2R22071   5.824   6.694   2.694  0.0060 -0.7009 -0.6630
  191SAPI   H2S22072   5.749   6.779   2.548  1.9418  1.5691  0.6461
  191SAPI    C322073   5.610   6.345   2.760 -0.3475  0.3991  0.5193
  191SAPI    HX22074   5.668   6.293   2.681 -3.0030 -0.9363 -0.6789
  191SAPI    HY22075   5.528   6.278   2.794 -0.6637  1.0707  1.1146
  191SAPI   O3122076   5.678   6.376   2.880  0.2871  0.6794 -0.6407
  191SAPI   C3122077   5.806   6.343   2.886 -0.4175  0.4466 -0.2856
  191SAPI   O3222078   5.871   6.274   2.811  0.1692  0.0802  0.3785
  191SAPI   C3222079   5.869   6.423   3.009  0.5477  0.7138  0.2278
  191SAPI   H2X22080   5.829   6.526   3.002 -1.3716  0.0713  0.9875
  191SAPI   H2Y22081   5.974   6.431   2.973  0.5510 -0.5909 -0.1124
  191SAPI   C2322082   5.757   6.890   2.746  0.7288  0.5218  0.9419
  191SAPI   H3R22083   5.730   6.867   2.852 -0.3327  0.8516  0.7548
  191SAPI   H3S22084   5.680   6.958   2.703  0.7194 -1.3247 -2.2299
  191SAPI   C2422085   5.897   6.958   2.742  0.1422  0.3462  0.1389
  191SAPI   H4R22086   5.895   7.053   2.800 -0.9007  0.7133 -0.4801
  191SAPI   H4S22087   5.927   6.998   2.642 -0.4847 -0.2470 -0.2911
  191SAPI   C2522088   6.009   6.858   2.786  0.2955 -0.3931  0.3833
  191SAPI   H5R22089   6.035   6.780   2.714  0.9260 -1.3711  1.6249
  191SAPI   C2622090   6.067   6.855   2.908 -0.3856 -0.4419 -0.1166
  191SAPI   H6R22091   6.149   6.781   2.919 -1.7629 -2.1895 -1.0020
  191SAPI   C2722092   6.028   6.948   3.026 -0.6485 -0.3062  0.3559
  191SAPI   H7R22093   6.011   7.053   2.992 -2.0409 -0.2634  1.1325
  191SAPI   H7S22094   6.122   6.956   3.085 -1.0659 -2.4670  1.3908
  191SAPI   C2822095   5.907   6.915   3.105 -0.2292 -0.0525 -0.4204
  191SAPI   H8R22096   5.815   6.892   3.048 -1.0949 -1.1860  1.3529
  191SAPI   C2922097   5.891   6.914   3.233  0.2401 -0.4046 -0.1373
  191SAPI   H9R22098   5.788   6.905   3.270 -0.4251  3.6113 -0.6009
  191SAPI  C21022099   5.986   6.938   3.344 -0.5386 -0.5266 -0.1967
  191SAPI  H10R22100   5.968   7.036   3.394 -0.0265 -0.2643 -0.5201
  191SAPI  H10S22101   6.089   6.950   3.304  0.2584 -0.0274  1.8904
  191SAPI  C21122102   5.989   6.828   3.446 -0.1742  1.0681  0.4468
  191SAPI  H11R22103   6.036   6.737   3.407  0.4158  1.2960  0.6158
  191SAPI  C21222104   5.951   6.828   3.577  0.1338 -0.2133 -0.7776
  191SAPI  H12R22105   5.972   6.743   3.644 -0.3135 -0.2174 -0.6433
  191SAPI  C21322106   5.887   6.951   3.638 -0.0993 -0.5082 -0.6995
  191SAPI  H13R22107   5.779   6.945   3.616  0.0756 -1.9774 -1.2731
  191SAPI  H13S22108   5.939   7.041   3.598  1.3199 -0.4135  1.1807
  191SAPI  C21422109   5.886   6.950   3.790 -0.7055 -0.3112 -0.9486
  191SAPI  H14R22110   5.801   6.899   3.838 -0.0364 -1.6254 -1.0937
  191SAPI  C21522111   5.979   7.001   3.871 -0.5453 -0.2964  0.5670
  191SAPI  H15R22112   5.961   7.003   3.979 -0.7038  0.0248  0.5356
  191SAPI  C21622113   6.106   7.069   3.824  0.2269 -0.5123  0.4274
  191SAPI  H16R22114   6.083   7.167   3.776 -0.7091 -1.4622 -1.1368
  191SAPI  H16S22115   6.158   7.011   3.745  2.5787  1.3024  0.4993
  191SAPI  C21722116   6.202   7.100   3.938  0.0015 -0.4342  0.0363
  191SAPI  H17R22117   6.296   7.043   3.920  0.7236  0.9640 -0.7986
  191SAPI  H17S22118   6.171   7.059   4.036  1.2067 -1.1676  0.1176
  191SAPI  C21822119   6.231   7.251   3.945  0.0545  0.1066 -0.0082
  191SAPI  H18R22120   6.134   7.305   3.946 -1.0865 -1.8302  0.6951
  191SAPI  H18S22121   6.286   7.263   3.850  0.4485  0.3539  0.2486
  191SAPI  C21922122   6.325   7.290   4.052 -0.2145  0.2553 -0.4475
  191SAPI  H19R22123   6.359   7.390   4.018  1.6050  0.4661  1.7141
  191SAPI  H19S22124   6.411   7.219   4.057  1.0337  1.7605  0.3311
  191SAPI  C22022125   6.265   7.306   4.192 -0.0270 -0.4182 -0.6697
  191SAPI  H20R22126   6.220   7.208   4.220  0.8041 -0.3465  0.9999
  191SAPI  H20S22127   6.194   7.391   4.181  3.3257  2.3851 -2.3309
  191SAPI  H20T22128   6.337   7.331   4.272 -0.6822 -2.0108  0.4828
  191SAPI   C3322129   5.853   6.353   3.148 -0.5245 -0.6078 -0.0362
  191SAPI   H3X22130   5.934   6.278   3.160  1.5068  1.2621 -1.3135
  191SAPI   H3Y22131   5.750   6.310   3.156 -1.7873  2.0737 -0.6972
  191SAPI   C3422132   5.878   6.456   3.256  0.1525 -0.3466  0.5364
  191SAPI   H4X22133   5.808   6.541   3.250  1.7097  0.9969  0.5916
  191SAPI   H4Y22134   5.980   6.494   3.235  0.3103  1.0576  3.3090
  191SAPI   C3522135   5.871   6.386   3.389 -0.1809  0.4753 -0.3334
  191SAPI   H5X22136   5.914   6.284   3.401  0.2003  0.1063 -3.7236
  191SAPI   H5Y22137   5.760   6.372   3.390 -0.5426  2.8053 -1.2419
  191SAPI   C3622138   5.902   6.476   3.513  0.0230 -0.0867 -0.4260
  191SAPI   H6X22139   5.841   6.569   3.507 -2.0739 -1.0598  2.9875
  191SAPI   H6Y22140   6.009   6.503   3.502 -0.3470  0.8153 -2.2968
  191SAPI   C3722141   5.857   6.402   3.642  0.2847 -0.1343 -0.0021
  191SAPI   H7X22142   5.914   6.306   3.643 -0.9612 -0.9052 -0.9135
  191SAPI   H7Y22143   5.751   6.374   3.630  0.0383  1.1213 -0.9321
  191SAPI   C3822144   5.865   6.496   3.764 -0.0290  0.9656 -0.5098
  191SAPI   H8X22145   5.818   6.591   3.731 -1.5179  0.2884 -0.4065
  191SAPI   H8Y22146   5.973   6.519   3.782  0.0892  1.2038 -1.4554
  191SAPI   C3922147   5.792   6.440   3.883 -0.7505 -0.2986 -0.5271
  191SAPI   H9X22148   5.686   6.409   3.868 -1.0879  0.6025 -0.0578
  191SAPI   H9Y22149   5.799   6.513   3.966  0.0657 -1.2568  0.2688
  191SAPI  C31022150   5.872   6.312   3.938  0.1927 -0.2411  0.1058
  191SAPI  H10X22151   5.981   6.333   3.937  0.2515 -0.1105 -3.0138
  191SAPI  H10Y22152   5.852   6.231   3.865  0.6529 -0.8395  0.6357
  191SAPI  C31122153   5.829   6.261   4.084 -0.3734 -0.3078  0.1297
  191SAPI  H11X22154   5.871   6.159   4.095  0.1141  0.0373  1.7527
  191SAPI  H11Y22155   5.719   6.255   4.102 -0.4553  0.2551 -0.1740
  191SAPI  C31222156   5.900   6.340   4.199 -0.6579  0.4206 -0.2027
  191SAPI  H12X22157   5.856   6.442   4.191  1.0742  1.4071  1.6956
  191SAPI  H12Y22158   6.010   6.350   4.190 -0.3691  0.4571  2.5753
  191SAPI  C31322159   5.882   6.289   4.340 -1.0621 -0.2979 -0.0694
  191SAPI  H13X22160   5.926   6.187   4.339 -0.5525 -0.1164 -2.4940
  191SAPI  H13Y22161   5.774   6.289   4.365 -1.6023 -0.8738 -2.2095
  191SAPI  C31422162   5.945   6.377   4.442  0.4831 -0.2725 -0.3428
  191SAPI  H14X22163   5.908   6.478   4.415  1.6974  0.1087 -0.6179
  191SAPI  H14Y22164   6.055   6.393   4.435  0.5940 -0.1558  1.2247
  191SAPI  C31522165   5.908   6.344   4.584  0.4787  0.4345 -0.5275
  191SAPI  H15X22166   5.944   6.241   4.605  4.5236  1.6033 -0.7380
  191SAPI  H15Y22167   5.798   6.335   4.583  0.3266  1.9539 -0.9766
  191SAPI  C31622168   5.966   6.434   4.688  0.9549 -0.4172 -0.3049
  191SAPI  H16X22169   5.916   6.532   4.673 -1.3838 -1.4084  0.5315
  191SAPI  H16Y22170   6.076   6.437   4.668  0.9665 -0.9138 -0.3282
  191SAPI  C31722171   5.936   6.382   4.829 -0.4026  0.2489 -0.0177
  191SAPI  H17X22172   5.974   6.280   4.851 -0.5609  0.4533  1.2352
  191SAPI  H17Y22173   5.825   6.376   4.833 -0.5052  2.1820  1.5796
  191SAPI  C31822174   5.994   6.478   4.928  0.0767 -0.6179  0.4439
  191SAPI  H18X22175   5.970   6.445   5.032 -0.7447  0.0119  0.4616
  191SAPI  H18Y22176   5.961   6.584   4.932 -0.4819 -0.6820 -1.4718
  191SAPI  H18Z22177   6.104   6.486   4.921  0.0870 -0.6803  0.5319
  192SAPI   C1222178   1.660   5.373   2.322  0.3288 -0.2491 -0.1298
  192SAPI    H222179   1.595   5.428   2.393  1.0867 -0.0890  0.4539
  192SAPI    O222180   1.566   5.275   2.266 -0.0071 -0.8008  0.1371
  192SAPI   HO222181   1.488   5.285   2.320  0.7669  0.7521  1.0410
  192SAPI   C1322182   1.708   5.474   2.221 -0.1715  0.4197  0.2122
  192SAPI    H322183   1.764   5.548   2.283 -0.4585 -0.1573  1.1864
  192SAPI    O322184   1.596   5.539   2.160 -0.5441 -0.1361 -0.0416
  192SAPI   HO322185   1.540   5.472   2.120 -0.3275  0.6559 -1.7567
  192SAPI   C1422186   1.802   5.413   2.120  0.1287  0.0308  0.0088
  192SAPI    H422187   1.743   5.351   2.049  1.3227 -1.6458  0.4226
  192SAPI    O422188   1.857   5.514   2.029 -0.3290  0.1626 -0.2026
  192SAPI   HO422189   1.788   5.564   1.984 -1.4826 -1.6111 -0.5226
  192SAPI   C1522190   1.920   5.331   2.179  1.1243 -1.0240 -0.2378
  192SAPI    H522191   1.997   5.410   2.194 -0.2364  0.6064 -1.5074
  192SAPI    O522192   1.991   5.246   2.092 -0.8332 -0.2070 -0.0789
  192SAPI   HO522193   2.080   5.235   2.126 -0.7709  1.2320  0.2920
  192SAPI   C1622194   1.893   5.260   2.313  0.3932  0.4670  0.5683
  192SAPI    H622195   1.851   5.160   2.291  1.1681  0.4794 -1.1148
  192SAPI    O622196   2.012   5.245   2.386 -0.2440  0.7367  0.0903
  192SAPI   HO622197   2.002   5.156   2.420 -0.6199  0.4491 -0.7363
  192SAPI   C1122198   1.774   5.317   2.402 -0.3309 -0.4337  0.6047
  192SAPI    H122199   1.819   5.408   2.448 -2.4067  0.9088  0.1641
  192SAPI     P22200   1.753   5.239   2.659  0.3944 -0.4641 -0.5967
  192SAPI   O1322201   1.880   5.306   2.700 -0.3250  0.2888 -0.0373
  192SAPI   O1422202   1.751   5.102   2.713 -0.2878  0.5279  0.5126
  192SAPI   O1222203   1.730   5.228   2.502  0.0399  0.8771  0.1174
  192SAPI   O1122204   1.640   5.328   2.721  0.0782 -0.5204 -0.0237
  192SAPI    C122205   1.512   5.269   2.750  0.1181  0.4410  0.4027
  192SAPI    HA22206   1.428   5.323   2.700 -1.7884 -0.8571  2.0152
  192SAPI    HB22207   1.500   5.166   2.710  0.0350  0.5301  0.1970
  192SAPI    C222208   1.473   5.266   2.901  0.4995 -0.7542  0.8178
  192SAPI    HS22209   1.363   5.248   2.900  0.2602  0.6367 -0.4355
  192SAPI   O2122210   1.501   5.391   2.964 -0.3910  0.5065  0.4514
  192SAPI   C2122211   1.422   5.492   2.930 -0.2909 -0.7880  0.4392
  192SAPI   O2222212   1.334   5.505   2.847 -0.4893  1.0036  0.2853
  192SAPI   C2222213   1.465   5.610   3.024  0.3991 -0.0596  0.2243
  192SAPI   H2R22214   1.470   5.572   3.128  3.7582  0.9485  0.5359
  192SAPI   H2S22215   1.568   5.643   3.001  0.5703 -0.2927  0.6585
  192SAPI    C322216   1.550   5.158   2.975 -0.3693 -1.1705 -0.4516
  192SAPI    HX22217   1.653   5.202   2.978 -0.6639 -0.3608 -1.4601
  192SAPI    HY22218   1.557   5.070   2.909  2.8067 -2.3766  1.2418
  192SAPI   O3122219   1.480   5.128   3.099  0.3139 -0.4460  0.3095
  192SAPI   C3122220   1.552   5.115   3.207  0.1804  0.5057 -0.8887
  192SAPI   O3222221   1.674   5.117   3.207 -0.0931 -0.5699  0.4321
  192SAPI   C3222222   1.471   5.066   3.326 -0.6574 -0.9648  0.8401
  192SAPI   H2X22223   1.418   4.972   3.300 -0.0039 -0.8993 -0.8645
  192SAPI   H2Y22224   1.396   5.147   3.338 -0.2597 -0.5906  0.8215
  192SAPI   C2322225   1.386   5.737   3.013 -0.3853  0.4305 -0.5743
  192SAPI   H3R22226   1.402   5.780   2.912  1.2819 -0.6436 -0.7981
  192SAPI   H3S22227   1.437   5.805   3.085 -2.5918  1.0299  0.5021
  192SAPI   C2422228   1.244   5.733   3.058 -0.0913 -0.0402  0.2975
  192SAPI   H4R22229   1.235   5.675   3.153 -1.4422 -0.1423  0.1328
  192SAPI   H4S22230   1.190   5.673   2.982 -1.4711 -0.4498  1.5489
  192SAPI   C2522231   1.179   5.875   3.065 -0.7139  0.3207  0.5663
  192SAPI   H5R22232   1.226   5.949   2.999 -0.2554  1.0475  1.6889
  192SAPI   C2622233   1.076   5.909   3.142  0.5215  0.0319 -0.5583
  192SAPI   H6R22234   1.038   6.011   3.132 -0.0644 -0.3252 -2.4611
  192SAPI   C2722235   0.998   5.828   3.242 -0.3232  0.0884  0.1825
  192SAPI   H7R22236   1.040   5.839   3.344  0.3414 -0.1633 -0.0573
  192SAPI   H7S22237   1.013   5.721   3.215  0.4009 -0.2387  1.7649
  192SAPI   C2822238   0.849   5.832   3.248  0.4453  0.8279  0.3864
  192SAPI   H8R22239   0.799   5.832   3.150 -0.9529  0.3625  1.0784
  192SAPI   C2922240   0.770   5.833   3.359 -0.7893 -0.0083  0.4383
  192SAPI   H9R22241   0.661   5.837   3.345 -0.4984  1.0054 -2.1020
  192SAPI  C21022242   0.804   5.849   3.504  0.5197  0.0044 -0.3358
  192SAPI  H10R22243   0.838   5.751   3.545  0.2823  0.1425  0.2047
  192SAPI  H10S22244   0.713   5.884   3.558  0.3464  2.9525 -2.2782
  192SAPI  C21122245   0.891   5.965   3.547 -0.1326  0.0026 -0.7497
  192SAPI  H11R22246   0.870   6.064   3.504 -1.5700  0.8216  1.6329
  192SAPI  C21222247   0.968   5.954   3.657 -0.2396 -0.2041 -0.0887
  192SAPI  H12R22248   1.010   6.047   3.697  1.4661 -1.3683  0.9588
  192SAPI  C21322249   0.989   5.832   3.744 -0.8687 -0.2820  0.0134
  192SAPI  H13R22250   0.997   5.747   3.673  0.6599  0.1017 -0.3215
  192SAPI  H13S22251   0.899   5.813   3.806  0.6722 -3.9488  1.3641
  192SAPI  C21422252   1.110   5.839   3.833 -0.3535  0.6998  0.8709
  192SAPI  H14R22253   1.200   5.887   3.794  0.2991 -1.4712 -0.4704
  192SAPI  C21522254   1.120   5.795   3.964 -0.6416  0.3822  0.5001
  192SAPI  H15R22255   1.214   5.787   4.020 -0.7739 -1.2533  0.5322
  192SAPI  C21622256   1.002   5.746   4.047  0.7129  0.6649  1.2188
  192SAPI  H16R22257   0.969   5.642   4.022 -5.5279  2.7609 -1.2427
  192SAPI  H16S22258   0.908   5.803   4.036  1.2133  1.4704  1.0358
  192SAPI  C21722259   1.031   5.739   4.201  0.0181  0.0607  0.6805
  192SAPI  H17R22260   1.133   5.702   4.225  0.1453 -0.9134 -1.2001
  192SAPI  H17S22261   0.961   5.661   4.237 -0.2426 -0.6947 -1.3333
  192SAPI  C21822262   1.007   5.873   4.274  0.6469  0.4735  0.6525
  192SAPI  H18R22263   0.901   5.904   4.265  0.5177  0.3063  1.4832
  192SAPI  H18S22264   1.080   5.954   4.250 -0.7437  1.6787  0.3290
  192SAPI  C21922265   1.031   5.848   4.419  0.0236 -0.1818  0.2439
  192SAPI  H19R22266   1.137   5.815   4.422  0.2750  0.3893 -1.4039
  192SAPI  H19S22267   0.967   5.767   4.460  0.0880 -0.6812 -0.6348
  192SAPI  C22022268   1.000   5.978   4.501 -0.5818  0.3330  0.2008
  192SAPI  H20R22269   1.058   6.069   4.473  2.1237 -0.7787  1.8016
  192SAPI  H20S22270   1.017   5.964   4.610 -0.5389  0.3943  0.2018
  192SAPI  H20T22271   0.894   6.005   4.483 -1.4892 -1.9909  1.5453
  192SAPI   C3322272   1.567   5.061   3.451 -0.5072 -0.1219 -0.1004
  192SAPI   H3X22273   1.642   5.138   3.477  0.3589 -0.9556 -0.0674
  192SAPI   H3Y22274   1.622   4.965   3.444  1.3661  0.7383  1.7658
  192SAPI   C3422275   1.493   5.075   3.587 -0.6810 -0.1081  0.4001
  192SAPI   H4X22276   1.405   5.007   3.583  1.2152 -2.6642 -1.1017
  192SAPI   H4Y22277   1.454   5.178   3.600 -2.3729 -0.2473 -2.6927
  192SAPI   C3522278   1.584   5.024   3.702 -0.3127 -0.4408 -0.0431
  192SAPI   H5X22279   1.669   5.094   3.717  1.7598 -2.6957 -0.6558
  192SAPI   H5Y22280   1.638   4.932   3.673  1.6383  0.1867  1.3755
  192SAPI   C3622281   1.522   4.997   3.838 -0.3972  0.1005 -0.3714
  192SAPI   H6X22282   1.452   4.911   3.845 -0.2550  0.0423  0.5559
  192SAPI   H6Y22283   1.478   5.090   3.879 -1.6457 -1.2759  1.6128
  192SAPI   C3722284   1.638   4.965   3.933  0.0124  0.3673  0.1625
  192SAPI   H7X22285   1.718   5.042   3.929  0.6711 -0.1956  1.7329
  192SAPI   H7Y22286   1.692   4.874   3.898 -1.4588 -0.1534 -0.8245
  192SAPI   C3822287   1.584   4.936   4.076 -0.2950  0.7673  0.4043
  192SAPI   H8X22288   1.667   4.879   4.123 -0.4759 -0.2146 -0.4342
  192SAPI   H8Y22289   1.494   4.872   4.065  0.0198  0.6485 -1.9987
  192SAPI   C3922290   1.557   5.056   4.167 -0.4803 -0.4785  0.3590
  192SAPI   H9X22291   1.454   5.095   4.154  0.0080  0.4458 -0.8630
  192SAPI   H9Y22292   1.623   5.141   4.142 -1.7468  0.2994 -0.4561
  192SAPI  C31022293   1.583   5.020   4.314  0.1079  0.3464  0.3625
  192SAPI  H10X22294   1.693   5.028   4.330  0.5322 -2.0774 -0.8488
  192SAPI  H10Y22295   1.578   4.910   4.328  2.3732  0.1043 -0.2460
  192SAPI  C31122296   1.484   5.082   4.419  1.2263 -0.0179 -0.1544
  192SAPI  H11X22297   1.381   5.050   4.393  0.7321  0.0413  1.6436
  192SAPI  H11Y22298   1.500   5.191   4.404 -0.5895  0.2321 -0.4234
  192SAPI  C31222299   1.515   5.050   4.564  0.0767 -0.2877 -0.3727
  192SAPI  H12X22300   1.472   5.130   4.628  0.0672 -0.1727 -0.5193
  192SAPI  H12Y22301   1.625   5.040   4.573  0.3674  1.4610 -1.4493
  192SAPI  C31322302   1.437   4.928   4.604 -0.2639 -0.1875 -0.3105
  192SAPI  H13X22303   1.470   4.846   4.537  1.2539  3.2702 -4.2000
  192SAPI  H13Y22304   1.329   4.950   4.590 -0.2400 -0.4702 -0.9932
  192SAPI  C31422305   1.471   4.876   4.748 -0.1113 -0.2431  0.7803
  192SAPI  H14X22306   1.572   4.830   4.744  0.6388  1.3086  1.0232
  192SAPI  H14Y22307   1.398   4.796   4.774 -2.3266  1.2496 -0.4733
  192SAPI  C31522308   1.479   4.986   4.853  0.9139  0.9038 -0.3207
  192SAPI  H15X22309   1.379   5.035   4.850  0.6671  0.5989  1.6109
  192SAPI  H15Y22310   1.564   5.057   4.841  2.6630 -1.1345 -0.5813
  192SAPI  C31622311   1.491   4.916   4.989  0.3061  0.1428 -0.0193
  192SAPI  H16X22312   1.582   4.851   4.989  1.7126  2.0010  1.4353
  192SAPI  H16Y22313   1.409   4.845   5.010  2.5625 -2.2547  1.3859
  192SAPI  C31722314   1.484   5.012   5.108  0.4737 -0.5273  0.2038
  192SAPI  H17X22315   1.498   4.948   5.198  3.9755  0.7061  0.6996
  192SAPI  H17Y22316   1.377   5.042   5.110  0.1467 -1.6866  1.0619
  192SAPI  C31822317   1.578   5.131   5.116  0.0954  0.3953 -0.2289
  192SAPI  H18X22318   1.589   5.150   5.225 -2.6348  2.7160 -0.2563
  192SAPI  H18Y22319   1.532   5.216   5.062  0.7418 -0.4940 -2.2638
  192SAPI  H18Z22320   1.679   5.099   5.082 -1.2182 -2.8209 -1.4351
  193SOD    SOD22321   3.396   6.801   2.543 -0.0252 -0.6067  0.1090
  194SOD    SOD22322   6.787   4.482   7.822 -0.0768 -0.0508  0.3175
  195SOD    SOD22323   2.876   4.623   0.015 -0.2148  0.0325  0.1369
  196SOD    SOD22324   1.895   4.851   1.990  0.1144 -0.0603  0.0355
  197SOD    SOD22325   1.423   2.013   3.397 -0.3771  0.0046 -0.1768
  198SOD    SOD22326   5.485   2.367   7.387  0.3091  0.5762  0.0848
  199SOD    SOD22327   4.756   3.713   0.487 -0.0736  0.3801 -0.3677
  200SOD    SOD22328   0.417   2.200   7.762  0.2928  0.2705 -0.5141
  201SOD    SOD22329   3.274   5.587   2.506  0.0937  0.0566  0.3825
  202SOD    SOD22330   5.666   2.166   2.176 -0.2857  0.2262  0.5273
  203SOD    SOD22331   2.262   4.941   6.821 -0.2939  0.2989 -0.1654
  204SOD    SOD22332   4.054   2.535   2.556  0.1278  0.4339  0.2064
  205SOD    SOD22333   4.485   5.022   0.942  0.2699 -0.0074 -0.3143
  206SOD    SOD22334   0.676   1.639   1.807  0.1900  0.1141 -0.1889
  207SOD    SOD22335   5.706   6.224   7.620 -0.2261  0.2997 -0.2162
  208SOD    SOD22336   4.504   3.168   2.233 -0.2677 -0.0695  0.0764
  209SOD    SOD22337   1.363   4.407   7.138  0.1053 -0.0496  0.2789
  210SOD    SOD22338   4.622   5.682   2.030  0.1395 -0.2829  0.0254
  211SOD    SOD22339   6.205   4.511   7.865  0.1567  0.0799  0.0183
  212SOD    SOD22340   1.562   1.849   8.075 -0.1563  0.1908  0.2402
  213SOD    SOD22341   1.707   0.095   7.437  0.1886 -0.0366 -0.1413
  214SOD    SOD22342   3.828   3.759   7.654 -0.1638 -0.3835  0.0719
  215SOD    SOD22343   1.824   3.723   7.768 -0.4134 -0.1746  0.5521
  216SOD    SOD22344   0.487   4.520   1.229 -0.1301 -0.7099 -0.2569
  217SOD    SOD22345   3.262   3.940   6.822 -0.3208  0.2340 -0.3840
  218SOD    SOD22346   0.593   4.364   2.452 -0.2967 -0.0315  0.5355
  219SOD    SOD22347   5.177   6.309   1.428 -0.2694 -0.2899 -0.3432
  220SOD    SOD22348   2.736   6.600   2.001 -0.0263  0.4593 -0.1581
  221SOD    SOD22349   3.428   2.286   7.790  0.5005  0.2010 -0.1863
  222SOD    SOD22350   1.951   2.802   2.890  0.2931  0.0128  0.0745
  223SOD    SOD22351   1.282   5.838   7.125  0.1166 -0.1319  0.0785
  224SOD    SOD22352   3.760   6.311   0.392 -0.2012 -0.1265  0.2152
  225SOD    SOD22353   3.976   2.452   0.120  0.1631 -0.0821 -0.6668
  226SOD    SOD22354   5.595   5.625   1.683  0.5211  0.2225  0.2229
  227SOD    SOD22355   5.695   5.777   2.782 -0.0765 -0.2161 -0.0704
  228SOD    SOD22356   1.380   0.393   2.860 -0.2982 -0.0689 -0.6992
  229SOD    SOD22357   5.861   0.662   1.083  0.0379 -0.7426 -0.0035
  230CLA    CLA22358   4.722   5.009   0.802 -0.0415  0.4895 -0.5116
  231CLA    CLA22359   1.917   0.547   8.533  0.0840  0.3167 -0.3890
  232CLA    CLA22360   5.142   0.674   7.687 -0.1273  0.0242 -0.3159
  233CLA    CLA22361   1.396   5.848   0.039  0.1690  0.2878 -0.1022
  234CLA    CLA22362   6.730   2.586   0.083 -0.0292  0.7961 -0.0634
  235CLA    CLA22363   3.119   5.673   0.184  0.1557  0.1754  0.3142
  236CLA    CLA22364   0.240   3.295   8.707  0.0353 -0.3293  0.3077
  237CLA    CLA22365   3.521   0.495   1.637 -0.2733  0.1980 -0.2904
  238CLA    CLA22366   0.940   3.643   0.842  0.1928  0.0532  0.1179
  239CLA    CLA22367   6.141   5.423   1.912  0.2638  0.0398 -0.0760
  240CLA    CLA22368   5.247   4.333   8.045 -0.0632  0.4215  0.3012
  241CLA    CLA22369   0.198   2.675   1.438 -0.3361 -0.3271 -0.2394
  242CLA    CLA22370   0.490   2.120   1.688 -0.3378 -0.2832  0.4302
  243CLA    CLA22371   2.800   2.090   1.373  0.3496 -0.6922 -0.0619
  244CLA    CLA22372   1.542   4.849   0.433  0.3279  0.1914 -0.4064
  245CLA    CLA22373   0.829   2.178   8.100  0.1142 -0.5426 -0.0717
  246CLA    CLA22374   6.495   3.898   1.104 -0.0424 -0.1488 -0.2701
  247TIP3   OH222375   3.560   5.021   1.229  0.0821  0.3707 -0.4978
  247TIP3    H122376   3.651   4.992   1.219 -0.4017 -1.2676 -0.3461
  247TIP3    H222377   3.567   5.107   1.271  1.5680  0.4844 -0.9213
  248TIP3   OH222378   0.303   3.080   7.783 -0.7054  0.1517  0.3820
  248TIP3    H122379   0.357   3.129   7.721  0.3338  2.4018  2.8854
  248TIP3    H222380   0.251   3.147   7.828 -0.9525 -1.2730  2.3679
  249TIP3   OH222381   5.421   1.501   1.413 -0.1745 -0.3168  0.0181
  249TIP3    H122382   5.408   1.589   1.380  2.3898  0.2067  0.2229
  249TIP3    H222383   5.371   1.445   1.353 -2.0270  1.2327  0.0254
  250TIP3   OH222384   2.078   2.908   2.288 -0.2353 -0.4318 -0.0840
  250TIP3    H122385   2.047   2.833   2.238  1.3517 -1.0497 -0.1943
  250TIP3    H222386   2.042   2.984   2.241 -3.0528 -1.0742  0.8452
  251TIP3   OH222387   1.410   5.446   1.579 -0.1799  0.0138  0.0089
  251TIP3    H122388   1.409   5.542   1.575  0.9521  0.0835  0.8260
  251TIP3    H222389   1.366   5.425   1.662 -1.8929 -0.2757 -0.9266
  252TIP3   OH222390   1.122   5.492   0.110  0.1934 -0.6317 -0.5714
  252TIP3    H122391   1.037   5.534   0.115  1.3056  1.7337  0.1412
  252TIP3    H222392   1.131   5.464   0.019 -0.5096  1.0321 -1.1847
  253TIP3   OH222393   4.663   5.689   8.294 -0.0862  0.4724 -0.1862
  253TIP3    H122394   4.618   5.773   8.290  1.5077  1.3259 -0.9426
  253TIP3    H222395   4.715   5.693   8.374 -2.1511 -0.9925  1.3397
  254TIP3   OH222396   1.823   2.538   2.345  0.0660  0.0872 -0.2171
  254TIP3    H122397   1.894   2.598   2.322  1.1087 -0.5301  1.3004
  254TIP3    H222398   1.762   2.592   2.395  1.4667 -0.2471  1.9904
  255TIP3   OH222399   0.837   6.021   7.659  0.4455 -0.0854 -0.0898
  255TIP3    H122400   0.828   6.009   7.753 -0.6575 -0.3446 -0.2109
  255TIP3    H222401   0.783   6.098   7.640  0.9284  0.1631 -0.4611
  256TIP3   OH222402   4.312   5.000   0.308 -0.4334  0.2734  0.1248
  256TIP3    H122403   4.236   5.027   0.257 -1.0997 -1.1377  0.3388
  256TIP3    H222404   4.300   5.042   0.393 -1.8919 -1.3008  0.7333
  257TIP3   OH222405   6.716   5.844   8.326  0.3710 -0.1132 -0.7383
  257TIP3    H122406   6.686   5.766   8.278  0.0237 -1.0576  0.9566
  257TIP3    H222407   6.752   5.810   8.408  1.6814  1.4010 -0.6327
  258TIP3   OH222408   2.334   4.092   1.794 -0.6411 -0.5326  0.4360
  258TIP3    H122409   2.287   4.036   1.733 -1.9670 -1.0211  1.8240
  258TIP3    H222410   2.295   4.072   1.879  1.8024 -0.6238  1.6269
  259TIP3   OH222411   2.783   0.976   2.461  0.4799  0.1821 -0.2696
  259TIP3    H122412   2.778   0.946   2.552 -0.5825 -0.4693 -0.5309
  259TIP3    H222413   2.799   0.896   2.410 -1.4789  0.1281 -0.8894
  260TIP3   OH222414   0.711   5.459   7.774  0.5518 -0.0359 -0.3411
  260TIP3    H122415   0.633   5.494   7.731 -0.4102  0.5497  1.7910
  260TIP3    H222416   0.693   5.467   7.867  3.0735 -0.1151  0.2134
  261TIP3   OH222417   6.512   0.541   7.840  0.4315  0.3577 -0.8612
  261TIP3    H122418   6.478   0.615   7.891  0.6138 -0.8670  1.1150
  261TIP3    H222419   6.489   0.464   7.891  2.4381 -0.8082 -1.6188
  262TIP3   OH222420   3.684   0.138   7.532 -0.5491 -0.0705  0.1850
  262TIP3    H122421   3.635   0.217   7.509  1.0447  1.6131  2.2425
  262TIP3    H222422   3.631   0.095   7.598 -1.4838 -0.8644 -1.0330
  263TIP3   OH222423   0.306   6.180   2.070 -0.1561 -0.2080 -0.2322
  263TIP3    H122424   0.401   6.184   2.077 -0.0834 -0.6441 -0.9883
  263TIP3    H222425   0.277   6.267   2.098  0.4143 -0.2733  0.6184
  264TIP3   OH222426   6.402   1.651   8.563 -0.4559  0.1976 -0.1946
  264TIP3    H122427   6.468   1.713   8.532  2.0061 -1.7802  0.7490
  264TIP3    H222428   6.418   1.572   8.511  0.9481 -1.7733  2.9174
  265TIP3   OH222429   5.804   5.122   2.038 -0.1050  0.0475 -0.1333
  265TIP3    H122430   5.722   5.099   2.082  1.0959  0.1802  2.3088
  265TIP3    H222431   5.820   5.213   2.063  1.6671 -0.5156  0.9179
  266TIP3   OH222432   6.837   2.844   2.321 -0.6537 -1.0733  0.3339
  266TIP3    H122433   6.810   2.891   2.400  2.8971  1.9220  0.0301
  266TIP3    H222434   6.814   2.903   2.249 -0.3461 -1.9590 -0.5147
  267TIP3   OH222435   0.379   5.571   0.154 -0.7681  0.4298 -0.7465
  267TIP3    H122436   0.460   5.540   0.193 -0.8071  0.9374 -0.2332
  267TIP3    H222437   0.386   5.549   0.061 -1.3512 -2.2199 -0.2203
  268TIP3   OH222438   3.281   1.169   2.433 -0.3573 -0.0242 -0.2435
  268TIP3    H122439   3.358   1.154   2.488  0.8267  2.7846 -0.9704
  268TIP3    H222440   3.263   1.083   2.394  2.3719 -0.7843 -0.0248
  269TIP3   OH222441   0.978   2.034   2.372 -0.5257  0.0208 -0.3662
  269TIP3    H122442   1.027   2.115   2.360 -0.8883  0.5299  1.3827
  269TIP3    H222443   0.893   2.051   2.332 -0.7945  0.7173  0.4783
  270TIP3   OH222444   4.415   5.321   0.352  0.1148  0.4303 -0.3071
  270TIP3    H122445   4.506   5.348   0.364  0.7573 -1.3276 -0.8742
  270TIP3    H222446   4.393   5.274   0.432 -1.3120  3.2087  1.0967
  271TIP3   OH222447   3.967   5.180   1.275 -0.1405  0.5458 -0.2158
  271TIP3    H122448   4.017   5.254   1.240 -1.4541  0.7429 -1.7800
  271TIP3    H222449   3.965   5.116   1.203 -0.6254 -0.2183  0.4524
  272TIP3   OH222450   6.100   3.666   0.549 -0.2322  0.0238 -0.0247
  272TIP3    H122451   6.115   3.642   0.641  0.4411  0.0688 -0.1182
  272TIP3    H222452   6.028   3.729   0.553 -1.8175 -1.6869  0.2593
  273TIP3   OH222453   3.721   4.395   8.515  0.1566 -0.0405  0.2127
  273TIP3    H122454   3.636   4.431   8.494 -0.1599 -1.1224 -0.4368
  273TIP3    H222455   3.702   4.319   8.570  0.5432 -1.4581 -1.5227
  274TIP3   OH222456   2.157   5.263   1.791 -0.7792  0.4862 -0.6866
  274TIP3    H122457   2.222   5.313   1.841 -1.5464 -0.2927  1.1894
  274TIP3    H222458   2.084   5.325   1.779  0.0896  1.2368 -2.4582
  275TIP3   OH222459   5.449   1.123   1.166 -0.1160  0.0659  0.4083
  275TIP3    H122460   5.390   1.048   1.164 -1.9059  1.4011  0.5520
  275TIP3    H222461   5.433   1.168   1.083  0.7519  0.4485  0.4355
  276TIP3   OH222462   4.156   1.072   8.266  0.1313 -0.2249  0.2503
  276TIP3    H122463   4.241   1.095   8.228  0.6115 -2.1233  0.1100
  276TIP3    H222464   4.159   1.110   8.354  1.3176 -0.6624  0.4172
  277TIP3   OH222465   3.184   4.552   7.704 -0.1800 -0.1761  0.4297
  277TIP3    H122466   3.181   4.545   7.608  0.6696  2.2449  0.1649
  277TIP3    H222467   3.094   4.573   7.729 -0.5286 -1.3748  0.2498
  278TIP3   OH222468   0.146   3.261   7.894 -0.0135  0.0963 -0.4673
  278TIP3    H122469   0.103   3.242   7.977  0.8641  2.3158  0.5829
  278TIP3    H222470   0.094   3.332   7.856  0.3727  0.0214 -1.1516
  279TIP3   OH222471   3.600   2.196   2.625 -0.2247 -0.1656 -0.5442
  279TIP3    H122472   3.524   2.153   2.588 -0.9164 -0.6941  1.3692
  279TIP3    H222473   3.641   2.130   2.681  2.0405 -0.1055 -1.9669
  280TIP3   OH222474   2.165   3.998   7.873 -0.2831 -0.2063 -0.0486
  280TIP3    H122475   2.075   4.005   7.903 -1.0225 -0.6956 -1.9978
  280TIP3    H222476   2.164   3.926   7.811  1.4954 -0.3084 -0.0075
  281TIP3   OH222477   5.911   1.397   1.530  0.2006 -0.5922 -0.0362
  281TIP3    H122478   5.857   1.416   1.453  0.2556 -0.6123 -0.0806
  281TIP3    H222479   5.870   1.445   1.601  1.5160  1.4498 -0.5616
  282TIP3   OH222480   5.221   1.429   6.877 -0.3764 -0.4672 -0.9710
  282TIP3    H122481   5.257   1.516   6.862  0.0207 -0.4712 -0.1337
  282TIP3    H222482   5.126   1.439   6.868 -0.8953  1.1652  3.6386
  283TIP3   OH222483   3.426   4.831   2.615 -0.1928  0.0211  0.1513
  283TIP3    H122484   3.446   4.744   2.648  0.5855  0.0104 -0.3155
  283TIP3    H222485   3.511   4.870   2.597 -0.5518  0.6270 -0.2857
  284TIP3   OH222486   1.239   6.139   0.020  0.3002  0.2074 -0.3355
  284TIP3    H122487   1.298   6.069  -0.008  0.4272 -0.8877  2.3730
  284TIP3    H222488   1.272   6.164   0.106 -1.4915  1.6074 -0.0043
  285TIP3   OH222489   6.866   2.773   1.189  0.3431 -0.3057  0.7197
  285TIP3    H122490   6.912   2.763   1.272 -0.7111 -1.1985  1.2285
  285TIP3    H222491   6.839   2.864   1.187  0.0131 -0.3783  1.5716
  286TIP3   OH222492   3.770   4.456   2.163  0.2583  0.2879 -0.7161
  286TIP3    H122493   3.815   4.444   2.247  1.3895  1.7031 -1.0858
  286TIP3    H222494   3.768   4.551   2.151  1.6790  0.0736 -3.1171
  287TIP3   OH222495   2.154   2.205   7.427 -0.0391 -0.2122  0.3421
  287TIP3    H122496   2.220   2.151   7.382 -2.3615  0.2075 -4.1510
  287TIP3    H222497   2.186   2.295   7.417 -0.0641 -0.1961  0.4097
  288TIP3   OH222498   0.159   5.922   8.575  0.1479 -0.3815 -0.1403
  288TIP3    H122499   0.081   5.960   8.617 -0.5898 -1.5193 -0.4420
  288TIP3    H222500   0.229   5.984   8.595 -0.9213  0.8904 -0.2318
  289TIP3   OH222501   4.279   0.426   0.685  0.0669  0.2558 -0.9242
  289TIP3    H122502   4.340   0.363   0.645  2.0379  0.5992  1.2753
  289TIP3    H222503   4.319   0.445   0.770 -0.8574  3.9173 -1.1877
  290TIP3   OH222504   3.949   1.859   0.538 -0.4727 -0.2548  0.2750
  290TIP3    H122505   3.960   1.893   0.449  0.4682  0.1213  0.5258
  290TIP3    H222506   3.895   1.780   0.526 -2.0642  0.8721 -0.3832
  291TIP3   OH222507   4.555   1.913   0.434 -0.1439  0.1411  0.2210
  291TIP3    H122508   4.621   1.962   0.484  0.5265 -0.2275 -0.2898
  291TIP3    H222509   4.531   1.971   0.362  1.1370 -0.5292 -0.7621
  292TIP3   OH222510   0.708   4.639   0.871  0.4012  0.0708 -0.0723
  292TIP3    H122511   0.615   4.645   0.846  0.2679 -0.4043  0.2926
  292TIP3    H222512   0.732   4.728   0.896 -0.2138  0.0259  0.7081
  293TIP3   OH222513   5.683   0.536   1.180 -0.0675 -0.3308  0.2958
  293TIP3    H122514   5.618   0.592   1.222 -0.4139 -0.9712  0.6308
  293TIP3    H222515   5.694   0.462   1.240  0.3988 -0.6149 -0.1252
  294TIP3   OH222516   1.037   5.831   7.850  0.8166  0.6155 -0.3826
  294TIP3    H122517   1.016   5.762   7.788 -1.0131  0.6907  0.0902
  294TIP3    H222518   0.992   5.805   7.931 -2.8064  3.8432 -1.0683
  295TIP3   OH222519   0.200   4.417   0.457  0.9060 -0.2376  0.4012
  295TIP3    H122520   0.181   4.334   0.499 -1.2520 -1.1951 -2.1723
  295TIP3    H222521   0.127   4.431   0.396  1.1554  3.5547  0.6814
  296TIP3   OH222522   0.592   3.042   7.643  0.2568  0.0584  0.2757
  296TIP3    H122523   0.596   2.958   7.689 -1.5733 -0.2949 -0.1379
  296TIP3    H222524   0.546   3.022   7.562 -1.5459  1.7192  0.8277
  297TIP3   OH222525   2.772   4.451   2.393 -0.1270  0.0776 -0.9749
  297TIP3    H122526   2.853   4.502   2.396 -0.0025 -0.1431 -0.3675
  297TIP3    H222527   2.796   4.371   2.346  0.2448 -0.3796 -0.0339
  298TIP3   OH222528   2.272   0.704   0.561  0.3435 -0.5461  0.1693
  298TIP3    H122529   2.207   0.696   0.630  1.2664 -2.0307  0.9312
  298TIP3    H222530   2.347   0.746   0.602 -0.1754  1.4095 -0.7731
  299TIP3   OH222531   1.338   2.144   2.546  0.8850  0.0351 -0.3546
  299TIP3    H122532   1.375   2.186   2.469  1.3465  0.6976  0.2226
  299TIP3    H222533   1.287   2.212   2.589  0.6395 -0.3289 -0.0608
  300TIP3   OH222534   6.085   0.350   1.534  0.3829 -0.1292  0.3691
  300TIP3    H122535   6.031   0.385   1.605  0.3776 -0.8982  0.7649
  300TIP3    H222536   6.144   0.289   1.578  0.1967 -0.8225 -0.3200
  301TIP3   OH222537   6.030   1.334   7.420  0.1994  0.1678 -0.5025
  301TIP3    H122538   6.091   1.311   7.350  2.1748  0.0649  1.1684
  301TIP3    H222539   6.035   1.261   7.482 -1.6117  0.1857 -0.2680
  302TIP3   OH222540   0.032   6.571   0.748  0.4988  0.3425  0.3679
  302TIP3    H122541  -0.036   6.511   0.720  0.3603  0.5160  0.3286
  302TIP3    H222542   0.077   6.598   0.668  0.0731  0.8744  0.3030
  303TIP3   OH222543   2.576   1.556   0.541 -0.5196  0.0664  0.4877
  303TIP3    H122544   2.554   1.502   0.616 -0.0979 -0.6457  0.1077
  303TIP3    H222545   2.570   1.497   0.466  0.0644  0.5128  0.0796
  304TIP3   OH222546   4.180   4.053   1.834  0.1791 -0.0140 -0.3030
  304TIP3    H122547   4.215   4.083   1.750  1.8048  0.4756  0.5138
  304TIP3    H222548   4.191   3.958   1.831  3.9059  0.2152  0.7986
  305TIP3   OH222549   5.625   0.024   0.582  0.3769 -0.2520 -0.4939
  305TIP3    H122550   5.683  -0.048   0.557 -0.6891 -1.1862 -0.3588
  305TIP3    H222551   5.552  -0.019   0.627  0.5452  1.0686  1.1264
  306TIP3   OH222552   1.426   5.877   2.378 -0.6887 -0.0641 -0.6454
  306TIP3    H122553   1.503   5.910   2.424 -1.9123  2.8168 -0.4772
  306TIP3    H222554   1.440   5.903   2.287 -0.0528 -2.3929 -1.2914
  307TIP3   OH222555   0.492   1.990   8.488 -0.1198 -0.0609 -0.1986
  307TIP3    H122556   0.446   1.932   8.427  0.8917  0.3249 -1.3570
  307TIP3    H222557   0.476   2.078   8.455  1.0760  0.1078 -0.3694
  308TIP3   OH222558   1.765   0.661   1.968  0.3768 -0.0432 -0.1046
  308TIP3    H122559   1.709   0.698   2.036 -0.1063 -0.3303 -0.3429
  308TIP3    H222560   1.780   0.733   1.906  2.3484  0.7912  1.2241
  309TIP3   OH222561   4.809   4.867   0.158 -0.4481 -0.0503 -0.3872
  309TIP3    H122562   4.884   4.878   0.099  0.0416 -1.0018  0.0256
  309TIP3    H222563   4.766   4.952   0.159  0.1113  0.2531 -1.3401
  310TIP3   OH222564   3.413   5.091   7.780 -0.2119  0.2519 -0.0566
  310TIP3    H122565   3.453   5.009   7.807  0.2158  0.1621 -0.9223
  310TIP3    H222566   3.369   5.124   7.859  2.3194  0.8254  1.2472
  311TIP3   OH222567   3.983   1.185   3.111  0.0822 -0.4323  0.1776
  311TIP3    H122568   4.027   1.151   3.189  1.9554  1.4841  0.0399
  311TIP3    H222569   4.050   1.235   3.065 -1.4322 -0.0690 -1.7837
  312TIP3   OH222570   5.829   1.347   8.749 -0.4971 -0.0089 -0.0151
  312TIP3    H122571   5.853   1.400   8.674  0.1702  0.3566  0.4404
  312TIP3    H222572   5.899   1.281   8.755 -1.6294 -1.3502 -0.9389
  313TIP3   OH222573   1.121   2.577   0.971 -0.2711  0.1314 -0.4581
  313TIP3    H122574   1.075   2.538   0.897  0.0067  0.9061 -1.0449
  313TIP3    H222575   1.057   2.636   1.011  0.4578  1.9165 -1.8281
  314TIP3   OH222576   2.466   6.768   0.242 -0.0339  0.1240  0.0120
  314TIP3    H122577   2.474   6.849   0.191  0.7455 -1.2539 -2.1799
  314TIP3    H222578   2.372   6.750   0.243 -0.1421  0.6523 -0.1372
  315TIP3   OH222579   0.912   4.981   1.621 -0.1928  0.0695  0.1327
  315TIP3    H122580   0.878   5.023   1.700 -1.1166 -2.3807  1.1508
  315TIP3    H222581   0.876   5.032   1.549 -1.9848  0.5034  1.2679
  316TIP3   OH222582   5.418   4.364   6.881  0.1548  0.0187 -0.7972
  316TIP3    H122583   5.361   4.414   6.940  1.2621  0.2766  0.0753
  316TIP3    H222584   5.379   4.277   6.879  1.4358 -0.7814  2.3723
  317TIP3   OH222585   0.208   5.252   7.158 -0.0311  0.1958  0.7159
  317TIP3    H122586   0.177   5.229   7.070 -1.7376  2.0115  0.7750
  317TIP3    H222587   0.233   5.168   7.197 -2.9517 -1.1857 -0.1205
  318TIP3   OH222588   5.308   3.774   1.553 -0.2058 -0.2545 -0.1572
  318TIP3    H122589   5.214   3.788   1.551 -0.2845 -0.7451 -0.2353
  318TIP3    H222590   5.329   3.745   1.464 -0.2095 -1.4767  0.2192
  319TIP3   OH222591   3.470   0.433   8.130  0.5173 -0.1844 -0.7544
  319TIP3    H122592   3.505   0.362   8.076  1.7231 -1.0124  0.9842
  319TIP3    H222593   3.530   0.506   8.115  0.4181 -0.1777 -1.1059
  320TIP3   OH222594   0.766   5.637   8.260  0.2355 -0.1739 -0.0476
  320TIP3    H122595   0.694   5.698   8.245  0.6259 -0.2172 -2.3799
  320TIP3    H222596   0.808   5.669   8.340 -0.0551  2.1441 -0.7663
  321TIP3   OH222597   4.996   2.503   1.104  0.8438 -0.0133  0.2133
  321TIP3    H122598   4.921   2.493   1.163  0.0185 -0.8265 -0.9404
  321TIP3    H222599   4.974   2.579   1.050  0.5438 -0.6197 -0.5370
  322TIP3   OH222600   4.728   6.569   7.128  0.0326  0.4317  0.3419
  322TIP3    H122601   4.751   6.591   7.038  0.1329  1.1865  0.5478
  322TIP3    H222602   4.636   6.596   7.137  0.6854  2.5493  1.1446
  323TIP3   OH222603   1.106   5.574   7.697 -0.4809 -0.1220  0.0359
  323TIP3    H122604   1.130   5.561   7.605 -1.4970  1.4203 -0.4953
  323TIP3    H222605   1.042   5.505   7.715  0.4338 -1.0348 -0.0858
  324TIP3   OH222606   1.479   2.038   3.169  0.1782  0.0108 -0.3691
  324TIP3    H122607   1.393   2.046   3.129 -1.2683  2.4184  2.7571
  324TIP3    H222608   1.527   2.116   3.140 -0.7847  1.6253  2.0901
  325TIP3   OH222609   0.987   1.416   1.163  0.1801  0.2673 -0.3454
  325TIP3    H122610   0.904   1.380   1.194  1.0133 -1.1757  0.3066
  325TIP3    H222611   0.969   1.442   1.073 -1.0721  0.3202 -0.1016
  326TIP3   OH222612   6.148   4.981   7.747  0.4347 -0.0174 -0.0198
  326TIP3    H122613   6.094   4.968   7.669 -0.9765 -0.9188  1.0496
  326TIP3    H222614   6.193   5.064   7.732 -0.5525  0.3059 -1.3560
  327TIP3   OH222615   5.187   4.116   1.650 -0.0714  0.0252 -0.2343
  327TIP3    H122616   5.141   4.195   1.678 -0.6930 -0.5065  0.2811
  327TIP3    H222617   5.149   4.094   1.565  1.0203  1.0028 -0.9972
  328TIP3   OH222618   4.087   4.945   8.453  0.6128  0.2075 -0.7732
  328TIP3    H122619   4.076   4.891   8.375  1.9677  0.8826 -1.4825
  328TIP3    H222620   4.074   5.035   8.421 -1.0974  0.3658  0.2714
  329TIP3   OH222621   6.577   6.289   1.331  0.3467  0.2274  0.1356
  329TIP3    H122622   6.603   6.215   1.387 -0.1504  0.4999  0.7429
  329TIP3    H222623   6.481   6.284   1.330  0.2899  1.1355  0.5561
  330TIP3   OH222624   3.189   4.045   2.005 -0.0065 -0.2950 -0.5297
  330TIP3    H122625   3.114   4.039   1.947  2.4991 -0.3821 -4.0753
  330TIP3    H222626   3.244   3.970   1.982  1.4999  0.1225  1.4327
  331TIP3   OH222627   2.563   1.773   2.646 -0.1798  0.4863 -0.0784
  331TIP3    H122628   2.610   1.854   2.665 -0.2257  0.2119  1.3408
  331TIP3    H222629   2.550   1.733   2.732  0.3832 -1.3315 -0.7985
  332TIP3   OH222630   5.574   2.713   1.090  0.9847  0.3926  0.2991
  332TIP3    H122631   5.584   2.653   1.163  0.3791 -1.3067 -0.9368
  332TIP3    H222632   5.654   2.765   1.090  1.0754  0.2848  2.0207
  333TIP3   OH222633   5.389   3.574   1.361  0.4935 -0.2168  0.7712
  333TIP3    H122634   5.412   3.549   1.451  1.4768 -0.7361  0.3947
  333TIP3    H222635   5.399   3.493   1.311 -3.7470 -0.9625  0.7674
  334TIP3   OH222636   4.691   4.413   0.766  0.5682 -0.0678  0.5551
  334TIP3    H122637   4.622   4.394   0.702 -0.3043 -0.2596  1.5194
  334TIP3    H222638   4.734   4.491   0.733  0.0547 -0.0996 -0.2030
  335TIP3   OH222639   6.740   1.256   0.222 -0.1277 -0.3134 -0.7971
  335TIP3    H122640   6.703   1.175   0.259  1.4549 -1.0520 -0.7686
  335TIP3    H222641   6.788   1.228   0.145  1.0342  0.4934 -0.3986
  336TIP3   OH222642   3.214   1.250   0.704  0.4985 -0.4807  0.1801
  336TIP3    H122643   3.228   1.208   0.788 -2.9872 -2.1924  0.0930
  336TIP3    H222644   3.156   1.324   0.723  2.3762  1.2325 -0.3774
  337TIP3   OH222645   0.554   1.699   0.278 -0.0200  0.1962 -0.3245
  337TIP3    H122646   0.466   1.708   0.242  0.0874 -0.0079 -0.6433
  337TIP3    H222647   0.544   1.641   0.353  0.2569 -2.2076 -2.0367
  338TIP3   OH222648   4.157   0.064   1.351 -0.3302  0.4001 -0.5173
  338TIP3    H122649   4.062   0.057   1.345 -0.4217  0.6875  0.5184
  338TIP3    H222650   4.175   0.157   1.336 -0.3269  0.5899  0.6112
  339TIP3   OH222651   0.886   1.562   7.412  0.7454  0.5614  0.1943
  339TIP3    H122652   0.808   1.510   7.434  0.9894 -0.0131 -0.2587
  339TIP3    H222653   0.858   1.653   7.420  0.4607  0.3686  1.5529
  340TIP3   OH222654   3.335   0.283   7.715 -0.2032 -0.0864 -0.0438
  340TIP3    H122655   3.392   0.306   7.642 -0.8820 -2.5218 -1.4729
  340TIP3    H222656   3.348   0.189   7.727 -1.6623 -0.1336  1.5908
  341TIP3   OH222657   3.171   3.345   8.069  0.5022  0.0221  0.3752
  341TIP3    H122658   3.138   3.328   7.981  0.1354  1.1410  0.2803
  341TIP3    H222659   3.260   3.378   8.056  1.1362 -1.5362  0.5456
  342TIP3   OH222660   3.152   3.832   8.534  0.5313 -0.1333  0.2723
  342TIP3    H122661   3.092   3.906   8.527 -1.4646 -1.5720  1.3512
  342TIP3    H222662   3.190   3.824   8.446 -0.4915  1.0982 -0.3096
  343TIP3   OH222663   4.667   0.012   0.935 -0.0801 -0.4288  0.2130
  343TIP3    H122664   4.573   0.029   0.936  0.0179  1.0335 -3.2697
  343TIP3    H222665   4.705   0.085   0.984 -0.5913  1.3451 -1.9108
  344TIP3   OH222666   1.434   5.033   8.099  0.0904 -0.1499  0.3872
  344TIP3    H122667   1.392   5.087   8.166 -1.1119  3.3724 -2.8591
  344TIP3    H222668   1.504   5.088   8.064 -0.7899 -0.8285 -2.7373
  345TIP3   OH222669   0.999   2.774   2.872  0.1058  0.6998 -0.2747
  345TIP3    H122670   0.949   2.692   2.871  0.6029  0.3082  1.8794
  345TIP3    H222671   1.088   2.747   2.849 -0.2720  1.1477 -2.4893
  346TIP3   OH222672   3.291   2.873   8.554  0.0260  0.9720  0.2930
  346TIP3    H122673   3.228   2.892   8.485  0.4232 -0.4772 -0.5166
  346TIP3    H222674   3.315   2.781   8.540  0.8193  0.9108  1.7988
  347TIP3   OH222675   5.231   0.625   2.263  0.6983 -0.4460  0.6751
  347TIP3    H122676   5.283   0.636   2.183  1.4918 -0.1404  1.2313
  347TIP3    H222677   5.189   0.710   2.275 -2.1409 -1.4097 -1.2567
  348TIP3   OH222678   5.113   1.059   6.748  0.2632  0.2418  0.7264
  348TIP3    H122679   5.086   1.095   6.833 -0.7951  0.6542  0.2274
  348TIP3    H222680   5.031   1.038   6.703  0.7772  0.9484 -0.5902
  349TIP3   OH222681   4.106   1.353   8.129  0.1404 -0.1138 -0.1630
  349TIP3    H122682   4.128   1.407   8.053  1.4102  1.5913  1.3249
  349TIP3    H222683   4.182   1.296   8.141  1.6490  2.1109  1.8421
  350TIP3   OH222684   3.619   2.560   1.385  0.5003 -0.3363 -0.0918
  350TIP3    H122685   3.616   2.599   1.473  0.0019  2.3032 -1.1800
  350TIP3    H222686   3.538   2.510   1.378 -1.1373  2.1563 -0.1222
  351TIP3   OH222687   0.087   3.485   8.491 -0.6832  0.5781  0.1256
  351TIP3    H122688   0.063   3.551   8.556 -1.2067  0.9379 -0.4141
  351TIP3    H222689   0.120   3.412   8.542 -0.1661  1.2267  0.7495
  352TIP3   OH222690   3.950   1.563   0.251  0.2945 -0.3303 -0.4669
  352TIP3    H122691   4.010   1.491   0.267  0.6655  0.2570  0.8861
  352TIP3    H222692   3.863   1.528   0.270  0.4166 -0.5595 -0.3341
  353TIP3   OH222693   4.523   1.015   2.000 -0.4049  0.3340  0.2454
  353TIP3    H122694   4.477   1.038   1.920 -0.8074  2.0263  0.9196
  353TIP3    H222695   4.471   1.056   2.070  0.6119 -0.0558  1.2541
  354TIP3   OH222696   4.356   0.604   8.461  0.4180 -0.3268 -0.3484
  354TIP3    H122697   4.266   0.600   8.493  0.7748  0.1694  0.7643
  354TIP3    H222698   4.363   0.690   8.420  0.2852 -0.5052 -0.7445
  355TIP3   OH222699   1.674   6.562   0.401  0.5194 -0.3096  0.4150
  355TIP3    H122700   1.698   6.649   0.433  0.3846 -0.1620  0.1251
  355TIP3    H222701   1.755   6.511   0.407  0.8273  0.0840 -0.2332
  356TIP3   OH222702   5.311   4.466   7.774 -0.6109 -0.0012 -1.2283
  356TIP3    H122703   5.313   4.407   7.850  0.5192  1.8989  0.3145
  356TIP3    H222704   5.337   4.411   7.700  1.4238 -1.2852  0.3119
  357TIP3   OH222705   5.054   1.257   2.242  0.4328  0.1192  0.3615
  357TIP3    H122706   5.112   1.328   2.216 -0.4691  1.1509  1.0857
  357TIP3    H222707   5.101   1.211   2.311  2.0115 -1.4595 -1.6254
  358TIP3   OH222708   4.681   5.847   2.173  0.5441 -0.0202 -0.3932
  358TIP3    H122709   4.775   5.865   2.174  0.6296 -0.4741  0.8794
  358TIP3    H222710   4.642   5.918   2.224  0.3873 -0.7547  0.5371
  359TIP3   OH222711   2.748   1.488   0.009 -0.0704 -0.1079  0.1554
  359TIP3    H122712   2.721   1.579   0.020 -0.1449 -0.0956 -0.1177
  359TIP3    H222713   2.842   1.488   0.024  0.2741  0.3536 -1.7446
  360TIP3   OH222714   0.626   0.187   7.588 -0.3916 -0.4786 -0.9708
  360TIP3    H122715   0.684   0.261   7.601 -0.7638 -0.2698 -0.4904
  360TIP3    H222716   0.587   0.202   7.502 -0.7175  0.0600 -0.7356
  361TIP3   OH222717   1.788   4.161   8.103  0.1327  0.3449 -0.0994
  361TIP3    H122718   1.851   4.133   8.169 -0.4860 -0.9904 -0.0412
  361TIP3    H222719   1.751   4.242   8.139  1.8745  1.2242 -0.2078
  362TIP3   OH222720   2.531   2.560   7.939  0.4247 -0.3792  0.1278
  362TIP3    H122721   2.515   2.643   7.893 -0.5155 -0.7263 -0.1968
  362TIP3    H222722   2.542   2.496   7.869 -3.2144 -1.3431  0.2407
  363TIP3   OH222723   2.305   5.514   0.750 -0.4148  0.3272 -0.1412
  363TIP3    H122724   2.299   5.466   0.668 -0.0709 -1.6007  0.9048
  363TIP3    H222725   2.223   5.493   0.796  0.6884 -1.1469  1.2583
  364TIP3   OH222726   3.697   3.937   1.864  0.2111 -0.1785  0.0862
  364TIP3    H122727   3.767   3.966   1.805  0.6433  0.8592  1.0680
  364TIP3    H222728   3.616   3.961   1.819  0.4240 -1.6741 -1.2099
  365TIP3   OH222729   5.423   2.586   2.973  0.2199  0.2379 -0.1646
  365TIP3    H122730   5.498   2.596   2.914  1.0031 -0.1339  0.7528
  365TIP3    H222731   5.376   2.669   2.965  0.6720  0.4394 -0.8250
  366TIP3   OH222732   3.737   6.490   2.538 -0.0296 -0.4205  0.1369
  366TIP3    H122733   3.743   6.546   2.616  1.5292  1.0439 -0.9538
  366TIP3    H222734   3.827   6.463   2.521 -0.0613  0.6804 -2.0827
  367TIP3   OH222735   2.088   5.423   0.314  0.6951 -0.2587 -0.3341
  367TIP3    H122736   2.068   5.334   0.287  0.3881 -0.8193  1.5943
  367TIP3    H222737   2.022   5.477   0.271 -0.5135 -1.2422  0.2178
  368TIP3   OH222738   3.748   4.280   1.936 -0.5895 -0.0805  0.3363
  368TIP3    H122739   3.747   4.343   2.008 -1.7642 -0.0315  0.2913
  368TIP3    H222740   3.685   4.213   1.963 -0.2953 -0.5764 -0.1984
  369TIP3   OH222741   4.001   5.577   1.463 -0.1675  0.0918 -0.0038
  369TIP3    H122742   4.053   5.638   1.517 -1.7167  1.0974  0.4449
  369TIP3    H222743   3.988   5.501   1.519 -0.1002  0.2960  0.2926
  370TIP3   OH222744   0.148   4.782   8.679  0.6233 -0.0162  0.3756
  370TIP3    H122745   0.185   4.856   8.631 -0.3245 -0.4894 -1.1697
  370TIP3    H222746   0.158   4.708   8.619 -1.2495 -0.4907  0.5985
  371TIP3   OH222747   4.498   0.659   6.974 -1.0902  0.1604  0.0098
  371TIP3    H122748   4.434   0.724   7.002 -0.5996  0.3346  0.7576
  371TIP3    H222749   4.519   0.683   6.884 -0.4693  1.4118  0.4638
  372TIP3   OH222750   3.512   3.713   0.855 -0.2576 -0.2315 -0.4753
  372TIP3    H122751   3.507   3.750   0.943  1.6608 -1.1441  0.0569
  372TIP3    H222752   3.442   3.758   0.807 -0.9689  0.7090  1.3333
  373TIP3   OH222753   0.900   1.585   0.105 -0.1527 -0.1504 -0.1101
  373TIP3    H122754   0.845   1.650   0.062  0.5339  1.8450  1.8644
  373TIP3    H222755   0.913   1.619   0.193  0.5154 -2.8355  0.9254
  374TIP3   OH222756   4.292   3.696   0.421  0.2908 -0.5264 -0.3972
  374TIP3    H122757   4.350   3.745   0.363 -0.9332  1.3367 -0.1355
  374TIP3    H222758   4.241   3.639   0.363  1.4135 -1.2084 -0.7539
  375TIP3   OH222759   5.090   0.062   8.150  0.4368 -0.0734  0.0680
  375TIP3    H122760   5.145   0.139   8.137 -2.0093  1.8382  0.3078
  375TIP3    H222761   5.058   0.040   8.063  1.3837 -1.0905 -0.0499
  376TIP3   OH222762   1.600   3.893   6.836  0.5529  0.1558  0.3900
  376TIP3    H122763   1.679   3.851   6.802 -0.1648  1.5495 -3.5762
  376TIP3    H222764   1.528   3.835   6.809  0.0087 -1.6869  4.9005
  377TIP3   OH222765   6.679   1.234   7.695 -0.4107  0.5447  0.2450
  377TIP3    H122766   6.594   1.210   7.733 -1.1051  0.4485 -1.3053
  377TIP3    H222767   6.685   1.181   7.615  0.8980  0.9127  0.0823
  378TIP3   OH222768   5.756   6.076   0.722  0.2355  0.2892 -0.0553
  378TIP3    H122769   5.698   6.054   0.650 -1.2537 -2.3853  1.7759
  378TIP3    H222770   5.752   6.172   0.728 -1.2909  0.4232 -2.1047
  379TIP3   OH222771   1.027   4.103   8.578  0.0290 -0.6649 -0.4603
  379TIP3    H122772   1.071   4.026   8.541  0.7563 -1.2755  1.5527
  379TIP3    H222773   1.054   4.105   8.669 -1.3178  1.0426 -0.0380
  380TIP3   OH222774   0.020   2.964   0.546 -0.3328 -0.1862 -0.5161
  380TIP3    H122775  -0.003   3.027   0.478 -0.7075  0.5994  0.3186
  380TIP3    H222776  -0.051   2.900   0.544 -0.5101  0.0137 -0.6495
  381TIP3   OH222777   0.284   1.986   7.400 -0.4924  0.2786 -0.1345
  381TIP3    H122778   0.312   1.901   7.365  0.0012  0.9555 -1.4579
  381TIP3    H222779   0.214   2.014   7.341 -2.4668 -0.3340  1.7960
  382TIP3   OH222780   3.474   0.334   8.689  0.2948  0.0355 -0.1471
  382TIP3    H122781   3.529   0.259   8.713 -0.5233 -0.8291 -0.8969
  382TIP3    H222782   3.506   0.361   8.603 -0.2900 -0.3370 -0.4920
  383TIP3   OH222783   1.690   4.600   0.564 -0.3621 -0.0158  0.2765
  383TIP3    H122784   1.663   4.688   0.539  1.3256  1.5560  3.4443
  383TIP3    H222785   1.616   4.566   0.614 -0.8115 -0.2303 -0.5174
  384TIP3   OH222786   5.710   0.814   8.526  0.4063  0.4654 -0.1902
  384TIP3    H122787   5.665   0.822   8.442 -0.2650 -0.3183  0.0676
  384TIP3    H222788   5.653   0.860   8.588  0.0007 -0.4065  0.1134
  385TIP3   OH222789   6.165   3.458   0.083  0.9719 -0.1099 -0.2448
  385TIP3    H122790   6.169   3.466   0.178 -0.6981  1.1548 -0.2334
  385TIP3    H222791   6.103   3.387   0.068  1.0459 -0.1432 -0.3919
  386TIP3   OH222792   6.505   2.975   0.677  0.3527 -0.2623 -0.3245
  386TIP3    H122793   6.509   2.957   0.583  2.3869  1.1069 -0.5782
  386TIP3    H222794   6.540   2.897   0.719  1.2965 -0.1410 -0.8582
  387TIP3   OH222795   6.397   3.322   1.411 -1.0455 -0.0947 -0.2226
  387TIP3    H122796   6.347   3.379   1.353  0.4136  0.2121 -1.2277
  387TIP3    H222797   6.487   3.352   1.402 -0.5692 -1.1128  0.9665
  388TIP3   OH222798   4.279   2.033   1.888  0.1466  0.5693 -0.3147
  388TIP3    H122799   4.354   2.075   1.847  0.4893  0.1575 -0.1172
  388TIP3    H222800   4.317   1.971   1.950 -0.3619  0.9096  0.3492
  389TIP3   OH222801   2.713   1.024   8.301  0.5821  0.5520  0.3788
  389TIP3    H122802   2.753   1.085   8.362 -0.7201  0.3314  1.4871
  389TIP3    H222803   2.737   0.937   8.333 -0.1447  0.4335  0.6221
  390TIP3   OH222804   4.630   0.570   8.555 -0.3612 -0.3007  0.1842
  390TIP3    H122805   4.622   0.538   8.465  0.7112 -3.9982  1.1951
  390TIP3    H222806   4.542   0.559   8.592 -0.4561 -0.2086 -0.0135
  391TIP3   OH222807   2.548   5.603   0.498  0.2431 -1.2674 -0.2349
  391TIP3    H122808   2.641   5.594   0.520  0.2320 -1.0815 -0.1049
  391TIP3    H222809   2.513   5.661   0.565  0.1354 -0.9654 -0.5443
  392TIP3   OH222810   1.724   2.886   7.847  0.1260 -0.0120  0.3617
  392TIP3    H122811   1.771   2.898   7.764  0.7256 -0.5061  0.6185
  392TIP3    H222812   1.654   2.951   7.845  0.6788  0.5748 -0.1426
  393TIP3   OH222813   1.971   3.856   0.478  0.2093 -0.2680  0.1078
  393TIP3    H122814   1.990   3.771   0.438  0.0748 -0.6382  0.8240
  393TIP3    H222815   2.031   3.916   0.434  1.0722 -0.9295  0.3490
  394TIP3   OH222816   0.534   3.470   2.992 -0.1035  0.0695 -0.3764
  394TIP3    H122817   0.568   3.559   2.996  1.2441 -0.4633  1.7188
  394TIP3    H222818   0.471   3.472   2.921  1.1906  2.2306 -1.5936
  395TIP3   OH222819   0.353   3.551   7.831  0.5387 -0.1948 -0.2486
  395TIP3    H122820   0.353   3.600   7.749  2.5039 -0.9456 -0.7343
  395TIP3    H222821   0.312   3.467   7.808  1.1938 -0.4499 -0.5073
  396TIP3   OH222822   1.689   6.405   0.108 -0.3962  0.0473  0.2116
  396TIP3    H122823   1.608   6.456   0.100 -1.0636 -0.8171  1.1329
  396TIP3    H222824   1.708   6.406   0.202 -0.9753 -2.1837  0.4036
  397TIP3   OH222825   1.988   4.732   0.863 -0.2380 -0.2728 -0.5575
  397TIP3    H122826   2.039   4.719   0.783  2.0716 -0.0859  0.7821
  397TIP3    H222827   1.963   4.644   0.890  1.3793 -0.6162 -0.0677
  398TIP3   OH222828   5.595   2.771   7.675  0.0029 -0.3466  0.1051
  398TIP3    H122829   5.561   2.810   7.594 -0.7372 -0.3870  0.3842
  398TIP3    H222830   5.672   2.823   7.696 -1.1762  1.2663  0.6867
  399TIP3   OH222831   5.116   5.689   0.371  0.5549  0.2532  0.0581
  399TIP3    H122832   5.176   5.695   0.297  0.4649  1.2321  0.0555
  399TIP3    H222833   5.073   5.775   0.375 -0.4637 -0.2520  0.3828
  400TIP3   OH222834   0.679   0.027   8.144 -0.0214  0.1646  0.6342
  400TIP3    H122835   0.771   0.005   8.162 -0.3031 -2.3950 -0.6371
  400TIP3    H222836   0.629  -0.041   8.191 -1.1688  0.2198 -0.4688
  401TIP3   OH222837   4.630   3.457   7.973 -0.3627 -0.3890 -0.2666
  401TIP3    H122838   4.539   3.485   7.967 -0.6434 -1.3539 -0.7406
  401TIP3    H222839   4.678   3.520   7.919 -0.6709  0.3781  0.3275
  402TIP3   OH222840   0.336   6.419   2.205 -0.3900  0.1838 -0.1639
  402TIP3    H122841   0.397   6.412   2.133 -0.9801  0.2856 -0.6839
  402TIP3    H222842   0.341   6.510   2.233  0.5974 -0.0912  0.6173
  403TIP3   OH222843   3.915   4.973   2.364  0.6291 -0.4578 -0.6127
  403TIP3    H122844   3.987   4.985   2.427  0.2093 -0.7544 -0.0699
  403TIP3    H222845   3.952   5.002   2.280  1.0052  0.5231 -0.1319
  404TIP3   OH222846   6.272   5.035   1.280  0.3831  0.0676  0.6641
  404TIP3    H122847   6.314   5.085   1.349  0.3995  0.6473  0.2380
  404TIP3    H222848   6.339   5.025   1.212  0.3558 -0.4665  0.7041
  405TIP3   OH222849   3.608   1.277   6.954  0.1632  0.1943 -0.2005
  405TIP3    H122850   3.682   1.326   6.919 -0.6020  1.0228 -0.7093
  405TIP3    H222851   3.647   1.199   6.994  1.7264  2.2994  2.7960
  406TIP3   OH222852   3.867   2.580   0.759  0.0700 -0.3679 -0.0326
  406TIP3    H122853   3.934   2.617   0.817  1.2990 -0.6545 -1.2041
  406TIP3    H222854   3.805   2.651   0.746  0.3121  0.0149  0.8420
  407TIP3   OH222855   6.376   2.567   0.647 -0.6816 -0.2351 -0.3971
  407TIP3    H122856   6.385   2.578   0.552  1.1870 -0.7284 -0.3095
  407TIP3    H222857   6.390   2.473   0.662 -0.8122 -0.1372  0.3796
  408TIP3   OH222858   6.721   5.969   0.469  0.2413  0.0686  0.2952
  408TIP3    H122859   6.810   5.950   0.438  0.5836  2.6982 -0.5265
  408TIP3    H222860   6.732   5.995   0.560  0.0608 -1.1613  0.6936
  409TIP3   OH222861   3.157   4.836   7.760 -0.0593  0.2876  0.2776
  409TIP3    H122862   3.158   4.849   7.665  1.9380  0.5452  0.3013
  409TIP3    H222863   3.236   4.880   7.792 -0.1309 -0.6947  1.9410
  410TIP3   OH222864   5.684   5.536   0.829  0.5578 -0.1301 -0.2725
  410TIP3    H122865   5.727   5.509   0.909  1.1366  0.6563 -0.3032
  410TIP3    H222866   5.602   5.487   0.828  0.2287  0.3474  1.1411
  411TIP3   OH222867   0.308   6.259   2.432  0.1520 -0.6109 -0.1452
  411TIP3    H122868   0.325   6.306   2.350  1.2788 -0.5108  0.1271
  411TIP3    H222869   0.368   6.184   2.430  0.0513 -0.7149  0.4944
  412TIP3   OH222870   4.473   2.817   0.844 -0.0084 -0.0094 -0.8080
  412TIP3    H122871   4.408   2.752   0.816 -0.9768 -0.4418  2.1564
  412TIP3    H222872   4.421   2.889   0.881  1.1473  1.1338 -1.3061
  413TIP3   OH222873   2.311   6.742   8.079 -0.2534  0.2460  0.3343
  413TIP3    H122874   2.380   6.799   8.112  0.6259 -1.2950  1.2725
  413TIP3    H222875   2.295   6.680   8.151 -1.5283 -0.3649 -0.4489
  414TIP3   OH222876   0.540   3.911   1.255  0.2789 -0.2927 -0.1722
  414TIP3    H122877   0.495   3.962   1.187 -1.2277 -1.0479  0.2110
  414TIP3    H222878   0.571   3.833   1.209 -2.4622 -1.7775  0.2793
  415TIP3   OH222879   3.450   5.061   8.076  0.4783 -0.0551  0.1371
  415TIP3    H122880   3.518   5.123   8.050  1.7776 -1.0891  0.9211
  415TIP3    H222881   3.409   5.102   8.152  1.2467 -0.0754  0.5816
  416TIP3   OH222882   2.739   6.809   3.215 -0.7329 -0.4733  1.0155
  416TIP3    H122883   2.691   6.886   3.184 -0.7298  0.2798  2.7803
  416TIP3    H222884   2.813   6.801   3.156 -1.7875 -0.3092 -0.3870
  417TIP3   OH222885   1.515   4.013   2.732 -0.1185  0.9054  0.3857
  417TIP3    H122886   1.606   4.029   2.706  0.1235 -0.5151  0.2621
  417TIP3    H222887   1.497   4.080   2.798  1.1765  0.9294  0.7434
  418TIP3   OH222888   3.974   3.723   8.361  0.1040  0.3103  0.0768
  418TIP3    H122889   3.918   3.794   8.392  4.1112  4.4352 -1.0228
  418TIP3    H222890   4.027   3.700   8.437 -0.1724 -0.4776  0.0350
  419TIP3   OH222891   6.538   6.129   0.776  0.1546 -0.4779 -0.6555
  419TIP3    H122892   6.467   6.071   0.803  1.9474 -2.8663 -0.8285
  419TIP3    H222893   6.600   6.128   0.848  0.8057  0.2902 -1.1803
  420TIP3   OH222894   2.960   0.238   0.633  0.2733 -0.0518  0.2919
  420TIP3    H122895   3.031   0.266   0.574  0.6718 -2.0806 -0.3057
  420TIP3    H222896   2.940   0.315   0.685  2.5906  0.7420  0.1394
  421TIP3   OH222897   2.634   2.854   1.976  0.8389 -0.3287 -0.3835
  421TIP3    H122898   2.543   2.875   1.998  1.7365  2.1126  1.4916
  421TIP3    H222899   2.637   2.860   1.881 -1.2952 -2.1813 -0.6404
  422TIP3   OH222900   5.333   0.942   6.852  0.3677  0.0148 -0.1333
  422TIP3    H122901   5.261   0.962   6.793  0.0657  0.4801  0.3883
  422TIP3    H222902   5.310   0.859   6.892  1.0018 -0.7661 -1.3271
  423TIP3   OH222903   0.579   6.703   8.317 -0.1504  0.6460 -0.4500
  423TIP3    H122904   0.594   6.611   8.337  1.7643  0.6061 -1.7218
  423TIP3    H222905   0.572   6.746   8.402 -2.6914 -0.8523  0.1699
  424TIP3   OH222906   5.928   5.698   0.326 -0.1306 -0.7098 -0.3751
  424TIP3    H122907   5.944   5.655   0.242 -1.2363 -2.8287  0.4197
  424TIP3    H222908   6.016   5.720   0.359  0.4791 -2.1262 -0.9717
  425TIP3   OH222909   0.521   2.689   0.752 -0.0262 -0.3255  0.1298
  425TIP3    H122910   0.535   2.749   0.825  0.5001 -0.3689  0.0637
  425TIP3    H222911   0.426   2.677   0.749 -0.0520 -0.3381  0.8236
  426TIP3   OH222912   6.561   5.881   2.622 -0.0501 -0.0073 -0.4401
  426TIP3    H122913   6.648   5.872   2.662 -0.0323  1.2724 -0.1270
  426TIP3    H222914   6.545   5.797   2.579  0.9417 -0.5896  0.2867
  427TIP3   OH222915   0.478   0.525   2.814  0.2621 -0.1993 -0.9840
  427TIP3    H122916   0.420   0.601   2.825 -0.0521 -0.7688  1.7466
  427TIP3    H222917   0.550   0.541   2.874  1.6655 -0.7698 -2.4371
  428TIP3   OH222918   0.726   6.612   1.419  0.2812  0.0032 -0.9451
  428TIP3    H122919   0.783   6.582   1.348  2.7136  0.5869  0.6104
  428TIP3    H222920   0.678   6.534   1.447  1.8481 -1.0359 -1.0347
  429TIP3   OH222921   2.815   3.337   8.408  0.3609  0.0008 -0.1112
  429TIP3    H122922   2.848   3.250   8.428 -0.7376 -0.3736  0.1258
  429TIP3    H222923   2.852   3.358   8.322  0.7929 -0.6164 -0.0777
  430TIP3   OH222924   6.196   2.728   0.454  0.1879 -0.2099 -0.4161
  430TIP3    H122925   6.285   2.706   0.427  0.1682 -0.9805  0.1148
  430TIP3    H222926   6.207   2.775   0.536  0.1463  0.4289 -0.7738
  431TIP3   OH222927   6.327   2.037   7.615  0.2593 -0.9133 -0.0396
  431TIP3    H122928   6.256   1.998   7.667  0.8656  0.7356  2.1647
  431TIP3    H222929   6.283   2.091   7.550 -0.5118 -0.8051  0.5657
  432TIP3   OH222930   1.137   2.960   7.738  0.0766 -0.1259  0.6961
  432TIP3    H122931   1.112   2.965   7.830  0.7303  0.7436  0.8342
  432TIP3    H222932   1.211   2.900   7.736  1.2890  1.3119  1.0211
  433TIP3   OH222933   2.108   2.712   7.309  0.3193  0.3103  0.0709
  433TIP3    H122934   2.048   2.666   7.250  0.5892  2.3343 -1.9022
  433TIP3    H222935   2.195   2.693   7.274  0.6725 -0.3345  1.2500
  434TIP3   OH222936   1.413   3.748   0.459  0.8808 -0.2433  0.7728
  434TIP3    H122937   1.397   3.760   0.365 -0.2165  0.2885  1.0090
  434TIP3    H222938   1.452   3.661   0.466 -2.0989 -1.7530  0.1052
  435TIP3   OH222939   3.904   3.889   7.032 -0.1686  1.0100  0.3578
  435TIP3    H122940   3.839   3.951   7.063 -0.3349  0.8099  0.4083
  435TIP3    H222941   3.932   3.924   6.947 -0.8610  0.7209  0.0050
  436TIP3   OH222942   3.871   6.686   8.087 -0.1585  0.2597  0.1188
  436TIP3    H122943   3.865   6.600   8.129 -1.0022 -0.0188 -0.5645
  436TIP3    H222944   3.792   6.733   8.115 -0.5796  0.1810 -0.9065
  437TIP3   OH222945   4.753   3.977   8.397  0.1718 -0.5491  0.3254
  437TIP3    H122946   4.761   4.041   8.326 -1.6698 -0.5858  0.0326
  437TIP3    H222947   4.768   4.027   8.477  2.0528 -0.4631 -0.0409
  438TIP3   OH222948   1.502   2.785   7.301  0.2949  0.1885  0.3760
  438TIP3    H122949   1.485   2.842   7.226  0.8383  0.7347  0.6566
  438TIP3    H222950   1.595   2.767   7.296  0.1121 -0.7441  0.2552
  439TIP3   OH222951   4.731   1.667   1.405 -0.0917  0.6894  0.1629
  439TIP3    H122952   4.718   1.575   1.428 -1.3698  0.4812 -1.2379
  439TIP3    H222953   4.649   1.694   1.363  1.3006  1.5330 -2.2827
  440TIP3   OH222954   0.055   3.820   2.925 -0.0323  0.8581 -0.0934
  440TIP3    H122955   0.123   3.765   2.965  0.7053  1.8137  0.0159
  440TIP3    H222956  -0.020   3.812   2.983 -0.1052 -0.4016 -0.3388
  441TIP3   OH222957   3.675   6.667   7.661  0.2388  0.7408  0.2790
  441TIP3    H122958   3.667   6.694   7.569 -1.6859 -2.1380 -0.5543
  441TIP3    H222959   3.701   6.575   7.656 -0.4893  0.3442  2.5964
  442TIP3   OH222960   5.470   2.228   2.307 -0.9708 -0.0628 -0.6718
  442TIP3    H122961   5.385   2.203   2.272 -0.7299  0.2565 -1.5117
  442TIP3    H222962   5.460   2.320   2.332 -1.0348 -0.1867 -0.2363
  443TIP3   OH222963   5.789   1.521   3.028 -0.2331  0.3033  0.2501
  443TIP3    H122964   5.746   1.443   2.993 -0.2345 -0.0778  1.0816
  443TIP3    H222965   5.737   1.545   3.105 -0.0625  0.9509  0.1703
  444TIP3   OH222966   4.543   3.385   2.184 -0.0224  0.0027  0.4190
  444TIP3    H122967   4.564   3.428   2.102  0.4494  0.6877  0.8836
  444TIP3    H222968   4.604   3.423   2.247  0.6974 -1.6577  0.7647
  445TIP3   OH222969   1.161   6.315   3.263  0.5404 -0.0073 -0.2973
  445TIP3    H122970   1.245   6.350   3.291  1.1218 -1.2377 -0.4340
  445TIP3    H222971   1.096   6.370   3.307  1.3949  1.1218 -0.3992
  446TIP3   OH222972   3.983   6.274   0.488  0.3865  0.5429 -0.0756
  446TIP3    H122973   4.013   6.265   0.578 -0.5487  0.6190  0.2556
  446TIP3    H222974   4.052   6.235   0.435 -0.0644 -1.5721  0.8145
  447TIP3   OH222975   5.620   4.453   7.102  0.2602 -0.6111 -0.0269
  447TIP3    H122976   5.714   4.471   7.105  0.3605 -0.6303 -1.9173
  447TIP3    H222977   5.608   4.400   7.023 -1.3864 -0.3089 -0.0191
  448TIP3   OH222978   5.331   4.098   6.869 -0.0049 -0.0484 -0.6597
  448TIP3    H122979   5.356   4.071   6.957  1.2054  1.1471 -0.6043
  448TIP3    H222980   5.271   4.029   6.839 -1.9428  0.4204  1.7553
  449TIP3   OH222981   3.751   0.106   0.536 -0.8135  0.5768  0.3946
  449TIP3    H122982   3.678   0.044   0.533 -0.1544 -0.2311  0.4356
  449TIP3    H222983   3.728   0.173   0.472 -1.4120  0.1173  0.1141
  450TIP3   OH222984   2.691   4.038   1.588  0.5434  0.4396  0.8037
  450TIP3    H122985   2.644   4.050   1.671 -0.0019  1.3866  0.3823
  450TIP3    H222986   2.621   4.029   1.523  0.9685 -0.4728  0.4575
  451TIP3   OH222987   6.276   2.352   1.268  0.5253 -0.4697 -0.2716
  451TIP3    H122988   6.367   2.375   1.251  0.9743 -2.0679 -0.1286
  451TIP3    H222989   6.241   2.327   1.182 -0.0236  0.8434 -0.4625
  452TIP3   OH222990   1.153   3.934   8.344  0.7334 -0.6011 -0.3556
  452TIP3    H122991   1.162   3.981   8.261  0.4600 -0.3679 -0.2558
  452TIP3    H222992   1.220   3.973   8.400  0.0968  0.1216 -0.0716
  453TIP3   OH222993   6.628   6.650   0.114  0.2586 -0.5812 -0.3759
  453TIP3    H122994   6.590   6.737   0.129 -0.0415 -0.3900 -2.0636
  453TIP3    H222995   6.649   6.618   0.202 -0.7075  0.7036  0.3612
  454TIP3   OH222996   6.515   2.612   2.661  0.9582 -0.3920 -0.3977
  454TIP3    H122997   6.515   2.669   2.738  0.4856 -0.0544 -0.6433
  454TIP3    H222998   6.431   2.567   2.666  0.8471 -0.2295 -0.8214
  455TIP3   OH222999   4.601   2.648   1.880 -0.7288  0.0058  0.5208
  455TIP3    H123000   4.683   2.695   1.895  0.0103 -0.8579 -0.5984
  455TIP3    H223001   4.612   2.566   1.928 -1.0750  0.0196  0.6272
  456TIP3   OH223002   1.108   5.683   7.074 -0.4916 -0.5605 -0.2798
  456TIP3    H123003   1.126   5.730   6.993 -2.1131  4.3612  1.8242
  456TIP3    H223004   1.029   5.633   7.057 -0.9605  0.6192 -1.6886
  457TIP3   OH223005   3.169   3.425   8.441 -0.0961  0.3556  0.6441
  457TIP3    H123006   3.082   3.465   8.441 -0.8636 -1.2050 -0.0210
  457TIP3    H223007   3.220   3.476   8.378 -1.0768  0.2365 -0.2706
  458TIP3   OH223008   5.207   0.685   8.474  0.2784  0.8533 -0.5472
  458TIP3    H123009   5.233   0.600   8.510  0.7908  1.1774 -0.1388
  458TIP3    H223010   5.129   0.709   8.524 -0.2757  0.3146 -1.1305
  459TIP3   OH223011   4.107   0.195   1.605  0.8272 -0.1552  0.1014
  459TIP3    H123012   4.069   0.271   1.560  1.6931 -0.2978 -0.9192
  459TIP3    H223013   4.192   0.183   1.563  0.8082 -1.5507  0.4164
  460TIP3   OH223014   5.249   3.351   0.672 -0.2961  0.3337 -0.2430
  460TIP3    H123015   5.316   3.328   0.608 -1.9013  0.5833 -2.1080
  460TIP3    H223016   5.193   3.414   0.626 -2.1055 -0.2749  1.0418
  461TIP3   OH223017   1.294   4.369   0.885  0.3943 -0.7225 -0.2666
  461TIP3    H123018   1.256   4.284   0.909  1.0554 -1.3051 -1.1767
  461TIP3    H223019   1.382   4.367   0.923 -0.0950  0.2022  0.9821
  462TIP3   OH223020   0.334   6.125   8.576  0.4673 -0.4800  0.0253
  462TIP3    H123021   0.420   6.167   8.566 -0.1773  0.6591 -0.9909
  462TIP3    H223022   0.274   6.181   8.527 -1.0698 -0.6293  1.6212
  463TIP3   OH223023   0.463   3.994   0.443  0.0033 -0.1022 -0.6600
  463TIP3    H123024   0.384   3.998   0.390  0.6979  0.2142 -1.6918
  463TIP3    H223025   0.525   3.945   0.390  0.4999 -0.3641  0.1474
  464TIP3   OH223026   6.289   6.804   7.004  0.0717 -0.2758  0.3784
  464TIP3    H123027   6.351   6.856   6.953 -0.2487 -0.5408 -0.2794
  464TIP3    H223028   6.343   6.737   7.047  0.2848 -0.2930  0.0823
  465TIP3   OH223029   6.404   6.398   6.871 -0.2475  0.6125  0.3912
  465TIP3    H123030   6.386   6.320   6.819 -0.7626  0.6263  0.5484
  465TIP3    H223031   6.337   6.398   6.939  0.2537  0.7415  0.8956
  466TIP3   OH223032   2.731   3.670   8.190  0.1052 -0.3668  0.2981
  466TIP3    H123033   2.727   3.759   8.155  0.2060 -0.5422 -0.1675
  466TIP3    H223034   2.754   3.615   8.115 -0.2705 -0.8297  0.5128
  467TIP3   OH223035   3.759   6.578   1.427  0.1166  0.1890 -0.3521
  467TIP3    H123036   3.721   6.516   1.365 -1.4597 -0.7983  1.5097
  467TIP3    H223037   3.751   6.663   1.382  0.3991 -0.6526 -2.0843
  468TIP3   OH223038   4.786   3.575   0.876 -0.2689 -0.5094 -0.0258
  468TIP3    H123039   4.751   3.494   0.838  0.8034 -0.3525 -1.4045
  468TIP3    H223040   4.854   3.546   0.937 -0.8305 -0.6806  0.5411
  469TIP3   OH223041   2.684   5.325   1.344 -0.8664  0.1941  0.4234
  469TIP3    H123042   2.766   5.320   1.392 -0.7721 -1.8001  0.1587
  469TIP3    H223043   2.652   5.414   1.359  0.9790  0.7800  1.1019
  470TIP3   OH223044   1.825   2.207   0.065  0.5509 -0.9349  0.1463
  470TIP3    H123045   1.795   2.248   0.146  1.1705 -0.0794 -0.0366
  470TIP3    H223046   1.751   2.154   0.035 -0.4366  0.3847  0.1780
  471TIP3   OH223047   5.009   3.579   8.281  0.4306  0.6664 -0.0727
  471TIP3    H123048   5.082   3.558   8.223 -0.0712 -0.0226 -0.4855
  471TIP3    H223049   4.996   3.500   8.334  0.1780  0.8862  0.1989
  472TIP3   OH223050   1.473   2.737   1.993  0.2902 -0.1273 -0.0495
  472TIP3    H123051   1.557   2.691   1.988 -0.0478 -0.7243 -0.2852
  472TIP3    H223052   1.439   2.734   1.904  0.5928  1.2167 -0.2264
  473TIP3   OH223053   6.522   2.139   2.329 -0.0389 -0.6300  0.4665
  473TIP3    H123054   6.562   2.226   2.327 -1.4353  0.0418 -0.7340
  473TIP3    H223055   6.553   2.099   2.410  0.1933  1.2086  1.3334
  474TIP3   OH223056   1.787   1.708   2.427 -0.3360  0.4446 -0.0330
  474TIP3    H123057   1.719   1.763   2.390  0.8280  1.3000 -0.9989
  474TIP3    H223058   1.803   1.641   2.360  0.1757  0.6277 -0.1069
  475TIP3   OH223059   2.190   0.071   2.241 -0.4973 -0.4157  0.6062
  475TIP3    H123060   2.165   0.158   2.272  0.5086  0.0090  0.2579
  475TIP3    H223061   2.107   0.030   2.215 -1.0658  0.1461  1.4870
  476TIP3   OH223062   4.227   6.610   1.584 -0.5838  0.7043 -0.0098
  476TIP3    H123063   4.182   6.694   1.596 -0.5744  0.7576 -0.3496
  476TIP3    H223064   4.185   6.571   1.508  0.3433  1.0249 -0.7076
  477TIP3   OH223065   0.125   5.489   0.268 -0.2688  0.4768 -0.4906
  477TIP3    H123066   0.095   5.414   0.216  0.2171  0.1173 -0.2595
  477TIP3    H223067   0.213   5.508   0.235 -0.5275  1.1914 -0.8000
  478TIP3   OH223068   1.005   2.735   2.567 -0.2465  0.0340  0.1888
  478TIP3    H123069   0.987   2.641   2.557 -2.3162 -0.0142  2.9613
  478TIP3    H223070   1.070   2.739   2.637 -0.0996  0.6548  0.0167
  479TIP3   OH223071   6.771   0.936   2.034  0.8025 -0.2622  0.5649
  479TIP3    H123072   6.817   0.981   2.104  2.9791  1.4149 -1.7980
  479TIP3    H223073   6.752   1.003   1.970 -0.4134 -1.8632 -0.8513
  480TIP3   OH223074   4.785   3.929   0.147  0.1282  0.4422 -0.6036
  480TIP3    H123075   4.728   3.997   0.109 -0.1747 -0.4934 -1.8759
  480TIP3    H223076   4.868   3.938   0.100  1.0876  1.7664  1.2094
  481TIP3   OH223077   5.045   1.338   7.124  0.6032 -0.1108  0.2249
  481TIP3    H123078   5.058   1.305   7.213  1.5612 -1.1771 -0.2896
  481TIP3    H223079   5.085   1.425   7.125  2.4204 -0.9199  0.3189
  482TIP3   OH223080   3.929   2.925   2.758  0.4776  0.3265  0.4205
  482TIP3    H123081   4.013   2.954   2.723  1.1165 -0.4874  1.2206
  482TIP3    H223082   3.864   2.980   2.714  1.4331  1.0517 -0.1227
  483TIP3   OH223083   1.615   4.990   0.112  0.3807 -0.8175  0.4992
  483TIP3    H123084   1.675   4.925   0.148  0.5431  0.0191  1.8383
  483TIP3    H223085   1.539   4.987   0.171 -1.2716 -2.3397 -1.5382
  484TIP3   OH223086   3.607   2.665   2.572  0.5108 -0.5097  0.2046
  484TIP3    H123087   3.606   2.620   2.488  0.4186  1.0473 -0.6773
  484TIP3    H223088   3.547   2.615   2.627 -1.6043 -0.0462 -1.5202
  485TIP3   OH223089   6.273   3.535   7.127  0.5481 -0.4134  0.3714
  485TIP3    H123090   6.328   3.516   7.203 -0.0286  0.4805  1.0226
  485TIP3    H223091   6.213   3.460   7.123  0.7034 -0.5599  0.6793
  486TIP3   OH223092   5.750   5.036   0.236 -0.9987 -0.1305  0.2499
  486TIP3    H123093   5.749   5.035   0.140  1.1388 -1.4512  0.1881
  486TIP3    H223094   5.658   5.051   0.261 -1.9955 -2.0340 -1.9680
  487TIP3   OH223095   4.329   4.858   7.826  0.0907  0.5893  0.1722
  487TIP3    H123096   4.268   4.798   7.784  0.2933  1.7387 -1.9273
  487TIP3    H223097   4.388   4.802   7.875  0.4179 -0.9876 -1.8826
  488TIP3   OH223098   4.726   1.002   8.273  0.2374 -0.3171 -0.4144
  488TIP3    H123099   4.820   0.992   8.287  0.0632 -1.3558  0.1015
  488TIP3    H223100   4.686   0.947   8.340 -0.7624  0.8584 -0.0150
  489TIP3   OH223101   4.887   0.937   1.026  0.5309  0.9159 -0.0040
  489TIP3    H123102   4.958   0.927   0.963  2.0298 -0.8941  1.8291
  489TIP3    H223103   4.909   1.018   1.073  3.0394 -0.8920  2.2932
  490TIP3   OH223104   5.384   5.161   2.358 -0.0368  0.6580  0.0223
  490TIP3    H123105   5.354   5.072   2.343  1.4474  0.1479 -0.0283
  490TIP3    H223106   5.395   5.167   2.453  1.7324  0.1348 -0.1229
  491TIP3   OH223107   4.883   3.709   2.770  0.3062 -0.1630  0.0684
  491TIP3    H123108   4.846   3.650   2.705  0.1669 -0.1102  0.1000
  491TIP3    H223109   4.808   3.746   2.816  0.4316 -1.5449  1.4533
  492TIP3   OH223110   0.925   3.485   1.354 -0.6216  0.1122  0.2377
  492TIP3    H123111   0.927   3.389   1.352  2.2449  0.0944 -1.0965
  492TIP3    H223112   0.905   3.510   1.264 -3.8935  0.8915  1.0624
  493TIP3   OH223113   1.239   2.474   1.683  0.0724 -0.0399  0.1870
  493TIP3    H123114   1.177   2.432   1.623  1.0216 -0.6700 -0.3715
  493TIP3    H223115   1.233   2.421   1.763  0.9483 -1.0175 -0.3688
  494TIP3   OH223116   2.545   6.524   7.010  0.5677 -0.3210  0.1229
  494TIP3    H123117   2.614   6.587   7.031  1.2409 -1.2895  0.8670
  494TIP3    H223118   2.590   6.440   7.007 -0.3014 -0.7726 -0.9751
  495TIP3   OH223119   3.514   6.042   6.637 -0.6400 -0.2542 -0.0476
  495TIP3    H123120   3.437   6.003   6.678 -1.4881  0.2695 -1.1218
  495TIP3    H223121   3.563   6.080   6.711 -1.4809 -0.4500  0.6295
  496TIP3   OH223122   2.464   6.242   0.524  0.5521 -0.2715  0.0629
  496TIP3    H123123   2.557   6.239   0.545  0.5315  0.1238  0.2159
  496TIP3    H223124   2.458   6.202   0.437  0.7684 -0.9781  0.3662
  497TIP3   OH223125   5.761   2.985   7.938  0.5815  0.2097  0.0607
  497TIP3    H123126   5.738   2.907   7.988  1.6036 -1.1870 -1.5596
  497TIP3    H223127   5.854   2.974   7.917  0.7905  1.9407 -0.0997
  498TIP3   OH223128   2.919   5.942   7.732 -0.2114  0.0043  0.3298
  498TIP3    H123129   2.865   5.995   7.790  0.8825 -0.5743  1.9530
  498TIP3    H223130   2.988   6.001   7.702  0.9483 -0.4059  2.0546
  499TIP3   OH223131   6.702   0.666   1.014  0.1497  0.3827  0.5444
  499TIP3    H123132   6.751   0.693   0.936 -0.5880  0.4490  0.0947
  499TIP3    H223133   6.720   0.733   1.079  0.1258  0.7549  0.1682
  500TIP3   OH223134   2.989   5.871   2.284  0.8501  0.3320  0.3201
  500TIP3    H123135   3.002   5.785   2.245  2.0475  0.9581 -0.7214
  500TIP3    H223136   2.938   5.854   2.363  3.8316 -1.7649  2.0054
  501TIP3   OH223137   5.274   2.459   2.262  0.3969 -0.3994 -0.1075
  501TIP3    H123138   5.295   2.546   2.229  1.9587 -0.4854  0.5621
  501TIP3    H223139   5.245   2.473   2.352  0.6665 -0.5620  0.0073
  502TIP3   OH223140   0.693   3.576   6.667 -0.6189 -0.1709 -0.6139
  502TIP3    H123141   0.633   3.540   6.732 -0.8173  0.4606 -0.4350
  502TIP3    H223142   0.777   3.534   6.684 -0.5268  0.4006  0.4242
  503TIP3   OH223143   4.467   3.207   0.909  0.1339  0.5893 -0.0404
  503TIP3    H123144   4.414   3.288   0.905 -0.5474  0.1781  0.3648
  503TIP3    H223145   4.402   3.137   0.910  0.6750  0.0834  0.8579
  504TIP3   OH223146   5.931   0.567   0.039 -0.3388  0.1126  0.4391
  504TIP3    H123147   5.928   0.514  -0.040  0.6368 -1.5633  1.4516
  504TIP3    H223148   5.867   0.526   0.098  1.1813 -0.6400  1.6202
  505TIP3   OH223149   1.329   3.257   8.069 -0.1454 -0.1504  0.1741
  505TIP3    H123150   1.381   3.314   8.013  0.8291 -0.9734  0.2129
  505TIP3    H223151   1.386   3.183   8.088 -1.2423 -0.9600  0.4428
  506TIP3   OH223152   4.774   2.757   8.696  0.1152 -0.1620 -0.3549
  506TIP3    H123153   4.864   2.782   8.718 -0.1514  0.6899 -0.2138
  506TIP3    H223154   4.768   2.768   8.601 -0.3238  1.4399 -0.1700
  507TIP3   OH223155   2.071   2.525   3.134  0.6947  0.1961  0.1732
  507TIP3    H123156   2.056   2.438   3.097 -0.8124  1.1745 -1.6349
  507TIP3    H223157   1.993   2.542   3.187  1.5092  0.0251  1.4774
  508TIP3   OH223158   4.077   2.479   8.674  0.6266  0.3199  0.4919
  508TIP3    H123159   4.139   2.440   8.614 -0.5789  0.2875 -0.7746
  508TIP3    H223160   4.049   2.560   8.631 -0.6016  0.0629  0.7722
  509TIP3   OH223161   5.421   1.415   2.009 -1.0799 -0.1002  0.1854
  509TIP3    H123162   5.445   1.323   1.995 -0.8654 -0.4624  2.6212
  509TIP3    H223163   5.474   1.463   1.945 -0.4380 -1.5639 -0.4435
  510TIP3   OH223164   5.750   2.646   2.380  0.1695 -0.3494  0.2484
  510TIP3    H123165   5.799   2.664   2.460  0.0964  3.7608 -0.3619
  510TIP3    H223166   5.817   2.649   2.311 -0.3928  2.6508 -0.3209
  511TIP3   OH223167   3.158   2.635   1.987 -0.5461  0.2349 -0.8191
  511TIP3    H123168   3.208   2.657   2.065  0.3954  1.0613 -1.6142
  511TIP3    H223169   3.168   2.711   1.930  0.8266 -1.2706 -2.7328
  512TIP3   OH223170   1.910   2.280   8.109 -0.2686  0.4679  0.1829
  512TIP3    H123171   1.937   2.262   8.018  1.6990  1.7573  0.4408
  512TIP3    H223172   1.930   2.199   8.156  0.4630  0.4051 -0.2147
  513TIP3   OH223173   6.837   5.135   2.210 -0.0870 -0.2535  0.1087
  513TIP3    H123174   6.835   5.047   2.249 -2.2979 -1.5816 -2.6813
  513TIP3    H223175   6.759   5.178   2.245  1.1281  0.8183  1.6773
  514TIP3   OH223176   3.264   3.555   1.425 -0.5025  0.0975 -0.1287
  514TIP3    H123177   3.331   3.601   1.476 -0.7928  1.3424 -0.8199
  514TIP3    H223178   3.302   3.550   1.336 -0.7243 -0.5038 -0.1956
  515TIP3   OH223179   1.488   3.920   8.308  0.5650 -0.2921  0.2002
  515TIP3    H123180   1.513   3.996   8.256 -0.9845 -0.8308 -1.4768
  515TIP3    H223181   1.457   3.956   8.391  0.8876  0.8188 -0.1487
  516TIP3   OH223182   4.509   4.835   1.070 -0.2999 -0.2564  0.8282
  516TIP3    H123183   4.552   4.756   1.038  1.3259  0.3266  1.4642
  516TIP3    H223184   4.441   4.802   1.129  0.4979 -1.1942  1.2620
  517TIP3   OH223185   3.654   1.118   1.204  0.0358 -0.4338 -0.7768
  517TIP3    H123186   3.568   1.115   1.247 -0.3084 -0.9921 -1.4815
  517TIP3    H223187   3.657   1.203   1.161 -0.5870 -0.8001 -1.5741
  518TIP3   OH223188   2.438   4.155   2.143  0.1583 -0.1457 -0.6598
  518TIP3    H123189   2.394   4.074   2.117 -0.6499  0.4342 -1.1351
  518TIP3    H223190   2.469   4.138   2.232  0.3567 -1.1145 -0.8997
  519TIP3   OH223191   3.397   5.763   7.249 -0.2404 -0.4494  0.2887
  519TIP3    H123192   3.404   5.676   7.209  0.6910  0.4173 -1.5921
  519TIP3    H223193   3.310   5.795   7.225  0.0817 -0.1847 -0.5773
  520TIP3   OH223194   5.706   3.816   2.506  0.9017 -0.4252 -0.3496
  520TIP3    H123195   5.631   3.873   2.489 -1.3364 -2.6071  1.4258
  520TIP3    H223196   5.747   3.853   2.584  0.7727 -0.0726 -0.4468
  521TIP3   OH223197   2.740   6.762   0.218  0.4726 -0.3359  0.3651
  521TIP3    H123198   2.750   6.810   0.300  0.8091 -0.9248  0.6756
  521TIP3    H223199   2.645   6.759   0.203  0.3829 -0.5668  0.9437
  522TIP3   OH223200   6.342   6.658   2.501 -0.3893 -0.2508 -0.5029
  522TIP3    H123201   6.350   6.651   2.597 -0.3150  0.2229 -0.4683
  522TIP3    H223202   6.305   6.575   2.474  0.6115 -0.8156 -0.1853
  523TIP3   OH223203   1.642   1.726   1.300  0.4888  0.1956  0.5431
  523TIP3    H123204   1.595   1.766   1.373 -1.2392 -0.8141  0.0352
  523TIP3    H223205   1.638   1.632   1.317 -0.2641 -0.0850 -0.9966
  524TIP3   OH223206   0.060   4.045   0.786  0.2001 -0.1768  0.1740
  524TIP3    H123207   0.013   3.970   0.748  1.5954 -0.9481 -0.1113
  524TIP3    H223208  -0.009   4.102   0.820 -0.8833 -2.0222  1.2327
  525TIP3   OH223209   0.357   6.820   8.627  0.1766  0.0089 -0.6314
  525TIP3    H123210   0.294   6.881   8.588 -0.8162 -1.0591 -0.7850
  525TIP3    H223211   0.361   6.748   8.564 -1.3477 -1.7031  1.0868
  526TIP3   OH223212   5.416   5.083   8.701  0.3595 -0.0878 -0.2301
  526TIP3    H123213   5.346   5.035   8.656  0.2674 -0.1870  0.0178
  526TIP3    H223214   5.419   5.045   8.788 -0.4626  1.0881  0.3426
  527TIP3   OH223215   2.388   5.876   2.835  0.1301 -0.5884 -0.1860
  527TIP3    H123216   2.361   5.929   2.910  0.0667 -2.6580  1.3483
  527TIP3    H223217   2.318   5.888   2.771 -1.1760 -0.7931  1.1426
  528TIP3   OH223218   4.970   0.480   7.511 -0.0970 -0.2436 -0.5097
  528TIP3    H123219   4.960   0.509   7.420  0.5140 -0.1451 -0.5468
  528TIP3    H223220   4.999   0.558   7.558 -0.6910 -0.2198 -0.1640
  529TIP3   OH223221   3.400   6.301   1.041  0.4024  0.7388 -0.7080
  529TIP3    H123222   3.328   6.312   0.979  1.7960  1.7563 -2.2208
  529TIP3    H223223   3.452   6.229   1.006 -1.2182 -1.8406  1.8076
  530TIP3   OH223224   0.388   4.916   3.075  0.0906  0.0033 -0.1789
  530TIP3    H123225   0.443   4.965   3.136 -2.0597  1.8945  0.3712
  530TIP3    H223226   0.305   4.905   3.121 -0.9836 -0.1603 -2.0568
  531TIP3   OH223227   5.300   5.000   1.224 -0.9494  0.4881  0.0134
  531TIP3    H123228   5.227   5.006   1.286 -0.5321 -0.7023  0.6617
  531TIP3    H223229   5.352   5.079   1.240 -0.7023  0.0756  1.4220
  532TIP3   OH223230   0.676   5.181   1.774 -0.8586 -0.4538  0.2103
  532TIP3    H123231   0.628   5.248   1.725  0.2399 -1.3152 -2.1639
  532TIP3    H223232   0.609   5.137   1.826 -2.0186  0.6837 -0.2701
  533TIP3   OH223233   5.424   4.683   2.793 -0.2905 -0.4216  0.5853
  533TIP3    H123234   5.393   4.593   2.800  2.8669 -1.7932 -1.0610
  533TIP3    H223235   5.355   4.728   2.744 -0.6662 -2.7339 -1.1788
  534TIP3   OH223236   3.574   6.830   1.560 -0.0146 -0.1578  0.5101
  534TIP3    H123237   3.570   6.918   1.598 -2.1330  0.2757 -0.5498
  534TIP3    H223238   3.551   6.842   1.468 -0.2489 -1.8067  0.3173
  535TIP3   OH223239   4.223   3.121   7.412 -0.0845 -0.1416  0.5280
  535TIP3    H123240   4.318   3.115   7.421  0.1262  0.1159 -1.0875
  535TIP3    H223241   4.210   3.153   7.322 -1.6160  2.1899  1.4594
  536TIP3   OH223242   3.303   5.990   3.084 -0.0097  0.1525  0.3164
  536TIP3    H123243   3.333   5.906   3.120  1.9248  0.0066 -1.4374
  536TIP3    H223244   3.273   5.969   2.996  1.7644  1.4253 -0.6710
  537TIP3   OH223245   0.916   4.564   2.654  0.6204 -0.0363 -0.5780
  537TIP3    H123246   0.952   4.607   2.732  1.4758 -2.0518  0.2100
  537TIP3    H223247   0.989   4.512   2.619 -0.9640 -2.8779  0.0466
  538TIP3   OH223248   4.814   4.993   7.502  0.0364 -0.0274 -0.2175
  538TIP3    H123249   4.905   4.984   7.530  0.1160  0.2016 -0.4055
  538TIP3    H223250   4.811   5.076   7.455  0.1240 -0.8522 -1.7273
  539TIP3   OH223251   3.377   3.239   2.355 -0.2125 -0.5378  0.0451
  539TIP3    H123252   3.356   3.232   2.262  0.6832  0.3902 -0.2544
  539TIP3    H223253   3.312   3.300   2.390 -0.2204 -0.4626 -0.0995
  540TIP3   OH223254   5.716   6.355   2.121 -0.1301  0.2592 -0.2832
  540TIP3    H123255   5.730   6.412   2.197  2.3993  0.1690 -0.5977
  540TIP3    H223256   5.720   6.266   2.157 -0.1392  0.2274 -0.3598
  541TIP3   OH223257   1.106   5.998   7.504  0.2341  0.4023  0.0507
  541TIP3    H123258   1.016   6.031   7.505 -0.5269 -1.4921 -1.1676
  541TIP3    H223259   1.144   6.034   7.424 -0.2559 -0.7028 -0.7121
  542TIP3   OH223260   6.154   3.417   7.940  0.4142 -0.1819 -0.2400
  542TIP3    H123261   6.239   3.406   7.983 -0.1105 -1.2687  0.5877
  542TIP3    H223262   6.097   3.453   8.007  0.7491  2.8471 -1.4532
  543TIP3   OH223263   4.390   2.556   1.631  0.7526 -0.3406 -0.2041
  543TIP3    H123264   4.381   2.462   1.615 -2.4419 -0.1798 -0.0762
  543TIP3    H223265   4.397   2.563   1.726 -0.7040 -0.4401 -0.0603
  544TIP3   OH223266   5.881   4.323   1.498 -0.0363  0.4326  0.3857
  544TIP3    H123267   5.883   4.229   1.519  1.9670  0.7926  2.1444
  544TIP3    H223268   5.848   4.327   1.408 -1.3579 -1.8507  0.7044
  545TIP3   OH223269   5.801   6.507   8.089  0.1467 -0.1568 -0.5380
  545TIP3    H123270   5.856   6.543   8.020  1.7044  0.6907  1.0847
  545TIP3    H223271   5.842   6.424   8.113 -0.5943 -0.6259 -0.8583
  546TIP3   OH223272   6.508   1.316   1.209  0.4229  0.4963 -0.5523
  546TIP3    H123273   6.476   1.229   1.234  1.0345  0.0362 -1.3058
  546TIP3    H223274   6.467   1.376   1.272 -0.8109 -0.2109 -0.6492
  547TIP3   OH223275   1.191   6.572   1.460  0.2395 -0.3880  0.1404
  547TIP3    H123276   1.135   6.529   1.525 -0.5134 -0.8211 -0.7814
  547TIP3    H223277   1.133   6.631   1.412  0.8591  0.1855  0.0598
  548TIP3   OH223278   5.695   1.826   1.052  0.2441  0.1893 -0.1925
  548TIP3    H123279   5.646   1.907   1.060 -1.8642 -1.0200 -0.1996
  548TIP3    H223280   5.694   1.806   0.958  1.4363  0.5324 -0.2919
  549TIP3   OH223281   4.511   3.325   1.321  0.0943 -0.0729 -0.6159
  549TIP3    H123282   4.536   3.401   1.374  0.3651  0.2914 -1.2645
  549TIP3    H223283   4.464   3.268   1.383  0.5803  0.2514  0.0668
  550TIP3   OH223284   3.232   5.966   2.191 -0.5167 -0.2353  0.1602
  550TIP3    H123285   3.280   5.960   2.274  0.8299  1.4364 -0.4452
  550TIP3    H223286   3.141   5.947   2.215 -0.2107  0.4663  2.0656
  551TIP3   OH223287   2.048   1.075   0.235 -0.1544 -0.1876 -0.4251
  551TIP3    H123288   1.992   1.000   0.258  0.2814 -0.3854  0.0085
  551TIP3    H223289   2.083   1.104   0.319  2.1092 -1.4150 -0.8717
  552TIP3   OH223290   4.603   2.591   0.953 -0.1970  0.5101  0.1428
  552TIP3    H123291   4.578   2.661   0.893  1.2347  1.0083  0.1116
  552TIP3    H223292   4.696   2.603   0.968 -0.4110  0.0965  2.0791
  553TIP3   OH223293   1.943   6.539   8.175  0.3025 -0.0231  0.5083
  553TIP3    H123294   1.987   6.454   8.174 -0.9669 -0.7069  0.7818
  553TIP3    H223295   2.014   6.603   8.171  1.2352 -1.0851 -1.1939
  554TIP3   OH223296   6.431   4.608   0.178  0.8004 -0.4568 -0.1292
  554TIP3    H123297   6.365   4.582   0.114  0.0754  1.1600 -0.0825
  554TIP3    H223298   6.400   4.570   0.260  0.9356 -1.2617 -0.4329
  555TIP3   OH223299   4.530   4.960   8.398 -0.2823  0.1467  0.6650
  555TIP3    H123300   4.545   5.053   8.384 -0.6460  0.4031  1.8412
  555TIP3    H223301   4.463   4.957   8.467  1.3441 -0.9768  2.2920
  556TIP3   OH223302   3.476   5.887   8.592 -0.2395 -0.4186  0.0977
  556TIP3    H123303   3.560   5.890   8.637 -0.1348 -1.0583 -0.0435
  556TIP3    H223304   3.441   5.799   8.611 -0.9433 -0.1096  0.2790
  557TIP3   OH223305   3.690   4.711   0.678 -0.0430  0.3824 -0.1623
  557TIP3    H123306   3.754   4.690   0.610 -0.2323  0.9663 -0.5289
  557TIP3    H223307   3.633   4.777   0.638  0.1453  1.1061  0.7166
  558TIP3   OH223308   6.686   4.540   8.032 -0.2333 -0.1968 -0.2456
  558TIP3    H123309   6.599   4.576   8.049  0.8485  1.7630  1.7856
  558TIP3    H223310   6.723   4.524   8.119  2.0824  0.8063 -0.9528
  559TIP3   OH223311   3.919   1.294   1.740 -0.4369  0.3085  0.4128
  559TIP3    H123312   3.904   1.384   1.710  0.2207  0.2126 -0.2098
  559TIP3    H223313   3.838   1.248   1.718 -1.1402  0.9490  1.5610
  560TIP3   OH223314   2.442   2.694   8.420 -0.6470 -0.2835 -0.1135
  560TIP3    H123315   2.373   2.661   8.363 -0.3640  0.2631 -0.7818
  560TIP3    H223316   2.493   2.753   8.365 -0.5142  0.4614  0.7780
  561TIP3   OH223317   1.829   6.431   7.526 -0.6172 -0.0630  0.3704
  561TIP3    H123318   1.880   6.510   7.540 -1.6604  0.6762  0.0867
  561TIP3    H223319   1.768   6.428   7.600 -2.0576  0.5993 -0.7444
  562TIP3   OH223320   2.019   6.482   8.576  0.6724 -0.3892 -0.2566
  562TIP3    H123321   2.107   6.449   8.556  0.7062 -1.2241  1.1788
  562TIP3    H223322   1.972   6.407   8.612  0.2041  0.6914  1.4856
  563TIP3   OH223323   2.946   2.752   7.026  0.6970 -0.6042  0.2438
  563TIP3    H123324   2.926   2.805   7.103 -1.6308  0.2245 -0.8572
  563TIP3    H223325   2.879   2.684   7.025  1.2104 -1.1218 -0.6134
  564TIP3   OH223326   4.429   6.180   1.981 -0.1938 -0.4442 -0.4307
  564TIP3    H123327   4.432   6.104   2.039  0.8924 -0.8458 -0.9839
  564TIP3    H223328   4.417   6.255   2.039 -0.9853 -0.9990  0.1470
  565TIP3   OH223329   0.541   3.697   0.809  0.1823  0.3257 -0.1004
  565TIP3    H123330   0.549   3.737   0.722  1.3676 -0.5138 -0.3942
  565TIP3    H223331   0.612   3.735   0.860  0.3357 -0.2162  0.0947
  566TIP3   OH223332   2.594   2.141   1.083  0.2842  0.8309 -0.2856
  566TIP3    H123333   2.516   2.085   1.082  1.7435 -1.4049 -2.6744
  566TIP3    H223334   2.657   2.095   1.139  0.6609  1.4431 -0.1907
  567TIP3   OH223335   2.875   1.340   0.618 -1.3105  0.3942  0.4670
  567TIP3    H123336   2.840   1.351   0.529  0.7203  0.7790 -0.3251
  567TIP3    H223337   2.900   1.428   0.645  1.3292 -0.1360 -0.0162
  568TIP3   OH223338   3.939   2.735   0.465  0.4457 -0.2865 -0.3460
  568TIP3    H123339   3.942   2.824   0.500 -0.4602 -0.0715 -0.7835
  568TIP3    H223340   4.014   2.691   0.503  0.6130  0.5278  0.2710
  569TIP3   OH223341   5.297   4.185   2.170 -0.7487  0.2336 -0.1335
  569TIP3    H123342   5.270   4.178   2.262  0.2392 -0.3703  0.1383
  569TIP3    H223343   5.230   4.137   2.122 -0.4223 -0.8802  0.4720
  570TIP3   OH223344   0.931   0.093   2.497  0.3007  0.1180 -0.0240
  570TIP3    H123345   0.951   0.105   2.590  0.6407  1.3320 -0.2393
  570TIP3    H223346   0.837   0.108   2.490  0.4017  0.7699  0.0089
  571TIP3   OH223347   4.650   6.176   2.205  0.3934  0.1830 -0.0140
  571TIP3    H123348   4.601   6.257   2.188 -1.8119 -1.1215 -0.2981
  571TIP3    H223349   4.676   6.146   2.118  0.6612  0.2530  0.0411
  572TIP3   OH223350   3.028   0.596   7.133 -0.7840  0.6284  0.1160
  572TIP3    H123351   3.049   0.688   7.113  1.6288  0.0667 -0.2852
  572TIP3    H223352   2.972   0.568   7.060 -1.2557  1.6652  0.0560
  573TIP3   OH223353   3.705   5.342   8.586 -0.5015  1.0437  0.2812
  573TIP3    H123354   3.722   5.374   8.498 -0.5450  3.0435  0.9452
  573TIP3    H223355   3.651   5.265   8.574 -0.0644  0.9799 -1.4529
  574TIP3   OH223356   2.184   5.974   1.730 -0.3957 -0.2678 -0.2875
  574TIP3    H123357   2.260   5.917   1.714 -0.3322 -0.1265 -0.5023
  574TIP3    H223358   2.138   5.976   1.646 -0.7795 -0.5595 -0.0817
  575TIP3   OH223359   6.034   6.020   0.310  0.7237 -0.2703  0.8465
  575TIP3    H123360   6.105   5.965   0.278 -0.2427 -1.6494  1.0029
  575TIP3    H223361   6.037   6.010   0.405 -0.0984 -0.9110  0.8183
  576TIP3   OH223362   1.945   6.693   1.884  0.3164 -0.0006  0.1671
  576TIP3    H123363   1.866   6.714   1.834  0.4359  0.2569  0.0807
  576TIP3    H223364   1.977   6.611   1.846 -0.4731 -0.6611  0.8837
  577TIP3   OH223365   0.355   1.676   1.469 -0.4110  0.2794  0.2109
  577TIP3    H123366   0.399   1.751   1.509 -1.3192 -0.0989  2.0029
  577TIP3    H223367   0.425   1.612   1.456 -0.0274  0.5570  0.8616
  578TIP3   OH223368   4.886   6.414   0.577  0.2857 -0.1247  0.0895
  578TIP3    H123369   4.858   6.405   0.486  1.6407 -1.7112 -0.2178
  578TIP3    H223370   4.977   6.444   0.571  0.1775  0.4081  0.9425
  579TIP3   OH223371   3.777   5.717   8.448  0.4814  0.0252 -0.2690
  579TIP3    H123372   3.720   5.703   8.373  0.3551 -1.3447  0.0652
  579TIP3    H223373   3.764   5.809   8.471 -1.3742 -0.1651 -0.3906
  580TIP3   OH223374   3.247   3.429   8.731  0.3084  0.2549 -0.0942
  580TIP3    H123375   3.176   3.483   8.767 -0.1302  0.3370 -1.0691
  580TIP3    H223376   3.226   3.421   8.638 -0.4082 -2.7448  0.2147
  581TIP3   OH223377   2.911   6.564   0.177 -0.6407  0.0479  0.7656
  581TIP3    H123378   2.861   6.641   0.204 -0.0023  0.3107  1.2123
  581TIP3    H223379   2.909   6.566   0.081  0.6056  1.4379  0.7446
  582TIP3   OH223380   4.032   1.039   0.825 -0.0206 -0.6602  0.1479
  582TIP3    H123381   4.058   1.025   0.734 -2.6170  1.3606 -1.0437
  582TIP3    H223382   4.008   0.952   0.857 -1.5280 -1.1006 -2.0028
  583TIP3   OH223383   6.126   4.042   2.128  0.7083 -0.7745 -0.4337
  583TIP3    H123384   6.093   3.966   2.079  0.5907 -1.2823  0.4229
  583TIP3    H223385   6.183   4.005   2.195  0.5730 -0.1148  0.0564
  584TIP3   OH223386   0.788   6.267   1.126 -0.1107  0.5459 -0.2795
  584TIP3    H123387   0.703   6.235   1.157  1.1226 -4.2726 -1.0715
  584TIP3    H223388   0.769   6.307   1.041 -1.5999 -0.9767 -0.7188
  585TIP3   OH223389   5.037   0.186   2.499 -0.2601 -0.4291 -0.1673
  585TIP3    H123390   5.130   0.173   2.517 -0.0180  0.7385 -0.5488
  585TIP3    H223391   4.997   0.103   2.526  0.7541 -0.6055  0.8834
  586TIP3   OH223392   2.789   5.120   1.748 -0.2092 -0.1306 -0.6769
  586TIP3    H123393   2.808   5.150   1.837 -2.5954 -1.2614  0.2955
  586TIP3    H223394   2.832   5.035   1.742 -1.2004 -0.7043 -0.0401
  587TIP3   OH223395   0.503   5.256   2.612  0.2382  0.1146  0.0246
  587TIP3    H123396   0.582   5.240   2.559  1.3959  1.5971  1.2124
  587TIP3    H223397   0.534   5.253   2.703 -1.3768 -0.7174  0.5764
  588TIP3   OH223398   1.778   0.073   2.675  0.0222 -0.3400 -0.2053
  588TIP3    H123399   1.785   0.112   2.588  0.5078  0.7579  0.3079
  588TIP3    H223400   1.854   0.015   2.681  0.1811 -0.1518 -0.3802
  589TIP3   OH223401   2.699   6.475   7.363 -0.1383 -0.0165 -0.3462
  589TIP3    H123402   2.777   6.467   7.309  0.6692  0.9239  0.6246
  589TIP3    H223403   2.651   6.394   7.348  1.1756 -0.7569 -0.7390
  590TIP3   OH223404   5.131   6.061   8.228 -0.2725 -1.1146 -0.1279
  590TIP3    H123405   5.088   6.010   8.160 -0.7290 -1.0306  0.0935
  590TIP3    H223406   5.221   6.028   8.231 -0.3996 -1.4789 -0.4053
  591TIP3   OH223407   4.186   0.981   7.679 -1.1040 -0.1468  0.1497
  591TIP3    H123408   4.151   1.066   7.653  0.7519  1.4544  2.5501
  591TIP3    H223409   4.151   0.966   7.767 -0.0993 -1.1147  0.4051
  592TIP3   OH223410   5.794   1.755   8.708 -0.4559 -0.3369  0.2053
  592TIP3    H123411   5.737   1.716   8.643 -0.0551 -1.3219  0.4226
  592TIP3    H223412   5.742   1.826   8.746 -0.9332 -0.1856 -0.7099
  593TIP3   OH223413   6.338   0.218   8.384  0.0530  0.0780 -0.5626
  593TIP3    H123414   6.351   0.312   8.373  0.4656 -0.1254 -2.1970
  593TIP3    H223415   6.399   0.193   8.453 -0.4417  1.0722  0.2726
  594TIP3   OH223416   0.471   6.626   1.728  0.3661 -0.4491 -0.0965
  594TIP3    H123417   0.498   6.540   1.759 -0.7549 -1.3408 -1.4807
  594TIP3    H223418   0.550   6.662   1.687  0.1348 -2.1020 -2.1652
  595TIP3   OH223419   5.773   2.556   7.632 -0.0088 -0.7376 -0.6701
  595TIP3    H123420   5.798   2.624   7.694  0.7277 -0.4114 -1.2975
  595TIP3    H223421   5.689   2.584   7.598 -0.7431 -1.2585  0.6383
  596TIP3   OH223422   6.846   6.660   1.770 -0.1823  0.3943 -0.3911
  596TIP3    H123423   6.792   6.735   1.745  0.5956  0.5098 -1.8242
  596TIP3    H223424   6.841   6.600   1.695  3.4221  1.4131 -1.6948
  597TIP3   OH223425   0.472   1.597   3.297  0.3149 -0.2444  0.5651
  597TIP3    H123426   0.542   1.578   3.235 -1.6007 -0.7108 -1.5733
  597TIP3    H223427   0.497   1.680   3.338  1.7172  0.0012 -0.7386
  598TIP3   OH223428   3.319   5.426   2.673  0.1106  0.4654 -0.5496
  598TIP3    H123429   3.273   5.444   2.756  0.4278  0.9061 -0.4644
  598TIP3    H223430   3.340   5.333   2.678 -0.6728  0.2781 -0.5416
  599TIP3   OH223431   4.183   2.490   1.308 -0.4538 -0.1787 -0.1336
  599TIP3    H123432   4.134   2.572   1.321  0.9079  0.3564  2.1616
  599TIP3    H223433   4.264   2.518   1.265 -0.5949 -0.5591 -0.6582
  600TIP3   OH223434   3.199   6.458   0.902 -0.2362  0.1841 -0.4828
  600TIP3    H123435   3.207   6.493   0.813  1.8732  0.8565 -0.0777
  600TIP3    H223436   3.168   6.368   0.890  1.2581 -0.1716 -2.0018
  601TIP3   OH223437   2.810   3.603   7.321 -0.5552  0.6644  0.1223
  601TIP3    H123438   2.734   3.641   7.365 -1.3942 -0.7026 -0.0629
  601TIP3    H223439   2.786   3.511   7.309  1.2150  0.1587  0.2120
  602TIP3   OH223440   1.115   2.049   8.041 -0.5854  0.2625  0.4048
  602TIP3    H123441   1.175   2.123   8.036  0.7919 -0.7241  1.4735
  602TIP3    H223442   1.028   2.089   8.047  0.0282  1.7524 -0.0738
  603TIP3   OH223443   0.830   3.577   8.038  0.0700  0.0288  0.2293
  603TIP3    H123444   0.800   3.486   8.027  0.5840 -0.3186  1.4363
  603TIP3    H223445   0.907   3.569   8.094  1.7986  0.9878 -1.8753
  604TIP3   OH223446   3.166   0.736   1.067 -1.2846  0.3563  0.5308
  604TIP3    H123447   3.151   0.783   1.149  2.5480  1.5463  0.7786
  604TIP3    H223448   3.222   0.662   1.093 -0.2185  0.6149 -0.9068
  605TIP3   OH223449   0.427   2.521   7.455 -0.5525  0.9980  0.2856
  605TIP3    H123450   0.467   2.482   7.533  1.3772 -0.1781 -1.2039
  605TIP3    H223451   0.490   2.588   7.427 -0.6079  0.5758 -0.9070
  606TIP3   OH223452   3.240   6.640   0.696 -0.0759 -0.4451  0.3841
  606TIP3    H123453   3.190   6.619   0.617  0.5965  0.3535 -0.2794
  606TIP3    H223454   3.237   6.736   0.701  3.1977 -0.1533 -0.9562
  607TIP3   OH223455   1.011   6.653   1.950  0.4757 -0.0739 -0.5344
  607TIP3    H123456   1.005   6.699   1.866 -1.0476  1.3424  0.2910
  607TIP3    H223457   1.091   6.686   1.990  0.2778  0.6042 -0.6807
  608TIP3   OH223458   2.934   6.416   2.794  0.7299 -0.2715 -0.0519
  608TIP3    H123459   2.846   6.391   2.820  0.2556  0.2962 -1.0280
  608TIP3    H223460   2.988   6.401   2.871 -0.2608 -0.4184  0.6245
  609TIP3   OH223461   2.835   6.484   1.062  0.1792  0.1396  0.0250
  609TIP3    H123462   2.765   6.548   1.049 -0.7187 -0.9470 -0.6201
  609TIP3    H223463   2.798   6.418   1.121  1.0839  0.1715  0.6641
  610TIP3   OH223464   1.117   1.683   1.540 -0.8976  0.0602 -0.6723
  610TIP3    H123465   1.050   1.655   1.478 -0.3241 -2.0168 -0.4259
  610TIP3    H223466   1.197   1.641   1.510 -0.1517  0.8039  0.2295
  611TIP3   OH223467   3.794   1.424   2.899 -0.2097 -0.2187  0.5962
  611TIP3    H123468   3.874   1.460   2.938 -1.7957  1.5009  2.4325
  611TIP3    H223469   3.787   1.469   2.815  0.6995 -0.3444  0.4401
  612TIP3   OH223470   3.238   0.416   8.287  0.1095  0.5749 -0.1249
  612TIP3    H123471   3.197   0.373   8.212 -0.6165 -0.4271  0.8351
  612TIP3    H223472   3.317   0.457   8.250  1.5802 -2.6710 -0.8703
  613TIP3   OH223473   4.610   3.780   0.303  0.5638 -0.4321  0.4817
  613TIP3    H123474   4.517   3.801   0.305  0.9496  1.5108  2.8748
  613TIP3    H223475   4.644   3.829   0.228 -0.3148 -1.1335 -0.3882
  614TIP3   OH223476   0.296   1.297   7.719  0.1203  0.4703 -0.0932
  614TIP3    H123477   0.310   1.387   7.751  1.8086  0.9244 -1.9355
  614TIP3    H223478   0.364   1.284   7.653 -1.2590 -1.5248 -1.2112
  615TIP3   OH223479   5.712   1.644   2.716  0.0762 -0.5920 -0.3303
  615TIP3    H123480   5.697   1.678   2.804 -0.2698 -0.0803 -0.5804
  615TIP3    H223481   5.634   1.591   2.698  0.0110 -0.4643 -0.4313
  616TIP3   OH223482   4.123   3.175   1.624  0.3296  0.5165  0.2122
  616TIP3    H123483   4.067   3.186   1.701  0.0848 -0.0863  0.1252
  616TIP3    H223484   4.063   3.182   1.550  0.2291 -0.8287  0.1350
  617TIP3   OH223485   1.049   2.321   2.372 -0.3189  0.1336 -0.7406
  617TIP3    H123486   0.976   2.380   2.356 -1.2775 -1.2632 -1.7467
  617TIP3    H223487   1.089   2.308   2.286  0.4797  0.0540 -0.3715
  618TIP3   OH223488   4.553   4.022   7.410 -0.1845 -0.0306 -0.5306
  618TIP3    H123489   4.640   4.037   7.447  0.9210 -1.8985 -2.2026
  618TIP3    H223490   4.541   4.093   7.347  0.9441 -0.7446 -1.5884
  619TIP3   OH223491   3.765   4.252   3.139  0.3183 -0.1077  0.0675
  619TIP3    H123492   3.732   4.165   3.163  1.2514  0.1351  2.5374
  619TIP3    H223493   3.833   4.236   3.075 -0.4011 -1.0789 -0.4759
  620TIP3   OH223494   0.338   2.283   1.213 -0.5707  0.1916  0.6400
  620TIP3    H123495   0.329   2.204   1.159 -1.3407  0.6323  0.1045
  620TIP3    H223496   0.252   2.324   1.210 -0.3636  0.7032  1.4719
  621TIP3   OH223497   0.524   3.235   1.407  0.2386 -0.6695  0.3512
  621TIP3    H123498   0.515   3.280   1.323 -0.0252 -2.4244 -0.6192
  621TIP3    H223499   0.444   3.256   1.455  0.3205  0.2265  0.1091
  622TIP3   OH223500   3.841   5.326   1.019 -0.2106 -0.0277  0.0873
  622TIP3    H123501   3.885   5.385   1.079 -1.1042  0.0151  0.7158
  622TIP3    H223502   3.867   5.356   0.932  1.2305 -0.1987  0.4340
  623TIP3   OH223503   0.741   5.064   2.910 -0.0433 -0.8720  0.4775
  623TIP3    H123504   0.819   5.103   2.949  0.2947 -1.6462  0.6094
  623TIP3    H223505   0.687   5.138   2.885  0.8358 -0.3102  0.1751
  624TIP3   OH223506   3.719   1.309   3.151  0.1137 -0.2408  0.0044
  624TIP3    H123507   3.804   1.274   3.179  0.9276  1.3292 -0.3134
  624TIP3    H223508   3.731   1.329   3.058 -0.2761  0.8501  0.1691
  625TIP3   OH223509   1.085   3.221   7.642  0.0103  0.4846  0.3256
  625TIP3    H123510   1.085   3.125   7.641  0.4761  0.4856 -0.5080
  625TIP3    H223511   0.994   3.245   7.662 -0.0276 -0.1306  0.8934
  626TIP3   OH223512   2.111   4.260   8.092 -0.0971  0.3159  0.3316
  626TIP3    H123513   2.091   4.193   8.027  0.3482  1.5775 -1.1941
  626TIP3    H223514   2.090   4.221   8.176  1.5194 -2.2531 -0.3537
  627TIP3   OH223515   5.891   0.138   1.933  0.5637 -0.2493 -0.4124
  627TIP3    H123516   5.841   0.064   1.967  2.1537 -2.0131 -1.6788
  627TIP3    H223517   5.888   0.127   1.838  2.0882  0.4318 -0.5695
  628TIP3   OH223518   5.698   1.019   2.878  0.6105  0.4488 -0.0231
  628TIP3    H123519   5.781   0.974   2.894 -0.4415 -1.0316  1.6646
  628TIP3    H223520   5.646   0.956   2.827 -0.5420  0.0709  1.5474
  629TIP3   OH223521   1.663   1.979   7.919 -0.3349 -0.1874 -0.1864
  629TIP3    H123522   1.731   2.043   7.897  1.6214 -2.0025  0.2829
  629TIP3    H223523   1.633   1.946   7.835  0.6959 -0.6647 -0.3811
  630TIP3   OH223524   3.179   1.513   8.425 -0.0516 -0.1494 -0.8307
  630TIP3    H123525   3.189   1.424   8.459  0.4416 -0.0311 -0.6585
  630TIP3    H223526   3.101   1.509   8.370 -0.2012 -0.6170 -0.5894
  631TIP3   OH223527   1.791   3.979   2.158  0.2582 -0.8068  0.5559
  631TIP3    H123528   1.835   4.051   2.201 -0.8678 -0.2130  0.7678
  631TIP3    H223529   1.845   3.902   2.176  0.0847 -0.4981  2.6166
  632TIP3   OH223530   4.424   0.015   2.602  0.7447  0.1655  0.8237
  632TIP3    H123531   4.386   0.103   2.593  0.9532  0.1930  0.1447
  632TIP3    H223532   4.394  -0.015   2.688 -1.5529 -0.1873 -0.0358
  633TIP3   OH223533   4.746   0.586   0.344  0.7799  0.1177  0.7860
  633TIP3    H123534   4.781   0.518   0.401 -0.4829  0.0312  1.4746
  633TIP3    H223535   4.665   0.614   0.386 -1.4326 -1.5022 -2.0159
  634TIP3   OH223536   2.527   3.181   8.362 -0.2540  0.8928 -0.7220
  634TIP3    H123537   2.619   3.193   8.342 -0.4188  1.3580 -1.2329
  634TIP3    H223538   2.483   3.251   8.314 -1.2197 -1.2225 -3.1402
  635TIP3   OH223539   4.556   6.150   1.422 -0.1417  0.3497  0.3003
  635TIP3    H123540   4.520   6.229   1.463 -1.2836 -0.1219  0.2459
  635TIP3    H223541   4.650   6.168   1.415 -0.5924  2.5048 -1.4698
  636TIP3   OH223542   5.523   2.272   0.978  0.0518 -0.0162  0.9701
  636TIP3    H123543   5.452   2.305   0.922  0.0953  0.0647  0.9631
  636TIP3    H223544   5.600   2.321   0.950 -0.3718  1.8180  2.7492
  637TIP3   OH223545   0.932   0.492   8.050  0.3139 -0.4835  0.1191
  637TIP3    H123546   0.862   0.428   8.064 -1.2552  1.3119  0.9189
  637TIP3    H223547   1.005   0.461   8.103  0.5544 -2.8993 -1.4577
  638TIP3   OH223548   2.713   3.340   7.322  0.1449 -0.1576  0.0046
  638TIP3    H123549   2.796   3.294   7.310  0.3642  0.7402 -2.2548
  638TIP3    H223550   2.648   3.270   7.332  0.6844 -0.9941 -1.9266
  639TIP3   OH223551   3.902   3.720   7.252 -0.4375  0.0823  0.1048
  639TIP3    H123552   3.988   3.686   7.228 -0.7631 -0.0213 -0.9825
  639TIP3    H223553   3.883   3.785   7.184 -0.9342  0.5646  0.7042
  640TIP3   OH223554   1.844   0.884   0.273  0.1567 -0.4713  0.0295
  640TIP3    H123555   1.846   0.880   0.369 -1.4538  1.3451  0.2096
  640TIP3    H223556   1.751   0.896   0.252  0.7140  1.5504 -1.5995
  641TIP3   OH223557   4.125   1.787   1.869  0.0459 -0.2583  0.5725
  641TIP3    H123558   4.159   1.877   1.873  0.7130 -0.4496 -0.3289
  641TIP3    H223559   4.191   1.734   1.913  0.8080 -0.5850 -0.8811
  642TIP3   OH223560   6.539   4.170   8.501  0.1850  0.2479  0.1960
  642TIP3    H123561   6.467   4.208   8.450 -2.4063  0.3681  3.5712
  642TIP3    H223562   6.524   4.075   8.496  1.5219  0.0843 -1.3072
  643TIP3   OH223563   1.594   2.421   1.968  0.1402 -0.1622 -0.1734
  643TIP3    H123564   1.635   2.462   2.044  0.5853 -1.1956  0.1571
  643TIP3    H223565   1.500   2.428   1.984  0.2060  0.5617 -0.0500
  644TIP3   OH223566   5.091   0.750   0.986 -0.2356  0.2669 -0.3281
  644TIP3    H123567   5.017   0.770   1.044  1.5152 -0.4316  2.3593
  644TIP3    H223568   5.081   0.658   0.964  0.8382 -0.4103  1.7706
  645TIP3   OH223569   6.816   2.002   1.278 -0.0818 -0.1427  0.4361
  645TIP3    H123570   6.763   1.935   1.235  1.2657 -0.2154 -1.1962
  645TIP3    H223571   6.816   2.076   1.217 -1.8132  1.5452  2.3455
  646TIP3   OH223572   2.334   0.622   1.578  0.2156 -0.3580 -0.1197
  646TIP3    H123573   2.243   0.637   1.554  0.0167  0.0864  0.8500
  646TIP3    H223574   2.348   0.677   1.655  0.7102 -1.9380  0.9881
  647TIP3   OH223575   4.492   4.076   0.173  0.0829  0.5485 -0.3689
  647TIP3    H123576   4.485   3.985   0.144  0.3000  0.6020 -0.5900
  647TIP3    H223577   4.473   4.073   0.266  1.2058  0.1168 -0.1399
  648TIP3   OH223578   3.397   2.423   0.877  0.5208  0.3527  0.0019
  648TIP3    H123579   3.474   2.425   0.934 -0.4619  0.8661  1.3823
  648TIP3    H223580   3.429   2.454   0.792  1.9117  0.1458  0.4149
  649TIP3   OH223581   6.574   6.637   0.610 -0.0283 -0.2895 -0.0800
  649TIP3    H123582   6.595   6.708   0.670  1.4281 -0.6697 -0.1024
  649TIP3    H223583   6.508   6.586   0.656 -0.4429  0.5782  0.3075
  650TIP3   OH223584   3.574   5.984   2.245  0.5030  0.2234 -0.0465
  650TIP3    H123585   3.510   5.980   2.317  0.0355 -0.9181 -0.5005
  650TIP3    H223586   3.615   6.070   2.254 -0.7913  0.8071  0.5290
  651TIP3   OH223587   3.816   5.810   0.387  0.0716  0.6140 -0.4475
  651TIP3    H123588   3.731   5.853   0.383  1.0714  2.9458  0.9321
  651TIP3    H223589   3.872   5.864   0.331  0.5624 -1.1981 -1.7704
  652TIP3   OH223590   2.771   3.527   7.953  0.0015 -0.1160 -0.5449
  652TIP3    H123591   2.705   3.458   7.949  1.6679 -1.8156 -0.0043
  652TIP3    H223592   2.806   3.532   7.863  0.3336 -0.4430 -0.4345
  653TIP3   OH223593   1.713   6.516   1.936 -0.1954  0.0933 -0.1839
  653TIP3    H123594   1.673   6.475   1.859 -1.0769 -0.4280  0.5314
  653TIP3    H223595   1.803   6.534   1.910 -0.1096 -1.2760 -0.8998
  654TIP3   OH223596   0.444   2.212   2.409 -0.2986 -0.0832 -0.0057
  654TIP3    H123597   0.503   2.247   2.343  0.0998  0.0775  0.4313
  654TIP3    H223598   0.462   2.264   2.487  0.0477 -1.0214  0.5599
  655TIP3   OH223599   1.865   2.480   8.578 -0.3200 -0.1643  0.2386
  655TIP3    H123600   1.772   2.468   8.557 -0.4369 -0.3669  0.8611
  655TIP3    H223601   1.866   2.546   8.647 -0.1268 -1.3293  1.3964
  656TIP3   OH223602   0.700   0.134   1.001  0.3212  0.4878 -0.6579
  656TIP3    H123603   0.670   0.109   1.088  1.0122 -3.3240 -1.3461
  656TIP3    H223604   0.627   0.183   0.963 -0.3284  1.4661  1.6607
  657TIP3   OH223605   2.800   0.020   0.756 -0.4889 -0.7874  0.1650
  657TIP3    H123606   2.847   0.089   0.710  1.8717 -1.8411  0.8559
  657TIP3    H223607   2.813  -0.058   0.702 -0.5593 -1.3110  0.8897
  658TIP3   OH223608   4.769   1.265   8.032 -0.3377  0.2214 -0.2132
  658TIP3    H123609   4.699   1.300   8.088 -0.5765 -0.6383  0.0403
  658TIP3    H223610   4.726   1.200   7.978 -0.1465  1.1888 -1.5684
  659TIP3   OH223611   6.422   5.835   8.012 -0.2370  0.2162 -0.0678
  659TIP3    H123612   6.421   5.799   7.923  0.4479  0.0218 -0.0017
  659TIP3    H223613   6.499   5.795   8.053  0.1458  1.2288  0.2224
  660TIP3   OH223614   2.951   2.854   0.239  0.3527 -0.0287 -0.2066
  660TIP3    H123615   2.908   2.854   0.154 -1.4806  0.0889  0.6729
  660TIP3    H223616   2.888   2.812   0.298  0.5888  1.8778  1.5178
  661TIP3   OH223617   5.850   5.477   2.003  0.6325  0.3867 -0.1470
  661TIP3    H123618   5.846   5.483   2.098  0.7697  4.0133 -0.2320
  661TIP3    H223619   5.943   5.475   1.983  0.6326  1.1567 -0.2325
  662TIP3   OH223620   1.107   3.211   8.511 -0.3928  0.3590  0.5550
  662TIP3    H123621   1.142   3.277   8.451  1.2302 -0.0921  0.9519
  662TIP3    H223622   1.173   3.203   8.580 -1.5232 -0.2116  1.6147
  663TIP3   OH223623   6.487   6.368   0.116 -1.1070 -0.0084  0.1933
  663TIP3    H123624   6.400   6.408   0.123 -0.6816  0.9137  0.2805
  663TIP3    H223625   6.547   6.442   0.111 -0.2904 -0.6402  0.5108
  664TIP3   OH223626   6.036   5.687   8.730  0.5241 -0.2603  0.2559
  664TIP3    H123627   5.966   5.742   8.695 -1.1710 -1.3154  1.8045
  664TIP3    H223628   6.006   5.597   8.715  1.5829 -0.7467  0.8877
  665TIP3   OH223629   4.749   2.894   2.352 -0.2985 -0.0964  0.0348
  665TIP3    H123630   4.763   2.803   2.328 -4.3429 -0.4280 -1.8949
  665TIP3    H223631   4.722   2.891   2.444  0.6659 -0.6440  0.3126
  666TIP3   OH223632   0.026   4.673   7.752 -0.0653 -0.1096  0.0861
  666TIP3    H123633  -0.019   4.751   7.720 -0.2413  0.0870  0.7919
  666TIP3    H223634   0.114   4.680   7.717 -0.5779 -0.5199 -1.3517
  667TIP3   OH223635   0.010   1.271   1.383 -0.6514 -0.5157 -0.6437
  667TIP3    H123636  -0.055   1.336   1.411 -0.8164  0.1922 -2.5420
  667TIP3    H223637   0.084   1.324   1.354 -0.0453 -1.2567 -0.4530
  668TIP3   OH223638   1.614   0.048   1.531 -0.0225  0.0938 -0.2182
  668TIP3    H123639   1.663   0.118   1.574  0.1021  0.4060 -0.8485
  668TIP3    H223640   1.526   0.054   1.569  0.1690  0.1534  0.2202
  669TIP3   OH223641   0.810   2.030   8.530  0.2216  0.0810 -0.0631
  669TIP3    H123642   0.864   1.989   8.463  0.0751 -0.8121  0.3574
  669TIP3    H223643   0.721   2.003   8.509  0.2318 -0.6605  0.8032
  670TIP3   OH223644   4.528   2.272   0.315 -0.4433 -0.3812  0.2253
  670TIP3    H123645   4.504   2.194   0.264 -2.2059 -1.1009  2.0371
  670TIP3    H223646   4.575   2.237   0.391  1.0510  0.5785 -0.2132
  671TIP3   OH223647   5.277   3.706   1.934 -0.0316 -0.5379  0.2288
  671TIP3    H123648   5.256   3.776   1.872  1.0020  0.5942  1.1078
  671TIP3    H223649   5.195   3.688   1.980 -0.8477 -1.4798 -1.5073
  672TIP3   OH223650   1.594   0.399   7.956  0.2565 -0.2666 -0.0472
  672TIP3    H123651   1.674   0.399   7.903  2.1664 -1.5006  2.5899
  672TIP3    H223652   1.560   0.310   7.946  1.6854 -1.1386  2.0776
  673TIP3   OH223653   1.409   1.285   0.366 -0.6281 -0.4487 -0.2526
  673TIP3    H123654   1.427   1.265   0.274  2.7919  1.2372 -0.1238
  673TIP3    H223655   1.472   1.233   0.415 -0.0810  1.1793  0.8550
  674TIP3   OH223656   2.173   5.110   7.395 -0.0700  0.0655 -0.5854
  674TIP3    H123657   2.155   5.029   7.347 -2.5880 -0.6052  1.3141
  674TIP3    H223658   2.133   5.097   7.481  2.5540  1.9838  1.0839
  675TIP3   OH223659   3.674   2.844   7.444  0.5727 -0.1469  0.5678
  675TIP3    H123660   3.584   2.875   7.443 -0.1168 -1.8972  2.2566
  675TIP3    H223661   3.711   2.878   7.525  1.7291  1.1446 -0.4333
  676TIP3   OH223662   0.040   6.047   8.295  0.3116 -0.2788  0.0886
  676TIP3    H123663   0.076   6.098   8.368  0.9038  0.0389 -0.4129
  676TIP3    H223664  -0.002   5.972   8.337  0.0098  0.2735  0.7993
  677TIP3   OH223665   6.403   2.365   7.840  0.3862 -0.1332 -0.0086
  677TIP3    H123666   6.374   2.455   7.854 -0.8999 -0.5491  0.1156
  677TIP3    H223667   6.417   2.358   7.746  0.7453  0.2610  0.0110
  678TIP3   OH223668   1.933   3.937   7.973  0.0763  0.5677  0.2128
  678TIP3    H123669   1.862   3.978   8.021  0.0335  0.1086  0.5477
  678TIP3    H223670   1.971   3.874   8.034 -1.2899 -1.5308 -0.9760
  679TIP3   OH223671   2.148   2.803   1.142 -0.0004 -0.7554  0.5060
  679TIP3    H123672   2.133   2.853   1.222  0.3648 -1.3840  0.9783
  679TIP3    H223673   2.224   2.845   1.101  1.2243 -1.7672  1.6388
  680TIP3   OH223674   6.243   3.823   8.693 -0.2205 -0.7986 -0.2166
  680TIP3    H123675   6.216   3.915   8.692 -0.8283 -0.9665 -1.4904
  680TIP3    H223676   6.331   3.823   8.654  1.0402 -0.4603  2.3794
  681TIP3   OH223677   2.264   6.660   2.376  0.4389  0.0780  0.3922
  681TIP3    H123678   2.322   6.729   2.410  0.7787 -0.2720  0.5281
  681TIP3    H223679   2.270   6.668   2.281  1.9712 -0.9837  0.3713
  682TIP3   OH223680   5.222   0.183   0.060 -0.2375 -1.1050  0.2576
  682TIP3    H123681   5.148   0.128   0.034 -1.6870  0.5916  0.6224
  682TIP3    H223682   5.299   0.134   0.033 -1.4910 -2.8622 -0.2887
  683TIP3   OH223683   3.406   2.046   2.525  0.3230 -0.1345 -0.3324
  683TIP3    H123684   3.375   2.016   2.610 -1.0463  0.9938 -0.4071
  683TIP3    H223685   3.339   2.015   2.463  0.5184  0.3692 -0.8041
  684TIP3   OH223686   3.211   0.237   8.080  0.1145 -0.3103 -0.3906
  684TIP3    H123687   3.289   0.189   8.051 -0.3397 -0.9941 -0.5091
  684TIP3    H223688   3.139   0.195   8.033 -0.4148 -0.1793  0.2968
  685TIP3   OH223689   6.446   3.626   7.960  0.6312 -0.3325 -0.5454
  685TIP3    H123690   6.445   3.635   7.865  1.1449 -0.7803 -0.6007
  685TIP3    H223691   6.379   3.686   7.991 -0.3524 -1.0282 -1.2587
  686TIP3   OH223692   1.342   1.917   0.269 -0.3784 -0.1136  0.2288
  686TIP3    H123693   1.346   1.841   0.210  1.3063  0.7850 -0.9160
  686TIP3    H223694   1.416   1.904   0.329  1.5804  1.7516 -1.5741
  687TIP3   OH223695   6.511   0.567   7.381  0.8517 -0.6820 -0.1043
  687TIP3    H123696   6.564   0.646   7.388  2.4167 -1.7851  1.3181
  687TIP3    H223697   6.491   0.559   7.288  3.4963 -0.3672 -0.7788
  688TIP3   OH223698   5.950   3.941   1.027 -0.2866 -0.2260 -0.3833
  688TIP3    H123699   5.982   3.959   1.115 -1.4907 -2.9115  0.6940
  688TIP3    H223700   5.868   3.990   1.021 -0.5206 -0.5248  0.2478
  689TIP3   OH223701   3.875   1.831   1.266 -0.2713 -0.0291 -0.2681
  689TIP3    H123702   3.841   1.748   1.297  1.3541 -0.8774 -0.6401
  689TIP3    H223703   3.904   1.813   1.177 -1.2211  1.3352 -0.8913
  690TIP3   OH223704   4.124   1.844   8.282  0.2815  0.1625  0.0043
  690TIP3    H123705   4.163   1.902   8.347 -2.3834  0.9756  0.9800
  690TIP3    H223706   4.127   1.757   8.322  1.9911 -0.0153 -0.4129
  691TIP3   OH223707   4.218   0.106   2.117 -0.0225  0.4370 -0.1870
  691TIP3    H123708   4.311   0.083   2.110  0.0067  0.9552 -2.1472
  691TIP3    H223709   4.218   0.194   2.154  0.1422 -0.2823  1.6198
  692TIP3   OH223710   4.603   4.098   3.115 -0.4861 -0.0144 -0.0562
  692TIP3    H123711   4.668   4.090   3.045 -0.1660 -1.1899  0.3466
  692TIP3    H223712   4.520   4.112   3.069 -0.3335 -1.1214 -0.6950
  693TIP3   OH223713   4.832   1.648   0.165  0.0553 -0.1955  0.6222
  693TIP3    H123714   4.856   1.673   0.076 -1.7160  0.1021  0.1839
  693TIP3    H223715   4.891   1.700   0.221  1.1781 -0.3737 -0.3493
  694TIP3   OH223716   0.503   3.884   1.592 -0.4855 -0.2592 -0.0927
  694TIP3    H123717   0.514   3.807   1.535  0.6039 -0.4690  0.3855
  694TIP3    H223718   0.460   3.850   1.670 -0.2400 -0.3316  0.0105
  695TIP3   OH223719   5.655   0.627   1.520 -0.1712  0.0922 -0.5907
  695TIP3    H123720   5.686   0.715   1.496 -0.3362 -0.4551 -3.0695
  695TIP3    H223721   5.572   0.618   1.474 -0.2830 -1.2614 -0.1587
  696TIP3   OH223722   3.051   0.323   7.655 -0.1827 -0.0938  0.5337
  696TIP3    H123723   3.039   0.257   7.588  0.1567 -0.2475  0.6193
  696TIP3    H223724   3.139   0.306   7.690  0.9295  1.8861 -1.1088
  697TIP3   OH223725   0.458   0.133   8.353 -0.1346 -0.2485  0.0784
  697TIP3    H123726   0.387   0.178   8.400  0.8549  0.4588  0.9469
  697TIP3    H223727   0.522   0.202   8.335  0.7042 -1.0230  0.0162
  698TIP3   OH223728   6.039   4.008   1.270  0.4650 -0.4858 -0.6062
  698TIP3    H123729   6.003   4.019   1.358 -0.2409 -0.4773 -0.8899
  698TIP3    H223730   6.114   3.950   1.282  0.7142 -0.0454  0.0780
  699TIP3   OH223731   6.754   2.202   8.268 -0.1190 -0.3197 -0.0160
  699TIP3    H123732   6.674   2.254   8.275  0.7304  0.9304  0.9132
  699TIP3    H223733   6.725   2.116   8.239 -1.6752  0.4254 -0.7679
  700TIP3   OH223734   5.433   2.083   0.336 -0.2402 -0.5174 -0.2824
  700TIP3    H123735   5.463   2.042   0.417  1.2527 -3.8317 -2.3034
  700TIP3    H223736   5.370   2.022   0.300 -0.0390  0.3265 -2.1721
  701TIP3   OH223737   6.255   4.866   0.042  0.1977  0.1409  0.1722
  701TIP3    H123738   6.177   4.838   0.090 -1.3685  1.2825 -1.5599
  701TIP3    H223739   6.279   4.789  -0.011 -0.7954  0.3121 -0.5429
  702TIP3   OH223740   3.495   6.859   0.564  0.7998  0.1441  0.2044
  702TIP3    H123741   3.442   6.844   0.643 -1.0646 -0.2128 -1.0595
  702TIP3    H223742   3.483   6.780   0.512  1.0033  0.8893 -0.9966
  703TIP3   OH223743   6.409   5.474   2.067 -1.0070 -0.8289  0.2561
  703TIP3    H123744   6.318   5.451   2.047 -0.4339 -0.8079 -2.9757
  703TIP3    H223745   6.455   5.390   2.068 -0.8379 -0.7349  0.6010
  704TIP3   OH223746   4.427   4.032   1.296 -0.0798  0.2210 -0.4066
  704TIP3    H123747   4.341   3.997   1.322  0.4684 -0.0457  1.1899
  704TIP3    H223748   4.420   4.126   1.311 -0.4419  0.3506 -1.3529
  705TIP3   OH223749   0.623   3.109   0.487  0.8227  0.1908  0.2661
  705TIP3    H123750   0.645   3.044   0.555  2.9651 -0.1239 -0.6459
  705TIP3    H223751   0.593   3.056   0.413 -2.6470  0.5764  1.2011
  706TIP3   OH223752   0.656   5.191   2.215 -0.2857 -0.4310 -0.4500
  706TIP3    H123753   0.563   5.211   2.205 -0.9739 -0.8419  3.5358
  706TIP3    H223754   0.668   5.108   2.169 -1.9589 -0.5211 -0.7822
  707TIP3   OH223755   6.675   2.930   2.778  0.8964  0.1050  0.0713
  707TIP3    H123756   6.740   2.998   2.762  1.1470  0.1111  1.0275
  707TIP3    H223757   6.636   2.953   2.863 -0.3143  0.0648 -0.4536
  708TIP3   OH223758   6.117   0.501   0.445  0.0304  0.2267 -0.7248
  708TIP3    H123759   6.204   0.514   0.406 -0.5091  1.4094 -1.6231
  708TIP3    H223760   6.085   0.419   0.406  0.3400  0.3245 -1.1959
  709TIP3   OH223761   1.556   1.129   1.266  0.2756 -0.1803 -0.1502
  709TIP3    H123762   1.628   1.073   1.236  0.3903 -0.2489  0.2368
  709TIP3    H223763   1.477   1.081   1.241  0.3561  0.1854 -1.1099
  710TIP3   OH223764   3.443   1.561   0.847  0.0559 -0.0859 -0.0002
  710TIP3    H123765   3.468   1.471   0.825 -1.5088 -0.6889  0.5325
  710TIP3    H223766   3.475   1.574   0.936  0.6899  0.0585 -0.2453
  711TIP3   OH223767   1.115   5.160   1.737 -0.3867 -0.1005 -0.1344
  711TIP3    H123768   1.185   5.212   1.777  0.0933 -2.1278  1.8488
  711TIP3    H223769   1.161   5.101   1.677 -0.3506 -1.4191  1.1528
  712TIP3   OH223770   1.524   5.030   2.108 -0.0947  0.0132 -0.1000
  712TIP3    H123771   1.615   5.036   2.078 -0.3687  1.0872 -0.7528
  712TIP3    H223772   1.515   5.103   2.170 -0.7863  0.5503 -0.8084
  713TIP3   OH223773   2.304   4.906   1.357 -0.3751  0.1862  0.0902
  713TIP3    H123774   2.373   4.965   1.326  0.4501 -1.1416 -0.7236
  713TIP3    H223775   2.351   4.841   1.409 -0.4840 -2.4258 -2.8044
  714TIP3   OH223776   6.002   5.481   1.459 -0.4010 -0.0625  0.0627
  714TIP3    H123777   5.980   5.469   1.552  0.0924  1.4515  0.4013
  714TIP3    H223778   6.029   5.394   1.430 -0.0813 -0.4677  1.4768
  715TIP3   OH223779   1.230   5.754   7.342 -0.0551  0.0247 -0.1582
  715TIP3    H123780   1.221   5.658   7.345  2.1033 -0.3345 -2.1116
  715TIP3    H223781   1.204   5.783   7.429  3.4201 -2.8063  2.1224
  716TIP3   OH223782   3.365   6.200   1.317 -0.4689  0.1823  0.0669
  716TIP3    H123783   3.440   6.142   1.330 -0.4735 -0.1208 -1.1360
  716TIP3    H223784   3.385   6.248   1.237 -1.3750  0.3927 -0.0486
  717TIP3   OH223785   6.001   4.493   8.558  0.3317 -0.6859 -0.3492
  717TIP3    H123786   5.954   4.549   8.619  2.3025 -1.3073  1.9416
  717TIP3    H223787   5.975   4.404   8.583  3.2189 -1.1127  1.6741
  718TIP3   OH223788   3.957   0.278   2.407  1.1364  0.9121  0.4538
  718TIP3    H123789   4.031   0.325   2.445  1.6755  2.4517 -2.2749
  718TIP3    H223790   3.906   0.345   2.362  0.2277 -0.6615 -0.9832
  719TIP3   OH223791   2.122   6.325   0.117  0.3604 -0.7318  0.0672
  719TIP3    H123792   2.146   6.238   0.086 -0.7927 -0.8979 -0.3774
  719TIP3    H223793   2.031   6.336   0.092  0.5866  0.7526 -0.2164
  720TIP3   OH223794   2.460   1.309   0.598 -0.1055  0.2187 -0.1619
  720TIP3    H123795   2.449   1.230   0.546 -1.7414  1.8246 -2.4543
  720TIP3    H223796   2.443   1.282   0.688  0.7166 -2.2500 -0.6734
  721TIP3   OH223797   0.536   0.605   1.755 -0.1985 -0.0285 -0.3485
  721TIP3    H123798   0.587   0.651   1.688  1.0127 -0.8147 -0.0094
  721TIP3    H223799   0.599   0.588   1.825 -1.8190  2.4188  1.9024
  722TIP3   OH223800   5.036   5.217   7.700  0.0445 -1.3351  0.1226
  722TIP3    H123801   5.070   5.173   7.623  1.7687 -0.7888  0.5375
  722TIP3    H223802   5.100   5.200   7.769 -0.5593 -0.3613  0.9646
  723TIP3   OH223803   1.787   3.048   0.862 -0.7025 -0.0910 -0.6860
  723TIP3    H123804   1.712   3.056   0.803 -0.0319  2.2743 -1.3336
  723TIP3    H223805   1.864   3.057   0.804  0.2026 -3.2282 -0.1591
  724TIP3   OH223806   2.648   4.628   0.075  0.1201  0.5406 -0.3083
  724TIP3    H123807   2.586   4.569   0.031 -1.7364  1.5913  0.7848
  724TIP3    H223808   2.626   4.621   0.168  1.0638  1.6159  0.0109
  725TIP3   OH223809   1.538   6.005   8.412 -0.3627 -0.0010  0.0469
  725TIP3    H123810   1.610   5.976   8.468  0.1291 -0.2390 -0.7014
  725TIP3    H223811   1.520   5.931   8.355 -0.5519  0.4041 -0.4218
  726TIP3   OH223812   6.856   5.654   7.100  0.2060 -0.0624 -0.0152
  726TIP3    H123813   6.869   5.702   7.182 -1.5708  1.1109 -0.3608
  726TIP3    H223814   6.945   5.628   7.073  1.0664  1.5430  1.0842
  727TIP3   OH223815   3.940   3.204   1.852  0.1813 -0.0155 -0.0337
  727TIP3    H123816   3.948   3.155   1.934 -0.2754 -0.9827 -0.5476
  727TIP3    H223817   3.846   3.206   1.835  0.0694  2.0571  0.5519
  728TIP3   OH223818   2.945   2.908   1.929 -0.1779  0.1876 -0.0479
  728TIP3    H123819   2.860   2.870   1.950 -1.0658  1.1593 -1.6419
  728TIP3    H223820   2.927   3.002   1.921  1.2626  0.5356  0.5322
  729TIP3   OH223821   4.867   1.790   0.689  0.7004  0.4361  0.2649
  729TIP3    H123822   4.926   1.735   0.637  2.5862  2.6353 -0.0809
  729TIP3    H223823   4.780   1.770   0.656  1.4724 -1.1627 -0.9211
  730TIP3   OH223824   1.150   0.056   2.080  0.2380  0.4670 -0.1191
  730TIP3    H123825   1.192  -0.014   2.029 -1.2071  0.0737 -0.8140
  730TIP3    H223826   1.217   0.084   2.142  1.7612  0.3503 -1.6440
  731TIP3   OH223827   4.328   4.636   0.809  0.2117  0.0151  0.1542
  731TIP3    H123828   4.385   4.564   0.836  0.7349  0.2077 -0.4121
  731TIP3    H223829   4.257   4.595   0.760 -1.1509 -0.4257  2.3700
  732TIP3   OH223830   4.075   1.150   1.911  0.2064 -0.0260 -0.4707
  732TIP3    H123831   4.123   1.227   1.941 -2.9354  1.1759  1.9957
  732TIP3    H223832   4.004   1.186   1.857 -1.4414 -1.0769  0.9012
  733TIP3   OH223833   3.026   6.581   7.295 -0.0081  0.3819 -0.2021
  733TIP3    H123834   3.034   6.622   7.209 -0.7337  1.8853  0.4130
  733TIP3    H223835   3.015   6.654   7.355 -1.4113 -0.7301  0.9478
  734TIP3   OH223836   0.644   1.110   7.653  0.2270  0.3144  0.7499
  734TIP3    H123837   0.580   1.177   7.632 -1.0582 -1.3202 -0.9424
  734TIP3    H223838   0.671   1.075   7.568  0.7384 -1.3851  1.5614
  735TIP3   OH223839   4.144   4.666   1.037  0.5317 -0.7128  0.4864
  735TIP3    H123840   4.085   4.714   0.978  0.4092  0.0081  1.1773
  735TIP3    H223841   4.204   4.621   0.979  0.2283 -0.2489 -0.2055
  736TIP3   OH223842   5.935   0.095   0.795 -0.1807  0.1113  0.0083
  736TIP3    H123843   5.863   0.141   0.838 -0.9661  0.3750 -1.5261
  736TIP3    H223844   5.938   0.131   0.706  2.9440  1.3304  0.4798
  737TIP3   OH223845   0.707   1.288   0.818  0.3296  0.3470 -0.1629
  737TIP3    H123846   0.796   1.304   0.848 -0.3145 -0.9014  2.8528
  737TIP3    H223847   0.660   1.369   0.839  0.2302  0.0500  0.8276
  738TIP3   OH223848   2.054   1.386   0.204  0.5985 -0.1080 -0.3228
  738TIP3    H123849   2.044   1.396   0.299  0.0336  1.9817 -0.5648
  738TIP3    H223850   1.973   1.344   0.177 -0.8703  2.4912 -0.2637
  739TIP3   OH223851   3.507   3.971   8.031  0.4685  0.0413 -0.4608
  739TIP3    H123852   3.532   3.879   8.029 -0.9813 -0.3898 -0.1214
  739TIP3    H223853   3.478   3.990   7.941 -1.1576 -0.4413 -0.0782
  740TIP3   OH223854   6.503   5.801   0.251  0.2778 -0.2001 -0.0233
  740TIP3    H123855   6.473   5.891   0.237  1.3547 -0.2459 -3.6971
  740TIP3    H223856   6.598   5.808   0.259  0.3214 -0.9858  0.2321
  741TIP3   OH223857   2.910   1.570   0.296  0.4909  0.1981 -0.0669
  741TIP3    H123858   2.930   1.558   0.203 -2.0021 -1.3699 -0.4873
  741TIP3    H223859   2.864   1.654   0.299 -3.1591 -1.5507 -1.0811
  742TIP3   OH223860   0.729   1.479   1.949 -0.1703  0.4542  0.2914
  742TIP3    H123861   0.789   1.414   1.914 -0.6466 -1.6027  2.9913
  742TIP3    H223862   0.665   1.429   2.000 -3.3579  2.6501 -1.1371
  743TIP3   OH223863   3.044   3.590   0.006 -0.1696 -0.5053  0.7493
  743TIP3    H123864   3.039   3.677   0.046 -1.5802 -0.7055  1.0737
  743TIP3    H223865   3.020   3.604  -0.085  0.6168 -0.4204  0.5444
  744TIP3   OH223866   6.036   3.190   8.077 -0.0066 -0.3204 -0.4931
  744TIP3    H123867   6.043   3.232   7.991 -0.9344  0.0541 -0.3974
  744TIP3    H223868   6.126   3.165   8.099  0.3001 -0.0236 -1.3732
  745TIP3   OH223869   1.415   0.307   0.664 -0.0499 -0.2343 -0.0998
  745TIP3    H123870   1.381   0.225   0.700 -1.2141  0.3057  0.0794
  745TIP3    H223871   1.411   0.369   0.737 -0.4245  0.3187 -0.5835
  746TIP3   OH223872   3.847   0.183   0.166  0.4006 -0.3424  0.6956
  746TIP3    H123873   3.912   0.236   0.119 -0.0685  0.1602  0.6137
  746TIP3    H223874   3.824   0.236   0.243 -1.9766  0.7892 -0.6846
  747TIP3   OH223875   4.116   0.399   8.026  0.2151 -0.5918  0.1950
  747TIP3    H123876   4.039   0.438   7.984  1.4987  1.6588 -0.2257
  747TIP3    H223877   4.083   0.363   8.108 -1.0508  1.7344  0.7745
  748TIP3   OH223878   6.821   0.719   7.591 -0.2985 -0.6060  0.3694
  748TIP3    H123879   6.802   0.698   7.500  0.6450  0.4388 -0.0870
  748TIP3    H223880   6.738   0.754   7.625 -0.4571 -0.3128 -0.3046
  749TIP3   OH223881   6.407   5.131   8.209 -0.8399  0.2734  0.9586
  749TIP3    H123882   6.373   5.120   8.121  0.5086 -0.2847  0.4817
  749TIP3    H223883   6.383   5.221   8.233 -0.4859  0.7290 -0.3096
  750TIP3   OH223884   6.161   6.861   0.564  0.0533 -0.0695 -0.1808
  750TIP3    H123885   6.146   6.796   0.632 -0.9861  1.9557  1.6611
  750TIP3    H223886   6.100   6.837   0.494  0.3489 -1.5669  0.0454
  751TIP3   OH223887   3.641   3.584   8.564  0.1872  0.1349 -0.3043
  751TIP3    H123888   3.671   3.502   8.524  1.8501 -0.5785  2.1597
  751TIP3    H223889   3.720   3.636   8.575 -0.3516  0.7120  1.0799
  752TIP3   OH223890   5.138   5.311   7.135  0.3091 -0.2780  0.2035
  752TIP3    H123891   5.209   5.351   7.185  1.7206 -1.3701 -0.8154
  752TIP3    H223892   5.165   5.220   7.123 -1.3687 -0.7818 -0.0665
  753TIP3   OH223893   0.833   4.908   0.583  0.2235 -0.8091  0.5143
  753TIP3    H123894   0.848   4.833   0.526 -1.8186  1.0608 -2.7808
  753TIP3    H223895   0.898   4.972   0.556 -1.6497  0.6151 -0.9100
  754TIP3   OH223896   5.748   3.813   2.215 -0.1352 -0.1520 -0.0462
  754TIP3    H123897   5.713   3.900   2.198 -0.6182  0.0073  1.5322
  754TIP3    H223898   5.741   3.803   2.310 -0.6773 -2.1589 -0.2474
  755TIP3   OH223899   6.043   6.106   7.862 -0.3812  0.1317 -0.4136
  755TIP3    H123900   5.969   6.077   7.916 -0.3549  1.3438  0.3053
  755TIP3    H223901   6.120   6.084   7.914 -0.0121 -3.2587 -2.1390
  756TIP3   OH223902   2.522   5.062   1.367 -0.3400  0.0804  0.6085
  756TIP3    H123903   2.613   5.088   1.377  0.0084 -1.4422  1.7114
  756TIP3    H223904   2.490   5.050   1.456 -1.6907  0.8094  0.2400
  757TIP3   OH223905   6.629   3.417   7.931  0.5424  0.2504  0.7734
  757TIP3    H123906   6.715   3.460   7.931  0.6240  0.1000 -0.0237
  757TIP3    H223907   6.568   3.486   7.956  0.8105  0.5441  0.6258
  758TIP3   OH223908   3.976   1.444   2.526  0.1684 -0.1418 -0.4773
  758TIP3    H123909   3.926   1.507   2.578  0.0941 -0.2232 -0.4491
  758TIP3    H223910   4.056   1.491   2.502  0.9894 -0.6453  1.1009
  759TIP3   OH223911   0.931   6.198   1.344  0.1117  0.2478 -0.0307
  759TIP3    H123912   0.882   6.238   1.272  0.3263  1.7597  0.6296
  759TIP3    H223913   0.863   6.168   1.405 -0.0901 -1.4726 -1.0361
  760TIP3   OH223914   0.831   3.391   7.656 -0.0314  0.0915 -0.0897
  760TIP3    H123915   0.837   3.309   7.705  2.7910  0.5366  0.4654
  760TIP3    H223916   0.841   3.459   7.722  0.6788  0.7841 -0.8983
  761TIP3   OH223917   2.709   4.653   2.838  0.1506  0.3837 -0.3099
  761TIP3    H123918   2.765   4.580   2.865 -1.3495 -1.0154 -0.8068
  761TIP3    H223919   2.620   4.619   2.845 -0.6473  2.4111  0.0793
  762TIP3   OH223920   1.625   3.826   7.647  0.0842  0.1788 -0.1631
  762TIP3    H123921   1.606   3.823   7.553 -3.2515  3.2909  0.1819
  762TIP3    H223922   1.555   3.776   7.687  0.7634 -0.0732  0.7237
  763TIP3   OH223923   1.782   1.465   0.085 -0.5159 -0.4165  0.1574
  763TIP3    H123924   1.800   1.372   0.095  0.5478 -0.2121  0.3419
  763TIP3    H223925   1.798   1.483  -0.008  1.4456 -0.0222  0.5276
  764TIP3   OH223926   5.047   5.685   7.302 -0.4324  0.7917 -0.1823
  764TIP3    H123927   5.064   5.742   7.227  1.2304  3.1806  1.8421
  764TIP3    H223928   4.999   5.740   7.364 -1.4726 -1.0020  0.6765
  765TIP3   OH223929   1.853   1.195   0.105 -0.6661 -0.3855 -0.2597
  765TIP3    H123930   1.930   1.141   0.126  0.7662  1.1600 -1.2174
  765TIP3    H223931   1.812   1.151   0.031 -0.4120 -0.9654 -0.0618
  766TIP3   OH223932   1.736   0.432   2.638  0.3701  0.6091 -0.6404
  766TIP3    H123933   1.733   0.453   2.544  0.5697 -0.2499 -0.8489
  766TIP3    H223934   1.830   0.424   2.656  0.2977 -0.4649 -0.6661
  767TIP3   OH223935   2.898   4.381   1.999  0.7989  0.2033  0.2632
  767TIP3    H123936   2.907   4.462   1.948  2.3334 -1.5389 -2.5077
  767TIP3    H223937   2.976   4.379   2.055  0.2205  1.1029  1.1209
  768TIP3   OH223938   2.889   5.812   1.125 -0.0039 -0.6267 -0.0932
  768TIP3    H123939   2.796   5.792   1.139 -0.3390 -0.0029 -1.3163
  768TIP3    H223940   2.889   5.898   1.084  1.0729 -1.0021 -0.9048
  769TIP3   OH223941   6.347   4.381   8.457  0.4665  0.2629 -0.6706
  769TIP3    H123942   6.305   4.405   8.540  0.5651 -0.7671 -0.3099
  769TIP3    H223943   6.300   4.433   8.391 -0.1251  0.5288 -0.0552
  770TIP3   OH223944   1.067   0.783   0.500 -0.2317  0.0277 -0.2996
  770TIP3    H123945   1.001   0.839   0.458 -1.1321 -0.0601  0.9603
  770TIP3    H223946   1.109   0.840   0.564  1.1982  0.1836 -1.3383
  771TIP3   OH223947   4.664   3.266   8.387  0.2448  0.4277 -0.1445
  771TIP3    H123948   4.725   3.246   8.316 -0.5351 -0.7354 -0.5117
  771TIP3    H223949   4.596   3.199   8.380 -0.6053  1.1579  0.8145
  772TIP3   OH223950   0.818   6.832   7.866 -0.2463  0.4322 -0.0166
  772TIP3    H123951   0.894   6.881   7.832 -1.4240  1.5788 -1.1088
  772TIP3    H223952   0.789   6.883   7.942  0.7406 -0.6482  1.1328
  773TIP3   OH223953   6.279   6.113   8.003  0.2380 -0.6232 -0.4270
  773TIP3    H123954   6.320   6.030   7.980 -2.0873 -2.2150  0.8296
  773TIP3    H223955   6.332   6.146   8.075  0.7075 -1.4217 -0.3955
  774TIP3   OH223956   2.860   0.971   0.318 -0.2469  0.0104  0.4736
  774TIP3    H123957   2.814   0.968   0.402 -0.9768 -2.2240  0.0619
  774TIP3    H223958   2.944   0.928   0.335  0.0151  0.4341  0.2733
  775TIP3   OH223959   6.400   5.169   1.476 -0.6746 -0.1008  0.2997
  775TIP3    H123960   6.403   5.169   1.571  0.5065 -1.8850  0.3194
  775TIP3    H223961   6.489   5.194   1.450 -1.2472  1.3447 -0.3807
  776TIP3   OH223962   2.620   4.997   0.819  0.3933  0.2602  0.2141
  776TIP3    H123963   2.611   4.902   0.821 -0.5900  0.3151 -0.4974
  776TIP3    H223964   2.532   5.030   0.837  0.5520  1.0184 -0.3080
  777TIP3   OH223965   3.948   4.161   8.133 -0.2350 -0.2181 -0.1944
  777TIP3    H123966   3.982   4.137   8.219  0.3538 -0.1314 -0.4016
  777TIP3    H223967   3.854   4.146   8.140 -0.0406 -1.4061  0.0765
  778TIP3   OH223968   5.839   4.285   7.940 -0.5022  0.1364  0.1198
  778TIP3    H123969   5.810   4.215   7.998 -0.6721  0.6346  0.6502
  778TIP3    H223970   5.771   4.291   7.873  0.2465 -1.2023 -0.8068
  779TIP3   OH223971   3.448   2.578   7.070 -0.1007 -0.0602 -0.0573
  779TIP3    H123972   3.535   2.539   7.070  0.5699  1.3763 -0.1746
  779TIP3    H223973   3.410   2.553   7.154  0.9512  0.4244  0.5794
  780TIP3   OH223974   2.792   1.753   0.077  0.1705  0.2502  0.0080
  780TIP3    H123975   2.807   1.800  -0.005 -0.8169 -1.6209 -1.3287
  780TIP3    H223976   2.776   1.822   0.142  0.9217  1.7895 -1.3707
  781TIP3   OH223977   0.176   1.937   2.880 -0.1195 -0.3788 -0.1459
  781TIP3    H123978   0.264   1.969   2.859 -1.2587  2.1432 -1.5191
  781TIP3    H223979   0.134   2.009   2.927 -1.4916 -1.5200  0.4881
  782TIP3   OH223980   3.305   0.465   2.163 -0.2631  0.0477 -0.0055
  782TIP3    H123981   3.276   0.400   2.227 -2.1102 -1.3046 -2.0585
  782TIP3    H223982   3.247   0.452   2.087  2.2757  0.9760 -2.2924
  783TIP3   OH223983   1.241   5.222   1.419 -0.0135 -0.2511  0.5411
  783TIP3    H123984   1.287   5.271   1.487  0.5467 -0.4359  0.2966
  783TIP3    H223985   1.148   5.234   1.440  0.0723  1.4792  0.1020
  784TIP3   OH223986   5.715   2.255   7.734 -0.2544  0.1662  0.0339
  784TIP3    H123987   5.713   2.347   7.706  0.3455  1.0088  2.4760
  784TIP3    H223988   5.806   2.240   7.759 -0.5289 -0.8360  0.4559
  785TIP3   OH223989   1.379   0.835   1.904  0.0941  0.8351 -0.0784
  785TIP3    H123990   1.287   0.817   1.885  0.2980  1.2655 -1.6380
  785TIP3    H223991   1.386   0.931   1.898  0.0301  1.1740  3.2087
  786TIP3   OH223992   4.615   1.709   0.590  0.1015  0.0774 -0.6534
  786TIP3    H123993   4.532   1.712   0.638  0.9640 -2.2670  1.1472
  786TIP3    H223994   4.598   1.762   0.511 -3.2192 -0.6494 -0.5925
  787TIP3   OH223995   3.329   3.842   8.746  0.4505 -0.0546 -0.1884
  787TIP3    H123996   3.390   3.769   8.734  0.4931  0.1119 -0.9987
  787TIP3    H223997   3.271   3.838   8.670  0.0281  0.3485  0.1083
  788TIP3   OH223998   0.403   4.077   0.976 -0.0485  0.2270 -0.0420
  788TIP3    H123999   0.395   4.065   0.881  1.9072  1.9689 -0.4717
  788TIP3    H224000   0.312   4.071   1.007 -0.7168 -0.6601 -1.9478
  789TIP3   OH224001   0.136   0.217   7.923  0.0117  0.0155 -0.1751
  789TIP3    H124002   0.122   0.239   7.831 -1.0794 -0.2485 -0.0826
  789TIP3    H224003   0.197   0.284   7.955  0.3397  0.1499 -1.0627
  790TIP3   OH224004   4.578   1.414   0.948 -0.4741  0.0986  0.1315
  790TIP3    H124005   4.511   1.419   1.016  0.0157  2.2791  0.5316
  790TIP3    H224006   4.535   1.447   0.869  0.0110  1.3110  0.3425
  791TIP3   OH224007   3.616   5.239   1.862  0.2859 -0.2863  0.6347
  791TIP3    H124008   3.620   5.144   1.860 -0.4649 -0.3902 -2.6534
  791TIP3    H224009   3.522   5.259   1.872  0.5356  0.1688  2.2960
  792TIP3   OH224010   6.748   1.185   3.147 -0.5289 -0.3072 -0.4669
  792TIP3    H124011   6.770   1.269   3.188  0.0333 -0.0311 -1.2954
  792TIP3    H224012   6.653   1.189   3.134 -0.4425  0.4093 -0.9288
  793TIP3   OH224013   5.635   4.373   2.898  0.4266 -0.6345  0.1684
  793TIP3    H124014   5.612   4.312   2.968  1.7305  0.6743  1.8194
  793TIP3    H224015   5.720   4.410   2.924  0.4435  0.7165 -1.5537
  794TIP3   OH224016   0.753   5.542   0.372  0.2614  0.1588 -0.6922
  794TIP3    H124017   0.692   5.473   0.397 -1.9425  1.3504 -2.4239
  794TIP3    H224018   0.837   5.515   0.410 -1.3342 -1.4527  1.9616
  795TIP3   OH224019   1.117   4.636   6.501 -0.2858  0.3146  0.2131
  795TIP3    H124020   1.152   4.656   6.588  0.4745 -0.1716  0.0256
  795TIP3    H224021   1.192   4.649   6.442 -0.7634  0.5125 -0.3535
  796TIP3   OH224022   2.315   5.579   0.299 -0.5331  0.3214  0.0556
  796TIP3    H124023   2.391   5.557   0.353 -0.9547  1.8890  1.3873
  796TIP3    H224024   2.261   5.500   0.300 -0.7551  0.4162  2.3891
  797TIP3   OH224025   2.520   3.550   8.335 -0.3445 -0.0959 -0.2353
  797TIP3    H124026   2.552   3.502   8.412  0.4346  1.2606  0.3097
  797TIP3    H224027   2.598   3.593   8.300 -1.0990  1.1643 -0.4111
  798TIP3   OH224028   0.933   5.104   7.931 -0.3296 -0.0017  0.5300
  798TIP3    H124029   0.906   5.193   7.950 -2.6680 -0.6518  0.5878
  798TIP3    H224030   0.876   5.049   7.985 -0.7659 -1.5837 -1.4110
  799TIP3   OH224031   3.558   6.398   2.318 -0.5467  0.7378  0.2186
  799TIP3    H124032   3.597   6.429   2.400  0.1965  2.2305 -0.6624
  799TIP3    H224033   3.629   6.354   2.272 -1.5106 -2.2723  1.3171
  800TIP3   OH224034   6.356   2.099   3.028  0.1894  0.1780  1.0815
  800TIP3    H124035   6.275   2.068   3.067 -0.0283 -0.1923  0.3513
  800TIP3    H224036   6.419   2.027   3.042  0.1848  0.1572  0.9982
  801TIP3   OH224037   5.255   1.890   0.248  0.1603  0.0432 -0.2963
  801TIP3    H124038   5.267   1.803   0.210 -0.3266  0.4116 -1.3378
  801TIP3    H224039   5.174   1.883   0.299 -0.6633  0.2345 -1.5287
  802TIP3   OH224040   1.841   5.336   3.146  0.0997  0.0027 -0.5344
  802TIP3    H124041   1.797   5.258   3.182  0.2266 -1.2154 -2.8363
  802TIP3    H224042   1.783   5.409   3.169 -0.7438 -0.9381  0.4483
  803TIP3   OH224043   0.951   0.104   1.135 -0.3130  0.3976 -0.0856
  803TIP3    H124044   0.877   0.135   1.083 -0.5077 -0.6758 -0.4698
  803TIP3    H224045   0.996   0.042   1.077  0.3868  0.3820  0.4635
  804TIP3   OH224046   3.332   5.317   1.291 -0.2094 -0.0218 -0.3775
  804TIP3    H124047   3.425   5.316   1.269 -0.2078  1.3298 -0.5105
  804TIP3    H224048   3.291   5.368   1.220 -1.0611 -0.6706 -0.3632
  805TIP3   OH224049   4.332   0.706   7.680  0.8129 -0.0177  0.4442
  805TIP3    H124050   4.348   0.612   7.683 -0.1440 -0.1579  2.0975
  805TIP3    H224051   4.288   0.726   7.762 -0.5307  1.6057 -0.6005
  806TIP3   OH224052   0.449   1.336   8.495  0.7289 -0.2234  0.0380
  806TIP3    H124053   0.533   1.291   8.487  0.5325 -0.5704 -0.0683
  806TIP3    H224054   0.473   1.429   8.506  1.1371 -0.3749  0.4646
  807TIP3   OH224055   4.326   0.836   0.515  0.0889  0.5407  0.1011
  807TIP3    H124056   4.385   0.903   0.480  1.7866 -1.0350 -0.1873
  807TIP3    H224057   4.251   0.838   0.455  0.8138  1.1214 -0.8291
  808TIP3   OH224058   6.457   1.202   0.952  0.2203 -0.3620 -0.1061
  808TIP3    H124059   6.381   1.167   0.998  1.5328 -0.5866  2.0127
  808TIP3    H224060   6.512   1.238   1.021  1.9172  0.0626 -1.6089
  809TIP3   OH224061   0.436   3.526   1.664  0.4439  0.0681 -0.2273
  809TIP3    H124062   0.411   3.603   1.714 -1.1887 -0.1913 -0.6062
  809TIP3    H224063   0.416   3.549   1.573 -1.0972 -1.1711 -0.2320
  810TIP3   OH224064   1.032   0.690   6.780  0.0143  0.1861 -0.1669
  810TIP3    H124065   1.030   0.756   6.849 -0.0173 -0.8100  0.8341
  810TIP3    H224066   0.941   0.660   6.772 -0.2556  1.3286 -1.7179
  811TIP3   OH224067   6.758   1.343   2.763 -0.2303  0.2236  0.5676
  811TIP3    H124068   6.746   1.438   2.757 -1.9341 -0.0424 -1.8274
  811TIP3    H224069   6.836   1.326   2.710 -0.0387  0.2631  0.8358
  812TIP3   OH224070   0.170   2.702   1.765  0.0038  0.3037 -0.2084
  812TIP3    H124071   0.154   2.746   1.682  1.1383  1.0212 -0.0639
  812TIP3    H224072   0.086   2.662   1.788 -0.7553  1.4621 -0.8943
  813TIP3   OH224073   0.169   1.169   8.242  0.0114 -0.0832 -0.0092
  813TIP3    H124074   0.103   1.106   8.271 -2.5980  2.5262  0.1089
  813TIP3    H224075   0.208   1.129   8.164 -1.4589 -1.8500  0.0937
  814TIP3   OH224076   2.037   1.620   2.952 -0.0773 -0.0251 -0.4102
  814TIP3    H124077   2.044   1.591   3.043  0.8382  2.9643  0.5920
  814TIP3    H224078   1.982   1.554   2.910 -0.5374 -1.5171  2.3020
  815TIP3   OH224079   2.070   1.874   2.045  0.3316  0.0740 -0.1941
  815TIP3    H124080   2.060   1.958   1.999  1.2241  0.6172  0.5778
  815TIP3    H224081   2.037   1.892   2.133  0.2978 -0.4627 -0.0996
  816TIP3   OH224082   2.531   4.714   8.539 -0.1311  0.8393 -0.2666
  816TIP3    H124083   2.587   4.769   8.593 -0.2319  1.3765 -0.6952
  816TIP3    H224084   2.532   4.628   8.582 -0.1871  1.2427  0.5572
  817TIP3   OH224085   4.005   5.473   0.410  0.3098 -0.0504  0.5449
  817TIP3    H124086   4.039   5.388   0.382 -0.8119 -0.4668  0.3815
  817TIP3    H224087   4.061   5.537   0.367  1.0125 -0.7082  0.4660
  818TIP3   OH224088   2.250   0.409   0.349  0.0800 -0.1325 -0.3990
  818TIP3    H124089   2.284   0.325   0.318 -0.4076 -0.6097  0.3404
  818TIP3    H224090   2.246   0.463   0.270 -0.9547 -1.2642 -1.1642
  819TIP3   OH224091   3.814   5.645   2.608  0.0394  0.2424  0.3075
  819TIP3    H124092   3.903   5.675   2.587  0.3743 -0.4121  0.7378
  819TIP3    H224093   3.772   5.721   2.647  0.4993  0.4823  0.3474
  820TIP3   OH224094   2.733   4.760   2.161  0.2145 -0.3415 -0.2420
  820TIP3    H124095   2.755   4.818   2.234 -1.5326 -1.2296  1.0761
  820TIP3    H224096   2.762   4.673   2.190  1.1992 -0.4323 -1.4382
  821TIP3   OH224097   5.879   3.042   2.894  0.4696 -0.7210 -0.0669
  821TIP3    H124098   5.971   3.016   2.903  0.6269 -0.1232  0.0524
  821TIP3    H224099   5.881   3.135   2.871 -0.0684 -1.0063 -1.4028
  822TIP3   OH224100   1.569   2.803   1.546  0.0112 -0.2014 -0.2041
  822TIP3    H124101   1.571   2.802   1.451 -2.9531  1.5045 -0.3779
  822TIP3    H224102   1.521   2.723   1.570  0.2636 -0.3380 -0.1437
  823TIP3   OH224103   6.654   1.419   8.748  0.5412  0.4052  0.3719
  823TIP3    H124104   6.704   1.340   8.730  0.7604  0.5137  0.5034
  823TIP3    H224105   6.672   1.439   8.840 -0.9735 -0.4356  0.8807
  824TIP3   OH224106   6.240   4.521   8.706 -0.2418  0.0241 -0.4873
  824TIP3    H124107   6.160   4.533   8.655 -0.2639  1.1605 -0.2126
  824TIP3    H224108   6.307   4.568   8.656  0.4339 -1.5240 -1.0956
  825TIP3   OH224109   6.453   2.222   2.776 -0.1206 -0.1771  0.3196
  825TIP3    H124110   6.415   2.309   2.778  2.0492  0.8277  1.5615
  825TIP3    H224111   6.419   2.178   2.854 -1.5829 -0.6627 -0.5549
  826TIP3   OH224112   2.547   3.955   1.073 -0.4725 -0.0071  0.5867
  826TIP3    H124113   2.550   3.894   1.147  0.0420 -1.3620 -0.5050
  826TIP3    H224114   2.594   3.910   1.003 -2.6117  0.3551 -1.1997
  827TIP3   OH224115   3.515   4.008   2.917 -0.3216  0.5882  0.3434
  827TIP3    H124116   3.583   4.029   2.853 -1.0167  0.9780 -0.2770
  827TIP3    H224117   3.446   3.966   2.866 -1.5733  2.3063  0.5378
  828TIP3   OH224118   0.198   0.677   0.980  0.1405  0.3575 -0.2215
  828TIP3    H124119   0.118   0.624   0.987  0.8541 -0.5448  1.9322
  828TIP3    H224120   0.167   0.767   0.983 -0.8160  0.0220  0.7447
  829TIP3   OH224121   1.974   2.375   1.992  0.5924  0.4901  0.3914
  829TIP3    H124122   1.936   2.340   2.072  1.6337  0.2880  0.8138
  829TIP3    H224123   1.995   2.297   1.939 -0.1458  0.6229 -0.1169
  830TIP3   OH224124   3.145   2.323   2.017 -0.1479  0.0065  0.2749
  830TIP3    H124125   3.123   2.268   2.092 -0.5887 -1.2730 -0.7375
  830TIP3    H224126   3.110   2.409   2.038  1.0634  0.0782  2.1630
  831TIP3   OH224127   3.866   4.278   1.372 -0.2290  0.3898 -0.0233
  831TIP3    H124128   3.880   4.348   1.308  0.3520 -1.0409 -1.5294
  831TIP3    H224129   3.779   4.244   1.353  0.2245 -0.5067 -0.5408
  832TIP3   OH224130   6.304   1.701   7.358  0.1947 -0.5832  0.0295
  832TIP3    H124131   6.222   1.677   7.314  0.4421  0.6338 -1.1616
  832TIP3    H224132   6.335   1.777   7.309  0.1914  1.2434  2.6894
  833TIP3   OH224133   6.615   1.973   8.136  0.3547  0.2918 -0.1995
  833TIP3    H124134   6.553   1.903   8.158  0.6970 -0.5520 -1.7546
  833TIP3    H224135   6.564   2.033   8.082  0.4087  0.5611  0.0491
  834TIP3   OH224136   1.585   6.152   2.126  0.0823 -0.3081  0.1183
  834TIP3    H124137   1.563   6.060   2.111  1.4251 -0.5628 -0.4353
  834TIP3    H224138   1.587   6.161   2.221  1.2609 -1.1992  0.1997
  835TIP3   OH224139   0.431   3.070   2.130 -0.0574 -0.0846  0.1827
  835TIP3    H124140   0.487   3.001   2.166  0.2037  0.2293  0.3788
  835TIP3    H224141   0.405   3.036   2.044  1.1554  0.1395 -0.3038
  836TIP3   OH224142   0.306   1.876   3.119  0.4686  0.6658  0.3404
  836TIP3    H124143   0.244   1.841   3.055 -0.1110  0.4679  0.9938
  836TIP3    H224144   0.344   1.953   3.077  0.9085 -0.0877 -0.6685
  837TIP3   OH224145   4.373   4.362   2.883 -0.2007  0.2602  0.5142
  837TIP3    H124146   4.440   4.418   2.843 -1.3650  0.9624 -0.5166
  837TIP3    H224147   4.372   4.283   2.829 -1.2309  0.8817 -0.3990
  838TIP3   OH224148   3.729   3.898   7.804 -0.0912  0.4144 -0.1376
  838TIP3    H124149   3.757   3.894   7.896  0.2099 -1.0831 -0.2655
  838TIP3    H224150   3.641   3.934   7.807 -0.7223 -1.1215  0.9229
  839TIP3   OH224151   6.483   6.115   1.632 -0.2951  0.3100 -0.8489
  839TIP3    H124152   6.502   6.038   1.577 -1.5818 -0.6266 -0.0361
  839TIP3    H224153   6.562   6.125   1.685 -0.8030 -1.7275  0.4338
  840TIP3   OH224154   3.901   0.254   0.740  0.3132  0.0552 -0.1689
  840TIP3    H124155   3.839   0.192   0.702 -0.5550 -0.0129  1.2557
  840TIP3    H224156   3.926   0.215   0.823  0.5239  1.1339  0.2956
  841TIP3   OH224157   6.714   3.225   3.306  0.3732 -0.1143  0.0768
  841TIP3    H124158   6.750   3.309   3.335  0.7042 -0.6380  1.2174
  841TIP3    H224159   6.788   3.165   3.308  0.2001 -0.3856 -1.0094
  842TIP3   OH224160   3.246   6.731   8.575  0.2310 -0.1690 -0.3737
  842TIP3    H124161   3.253   6.805   8.515  3.2119 -0.3472 -0.3774
  842TIP3    H224162   3.252   6.654   8.519 -2.0283 -0.4930 -0.2790
  843TIP3   OH224163   0.251   5.435   2.616 -0.3129  0.5476 -0.1129
  843TIP3    H124164   0.182   5.452   2.680  1.1538  0.9402  1.4307
  843TIP3    H224165   0.298   5.359   2.651  2.2409  2.4282  0.8474
  844TIP3   OH224166   5.433   2.718   0.524  0.1130 -0.3180 -0.4695
  844TIP3    H124167   5.424   2.707   0.618 -0.0042  0.1851 -0.4148
  844TIP3    H224168   5.510   2.667   0.500  1.6276  1.4798  0.2940
  845TIP3   OH224169   0.395   5.325   0.876 -0.0614  0.2807  0.2151
  845TIP3    H124170   0.490   5.332   0.884  0.2271 -2.3824  0.0714
  845TIP3    H224171   0.362   5.363   0.957  1.2912 -0.8168  1.3482
  846TIP3   OH224172   0.834   6.838   0.801  0.2148  0.2764 -0.3733
  846TIP3    H124173   0.778   6.874   0.870  0.8174 -0.0646  0.3025
  846TIP3    H224174   0.773   6.793   0.742 -0.2241 -0.1742  0.4054
  847TIP3   OH224175   4.765   2.649   1.637 -0.4315  0.2131 -0.5098
  847TIP3    H124176   4.671   2.637   1.627 -0.5232 -1.0696  1.3483
  847TIP3    H224177   4.774   2.731   1.684 -0.6007  0.4157 -0.8274
  848TIP3   OH224178   4.377   3.714   8.463  0.2521  0.5103  0.5644
  848TIP3    H124179   4.473   3.712   8.465  0.3377 -0.1180 -1.6063
  848TIP3    H224180   4.356   3.745   8.375 -1.5322 -1.6148  0.1728
  849TIP3   OH224181   2.977   1.093   0.619 -0.1093 -0.0876 -0.0004
  849TIP3    H124182   2.948   1.182   0.600 -0.0419  0.0685  0.5954
  849TIP3    H224183   3.010   1.097   0.709  3.1265  0.0955 -1.0683
  850TIP3   OH224184   1.724   0.369   7.468  0.0373 -0.3119  0.1163
  850TIP3    H124185   1.726   0.447   7.523  2.1807 -0.6293  0.5870
  850TIP3    H224186   1.688   0.399   7.385  1.4916  1.3831  0.0326
  851TIP3   OH224187   1.212   5.759   8.123  0.2140  0.6474 -0.6505
  851TIP3    H124188   1.241   5.847   8.099  2.4748 -0.0016 -0.4912
  851TIP3    H224189   1.228   5.707   8.045 -2.9304  0.6541 -1.4411
  852TIP3   OH224190   0.327   3.294   0.387 -0.1157  0.3889  0.2844
  852TIP3    H124191   0.396   3.331   0.333 -0.2705 -1.5847 -1.3867
  852TIP3    H224192   0.353   3.315   0.477  1.2205  1.9916 -0.4173
  853TIP3   OH224193   5.422   6.042   7.866 -0.1541 -0.0071  0.2186
  853TIP3    H124194   5.461   6.092   7.794 -0.7073  2.0885  1.2845
  853TIP3    H224195   5.328   6.042   7.847 -0.3549  0.9189  1.0930
  854TIP3   OH224196   5.020   3.479   1.003  0.0237  0.4240  0.2202
  854TIP3    H124197   5.043   3.479   1.096 -0.8512 -0.7369  0.4608
  854TIP3    H224198   5.098   3.444   0.959  0.4216  0.9263  0.5162
  855TIP3   OH224199   3.873   0.804   7.946 -0.0784  0.3375  0.0454
  855TIP3    H124200   3.904   0.879   7.996  0.9183  0.4160 -0.6587
  855TIP3    H224201   3.952   0.770   7.903 -0.6871 -0.5137 -0.4195
  856TIP3   OH224202   4.961   6.792   8.346 -0.3150 -0.3794 -0.3549
  856TIP3    H124203   5.018   6.839   8.284  0.6367 -0.7327  0.2252
  856TIP3    H224204   4.878   6.783   8.300 -0.3084  1.2675 -0.7442
  857TIP3   OH224205   2.368   6.794   0.536  0.3053  0.3110 -0.8080
  857TIP3    H124206   2.272   6.796   0.536  0.2892 -0.2659 -0.9031
  857TIP3    H224207   2.392   6.761   0.450  0.5919  0.5584 -0.8239
  858TIP3   OH224208   0.156   0.074   8.188  0.2586  0.3126 -0.5684
  858TIP3    H124209   0.134   0.140   8.123  1.0260  0.6744 -0.4745
  858TIP3    H224210   0.235   0.032   8.153 -0.6237 -1.0713 -0.9946
  859TIP3   OH224211   3.838   0.468   8.409 -0.3286 -0.9024  0.6502
  859TIP3    H124212   3.897   0.534   8.373 -2.1974  1.1349  1.1119
  859TIP3    H224213   3.879   0.384   8.387  1.6299  0.3716 -0.8543
  860TIP3   OH224214   2.337   6.388   1.615  0.1813 -0.9067 -0.4968
  860TIP3    H124215   2.378   6.436   1.543 -0.9088 -1.1008 -1.2813
  860TIP3    H224216   2.280   6.325   1.571 -1.9091  0.1919  0.5199
  861TIP3   OH224217   0.760   1.469   1.637  0.3604  0.1599 -0.0890
  861TIP3    H124218   0.846   1.440   1.607  0.4393 -2.7903  2.4569
  861TIP3    H224219   0.705   1.392   1.630 -0.9367  0.7777  2.1776
  862TIP3   OH224220   5.044   5.496   7.674  0.0882  0.2711  0.1378
  862TIP3    H124221   5.046   5.481   7.579 -1.0013  0.4536  0.0657
  862TIP3    H224222   5.054   5.408   7.712  2.2604  0.3749 -0.0818
  863TIP3   OH224223   3.673   2.183   7.859  0.0171  0.5083 -0.0893
  863TIP3    H124224   3.730   2.233   7.801 -0.7580  1.6363  0.1023
  863TIP3    H224225   3.723   2.174   7.940  0.1502  1.0181 -0.1124
  864TIP3   OH224226   5.837   4.341   0.876 -0.4292  0.0397  0.0638
  864TIP3    H124227   5.881   4.352   0.792 -0.4512 -1.9358 -0.2650
  864TIP3    H224228   5.851   4.423   0.922  0.0359  0.9679 -1.6640
  865TIP3   OH224229   1.421   3.428   2.530 -0.2328 -0.0478 -0.5647
  865TIP3    H124230   1.349   3.481   2.563  0.8764  0.7323  0.6771
  865TIP3    H224231   1.453   3.476   2.453 -0.7129 -0.1540 -0.8355
  866TIP3   OH224232   4.301   5.815   8.211 -0.3193  0.2720  0.2058
  866TIP3    H124233   4.343   5.769   8.139  1.9534 -0.6341  1.9842
  866TIP3    H224234   4.278   5.746   8.274 -2.6787  0.9742  0.2138
  867TIP3   OH224235   6.504   3.105   8.653 -0.3428 -0.0439  0.2971
  867TIP3    H124236   6.577   3.047   8.674 -1.3401 -1.8501 -0.9766
  867TIP3    H224237   6.464   3.066   8.575 -2.2601  1.2605  0.5689
  868TIP3   OH224238   0.142   6.135   8.046  0.0525  0.8317 -0.4543
  868TIP3    H124239   0.118   6.227   8.055 -0.5435  0.5529  0.9996
  868TIP3    H224240   0.120   6.095   8.130 -1.0795 -0.9490 -1.5174
  869TIP3   OH224241   3.624   6.443   8.015  0.3763 -0.4540  0.2350
  869TIP3    H124242   3.715   6.432   8.043  0.1245 -1.6316  0.6284
  869TIP3    H224243   3.589   6.354   8.011 -1.3831  0.0540  2.2333
  870TIP3   OH224244   1.873   6.152   7.525 -0.5851 -0.1125  0.0476
  870TIP3    H124245   1.849   6.234   7.483 -2.0614  0.0124  1.0618
  870TIP3    H224246   1.923   6.105   7.459  1.4042  2.0838 -0.1663
  871TIP3   OH224247   6.224   0.220   7.316 -0.5662  0.3153 -0.2360
  871TIP3    H124248   6.197   0.172   7.238  0.8816 -1.3164  0.1769
  871TIP3    H224249   6.253   0.305   7.284 -0.6844 -0.0615 -1.3716
  872TIP3   OH224250   2.679   4.568   1.844  0.2377  0.4982 -0.2435
  872TIP3    H124251   2.683   4.483   1.800 -0.1989  0.7822 -0.8566
  872TIP3    H224252   2.703   4.550   1.934  1.5628 -0.0359 -0.6766
  873TIP3   OH224253   3.164   4.329   2.442 -0.5017  0.0085  0.6090
  873TIP3    H124254   3.249   4.355   2.476  0.0251  0.5056 -0.9902
  873TIP3    H224255   3.179   4.245   2.399 -0.0892  1.3583 -2.1379
  874TIP3   OH224256   1.477   1.628   8.010  0.5295  0.2342 -0.2845
  874TIP3    H124257   1.384   1.607   8.014  0.5045  0.5018  0.8545
  874TIP3    H224258   1.519   1.562   8.065  0.7872  1.2421  0.7769
  875TIP3   OH224259   2.140   5.397   0.920 -0.1862  0.5870  0.7167
  875TIP3    H124260   2.141   5.336   0.994  0.4272  0.6018  0.7241
  875TIP3    H224261   2.094   5.350   0.851  0.1255  0.1839  0.7803
  876TIP3   OH224262   2.139   5.864   1.238 -0.2399  0.0937 -0.7782
  876TIP3    H124263   2.190   5.804   1.183  1.5172  1.2909 -0.5433
  876TIP3    H224264   2.137   5.946   1.188 -0.1711  0.6641  0.1478
  877TIP3   OH224265   6.616   6.456   7.837 -0.0020 -0.2772  0.3319
  877TIP3    H124266   6.678   6.401   7.791  1.0205  1.9090 -1.0553
  877TIP3    H224267   6.633   6.439   7.930  0.4950 -1.9757 -0.0391
  878TIP3   OH224268   2.895   1.850   0.316  0.2525  1.0067  0.2892
  878TIP3    H124269   2.978   1.896   0.300  0.7610  0.2762  0.7335
  878TIP3    H224270   2.879   1.862   0.410  0.5181  0.1065  0.4622
  879TIP3   OH224271   3.750   3.029   8.210 -0.3640 -0.0120  0.3000
  879TIP3    H124272   3.763   3.098   8.144  0.1280  0.6938  1.1162
  879TIP3    H224273   3.672   2.982   8.180  0.9027 -0.9042 -1.7964
  880TIP3   OH224274   0.814   0.359   2.867  0.2354  0.1970  0.3125
  880TIP3    H124275   0.859   0.352   2.951 -0.4444 -1.2173  0.5873
  880TIP3    H224276   0.733   0.309   2.879 -0.4460  0.9740 -0.8115
  881TIP3   OH224277   4.739   6.306   8.317 -0.7349  0.1393 -0.0270
  881TIP3    H124278   4.740   6.368   8.244  2.6768 -0.7710 -0.9229
  881TIP3    H224279   4.716   6.360   8.393 -1.6074  1.6979 -1.3272
  882TIP3   OH224280   6.160   2.343   0.984  0.5297  0.6454  0.1087
  882TIP3    H124281   6.247   2.343   0.945  0.9010  2.3030  0.8572
  882TIP3    H224282   6.112   2.411   0.936 -1.4040 -2.1191 -2.3253
  883TIP3   OH224283   1.836   2.056   1.361  0.2290  0.3514  0.5212
  883TIP3    H124284   1.748   2.092   1.373 -0.3125  0.1049 -2.0504
  883TIP3    H224285   1.886   2.128   1.321  0.3643 -0.3451 -0.6168
  884TIP3   OH224286   6.522   4.313   8.184 -0.3053  0.0085  0.6586
  884TIP3    H124287   6.527   4.390   8.241 -1.6305  0.1799  0.5863
  884TIP3    H224288   6.597   4.259   8.209  1.3360  1.8376 -0.0888
  885TIP3   OH224289   4.010   1.401   1.430 -0.3698 -0.5437  0.4801
  885TIP3    H124290   4.058   1.371   1.352  1.4560 -1.9542  2.0500
  885TIP3    H224291   3.919   1.380   1.411  0.0165 -0.7799 -1.3076
  886TIP3   OH224292   2.093   0.659   0.781 -0.2481  0.2235  0.1324
  886TIP3    H124293   2.021   0.668   0.842  0.7288  0.6519  1.2697
  886TIP3    H224294   2.115   0.566   0.783 -0.1147  0.2624  0.5688
  887TIP3   OH224295   5.085   5.192   8.618  0.1742 -0.3082  0.2943
  887TIP3    H124296   5.103   5.270   8.565  0.9001 -2.1897 -2.4828
  887TIP3    H224297   5.081   5.224   8.708  2.8129  2.5798 -0.4296
  888TIP3   OH224298   4.213   0.709   0.169 -0.0630 -0.1966 -0.3750
  888TIP3    H124299   4.188   0.667   0.252 -0.5016 -0.3233 -0.5701
  888TIP3    H224300   4.291   0.759   0.191  0.5526 -1.2154 -0.1618
  889TIP3   OH224301   6.377   2.953   7.651 -0.2445 -0.0005  0.3125
  889TIP3    H124302   6.324   2.874   7.641  0.8046 -0.7359  0.3521
  889TIP3    H224303   6.343   3.014   7.586 -1.0881 -0.4747  0.3020
  890TIP3   OH224304   6.493   2.854   2.219 -1.0597 -0.7743 -0.2415
  890TIP3    H124305   6.520   2.900   2.299 -1.3510  1.0147 -1.1222
  890TIP3    H224306   6.470   2.766   2.249  1.7232 -1.1373  1.1854
  891TIP3   OH224307   6.164   3.014   1.240 -0.0680  0.1529 -0.5248
  891TIP3    H124308   6.184   2.930   1.200 -2.2789 -0.5290 -0.3428
  891TIP3    H224309   6.141   3.071   1.166  0.0486  0.1760 -0.5431
  892TIP3   OH224310   2.363   2.859   1.980  0.1473 -0.3855 -0.0584
  892TIP3    H124311   2.383   2.820   2.065  1.9255 -0.8301 -0.6566
  892TIP3    H224312   2.298   2.800   1.941 -0.0675 -0.6198  0.6507
  893TIP3   OH224313   2.096   4.805   6.920 -0.7314  0.0752  0.6584
  893TIP3    H124314   2.123   4.736   6.981 -0.2458 -0.1221  0.2261
  893TIP3    H224315   2.014   4.773   6.883 -1.5092  0.6044  1.8649
  894TIP3   OH224316   5.044   4.048   0.471 -0.5186  0.2438 -0.5397
  894TIP3    H124317   5.007   4.111   0.533  0.0926  0.9869 -0.9132
  894TIP3    H224318   4.977   4.037   0.404 -0.0978  1.5549 -1.1966
  895TIP3   OH224319   3.684   5.422   2.507 -0.0730  0.0286 -0.0305
  895TIP3    H124320   3.699   5.500   2.560 -1.5636  0.1210  0.2876
  895TIP3    H224321   3.661   5.354   2.570 -0.6294 -0.1828 -0.4590
  896TIP3   OH224322   0.361   1.159   1.462 -0.8440  0.3472 -0.4974
  896TIP3    H124323   0.303   1.192   1.392 -0.1507  1.0866 -0.7420
  896TIP3    H224324   0.345   1.065   1.464 -0.8842  0.3172 -1.6512
  897TIP3   OH224325   0.522   0.906   0.299  0.1627  0.5333  0.2780
  897TIP3    H124326   0.587   0.976   0.301  1.6610 -0.7494 -0.9448
  897TIP3    H224327   0.558   0.838   0.356  0.3004 -0.4810 -0.9679
  898TIP3   OH224328   6.010   1.564   7.281 -0.0552 -0.3411 -0.7019
  898TIP3    H124329   6.001   1.540   7.189  0.2843  0.0320 -0.8379
  898TIP3    H224330   6.029   1.482   7.326 -1.4687 -0.7383 -0.7710
  899TIP3   OH224331   5.486   3.576   0.993 -0.4970 -0.0474 -0.3345
  899TIP3    H124332   5.549   3.648   0.985 -1.1910  0.5804 -0.2543
  899TIP3    H224333   5.535   3.499   0.965  0.0087  0.5794 -1.2524
  900TIP3   OH224334   2.104   3.867   0.053 -0.0647 -0.5104 -0.1462
  900TIP3    H124335   2.123   3.809  -0.021 -3.0818 -0.6979 -0.8671
  900TIP3    H224336   2.045   3.816   0.108 -0.3106  0.7867  0.8141
  901TIP3   OH224337   5.551   6.307   1.767 -0.0255 -0.0241 -0.4735
  901TIP3    H124338   5.508   6.297   1.851 -1.3097 -0.6603 -1.1756
  901TIP3    H224339   5.578   6.219   1.742 -0.4893  0.0055 -1.1322
  902TIP3   OH224340   2.504   0.753   2.228 -0.0351 -0.5312 -0.8270
  902TIP3    H124341   2.589   0.777   2.265  0.6999  1.7867 -3.6747
  902TIP3    H224342   2.522   0.679   2.171  0.0323 -0.2210 -1.2116
  903TIP3   OH224343   1.650   5.945   7.410 -0.4572 -0.6066 -0.3300
  903TIP3    H124344   1.697   5.934   7.493  0.4485  0.1793 -0.7178
  903TIP3    H224345   1.656   6.038   7.391 -2.7453 -0.3516 -0.1065
  904TIP3   OH224346   4.999   0.069   8.669  0.0409 -0.6811  0.6586
  904TIP3    H124347   4.925   0.025   8.629 -0.1206 -0.7969  1.0849
  904TIP3    H224348   5.028   0.132   8.603 -0.3199 -0.7641  0.4206
  905TIP3   OH224349   5.226   4.598   0.380 -0.2250 -0.1629  0.2867
  905TIP3    H124350   5.134   4.608   0.355  0.2781  0.2454 -1.5131
  905TIP3    H224351   5.259   4.688   0.384  0.3140 -0.3508  0.0834
  906TIP3   OH224352   5.482   3.576   7.260  0.1336 -0.0134 -0.1075
  906TIP3    H124353   5.451   3.581   7.170 -0.2603  0.2370  0.0425
  906TIP3    H224354   5.550   3.508   7.258  1.1744  1.0059 -0.8911
  907TIP3   OH224355   3.199   3.687   2.108  0.3700 -0.4466 -0.0874
  907TIP3    H124356   3.219   3.743   2.033  0.6923 -0.5026 -0.0433
  907TIP3    H224357   3.129   3.629   2.076  0.8610 -0.8161 -0.5073
  908TIP3   OH224358   2.089   2.590   2.870 -0.1122  0.2619 -0.3264
  908TIP3    H124359   2.170   2.557   2.830 -0.6554  0.1811 -1.4085
  908TIP3    H224360   2.101   2.577   2.964  1.2279  0.4806 -0.4567
  909TIP3   OH224361   3.621   5.296   7.823 -0.3693  0.0409  0.2607
  909TIP3    H124362   3.618   5.357   7.897 -1.6889  0.0457  0.2130
  909TIP3    H224363   3.553   5.232   7.841 -0.7014  0.0317 -0.9467
  910TIP3   OH224364   1.292   3.866   7.397 -0.1875  0.2957  0.2785
  910TIP3    H124365   1.253   3.819   7.323  1.0719 -0.2548 -0.0592
  910TIP3    H224366   1.371   3.906   7.361 -0.4335  1.4128  0.9412
  911TIP3   OH224367   6.530   2.726   0.819  0.4554  0.1193 -0.3344
  911TIP3    H124368   6.508   2.648   0.768 -1.7067  0.7315 -0.4448
  911TIP3    H224369   6.474   2.720   0.896  0.2846  1.5173 -0.3298
  912TIP3   OH224370   0.203   3.658   7.609  0.6062  0.1102 -0.2241
  912TIP3    H124371   0.240   3.726   7.665  0.4340  0.4431 -0.5156
  912TIP3    H224372   0.113   3.685   7.595  0.7647  0.2443 -1.0063
  913TIP3   OH224373   1.983   5.284   8.548 -0.2723  0.1990 -0.0110
  913TIP3    H124374   1.916   5.263   8.614 -0.0514 -0.5118 -0.0079
  913TIP3    H224375   1.943   5.256   8.465  0.6324 -1.7245  0.1603
  914TIP3   OH224376   0.152   3.706   0.341 -0.2921 -0.4081  0.1844
  914TIP3    H124377   0.181   3.672   0.256  0.1455  0.1472  0.1062
  914TIP3    H224378   0.217   3.673   0.403 -0.3890 -0.4840  0.2460
  915TIP3   OH224379   3.203   3.225   1.178  0.4446  0.7011  0.1017
  915TIP3    H124380   3.187   3.134   1.155 -0.6040  0.9176 -0.1032
  915TIP3    H224381   3.117   3.259   1.203  0.7804  1.6811 -0.0178
  916TIP3   OH224382   4.919   3.233   1.414  0.1839 -0.0199  0.2416
  916TIP3    H124383   4.957   3.175   1.480  0.6179 -0.3162 -0.2539
  916TIP3    H224384   4.851   3.181   1.372 -1.7324  0.9469  2.0121
  917TIP3   OH224385   6.564   4.959   1.980 -0.2374  0.3994  0.0071
  917TIP3    H124386   6.487   5.009   1.953  0.0229  1.6364  1.4167
  917TIP3    H224387   6.533   4.903   2.051 -0.0557  0.1098 -0.1376
  918TIP3   OH224388   3.279   2.929   8.030  0.1361  0.2855 -0.1028
  918TIP3    H124389   3.314   2.944   8.117 -0.4868 -0.3213  0.2685
  918TIP3    H224390   3.306   2.840   8.008 -0.1663  0.2391 -0.2995
  919TIP3   OH224391   2.460   5.532   8.474 -0.5860 -0.0349 -0.5388
  919TIP3    H124392   2.404   5.488   8.410 -1.1212 -0.1213 -0.0216
  919TIP3    H224393   2.404   5.542   8.551  1.1274 -3.3060  1.3118
  920TIP3   OH224394   2.338   5.569   8.743  0.5893  0.2582 -0.0397
  920TIP3    H124395   2.280   5.570   8.819  0.3775  2.5299 -0.1785
  920TIP3    H224396   2.390   5.489   8.754 -2.1253 -1.5968  0.3565
  921TIP3   OH224397   1.427   4.621   8.120 -0.7146 -0.2612  0.0616
  921TIP3    H124398   1.407   4.707   8.084 -0.8592 -0.7117 -0.9587
  921TIP3    H224399   1.420   4.633   8.215 -1.6944  0.6034 -0.1031
  922TIP3   OH224400   1.075   5.427   8.298  0.0349  0.2120 -0.6685
  922TIP3    H124401   0.984   5.400   8.308 -0.3346  1.7513  0.6316
  922TIP3    H224402   1.086   5.442   8.204 -1.5838  1.5967 -0.6951
  923TIP3   OH224403   0.241   2.911   8.036  0.1838 -0.4781  0.8171
  923TIP3    H124404   0.188   2.990   8.044  1.5714  0.3502  2.4515
  923TIP3    H224405   0.283   2.919   7.950 -0.2844  0.1488  0.6367
  924TIP3   OH224406   6.394   4.952   1.649 -0.1693  0.0614 -0.4283
  924TIP3    H124407   6.427   4.955   1.559 -0.0097  0.1324 -0.3688
  924TIP3    H224408   6.426   4.869   1.684  0.7976  0.5706 -0.0539
  925TIP3   OH224409   6.238   2.185   1.477 -0.0588  0.1972 -0.3268
  925TIP3    H124410   6.321   2.209   1.520 -1.3002  1.4351  1.5310
  925TIP3    H224411   6.229   2.249   1.406 -0.1637  1.1187  0.4850
  926TIP3   OH224412   2.920   0.474   0.805  0.0794 -0.2011 -0.1030
  926TIP3    H124413   2.915   0.556   0.856  0.3659  0.0237 -0.4338
  926TIP3    H224414   2.855   0.417   0.846 -1.0734  0.6492 -0.6796
  927TIP3   OH224415   1.341   4.593   0.404 -0.3327  0.4186  0.4519
  927TIP3    H124416   1.392   4.671   0.427 -0.1655  0.8628 -1.3371
  927TIP3    H224417   1.257   4.626   0.374 -0.7456 -0.1830  0.9068
  928TIP3   OH224418   5.364   3.316   1.168 -0.3330 -0.0195 -0.6611
  928TIP3    H124419   5.335   3.327   1.077  1.7738  0.1936 -1.3562
  928TIP3    H224420   5.459   3.306   1.162 -0.0301  0.9004  1.6032
  929TIP3   OH224421   2.804   5.393   7.640 -0.2490  0.3469 -0.3401
  929TIP3    H124422   2.777   5.485   7.646  0.0720  0.4859 -0.8686
  929TIP3    H224423   2.722   5.345   7.624 -0.7169  0.2713  1.9823
  930TIP3   OH224424   4.710   3.129   7.708  0.3507 -0.4408  0.2837
  930TIP3    H124425   4.662   3.046   7.704 -0.5916  0.1325 -1.3734
  930TIP3    H224426   4.801   3.103   7.723  0.2207 -1.8724 -1.0406
  931TIP3   OH224427   6.579   3.854   1.407  0.3316  0.5975 -0.7190
  931TIP3    H124428   6.492   3.814   1.415 -0.4107  1.4014 -3.5386
  931TIP3    H224429   6.575   3.902   1.324  2.7882  2.4384  0.1159
  932TIP3   OH224430   6.694   0.938   0.183  0.0252 -0.2492  0.3687
  932TIP3    H124431   6.670   0.944   0.091 -0.1355  0.6837  0.4697
  932TIP3    H224432   6.788   0.920   0.182  0.2690  0.9682  0.0308
  933TIP3   OH224433   3.976   3.635   7.525  0.0824 -0.2298 -0.7467
  933TIP3    H124434   3.962   3.647   7.431 -0.2279  0.7266 -0.5848
  933TIP3    H224435   4.066   3.602   7.532 -0.2801 -1.4493 -1.4454
  934TIP3   OH224436   3.416   0.948   8.288  0.4352 -0.0413 -0.0768
  934TIP3    H124437   3.329   0.946   8.328  0.9432 -0.1998  1.0476
  934TIP3    H224438   3.415   0.876   8.224 -0.9233  1.2205 -1.5567
  935TIP3   OH224439   6.287   0.177   1.352 -0.2801  0.5450 -0.4813
  935TIP3    H124440   6.237   0.106   1.310  0.4435  0.9228 -2.0476
  935TIP3    H224441   6.289   0.153   1.444  0.7362 -1.9960 -1.0677
  936TIP3   OH224442   1.416   6.637   0.677 -0.5249  0.3275 -0.3371
  936TIP3    H124443   1.327   6.602   0.687 -1.2336  2.0188 -0.3313
  936TIP3    H224444   1.403   6.721   0.633  1.2137 -0.0096 -1.5638
  937TIP3   OH224445   3.363   5.884   7.787 -0.0151  0.0409 -0.6716
  937TIP3    H124446   3.414   5.849   7.715 -0.1887  1.0311 -1.3041
  937TIP3    H224447   3.404   5.849   7.866 -0.6665 -2.1932 -1.2507
  938TIP3   OH224448   2.508   1.426   2.676  0.2577  0.4747 -0.5879
  938TIP3    H124449   2.567   1.408   2.749  1.3715  1.6517 -1.1333
  938TIP3    H224450   2.438   1.479   2.713  0.1796  0.0883 -0.1683
  939TIP3   OH224451   2.569   3.932   8.641  0.1191 -0.0191 -0.3645
  939TIP3    H124452   2.528   3.921   8.555  0.8999 -0.0736 -0.7331
  939TIP3    H224453   2.495   3.934   8.702 -0.5013  0.8372 -1.1078
  940TIP3   OH224454   4.446   4.766   0.184  0.1630  0.1110 -0.7852
  940TIP3    H124455   4.426   4.853   0.219 -0.6048  0.1275 -1.2324
  940TIP3    H224456   4.525   4.739   0.230 -1.7748 -0.6721  2.3876
  941TIP3   OH224457   1.245   5.576   0.625  0.8370 -0.7928  0.3323
  941TIP3    H124458   1.263   5.514   0.555 -1.2385 -1.3422  0.2492
  941TIP3    H224459   1.267   5.528   0.705  0.6914 -1.0908  0.1940
  942TIP3   OH224460   1.803   6.553   2.389  0.3727  0.0247 -0.3238
  942TIP3    H124461   1.710   6.542   2.371 -0.4750  1.7337  2.3227
  942TIP3    H224462   1.808   6.555   2.485  3.5607 -2.8626 -0.2662
  943TIP3   OH224463   2.061   4.686   0.601 -0.2350 -0.3733  0.0571
  943TIP3    H124464   2.028   4.756   0.545 -0.2652  0.0638  0.6180
  943TIP3    H224465   2.155   4.699   0.603  0.0377 -1.7508 -1.7200
  944TIP3   OH224466   4.162   1.307   7.750 -0.5058  0.4051  0.7833
  944TIP3    H124467   4.092   1.243   7.764 -0.5353  0.0750 -0.7421
  944TIP3    H224468   4.126   1.367   7.685  0.8501 -0.1424 -0.5093
  945TIP3   OH224469   1.855   3.856   1.134 -0.3028 -0.2176  0.5346
  945TIP3    H124470   1.919   3.916   1.172  2.2725 -1.6827 -1.1997
  945TIP3    H224471   1.782   3.912   1.108  1.3751  1.9574  0.2490
  946TIP3   OH224472   5.487   4.693   7.698 -0.0120  0.6386  0.1748
  946TIP3    H124473   5.516   4.725   7.783  2.0039  0.0040 -0.2165
  946TIP3    H224474   5.420   4.628   7.718  2.1107 -1.2772  1.4819
  947TIP3   OH224475   4.391   1.489   0.732 -0.6829 -0.0814 -0.0351
  947TIP3    H124476   4.382   1.467   0.639  0.0496  2.3573 -0.7605
  947TIP3    H224477   4.312   1.541   0.751  0.7185  2.2640 -0.2748
  948TIP3   OH224478   1.066   5.871   2.713  0.3260 -0.7108  0.3304
  948TIP3    H124479   1.130   5.933   2.679  0.4389 -0.3894  1.1358
  948TIP3    H224480   1.117   5.793   2.734  0.4463 -0.4769  0.9126
  949TIP3   OH224481   3.850   6.855   1.989 -0.7692 -0.3968 -0.1064
  949TIP3    H124482   3.765   6.829   1.954 -0.1790 -1.1747 -0.9940
  949TIP3    H224483   3.851   6.951   1.981 -2.0898 -0.2310  1.1961
  950TIP3   OH224484   0.074   1.235   1.085 -0.1786  0.2095 -0.4733
  950TIP3    H124485   0.155   1.192   1.116 -1.2572 -1.2509  0.4790
  950TIP3    H224486   0.011   1.220   1.156 -0.3384  4.6264  0.6244
  951TIP3   OH224487   6.731   5.464   1.860 -0.5045 -0.1824  0.1193
  951TIP3    H124488   6.800   5.450   1.795 -0.3405 -0.6873  0.3950
  951TIP3    H224489   6.664   5.398   1.838 -2.1029  1.8919 -1.7113
  952TIP3   OH224490   5.685   5.618   8.586  0.1261  0.1997  0.3007
  952TIP3    H124491   5.654   5.564   8.513 -4.0245 -0.2874  2.1184
  952TIP3    H224492   5.715   5.555   8.652  1.2781  0.5008  0.0864
  953TIP3   OH224493   5.972   4.012   8.554 -0.4556 -0.1381 -0.1339
  953TIP3    H124494   6.018   4.078   8.503 -1.9801  0.7565 -0.4272
  953TIP3    H224495   6.006   4.020   8.643  1.0607 -0.6040 -0.6407
  954TIP3   OH224496   5.522   0.609   0.213 -0.1154 -0.0018  0.0015
  954TIP3    H124497   5.464   0.612   0.289  0.0595  0.8317  0.1094
  954TIP3    H224498   5.607   0.639   0.246  0.4777 -1.4973 -0.0815
  955TIP3   OH224499   4.927   4.889   7.252 -0.7946  0.7542  0.4346
  955TIP3    H124500   4.866   4.903   7.324 -0.7631 -0.2080  0.6558
  955TIP3    H224501   4.872   4.892   7.173 -1.5598 -2.3156  0.7461
  956TIP3   OH224502   5.424   1.182   8.096 -0.6357  0.1655 -0.6491
  956TIP3    H124503   5.475   1.180   8.178  2.0218  1.5280 -2.1288
  956TIP3    H224504   5.398   1.274   8.086  1.8786  0.7604 -2.8024
  957TIP3   OH224505   0.485   5.821   8.268  0.4461  0.1022 -0.2773
  957TIP3    H124506   0.414   5.833   8.204  0.1625  0.7659  0.1523
  957TIP3    H224507   0.440   5.807   8.351  0.8179 -0.0681 -0.1051
  958TIP3   OH224508   1.544   4.081   7.772 -0.1941 -0.3988 -0.4102
  958TIP3    H124509   1.526   4.087   7.866 -1.6995 -0.2442 -0.6827
  958TIP3    H224510   1.574   3.991   7.759 -1.7584 -1.0128 -0.0273
  959TIP3   OH224511   5.033   2.134   2.381  0.1291  0.0678 -0.0898
  959TIP3    H124512   5.050   2.184   2.461 -0.6380 -0.1655  0.2344
  959TIP3    H224513   4.953   2.172   2.345  0.7068  0.4534 -0.9919
  960TIP3   OH224514   6.161   3.557   8.589 -0.3066  0.2412  0.0771
  960TIP3    H124515   6.125   3.557   8.678 -1.3131  0.4929 -0.3107
  960TIP3    H224516   6.189   3.648   8.575  0.1893  0.1202  0.2597
  961TIP3   OH224517   1.402   6.286   1.956  0.1982  0.1546  0.3668
  961TIP3    H124518   1.426   6.219   2.020  0.3951 -0.9802 -0.8354
  961TIP3    H224519   1.486   6.316   1.920  0.0851  0.6973  0.5399
  962TIP3   OH224520   3.858   3.178   7.740 -0.2489  0.2928  0.4493
  962TIP3    H124521   3.827   3.094   7.774 -0.4499  0.0656 -0.2811
  962TIP3    H224522   3.882   3.228   7.818 -2.3097  0.4317  1.0479
  963TIP3   OH224523   6.791   5.591   1.214  0.2011  0.4861 -0.3777
  963TIP3    H124524   6.749   5.516   1.173 -0.7845  1.4537 -1.2033
  963TIP3    H224525   6.791   5.659   1.147  1.0662  1.2335  0.3457
  964TIP3   OH224526   2.238   5.366   0.540  0.0307  0.0120  0.0169
  964TIP3    H124527   2.186   5.318   0.605  0.0338  0.9476  0.7318
  964TIP3    H224528   2.174   5.401   0.479 -0.0732  0.0740  0.1599
  965TIP3   OH224529   5.142   2.012   1.387  0.1581  0.2840  0.4519
  965TIP3    H124530   5.051   2.009   1.358  0.5183 -1.3686 -0.6583
  965TIP3    H224531   5.188   2.058   1.317  0.5257 -1.0027 -0.1971
  966TIP3   OH224532   1.690   3.592   8.344  0.7712 -0.7380 -0.2419
  966TIP3    H124533   1.603   3.567   8.311 -0.1225  1.9261 -0.1526
  966TIP3    H224534   1.728   3.645   8.275  0.9958  0.6794  0.9133
  967TIP3   OH224535   1.053   0.830   2.224 -0.1437 -0.0217  0.7230
  967TIP3    H124536   1.132   0.884   2.230  0.1455 -0.3699  0.1133
  967TIP3    H224537   1.049   0.785   2.309  1.1346 -1.1193  0.2346
  968TIP3   OH224538   2.864   5.068   0.896  0.1431 -0.1648 -0.0050
  968TIP3    H124539   2.775   5.059   0.863  0.4235 -1.9953 -0.3758
  968TIP3    H224540   2.854   5.077   0.991 -0.4276 -1.3905  0.0724
  969TIP3   OH224541   5.601   3.192   1.519 -0.4059  0.2151 -0.3129
  969TIP3    H124542   5.599   3.282   1.551  0.8394 -0.4606  1.8951
  969TIP3    H224543   5.510   3.171   1.498 -1.2420  1.0065  2.2030
  970TIP3   OH224544   1.141   1.720   0.912 -0.0784  0.2204 -0.0528
  970TIP3    H124545   1.151   1.661   0.837 -0.0810  0.9000 -0.6016
  970TIP3    H224546   1.048   1.741   0.914 -0.3496 -0.9926  1.0875
  971TIP3   OH224547   3.885   2.870   8.670 -0.0788 -0.0748 -0.6981
  971TIP3    H124548   3.961   2.889   8.724 -1.1809 -0.0777  0.9406
  971TIP3    H224549   3.920   2.857   8.582  2.0401 -2.0145  0.3320
  972TIP3   OH224550   5.755   1.263   2.204  0.3320 -0.7933 -0.6320
  972TIP3    H124551   5.828   1.295   2.150 -1.0358  0.0026 -2.0774
  972TIP3    H224552   5.749   1.170   2.184  1.6206 -1.1356  0.3661
  973TIP3   OH224553   4.653   0.641   1.207  0.2218  0.3379 -0.5954
  973TIP3    H124554   4.657   0.709   1.139 -1.0456  0.7823 -0.2398
  973TIP3    H224555   4.687   0.684   1.285  1.5176 -0.1231 -0.8786
  974TIP3   OH224556   3.551   1.556   2.049 -0.2769  0.3010 -0.7430
  974TIP3    H124557   3.622   1.557   1.985  1.3048 -2.1146  0.8138
  974TIP3    H224558   3.590   1.590   2.129 -0.8336 -1.0596  0.1441
  975TIP3   OH224559   4.281   6.658   7.479 -0.2211  0.2599 -0.3023
  975TIP3    H124560   4.284   6.562   7.484  0.5216  0.2273 -1.2163
  975TIP3    H224561   4.367   6.684   7.448 -1.1963  1.0546 -2.5234
  976TIP3   OH224562   4.759   3.372   0.070 -0.1925 -0.1239  0.4499
  976TIP3    H124563   4.778   3.429  -0.005  0.0008 -0.9121 -0.1093
  976TIP3    H224564   4.805   3.414   0.143  0.1866  0.2847 -0.0135
  977TIP3   OH224565   5.673   6.811   1.333  0.1392 -0.3306 -0.2129
  977TIP3    H124566   5.641   6.869   1.403  0.7833  0.2913 -0.4223
  977TIP3    H224567   5.766   6.798   1.354  0.0930 -0.9657 -0.3923
  978TIP3   OH224568   2.739   0.035   2.219 -0.2985 -0.6682  0.1166
  978TIP3    H124569   2.757   0.105   2.281  1.8844  0.0166 -1.1647
  978TIP3    H224570   2.719   0.080   2.137  0.5059 -1.5051 -0.5725
  979TIP3   OH224571   5.246   2.421   8.441  0.6192  0.1950 -0.3293
  979TIP3    H124572   5.281   2.373   8.367 -1.5558 -0.7727 -0.8083
  979TIP3    H224573   5.275   2.372   8.518 -1.2330 -1.7601 -0.7899
  980TIP3   OH224574   0.195   4.908   1.662  0.2163 -0.4784  0.1366
  980TIP3    H124575   0.190   4.968   1.736 -1.4329 -0.3695 -0.0324
  980TIP3    H224576   0.132   4.942   1.599 -0.6113 -2.2488 -0.0552
  981TIP3   OH224577   0.474   3.330   0.610  0.5008 -0.5332 -0.4304
  981TIP3    H124578   0.494   3.254   0.555 -0.0925 -0.7504 -0.3497
  981TIP3    H224579   0.474   3.295   0.700  1.1020 -0.2556 -0.3214
  982TIP3   OH224580   0.981   4.054   1.950 -0.2108  0.1803  0.1848
  982TIP3    H124581   0.924   4.126   1.977 -0.6801 -0.4856  1.0118
  982TIP3    H224582   0.982   4.059   1.855 -0.0992  1.3736  0.2252
  983TIP3   OH224583   2.889   2.808   8.352 -0.4077 -0.5168  0.0204
  983TIP3    H124584   2.974   2.852   8.349 -0.4577 -0.4360 -0.3573
  983TIP3    H224585   2.908   2.717   8.330 -0.5521 -0.2717 -1.2520
  984TIP3   OH224586   0.627   1.515   2.818  0.7075  0.5078 -0.8097
  984TIP3    H124587   0.578   1.596   2.805  0.4764  1.1448  3.0486
  984TIP3    H224588   0.562   1.445   2.807  0.4120  0.9249 -1.8792
  985TIP3   OH224589   1.576   5.000   6.756  0.4812 -0.3127 -0.2275
  985TIP3    H124590   1.560   4.913   6.792  1.7505 -0.8406 -0.8643
  985TIP3    H224591   1.671   5.007   6.754  0.4068  1.5215  0.7952
  986TIP3   OH224592   0.076   1.257   2.596  0.2280 -0.1935  0.2616
  986TIP3    H124593   0.170   1.249   2.610  0.8379  0.6275 -2.6216
  986TIP3    H224594   0.055   1.190   2.531 -1.1269 -0.1764  0.6424
  987TIP3   OH224595   4.773   1.333   7.037 -0.6644  0.4442 -0.2015
  987TIP3    H124596   4.863   1.338   7.067 -0.5295  0.2110 -0.5633
  987TIP3    H224597   4.724   1.386   7.100 -0.3388  0.2336  0.2329
  988TIP3   OH224598   0.817   6.423   2.953 -0.1003  0.0831 -0.6429
  988TIP3    H124599   0.772   6.452   2.874 -0.0438 -1.9659 -1.4764
  988TIP3    H224600   0.767   6.463   3.025 -1.9616 -0.3549 -1.6251
  989TIP3   OH224601   0.330   2.240   7.547  0.3335  0.7468  0.5905
  989TIP3    H124602   0.301   2.153   7.522  0.4223  0.2428  2.1749
  989TIP3    H224603   0.360   2.280   7.465 -2.4103  0.3787 -0.6949
  990TIP3   OH224604   0.922   1.498   2.874  0.3534 -0.2025 -0.2307
  990TIP3    H124605   0.914   1.443   2.952 -1.7815 -0.9674 -0.9058
  990TIP3    H224606   0.835   1.494   2.833  1.6025 -0.4991 -3.0927
  991TIP3   OH224607   5.588   2.628   1.916 -0.4501  0.6220 -0.3606
  991TIP3    H124608   5.676   2.662   1.933 -1.2657  3.1635 -0.7419
  991TIP3    H224609   5.574   2.561   1.983  1.2982  1.0683  0.4969
  992TIP3   OH224610   2.350   3.686   2.582  0.0321 -0.2757  0.2151
  992TIP3    H124611   2.326   3.618   2.645 -2.6043 -0.5079 -0.8873
  992TIP3    H224612   2.271   3.697   2.528  1.4012  1.5235 -1.5738
  993TIP3   OH224613   2.024   3.885   1.853  0.0321 -0.5017 -0.3248
  993TIP3    H124614   2.061   3.847   1.773  1.6848 -0.0379  0.1873
  993TIP3    H224615   1.974   3.814   1.893  1.3746 -1.5367 -0.4270
  994TIP3   OH224616   2.024   5.901   1.519 -0.5345  0.2027  0.5028
  994TIP3    H124617   1.962   5.834   1.548 -0.7092  0.0853 -0.1371
  994TIP3    H224618   2.062   5.865   1.439  1.5668 -0.4755  1.7251
  995TIP3   OH224619   0.571   0.312   1.607 -0.6202 -0.3707  0.1425
  995TIP3    H124620   0.648   0.256   1.613 -1.2911 -1.2382  1.1960
  995TIP3    H224621   0.605   0.400   1.590  0.5959 -0.7181  0.6958
  996TIP3   OH224622   4.526   6.649   8.051 -0.1355  1.0792 -0.2063
  996TIP3    H124623   4.479   6.713   8.104 -1.2997  0.6314 -0.6576
  996TIP3    H224624   4.457   6.602   8.003  0.7591  0.2203 -0.6975
  997TIP3   OH224625   6.271   5.704   8.328  0.1504 -0.3525  0.2073
  997TIP3    H124626   6.304   5.657   8.251 -0.1140 -0.6977  0.2985
  997TIP3    H224627   6.176   5.706   8.314  0.2822  1.8080 -0.7274
  998TIP3   OH224628   2.971   6.188   1.326  0.5044  0.6745 -0.5167
  998TIP3    H124629   2.989   6.267   1.276 -0.9317  0.2317 -1.8015
  998TIP3    H224630   3.030   6.122   1.289  0.8822  0.8491 -0.2299
  999TIP3   OH224631   1.866   5.140   7.117  0.2478 -0.3550  0.1001
  999TIP3    H124632   1.831   5.216   7.071 -0.5872 -0.2083  0.9408
  999TIP3    H224633   1.950   5.169   7.152  0.8518 -0.4392 -1.2038
 1000TIP3   OH224634   5.009   4.788   7.672  0.1773  0.7530  0.2228
 1000TIP3    H124635   4.978   4.823   7.755  0.8871 -2.0738  1.8344
 1000TIP3    H224636   5.096   4.826   7.661  0.1940  0.9303  0.9370
 1001TIP3   OH224637   5.146   1.028   7.431 -0.5097  0.4771 -0.4031
 1001TIP3    H124638   5.100   1.043   7.514 -0.2406  0.1466 -0.1909
 1001TIP3    H224639   5.094   0.963   7.385 -0.6278  0.6182 -0.4700
 1002TIP3   OH224640   4.443   1.806   0.784  0.3894 -0.1640  0.2515
 1002TIP3    H124641   4.381   1.746   0.824  1.4340 -0.4440  1.5569
 1002TIP3    H224642   4.524   1.793   0.834  1.6902 -0.2600 -1.7715
 1003TIP3   OH224643   1.030   4.114   7.772  0.1771  0.0008  0.1971
 1003TIP3    H124644   1.026   4.021   7.749  1.6551  0.0312 -0.2966
 1003TIP3    H224645   0.942   4.147   7.752  0.2605 -0.8212 -1.8051
 1004TIP3   OH224646   2.606   4.282   0.242 -0.4764  0.1778 -0.4716
 1004TIP3    H124647   2.690   4.237   0.233  0.1413  1.1811  0.1071
 1004TIP3    H224648   2.565   4.273   0.156  1.5621  2.2289 -1.7939
 1005TIP3   OH224649   2.671   6.063   1.281  0.4768  0.5982  0.5993
 1005TIP3    H124650   2.724   6.068   1.202 -1.7926 -1.1507 -1.1998
 1005TIP3    H224651   2.686   5.974   1.314  1.2031  1.2287  2.0292
 1006TIP3   OH224652   1.127   0.476   1.012 -0.0545 -0.0676  0.4976
 1006TIP3    H124653   1.033   0.466   1.030  0.2366 -2.3919  1.0060
 1006TIP3    H224654   1.170   0.439   1.089  1.2578 -1.6343 -0.9368
 1007TIP3   OH224655   0.158   2.192   1.770 -0.4405  0.4691  0.4257
 1007TIP3    H124656   0.189   2.260   1.710 -1.1901 -1.7132 -2.6517
 1007TIP3    H224657   0.215   2.118   1.754 -2.5213 -1.1555  0.1283
 1008TIP3   OH224658   0.860   6.502   8.413 -0.0564  0.1320 -0.2822
 1008TIP3    H124659   0.849   6.411   8.440 -0.5521  0.6893  1.5469
 1008TIP3    H224660   0.910   6.497   8.331 -2.3553 -1.8808 -1.6980
 1009TIP3   OH224661   4.331   5.987   2.172 -0.8430 -0.4671 -0.3218
 1009TIP3    H124662   4.353   6.005   2.263  2.1869 -2.7353 -0.4375
 1009TIP3    H224663   4.257   5.926   2.176 -1.1965  0.0062  0.5578
 1010TIP3   OH224664   1.620   4.826   1.121 -0.2884  0.0485 -0.3407
 1010TIP3    H124665   1.659   4.901   1.165 -0.3723 -0.2631  0.2769
 1010TIP3    H224666   1.536   4.814   1.165  0.2102 -1.0984  0.3468
 1011TIP3   OH224667   6.381   2.301   7.236  0.2755 -0.1573  0.7951
 1011TIP3    H124668   6.449   2.250   7.191  0.6584  0.3212  0.8205
 1011TIP3    H224669   6.391   2.390   7.202  0.0960  0.0560  1.2892
 1012TIP3   OH224670   2.921   1.591   0.794  0.8053 -0.0942 -0.1071
 1012TIP3    H124671   2.920   1.500   0.823  0.0788  0.4995  1.9304
 1012TIP3    H224672   2.894   1.641   0.871  0.8159  1.8264 -1.2771
 1013TIP3   OH224673   5.067   6.374   7.682 -0.3869  0.5990 -0.5061
 1013TIP3    H124674   4.995   6.436   7.700  0.6833  1.6299  0.3806
 1013TIP3    H224675   5.023   6.289   7.675 -1.4322  0.6076  3.4281
 1014TIP3   OH224676   3.912   4.190   0.610  0.2375  0.5120 -0.2555
 1014TIP3    H124677   3.939   4.129   0.542  1.3597  0.3115  0.3347
 1014TIP3    H224678   3.823   4.164   0.633  0.8588 -1.2570  0.3285
 1015TIP3   OH224679   6.443   5.439   7.652 -0.1969  0.3357  0.2806
 1015TIP3    H124680   6.454   5.351   7.689 -0.2076  0.2860  0.1652
 1015TIP3    H224681   6.349   5.452   7.648 -0.1948  0.7933  1.3426
 1016TIP3   OH224682   6.579   4.508   7.718  0.4293  0.0484  0.4952
 1016TIP3    H124683   6.556   4.444   7.649  0.0293 -0.1517  0.8109
 1016TIP3    H224684   6.495   4.544   7.745  0.3099 -1.5703  2.5185
 1017TIP3   OH224685   1.169   6.830   8.449  0.6386 -0.4286 -0.9444
 1017TIP3    H124686   1.159   6.904   8.510  1.9081  0.5827 -1.8929
 1017TIP3    H224687   1.157   6.753   8.504  2.2379  0.4232  0.7508
 1018TIP3   OH224688   1.826   5.715   1.707 -0.1852 -0.8740  0.4851
 1018TIP3    H124689   1.852   5.779   1.774  0.6727 -0.8196  0.1091
 1018TIP3    H224690   1.902   5.658   1.698 -0.2642 -0.8269 -0.5149
 1019TIP3   OH224691   1.494   0.962   7.698  0.3871 -0.0441 -0.1084
 1019TIP3    H124692   1.521   1.050   7.672 -1.1193  0.2075 -0.9362
 1019TIP3    H224693   1.426   0.977   7.764 -0.4645 -0.5623 -0.8557
 1020TIP3   OH224694   3.853   6.506   8.604  0.5314 -0.0909 -0.2168
 1020TIP3    H124695   3.804   6.490   8.684  1.5161 -1.1105  0.2139
 1020TIP3    H224696   3.911   6.580   8.625 -0.0563  0.4251 -0.3893
 1021TIP3   OH224697   2.530   3.987   0.574  0.0524  0.1761  0.3291
 1021TIP3    H124698   2.516   4.080   0.558  1.3452  0.3515  0.1136
 1021TIP3    H224699   2.473   3.943   0.511  0.2239  0.8409 -0.3034
 1022TIP3   OH224700   2.633   1.019   2.055 -0.4449  0.1824  0.2054
 1022TIP3    H124701   2.725   1.028   2.031  0.1014 -0.1284  1.9901
 1022TIP3    H224702   2.612   0.928   2.034 -0.5237  0.4032 -0.7108
 1023TIP3   OH224703   4.619   4.314   0.090  0.4700 -0.8144 -0.2830
 1023TIP3    H124704   4.687   4.330   0.155  0.2697 -0.9295 -0.0452
 1023TIP3    H224705   4.587   4.226   0.110 -0.5163 -0.3297  0.3019
 1024TIP3   OH224706   1.018   3.655   1.686  0.3571  0.7417 -0.0850
 1024TIP3    H124707   1.037   3.563   1.663 -0.3622  0.3944  0.6723
 1024TIP3    H224708   1.053   3.705   1.612  0.2213 -0.1774 -0.7999
 1025TIP3   OH224709   6.865   6.512   8.510  0.4540  0.4388 -0.5535
 1025TIP3    H124710   6.781   6.498   8.553 -0.2941  3.2083 -0.9435
 1025TIP3    H224711   6.927   6.525   8.582  0.0467  0.8414 -0.2719
 1026TIP3   OH224712   0.289   2.866   1.192  0.0223 -0.1464 -0.6807
 1026TIP3    H124713   0.296   2.808   1.268  1.0735  1.0084  0.1508
 1026TIP3    H224714   0.379   2.895   1.175 -0.2769  0.0494 -2.0264
 1027TIP3   OH224715   2.498   6.861   2.412 -1.0738  0.2160 -0.4105
 1027TIP3    H124716   2.487   6.939   2.466  2.4563  0.7933 -0.3059
 1027TIP3    H224717   2.543   6.891   2.334 -1.9378 -1.3631 -1.5729
 1028TIP3   OH224718   5.873   6.669   0.941 -0.1446 -0.1811  0.1953
 1028TIP3    H124719   5.811   6.735   0.974 -0.6641 -1.2565  1.4676
 1028TIP3    H224720   5.906   6.627   1.020 -0.3446 -1.9125 -0.6100
 1029TIP3   OH224721   0.475   5.027   8.084 -0.1469  0.2472  0.0669
 1029TIP3    H124722   0.400   4.982   8.046  1.0660 -0.5505 -1.5002
 1029TIP3    H224723   0.499   5.094   8.019  1.0091 -0.0910  0.1225
 1030TIP3   OH224724   1.158   1.550   0.720  0.0249 -0.0031  0.5764
 1030TIP3    H124725   1.139   1.587   0.634  1.6415  1.0937  0.6446
 1030TIP3    H224726   1.225   1.483   0.704  1.1349  0.9483  1.0570
 1031TIP3   OH224727   6.137   3.602   7.702  0.6459  0.3306  0.1521
 1031TIP3    H124728   6.051   3.630   7.732  0.9244  1.4190 -0.0337
 1031TIP3    H224729   6.177   3.561   7.779 -0.8512 -2.2492 -0.3402
 1032TIP3   OH224730   3.936   0.791   2.315  0.2013 -0.0917 -0.4352
 1032TIP3    H124731   3.870   0.833   2.260 -0.6020 -0.1314  0.4692
 1032TIP3    H224732   3.898   0.705   2.336 -0.4803  0.6782  1.8323
 1033TIP3   OH224733   3.832   0.206   8.048  0.2033 -0.0059  0.2848
 1033TIP3    H124734   3.828   0.298   8.022  0.2927  0.4463  1.7521
 1033TIP3    H224735   3.872   0.208   8.135  0.3312 -1.4517  0.2798
 1034TIP3   OH224736   1.613   5.164   0.439 -0.1654  0.3860  0.1838
 1034TIP3    H124737   1.601   5.070   0.427  2.2675  0.1424 -1.0177
 1034TIP3    H224738   1.706   5.173   0.459 -0.2198  2.5864 -0.3334
 1035TIP3   OH224739   2.980   1.965   0.920 -0.0895  0.1151 -0.5760
 1035TIP3    H124740   3.059   1.943   0.870  0.2764 -0.1644  0.1162
 1035TIP3    H224741   3.013   2.002   1.002 -0.6891  0.8719 -0.6734
 1036TIP3   OH224742   2.940   5.380   2.012 -0.2472  0.0674  0.4177
 1036TIP3    H124743   2.910   5.291   2.031  0.0450 -0.2507 -0.5825
 1036TIP3    H224744   2.962   5.379   1.919  1.1306  0.7927  0.7146
 1037TIP3   OH224745   5.369   5.930   8.277  0.5567  0.0228 -0.3464
 1037TIP3    H124746   5.436   5.926   8.345 -1.1820 -1.0708  1.4014
 1037TIP3    H224747   5.370   5.843   8.237 -0.4184 -0.3165  0.3343
 1038TIP3   OH224748   0.186   5.772   7.435  0.0723  0.1612 -0.2454
 1038TIP3    H124749   0.193   5.676   7.429 -0.9106 -0.0055  0.8370
 1038TIP3    H224750   0.241   5.796   7.509 -0.5208  0.3057  0.1531
 1039TIP3   OH224751   5.465   4.231   3.098  0.5979  0.5438  0.7891
 1039TIP3    H124752   5.431   4.158   3.046  1.9437  0.4106  0.0371
 1039TIP3    H224753   5.408   4.305   3.077  0.1789  0.0911  0.3249
 1040TIP3   OH224754   3.792   6.080   8.531  0.3827  0.2019 -0.1124
 1040TIP3    H124755   3.721   6.108   8.474 -0.2184  0.3138  0.6711
 1040TIP3    H224756   3.870   6.081   8.475 -0.3753 -0.8262 -1.2211
 1041TIP3   OH224757   1.968   2.715   8.679  0.3137  0.7422  0.0672
 1041TIP3    H124758   1.955   2.737   8.587  1.0830  0.0980 -0.2037
 1041TIP3    H224759   1.898   2.761   8.725 -1.2110 -0.3742 -1.0333
 1042TIP3   OH224760   4.785   2.616   8.326  0.3012  0.0359  0.2119
 1042TIP3    H124761   4.758   2.707   8.312  0.4258 -0.2749 -2.4246
 1042TIP3    H224762   4.705   2.565   8.319  0.2412 -0.1150  1.6264
 1043TIP3   OH224763   5.728   4.112   8.148  0.0257  0.2730  0.6428
 1043TIP3    H124764   5.767   4.184   8.197  0.5154  1.5641 -1.5258
 1043TIP3    H224765   5.634   4.126   8.154  0.1170  1.0569  0.3045
 1044TIP3   OH224766   0.973   2.443   8.199 -0.2025  0.0438 -0.1336
 1044TIP3    H124767   0.997   2.428   8.291 -3.8355  1.7727  1.3255
 1044TIP3    H224768   0.930   2.362   8.173  3.6258 -1.7418 -1.6208
 1045TIP3   OH224769   4.807   1.711   2.683 -0.3332  0.3942  0.9090
 1045TIP3    H124770   4.890   1.680   2.646 -0.3182 -2.7627  3.2033
 1045TIP3    H224771   4.749   1.718   2.607  0.7969 -1.7838 -0.2619
 1046TIP3   OH224772   1.226   0.431   0.493 -0.5399  0.3547 -0.0924
 1046TIP3    H124773   1.153   0.455   0.550 -0.5795 -1.9929  0.9555
 1046TIP3    H224774   1.292   0.395   0.552 -0.3998 -1.7448 -1.4506
 1047TIP3   OH224775   5.020   4.047   1.334  0.5569 -0.1908 -0.1273
 1047TIP3    H124776   5.106   4.067   1.297 -0.2145 -1.4772 -2.8374
 1047TIP3    H224777   4.986   3.976   1.280 -1.8780 -0.3222  1.4192
 1048TIP3   OH224778   4.261   6.795   2.800  0.2996 -0.0994  0.6527
 1048TIP3    H124779   4.169   6.798   2.827 -0.3984 -1.9889 -1.2117
 1048TIP3    H224780   4.289   6.706   2.821  1.2444  0.0017 -0.1290
 1049TIP3   OH224781   5.127   3.161   1.187  0.2233 -0.0307 -0.0255
 1049TIP3    H124782   5.149   3.070   1.207  0.1590 -0.6404 -2.3642
 1049TIP3    H224783   5.084   3.193   1.266 -0.0329 -2.1301  0.7710
 1050TIP3   OH224784   1.164   0.729   2.447 -0.1598 -0.1477 -0.3805
 1050TIP3    H124785   1.256   0.741   2.469  0.2028 -0.6066 -1.5339
 1050TIP3    H224786   1.120   0.715   2.531  0.7284  0.6073  0.2221
 1051TIP3   OH224787   4.481   1.355   1.267  0.2960  0.2511  0.0284
 1051TIP3    H124788   4.406   1.380   1.213  1.3122 -1.7207 -2.5345
 1051TIP3    H224789   4.444   1.305   1.339 -0.9193 -0.0260 -0.7615
 1052TIP3   OH224790   6.639   0.254   1.323 -0.2905 -0.0416  0.2739
 1052TIP3    H124791   6.656   0.323   1.259 -1.3031  1.2946  1.3760
 1052TIP3    H224792   6.549   0.227   1.306 -0.4749  0.1303  0.9631
 1053TIP3   OH224793   1.551   6.201   2.767 -0.2886  0.7383  0.2031
 1053TIP3    H124794   1.533   6.217   2.860 -3.4880 -0.9318 -0.0101
 1053TIP3    H224795   1.603   6.120   2.767  0.6673  1.3348  0.5429
 1054TIP3   OH224796   0.060   1.043   1.606  0.0272 -0.7837 -0.1582
 1054TIP3    H124797   0.116   1.006   1.538  0.9560  0.7155 -0.2448
 1054TIP3    H224798   0.021   1.120   1.566 -2.2715 -1.8646 -0.1414
 1055TIP3   OH224799   3.225   1.861   2.364  0.2418  0.2163  0.1432
 1055TIP3    H124800   3.252   1.803   2.436  0.9378 -0.7582 -0.8568
 1055TIP3    H224801   3.208   1.801   2.291 -0.2390  1.1949 -0.5619
 1056TIP3   OH224802   0.379   6.308   1.721 -0.1386 -0.0762  0.4684
 1056TIP3    H124803   0.409   6.242   1.783  0.0496 -0.4526 -0.0178
 1056TIP3    H224804   0.291   6.330   1.751 -0.5763 -1.2452  0.0855
 1057TIP3   OH224805   6.468   4.844   2.214  0.4079 -0.0861  0.0643
 1057TIP3    H124806   6.407   4.785   2.259  0.6006 -0.6554 -0.4014
 1057TIP3    H224807   6.511   4.892   2.284 -0.9761  0.7484  0.3830
 1058TIP3   OH224808   2.255   3.518   1.175  0.4337 -0.3052 -0.5652
 1058TIP3    H124809   2.316   3.518   1.101 -1.1249  0.1833 -1.9189
 1058TIP3    H224810   2.168   3.522   1.134 -0.5322 -1.2557  1.2732
 1059TIP3   OH224811   2.350   1.803   0.954  0.0919  0.2915 -0.0980
 1059TIP3    H124812   2.391   1.823   0.870 -1.7542  0.9550 -0.9043
 1059TIP3    H224813   2.327   1.888   0.991 -0.8415 -0.0538  0.1541
 1060TIP3   OH224814   5.637   6.128   1.439 -0.1827  0.3043 -0.3235
 1060TIP3    H124815   5.581   6.071   1.386 -1.6449  1.5930 -0.2173
 1060TIP3    H224816   5.626   6.215   1.400  2.5803  0.4831 -0.9700
 1061TIP3   OH224817   3.137   4.232   0.426  0.4737 -0.0408 -0.0949
 1061TIP3    H124818   3.119   4.190   0.342  0.5547  0.6787 -0.4815
 1061TIP3    H224819   3.222   4.275   0.414  0.8009 -0.4804  0.5715
 1062TIP3   OH224820   4.957   5.397   0.543  0.2132 -0.4612 -0.0771
 1062TIP3    H124821   5.052   5.389   0.550  0.2760  0.6718  0.5431
 1062TIP3    H224822   4.926   5.401   0.633 -0.5525 -1.9534 -0.2453
 1063TIP3   OH224823   1.287   0.959   0.037 -0.2491  0.0641  0.2555
 1063TIP3    H124824   1.335   0.887  -0.005 -0.3193  0.3420 -0.3103
 1063TIP3    H224825   1.331   0.970   0.121  0.4609  0.0762 -0.1044
 1064TIP3   OH224826   2.338   6.657   1.005  0.2895  0.5096 -0.2682
 1064TIP3    H124827   2.350   6.651   0.910  0.3065  0.1716 -0.2477
 1064TIP3    H224828   2.328   6.750   1.022 -3.9580  0.3918 -1.1029
 1065TIP3   OH224829   5.565   0.246   1.737 -0.0893 -0.1195  0.7355
 1065TIP3    H124830   5.646   0.296   1.723 -1.7333  2.6293  0.2696
 1065TIP3    H224831   5.560   0.237   1.832  0.5782  0.0130  0.7924
 1066TIP3   OH224832   1.594   4.265   2.418  0.3255 -0.0158 -0.3276
 1066TIP3    H124833   1.662   4.332   2.431 -0.8440  1.7175 -2.4196
 1066TIP3    H224834   1.517   4.299   2.463  0.4073 -1.2723  0.8120
 1067TIP3   OH224835   3.369   5.459   0.719  0.4032  0.9780  0.1379
 1067TIP3    H124836   3.418   5.505   0.651 -0.2840  2.0998  0.3689
 1067TIP3    H224837   3.277   5.474   0.696  0.1577  0.0980  0.4934
 1068TIP3   OH224838   3.083   1.273   2.177  0.1486 -0.1263 -0.2028
 1068TIP3    H124839   3.120   1.207   2.235  0.7688 -0.5793 -1.0819
 1068TIP3    H224840   3.088   1.354   2.226 -1.4094 -0.8478  1.2288
 1069TIP3   OH224841   3.178   2.413   0.322  0.3882  0.0921 -0.0692
 1069TIP3    H124842   3.176   2.435   0.415 -1.2274  0.3986 -0.1505
 1069TIP3    H224843   3.227   2.330   0.318  2.9415  1.4689  0.6862
 1070TIP3   OH224844   6.771   1.973   6.874  0.3072 -0.2059 -0.2279
 1070TIP3    H124845   6.714   2.014   6.810 -0.5512 -0.5584  0.3020
 1070TIP3    H224846   6.844   2.035   6.884  0.2993 -0.0062 -1.2977
 1071TIP3   OH224847   2.957   4.086   1.778  0.2627  0.6649  0.4313
 1071TIP3    H124848   2.913   4.167   1.752 -0.5410 -0.0982 -0.6805
 1071TIP3    H224849   3.018   4.068   1.707  0.7669  0.5295  0.8932
 1072TIP3   OH224850   0.123   0.666   7.295  0.2408  0.4874 -0.0073
 1072TIP3    H124851   0.208   0.673   7.253  0.3214  1.1639  0.2552
 1072TIP3    H224852   0.090   0.756   7.298 -0.9518  0.1089 -1.0554
 1073TIP3   OH224853   4.112   3.959   7.334  0.4017 -0.4017  0.3279
 1073TIP3    H124854   4.061   3.891   7.288  2.3336 -1.9844  0.3653
 1073TIP3    H224855   4.057   4.037   7.331 -0.6641 -1.1495 -2.3972
 1074TIP3   OH224856   5.189   6.138   7.511 -0.3110 -0.0287  0.2363
 1074TIP3    H124857   5.110   6.098   7.549  0.5337 -0.9657  1.0626
 1074TIP3    H224858   5.169   6.231   7.507 -2.1873 -0.4194 -1.3397
 1075TIP3   OH224859   1.798   0.126   8.543  0.2161 -0.2304 -0.1206
 1075TIP3    H124860   1.878   0.101   8.589  1.8999  0.9616 -2.2605
 1075TIP3    H224861   1.772   0.047   8.495 -0.2939 -0.7996  1.0437
 1076TIP3   OH224862   4.354   6.208   0.138 -0.2435 -0.2128  0.6811
 1076TIP3    H124863   4.408   6.280   0.170  1.8900 -1.1091 -0.7197
 1076TIP3    H224864   4.411   6.131   0.140 -1.8001 -1.4582  0.1357
 1077TIP3   OH224865   1.044   4.121   1.214  0.2751 -0.7822  0.6582
 1077TIP3    H124866   1.108   4.057   1.182  0.9899 -0.2927  1.0813
 1077TIP3    H224867   0.980   4.129   1.144  0.6031 -1.3919  0.2882
 1078TIP3   OH224868   4.736   2.478   7.595  0.3104 -0.1389 -0.2733
 1078TIP3    H124869   4.798   2.447   7.530 -0.3626 -1.6619 -0.2196
 1078TIP3    H224870   4.791   2.507   7.668  0.9957 -0.1762 -0.7649
 1079TIP3   OH224871   0.974   3.784   7.446 -0.7258 -0.5398 -0.3299
 1079TIP3    H124872   1.026   3.843   7.392 -0.1510 -1.2367 -0.5466
 1079TIP3    H224873   0.946   3.839   7.520  3.1682 -0.9071  1.6502
 1080TIP3   OH224874   0.483   4.091   8.405  0.5556 -0.1958  0.1330
 1080TIP3    H124875   0.497   4.095   8.310  1.7533 -0.6763  0.2684
 1080TIP3    H224876   0.512   4.176   8.438 -1.0327  0.4479 -0.0394
 1081TIP3   OH224877   4.933   5.951   2.166  0.2711 -0.0642  0.3316
 1081TIP3    H124878   4.980   6.012   2.224  0.7347  1.0230 -1.1207
 1081TIP3    H224879   5.002   5.911   2.113 -0.1814 -0.7500  0.2527
 1082TIP3   OH224880   3.329   1.275   0.277  0.7136  0.3117 -0.0022
 1082TIP3    H124881   3.299   1.246   0.191  1.0631  1.1204 -0.4109
 1082TIP3    H224882   3.256   1.327   0.312 -1.9190 -4.5514  2.7324
 1083TIP3   OH224883   6.697   6.859   8.167 -0.0089  0.2091  0.3044
 1083TIP3    H124884   6.701   6.859   8.071  2.2997 -0.5029  0.3499
 1083TIP3    H224885   6.765   6.921   8.193 -0.4167  0.1635  1.4916
 1084TIP3   OH224886   5.996   4.750   1.864 -0.2682 -0.0272 -0.1054
 1084TIP3    H124887   6.058   4.720   1.799 -0.6490  0.3953 -0.6716
 1084TIP3    H224888   6.049   4.772   1.940  0.1064 -1.2547  0.0137
 1085TIP3   OH224889   3.034   5.536   1.713 -0.2748  0.1511 -0.1194
 1085TIP3    H124890   3.023   5.617   1.763 -1.1409 -0.3847  0.6067
 1085TIP3    H224891   3.127   5.532   1.693 -0.3426  1.7341 -0.8960
 1086TIP3   OH224892   2.210   3.195   1.214  0.6033 -0.0862 -0.5072
 1086TIP3    H124893   2.152   3.248   1.160 -1.2493 -1.6463 -0.1589
 1086TIP3    H224894   2.227   3.117   1.161 -0.1061 -1.0001  0.5803
 1087TIP3   OH224895   0.594   6.217   8.556 -0.4522  0.2232 -0.0625
 1087TIP3    H124896   0.626   6.260   8.636 -0.4964 -0.4152  0.3094
 1087TIP3    H224897   0.666   6.227   8.493  1.3200 -2.6777  1.2759
 1088TIP3   OH224898   6.240   4.688   1.461  0.2673 -0.0507 -0.4667
 1088TIP3    H124899   6.276   4.701   1.549  2.5817 -1.6288 -1.1003
 1088TIP3    H224900   6.307   4.722   1.402 -0.6281 -0.3070 -1.6885
 1089TIP3   OH224901   3.196   1.655   1.364 -0.5474 -0.3377 -0.0495
 1089TIP3    H124902   3.146   1.736   1.371  0.0811  0.0820 -0.3813
 1089TIP3    H224903   3.163   1.613   1.284 -0.9799 -0.4930  0.2043
 1090TIP3   OH224904   6.251   5.912   1.419  0.0293 -0.5540 -0.0053
 1090TIP3    H124905   6.224   5.890   1.508 -1.6996  1.6591  0.1360
 1090TIP3    H224906   6.287   5.832   1.384 -0.4599 -1.8549  2.2569
 1091TIP3   OH224907   1.794   1.409   1.486 -0.3483  0.1768  0.4897
 1091TIP3    H124908   1.872   1.465   1.485  2.4519 -3.3379 -1.0279
 1091TIP3    H224909   1.746   1.434   1.407 -0.3387  1.7676  0.9467
 1092TIP3   OH224910   3.264   2.468   8.063 -0.2478  0.4615 -0.5032
 1092TIP3    H124911   3.306   2.385   8.038 -0.8556  0.6926 -2.4543
 1092TIP3    H224912   3.201   2.443   8.130  0.6913 -0.3974  0.0963
 1093TIP3   OH224913   6.727   5.208   0.429 -1.0417 -0.0600  0.1102
 1093TIP3    H124914   6.822   5.199   0.439 -1.1252 -1.5250 -0.2896
 1093TIP3    H224915   6.705   5.284   0.483  0.2511 -0.1602  0.8174
 1094TIP3   OH224916   0.125   5.130   0.309 -0.4164  1.0059  0.1699
 1094TIP3    H124917   0.185   5.115   0.382 -0.6570 -0.0225  0.1725
 1094TIP3    H224918   0.176   5.183   0.247  0.4499  0.2973  0.2498
 1095TIP3   OH224919   3.387   3.624   1.181 -0.4162  0.4789 -0.0556
 1095TIP3    H124920   3.395   3.706   1.131  0.0981  1.5705  1.7450
 1095TIP3    H224921   3.477   3.602   1.205 -0.5997 -0.3967 -0.1375
 1096TIP3   OH224922   6.255   4.294   7.788 -0.6726  0.3078  0.5157
 1096TIP3    H124923   6.269   4.232   7.717  0.9477 -0.8932  1.8001
 1096TIP3    H224924   6.239   4.240   7.866 -1.3185  1.5526  1.2855
 1097TIP3   OH224925   3.789   5.269   0.122  0.2999  0.0724 -0.1776
 1097TIP3    H124926   3.812   5.249   0.032 -0.6154  1.1090 -0.6622
 1097TIP3    H224927   3.797   5.364   0.129 -1.8439  0.2923  0.1374
 1098TIP3   OH224928   1.282   2.252   7.701  0.4773 -0.0456  0.3876
 1098TIP3    H124929   1.203   2.295   7.735  0.2361 -0.8565  0.8793
 1098TIP3    H224930   1.354   2.303   7.737  0.1859  0.9476 -0.3913
 1099TIP3   OH224931   0.003   1.379   6.734  0.3829  0.2613 -0.4722
 1099TIP3    H124932   0.085   1.379   6.783  0.7528 -1.4540 -1.0201
 1099TIP3    H224933  -0.035   1.292   6.750  0.0379  0.0066 -2.3927
 1100TIP3   OH224934   4.326   0.082   8.129  0.5825 -0.2674  0.4826
 1100TIP3    H124935   4.303   0.118   8.044  0.6000  0.4576  0.7793
 1100TIP3    H224936   4.274   0.001   8.135 -0.1237  0.1508  0.1676
 1101TIP3   OH224937   4.057   2.149   7.327  0.7927  0.9334  0.1587
 1101TIP3    H124938   4.057   2.054   7.335  0.8891  1.0377  1.6557
 1101TIP3    H224939   3.971   2.171   7.292  0.8597  0.2955 -0.4325
 1102TIP3   OH224940   6.117   1.074   7.979 -0.3299 -0.2547  0.0243
 1102TIP3    H124941   6.123   1.118   7.894 -1.9090  0.7165  0.3847
 1102TIP3    H224942   6.069   0.993   7.960  2.9641 -2.2509 -0.7259
 1103TIP3   OH224943   4.236   4.288   0.408  0.0956 -0.0356  0.4003
 1103TIP3    H124944   4.316   4.314   0.363 -0.3938 -0.5303 -0.8129
 1103TIP3    H224945   4.169   4.347   0.375 -0.0916  0.2147  1.2177
 1104TIP3   OH224946   2.478   2.568   1.847  0.3495  0.0361  0.5218
 1104TIP3    H124947   2.557   2.566   1.902  1.9323  3.4484 -1.3555
 1104TIP3    H224948   2.511   2.564   1.758 -1.9136 -1.4481 -0.3281
 1105TIP3   OH224949   3.290   3.145   7.852 -0.2677  0.0056 -0.9250
 1105TIP3    H124950   3.196   3.151   7.834 -0.5264  0.8648  0.4716
 1105TIP3    H224951   3.296   3.085   7.926  0.2577  0.1115 -0.8793
 1106TIP3   OH224952   5.419   3.709   0.497 -0.0802  0.0558 -0.5726
 1106TIP3    H124953   5.473   3.635   0.526  0.3220  0.6748  0.3119
 1106TIP3    H224954   5.353   3.719   0.567 -2.1208 -1.3995 -2.1443
 1107TIP3   OH224955   1.618   4.486   2.767 -0.1517 -0.1875 -0.2726
 1107TIP3    H124956   1.573   4.507   2.850 -0.3889 -0.5415 -0.3118
 1107TIP3    H224957   1.711   4.500   2.787 -0.1704 -0.6632  0.1741
 1108TIP3   OH224958   0.201   0.815   2.256  0.0550 -0.4432 -0.5106
 1108TIP3    H124959   0.168   0.828   2.167 -0.4048  3.3863  0.0331
 1108TIP3    H224960   0.132   0.767   2.301 -2.2873  2.2393 -0.9445
 1109TIP3   OH224961   4.114   0.289   0.149  0.1742  0.3700  0.0208
 1109TIP3    H124962   4.195   0.238   0.151  0.0550  0.1280 -0.7992
 1109TIP3    H224963   4.141   0.376   0.119  0.2253  0.4973  0.4240
 1110TIP3   OH224964   1.807   1.950   8.234 -0.3356 -0.8019  0.1263
 1110TIP3    H124965   1.761   2.034   8.237 -0.8559 -1.0568 -0.4004
 1110TIP3    H224966   1.855   1.946   8.316 -0.0402  0.1571  0.0068
 1111TIP3   OH224967   1.752   6.820   0.414 -0.2469 -0.0066  0.0992
 1111TIP3    H124968   1.678   6.875   0.387  0.2284  0.3574 -0.5006
 1111TIP3    H224969   1.814   6.881   0.455 -0.1168 -0.2432  0.2541
 1112TIP3   OH224970   4.980   2.123   8.414 -0.3830  0.0549 -0.3873
 1112TIP3    H124971   4.965   2.054   8.349 -0.1002 -0.7317  0.3693
 1112TIP3    H224972   5.056   2.093   8.464 -0.4234  0.7868  0.1283
 1113TIP3   OH224973   0.577   4.334   8.021  0.2044 -0.7897  0.1921
 1113TIP3    H124974   0.601   4.249   8.057  1.4851 -0.2801  0.5870
 1113TIP3    H224975   0.487   4.348   8.050 -0.2695 -2.3032 -0.4548
 1114TIP3   OH224976   4.368   4.000   8.278  0.1128  0.1766 -0.2424
 1114TIP3    H124977   4.316   4.061   8.226 -2.5615 -0.6235  1.2663
 1114TIP3    H224978   4.370   3.920   8.226  0.7680  0.4989 -0.7407
 1115TIP3   OH224979   5.208   5.070   8.266  0.7273  0.1477  0.5713
 1115TIP3    H124980   5.149   5.021   8.208  1.1162 -1.2559  1.3237
 1115TIP3    H224981   5.195   5.161   8.240  0.1850 -0.3495 -1.0676
 1116TIP3   OH224982   4.337   6.200   0.670 -0.6437  0.8369 -0.5403
 1116TIP3    H124983   4.406   6.140   0.642 -1.3107 -0.9941  1.4038
 1116TIP3    H224984   4.378   6.256   0.735 -0.6277  0.7304 -0.4581
 1117TIP3   OH224985   5.630   6.828   7.492 -0.0536 -0.3794 -0.0399
 1117TIP3    H124986   5.639   6.738   7.461  1.1805 -0.5053  0.5895
 1117TIP3    H224987   5.587   6.874   7.421 -1.3691 -1.6182 -0.0839
 1118TIP3   OH224988   6.348   3.262   1.692  0.4916 -0.3465 -0.0877
 1118TIP3    H124989   6.291   3.186   1.684  0.9605 -0.6341 -0.7438
 1118TIP3    H224990   6.375   3.283   1.602  2.4507 -1.0132  0.2938
 1119TIP3   OH224991   3.581   2.901   8.666  0.5012 -0.0674 -0.6582
 1119TIP3    H124992   3.671   2.867   8.670  0.8068  0.6468 -1.0540
 1119TIP3    H224993   3.586   2.972   8.602  0.2988  1.8751  1.3437
 1120TIP3   OH224994   5.371   5.412   7.262  0.2897 -0.3649 -0.3071
 1120TIP3    H124995   5.462   5.409   7.292 -0.5965 -1.1199  2.5939
 1120TIP3    H224996   5.349   5.506   7.263  1.0680 -0.1433 -1.3426
 1121TIP3   OH224997   2.515   5.016   8.678 -0.3886  0.4511 -0.4335
 1121TIP3    H124998   2.598   5.057   8.700 -0.1328  0.2420 -1.0090
 1121TIP3    H224999   2.449   5.075   8.715  0.0108  0.5596  0.1220
 1122TIP3   OH225000   3.897   6.552   1.661  0.2368  0.2958 -0.0651
 1122TIP3    H125001   3.947   6.632   1.678 -0.9826  0.6780  2.1595
 1122TIP3    H225002   3.842   6.573   1.586 -0.0736  1.5808  0.5010
 1123TIP3   OH225003   1.196   1.650   2.335 -0.2311 -0.1101  0.6391
 1123TIP3    H125004   1.251   1.605   2.399 -1.6572 -0.2820  1.8121
 1123TIP3    H225005   1.187   1.739   2.370  0.8079  0.4940 -0.5408
 1124TIP3   OH225006   0.164   2.195   2.371  0.5059  0.1111  0.0763
 1124TIP3    H125007   0.258   2.190   2.392  0.4632  0.3756  0.3298
 1124TIP3    H225008   0.157   2.155   2.283  0.8947  0.3525 -0.0660
 1125TIP3   OH225009   5.637   4.343   7.685  0.2824 -0.4343  0.0924
 1125TIP3    H125010   5.715   4.354   7.630 -0.8868  2.6950 -1.1508
 1125TIP3    H225011   5.564   4.359   7.626 -1.3767 -2.7883  1.3409
 1126TIP3   OH225012   3.616   4.437   0.647  0.5536 -0.2448  0.1345
 1126TIP3    H125013   3.594   4.520   0.606  1.9393 -1.1567 -2.7155
 1126TIP3    H225014   3.710   4.443   0.664  1.0476 -1.8064 -1.7490
 1127TIP3   OH225015   2.861   0.723   0.900  0.5564 -0.7049 -0.2835
 1127TIP3    H125016   2.884   0.755   0.988  0.9384 -1.0575 -0.2500
 1127TIP3    H225017   2.873   0.800   0.844 -0.3788 -0.2877  0.0728
 1128TIP3   OH225018   2.312   4.480   0.477  0.1473 -0.0342  0.4336
 1128TIP3    H125019   2.339   4.569   0.501 -0.6522 -0.1689  1.8825
 1128TIP3    H225020   2.230   4.465   0.524  0.9116 -2.0034  1.2531
 1129TIP3   OH225021   0.250   0.370   8.154  0.1901  0.1154 -0.4365
 1129TIP3    H125022   0.331   0.336   8.117  0.9669  0.5868  0.7582
 1129TIP3    H225023   0.275   0.399   8.242 -1.4077 -0.2689  0.1648
 1130TIP3   OH225024   3.789   4.825   8.112  0.0965 -0.3584 -0.0736
 1130TIP3    H125025   3.776   4.853   8.022 -0.1974 -2.6738 -0.8263
 1130TIP3    H225026   3.703   4.797   8.142  0.3265 -0.3135  0.6641
 1131TIP3   OH225027   4.718   5.027   2.443 -0.1538  0.7312 -0.2695
 1131TIP3    H125028   4.635   5.072   2.456  0.4772  1.5044  1.3954
 1131TIP3    H225029   4.757   5.071   2.368 -1.2594  0.3061 -1.1202
 1132TIP3   OH225030   1.610   3.154   7.599 -0.5879 -0.0173  0.2551
 1132TIP3    H125031   1.624   3.214   7.526  1.3925  0.1105  0.6945
 1132TIP3    H225032   1.682   3.172   7.660  1.0013 -3.7798 -0.2316
 1133TIP3   OH225033   5.218   5.072   1.822 -0.2118  0.0506 -0.4712
 1133TIP3    H125034   5.284   5.026   1.771 -1.3537 -0.8544 -1.1948
 1133TIP3    H225035   5.190   5.145   1.767  0.9895  1.1380  0.3213
 1134TIP3   OH225036   5.119   1.037   2.028  0.0550  0.2039  0.1020
 1134TIP3    H125037   5.068   0.962   2.059 -0.6046  0.5494 -0.1281
 1134TIP3    H225038   5.085   1.111   2.078 -0.5699  0.6602 -0.9619
 1135TIP3   OH225039   5.458   4.111   8.060 -0.5839  0.5150 -0.4649
 1135TIP3    H125040   5.392   4.178   8.077 -1.6453 -0.8399  1.0029
 1135TIP3    H225041   5.460   4.104   7.964 -2.5833  0.5987 -0.5566
 1136TIP3   OH225042   6.319   0.344   0.054 -0.0846 -0.5084  0.0491
 1136TIP3    H125043   6.324   0.259   0.010  1.5064 -0.1193 -0.5840
 1136TIP3    H225044   6.327   0.324   0.147 -1.0182 -1.1410  0.0090
 1137TIP3   OH225045   4.316   6.468   7.950 -0.3018  0.0262  0.2206
 1137TIP3    H125046   4.234   6.496   7.908 -0.1465  0.3875  0.1540
 1137TIP3    H225047   4.354   6.405   7.889 -1.2870 -1.3393  0.9606
 1138TIP3   OH225048   3.076   5.568   7.206 -0.1757 -0.0955  0.3194
 1138TIP3    H125049   3.084   5.662   7.223 -1.2707  0.0079  0.3172
 1138TIP3    H225050   3.131   5.527   7.273  0.6294  0.5560  0.0682
 1139TIP3   OH225051   2.184   1.082   0.762 -0.4529 -1.5237 -0.3793
 1139TIP3    H125052   2.269   1.071   0.719  0.3465 -0.5558  0.8973
 1139TIP3    H225053   2.179   1.010   0.825  0.1432 -0.6808  0.6538
 1140TIP3   OH225054   0.150   6.696   0.542  0.3978  0.3749  0.1324
 1140TIP3    H125055   0.095   6.731   0.472  0.3201  0.0504  0.0313
 1140TIP3    H225056   0.223   6.654   0.496 -0.3748 -1.0833  0.1861
 1141TIP3   OH225057   1.805   2.517   0.875 -0.0464 -0.3059  0.4701
 1141TIP3    H125058   1.832   2.576   0.946 -2.4290  2.6657 -0.8581
 1141TIP3    H225059   1.711   2.510   0.885 -0.9353  2.3027 -3.6326
 1142TIP3   OH225060   3.498   2.673   8.514 -0.0847 -0.1191 -0.0116
 1142TIP3    H125061   3.509   2.593   8.565  1.3329  0.5611  0.8241
 1142TIP3    H225062   3.505   2.744   8.579  0.1964  0.7169 -0.9236
 1143TIP3   OH225063   6.518   6.142   7.671  0.7638 -0.3553 -0.0280
 1143TIP3    H125064   6.440   6.190   7.699  0.1652 -0.9303 -0.6430
 1143TIP3    H225065   6.584   6.209   7.657  0.2147  0.1997 -0.0236
 1144TIP3   OH225066   0.242   2.032   7.704 -0.6874  0.1504 -0.3762
 1144TIP3    H125067   0.187   2.006   7.630 -1.7734  1.1802  0.0419
 1144TIP3    H225068   0.247   1.954   7.759 -0.8868 -0.2595 -0.9327
 1145TIP3   OH225069   0.245   0.279   2.574  0.3166 -0.1827 -0.1442
 1145TIP3    H125070   0.192   0.201   2.591  0.7740 -1.1447 -2.6599
 1145TIP3    H225071   0.181   0.347   2.553 -0.0568 -0.0314  1.3861
 1146TIP3   OH225072   5.055   3.937   0.103  0.0956 -0.1191  0.0098
 1146TIP3    H125073   5.077   3.856   0.056 -0.0917 -0.4122  0.4194
 1146TIP3    H225074   5.138   3.967   0.140  0.2708  0.1946 -0.6283
 1147TIP3   OH225075   6.476   2.294   8.224 -0.1142 -1.1366  0.0448
 1147TIP3    H125076   6.384   2.279   8.245 -1.8068  1.4147 -4.3251
 1147TIP3    H225077   6.489   2.250   8.141  2.5575 -1.0171  0.3226
 1148TIP3   OH225078   3.628   1.639   8.320  0.5109 -0.2246 -0.5634
 1148TIP3    H125079   3.543   1.683   8.313 -0.3836 -1.2975  2.2243
 1148TIP3    H225080   3.692   1.710   8.318 -0.6099  0.8230 -0.3328
 1149TIP3   OH225081   5.308   5.306   0.220 -0.0335 -0.3332  0.0801
 1149TIP3    H125082   5.287   5.217   0.192 -0.5086 -0.0911 -0.3324
 1149TIP3    H225083   5.224   5.351   0.224  0.3337  0.5097 -1.1444
 1150TIP3   OH225084   1.943   5.340   7.617 -0.2051 -0.3770  0.1358
 1150TIP3    H125085   1.933   5.367   7.526  0.7286 -2.2705 -0.5944
 1150TIP3    H225086   1.946   5.422   7.667  0.3853  0.7516 -1.6574
 1151TIP3   OH225087   3.358   6.536   2.161 -0.3702 -0.0097  0.3163
 1151TIP3    H125088   3.339   6.625   2.191  2.2745  1.4168 -1.7552
 1151TIP3    H225089   3.428   6.505   2.218  0.3457  0.2293 -0.4065
 1152TIP3   OH225090   3.435   3.782   0.527 -0.5185 -0.5228 -0.5027
 1152TIP3    H125091   3.414   3.758   0.437 -1.2594  0.0695 -0.4917
 1152TIP3    H225092   3.389   3.717   0.581  1.1037 -1.7853 -0.5547
 1153TIP3   OH225093   0.621   3.495   1.188  0.6252 -0.1468 -0.2969
 1153TIP3    H125094   0.686   3.428   1.169  0.5236  0.0263 -1.3116
 1153TIP3    H225095   0.537   3.449   1.188  0.4678  0.1000 -1.8263
 1154TIP3   OH225096   5.570   1.783   0.256  0.4387  0.7184 -0.5766
 1154TIP3    H125097   5.510   1.721   0.215 -1.2016  2.1061 -0.3593
 1154TIP3    H225098   5.571   1.858   0.198  1.1908  1.1308 -0.0486
 1155TIP3   OH225099   3.852   0.761   0.661  0.4522  0.3722  0.2602
 1155TIP3    H125100   3.773   0.711   0.682  0.0300  0.8272 -0.2046
 1155TIP3    H225101   3.924   0.708   0.694 -0.0470 -0.0733  0.6462
 1156TIP3   OH225102   0.656   1.809   1.978 -0.7990  0.3869  0.0167
 1156TIP3    H125103   0.589   1.764   2.030 -2.3665  1.0853 -1.3003
 1156TIP3    H225104   0.688   1.878   2.035 -0.6935 -0.3806  0.9099
 1157TIP3   OH225105   5.257   0.390   1.342 -0.4943 -0.2321 -0.4788
 1157TIP3    H125106   5.293   0.387   1.430  0.7221  0.5746 -0.9274
 1157TIP3    H225107   5.162   0.395   1.355 -0.3668 -0.7043  0.7588
 1158TIP3   OH225108   3.513   5.414   7.575 -0.2552  0.0008 -0.3170
 1158TIP3    H125109   3.537   5.395   7.665 -1.6886 -1.0513 -0.1208
 1158TIP3    H225110   3.573   5.361   7.522  0.4766  0.4909  0.0161
 1159TIP3   OH225111   0.392   3.746   8.714 -0.2396  0.3896  0.0677
 1159TIP3    H125112   0.477   3.706   8.699 -0.5456  0.1565 -1.1372
 1159TIP3    H225113   0.403   3.838   8.687 -0.8532 -0.0844 -1.9479
 1160TIP3   OH225114   3.538   0.965   0.071 -0.5268  0.5131  0.1034
 1160TIP3    H125115   3.592   0.895   0.034 -0.9493  0.0210  0.4076
 1160TIP3    H225116   3.480   0.921   0.133  0.4796  1.3702  1.7213
 1161TIP3   OH225117   4.465   3.067   1.467  0.2073 -0.2105  0.2273
 1161TIP3    H125118   4.558   3.066   1.444  0.2164 -3.3445 -0.0231
 1161TIP3    H225119   4.465   3.074   1.563  0.6106  0.9958  0.1592
 1162TIP3   OH225120   5.892   6.286   0.344  0.4709 -0.2039 -0.0804
 1162TIP3    H125121   5.937   6.294   0.428  1.9793 -0.2278 -0.8532
 1162TIP3    H225122   5.959   6.256   0.283 -0.4814  0.2111 -1.3925
 1163TIP3   OH225123   3.085   2.235   1.381 -0.6803 -0.7280 -0.1063
 1163TIP3    H125124   3.074   2.295   1.308 -1.9076 -0.1386  0.5312
 1163TIP3    H225125   3.005   2.181   1.379 -0.4146 -1.1485  0.4082
 1164TIP3   OH225126   6.480   3.169   2.380  0.3337  0.0705 -0.2277
 1164TIP3    H125127   6.471   3.199   2.290  0.9713 -0.8905 -0.6380
 1164TIP3    H225128   6.545   3.227   2.419 -1.2216  1.6092  0.1721
 1165TIP3   OH225129   6.490   1.271   0.428 -0.0416 -0.3174  0.1870
 1165TIP3    H125130   6.398   1.247   0.440 -0.2525 -1.3414 -2.6927
 1165TIP3    H225131   6.539   1.195   0.461 -0.1552  0.2768  1.8339
 1166TIP3   OH225132   6.729   5.942   1.174  0.2862 -0.0712 -0.1681
 1166TIP3    H125133   6.743   5.933   1.080 -1.3751 -0.5464 -0.4008
 1166TIP3    H225134   6.770   5.864   1.211 -0.3535 -0.6668 -0.6686
 1167TIP3   OH225135   5.887   3.884   0.515 -0.3542 -0.2545  0.0860
 1167TIP3    H125136   5.816   3.878   0.579 -0.3324 -0.9276  0.0477
 1167TIP3    H225137   5.865   3.818   0.449  0.2940 -0.4362  0.0528
 1168TIP3   OH225138   0.334   5.520   7.369  0.1383 -0.1725 -0.5198
 1168TIP3    H125139   0.353   5.486   7.281  1.7615 -2.1810  0.5024
 1168TIP3    H225140   0.394   5.594   7.379 -0.8698  0.8218 -1.4647
 1169TIP3   OH225141   4.011   5.524   0.888 -0.0575 -0.4182 -0.0529
 1169TIP3    H125142   4.006   5.604   0.941  2.2718  0.6618 -1.3441
 1169TIP3    H225143   3.998   5.554   0.798  0.1694 -1.6044 -0.4978
 1170TIP3   OH225144   6.785   3.653   0.441 -0.6986 -0.0408 -0.0203
 1170TIP3    H125145   6.873   3.629   0.413 -0.3582 -0.9567  1.6510
 1170TIP3    H225146   6.793   3.743   0.472 -0.0677 -0.4410  1.0611
 1171TIP3   OH225147   6.333   4.930   7.042  0.1847  0.4159  0.8091
 1171TIP3    H125148   6.421   4.897   7.025 -0.2821 -0.0587 -0.7958
 1171TIP3    H225149   6.332   5.017   7.002 -0.6222 -0.3242 -0.8651
 1172TIP3   OH225150   3.457   1.773   8.066 -0.0394  0.0634  0.5456
 1172TIP3    H125151   3.478   1.682   8.044  0.2890  0.5261 -1.2048
 1172TIP3    H225152   3.538   1.821   8.051 -0.7267  0.9462 -0.5333
 1173TIP3   OH225153   4.475   3.123   7.466  0.0734  0.2548 -0.5262
 1173TIP3    H125154   4.537   3.104   7.395  0.8163 -0.1354  0.1966
 1173TIP3    H225155   4.520   3.091   7.545 -0.1602  1.8636  0.2926
 1174TIP3   OH225156   2.100   6.318   8.137 -0.5185  0.0921 -0.4149
 1174TIP3    H125157   2.083   6.237   8.184  0.2484 -0.1905 -0.6218
 1174TIP3    H225158   2.177   6.300   8.084 -1.1063  0.5383 -1.4645
 1175TIP3   OH225159   0.383   1.434   0.680 -0.1953  0.4454 -0.0452
 1175TIP3    H125160   0.381   1.340   0.697 -0.0678  0.2287 -1.2015
 1175TIP3    H225161   0.359   1.443   0.588 -0.0184  1.5327  0.0012
 1176TIP3   OH225162   1.310   4.578   8.648 -0.0238 -0.4088 -0.4910
 1176TIP3    H125163   1.231   4.594   8.700  0.2211 -0.7417 -0.0033
 1176TIP3    H225164   1.364   4.656   8.661  0.6688 -1.0811  0.9540
 1177TIP3   OH225165   4.598   2.815   0.131  0.4638  0.7543  0.2795
 1177TIP3    H125166   4.658   2.773   0.069 -0.5497 -2.0783  1.0569
 1177TIP3    H225167   4.636   2.796   0.217 -1.4073 -1.0703  0.7848
 1178TIP3   OH225168   0.950   2.419   8.487 -0.7767  0.4233  0.3675
 1178TIP3    H125169   0.883   2.485   8.467 -3.0417 -1.6872  0.5639
 1178TIP3    H225170   0.927   2.386   8.574 -0.5497 -1.5228 -0.2587
 1179TIP3   OH225171   3.666   4.117   0.917 -0.1756 -0.2718  0.4907
 1179TIP3    H125172   3.627   4.122   0.829  2.7322  1.9925 -0.8471
 1179TIP3    H225173   3.591   4.105   0.975 -2.7591  2.3325 -1.9518
 1180TIP3   OH225174   3.560   4.720   0.139  0.3336 -0.1552 -0.0634
 1180TIP3    H125175   3.528   4.717   0.049  2.0849  1.4311 -0.7891
 1180TIP3    H225176   3.574   4.628   0.162 -0.2024 -0.5899 -1.3756
 1181TIP3   OH225177   2.530   3.484   2.053 -0.0747 -0.4262  0.1619
 1181TIP3    H125178   2.515   3.576   2.076 -0.4574 -0.4143 -0.1295
 1181TIP3    H225179   2.478   3.470   1.974 -0.7041 -1.1353  0.6921
 1182TIP3   OH225180   6.412   3.387   0.495 -0.2190  0.3480 -0.3268
 1182TIP3    H125181   6.339   3.444   0.470 -0.7356  0.0675  0.4913
 1182TIP3    H225182   6.402   3.309   0.441  0.2856  0.8750 -1.1983
 1183TIP3   OH225183   1.753   3.507   7.782  0.7927  0.2939 -1.0581
 1183TIP3    H125184   1.705   3.473   7.707 -1.3064 -0.5831  0.6021
 1183TIP3    H225185   1.810   3.435   7.809 -1.0769 -0.7444  0.3077
 1184TIP3   OH225186   5.332   1.640   0.186 -0.8848  0.1174 -0.1670
 1184TIP3    H125187   5.380   1.635   0.103 -0.8760 -0.5204 -0.1327
 1184TIP3    H225188   5.276   1.563   0.186  0.9806 -1.3752  1.5449
 1185TIP3   OH225189   6.544   3.872   8.709  0.1501 -0.0292 -0.4705
 1185TIP3    H125190   6.559   3.943   8.771 -0.6965  0.7775 -1.1602
 1185TIP3    H225191   6.541   3.793   8.763 -0.0322  0.5886  0.4464
 1186TIP3   OH225192   0.332   6.753   1.325  0.0661  0.3027  0.0899
 1186TIP3    H125193   0.397   6.781   1.390 -0.1693  0.9768  0.0447
 1186TIP3    H225194   0.385   6.717   1.253  0.3470  0.0115  0.4357
 1187TIP3   OH225195   1.578   1.415   1.322 -0.3956 -0.1169  0.1605
 1187TIP3    H125196   1.641   1.427   1.251 -2.3048  0.4755 -1.5384
 1187TIP3    H225197   1.549   1.324   1.315  0.2388 -0.3888  0.9335
 1188TIP3   OH225198   1.681   1.195   1.603 -0.9912  0.0678  0.4280
 1188TIP3    H125199   1.699   1.216   1.694 -0.5380 -0.7324  0.5282
 1188TIP3    H225200   1.707   1.273   1.555  2.9623 -0.9642  0.5385
 1189TIP3   OH225201   0.485   3.476   8.604 -0.2936  0.1084  0.0418
 1189TIP3    H125202   0.413   3.415   8.619  0.6488 -1.0415  0.0319
 1189TIP3    H225203   0.503   3.469   8.510 -1.6930  2.1811 -0.4466
 1190TIP3   OH225204   0.309   1.695   0.174  0.2064 -0.6453 -0.2704
 1190TIP3    H125205   0.224   1.651   0.174 -0.0233 -0.2116 -0.3811
 1190TIP3    H225206   0.306   1.752   0.097 -0.0099  0.5294  0.5857
 1191TIP3   OH225207   3.816   2.614   0.074 -0.3416 -0.8685 -0.2272
 1191TIP3    H125208   3.809   2.678   0.004  0.1086 -1.5137 -0.8666
 1191TIP3    H225209   3.777   2.658   0.150  1.2606  0.7048 -0.2629
 1192TIP3   OH225210   3.007   2.428   0.604  0.4786  0.1632 -0.1375
 1192TIP3    H125211   2.956   2.433   0.523  0.2352  1.6548  0.0601
 1192TIP3    H225212   2.971   2.353   0.651 -0.0624 -0.1100 -0.9727
 1193TIP3   OH225213   0.915   5.445   7.116 -0.2752  0.2637 -0.2016
 1193TIP3    H125214   0.877   5.522   7.157  0.9721 -0.6421  2.9427
 1193TIP3    H225215   0.854   5.374   7.135  0.4003 -0.2029  0.2987
 1194TIP3   OH225216   6.277   4.413   7.368  0.2546 -0.4421  0.4200
 1194TIP3    H125217   6.337   4.395   7.296  1.0790 -2.9643  1.6536
 1194TIP3    H225218   6.241   4.328   7.392 -2.4726  0.7332  0.9420
 1195TIP3   OH225219   1.086   4.724   1.709  0.1476  0.1310 -0.0460
 1195TIP3    H125220   1.125   4.806   1.677  0.9396 -0.1388  0.1920
 1195TIP3    H225221   1.045   4.685   1.631 -0.2334  0.7506 -0.1568
 1196TIP3   OH225222   6.688   5.720   1.897  0.1776 -0.1609  0.4821
 1196TIP3    H125223   6.709   5.626   1.890  0.0606 -0.2652  1.4454
 1196TIP3    H225224   6.594   5.722   1.916 -0.0903  0.2051 -0.7856
 1197TIP3   OH225225   3.144   6.032   1.182  0.1567 -0.2445 -0.0796
 1197TIP3    H125226   3.212   6.097   1.199 -1.0354  0.7887  0.8880
 1197TIP3    H225227   3.183   5.949   1.211  1.0902  0.2894  0.2275
 1198TIP3   OH225228   0.603   2.686   8.379 -0.9418  0.1625  0.4333
 1198TIP3    H125229   0.628   2.598   8.408  0.1181  0.1320 -0.4987
 1198TIP3    H225230   0.524   2.706   8.429 -0.3200 -0.6858  1.8025
 1199TIP3   OH225231   4.024   1.214   0.451 -0.0712 -0.5084 -0.1322
 1199TIP3    H125232   3.973   1.266   0.513  1.3637 -0.2130  0.8370
 1199TIP3    H225233   4.015   1.124   0.482 -1.1903 -0.6606 -0.8396
 1200TIP3   OH225234   6.728   5.957   7.714 -0.0853 -0.0177 -0.2698
 1200TIP3    H125235   6.649   6.008   7.729 -0.0467  0.0414 -0.2710
 1200TIP3    H225236   6.773   5.955   7.799 -1.0613 -1.7100  0.2712
 1201TIP3   OH225237   5.611   4.772   0.345  0.1833  0.5986  0.7747
 1201TIP3    H125238   5.704   4.771   0.367  0.7442  2.8917 -1.1415
 1201TIP3    H225239   5.566   4.763   0.429  2.0569 -1.7105  1.6526
 1202TIP3   OH225240   5.486   2.576   6.663  0.2130  0.5098  0.4080
 1202TIP3    H125241   5.439   2.494   6.681  1.4773 -0.3951 -0.2177
 1202TIP3    H225242   5.421   2.633   6.623 -0.2462 -0.9139 -0.9884
 1203TIP3   OH225243   1.130   4.202   7.423 -0.4846  0.3564 -0.5115
 1203TIP3    H125244   1.193   4.164   7.485 -1.1521  1.6179  1.0032
 1203TIP3    H225245   1.077   4.128   7.394 -1.0363 -0.0873  1.4984
 1204TIP3   OH225246   0.199   3.971   0.360 -0.0625  0.0525 -0.6930
 1204TIP3    H125247   0.185   3.879   0.380  0.2513  0.0915 -0.2721
 1204TIP3    H225248   0.215   3.974   0.266  1.1442 -0.4751 -0.5186
 1205TIP3   OH225249   3.208   5.373   0.113 -0.0031  0.4724 -0.2301
 1205TIP3    H125250   3.281   5.344   0.168  1.1089  1.0421 -1.3614
 1205TIP3    H225251   3.182   5.457   0.152 -0.6013 -0.0959  0.6432
 1206TIP3   OH225252   3.232   3.175   8.274  0.5859 -0.1720  0.2356
 1206TIP3    H125253   3.274   3.227   8.342  0.6689  1.1182 -0.7552
 1206TIP3    H225254   3.176   3.237   8.227 -2.8317 -1.8325  1.7196
 1207TIP3   OH225255   1.473   0.671   0.169  0.2245 -0.1160  0.0730
 1207TIP3    H125256   1.462   0.679   0.074  0.4410 -1.8565 -0.1490
 1207TIP3    H225257   1.532   0.742   0.193  0.8711 -0.1681 -1.2522
 1208TIP3   OH225258   1.582   0.487   2.867  0.3668  0.1008  0.0659
 1208TIP3    H125259   1.636   0.468   2.790 -0.0075 -0.4814 -0.0590
 1208TIP3    H225260   1.601   0.578   2.888 -1.6466  1.2391 -2.4634
 1209TIP3   OH225261   5.193   2.616   7.175 -0.5704  0.4557  0.3114
 1209TIP3    H125262   5.188   2.696   7.227 -2.2180  0.3853  0.3131
 1209TIP3    H225263   5.102   2.585   7.169 -0.1496 -0.6678 -0.8486
 1210TIP3   OH225264   2.005   1.867   2.328  0.4024  0.7419 -0.3184
 1210TIP3    H125265   1.922   1.832   2.361 -0.5116  0.0972 -3.0751
 1210TIP3    H225266   2.072   1.812   2.368 -0.7793 -1.7003 -1.4837
 1211TIP3   OH225267   2.780   0.549   1.251 -0.1890  0.1205  0.4702
 1211TIP3    H125268   2.837   0.481   1.286 -0.1731 -0.3678 -0.4817
 1211TIP3    H225269   2.769   0.611   1.324  2.2592  0.7164  0.4319
 1212TIP3   OH225270   4.903   6.158   8.023 -0.1329 -0.5121 -0.2766
 1212TIP3    H125271   4.845   6.147   8.099 -0.4751 -0.8213 -0.5808
 1212TIP3    H225272   4.930   6.069   8.001  0.4637 -0.3697 -0.1381
 1213TIP3   OH225273   3.392   6.020   0.943  0.3167  0.3659 -0.5847
 1213TIP3    H125274   3.377   6.048   0.853  0.4206 -0.5137 -0.8828
 1213TIP3    H225275   3.344   5.937   0.951  0.6834  0.2089  0.0292
 1214TIP3   OH225276   0.059   5.458   7.324  0.0902  0.3033 -0.3448
 1214TIP3    H125277  -0.010   5.460   7.258  0.1507 -0.4577 -0.4365
 1214TIP3    H225278   0.132   5.413   7.281  0.7937  1.4597 -0.3880
 1215TIP3   OH225279   1.162   4.358   7.786 -0.4205 -0.0866  0.1597
 1215TIP3    H125280   1.111   4.277   7.792  0.5906 -0.6568  1.5852
 1215TIP3    H225281   1.128   4.413   7.856 -0.3172  0.2707 -0.0685
 1216TIP3   OH225282   3.002   4.457   2.760  0.5440 -0.0420  0.0133
 1216TIP3    H125283   2.941   4.415   2.822 -1.5210  3.3199  0.5033
 1216TIP3    H225284   3.065   4.503   2.816  3.1270 -2.6667 -0.5099
 1217TIP3   OH225285   5.891   1.605   2.402 -0.2674  0.1947 -0.2145
 1217TIP3    H125286   5.882   1.698   2.385  0.2787 -0.0202 -1.8523
 1217TIP3    H225287   5.827   1.563   2.345  0.0512 -0.4718 -0.0983
 1218TIP3   OH225288   6.554   6.559   8.095 -0.0475  0.2849 -0.1043
 1218TIP3    H125289   6.498   6.554   8.172 -0.6636 -0.5781 -0.5865
 1218TIP3    H225290   6.588   6.648   8.095 -1.1794  0.7299  0.3588
 1219TIP3   OH225291   6.574   1.632   7.441 -0.6524 -0.1027  0.5696
 1219TIP3    H125292   6.561   1.539   7.462 -1.4373 -0.2397 -0.4321
 1219TIP3    H225293   6.487   1.663   7.415 -0.0771  0.4587 -0.7789
 1220TIP3   OH225294   3.131   5.329   0.788 -0.3573 -0.1883  0.8724
 1220TIP3    H125295   3.189   5.263   0.826 -0.8933 -1.0835  0.1516
 1220TIP3    H225296   3.114   5.299   0.699  0.4837  1.6177  0.0389
 1221TIP3   OH225297   1.024   4.393   1.930  0.1591 -0.1795 -0.4864
 1221TIP3    H125298   0.964   4.339   1.981  0.2440  0.2533  0.0920
 1221TIP3    H225299   1.015   4.480   1.970  1.2422 -0.1365 -0.3265
 1222TIP3   OH225300   4.444   2.276   7.853  0.5028 -0.0287  0.4277
 1222TIP3    H125301   4.410   2.186   7.856  0.2225  0.0302  4.1036
 1222TIP3    H225302   4.526   2.271   7.904 -0.0917  1.9565  1.6747
 1223TIP3   OH225303   1.982   6.639   7.624  0.1921 -0.4198 -0.3364
 1223TIP3    H125304   1.974   6.732   7.604 -2.3055 -0.2798  0.8600
 1223TIP3    H225305   2.025   6.635   7.709 -1.4421 -0.1768  0.5466
 1224TIP3   OH225306   4.419   4.466   0.292  0.3952 -0.4525 -0.1452
 1224TIP3    H125307   4.447   4.431   0.207  1.3641 -1.3693  0.5291
 1224TIP3    H225308   4.479   4.539   0.308 -0.5434  0.4921 -0.7659
 1225TIP3   OH225309   3.841   0.463   7.924  0.1063 -0.0025 -0.5316
 1225TIP3    H125310   3.764   0.430   7.878 -0.1086  1.0006 -0.9201
 1225TIP3    H225311   3.813   0.547   7.960  0.1123 -0.9631  1.8995
 1226TIP3   OH225312   5.116   0.371   2.279 -0.5839 -0.5754  0.2087
 1226TIP3    H125313   5.168   0.447   2.253 -1.8929  0.0955 -0.5528
 1226TIP3    H225314   5.150   0.348   2.366  0.4693  0.2831  0.0478
 1227TIP3   OH225315   2.103   4.194   0.564 -0.0166  0.1268 -0.0387
 1227TIP3    H125316   2.127   4.188   0.656 -1.9167 -1.2022  0.4286
 1227TIP3    H225317   2.067   4.282   0.554 -1.1075 -0.1868  0.8801
 1228TIP3   OH225318   5.458   6.257   8.495 -0.2690  0.4277  0.1125
 1228TIP3    H125319   5.459   6.234   8.402  0.2752  1.1614 -0.0617
 1228TIP3    H225320   5.468   6.173   8.540  2.1620  0.3190 -0.5217
 1229TIP3   OH225321   2.842   1.867   2.889 -0.0366 -0.2115 -0.3965
 1229TIP3    H125322   2.798   1.910   2.816  0.9780 -0.0013 -0.8943
 1229TIP3    H225323   2.794   1.785   2.900  0.5571 -0.8298 -2.1301
 1230TIP3   OH225324   2.609   6.499   0.084  0.1349 -0.0182 -0.1716
 1230TIP3    H125325   2.532   6.477   0.137 -0.0255  0.8971 -0.0059
 1230TIP3    H225326   2.684   6.482   0.142  0.1096 -1.3940 -0.4989
 1231TIP3   OH225327   6.176   5.741   0.386 -0.4088 -0.1264  0.0076
 1231TIP3    H125328   6.217   5.692   0.315  0.3450  0.6598 -0.1187
 1231TIP3    H225329   6.227   5.821   0.393  0.8412 -1.0235  2.7770
 1232TIP3   OH225330   5.750   5.994   2.858  0.3364 -0.4654  0.0018
 1232TIP3    H125331   5.704   6.021   2.938  0.1676 -0.5990 -0.0484
 1232TIP3    H225332   5.755   6.074   2.805 -1.3572 -0.7908 -0.7330
 1233TIP3   OH225333   3.005   2.035   8.712 -0.8774  0.1475 -0.0857
 1233TIP3    H125334   3.038   2.124   8.720 -0.0693 -0.2173  1.0402
 1233TIP3    H225335   3.048   1.987   8.784 -2.2726 -0.8502  0.1341
 1234TIP3   OH225336   5.830   6.701   2.295 -0.1473 -0.3272  0.2033
 1234TIP3    H125337   5.922   6.695   2.269 -0.1638  0.2727 -0.0150
 1234TIP3    H225338   5.813   6.621   2.344  0.4744 -0.4719  0.1855
 1235TIP3   OH225339   0.474   2.708   1.679  0.1254 -0.7177 -0.0493
 1235TIP3    H125340   0.382   2.706   1.706  0.8639 -0.7186  2.8137
 1235TIP3    H225341   0.479   2.777   1.613 -1.9847 -1.0270 -0.5787
 1236TIP3   OH225342   1.887   6.395   0.365  0.2169 -0.3298  0.3224
 1236TIP3    H125343   1.920   6.339   0.435  0.6611 -0.1833  0.2379
 1236TIP3    H225344   1.965   6.442   0.334  0.7496 -2.7156 -2.4615
 1237TIP3   OH225345   0.137   5.952   7.823 -0.3644  0.3477 -0.1302
 1237TIP3    H125346   0.115   5.880   7.882 -0.0726 -1.3985 -2.0351
 1237TIP3    H225347   0.155   6.026   7.881 -0.8157 -1.0606  1.9106
 1238TIP3   OH225348   3.218   0.260   8.691 -0.0156 -0.5878  0.5189
 1238TIP3    H125349   3.297   0.314   8.681 -0.3220 -0.4558 -1.6652
 1238TIP3    H225350   3.195   0.235   8.602 -1.7476 -1.6667  1.2230
 1239TIP3   OH225351   6.528   3.389   0.993  0.3059 -0.2467  0.1393
 1239TIP3    H125352   6.622   3.402   0.981  0.5271 -2.9799 -2.3664
 1239TIP3    H225353   6.489   3.413   0.909 -1.1598  0.1305  0.8874
 1240TIP3   OH225354   2.756   6.628   2.238  0.6081  0.3514 -0.1794
 1240TIP3    H125355   2.752   6.722   2.252  1.2737  0.4045 -0.2989
 1240TIP3    H225356   2.826   6.598   2.296 -0.8721 -0.3688  1.3110
 1241TIP3   OH225357   2.931   0.756   7.766 -0.5878  0.0569  0.3749
 1241TIP3    H125358   2.977   0.711   7.695  1.3052  0.2126  1.4164
 1241TIP3    H225359   2.843   0.720   7.766 -0.1786 -0.9935 -1.1132
 1242TIP3   OH225360   0.771   1.514   7.939  0.5516  0.4567 -0.6118
 1242TIP3    H125361   0.751   1.447   8.004 -1.0244  0.5110 -0.9762
 1242TIP3    H225362   0.788   1.465   7.859  0.7480  0.4415 -0.5597
 1243TIP3   OH225363   1.782   6.799   7.978 -0.2553  0.2600  0.3375
 1243TIP3    H125364   1.846   6.803   8.048 -0.5245 -0.0810  0.6051
 1243TIP3    H225365   1.726   6.724   8.000  1.8953 -2.2907 -2.1348
 1244TIP3   OH225366   1.291   5.482   2.239  0.7383 -0.5594 -0.1286
 1244TIP3    H125367   1.287   5.539   2.163  0.9792 -0.1622  0.1481
 1244TIP3    H225368   1.346   5.530   2.302  1.1930 -1.2282 -0.0043
 1245TIP3   OH225369   6.873   6.837   7.612 -0.0471 -0.4265  0.3774
 1245TIP3    H125370   6.814   6.897   7.658  2.2927  1.4626  1.1430
 1245TIP3    H225371   6.869   6.756   7.663 -0.6415  0.2601  1.4723
 1246TIP3   OH225372   4.712   1.005   1.306 -0.2084 -0.2218 -0.3344
 1246TIP3    H125373   4.617   0.992   1.305 -0.0334 -2.4579 -3.2613
 1246TIP3    H225374   4.735   1.013   1.213  2.4696  0.3951  0.3173
 1247TIP3   OH225375   1.297   6.768   6.655 -0.1482 -0.3270 -0.5240
 1247TIP3    H125376   1.271   6.677   6.670 -0.9451  0.3020  2.7702
 1247TIP3    H225377   1.217   6.819   6.669  0.8739  1.0344  0.7297
 1248TIP3   OH225378   5.141   5.079   0.511  0.4181 -0.3535  0.1769
 1248TIP3    H125379   5.228   5.117   0.503  1.3508 -2.1534  1.0688
 1248TIP3    H225380   5.115   5.096   0.602 -0.3322  0.4591 -0.1724
 1249TIP3   OH225381   1.293   1.389   7.754  0.1672 -0.4283 -0.4758
 1249TIP3    H125382   1.388   1.379   7.758  0.4266  1.6961 -0.4317
 1249TIP3    H225383   1.264   1.373   7.844  0.6357  0.2815 -0.1954
 1250TIP3   OH225384   0.498   5.178   7.816 -0.3305  0.6924  0.2752
 1250TIP3    H125385   0.576   5.230   7.837  0.5571 -0.6408  0.4453
 1250TIP3    H225386   0.488   5.187   7.721 -0.8564  2.0352  0.4381
 1251TIP3   OH225387   5.830   0.556   0.861  0.7126  0.1583 -0.3014
 1251TIP3    H125388   5.882   0.590   0.788  1.2444 -0.0801 -0.0349
 1251TIP3    H225389   5.827   0.461   0.846 -0.6705  0.2726 -0.9809
 1252TIP3   OH225390   6.792   3.469   8.288  0.4369 -0.2027 -0.6555
 1252TIP3    H125391   6.825   3.401   8.230 -0.1321 -2.4735  1.4805
 1252TIP3    H225392   6.843   3.459   8.368 -2.1132 -0.6527  1.0352
 1253TIP3   OH225393   5.700   2.470   8.246  0.7041 -0.2929  0.3150
 1253TIP3    H125394   5.692   2.543   8.185  0.9972  0.0938  0.7305
 1253TIP3    H225395   5.633   2.486   8.313 -0.6415 -1.5090 -0.6835
 1254TIP3   OH225396   6.683   6.141   1.820 -0.4639  0.2315  0.7727
 1254TIP3    H125397   6.646   6.076   1.881  0.3908 -1.9396 -0.9081
 1254TIP3    H225398   6.776   6.118   1.813 -0.8976 -1.0619 -2.9374
 1255TIP3   OH225399   2.859   4.815   2.679  0.8552 -0.5901 -0.0581
 1255TIP3    H125400   2.804   4.760   2.734  1.4639 -2.5190 -1.3039
 1255TIP3    H225401   2.948   4.783   2.693  1.1691 -0.2555 -1.1493
 1256TIP3   OH225402   6.522   5.191   7.718  0.5467 -0.1524  0.2794
 1256TIP3    H125403   6.446   5.181   7.660 -0.3081  0.4252  1.2654
 1256TIP3    H225404   6.536   5.105   7.756  0.7640 -0.4005 -0.3484
 1257TIP3   OH225405   0.068   5.451   8.599  0.3866  0.5375  0.3754
 1257TIP3    H125406   0.130   5.379   8.588 -1.9011 -1.3152 -1.3388
 1257TIP3    H225407   0.003   5.417   8.661 -1.1142  0.7979 -0.9984
 1258TIP3   OH225408   6.603   4.725   0.640 -0.4901  0.3351 -0.3308
 1258TIP3    H125409   6.518   4.756   0.671  0.3585  2.8434 -0.2954
 1258TIP3    H225410   6.635   4.795   0.584  0.7800 -1.3797 -1.8452
 1259TIP3   OH225411   6.836   1.229   8.656 -0.0046  0.3023 -0.3371
 1259TIP3    H125412   6.926   1.229   8.626  0.1272  0.1366  0.0479
 1259TIP3    H225413   6.789   1.176   8.592 -0.1000  1.5138 -1.3124
 1260TIP3   OH225414   4.481   4.460   7.873 -0.4390 -0.2400 -0.2880
 1260TIP3    H125415   4.466   4.550   7.900  2.5638  0.2596 -0.0170
 1260TIP3    H225416   4.520   4.467   7.786  0.6898 -1.1794  0.1091
 1261TIP3   OH225417   4.997   3.961   3.106 -0.2153  0.2966  0.1700
 1261TIP3    H125418   4.995   4.020   3.181  3.5224  2.6696 -1.3058
 1261TIP3    H225419   4.913   3.976   3.062 -1.7851  0.0544  2.8789
 1262TIP3   OH225420   6.529   3.604   1.234  0.0608 -0.1672 -0.3665
 1262TIP3    H125421   6.499   3.547   1.163 -0.4596  0.5130 -0.7158
 1262TIP3    H225422   6.510   3.693   1.202 -0.3688  0.1446  0.7082
 1263TIP3   OH225423   2.217   4.502   8.066 -0.3288  0.1504  0.0623
 1263TIP3    H125424   2.193   4.410   8.077  0.3114 -0.1165 -0.7212
 1263TIP3    H225425   2.150   4.538   8.007 -0.7006  0.2497  0.5368
 1264TIP3   OH225426   3.425   5.531   7.139 -0.4297 -0.0960 -0.3036
 1264TIP3    H125427   3.402   5.518   7.046 -2.2448 -1.9780  0.3218
 1264TIP3    H225428   3.462   5.446   7.166  3.2274  1.3951 -0.0315
 1265TIP3   OH225429   0.025   6.145   2.156  0.1917  0.2200 -0.4072
 1265TIP3    H125430   0.006   6.070   2.100  2.9598 -0.7498 -0.1521
 1265TIP3    H225431   0.106   6.182   2.121 -0.2280  2.1295  0.4770
 1266TIP3   OH225432   5.608   0.655   1.799  0.0554  0.1057 -0.0248
 1266TIP3    H125433   5.604   0.571   1.845 -0.7902  0.4225  0.5058
 1266TIP3    H225434   5.633   0.632   1.709  0.8447 -0.6070  0.3589
 1267TIP3   OH225435   1.260   3.764   7.686  0.1135  0.5045 -0.0772
 1267TIP3    H125436   1.245   3.793   7.596  1.9493 -0.1917 -0.6526
 1267TIP3    H225437   1.246   3.669   7.683 -0.2443  0.5347  0.4891
 1268TIP3   OH225438   1.942   3.431   1.999 -0.3445  0.1626  0.4620
 1268TIP3    H125439   1.953   3.386   1.915 -1.3371  2.0084 -0.7344
 1268TIP3    H225440   1.854   3.406   2.028 -0.5152  0.5508  0.2848
 1269TIP3   OH225441   3.137   1.146   1.572  0.3320  0.2864 -0.4787
 1269TIP3    H125442   3.101   1.198   1.644  1.8399 -0.4758  0.8880
 1269TIP3    H225443   3.139   1.206   1.497 -1.8630  0.9095 -0.1060
 1270TIP3   OH225444   0.336   4.119   1.833 -0.1244 -0.2717 -0.0487
 1270TIP3    H125445   0.391   4.140   1.757  2.6010 -2.3956  1.1644
 1270TIP3    H225446   0.299   4.203   1.859  0.9508  0.9560 -2.1635
 1271TIP3   OH225447   1.803   2.915   7.591  0.3446 -0.4239  0.1759
 1271TIP3    H125448   1.732   2.876   7.539  1.3833 -0.6846 -1.0955
 1271TIP3    H225449   1.869   2.847   7.596  1.1961  0.3575 -0.0766
 1272TIP3   OH225450   5.613   6.009   0.487 -0.0046  0.0404  0.4806
 1272TIP3    H125451   5.655   5.934   0.445 -0.5996  0.4171 -0.8209
 1272TIP3    H225452   5.609   6.076   0.419 -2.5708  0.0736  0.5809
 1273TIP3   OH225453   6.180   4.295   1.200  0.3686  0.1935  0.0168
 1273TIP3    H125454   6.133   4.375   1.176 -0.2260 -0.0921  0.2111
 1273TIP3    H225455   6.209   4.310   1.290  1.7977  0.8953 -0.5424
 1274TIP3   OH225456   0.067   3.349   1.789 -0.0237  0.0674  0.7494
 1274TIP3    H125457   0.036   3.261   1.767  0.4454 -0.3220  1.5567
 1274TIP3    H225458   0.053   3.356   1.883 -0.4374  1.0245  0.6209
 1275TIP3   OH225459   0.241   4.969   2.372 -0.4134  0.5076  0.3270
 1275TIP3    H125460   0.294   4.902   2.416  1.1138  0.3484 -1.5701
 1275TIP3    H225461   0.240   5.043   2.432 -0.0661 -0.3549  1.4288
 1276TIP3   OH225462   1.780   2.671   2.994  0.2076 -0.2186  0.2128
 1276TIP3    H125463   1.799   2.581   2.970  0.4897  0.1822 -1.1675
 1276TIP3    H225464   1.777   2.671   3.090 -0.4178 -1.8040  0.2176
 1277TIP3   OH225465   6.328   2.281   0.573  0.2075  0.1901 -0.0988
 1277TIP3    H125466   6.272   2.205   0.556 -0.2966  0.1322  1.5820
 1277TIP3    H225467   6.359   2.308   0.487 -1.5749 -0.4220 -0.9808
 1278TIP3   OH225468   1.911   3.579   2.450 -0.2432 -0.0980  0.0002
 1278TIP3    H125469   1.834   3.595   2.504  0.0181  1.8036 -0.1178
 1278TIP3    H225470   1.978   3.548   2.510 -0.3212  0.8162  0.5680
 1279TIP3   OH225471   2.624   3.681   1.533  0.3702  0.1722 -0.2237
 1279TIP3    H125472   2.533   3.652   1.527  0.0667  1.0510  0.1178
 1279TIP3    H225473   2.633   3.713   1.623  1.7841 -2.4275  0.6975
 1280TIP3   OH225474   1.698   0.139   0.724  0.1491 -0.4457  0.0076
 1280TIP3    H125475   1.699   0.233   0.707  0.2075 -0.5310 -0.4928
 1280TIP3    H225476   1.608   0.120   0.749 -0.0309 -0.3647 -0.5631
 1281TIP3   OH225477   5.467   5.208   1.283  0.2449  0.5323 -0.0299
 1281TIP3    H125478   5.498   5.275   1.223  1.2963  1.1179  1.1163
 1281TIP3    H225479   5.526   5.214   1.358 -1.3879  0.2795  1.3483
 1282TIP3   OH225480   0.835   4.187   7.276  0.3795  0.5642 -0.0558
 1282TIP3    H125481   0.769   4.253   7.253 -2.4085 -1.3975  1.7358
 1282TIP3    H225482   0.818   4.114   7.216  0.6960 -0.1155  0.6676
 1283TIP3   OH225483   1.087   3.794   1.976  0.3468  0.5118  0.4850
 1283TIP3    H125484   1.039   3.877   1.967 -0.1082  0.2113  0.0614
 1283TIP3    H225485   1.084   3.755   1.889  0.2392 -0.1187  0.7640
 1284TIP3   OH225486   0.595   5.559   0.978 -0.1639  0.0265  0.1235
 1284TIP3    H125487   0.604   5.580   0.885  2.2864  1.2333  0.5582
 1284TIP3    H225488   0.526   5.617   1.009 -0.7009 -0.0750 -0.8431
 1285TIP3   OH225489   2.318   3.507   1.475  0.3071 -0.0871 -0.1224
 1285TIP3    H125490   2.274   3.577   1.522  4.4896  3.2023 -0.4639
 1285TIP3    H225491   2.293   3.519   1.384  0.7135  0.7716 -0.1275
 1286TIP3   OH225492   2.814   0.112   0.050  0.3605 -0.4749  0.4566
 1286TIP3    H125493   2.817   0.060   0.131 -0.3260 -0.3695  0.5570
 1286TIP3    H225494   2.801   0.202   0.081 -0.4726 -0.5057  0.2142
 1287TIP3   OH225495   4.921   3.694   0.673  0.9391  0.1847  1.0278
 1287TIP3    H125496   4.875   3.645   0.742 -1.1221  0.2160 -0.2290
 1287TIP3    H225497   4.966   3.627   0.621 -1.4288 -0.4477 -0.3683
 1288TIP3   OH225498   6.796   3.400   0.940 -0.0051 -0.3576  0.1351
 1288TIP3    H125499   6.819   3.413   0.848 -1.5434 -0.5555 -0.3027
 1288TIP3    H225500   6.778   3.306   0.947 -2.2027  0.0094  0.0459
 1289TIP3   OH225501   1.220   5.472   1.795 -0.6103  0.6392  0.8666
 1289TIP3    H125502   1.124   5.473   1.792 -0.6420  2.6064  1.4884
 1289TIP3    H225503   1.241   5.437   1.882 -0.6696 -1.9378 -0.0744
 1290TIP3   OH225504   4.763   6.136   0.586 -0.2497 -0.4654 -0.1103
 1290TIP3    H125505   4.748   6.125   0.492  0.4506 -1.2690 -0.1473
 1290TIP3    H225506   4.804   6.222   0.594 -1.3611  0.1068 -0.4032
 1291TIP3   OH225507   2.551   0.206   1.660  0.4241  0.1842  0.0626
 1291TIP3    H125508   2.563   0.111   1.667  0.2638  0.1415 -0.2196
 1291TIP3    H225509   2.499   0.218   1.580  0.0338  0.4771  0.3584
 1292TIP3   OH225510   4.006   2.890   2.265 -0.8566 -0.0306 -0.4279
 1292TIP3    H125511   3.986   2.944   2.341 -0.4317 -2.3699  1.4719
 1292TIP3    H225512   3.922   2.850   2.241 -0.9667  0.6082 -1.1513
 1293TIP3   OH225513   2.011   6.442   1.800  0.1469  0.4845 -0.2800
 1293TIP3    H125514   2.021   6.393   1.719 -2.6015  1.6392 -1.4362
 1293TIP3    H225515   1.993   6.375   1.866 -0.2884 -0.2995 -1.1692
 1294TIP3   OH225516   2.197   0.162   8.028 -0.1864 -0.5493  0.5962
 1294TIP3    H125517   2.227   0.217   7.956  0.2988  0.5624  1.6025
 1294TIP3    H225518   2.243   0.079   8.017  1.8779  0.4772  1.0364
 1295TIP3   OH225519   5.523   1.969   1.744 -0.3764 -0.3719 -0.5457
 1295TIP3    H125520   5.453   2.034   1.754  1.0128  1.3512 -1.3829
 1295TIP3    H225521   5.563   1.990   1.660  0.8049 -1.6541 -0.3356
 1296TIP3   OH225522   0.877   3.093   2.251 -0.2957  0.2363  0.8770
 1296TIP3    H125523   0.856   3.108   2.343  2.4097 -1.0284  1.7948
 1296TIP3    H225524   0.819   3.021   2.224 -0.0581 -0.4151  2.0612
 1297TIP3   OH225525   1.343   1.250   1.751 -0.0762  0.6525 -0.6612
 1297TIP3    H125526   1.379   1.334   1.723  0.1431  1.1437  1.0003
 1297TIP3    H225527   1.248   1.263   1.752 -0.1207  0.4706 -1.6066
 1298TIP3   OH225528   4.135   2.195   0.864 -0.3707 -0.3794  0.6457
 1298TIP3    H125529   4.195   2.260   0.827 -1.5951  0.8767  0.7962
 1298TIP3    H225530   4.124   2.222   0.955 -0.6459 -0.9994  0.8028
 1299TIP3   OH225531   5.420   4.956   1.702 -0.3262  0.0156 -0.6760
 1299TIP3    H125532   5.475   5.002   1.766 -0.8282 -1.6844  1.0827
 1299TIP3    H225533   5.479   4.891   1.663 -0.7068 -0.9552  0.2940
 1300TIP3   OH225534   5.737   2.061   8.442 -0.1116  0.7211  0.4139
 1300TIP3    H125535   5.818   2.068   8.392 -0.1619 -0.8857  0.0652
 1300TIP3    H225536   5.765   2.070   8.533  0.9947 -2.8604  0.5622
 1301TIP3   OH225537   2.299   1.663   0.517 -0.3378 -0.4919  0.2665
 1301TIP3    H125538   2.277   1.679   0.425 -0.9274 -1.7183  0.1791
 1301TIP3    H225539   2.389   1.631   0.515  0.1238  0.7400  0.2600
 1302TIP3   OH225540   2.591   5.141   0.580 -0.1021  0.1598 -0.0686
 1302TIP3    H125541   2.634   5.215   0.537 -1.0432  0.1507 -1.0521
 1302TIP3    H225542   2.558   5.176   0.662 -0.0143  0.6691 -0.2503
 1303TIP3   OH225543   3.645   3.054   8.452  0.2400  0.2685 -0.0737
 1303TIP3    H125544   3.635   3.145   8.480  0.6964  0.7025 -1.2451
 1303TIP3    H225545   3.695   3.059   8.371 -2.8160 -0.7331 -2.2027
 1304TIP3   OH225546   0.870   2.051   1.109 -0.2772 -0.7364 -0.3992
 1304TIP3    H125547   0.796   2.009   1.151 -1.4299  0.8383 -0.7406
 1304TIP3    H225548   0.878   2.136   1.153 -1.5658  1.0081 -3.2547
 1305TIP3   OH225549   1.997   1.618   2.618  0.5684  0.5640 -0.1032
 1305TIP3    H125550   1.929   1.633   2.552  0.6365  1.0068 -0.0796
 1305TIP3    H225551   1.963   1.547   2.672 -0.1502  1.1781  0.2711
 1306TIP3   OH225552   0.373   0.496   8.378  0.0976 -0.4609  0.8843
 1306TIP3    H125553   0.468   0.487   8.375  0.0731 -1.5106  2.1637
 1306TIP3    H225554   0.356   0.541   8.461 -0.5400 -0.7375  0.9090
 1307TIP3   OH225555   3.917   3.386   2.373 -0.7747  0.4688  0.1627
 1307TIP3    H125556   3.847   3.332   2.337 -0.7039 -0.4100  1.3022
 1307TIP3    H225557   3.948   3.338   2.450  1.4733  0.5568 -0.6143
 1308TIP3   OH225558   4.211   0.047   8.544  0.6201  0.1067  0.1757
 1308TIP3    H125559   4.288   0.022   8.494  1.4081  0.3890  1.2140
 1308TIP3    H225560   4.196   0.139   8.521 -0.5700 -0.4627 -1.4701
 1309TIP3   OH225561   4.197   0.563   8.681 -0.1815  0.2880 -0.0147
 1309TIP3    H125562   4.202   0.627   8.752 -0.0558  1.4824 -1.0572
 1309TIP3    H225563   4.279   0.513   8.689 -0.0547  0.5710  0.5283
 1310TIP3   OH225564   0.807   5.920   1.616 -0.4589 -0.2459 -0.2037
 1310TIP3    H125565   0.792   5.912   1.710 -1.3913  0.0361 -0.3212
 1310TIP3    H225566   0.902   5.910   1.606 -0.3688 -0.4375  0.7445
 1311TIP3   OH225567   2.813   4.221   2.238  0.0312 -0.2360 -0.3801
 1311TIP3    H125568   2.848   4.293   2.186 -0.7231 -0.1241 -0.7485
 1311TIP3    H225569   2.812   4.146   2.179  0.1512 -0.3734 -0.2091
 1312TIP3   OH225570   2.498   0.011   8.189  0.2881  0.2467 -0.4963
 1312TIP3    H125571   2.442   0.015   8.267 -2.0845 -1.3315 -2.0059
 1312TIP3    H225572   2.583   0.041   8.220 -1.2500  2.5052  2.0020
 1313TIP3   OH225573   1.885   3.668   7.558  0.3930  0.0005  0.2471
 1313TIP3    H125574   1.921   3.707   7.478  2.2175  1.5401  1.7264
 1313TIP3    H225575   1.895   3.573   7.545  0.7972  0.2173 -1.2464
 1314TIP3   OH225576   4.916   2.557   7.790 -0.4291  0.0563 -0.0050
 1314TIP3    H125577   4.868   2.619   7.845  1.7220  0.2895  1.7685
 1314TIP3    H225578   4.927   2.479   7.845 -0.1411 -0.5878 -0.9457
 1315TIP3   OH225579   6.032   2.873   7.956  0.6013 -0.5601  0.4762
 1315TIP3    H125580   6.119   2.888   7.993  0.7982 -0.8694  0.1453
 1315TIP3    H225581   5.994   2.804   8.010  0.6288 -0.5449  0.5148
 1316TIP3   OH225582   6.577   3.901   8.423  0.1882 -0.1097 -0.4109
 1316TIP3    H125583   6.561   3.887   8.516  0.4548 -0.9944 -0.4942
 1316TIP3    H225584   6.574   3.814   8.384 -3.8042  0.4806 -1.8977
 1317TIP3   OH225585   4.291   6.109   8.226  0.4358 -0.3011 -0.1490
 1317TIP3    H125586   4.314   6.202   8.217  1.6427 -0.7552 -2.7325
 1317TIP3    H225587   4.220   6.096   8.163 -0.7058 -0.8843  1.2072
 1318TIP3   OH225588   3.403   4.029   0.182  0.1233  0.4064 -0.0655
 1318TIP3    H125589   3.495   4.020   0.208 -0.2507  0.8848  1.5299
 1318TIP3    H225590   3.388   3.954   0.124  1.8153  0.9790 -1.3576
 1319TIP3   OH225591   5.098   0.504   1.971 -0.3651  0.3869 -0.5339
 1319TIP3    H125592   5.035   0.470   1.907 -1.6152 -2.2067  1.8960
 1319TIP3    H225593   5.046   0.559   2.029  0.9435  3.5509 -2.1332
 1320TIP3   OH225594   0.599   3.772   8.181 -0.3418  0.5333 -0.1401
 1320TIP3    H125595   0.640   3.710   8.242  0.0799  2.4471  1.6569
 1320TIP3    H225596   0.524   3.806   8.229 -1.5269  0.2564 -1.7321
 1321TIP3   OH225597   3.750   2.941   7.849  0.1771 -0.2221 -0.2887
 1321TIP3    H125598   3.656   2.937   7.829  0.4038  0.6956 -1.6279
 1321TIP3    H225599   3.790   2.879   7.789  0.8840  2.6896 -3.0629
 1322TIP3   OH225600   0.959   3.026   2.803 -0.2717 -0.0191  0.5505
 1322TIP3    H125601   1.047   3.061   2.785 -1.0970  1.5122 -0.6819
 1322TIP3    H225602   0.976   2.938   2.838  1.7423  0.1198  0.0752
 1323TIP3   OH225603   3.061   0.809   0.303 -0.0281  0.0000 -0.9717
 1323TIP3    H125604   3.096   0.748   0.368  1.4520  1.2626 -0.5080
 1323TIP3    H225605   3.115   0.794   0.225 -0.4643 -0.1285 -1.2481
 1324TIP3   OH225606   5.030   3.315   8.355  0.1654 -0.1077 -0.2719
 1324TIP3    H125607   5.067   3.247   8.299  0.7770  0.1033 -0.1374
 1324TIP3    H225608   4.986   3.267   8.425  0.7979 -0.3721 -0.0443
 1325TIP3   OH225609   3.041   4.988   1.673 -0.3468 -0.0209 -0.0018
 1325TIP3    H125610   3.066   4.988   1.580 -0.2985 -0.7315  0.0124
 1325TIP3    H225611   3.102   5.050   1.713  1.0967 -1.3328 -0.0645
 1326TIP3   OH225612   4.585   1.549   0.275  0.3853 -0.0662  0.6431
 1326TIP3    H125613   4.568   1.600   0.354  0.7454 -1.2772  1.5229
 1326TIP3    H225614   4.671   1.580   0.244  2.0393 -2.0635  2.8273
 1327TIP3   OH225615   3.004   5.943   0.767 -0.2528 -0.1434 -0.3658
 1327TIP3    H125616   3.052   5.906   0.693  1.9411  0.6153  0.5846
 1327TIP3    H225617   3.022   5.883   0.840  0.1996  0.7370  0.2680
 1328TIP3   OH225618   4.702   0.746   1.438  0.1968  0.0461  0.4826
 1328TIP3    H125619   4.727   0.825   1.485 -0.6799  0.1753  0.7591
 1328TIP3    H225620   4.761   0.679   1.470  0.9865  0.5992  0.2009
 1329TIP3   OH225621   5.206   3.430   1.564 -0.1768 -0.5410 -0.4072
 1329TIP3    H125622   5.141   3.366   1.593  0.3561 -1.0673 -0.3501
 1329TIP3    H225623   5.164   3.476   1.492 -0.7985 -0.5334 -0.0405
 1330TIP3   OH225624   1.617   4.835   8.276 -0.6671  0.4345  0.3871
 1330TIP3    H125625   1.585   4.815   8.364 -0.9570  0.6486  0.3344
 1330TIP3    H225626   1.577   4.920   8.256 -1.8191 -0.3202 -0.5548
 1331TIP3   OH225627   0.957   6.036   8.149  0.2921 -0.0695  0.1366
 1331TIP3    H125628   1.020   5.995   8.207  0.5642  0.7625  0.4422
 1331TIP3    H225629   0.873   6.025   8.193  0.5500  0.9232  0.9165
 1332TIP3   OH225630   4.505   0.632   1.983  0.3409  0.4265 -0.2233
 1332TIP3    H125631   4.438   0.566   1.965 -0.7772  1.5950 -0.5235
 1332TIP3    H225632   4.570   0.586   2.035  1.4911 -1.9230 -3.4253
 1333TIP3   OH225633   0.111   1.716   0.980 -0.4122  0.0768 -0.3200
 1333TIP3    H125634   0.109   1.729   1.075  1.8994 -1.0408 -0.0395
 1333TIP3    H225635   0.065   1.633   0.967  0.1233 -0.2753 -0.0318
 1334TIP3   OH225636   0.547   4.516   2.612  0.0257  0.4161 -0.3230
 1334TIP3    H125637   0.531   4.584   2.678 -0.8717 -0.3105  0.2430
 1334TIP3    H225638   0.608   4.455   2.654  1.7951  1.4622 -1.2730
 1335TIP3   OH225639   4.253   0.433   7.717 -0.5875  0.4523  0.6958
 1335TIP3    H125640   4.301   0.357   7.682 -3.2498 -1.7145  1.3674
 1335TIP3    H225641   4.252   0.418   7.812 -1.8603  0.8608  0.7617
 1336TIP3   OH225642   1.545   1.291   7.779  0.0886 -0.3911 -0.1173
 1336TIP3    H125643   1.581   1.243   7.705 -0.6256 -2.7978  0.9939
 1336TIP3    H225644   1.622   1.314   7.832  0.5914  1.2527 -1.4557
 1337TIP3   OH225645   5.190   0.409   8.664  0.3394  0.2073  0.3370
 1337TIP3    H125646   5.206   0.460   8.743 -0.3792 -0.5186  0.9723
 1337TIP3    H225647   5.241   0.329   8.677  1.3666  0.6918 -0.5951
 1338TIP3   OH225648   4.325   5.151   0.576  0.2723  0.1071  0.0021
 1338TIP3    H125649   4.352   5.062   0.598  0.6189  0.5398  1.4495
 1338TIP3    H225650   4.237   5.159   0.613  0.6786  0.7064  0.8677
 1339TIP3   OH225651   6.571   6.832   2.440 -0.0421 -0.4185 -0.2660
 1339TIP3    H125652   6.487   6.789   2.424  0.3232 -0.5276 -2.1730
 1339TIP3    H225653   6.636   6.772   2.403  0.7355  0.4164 -0.2913
 1340TIP3   OH225654   4.181   6.823   0.914 -0.3239 -0.0794  0.2547
 1340TIP3    H125655   4.147   6.744   0.957  0.7175 -0.9074 -0.4064
 1340TIP3    H225656   4.119   6.892   0.939 -2.3436 -1.4550 -0.6769
 1341TIP3   OH225657   3.986   4.963   2.119 -0.3357  0.3822 -0.4213
 1341TIP3    H125658   3.963   5.044   2.074  3.5631  2.8255  1.4598
 1341TIP3    H225659   4.050   4.921   2.061  1.2372  1.1945  0.6649
 1342TIP3   OH225660   6.696   3.351   0.369 -0.3394  0.0332 -0.4559
 1342TIP3    H125661   6.670   3.338   0.460 -2.5075 -1.0740 -1.1822
 1342TIP3    H225662   6.706   3.446   0.360 -3.0579  0.4730  0.2421
 1343TIP3   OH225663   1.932   3.288   7.583  0.4334  0.5690  0.2517
 1343TIP3    H125664   2.023   3.301   7.555  0.3386  0.7308  0.0096
 1343TIP3    H225665   1.939   3.237   7.663  0.7262  0.3452  0.0893
 1344TIP3   OH225666   6.144   5.860   2.033 -0.2037  0.5143 -0.2783
 1344TIP3    H125667   6.102   5.896   1.954  2.1116 -1.1097 -2.4331
 1344TIP3    H225668   6.189   5.935   2.072  0.4698  0.9733 -1.8507
 1345TIP3   OH225669   5.550   0.571   7.856 -0.2049 -0.1133  0.8399
 1345TIP3    H125670   5.632   0.549   7.899 -0.2631  0.1178  1.0712
 1345TIP3    H225671   5.483   0.533   7.912 -0.2310 -0.9093  0.2861
 1346TIP3   OH225672   5.973   6.554   1.184  0.6142  0.3203 -0.2048
 1346TIP3    H125673   6.059   6.516   1.203  1.0351  0.8169 -1.0410
 1346TIP3    H225674   5.911   6.498   1.231  1.5060  1.0704  2.0012
 1347TIP3   OH225675   5.841   2.559   0.566  0.0017  0.5534  0.2914
 1347TIP3    H125676   5.923   2.516   0.538  0.2338  1.6515 -0.8015
 1347TIP3    H225677   5.866   2.613   0.640  0.2049  0.6462  0.1565
 1348TIP3   OH225678   5.276   4.033   1.177 -0.5331  0.0792 -0.5105
 1348TIP3    H125679   5.314   3.946   1.161 -0.4487  0.4516 -2.5418
 1348TIP3    H225680   5.347   4.083   1.218  1.0964  0.5599 -3.6293
 1349TIP3   OH225681   6.777   6.805   3.199  0.3603  0.1314  0.1287
 1349TIP3    H125682   6.837   6.843   3.263  1.0325  1.0753 -1.0066
 1349TIP3    H225683   6.713   6.875   3.182  0.0226 -0.2082 -0.0107
 1350TIP3   OH225684   6.702   5.751   1.615 -0.4733 -0.0242 -0.2221
 1350TIP3    H125685   6.678   5.763   1.707 -0.2547 -1.7992  0.1044
 1350TIP3    H225686   6.619   5.737   1.570 -0.4646 -1.0070  0.0398
 1351TIP3   OH225687   5.871   0.086   1.657  0.2205 -0.2515 -0.2244
 1351TIP3    H125688   5.797   0.102   1.599 -0.2449 -2.8579 -0.4786
 1351TIP3    H225689   5.914   0.009   1.620  2.2249  0.3039  0.7533
 1352TIP3   OH225690   2.633   1.480   7.493 -0.4471 -0.1167  0.0903
 1352TIP3    H125691   2.625   1.561   7.543 -1.4469 -0.2036  0.0918
 1352TIP3    H225692   2.610   1.505   7.403 -1.2813 -0.4882  0.1872
 1353TIP3   OH225693   6.708   4.469   8.344 -0.0859 -0.7270 -0.4963
 1353TIP3    H125694   6.662   4.523   8.408  0.9360 -0.3115 -0.0896
 1353TIP3    H225695   6.772   4.420   8.395 -1.2511 -2.6652 -0.8010
 1354TIP3   OH225696   2.061   3.319   7.967 -0.3563  0.2760  0.1648
 1354TIP3    H125697   2.099   3.381   7.905 -0.5225 -1.3865 -1.6769
 1354TIP3    H225698   1.991   3.276   7.918 -0.5080 -1.0982  1.5268
 1355TIP3   OH225699   5.585   6.631   2.014  0.6505  0.0830  0.1396
 1355TIP3    H125700   5.628   6.550   1.988 -0.6334 -0.4356 -0.4559
 1355TIP3    H225701   5.497   6.604   2.041  0.5287  1.1617  0.8803
 1356TIP3   OH225702   2.249   2.764   8.222 -0.1468  0.2189  0.6307
 1356TIP3    H125703   2.276   2.846   8.263  0.0537  0.2871  0.3652
 1356TIP3    H225704   2.157   2.754   8.248 -0.9108  1.7268 -1.2045
 1357TIP3   OH225705   4.923   5.059   8.392 -0.0111 -0.2498  0.2839
 1357TIP3    H125706   4.969   5.063   8.476  1.4549 -1.2312 -0.4289
 1357TIP3    H225707   4.861   4.987   8.401 -0.7886  0.4842  0.9425
 1358TIP3   OH225708   0.287   1.029   1.046 -0.0488 -0.0295  0.0591
 1358TIP3    H125709   0.381   1.037   1.030  0.0374  0.2171  0.6445
 1358TIP3    H225710   0.246   1.055   0.964  0.4003 -0.3427 -0.2662
 1359TIP3   OH225711   0.935   0.118   2.769 -0.3330 -1.1391  0.1674
 1359TIP3    H125712   0.900   0.203   2.795  1.9374 -0.2423  0.5366
 1359TIP3    H225713   0.984   0.088   2.845  2.2796 -0.8064 -1.2629
 1360TIP3   OH225714   0.608   3.667   7.414  0.6155 -0.0087  0.3715
 1360TIP3    H125715   0.573   3.706   7.495  2.5418  1.8205  0.3988
 1360TIP3    H225716   0.532   3.665   7.355 -0.2697  0.9976  1.4028
 1361TIP3   OH225717   2.730   3.879   7.824  0.2940  0.8283 -0.0370
 1361TIP3    H125718   2.693   3.803   7.779  0.4448  0.6014  0.2227
 1361TIP3    H225719   2.656   3.919   7.870  0.5833 -0.3379  1.5047
 1362TIP3   OH225720   6.383   0.525   8.604 -0.0161 -0.0026 -0.4869
 1362TIP3    H125721   6.373   0.493   8.694 -1.9206 -0.8671 -0.9700
 1362TIP3    H225722   6.298   0.561   8.581  0.6391  0.8197 -1.7453
 1363TIP3   OH225723   2.065   1.575   2.108  0.4111  0.0572 -0.0008
 1363TIP3    H125724   2.153   1.543   2.089  1.5838  2.4752  0.8988
 1363TIP3    H225725   2.047   1.638   2.038 -0.1888  0.2638  0.3326
 1364TIP3   OH225726   5.216   4.953   8.530  0.2429  0.2825 -0.1627
 1364TIP3    H125727   5.214   4.992   8.442 -0.6228  1.3270  0.2992
 1364TIP3    H225728   5.158   5.009   8.582 -0.6794 -1.3657  0.6470
 1365TIP3   OH225729   6.764   0.304   7.952  0.0670  0.1545 -0.5429
 1365TIP3    H125730   6.854   0.279   7.972 -0.7955 -4.2598 -1.0478
 1365TIP3    H225731   6.773   0.375   7.889  3.2924 -0.9392 -1.5430
 1366TIP3   OH225732   3.815   4.921   0.946  0.0393 -0.1189  0.5809
 1366TIP3    H125733   3.762   4.990   0.907  0.4131 -1.3883 -2.4651
 1366TIP3    H225734   3.901   4.962   0.959 -0.0330  0.3062 -0.1995
 1367TIP3   OH225735   1.397   5.661   8.316  0.3509 -0.4966 -0.1550
 1367TIP3    H125736   1.355   5.704   8.242 -1.1343 -1.8098 -0.1053
 1367TIP3    H225737   1.481   5.707   8.325  0.4482 -0.1059 -2.4442
 1368TIP3   OH225738   4.601   2.060   0.909 -0.0659  0.3146 -0.3503
 1368TIP3    H125739   4.635   2.102   0.988 -0.1262 -0.5321  0.1372
 1368TIP3    H225740   4.625   1.968   0.918 -1.1621 -0.0255 -0.7143
 1369TIP3   OH225741   4.836   5.714   0.228  0.1023  0.6616 -0.4192
 1369TIP3    H125742   4.806   5.705   0.319 -1.7092  0.4308 -0.9913
 1369TIP3    H225743   4.881   5.798   0.226 -0.4827  1.0206  0.5367
 1370TIP3   OH225744   1.241   4.915   1.539 -0.2217  0.7969 -0.3523
 1370TIP3    H125745   1.244   4.966   1.458  0.1114 -0.4038 -1.1096
 1370TIP3    H225746   1.324   4.936   1.583  1.8610 -2.0885 -2.5746
 1371TIP3   OH225747   0.326   5.818   7.681  0.1848 -0.1545 -0.4645
 1371TIP3    H125748   0.390   5.886   7.699  0.8713 -1.2265  1.4374
 1371TIP3    H225749   0.247   5.846   7.727  0.5192 -0.7014  0.4590
 1372TIP3   OH225750   6.287   3.545   1.010  0.2409 -0.4838  0.5951
 1372TIP3    H125751   6.248   3.632   0.997 -1.5726 -1.3812 -0.4765
 1372TIP3    H225752   6.351   3.537   0.940  0.8194  0.1696  1.0275
 1373TIP3   OH225753   6.218   1.059   1.854  0.0693 -0.1334  0.2136
 1373TIP3    H125754   6.196   0.973   1.817 -0.3148  0.2981 -0.5968
 1373TIP3    H225755   6.313   1.061   1.855  0.1317  0.2609 -1.8603
 1374TIP3   OH225756   4.939   4.389   8.003 -0.0521 -0.4245  0.5333
 1374TIP3    H125757   5.032   4.410   8.014 -0.0567 -0.7058  1.1087
 1374TIP3    H225758   4.931   4.365   7.911  0.2247  0.7106  0.1895
 1375TIP3   OH225759   3.814   1.817   8.288  0.0775  0.2005 -0.0457
 1375TIP3    H125760   3.786   1.850   8.203 -1.6809 -1.7366 -0.3003
 1375TIP3    H225761   3.907   1.842   8.293 -0.3855  2.5133 -1.3926
 1376TIP3   OH225762   5.469   4.207   1.504 -1.0516 -0.8070  0.3554
 1376TIP3    H125763   5.474   4.148   1.579 -3.2765  0.5638  1.7063
 1376TIP3    H225764   5.519   4.163   1.435 -0.3897 -2.9462  2.0895
 1377TIP3   OH225765   2.202   2.883   1.416  0.5218 -0.3489  0.1074
 1377TIP3    H125766   2.252   2.948   1.466 -0.3147 -0.1548  0.7184
 1377TIP3    H225767   2.248   2.801   1.431  1.6446  0.0827 -0.7405
 1378TIP3   OH225768   2.960   5.574   8.522 -0.4868  0.3094 -0.0375
 1378TIP3    H125769   2.935   5.667   8.521 -1.8475 -0.0419 -0.4325
 1378TIP3    H225770   3.009   5.562   8.440  2.0599  1.2454  1.2359
 1379TIP3   OH225771   1.134   5.741   1.686  0.1820  0.0330 -0.1467
 1379TIP3    H125772   1.161   5.823   1.646  0.2769  0.2911  0.4510
 1379TIP3    H225773   1.209   5.682   1.675  1.1330  0.8268  1.7550
 1380TIP3   OH225774   4.262   5.030   2.323 -0.4408 -0.5360 -0.2339
 1380TIP3    H125775   4.219   5.027   2.408  1.5121 -0.1909  0.7978
 1380TIP3    H225776   4.277   5.123   2.306 -0.5419 -0.6221 -0.8367
 1381TIP3   OH225777   3.781   5.854   0.856 -0.6837 -0.0535 -0.1351
 1381TIP3    H125778   3.766   5.773   0.904 -1.3593 -0.1711 -0.5406
 1381TIP3    H225779   3.876   5.867   0.860 -0.7595  0.2751  1.7712
 1382TIP3   OH225780   4.773   0.156   2.663  0.3343 -0.1122  0.3169
 1382TIP3    H125781   4.758   0.063   2.681  0.8116 -0.2155  0.1938
 1382TIP3    H225782   4.847   0.180   2.719 -0.2912  0.3972  0.9394
 1383TIP3   OH225783   3.841   2.525   7.923 -0.5462  0.4544 -0.7820
 1383TIP3    H125784   3.824   2.436   7.892 -0.8007  0.9644 -2.1816
 1383TIP3    H225785   3.916   2.555   7.871  0.5645  0.5216  0.7913
 1384TIP3   OH225786   0.698   1.700   1.403  0.1826  0.3899  0.3210
 1384TIP3    H125787   0.684   1.780   1.453  1.5522 -0.6948  2.6274
 1384TIP3    H225788   0.794   1.691   1.398  0.1559  0.6565 -3.0073
 1385TIP3   OH225789   2.490   0.710   0.812  0.0144 -0.0074 -0.4994
 1385TIP3    H125790   2.489   0.766   0.734 -0.5827  0.1208 -0.4026
 1385TIP3    H225791   2.550   0.639   0.789 -0.0021  0.1363 -1.0019
 1386TIP3   OH225792   1.656   0.580   7.636 -0.2664  0.1066 -0.7083
 1386TIP3    H125793   1.569   0.558   7.671  0.1589 -1.3702 -0.5245
 1386TIP3    H225794   1.641   0.659   7.583 -1.7183 -0.1058 -0.6525
 1387TIP3   OH225795   5.056   1.431   1.843  0.3355 -0.4545  0.2876
 1387TIP3    H125796   5.121   1.439   1.773  1.2600  0.1769  1.1669
 1387TIP3    H225797   5.089   1.489   1.912 -0.4159 -1.2263  1.3339
 1388TIP3   OH225798   1.287   5.376   7.254  0.2803  0.2392 -0.2500
 1388TIP3    H125799   1.226   5.307   7.227 -0.4836  0.4580  0.8654
 1388TIP3    H225800   1.334   5.339   7.328  0.0549  0.8070  0.1837
 1389TIP3   OH225801   3.242   1.180   0.044  0.4018  0.1091 -0.2939
 1389TIP3    H125802   3.164   1.164  -0.009  1.5290 -1.5005 -1.5818
 1389TIP3    H225803   3.265   1.094   0.079  0.8743  0.7956  1.1540
 1390TIP3   OH225804   6.673   5.467   0.566  0.3406  0.1662 -0.2447
 1390TIP3    H125805   6.754   5.456   0.516  0.8807 -2.1872  0.9932
 1390TIP3    H225806   6.700   5.510   0.647  0.4157 -0.7367  0.2253
 1391TIP3   OH225807   2.458   2.312   2.880 -0.0963 -0.3008 -0.0172
 1391TIP3    H125808   2.523   2.340   2.946 -0.8897  0.7793  0.3349
 1391TIP3    H225809   2.464   2.217   2.880  1.3183 -0.2341  0.1891
 1392TIP3   OH225810   0.696   0.212   2.426  0.2940 -0.4721 -0.0497
 1392TIP3    H125811   0.631   0.149   2.395  0.3715 -0.2989 -0.5831
 1392TIP3    H225812   0.654   0.255   2.500 -0.4638  0.0749 -0.7736
 1393TIP3   OH225813   2.484   1.678   7.939  0.8002 -0.4634 -0.3553
 1393TIP3    H125814   2.434   1.685   7.858 -0.2132  0.2919  0.3095
 1393TIP3    H225815   2.573   1.702   7.915  0.7516 -1.3083 -1.4590
 1394TIP3   OH225816   3.181   2.857   1.819  0.4575 -0.0241  0.5895
 1394TIP3    H125817   3.094   2.878   1.854 -0.9994 -0.6037 -2.4168
 1394TIP3    H225818   3.232   2.937   1.835 -1.0890  0.9432  0.9716
 1395TIP3   OH225819   6.102   5.237   1.380  0.0079 -0.2838 -0.1702
 1395TIP3    H125820   6.159   5.171   1.340 -1.1708 -1.2026 -0.3543
 1395TIP3    H225821   6.046   5.188   1.440 -1.8330  0.3282 -1.3352
 1396TIP3   OH225822   4.195   6.392   7.539 -0.5867 -0.5426  0.5456
 1396TIP3    H125823   4.246   6.367   7.616 -1.0515 -3.6831  0.0016
 1396TIP3    H225824   4.246   6.358   7.465 -0.9078  1.0420 -0.4577
 1397TIP3   OH225825   5.008   2.363   2.924 -0.2138 -0.1693 -0.3558
 1397TIP3    H125826   4.927   2.332   2.883 -0.0981  0.4382 -1.0667
 1397TIP3    H225827   4.979   2.413   3.000 -0.3908 -2.4736  1.1975
 1398TIP3   OH225828   2.075   4.392   0.766  0.3600 -0.7695 -0.1452
 1398TIP3    H125829   2.111   4.473   0.803 -1.7775 -0.9048  2.5197
 1398TIP3    H225830   2.138   4.325   0.792  1.0259 -0.2725 -0.4331
 1399TIP3   OH225831   2.966   2.940   8.059  0.6890  0.0424 -0.3945
 1399TIP3    H125832   2.958   2.852   8.022  0.4096  0.0515 -0.3626
 1399TIP3    H225833   3.058   2.947   8.085  0.4528 -0.7123  0.7376
 1400TIP3   OH225834   2.805   2.694   0.405 -0.6144 -0.3456 -0.2419
 1400TIP3    H125835   2.769   2.665   0.489  1.8745  0.0047  1.0450
 1400TIP3    H225836   2.834   2.614   0.362 -0.2164 -0.3970  0.1066
 1401TIP3   OH225837   2.113   1.835   0.630 -0.1737  0.4267 -0.3939
 1401TIP3    H125838   2.125   1.930   0.630 -0.0763  0.4143 -0.2582
 1401TIP3    H225839   2.199   1.799   0.606  0.0165  0.3456  0.3993
 1402TIP3   OH225840   5.750   1.628   8.376  0.6291  0.0137 -0.2632
 1402TIP3    H125841   5.822   1.594   8.428  0.0631  0.0072  0.5363
 1402TIP3    H225842   5.699   1.551   8.351  0.6854  0.0526 -0.4983
 1403TIP3   OH225843   4.167   5.281   0.853  0.5568 -0.3189  0.2835
 1403TIP3    H125844   4.153   5.267   0.759 -1.0574 -1.2157  0.6238
 1403TIP3    H225845   4.111   5.356   0.874  1.7999  0.6166  0.3257
 1404TIP3   OH225846   0.384   5.773   0.996  0.6058  0.3238  0.6567
 1404TIP3    H125847   0.293   5.746   0.999  0.3953  0.8045 -0.6346
 1404TIP3    H225848   0.407   5.792   1.087 -0.6490  0.4543  0.9612
 1405TIP3   OH225849   6.527   4.918   7.749 -0.0775 -0.0051  0.0348
 1405TIP3    H125850   6.586   4.860   7.700 -1.1600 -0.6154 -0.6203
 1405TIP3    H225851   6.451   4.928   7.690 -0.6698  0.6368  0.8937
 1406TIP3   OH225852   6.787   0.339   2.080 -0.3372 -0.4970  0.0499
 1406TIP3    H125853   6.849   0.327   2.151 -0.0066 -2.7710 -0.5243
 1406TIP3    H225854   6.815   0.418   2.035  1.6302 -0.9916  0.3376
 1407TIP3   OH225855   1.920   0.910   2.089  0.4083  0.1064 -0.3575
 1407TIP3    H125856   1.946   0.945   2.174 -0.4930  0.2630 -0.1387
 1407TIP3    H225857   1.827   0.930   2.082  0.7894  1.4883 -2.0542
 1408TIP3   OH225858   5.260   4.642   8.719 -0.0879  0.9805  0.0703
 1408TIP3    H125859   5.280   4.554   8.753 -0.1681  0.9561  0.0545
 1408TIP3    H225860   5.260   4.631   8.624 -2.9285  0.3506  0.0665
 1409TIP3   OH225861   3.251   5.781   1.490 -0.2785  0.6129  0.5907
 1409TIP3    H125862   3.228   5.814   1.577 -4.5282  1.7775 -0.6974
 1409TIP3    H225863   3.334   5.823   1.469  0.6273  0.6772  3.8128
 1410TIP3   OH225864   0.200   5.312   2.247  0.1920 -0.1477  0.0622
 1410TIP3    H125865   0.165   5.367   2.318 -1.2276  0.8737 -1.3210
 1410TIP3    H225866   0.134   5.243   2.236  0.1180  0.0178 -0.5850
 1411TIP3   OH225867   5.176   6.162   8.737  0.1222  0.0342 -0.4511
 1411TIP3    H125868   5.152   6.182   8.827 -1.9046 -0.1839 -0.8967
 1411TIP3    H225869   5.163   6.244   8.690  1.7492  0.3110 -0.4800
 1412TIP3   OH225870   3.465   2.377   2.461  0.7607 -0.0223 -0.4312
 1412TIP3    H125871   3.532   2.316   2.492  1.0276  0.0930 -0.7718
 1412TIP3    H225872   3.395   2.371   2.526  2.1943  1.8101  1.4167
 1413TIP3   OH225873   3.684   6.186   0.207  0.6163 -0.3658 -0.0841
 1413TIP3    H125874   3.701   6.111   0.150  1.0389 -0.2155 -0.1609
 1413TIP3    H225875   3.596   6.216   0.183  0.6972 -0.4517 -0.4913
 1414TIP3   OH225876   4.474   1.223   1.527  0.3546 -0.2445 -0.0846
 1414TIP3    H125877   4.549   1.166   1.512  0.1539 -0.3123 -0.8735
 1414TIP3    H225878   4.444   1.201   1.615  1.5628  0.1470  0.4395
 1415TIP3   OH225879   6.350   1.114   2.618  0.9959 -0.1834  0.0831
 1415TIP3    H125880   6.376   1.167   2.542 -0.7449  1.5488  0.6130
 1415TIP3    H225881   6.280   1.164   2.659 -1.8449 -3.5928 -0.1431
 1416TIP3   OH225882   0.496   6.053   2.384  0.3208  0.7006 -0.4272
 1416TIP3    H125883   0.585   6.076   2.409 -0.0239  2.4295 -0.6731
 1416TIP3    H225884   0.500   6.037   2.290  0.6862 -1.0126 -0.1517
 1417TIP3   OH225885   5.075   6.237   2.704  0.0073 -0.2217 -0.1248
 1417TIP3    H125886   5.053   6.304   2.639  0.2745 -0.1244 -0.1125
 1417TIP3    H225887   5.014   6.165   2.684  1.8639 -1.3234 -2.2757
 1418TIP3   OH225888   1.079   6.400   2.349 -0.2800 -0.2188 -0.6193
 1418TIP3    H125889   1.143   6.401   2.278 -0.5666 -1.1064 -0.9057
 1418TIP3    H225890   1.027   6.479   2.336 -0.0007 -0.1116 -1.0884
 1419TIP3   OH225891   3.890   1.581   0.771  0.4048 -0.9757  0.1672
 1419TIP3    H125892   3.912   1.489   0.755  0.1499 -1.0982  0.5028
 1419TIP3    H225893   3.819   1.599   0.709 -0.3058 -1.3345  0.8417
 1420TIP3   OH225894   5.782   0.401   1.614 -0.0876 -0.4563 -0.0151
 1420TIP3    H125895   5.843   0.424   1.683 -0.1977  1.7247 -0.5590
 1420TIP3    H225896   5.759   0.485   1.573 -1.6421 -1.4491 -1.3286
 1421TIP3   OH225897   0.203   0.654   0.329 -0.2778  0.4323 -0.1358
 1421TIP3    H125898   0.247   0.696   0.255  2.1077  1.9137  1.9864
 1421TIP3    H225899   0.219   0.560   0.317  3.7543  0.8748  0.5550
 1422TIP3   OH225900   4.881   5.455   8.391 -0.4127  0.7435 -0.0965
 1422TIP3    H125901   4.892   5.506   8.471  0.5707  1.0663 -0.4217
 1422TIP3    H225902   4.871   5.520   8.322 -2.7975  0.4787 -0.0980
 1423TIP3   OH225903   4.586   6.704   7.589  0.0283  0.2030 -0.1709
 1423TIP3    H125904   4.641   6.711   7.511 -0.6477 -1.6072 -0.8518
 1423TIP3    H225905   4.611   6.621   7.629 -1.1968  0.0394  0.3002
 1424TIP3   OH225906   1.560   4.268   0.853  0.7300 -0.0136  0.3069
 1424TIP3    H125907   1.625   4.321   0.808 -0.7575  1.6521 -0.0107
 1424TIP3    H225908   1.506   4.231   0.783  0.0565  0.3737  0.6064
 1425TIP3   OH225909   6.480   0.015   6.804  0.0973  0.5498  0.6119
 1425TIP3    H125910   6.556   0.003   6.862 -0.0544  0.6939  0.8446
 1425TIP3    H225911   6.459  -0.073   6.772 -0.0389  0.4190  1.0585
 1426TIP3   OH225912   3.139   1.435   8.074 -0.2202 -0.0897 -0.3678
 1426TIP3    H125913   3.139   1.392   7.988  0.3109  0.6705 -0.7659
 1426TIP3    H225914   3.184   1.373   8.131  0.0567 -0.3079 -0.8111
 1427TIP3   OH225915   4.705   5.678   8.581 -0.7904 -0.1233 -1.3454
 1427TIP3    H125916   4.792   5.661   8.619 -0.5297 -1.4152 -2.4418
 1427TIP3    H225917   4.688   5.770   8.601  0.3587 -0.1231 -0.1824
 1428TIP3   OH225918   5.355   2.729   7.444 -0.2861  0.7524 -0.7244
 1428TIP3    H125919   5.350   2.808   7.390 -1.1792  2.0994  1.1838
 1428TIP3    H225920   5.264   2.706   7.461 -0.0389 -0.8548 -1.4207
 1429TIP3   OH225921   6.072   6.362   0.915  0.3460 -0.4496  0.3284
 1429TIP3    H125922   6.077   6.419   0.991  0.5884  1.9325 -1.3802
 1429TIP3    H225923   6.009   6.294   0.941  0.6737  0.0674  2.7335
 1430TIP3   OH225924   3.774   4.454   8.046  0.3256  0.2172 -0.0459
 1430TIP3    H125925   3.687   4.492   8.037 -0.3918 -1.4802 -0.4700
 1430TIP3    H225926   3.801   4.477   8.136 -0.1862  1.4460 -0.1865
 1431TIP3   OH225927   2.785   5.387   0.921 -0.4184  0.1110  0.2774
 1431TIP3    H125928   2.750   5.364   0.835 -0.3830 -0.1046  0.3215
 1431TIP3    H225929   2.842   5.314   0.944  1.4887  1.2397 -0.5878
 1432TIP3   OH225930   0.446   3.208   3.009  0.3192  0.2914 -0.3023
 1432TIP3    H125931   0.506   3.282   3.021 -0.9686  1.1135  1.4719
 1432TIP3    H225932   0.359   3.245   3.021 -0.4755 -1.2091 -1.1138
 1433TIP3   OH225933   3.465   2.288   7.567  0.2307  0.1297  0.3862
 1433TIP3    H125934   3.391   2.252   7.519 -1.3407  3.2037  0.2150
 1433TIP3    H225935   3.524   2.321   7.499 -0.8743  2.3707  0.3988
 1434TIP3   OH225936   5.584   4.650   7.303 -0.1880 -0.4868  0.0088
 1434TIP3    H125937   5.582   4.617   7.214 -1.1707  2.6791 -1.2948
 1434TIP3    H225938   5.675   4.674   7.318 -0.4594  1.6713 -1.3621
 1435TIP3   OH225939   3.038   6.372   3.044  0.2496  0.0266 -0.1226
 1435TIP3    H125940   2.999   6.449   3.087  1.5247  0.5157  0.2053
 1435TIP3    H225941   3.115   6.351   3.097 -0.5287 -2.0256  0.2924
 1436TIP3   OH225942   5.966   5.389   7.922  0.4836 -0.2094  0.4037
 1436TIP3    H125943   6.044   5.375   7.870  0.1446 -3.3540  0.5366
 1436TIP3    H225944   5.998   5.402   8.011  0.8797  0.4078  0.1798
 1437TIP3   OH225945   2.261   1.874   7.286  0.1882 -0.1227 -0.4276
 1437TIP3    H125946   2.315   1.953   7.295 -0.1054  0.0481 -0.1353
 1437TIP3    H225947   2.198   1.896   7.217 -0.1345  0.0371 -0.0836
 1438TIP3   OH225948   1.478   3.442   7.908  0.2476 -0.2438 -0.6266
 1438TIP3    H125949   1.410   3.395   7.860  0.6069 -0.3790 -0.9998
 1438TIP3    H225950   1.558   3.427   7.858  0.6027 -0.2914 -0.0530
 1439TIP3   OH225951   5.577   6.663   8.041  0.6811 -0.2158  0.5673
 1439TIP3    H125952   5.534   6.621   7.967 -0.5597  0.5145  0.8547
 1439TIP3    H225953   5.654   6.607   8.059  0.4211 -0.9714 -0.5899
 1440TIP3   OH225954   6.742   2.902   0.833  0.5446 -0.4747  0.1467
 1440TIP3    H125955   6.685   2.825   0.830  1.4716 -1.1952  0.8526
 1440TIP3    H225956   6.786   2.903   0.747 -1.5157  0.9005 -0.9949
 1441TIP3   OH225957   3.859   6.125   8.123  0.1423  0.7564  0.7789
 1441TIP3    H125958   3.908   6.163   8.051  1.3511  2.6611  2.5089
 1441TIP3    H225959   3.919   6.062   8.163  0.0269  0.8004  1.0248
 1442TIP3   OH225960   2.644   6.337   2.396 -0.0823 -0.2963 -0.2952
 1442TIP3    H125961   2.628   6.427   2.368  3.0566  0.4191 -0.0839
 1442TIP3    H225962   2.733   6.337   2.432 -0.1469 -3.3827  0.2113
 1443TIP3   OH225963   4.514   1.676   1.761 -0.3008 -0.0681  0.2437
 1443TIP3    H125964   4.458   1.620   1.815 -0.3130  0.5168  0.8642
 1443TIP3    H225965   4.590   1.694   1.817 -0.6281  1.1036  0.3320
 1444TIP3   OH225966   2.247   1.694   0.250  0.1010 -0.1697  0.5592
 1444TIP3    H125967   2.266   1.785   0.270  1.0836  0.0993 -1.3942
 1444TIP3    H225968   2.163   1.696   0.204 -0.2318 -0.3529  1.1421
 1445TIP3   OH225969   1.542   1.977   8.550 -0.3867  0.2489  0.1829
 1445TIP3    H125970   1.492   2.048   8.510 -1.3127  0.9779  2.4820
 1445TIP3    H225971   1.558   2.006   8.639 -0.5374 -2.3010  1.1255
 1446TIP3   OH225972   4.322   4.789   1.242  0.5788 -0.2810 -0.3386
 1446TIP3    H125973   4.316   4.755   1.332 -0.2672  0.5868 -0.0518
 1446TIP3    H225974   4.258   4.737   1.193  0.2300  0.0071 -0.1900
 1447TIP3   OH225975   5.241   1.809   1.546 -0.4086 -0.4900 -0.5335
 1447TIP3    H125976   5.238   1.890   1.495  1.0540  0.5463  0.9266
 1447TIP3    H225977   5.157   1.766   1.527 -1.2347  1.3497 -1.3392
 1448TIP3   OH225978   2.521   1.544   1.242  0.1693  0.0891 -0.1683
 1448TIP3    H125979   2.490   1.453   1.245 -0.4974  0.2184 -1.8562
 1448TIP3    H225980   2.456   1.593   1.293 -0.0161 -0.2453 -0.0766
 1449TIP3   OH225981   2.011   4.065   8.290 -0.4078  0.0750  0.0772
 1449TIP3    H125982   2.090   4.041   8.339  0.5269  3.1593  0.2596
 1449TIP3    H225983   1.945   4.080   8.358 -0.4747 -0.2214  0.0782
 1450TIP3   OH225984   5.547   4.331   2.630  0.0979 -1.0468 -0.3425
 1450TIP3    H125985   5.453   4.331   2.648 -0.3476  1.6762 -2.0386
 1450TIP3    H225986   5.587   4.363   2.711 -0.8310  1.0105 -0.6284
 1451TIP3   OH225987   2.559   6.565   8.074  0.2265  0.0415 -0.3952
 1451TIP3    H125988   2.478   6.614   8.062  0.1159  0.0608  0.3798
 1451TIP3    H225989   2.611   6.584   7.996  0.5797  2.1324  0.3039
 1452TIP3   OH225990   6.093   4.830   8.214  0.1616 -0.3002 -0.8916
 1452TIP3    H125991   6.086   4.856   8.306  2.2076 -0.5491 -0.6091
 1452TIP3    H225992   6.007   4.795   8.192 -0.4305 -0.0551  0.8622
 1453TIP3   OH225993   0.215   0.931   2.646 -0.0645  0.4312 -0.2170
 1453TIP3    H125994   0.230   1.023   2.623  0.7405  0.0813 -1.1615
 1453TIP3    H225995   0.123   0.928   2.672  0.0643  1.6303  0.4903
 1454TIP3   OH225996   2.138   3.188   0.222  0.0184  0.2812  0.4587
 1454TIP3    H125997   2.087   3.110   0.245  0.4708 -0.2347 -0.2456
 1454TIP3    H225998   2.177   3.167   0.137  1.0128  0.8488  0.7601
 1455TIP3   OH225999   5.293   6.659   8.393  0.1796  0.0448  0.3052
 1455TIP3    H126000   5.255   6.629   8.311  0.4298  0.2738  0.1014
 1455TIP3    H226001   5.218   6.680   8.449 -0.0617 -2.3844  1.0131
 1456TIP3   OH226002   1.244   1.721   8.352 -0.6406  0.4200 -0.2923
 1456TIP3    H126003   1.195   1.774   8.415 -0.4950  0.3542 -0.1254
 1456TIP3    H226004   1.289   1.655   8.405 -0.0020  0.7643 -0.4011
 1457TIP3   OH226005   6.726   6.363   2.174  0.1193 -0.0390 -0.8524
 1457TIP3    H126006   6.779   6.420   2.118  1.7111 -0.4771  0.1556
 1457TIP3    H226007   6.770   6.278   2.171 -0.2113 -0.2767  0.4342
 1458TIP3   OH226008   0.699   5.503   1.418  0.5400 -0.1788 -0.4491
 1458TIP3    H126009   0.712   5.500   1.513 -0.2006 -0.9842 -0.3607
 1458TIP3    H226010   0.624   5.445   1.402  0.2895  0.3973 -1.4643
 1459TIP3   OH226011   1.026   4.988   1.043  0.0667 -0.2668 -0.0339
 1459TIP3    H126012   1.039   5.067   1.095  0.6738 -1.1796  1.2508
 1459TIP3    H226013   1.090   4.996   0.971 -1.0401  1.1818 -0.9098
 1460TIP3   OH226014   2.178   2.405   1.318  0.0708  0.4573  0.4544
 1460TIP3    H126015   2.257   2.370   1.276 -0.6995 -0.3939 -0.3276
 1460TIP3    H226016   2.106   2.378   1.260 -0.7797  1.3954  1.0430
 1461TIP3   OH226017   6.830   6.858   0.767 -0.6451 -0.1342  0.4892
 1461TIP3    H126018   6.871   6.773   0.749 -1.7958 -1.3166  2.8357
 1461TIP3    H226019   6.766   6.870   0.697 -0.5109 -1.2645  0.1536
 1462TIP3   OH226020   2.619   4.802   1.249 -0.5575 -0.1658 -0.9158
 1462TIP3    H126021   2.660   4.796   1.335  3.3253  1.0388 -2.4506
 1462TIP3    H226022   2.606   4.896   1.234  0.1703 -0.2396 -2.1695
 1463TIP3   OH226023   0.692   4.919   1.998 -0.1695  0.2199  0.4742
 1463TIP3    H126024   0.623   4.898   1.935  0.3583  1.4251 -0.5646
 1463TIP3    H226025   0.760   4.962   1.945  0.9428 -0.0406  1.6337
 1464TIP3   OH226026   0.780   3.326   7.939  0.1927  0.0564 -0.5384
 1464TIP3    H126027   0.688   3.300   7.934  0.3993 -0.4254 -3.1580
 1464TIP3    H226028   0.828   3.244   7.954  0.2548  0.2440  0.3549
 1465TIP3   OH226029   1.450   1.010   8.504 -0.0508 -0.0207 -0.0905
 1465TIP3    H126030   1.479   0.949   8.571  1.1790 -0.2170 -0.7679
 1465TIP3    H226031   1.505   1.087   8.516  0.8174 -0.3989 -1.4122
 1466TIP3   OH226032   6.264   1.298   8.461 -0.0094  0.4794  0.3297
 1466TIP3    H126033   6.277   1.260   8.548  1.0745  0.4376  0.1604
 1466TIP3    H226034   6.314   1.241   8.403  1.6009  2.1185  0.0625
 1467TIP3   OH226035   2.326   6.608   8.735  0.5627 -0.2891  0.3425
 1467TIP3    H126036   2.347   6.693   8.699 -0.2970 -0.6802 -1.1927
 1467TIP3    H226037   2.383   6.547   8.689  2.2731 -0.4412  2.5164
 1468TIP3   OH226038   4.103   6.625   0.539  0.3024 -0.3009  0.0353
 1468TIP3    H126039   4.178   6.585   0.583  0.8861 -0.0105 -0.6814
 1468TIP3    H226040   4.089   6.572   0.461  0.9612  0.7409 -0.8218
 1469TIP3   OH226041   3.922   0.631   8.651  0.0694 -0.1243  0.4735
 1469TIP3    H126042   4.015   0.612   8.649  0.3896  1.1927 -2.6360
 1469TIP3    H226043   3.882   0.563   8.597 -0.5479  0.2242  0.4744
 1470TIP3   OH226044   3.429   1.788   7.374 -0.4596  0.0814  0.7443
 1470TIP3    H126045   3.364   1.808   7.441 -2.3423 -0.5252 -0.7758
 1470TIP3    H226046   3.390   1.820   7.293  3.0817  3.6907  0.1807
 1471TIP3   OH226047   5.082   4.654   0.941 -0.2818 -0.0241  0.3898
 1471TIP3    H126048   5.114   4.668   0.852  2.2999 -0.5391  1.1447
 1471TIP3    H226049   5.026   4.729   0.959 -0.9903  0.0113 -1.6921
 1472TIP3   OH226050   4.178   3.661   1.555  0.3492 -0.7061  0.6810
 1472TIP3    H126051   4.212   3.649   1.466  0.2741 -1.4366  0.7445
 1472TIP3    H226052   4.174   3.572   1.591 -0.2946 -0.4875  1.1643
 1473TIP3   OH226053   4.043   3.733   2.064 -0.2902  0.3278 -0.0751
 1473TIP3    H126054   4.138   3.741   2.071  0.0585 -0.4584 -2.6981
 1473TIP3    H226055   4.015   3.698   2.149  1.8385 -0.0523  0.5279
 1474TIP3   OH226056   3.683   1.051   7.887  0.0172  0.1829  0.0920
 1474TIP3    H126057   3.620   1.063   7.959 -1.1300  0.0291 -0.8651
 1474TIP3    H226058   3.633   1.069   7.808  0.7673 -1.4656 -0.8087
 1475TIP3   OH226059   3.404   1.998   8.292 -0.1525  0.2821  0.3744
 1475TIP3    H126060   3.462   1.942   8.241 -0.8427  1.5092 -1.9298
 1475TIP3    H226061   3.316   1.979   8.258 -0.6935  0.8991  1.3738
 1476TIP3   OH226062   0.330   6.820   0.141  0.6715  0.2949  0.4856
 1476TIP3    H126063   0.404   6.876   0.163  0.2089  0.8286  0.7305
 1476TIP3    H226064   0.333   6.811   0.046  0.2905  1.4026  0.3589
 1477TIP3   OH226065   5.842   4.293   8.624  0.7768 -0.2696  0.5827
 1477TIP3    H126066   5.875   4.209   8.656  0.9701 -0.7213 -0.7305
 1477TIP3    H226067   5.758   4.271   8.583 -0.2697  0.5559  2.1790
 1478TIP3   OH226068   0.688   0.568   1.966  0.1261  0.0666 -0.4066
 1478TIP3    H126069   0.779   0.549   1.945  0.6748  0.0292  1.7706
 1478TIP3    H226070   0.674   0.527   2.052 -1.8850  0.2250 -0.6190
 1479TIP3   OH226071   3.304   1.329   7.152  0.0065  0.4727 -0.2121
 1479TIP3    H126072   3.258   1.294   7.228 -1.1787  1.2925 -0.5211
 1479TIP3    H226073   3.310   1.256   7.091  0.5729 -0.0723  0.4864
 1480TIP3   OH226074   0.649   0.448   8.062 -0.1027  0.5511  0.2802
 1480TIP3    H126075   0.598   0.517   8.020 -0.8585  0.3055  0.7688
 1480TIP3    H226076   0.593   0.370   8.057 -0.1462  0.4775  1.5735
 1481TIP3   OH226077   5.006   6.414   7.989 -0.1453  0.3657  0.0568
 1481TIP3    H126078   4.976   6.325   7.974  0.8286  0.0455 -0.0660
 1481TIP3    H226079   5.046   6.441   7.907  1.3101  0.1924  0.6715
 1482TIP3   OH226080   3.568   2.600   7.508 -0.5547  0.3997 -0.5717
 1482TIP3    H126081   3.563   2.525   7.450  1.9401 -0.1354 -0.1985
 1482TIP3    H226082   3.560   2.676   7.450  0.2136 -0.1402 -1.4103
 1483TIP3   OH226083   3.870   5.835   2.366  0.5576  0.7992  0.5296
 1483TIP3    H126084   3.817   5.884   2.429 -1.0360  0.3756 -0.4211
 1483TIP3    H226085   3.909   5.764   2.417 -0.1381  0.8645  1.1690
 1484TIP3   OH226086   0.054   2.810   0.165  0.2380 -0.3892 -0.0392
 1484TIP3    H126087  -0.005   2.736   0.177  1.9405 -1.4155  3.4701
 1484TIP3    H226088   0.017   2.879   0.220  0.1356  0.4420 -1.1241
 1485TIP3   OH226089   6.641   2.712   2.011 -0.4556 -0.0053 -0.7167
 1485TIP3    H126090   6.627   2.642   2.075  0.0032 -0.0840 -0.7006
 1485TIP3    H226091   6.601   2.790   2.052  0.7591  0.1904  0.1404
 1486TIP3   OH226092   2.448   3.204   0.981  0.2669  0.3349  0.0886
 1486TIP3    H126093   2.393   3.247   0.915  1.1843  0.0860 -0.8682
 1486TIP3    H226094   2.468   3.274   1.043 -0.9553  0.4724  0.3436
 1487TIP3   OH226095   3.780   4.719   2.129 -0.2860 -0.8436  0.0758
 1487TIP3    H126096   3.845   4.783   2.156 -0.7178 -0.3689  0.0001
 1487TIP3    H226097   3.699   4.769   2.117 -0.9996 -1.6044  1.4304
 1488TIP3   OH226098   2.746   6.670   7.889 -0.0148 -0.0980 -0.1013
 1488TIP3    H126099   2.828   6.652   7.936 -0.5110  1.0262  1.2551
 1488TIP3    H226100   2.764   6.643   7.799  1.2606 -1.5102  0.5309
 1489TIP3   OH226101   0.841   2.233   7.626  0.0789  0.0429  0.4621
 1489TIP3    H126102   0.802   2.171   7.564 -1.8469 -0.5928  2.2230
 1489TIP3    H226103   0.811   2.318   7.597 -0.5447 -0.2187  0.3285
 1490TIP3   OH226104   2.469   3.413   8.623  0.1838 -0.3925 -0.0838
 1490TIP3    H126105   2.472   3.504   8.651  0.4387 -0.0104 -1.2845
 1490TIP3    H226106   2.392   3.408   8.565 -0.5553 -1.2393  0.9220
 1491TIP3   OH226107   4.346   1.679   0.380  0.3374  0.7777  0.3183
 1491TIP3    H126108   4.335   1.736   0.456 -2.3119  0.6650  0.1200
 1491TIP3    H226109   4.328   1.735   0.305 -1.2034 -0.0132  0.0577
 1492TIP3   OH226110   3.714   0.683   1.978 -0.1277  0.6699  0.0795
 1492TIP3    H126111   3.655   0.611   1.999 -0.5729  0.9492 -0.2064
 1492TIP3    H226112   3.722   0.732   2.060 -0.4980  0.7789  0.0523
 1493TIP3   OH226113   5.955   6.719   1.540 -0.2515 -0.1542  0.7393
 1493TIP3    H126114   5.892   6.646   1.539 -1.3367  0.6553 -2.5249
 1493TIP3    H226115   6.031   6.685   1.494 -0.3423  0.4186  0.1575
 1494TIP3   OH226116   6.813   2.182   1.492 -0.8288 -0.9420  0.0251
 1494TIP3    H126117   6.838   2.155   1.403 -0.6395 -1.1288  0.1346
 1494TIP3    H226118   6.878   2.248   1.516 -2.6315  1.4159 -1.1530
 1495TIP3   OH226119   4.041   6.541   1.372 -0.1179  0.3822 -0.1905
 1495TIP3    H126120   3.955   6.568   1.403 -0.1690 -1.2421  1.2392
 1495TIP3    H226121   4.027   6.454   1.333  0.6065  0.7983 -1.4259
 1496TIP3   OH226122   4.184   5.526   0.024 -0.2010 -0.0879 -0.5539
 1496TIP3    H126123   4.209   5.525   0.116 -0.0845 -1.4750 -0.5796
 1496TIP3    H226124   4.094   5.559   0.024 -0.6806 -1.3483  0.2029
 1497TIP3   OH226125   4.507   2.193   8.390 -0.8414  0.4356 -0.0620
 1497TIP3    H126126   4.531   2.130   8.322  0.1752  0.2047  0.4929
 1497TIP3    H226127   4.539   2.154   8.471 -0.9523  1.2743  0.3945
 1498TIP3   OH226128   5.515   4.480   8.686 -0.3947 -0.4713  0.1983
 1498TIP3    H126129   5.508   4.560   8.739  0.5628  0.1693 -0.6145
 1498TIP3    H226130   5.501   4.509   8.596 -1.6119 -1.4871  0.0388
 1499TIP3   OH226131   3.303   2.432   7.278  0.0784  0.1298  0.5924
 1499TIP3    H126132   3.333   2.353   7.322  0.6800  0.1050  0.1512
 1499TIP3    H226133   3.211   2.441   7.305  0.1819 -0.3733  1.1283
 1500TIP3   OH226134   4.868   4.066   1.608 -0.7500 -0.0396 -0.4941
 1500TIP3    H126135   4.807   4.095   1.676  0.2149  1.4928 -0.2277
 1500TIP3    H226136   4.819   4.078   1.526 -0.8986  1.0006 -0.2727
 1501TIP3   OH226137   4.475   6.395   2.163 -0.3651  0.5784  0.1106
 1501TIP3    H126138   4.491   6.433   2.077 -2.5115  1.2977 -0.0036
 1501TIP3    H226139   4.434   6.464   2.214 -0.8469 -0.4088  1.1188
 1502TIP3   OH226140   3.698   0.924   1.819  0.3555 -0.5117  0.3207
 1502TIP3    H126141   3.730   0.852   1.874 -0.6528 -0.6185  0.7936
 1502TIP3    H226142   3.615   0.893   1.784  0.9735 -0.4375 -1.2909
 1503TIP3   OH226143   6.543   5.966   1.385  0.0242  0.1487 -0.3921
 1503TIP3    H126144   6.602   5.941   1.314 -0.3573 -0.2751 -0.5708
 1503TIP3    H226145   6.463   5.917   1.367 -0.5021  0.9769 -0.3457
 1504TIP3   OH226146   0.959   2.816   1.967 -0.3933 -0.2335  0.4598
 1504TIP3    H126147   0.967   2.798   2.061 -0.3032  0.5137  0.6093
 1504TIP3    H226148   0.905   2.895   1.963  1.0200  0.7422 -0.0105
 1505TIP3   OH226149   4.389   4.047   8.536 -0.2472  0.8245 -0.0956
 1505TIP3    H126150   4.432   4.132   8.541  1.4757  0.0010 -0.0124
 1505TIP3    H226151   4.388   4.026   8.443  2.0103 -0.2943  0.0663
 1506TIP3   OH226152   1.355   1.578   1.390 -0.3791  0.2441  0.2271
 1506TIP3    H126153   1.419   1.508   1.377  0.1623  0.5143  1.3072
 1506TIP3    H226154   1.334   1.608   1.302  1.1163  0.2719 -0.1438
 1507TIP3   OH226155   5.854   0.544   8.521 -0.1102  0.1443  0.2759
 1507TIP3    H126156   5.930   0.496   8.489 -0.1684 -0.1977  0.6442
 1507TIP3    H226157   5.869   0.634   8.493 -0.6053 -0.2942 -1.5135
 1508TIP3   OH226158   5.228   2.729   1.615  0.2583 -0.1215  0.4514
 1508TIP3    H126159   5.282   2.652   1.633  0.5609 -0.1267 -0.4776
 1508TIP3    H226160   5.154   2.721   1.677 -0.4272 -1.8727 -0.5272
 1509TIP3   OH226161   3.611   5.321   1.163  0.5149  0.2127 -0.0594
 1509TIP3    H126162   3.687   5.286   1.117  0.4323 -0.3539  0.2221
 1509TIP3    H226163   3.643   5.340   1.251  0.0952 -1.0332  0.3902
 1510TIP3   OH226164   2.481   6.599   3.151  0.5554  0.4796 -0.2390
 1510TIP3    H126165   2.546   6.606   3.081  1.3546 -1.4519  0.2355
 1510TIP3    H226166   2.526   6.632   3.229  0.3170  0.8581 -0.2586
 1511TIP3   OH226167   2.169   5.872   2.643  0.5604 -0.1448  0.0501
 1511TIP3    H126168   2.123   5.949   2.677  1.2250  1.0624 -1.6580
 1511TIP3    H226169   2.100   5.805   2.635 -0.5714  1.0581 -0.7377
 1512TIP3   OH226170   5.216   0.967   8.137 -0.2932 -0.1162 -0.3792
 1512TIP3    H126171   5.234   0.915   8.059  2.9047 -1.1792  0.9197
 1512TIP3    H226172   5.295   1.019   8.150 -1.3794  1.2208  1.2939
 1513TIP3   OH226173   0.010   1.586   0.161 -0.1608 -0.4916  0.1827
 1513TIP3    H126174   0.009   1.546   0.248  0.5414 -0.1861  0.3406
 1513TIP3    H226175  -0.074   1.631   0.154  0.0373  0.0284  0.9693
 1514TIP3   OH226176   3.334   2.148   1.421  0.2406 -0.2214  0.1445
 1514TIP3    H126177   3.244   2.177   1.438 -0.1804 -0.1294 -2.0498
 1514TIP3    H226178   3.352   2.084   1.490 -1.0800  0.5962  1.2993
 1515TIP3   OH226179   0.836   2.281   2.954 -0.0244  0.5243  0.6976
 1515TIP3    H126180   0.900   2.210   2.951 -0.1860  0.4120 -0.9259
 1515TIP3    H226181   0.760   2.247   2.906  0.1873  2.0221 -0.8233
 1516TIP3   OH226182   1.127   2.542   3.087  0.4335  0.3310  0.0198
 1516TIP3    H126183   1.046   2.521   3.132  0.9599 -0.6726  0.5455
 1516TIP3    H226184   1.168   2.610   3.140 -0.3361  1.2880 -0.5851
 1517TIP3   OH226185   1.678   2.264   0.944  0.2615 -0.4100 -0.3684
 1517TIP3    H126186   1.609   2.323   0.974  0.4869  0.5696 -1.6336
 1517TIP3    H226187   1.696   2.206   1.018 -0.8523  0.3084  0.4855
 1518TIP3   OH226188   0.333   5.389   0.625  1.0910 -0.0636 -0.5205
 1518TIP3    H126189   0.335   5.395   0.720 -1.7398 -0.4012 -0.3718
 1518TIP3    H226190   0.321   5.479   0.595 -3.7943 -0.3096 -0.1264
 1519TIP3   OH226191   4.566   4.311   7.279  0.0819  0.3143  0.0582
 1519TIP3    H126192   4.503   4.357   7.334 -0.5999 -0.2868 -0.2157
 1519TIP3    H226193   4.646   4.365   7.285 -0.8080  1.7698 -0.5722
 1520TIP3   OH226194   1.954   5.157   7.817  0.0007  0.0301  0.0643
 1520TIP3    H126195   2.015   5.188   7.884 -0.7484  0.4564  0.5656
 1520TIP3    H226196   1.942   5.233   7.759 -1.1621  0.4474  0.8002
 1521TIP3   OH226197   3.579   0.396   8.421 -0.0349 -0.5689  0.5957
 1521TIP3    H126198   3.672   0.414   8.431  0.1329 -1.7015  1.3238
 1521TIP3    H226199   3.566   0.383   8.327  0.0614  1.8877  0.1769
 1522TIP3   OH226200   2.723   6.598   1.530 -0.5205 -0.4351  0.0670
 1522TIP3    H126201   2.769   6.640   1.458 -2.0017  3.0819  0.9544
 1522TIP3    H226202   2.656   6.544   1.487  0.4182 -0.6438 -1.1772
 1523TIP3   OH226203   6.049   4.575   2.215  0.0421  0.0878  0.0389
 1523TIP3    H126204   6.025   4.482   2.217 -0.8655  0.3264  0.5173
 1523TIP3    H226205   5.968   4.621   2.197  0.8385  0.6920 -2.4210
 1524TIP3   OH226206   0.193   0.458   1.845  0.1564  0.1397 -0.4703
 1524TIP3    H126207   0.231   0.523   1.786  3.5305 -0.2419  1.0289
 1524TIP3    H226208   0.192   0.377   1.795 -0.8190  0.5995 -1.2290
 1525TIP3   OH226209   3.998   5.556   8.018  0.8019 -0.0259 -0.1308
 1525TIP3    H126210   4.064   5.562   8.087  1.2183  1.6706 -0.6235
 1525TIP3    H226211   4.049   5.555   7.936  0.2759 -0.7693 -0.4588
 1526TIP3   OH226212   6.855   1.960   2.038 -0.1064  0.1886  0.0468
 1526TIP3    H126213   6.873   1.900   2.111 -1.7945  0.0252  0.3533
 1526TIP3    H226214   6.813   1.905   1.971  0.1312  0.6326 -0.4793
 1527TIP3   OH226215   3.682   0.862   8.365  0.7956 -0.2100 -0.0700
 1527TIP3    H126216   3.762   0.901   8.329  1.6775 -0.2182  1.7467
 1527TIP3    H226217   3.612   0.891   8.306  2.2630 -1.3667 -2.5749
 1528TIP3   OH226218   0.188   1.760   7.175 -0.3076 -0.1813  0.6995
 1528TIP3    H126219   0.259   1.735   7.234  0.1206 -2.3792 -0.6434
 1528TIP3    H226220   0.204   1.853   7.157  2.0167 -0.5039  0.7764
 1529TIP3   OH226221   0.145   0.166   0.157  0.0724 -0.0836 -0.6417
 1529TIP3    H126222   0.201   0.088   0.159  0.7864  0.4022 -1.3110
 1529TIP3    H226223   0.066   0.137   0.112 -1.4701 -1.5330  2.6277
 1530TIP3   OH226224   2.394   4.976   0.559  0.0131  0.0501  0.1852
 1530TIP3    H126225   2.467   5.038   0.551 -0.2320  0.2720 -0.4404
 1530TIP3    H226226   2.353   4.998   0.642 -1.0640  1.8656 -0.7391
 1531TIP3   OH226227   6.471   1.820   1.473  0.3411 -0.0463  0.0467
 1531TIP3    H126228   6.490   1.882   1.402 -1.1010  1.3083  0.7720
 1531TIP3    H226229   6.533   1.843   1.542 -1.6780  2.3412  1.2501
 1532TIP3   OH226230   3.064   6.443   1.220 -0.3711 -0.5261 -0.6385
 1532TIP3    H126231   3.029   6.504   1.285  3.0910  1.6193 -0.5545
 1532TIP3    H226232   3.016   6.464   1.140 -1.0336  0.4862  0.0044
 1533TIP3   OH226233   5.611   1.960   8.041 -0.1645  0.2533 -0.1503
 1533TIP3    H126234   5.623   1.960   7.946  1.3073  1.0396  0.0071
 1533TIP3    H226235   5.684   1.908   8.075 -1.3723 -1.1050  0.5228
 1534TIP3   OH226236   4.496   3.195   8.041  0.0350  0.4028  0.5162
 1534TIP3    H126237   4.485   3.262   8.108  2.6431  1.9413 -0.4339
 1534TIP3    H226238   4.527   3.243   7.964  1.2751 -1.7777 -0.4387
 1535TIP3   OH226239   1.241   4.702   6.745 -0.2531 -0.2820 -0.5945
 1535TIP3    H126240   1.215   4.794   6.744  0.7052 -0.0006 -1.6266
 1535TIP3    H226241   1.335   4.704   6.757 -0.2013 -1.1163 -0.8208
 1536TIP3   OH226242   4.407   0.414   8.105 -0.6539  0.9096  0.7206
 1536TIP3    H126243   4.328   0.361   8.096  0.7533 -1.6139  2.1523
 1536TIP3    H226244   4.472   0.371   8.049 -0.0158  2.4216  0.2329
 1537TIP3   OH226245   2.047   6.274   0.593  0.0380  0.2861  0.4858
 1537TIP3    H126246   2.056   6.187   0.553 -0.6452  1.3017 -2.0961
 1537TIP3    H226247   2.137   6.307   0.600  0.1593  0.2004 -0.5552
 1538TIP3   OH226248   5.016   5.895   1.745 -0.0047  0.7577 -0.3124
 1538TIP3    H126249   4.990   5.985   1.725 -1.6401  0.0120 -1.9247
 1538TIP3    H226250   4.950   5.864   1.807  1.0971  0.9291  0.9770
 1539TIP3   OH226251   0.725   5.830   7.545 -0.1723  0.3056 -0.0088
 1539TIP3    H126252   0.799   5.883   7.575  1.0843 -1.1372 -0.4349
 1539TIP3    H226253   0.765   5.749   7.514 -1.8948 -0.2643 -0.8434
 1540TIP3   OH226254   0.677   4.942   8.554  0.0759  0.6828  0.0556
 1540TIP3    H126255   0.609   4.957   8.489  0.0207  0.6415  0.1035
 1540TIP3    H226256   0.759   4.947   8.505  0.0100  0.0818 -0.1212
 1541TIP3   OH226257   5.730   2.459   7.375  0.1987 -0.0074 -0.5762
 1541TIP3    H126258   5.742   2.554   7.370 -0.4871  0.2502  1.6788
 1541TIP3    H226259   5.733   2.439   7.468 -1.0046 -2.0291 -0.9106
 1542TIP3   OH226260   6.101   3.976   7.724  0.3553 -0.2137  0.1723
 1542TIP3    H126261   6.101   4.059   7.676  2.1104  0.3626  1.0543
 1542TIP3    H226262   6.158   3.919   7.673 -0.0901 -0.5673  0.0660
 1543TIP3   OH226263   5.211   5.765   8.501 -0.1514  0.0233 -0.2258
 1543TIP3    H126264   5.224   5.811   8.584  0.6867 -0.3431 -0.1423
 1543TIP3    H226265   5.257   5.819   8.437 -0.2102 -0.0561 -0.3335
 1544TIP3   OH226266   3.075   0.151   1.992  0.1784  0.2266 -0.0525
 1544TIP3    H126267   3.155   0.144   1.939  0.6856 -1.9710  0.8759
 1544TIP3    H226268   3.013   0.092   1.949  0.0598 -0.3426  0.8769
 1545TIP3   OH226269   2.291   2.058   8.592  0.0295  0.6442  0.3131
 1545TIP3    H126270   2.256   2.141   8.626 -2.8974  0.0333 -0.9045
 1545TIP3    H226271   2.257   1.992   8.652 -1.0740  0.0153 -0.9502
 1546TIP3   OH226272   3.885   6.378   1.022 -0.1836  0.4524 -0.0203
 1546TIP3    H126273   3.915   6.430   0.948 -0.2630  0.0806 -0.3195
 1546TIP3    H226274   3.863   6.293   0.984 -1.7250  0.7381  0.1700
 1547TIP3   OH226275   2.001   4.895   0.391 -0.4715  0.4706 -0.9819
 1547TIP3    H126276   1.958   4.967   0.437  0.7019  0.4785  0.1482
 1547TIP3    H226277   2.066   4.938   0.335 -0.2041  0.3266 -0.7837
 1548TIP3   OH226278   5.587   3.396   7.863 -0.3784 -0.1732  0.4561
 1548TIP3    H126279   5.550   3.308   7.852 -0.9114  0.3072 -2.4857
 1548TIP3    H226280   5.512   3.455   7.853  0.3558  0.6674 -0.2836
 1549TIP3   OH226281   4.134   0.541   7.150 -0.3354  0.3281 -0.0825
 1549TIP3    H126282   4.171   0.484   7.082 -0.3284  1.9632 -1.5087
 1549TIP3    H226283   4.097   0.480   7.214 -0.3227 -1.2792 -1.5198
 1550TIP3   OH226284   0.995   6.221   2.900  0.4358  0.6248 -0.0742
 1550TIP3    H126285   1.075   6.242   2.948  1.2011 -1.9250 -0.0908
 1550TIP3    H226286   0.933   6.290   2.924  2.3213  2.1248  0.6899
 1551TIP3   OH226287   6.453   4.304   7.144  0.1898  0.1930  0.0223
 1551TIP3    H126288   6.393   4.233   7.124  0.4509  0.4544 -1.8306
 1551TIP3    H226289   6.529   4.262   7.183 -0.4093 -0.3334  0.6371
 1552TIP3   OH226290   5.630   3.108   0.296  0.1794 -0.1258  0.2677
 1552TIP3    H126291   5.583   3.157   0.229  1.0049 -0.5399 -0.6343
 1552TIP3    H226292   5.565   3.046   0.330 -0.2675  0.1511 -0.0625
 1553TIP3   OH226293   5.323   3.696   8.139  1.0329  0.2881 -0.7015
 1553TIP3    H126294   5.304   3.609   8.104 -0.4979  0.1026  0.4396
 1553TIP3    H226295   5.251   3.751   8.107  0.5662  0.5061  0.6307
 1554TIP3   OH226296   1.868   1.172   1.187  0.6468 -0.2708  0.1823
 1554TIP3    H126297   1.952   1.179   1.140 -0.1589 -2.3335 -1.7165
 1554TIP3    H226298   1.820   1.250   1.160  0.3866 -1.1640 -2.2042
 1555TIP3   OH226299   4.251   2.629   0.788  0.8063  0.4571 -0.5287
 1555TIP3    H126300   4.186   2.632   0.717 -1.9060 -0.0063  1.7505
 1555TIP3    H226301   4.199   2.623   0.868  3.7318 -1.3692  1.4329
 1556TIP3   OH226302   5.309   3.609   6.985 -0.0468 -0.3269 -0.4037
 1556TIP3    H126303   5.261   3.688   6.960 -1.3439 -0.6503  0.9172
 1556TIP3    H226304   5.250   3.537   6.964 -0.3569 -0.7104  1.5719
 1557TIP3   OH226305   3.351   2.369   8.462  0.1439  0.0064  1.0767
 1557TIP3    H126306   3.382   2.400   8.547 -0.9999 -0.3481  1.6447
 1557TIP3    H226307   3.256   2.382   8.465  0.0810 -0.0856 -0.1208
 1558TIP3   OH226308   5.834   0.951   7.741  0.0401 -0.1560  0.0117
 1558TIP3    H126309   5.867   0.942   7.830 -0.3977  0.6051  0.2711
 1558TIP3    H226310   5.887   0.892   7.688 -1.4098 -2.6609  1.1900
 1559TIP3   OH226311   2.279   2.442   2.028 -0.2977  0.3118 -0.4200
 1559TIP3    H126312   2.335   2.481   1.961 -2.7476  1.5413 -1.9217
 1559TIP3    H226313   2.226   2.378   1.981 -2.9605  2.0798 -0.0907
 1560TIP3   OH226314   5.512   2.663   0.800  0.0856  0.0047 -0.1671
 1560TIP3    H126315   5.585   2.720   0.774 -0.2007  0.1219 -0.7292
 1560TIP3    H226316   5.510   2.669   0.895  0.0220  0.9888 -0.2148
 1561TIP3   OH226317   4.183   3.305   1.355 -0.0605  0.0597  0.3534
 1561TIP3    H126318   4.098   3.330   1.391 -0.7441  0.5690 -1.4720
 1561TIP3    H226319   4.247   3.331   1.421 -1.3447 -0.8075  1.9933
 1562TIP3   OH226320   1.245   6.751   2.316 -0.0133 -0.1286 -0.2317
 1562TIP3    H126321   1.299   6.690   2.266 -0.3751 -1.6676  1.1470
 1562TIP3    H226322   1.293   6.834   2.314  1.5488 -1.0088 -0.4457
 1563TIP3   OH226323   0.532   6.319   2.653 -0.0381 -0.1673 -0.3180
 1563TIP3    H126324   0.481   6.382   2.602 -1.0991 -1.5918 -1.0850
 1563TIP3    H226325   0.535   6.356   2.741 -1.9673  0.2267 -0.3776
 1564TIP3   OH226326   6.487   2.957   1.829  0.2832 -0.4245  0.2537
 1564TIP3    H126327   6.528   3.041   1.810 -0.6787  0.4622  1.8860
 1564TIP3    H226328   6.494   2.907   1.747  2.1275  0.6986 -0.3128
 1565TIP3   OH226329   1.588   2.453   8.538 -0.1821 -0.2861 -0.2579
 1565TIP3    H126330   1.607   2.442   8.445  0.4875 -1.5222 -0.0001
 1565TIP3    H226331   1.526   2.383   8.558 -0.6167  0.2053  0.1572
 1566TIP3   OH226332   1.060   1.762   7.165  0.1769 -0.2665 -0.5638
 1566TIP3    H126333   0.976   1.768   7.120  0.2956 -0.6467 -0.8358
 1566TIP3    H226334   1.053   1.826   7.236  0.5265  1.4345 -1.9718
 1567TIP3   OH226335   3.673   2.544   8.157 -0.0036  0.2104 -0.3732
 1567TIP3    H126336   3.616   2.618   8.139  0.0671  0.3453 -0.0372
 1567TIP3    H226337   3.728   2.537   8.079 -1.1069 -0.5105 -1.1267
 1568TIP3   OH226338   4.139   3.719   0.848 -0.2543 -0.0584  0.0881
 1568TIP3    H126339   4.100   3.699   0.933  1.2786 -0.3507  0.7683
 1568TIP3    H226340   4.077   3.684   0.784 -0.6557 -1.3454  1.1262
 1569TIP3   OH226341   1.701   1.647   1.651 -0.3673 -0.2859 -0.0691
 1569TIP3    H126342   1.771   1.634   1.588 -1.8368  0.2872 -1.9278
 1569TIP3    H226343   1.745   1.675   1.731  1.7302 -3.0273 -0.1265
 1570TIP3   OH226344   2.957   5.977   1.519 -0.4374  0.6040 -0.0444
 1570TIP3    H126345   3.025   5.990   1.585  0.0479  0.3416 -0.4791
 1570TIP3    H226346   2.950   6.063   1.476 -0.6540  0.7365  0.2558
 1571TIP3   OH226347   2.853   6.397   7.927 -0.0892 -0.1340  0.0011
 1571TIP3    H126348   2.923   6.398   7.863  1.0019 -1.1979  1.1319
 1571TIP3    H226349   2.893   6.363   8.007 -1.0985  2.1795  1.6181
 1572TIP3   OH226350   0.655   6.864   2.733  0.6648 -0.2472  0.0737
 1572TIP3    H126351   0.746   6.879   2.708  0.4235  0.9114 -0.2160
 1572TIP3    H226352   0.654   6.874   2.828  1.0042 -1.2519  0.1871
 1573TIP3   OH226353   4.738   0.962   2.161 -0.2351 -0.0312  0.0832
 1573TIP3    H126354   4.656   0.970   2.113  0.1097 -1.4655 -0.8130
 1573TIP3    H226355   4.732   1.027   2.232 -2.2730 -0.3590  0.2455
 1574TIP3   OH226356   5.737   6.039   1.688  0.3447 -0.3375  0.0955
 1574TIP3    H126357   5.702   6.078   1.608 -0.1922 -1.1127 -0.0603
 1574TIP3    H226358   5.689   5.956   1.696  1.0120 -0.6591  0.7532
 1575TIP3   OH226359   2.768   1.522   1.886  0.1308  0.3925  0.4176
 1575TIP3    H126360   2.736   1.432   1.890 -1.6995  1.0430  1.6612
 1575TIP3    H226361   2.855   1.518   1.925 -0.9256 -0.4782  2.9055
 1576TIP3   OH226362   4.602   2.827   6.944  0.3082 -0.1417 -0.0145
 1576TIP3    H126363   4.693   2.828   6.974  0.5404 -0.7178 -0.6691
 1576TIP3    H226364   4.583   2.734   6.929  0.4319  0.1311 -2.2311
 1577TIP3   OH226365   4.711   5.602   1.033 -0.3086  0.1813 -0.1767
 1577TIP3    H126366   4.706   5.511   1.062 -0.9010  0.7137  1.5576
 1577TIP3    H226367   4.625   5.620   0.996  0.2744 -0.3445 -1.8699
 1578TIP3   OH226368   5.140   4.356   8.557  0.1956  0.3101 -0.2543
 1578TIP3    H126369   5.196   4.344   8.481  1.3787  2.2776  0.2296
 1578TIP3    H226370   5.068   4.294   8.544  0.4378  0.4580 -2.8755
 1579TIP3   OH226371   4.551   3.542   1.491  0.1581  0.2612 -0.0743
 1579TIP3    H126372   4.551   3.486   1.568 -0.9169  0.2053 -0.1100
 1579TIP3    H226373   4.629   3.597   1.502  0.7456 -0.6341  0.3852
 1580TIP3   OH226374   6.141   5.141   0.847 -0.0595  0.2268 -0.2364
 1580TIP3    H126375   6.133   5.090   0.766 -0.2463 -0.1287  0.0051
 1580TIP3    H226376   6.231   5.128   0.875 -0.4973 -1.1679  0.6077
 1581TIP3   OH226377   4.716   6.534   1.742 -0.1274  0.2922 -0.2683
 1581TIP3    H126378   4.799   6.582   1.739 -0.7384  1.3513 -0.9133
 1581TIP3    H226379   4.720   6.475   1.667  0.6380 -0.7350  0.5436
 1582TIP3   OH226380   3.399   4.093   0.487 -0.2520  0.0058 -0.0409
 1582TIP3    H126381   3.361   4.133   0.409 -0.7049  0.4045  0.3823
 1582TIP3    H226382   3.406   4.000   0.465 -2.0258 -0.1789  0.0792
 1583TIP3   OH226383   0.981   4.191   0.700  0.3120 -0.4734 -0.3551
 1583TIP3    H126384   0.947   4.280   0.712  2.0435  0.5975 -2.6171
 1583TIP3    H226385   1.069   4.194   0.739 -0.4105 -1.8919  1.4976
 1584TIP3   OH226386   0.728   6.389   6.786  0.3188 -0.5693 -0.0793
 1584TIP3    H126387   0.715   6.294   6.787  1.4636 -0.7628  1.4286
 1584TIP3    H226388   0.724   6.414   6.879 -0.3271  0.9216 -0.4806
 1585TIP3   OH226389   6.047   2.134   1.999 -0.4100  0.2990  0.3309
 1585TIP3    H126390   6.042   2.218   2.045  1.9430  0.2696  0.7978
 1585TIP3    H226391   6.139   2.109   2.007 -0.0496 -0.1915 -3.5585
 1586TIP3   OH226392   0.541   6.280   0.629  0.1929  0.1785  0.4637
 1586TIP3    H126393   0.532   6.199   0.578  0.3596  1.5043 -1.8227
 1586TIP3    H226394   0.608   6.331   0.582 -1.3232  2.4689  0.6004
 1587TIP3   OH226395   3.712   3.825   0.290 -0.4820 -0.0876  0.2705
 1587TIP3    H126396   3.746   3.737   0.303 -2.9911 -0.9991  1.2030
 1587TIP3    H226397   3.740   3.873   0.368  0.1835 -0.2756  0.1537
 1588TIP3   OH226398   2.480   0.852   7.784 -0.0109 -0.6509 -0.3333
 1588TIP3    H126399   2.546   0.922   7.781  0.9546 -1.5603 -1.0988
 1588TIP3    H226400   2.438   0.863   7.869  0.4115  0.5966 -0.2613
 1589TIP3   OH226401   6.802   1.661   7.667  0.1746 -0.2696 -0.1140
 1589TIP3    H126402   6.782   1.631   7.756  0.7570  0.8206  0.3921
 1589TIP3    H226403   6.723   1.641   7.618 -0.6351  0.2482  0.9338
 1590TIP3   OH226404   3.138   4.913   0.153  0.1568 -0.3418 -0.4101
 1590TIP3    H126405   3.211   4.891   0.210  0.1039  0.4322 -0.0342
 1590TIP3    H226406   3.176   4.968   0.085 -0.1579  0.4816  0.0689
 1591TIP3   OH226407   3.540   2.554   2.033  0.4602 -0.4696  0.8162
 1591TIP3    H126408   3.564   2.472   1.990  1.4501 -2.1059  4.1313
 1591TIP3    H226409   3.478   2.528   2.102  0.0705  1.7269  1.3867
 1592TIP3   OH226410   2.235   2.748   0.296 -0.2754 -0.5278 -1.1329
 1592TIP3    H126411   2.216   2.839   0.274  1.0361 -0.3384 -1.5644
 1592TIP3    H226412   2.153   2.715   0.333 -0.4011  1.2127  0.3084
 1593TIP3   OH226413   1.054   5.459   8.583 -0.6465 -0.4478  0.1307
 1593TIP3    H126414   1.062   5.471   8.488 -0.5317 -2.1300 -0.1071
 1593TIP3    H226415   0.999   5.381   8.593  0.8128 -1.3746  1.3871
 1594TIP3   OH226416   2.668   5.129   2.449 -0.1513  0.1732  0.3157
 1594TIP3    H126417   2.700   5.174   2.371 -0.2232 -1.2637 -0.5652
 1594TIP3    H226418   2.624   5.198   2.500  0.0357  1.1592 -0.8164
 1595TIP3   OH226419   0.558   6.142   1.893 -0.2522 -0.2290 -0.2725
 1595TIP3    H126420   0.585   6.148   1.984  0.0021 -1.3466 -0.2673
 1595TIP3    H226421   0.548   6.049   1.876 -1.1817  0.0056 -1.1385
 1596TIP3   OH226422   3.603   4.482   3.210  0.3355 -0.0670  0.3585
 1596TIP3    H126423   3.654   4.401   3.213  1.3671  0.5481 -0.0716
 1596TIP3    H226424   3.555   4.483   3.293  0.8252 -0.7967  0.6644
 1597TIP3   OH226425   3.745   5.752   1.555  0.1957 -0.0479  0.2471
 1597TIP3    H126426   3.675   5.695   1.525 -1.6568  1.1213  2.0979
 1597TIP3    H226427   3.824   5.699   1.547 -1.1233 -2.0353 -0.2701
 1598TIP3   OH226428   4.053   0.622   0.771  0.3137  0.3646 -0.1569
 1598TIP3    H126429   4.146   0.628   0.791  0.1502 -3.1989  2.7014
 1598TIP3    H226430   4.048   0.560   0.699  0.1453  2.1256 -1.7337
 1599TIP3   OH226431   5.303   0.209   7.983 -0.1121 -0.2043 -0.3405
 1599TIP3    H126432   5.240   0.219   7.912 -1.2142 -0.6673  0.5384
 1599TIP3    H226433   5.374   0.157   7.945 -0.1701  0.4673 -1.3947
 1600TIP3   OH226434   5.725   3.155   6.814  0.4860 -0.1011  0.0790
 1600TIP3    H126435   5.799   3.213   6.828 -0.2053  1.0265 -0.7817
 1600TIP3    H226436   5.660   3.182   6.880  1.1213 -1.6821  1.4479
 1601TIP3   OH226437   5.004   2.320   7.906  0.1109 -0.1601 -0.2404
 1601TIP3    H126438   5.051   2.255   7.958  0.1815 -1.3543 -1.7488
 1601TIP3    H226439   4.987   2.277   7.823 -2.7619  0.5619 -0.1406
 1602TIP3   OH226440   3.291   0.608   0.519  0.1885 -0.4884  0.8918
 1602TIP3    H126441   3.198   0.596   0.538  0.2535  0.0308  1.5556
 1602TIP3    H226442   3.307   0.551   0.443 -1.1898  1.1280 -0.7163
 1603TIP3   OH226443   4.519   6.552   1.147 -0.0735  0.0427 -0.0482
 1603TIP3    H126444   4.514   6.590   1.060 -0.5361 -0.2990 -0.1737
 1603TIP3    H226445   4.447   6.489   1.150  0.2829 -0.3497  0.3817
 1604TIP3   OH226446   0.750   2.078   7.044 -0.2150 -0.2071 -0.1415
 1604TIP3    H126447   0.733   1.984   7.037  0.2370 -0.3453  0.5459
 1604TIP3    H226448   0.668   2.115   7.077  0.1148 -0.5873  1.1531
 1605TIP3   OH226449   4.937   1.730   8.685 -0.3064 -0.3970  0.0269
 1605TIP3    H126450   4.967   1.819   8.706 -0.4901 -0.4588  0.5565
 1605TIP3    H226451   5.018   1.683   8.664 -0.2373 -0.0299 -0.5582
 1606TIP3   OH226452   1.820   3.340   1.255 -0.5375 -0.6137  0.4069
 1606TIP3    H126453   1.820   3.268   1.192  1.9349 -0.8207  0.5599
 1606TIP3    H226454   1.816   3.419   1.200  0.6739 -0.8090  0.0203
 1607TIP3   OH226455   1.859   4.445   1.739 -0.1594 -0.2684 -0.2172
 1607TIP3    H126456   1.917   4.370   1.728  1.8565  0.8972  1.7244
 1607TIP3    H226457   1.883   4.504   1.667  0.9348  0.1037  0.4360
 1608TIP3   OH226458   2.108   2.862   2.548  0.1223  0.2533  0.0954
 1608TIP3    H126459   2.097   2.884   2.456 -0.0813 -0.9312 -0.1769
 1608TIP3    H226460   2.174   2.792   2.549  0.2083  0.3353  0.8540
 1609TIP3   OH226461   5.780   3.084   0.934 -0.2897  0.3094  0.3150
 1609TIP3    H126462   5.695   3.118   0.907  0.6444  2.1543 -0.5247
 1609TIP3    H226463   5.824   3.061   0.852  0.6470  1.0176  0.6024
 1610TIP3   OH226464   4.477   3.616   8.717 -0.6676 -0.1438  0.0201
 1610TIP3    H126465   4.559   3.575   8.689  0.1937  0.8789  0.9339
 1610TIP3    H226466   4.489   3.709   8.696 -1.1292  0.1976  1.1814
 1611TIP3   OH226467   6.272   1.715   2.276  0.3036  0.4122  0.0854
 1611TIP3    H126468   6.272   1.782   2.344  1.4615  0.8074 -0.2772
 1611TIP3    H226469   6.353   1.731   2.227 -0.9355  0.7181 -1.9631
 1612TIP3   OH226470   1.008   6.593   8.646  0.5585  0.6515 -0.2381
 1612TIP3    H126471   1.066   6.517   8.653  0.2247  0.2643 -1.4262
 1612TIP3    H226472   0.981   6.594   8.554 -0.2735  1.6018 -0.0003
 1613TIP3   OH226473   0.490   5.734   7.438 -0.0633 -0.0661  0.2825
 1613TIP3    H126474   0.579   5.767   7.431 -0.0187 -0.2192  0.1457
 1613TIP3    H226475   0.479   5.714   7.531  0.2189 -0.5463  0.2120
 1614TIP3   OH226476   4.780   0.667   7.678 -0.8778  0.7358 -0.1803
 1614TIP3    H126477   4.770   0.573   7.691 -1.2356  0.8300  0.2555
 1614TIP3    H226478   4.870   0.686   7.705 -0.2506  0.2652 -1.8211
 1615TIP3   OH226479   4.874   0.706   0.128  0.1441  0.5005  0.6123
 1615TIP3    H126480   4.845   0.646   0.196  1.5467 -2.0900 -0.9206
 1615TIP3    H226481   4.959   0.737   0.158  0.0953  0.5480  0.7032
 1616TIP3   OH226482   5.524   5.851   1.647 -0.3198 -0.2712 -0.1951
 1616TIP3    H126483   5.512   5.855   1.552 -0.2183  1.3163 -0.1735
 1616TIP3    H226484   5.441   5.882   1.683  0.2375  0.8670  0.1706
 1617TIP3   OH226485   5.115   2.516   0.471 -0.5344 -0.2290 -0.6207
 1617TIP3    H126486   5.168   2.436   0.470  1.4761  0.8814  2.6772
 1617TIP3    H226487   5.033   2.490   0.512  0.7649 -0.4112  2.1076
 1618TIP3   OH226488   4.191   5.325   1.143 -0.8916 -0.5432  0.3441
 1618TIP3    H126489   4.282   5.318   1.171 -1.0761 -0.7903  0.8951
 1618TIP3    H226490   4.188   5.281   1.058 -0.2919  0.3625 -0.1680
 1619TIP3   OH226491   0.932   5.052   2.666  0.0367 -0.2788 -0.4426
 1619TIP3    H126492   0.883   4.979   2.629 -1.2060  0.2180  0.1492
 1619TIP3    H226493   0.885   5.073   2.747  0.3792  1.1623 -0.5992
 1620TIP3   OH226494   0.528   5.807   8.644  0.0881  0.1158  0.0513
 1620TIP3    H126495   0.459   5.757   8.600 -0.2416  0.3325  0.3185
 1620TIP3    H226496   0.592   5.741   8.669  0.8906  0.1198 -1.8348
 1621TIP3   OH226497   3.533   0.429   1.289 -0.6089  0.2344  0.1438
 1621TIP3    H126498   3.509   0.409   1.379 -0.0705  1.1551  0.5073
 1621TIP3    H226499   3.615   0.477   1.297 -0.4264  0.1027 -0.8575
 1622TIP3   OH226500   4.934   2.913   7.848  0.5593 -0.6916  0.1888
 1622TIP3    H126501   5.020   2.941   7.881 -0.2717  2.3852  0.0900
 1622TIP3    H226502   4.947   2.905   7.753  1.1296 -2.0248  0.3609
 1623TIP3   OH226503   0.695   1.962   0.856 -0.4219 -0.6151  0.2160
 1623TIP3    H126504   0.665   1.928   0.940 -0.9956 -0.6696 -0.0086
 1623TIP3    H226505   0.786   1.987   0.872 -0.6761 -0.1407  1.0025
 1624TIP3   OH226506   1.948   1.821   3.197 -0.3626  0.7734 -0.2367
 1624TIP3    H126507   2.014   1.860   3.253  0.4890 -0.2584 -0.4920
 1624TIP3    H226508   1.988   1.740   3.165 -1.6174  0.2962 -0.6686
 1625TIP3   OH226509   1.217   4.618   1.021  0.1666 -0.4718  0.1828
 1625TIP3    H126510   1.239   4.698   0.974 -1.6003 -0.1657 -0.2040
 1625TIP3    H226511   1.221   4.549   0.955 -0.5067 -0.3360 -0.0035
 1626TIP3   OH226512   3.702   2.709   0.306  0.0510 -0.0123  0.0767
 1626TIP3    H126513   3.626   2.676   0.354 -1.1744  2.3717 -0.0966
 1626TIP3    H226514   3.770   2.719   0.373 -0.3150 -0.5760  0.5395
 1627TIP3   OH226515   3.938   3.337   1.451  0.4908  0.1508 -0.1844
 1627TIP3    H126516   3.854   3.292   1.452 -0.2265  1.3886 -1.7494
 1627TIP3    H226517   3.937   3.391   1.531  1.0173 -1.8658  1.2671
 1628TIP3   OH226518   3.878   3.991   1.691  0.1773 -0.3256  0.2746
 1628TIP3    H126519   3.962   4.033   1.707  0.5629 -0.8960 -0.1750
 1628TIP3    H226520   3.882   3.965   1.599 -0.3170 -0.7401  0.3669
 1629TIP3   OH226521   0.262   0.115   2.126  0.6433  0.6108  0.7634
 1629TIP3    H126522   0.297   0.096   2.039 -0.9006  4.2312 -0.8622
 1629TIP3    H226523   0.172   0.082   2.124  0.9215 -0.2183  1.4122
 1630TIP3   OH226524   3.867   6.546   0.801 -0.6384 -0.7503  0.5011
 1630TIP3    H126525   3.780   6.508   0.810 -1.5401  0.9638 -0.4509
 1630TIP3    H226526   3.869   6.581   0.712  0.6264  0.1429  0.8441
 1631TIP3   OH226527   6.189   3.078   1.522  0.5015 -0.1270 -0.0723
 1631TIP3    H126528   6.212   2.991   1.555  0.3349  0.2211  0.9838
 1631TIP3    H226529   6.170   3.064   1.429  1.2691 -1.0699 -0.0981
 1632TIP3   OH226530   3.256   6.797   2.331  0.2069  0.0938 -0.6748
 1632TIP3    H126531   3.162   6.814   2.328  0.1041  0.0588  1.1967
 1632TIP3    H226532   3.289   6.826   2.245 -1.6377 -0.8772 -1.7617
 1633TIP3   OH226533   0.305   6.687   2.264 -0.0831  0.0055 -0.3139
 1633TIP3    H126534   0.325   6.719   2.352  3.7806 -2.4892 -0.0146
 1633TIP3    H226535   0.380   6.716   2.210 -1.5620  0.1196 -2.4374
 1634TIP3   OH226536   3.399   3.904   1.096  0.1401 -0.4391 -0.3092
 1634TIP3    H126537   3.414   3.993   1.064 -1.9607  0.0625 -0.0145
 1634TIP3    H226538   3.408   3.911   1.191  0.2924 -0.6194 -0.3095
 1635TIP3   OH226539   4.961   1.576   2.279  0.2859 -0.3284 -0.0346
 1635TIP3    H126540   5.042   1.553   2.234  0.5146 -0.6551  0.5288
 1635TIP3    H226541   4.988   1.590   2.370 -0.3082 -0.5413  0.1767
 1636TIP3   OH226542   6.363   6.642   6.722 -0.4395 -0.0652 -1.2076
 1636TIP3    H126543   6.409   6.561   6.742 -1.9477 -1.1578 -1.9793
 1636TIP3    H226544   6.276   6.631   6.760  0.2210  2.4994  1.4006
 1637TIP3   OH226545   6.429   6.686   8.458 -0.7367 -0.1212 -0.4321
 1637TIP3    H126546   6.491   6.758   8.446  2.6644 -2.6843  0.4338
 1637TIP3    H226547   6.380   6.710   8.536  1.1380  0.7667  0.5452
 1638TIP3   OH226548   6.789   3.267   2.017  0.1430 -0.2149 -0.0987
 1638TIP3    H126549   6.700   3.250   1.987  0.0391 -2.4946  1.2930
 1638TIP3    H226550   6.778   3.329   2.090 -0.2351  0.0148 -0.3471
 1639TIP3   OH226551   1.738   2.706   8.403 -0.0136 -0.4619  0.1818
 1639TIP3    H126552   1.692   2.746   8.477  0.5175 -1.0930  0.8763
 1639TIP3    H226553   1.674   2.707   8.332 -0.3462  0.6724  0.4726
 1640TIP3   OH226554   1.146   4.481   7.142 -0.6636  0.1537 -0.0992
 1640TIP3    H126555   1.112   4.570   7.156 -0.4481 -0.0442  2.0557
 1640TIP3    H226556   1.072   4.431   7.110 -1.7048  0.4197  1.7391
 1641TIP3   OH226557   3.174   6.544   0.421  0.6008  0.0828 -0.0412
 1641TIP3    H126558   3.170   6.490   0.342 -2.3970  1.1594 -0.7841
 1641TIP3    H226559   3.134   6.627   0.394 -2.0454 -0.0452  2.9097
 1642TIP3   OH226560   1.400   6.286   7.466 -0.0416  0.4272 -0.2566
 1642TIP3    H126561   1.317   6.314   7.428  0.3473  2.8441  0.4675
 1642TIP3    H226562   1.457   6.363   7.457  1.3384 -0.3373  1.4311
 1643TIP3   OH226563   2.062   2.093   7.659 -0.5449 -0.6501 -0.1956
 1643TIP3    H126564   2.021   2.007   7.653  1.5016 -1.8930  1.9872
 1643TIP3    H226565   2.098   2.109   7.572 -1.4127 -1.7481 -0.7789
 1644TIP3   OH226566   2.168   1.120   0.487 -0.0085 -0.0089  0.7311
 1644TIP3    H126567   2.239   1.063   0.459  0.2084  0.6820 -0.1514
 1644TIP3    H226568   2.169   1.114   0.583  1.3257  0.1016  0.7401
 1645TIP3   OH226569   5.071   3.507   0.520  0.1902 -0.3072 -0.1390
 1645TIP3    H126570   5.006   3.437   0.512  1.0093 -1.2920  1.3519
 1645TIP3    H226571   5.090   3.531   0.429 -1.3683 -0.8033 -0.6442
 1646TIP3   OH226572   0.660   0.385   8.330  0.0744 -0.1586  0.0006
 1646TIP3    H126573   0.735   0.426   8.373 -0.2234  0.9797 -0.5123
 1646TIP3    H226574   0.669   0.412   8.238  0.4149 -2.0929 -0.5814
 1647TIP3   OH226575   5.283   3.352   8.707 -0.0336 -0.4770 -0.3174
 1647TIP3    H126576   5.314   3.417   8.644  0.6535  0.2198  0.7063
 1647TIP3    H226577   5.290   3.268   8.662  0.4734  0.0085 -1.1507
 1648TIP3   OH226578   0.935   4.164   8.324  0.4709 -0.9531 -0.2213
 1648TIP3    H126579   0.949   4.132   8.413 -0.9899 -1.2369 -0.0714
 1648TIP3    H226580   0.918   4.085   8.272 -1.8691 -0.6150 -0.0972
 1649TIP3   OH226581   4.828   3.732   8.063 -0.2697  0.1128  0.6986
 1649TIP3    H126582   4.858   3.686   7.985  0.5759  0.4990  0.7804
 1649TIP3    H226583   4.891   3.803   8.074 -0.5777  0.2663  1.5382
 1650TIP3   OH226584   0.892   3.121   7.424 -0.0113 -0.1105  0.1123
 1650TIP3    H126585   0.875   3.099   7.515 -0.1491  0.7578  0.3072
 1650TIP3    H226586   0.853   3.049   7.374  0.9656 -1.1167  0.7602
 1651TIP3   OH226587   1.847   0.634   0.162 -0.0001 -0.0822  0.6653
 1651TIP3    H126588   1.837   0.694   0.236  2.4139 -1.0751  1.9083
 1651TIP3    H226589   1.897   0.683   0.098  0.1763 -0.0867  0.7995
 1652TIP3   OH226590   3.550   3.225   7.898 -0.1206 -0.2372 -0.3251
 1652TIP3    H126591   3.547   3.263   7.810 -0.7355  1.9038  0.5578
 1652TIP3    H226592   3.460   3.201   7.917 -0.3087  0.8697  0.3099
 1653TIP3   OH226593   1.656   6.530   1.516  0.0316 -0.1028 -0.2910
 1653TIP3    H126594   1.599   6.592   1.470 -1.9449  0.0286  2.1007
 1653TIP3    H226595   1.704   6.484   1.447 -1.1797  1.5131 -2.3016
 1654TIP3   OH226596   5.398   1.791   7.640  0.4398 -0.5593 -0.2831
 1654TIP3    H126597   5.417   1.782   7.733  0.1894  0.3242 -0.1411
 1654TIP3    H226598   5.418   1.705   7.603  2.2556 -0.4245  0.2895
 1655TIP3   OH226599   5.661   5.215   8.691  0.1446  0.0812 -0.6410
 1655TIP3    H126600   5.645   5.152   8.620  0.7588 -1.3386  0.4174
 1655TIP3    H226601   5.573   5.238   8.721 -0.1082  0.2494 -1.4777
 1656TIP3   OH226602   4.509   1.079   0.940  0.2044 -0.1899  0.0025
 1656TIP3    H126603   4.586   1.101   0.992 -0.6002  0.6245  0.9217
 1656TIP3    H226604   4.435   1.112   0.992 -0.6305  1.1421 -1.8877
 1657TIP3   OH226605   5.392   1.857   1.980  0.2687  0.0601 -0.5145
 1657TIP3    H126606   5.304   1.841   1.945 -0.5135  0.5530  1.0693
 1657TIP3    H226607   5.425   1.931   1.929 -0.1103 -0.3369 -1.3413
 1658TIP3   OH226608   4.782   0.338   0.475 -0.0352 -0.1862  0.4839
 1658TIP3    H126609   4.832   0.260   0.453 -0.8820 -0.7637  0.5815
 1658TIP3    H226610   4.699   0.328   0.428  0.4612  1.4470 -0.8318
 1659TIP3   OH226611   0.581   0.145   6.932 -0.1354  0.0660  0.0259
 1659TIP3    H126612   0.546   0.060   6.905 -2.5077  1.4070 -1.3932
 1659TIP3    H226613   0.537   0.164   7.015 -0.1436  0.2129 -0.0114
 1660TIP3   OH226614   0.985   2.064   0.827  0.1799  0.2612  0.0788
 1660TIP3    H126615   1.029   2.146   0.806 -0.1640  0.1194 -1.2649
 1660TIP3    H226616   0.959   2.074   0.919 -1.3980  2.3730 -0.5261
 1661TIP3   OH226617   6.008   4.290   0.222 -0.4444  0.4018 -0.2552
 1661TIP3    H126618   6.103   4.280   0.211 -0.8069 -2.0461 -2.2042
 1661TIP3    H226619   5.988   4.239   0.301 -0.1298  1.0765  0.2668
 1662TIP3   OH226620   0.400   6.525   2.537 -0.0475  0.4279 -0.4578
 1662TIP3    H126621   0.415   6.618   2.520 -1.0122  0.8176  0.6439
 1662TIP3    H226622   0.305   6.516   2.540  0.0268 -0.6935 -0.9874
 1663TIP3   OH226623   4.955   0.517   0.866 -0.2555 -0.0795  0.6765
 1663TIP3    H126624   4.966   0.495   0.774  0.9381  0.7819  0.5858
 1663TIP3    H226625   4.987   0.440   0.913  1.0721  0.2462  0.3541
 1664TIP3   OH226626   4.396   2.692   2.286 -0.3484  0.5231 -0.0243
 1664TIP3    H126627   4.343   2.715   2.210  0.2650  0.1630 -0.5801
 1664TIP3    H226628   4.418   2.775   2.328 -0.3232  0.7613 -0.5053
 1665TIP3   OH226629   5.528   1.489   0.493  0.3390  0.5583  0.6450
 1665TIP3    H126630   5.463   1.511   0.559  0.8068 -1.4987  1.8863
 1665TIP3    H226631   5.478   1.443   0.425  0.5536 -2.1113  2.1659
 1666TIP3   OH226632   1.101   5.820   0.928 -0.0108  0.0158 -0.3690
 1666TIP3    H126633   1.007   5.818   0.945  0.0332 -1.1258 -0.1919
 1666TIP3    H226634   1.109   5.841   0.835 -0.4833 -0.8119 -0.6103
 1667TIP3   OH226635   1.285   4.831   7.672 -0.1995  0.1689 -0.3014
 1667TIP3    H126636   1.239   4.883   7.738  0.0839  1.0103 -0.7551
 1667TIP3    H226637   1.378   4.851   7.687 -0.1239  0.2139 -0.8260
 1668TIP3   OH226638   5.525   0.879   8.333  0.6077  0.3436 -0.2544
 1668TIP3    H126639   5.453   0.901   8.393  1.8896 -0.4935  1.6825
 1668TIP3    H226640   5.500   0.795   8.295  1.1285 -0.6472  1.4786
 1669TIP3   OH226641   5.647   3.844   8.161 -0.1090 -0.5452 -0.3530
 1669TIP3    H126642   5.641   3.932   8.124 -1.6712 -1.2461 -1.8846
 1669TIP3    H226643   5.644   3.858   8.256 -1.1845  1.0091 -0.5719
 1670TIP3   OH226644   3.699   6.180   0.931  0.0310  0.2522 -1.1147
 1670TIP3    H126645   3.655   6.136   0.858 -2.0818  2.4451 -1.2844
 1670TIP3    H226646   3.694   6.117   1.003 -3.8129  0.3779 -1.0323
 1671TIP3   OH226647   3.232   0.257   2.329  0.5632 -0.2553 -0.8405
 1671TIP3    H126648   3.142   0.242   2.355  0.5308  2.5418  1.1487
 1671TIP3    H226649   3.285   0.213   2.396  0.5967  0.5800 -0.3041
 1672TIP3   OH226650   5.978   1.118   8.746 -0.0143  0.6700 -0.2407
 1672TIP3    H126651   5.972   1.039   8.799 -2.7269  0.9399 -0.0161
 1672TIP3    H226652   5.953   1.090   8.658  0.1317  1.0510 -0.4075
 1673TIP3   OH226653   3.269   2.180   7.434 -0.1781  0.2561 -0.5271
 1673TIP3    H126654   3.193   2.217   7.480 -0.7896  0.8028 -1.9088
 1673TIP3    H226655   3.230   2.128   7.363  0.7305  1.0024 -1.5982
 1674TIP3   OH226656   0.697   6.098   1.424  0.3931  0.0078  0.1978
 1674TIP3    H126657   0.609   6.108   1.458  1.0904  2.1764  1.5566
 1674TIP3    H226658   0.728   6.015   1.461 -0.7349 -0.3337  0.4234
 1675TIP3   OH226659   1.904   1.136   7.851 -0.0184  0.0238 -0.2255
 1675TIP3    H126660   1.884   1.214   7.799  0.2650  0.1369 -0.1641
 1675TIP3    H226661   1.818   1.106   7.882 -0.4353 -1.1786 -2.3417
 1676TIP3   OH226662   2.145   4.337   2.688 -0.1345 -0.1417  0.3020
 1676TIP3    H126663   2.099   4.409   2.646  2.2053  0.1896 -1.9046
 1676TIP3    H226664   2.144   4.266   2.624  2.9714  0.1459 -0.2172
 1677TIP3   OH226665   4.411   2.956   2.370  0.2810 -0.0801  0.6853
 1677TIP3    H126666   4.317   2.959   2.390  0.1825  2.1804  0.0668
 1677TIP3    H226667   4.453   2.984   2.451  0.3493  0.2833  0.5233
 1678TIP3   OH226668   6.643   0.782   7.353 -0.2717 -0.3871 -0.7495
 1678TIP3    H126669   6.726   0.815   7.320  0.3880 -1.6047 -0.3532
 1678TIP3    H226670   6.601   0.859   7.394  1.0930  0.0373 -0.0928
 1679TIP3   OH226671   5.784   3.950   2.746 -0.3963  0.4095 -0.4835
 1679TIP3    H126672   5.811   4.013   2.813  0.5351 -0.3270 -0.1408
 1679TIP3    H226673   5.689   3.961   2.740 -0.3173  1.4511 -0.0365
 1680TIP3   OH226674   5.693   3.622   1.529  0.0791 -0.6172  0.1537
 1680TIP3    H126675   5.625   3.575   1.575 -0.3989 -0.1853 -0.0989
 1680TIP3    H226676   5.697   3.581   1.443 -2.5497  1.7249 -1.2569
 1681TIP3   OH226677   5.157   6.799   6.988  0.0896  0.2243 -0.3126
 1681TIP3    H126678   5.159   6.887   7.026 -0.0861 -0.1693  0.6409
 1681TIP3    H226679   5.068   6.768   7.005  0.5531 -0.6595  0.5988
 1682TIP3   OH226680   5.352   0.684   0.401  0.1776 -0.0225  0.0862
 1682TIP3    H126681   5.402   0.730   0.468 -1.3847 -1.2433  2.2106
 1682TIP3    H226682   5.283   0.745   0.376 -1.2167 -0.6839  2.0775
 1683TIP3   OH226683   0.180   2.209   2.776  0.0869 -0.0949  0.2967
 1683TIP3    H126684   0.161   2.200   2.870  1.0525  1.1590  0.6450
 1683TIP3    H226685   0.094   2.209   2.734 -0.3435 -0.9762  1.1350
 1684TIP3   OH226686   2.576   5.001   8.366  0.0712  0.4175  0.1651
 1684TIP3    H126687   2.576   4.926   8.426 -1.1940 -0.1642 -0.4993
 1684TIP3    H226688   2.532   5.070   8.414 -0.9688 -0.0585 -0.0628
 1685TIP3   OH226689   3.089   5.277   0.501  0.2377  0.7416 -0.0299
 1685TIP3    H126690   3.010   5.275   0.448  0.7473  0.7334 -0.8059
 1685TIP3    H226691   3.112   5.185   0.514  0.2459  0.7495  0.0132
 1686TIP3   OH226692   5.314   4.862   0.490  0.1127  0.5876 -0.6058
 1686TIP3    H126693   5.252   4.927   0.522  0.9214 -0.1415  2.7463
 1686TIP3    H226694   5.388   4.867   0.549  0.2815 -3.2584 -0.2297
 1687TIP3   OH226695   5.621   0.045   8.519 -0.5534  0.0708  0.5093
 1687TIP3    H126696   5.568   0.025   8.441 -0.7256 -0.0177  0.6472
 1687TIP3    H226697   5.557   0.050   8.590 -0.4418  0.5359  0.5809
 1688TIP3   OH226698   2.388   5.232   1.601  0.6172 -0.1869  0.3663
 1688TIP3    H126699   2.330   5.222   1.675  0.8999  1.7809  0.9202
 1688TIP3    H226700   2.458   5.168   1.616  0.4350 -0.1255  1.5744
 1689TIP3   OH226701   1.299   4.144   7.629  0.1400  0.7245  0.0191
 1689TIP3    H126702   1.220   4.155   7.681 -0.4274  0.1830 -0.7034
 1689TIP3    H226703   1.367   4.122   7.693 -0.3370  0.9931  0.6246
 1690TIP3   OH226704   5.485   0.173   1.246  0.3747 -0.3066 -0.5594
 1690TIP3    H126705   5.475   0.218   1.162  0.2146  1.3163  0.2903
 1690TIP3    H226706   5.551   0.223   1.293  1.0294 -1.6495  0.0147
 1691TIP3   OH226707   2.607   0.737   1.955 -0.2160 -0.4752  0.4206
 1691TIP3    H126708   2.626   0.644   1.968 -0.9111 -0.4527  1.8117
 1691TIP3    H226709   2.530   0.738   1.898 -1.0759 -0.8221  1.5403
 1692TIP3   OH226710   3.291   5.125   0.006  0.0559 -0.2786  0.2048
 1692TIP3    H126711   3.236   5.202   0.016  1.7969  0.9968  0.3895
 1692TIP3    H226712   3.381   5.158   0.010  0.8807 -2.1064 -1.2504
 1693TIP3   OH226713   2.108   6.067   8.263 -0.1057 -0.4744  0.3099
 1693TIP3    H126714   2.199   6.067   8.235  0.1990  1.4559  1.1806
 1693TIP3    H226715   2.111   6.051   8.357 -0.7259 -0.9353  0.2648
 1694TIP3   OH226716   2.320   0.785   1.277  0.2182 -0.1127 -0.3360
 1694TIP3    H126717   2.364   0.730   1.341  0.8166 -0.6921 -1.2076
 1694TIP3    H226718   2.341   0.744   1.192 -2.3507 -0.6518 -0.7890
 1695TIP3   OH226719   1.749   0.405   1.875 -0.5999 -0.4263  0.5033
 1695TIP3    H126720   1.751   0.500   1.885  0.9975 -0.2443 -1.1895
 1695TIP3    H226721   1.656   0.383   1.881 -0.9704  1.1719  1.2617
 1696TIP3   OH226722   2.880   5.134   2.029  0.1739  0.2879  0.1237
 1696TIP3    H126723   2.829   5.063   1.989  0.9390  0.9921 -2.2658
 1696TIP3    H226724   2.968   5.097   2.040  0.0571  0.2178  0.8664
 1697TIP3   OH226725   1.525   3.113   2.014 -0.3300 -0.0713  0.5598
 1697TIP3    H126726   1.506   3.122   1.921 -0.9188  1.0366  0.7723
 1697TIP3    H226727   1.468   3.042   2.044 -1.5533  0.8585  0.4652
 1698TIP3   OH226728   3.090   2.394   2.282 -0.1737  0.6403  0.0408
 1698TIP3    H126729   3.047   2.397   2.367 -0.8197  1.9795 -0.3062
 1698TIP3    H226730   3.041   2.455   2.228  0.8005  0.5156 -1.0338
 1699TIP3   OH226731   1.236   6.283   3.006  0.2080 -0.0682 -0.3661
 1699TIP3    H126732   1.194   6.286   3.092  0.5552  0.8670 -0.2116
 1699TIP3    H226733   1.320   6.239   3.022  0.0118 -0.4302 -0.3421
 1700TIP3   OH226734   3.444   1.331   2.694 -0.0074  0.0907  0.3967
 1700TIP3    H126735   3.356   1.366   2.712 -0.5829 -1.0122 -0.1337
 1700TIP3    H226736   3.444   1.246   2.737  0.0430 -0.8225 -1.3232
 1701TIP3   OH226737   3.744   0.565   1.381  0.8193  0.3648 -0.3450
 1701TIP3    H126738   3.718   0.579   1.472  0.5455  1.8726 -0.6213
 1701TIP3    H226739   3.828   0.610   1.373  1.8646 -1.5203 -0.3404
 1702TIP3   OH226740   6.543   6.797   7.683 -0.2645 -0.1105 -0.0877
 1702TIP3    H126741   6.580   6.721   7.727 -0.6081  0.1996  0.7423
 1702TIP3    H226742   6.583   6.872   7.727  0.8698  0.2116 -1.5744
 1703TIP3   OH226743   2.630   4.921   2.863 -0.5698  0.2124  0.1629
 1703TIP3    H126744   2.676   4.949   2.942 -0.9063  0.8015  0.1566
 1703TIP3    H226745   2.661   4.832   2.847 -1.2854 -0.3021  1.5460
 1704TIP3   OH226746   1.813   0.369   7.788  0.2429  0.4274  0.3386
 1704TIP3    H126747   1.866   0.305   7.836  2.2299  0.0314 -2.1275
 1704TIP3    H226748   1.787   0.323   7.708 -2.6211  1.1607  0.7322
 1705TIP3   OH226749   3.704   5.624   2.277 -0.3205 -0.2043 -0.0273
 1705TIP3    H126750   3.743   5.710   2.291 -1.4979  0.2627  0.5076
 1705TIP3    H226751   3.712   5.580   2.362  0.2643 -0.6348 -0.2943
 1706TIP3   OH226752   1.643   4.801   8.575 -0.1881 -0.0178  0.0564
 1706TIP3    H126753   1.691   4.875   8.612  0.3956 -0.9228  1.1776
 1706TIP3    H226754   1.711   4.744   8.539 -0.5678 -0.4029 -0.0542
 1707TIP3   OH226755   0.485   4.726   0.754  0.1792 -0.0781  0.1167
 1707TIP3    H126756   0.476   4.687   0.667  0.1144 -0.5658  0.3374
 1707TIP3    H226757   0.514   4.815   0.737  1.2824 -0.5075 -0.3638
 1708TIP3   OH226758   0.186   4.605   8.125  0.1909 -0.5547 -0.6374
 1708TIP3    H126759   0.107   4.570   8.084  1.5021 -2.5718 -1.6218
 1708TIP3    H226760   0.197   4.692   8.087 -1.1581 -0.5287 -1.0117
 1709TIP3   OH226761   4.410   1.841   2.033 -0.5645  0.3176 -0.2339
 1709TIP3    H126762   4.478   1.868   2.095 -2.0209 -0.8701  2.0353
 1709TIP3    H226763   4.452   1.774   1.979 -0.0359 -0.8775  1.5565
 1710TIP3   OH226764   6.019   6.834   7.823 -0.0656 -0.2481 -0.1469
 1710TIP3    H126765   6.102   6.871   7.853 -1.3605  1.2425  1.9204
 1710TIP3    H226766   5.987   6.897   7.759 -0.1409 -0.1667 -0.0314
 1711TIP3   OH226767   4.494   5.502   8.476  0.3682 -0.4927 -0.0180
 1711TIP3    H126768   4.506   5.478   8.384 -2.1024  3.0672 -1.5262
 1711TIP3    H226769   4.568   5.560   8.496  0.3992 -0.5013 -0.1084
 1712TIP3   OH226770   3.881   4.619   1.873 -0.1381 -0.2174 -0.1396
 1712TIP3    H126771   3.862   4.653   1.960  2.0467 -0.8167  0.6368
 1712TIP3    H226772   3.915   4.531   1.888  0.2223 -0.3544 -1.6123
 1713TIP3   OH226773   4.407   4.701   8.678  0.0023 -0.3398 -0.7787
 1713TIP3    H126774   4.428   4.739   8.763 -1.6161 -0.4751 -0.2904
 1713TIP3    H226775   4.476   4.636   8.662  0.2692 -0.3702  0.4512
 1714TIP3   OH226776   3.915   1.857   2.089  0.4907  0.0967 -0.7871
 1714TIP3    H126777   3.862   1.838   2.011  1.6753 -1.6410 -1.2420
 1714TIP3    H226778   3.990   1.798   2.081 -0.5152 -2.0143  2.8964
 1715TIP3   OH226779   4.670   5.070   0.412  0.2426  0.0746 -0.9594
 1715TIP3    H126780   4.740   5.135   0.402  2.1808 -1.8987 -0.9633
 1715TIP3    H226781   4.648   5.045   0.322 -1.4665  1.5753 -1.0341
 1716TIP3   OH226782   5.828   5.028   8.378 -0.1001  0.5913  0.2264
 1716TIP3    H126783   5.751   4.984   8.415 -0.0255 -1.0577 -1.4234
 1716TIP3    H226784   5.795   5.068   8.297  0.3034  1.8734  0.6757
 1717TIP3   OH226785   1.356   5.003   0.189  0.0648 -0.0724 -0.1671
 1717TIP3    H126786   1.325   5.093   0.201 -1.3003 -0.5001 -0.3879
 1717TIP3    H226787   1.349   4.963   0.276  1.9928  0.3965  0.2582
 1718TIP3   OH226788   1.423   0.784   1.565 -0.1290 -0.0619  0.6632
 1718TIP3    H126789   1.478   0.861   1.579  0.7366 -0.4483 -0.4897
 1718TIP3    H226790   1.464   0.715   1.618  0.5512 -0.3602 -0.2261
 1719TIP3   OH226791   6.303   1.552   8.336  0.5997 -0.0731 -0.0747
 1719TIP3    H126792   6.209   1.570   8.344  0.4402 -1.1439  0.7449
 1719TIP3    H226793   6.311   1.460   8.358  2.0335  0.3660  1.4193
 1720TIP3   OH226794   0.319   3.282   1.743  0.2447  0.1641  0.5149
 1720TIP3    H126795   0.376   3.359   1.739  1.1975 -0.5706 -0.5985
 1720TIP3    H226796   0.232   3.318   1.760  0.5061  1.5810 -0.8666
 1721TIP3   OH226797   5.499   1.976   8.285  0.1336 -0.1526  0.1160
 1721TIP3    H126798   5.568   2.012   8.341 -0.0860 -0.8923  0.8741
 1721TIP3    H226799   5.534   1.984   8.196  0.6264  0.7211  0.3765
 1722TIP3   OH226800   1.983   2.101   0.778 -0.3274  0.0308  0.9853
 1722TIP3    H126801   2.018   2.116   0.865  0.9898 -1.8422  0.8414
 1722TIP3    H226802   1.912   2.165   0.769  1.2398  2.0847  2.3597
 1723TIP3   OH226803   4.329   0.690   2.504  0.5007  0.2040  0.4872
 1723TIP3    H126804   4.397   0.748   2.472  0.2935 -0.2652 -0.8496
 1723TIP3    H226805   4.309   0.723   2.592  1.1598  1.4628  0.1899
 1724TIP3   OH226806   3.865   2.428   2.553 -0.0277  0.1366 -0.2760
 1724TIP3    H126807   3.822   2.364   2.610  2.3176 -2.6214 -1.3397
 1724TIP3    H226808   3.795   2.460   2.496 -1.6430 -0.0338  1.5135
 1725TIP3   OH226809   1.829   3.874   8.527  0.8455 -0.4499 -0.5983
 1725TIP3    H126810   1.768   3.872   8.600  1.2189 -1.4053 -0.2895
 1725TIP3    H226811   1.847   3.966   8.512 -0.1694 -0.1842 -0.2806
 1726TIP3   OH226812   0.037   3.870   2.426 -0.1402  0.0921  0.1923
 1726TIP3    H126813   0.028   3.775   2.419  0.5725  0.0661 -0.4753
 1726TIP3    H226814   0.061   3.899   2.338 -0.7641  0.9472  0.2849
 1727TIP3   OH226815   6.183   1.906   1.431 -0.2944 -0.2043  0.6938
 1727TIP3    H126816   6.270   1.866   1.426  0.2894  1.1327 -1.4915
 1727TIP3    H226817   6.197   1.991   1.471 -0.5159  0.1491  0.0431
 1728TIP3   OH226818   2.605   4.324   2.690  0.3925  0.3805 -0.2596
 1728TIP3    H126819   2.530   4.316   2.749 -0.3310  2.1980 -0.8711
 1728TIP3    H226820   2.681   4.320   2.748 -0.0814 -2.0321  0.3195
 1729TIP3   OH226821   1.232   3.576   2.662 -0.4754  0.5713 -0.1137
 1729TIP3    H126822   1.163   3.551   2.725 -0.7207  0.4107 -0.4442
 1729TIP3    H226823   1.187   3.631   2.598 -0.0814  1.2836  0.2164
 1730TIP3   OH226824   4.426   0.472   2.378  0.5198 -0.0649  0.3241
 1730TIP3    H126825   4.448   0.468   2.471  0.5561  1.3749  0.4030
 1730TIP3    H226826   4.336   0.504   2.375 -0.0110 -1.4893 -0.1291
 1731TIP3   OH226827   5.695   3.532   1.271  0.0920 -0.4833 -0.0155
 1731TIP3    H126828   5.782   3.507   1.238  0.2654  1.9643 -1.7347
 1731TIP3    H226829   5.634   3.494   1.207  0.0816 -0.1598 -0.2018
 1732TIP3   OH226830   4.206   3.496   1.138  0.2264 -0.0136 -0.8219
 1732TIP3    H126831   4.195   3.424   1.200 -0.6693  0.8709  0.0804
 1732TIP3    H226832   4.281   3.546   1.172 -0.9029  1.0593  0.1813
 1733TIP3   OH226833   2.408   4.818   2.021  0.5238 -0.0369  0.7593
 1733TIP3    H126834   2.471   4.793   2.088  0.5203 -0.1548  0.7197
 1733TIP3    H226835   2.339   4.866   2.068 -0.2641 -1.4341  1.0949
 1734TIP3   OH226836   4.531   3.689   7.709 -0.0045 -0.5640  0.3965
 1734TIP3    H126837   4.548   3.633   7.633 -0.2941 -2.2158  1.4913
 1734TIP3    H226838   4.596   3.759   7.702 -0.1139 -0.5993 -1.4273
 1735TIP3   OH226839   0.431   5.181   1.923  0.0683  0.1071 -0.6019
 1735TIP3    H126840   0.433   5.108   1.985  1.3186 -0.6153 -1.4368
 1735TIP3    H226841   0.358   5.161   1.864 -1.1290  0.8019  0.6014
 1736TIP3   OH226842   6.520   2.426   1.200 -0.7092  0.2598  0.5670
 1736TIP3    H126843   6.605   2.460   1.171 -0.0417 -0.1947  1.9178
 1736TIP3    H226844   6.525   2.427   1.296 -2.1848  0.0880  0.6740
 1737TIP3   OH226845   2.930   1.078   2.041 -0.0264  0.3633 -0.0297
 1737TIP3    H126846   2.980   0.998   2.057  0.1886  0.3030 -0.9102
 1737TIP3    H226847   2.981   1.147   2.082  0.3806  0.1921 -0.2373
 1738TIP3   OH226848   0.054   1.194   7.824  0.6392 -0.4181  0.3448
 1738TIP3    H126849  -0.003   1.206   7.748  0.7401  0.9977  0.4749
 1738TIP3    H226850   0.141   1.219   7.793  0.8230 -0.6078  0.7040
 1739TIP3   OH226851   6.303   0.353   2.126 -0.1348  0.4912  0.2397
 1739TIP3    H126852   6.302   0.269   2.172 -2.1047  0.8128  0.8811
 1739TIP3    H226853   6.380   0.398   2.160  0.6792 -0.8396  0.2379
 1740TIP3   OH226854   0.636   5.862   2.967 -0.2366 -0.4618 -0.7377
 1740TIP3    H126855   0.654   5.908   2.884 -1.0980 -0.4187 -0.9134
 1740TIP3    H226856   0.543   5.876   2.982 -0.0638 -0.3594  0.3179
 1741TIP3   OH226857   4.508   4.097   0.460 -0.1483  0.1804 -0.0097
 1741TIP3    H126858   4.491   4.191   0.467 -2.5545 -0.1201 -0.8755
 1741TIP3    H226859   4.465   4.060   0.537  0.5697 -0.2540  0.1905
 1742TIP3   OH226860   0.978   6.519   6.993 -0.7461 -0.3892  0.1627
 1742TIP3    H126861   0.903   6.471   7.027 -0.1350 -1.6180 -0.1467
 1742TIP3    H226862   1.054   6.472   7.028 -0.1247  0.5017  0.0367
 1743TIP3   OH226863   5.602   4.671   2.348 -0.2555  0.3230 -0.1100
 1743TIP3    H126864   5.627   4.730   2.419 -0.3678 -0.3804  0.5137
 1743TIP3    H226865   5.634   4.715   2.269 -0.1527  1.1203  0.3643
 1744TIP3   OH226866   2.221   2.616   0.940 -0.0864  0.6905  0.3909
 1744TIP3    H126867   2.142   2.615   0.886 -0.2442 -0.4881  0.6094
 1744TIP3    H226868   2.193   2.654   1.023 -0.8598 -1.1758  1.0399
 1745TIP3   OH226869   3.654   0.730   8.718  0.0543  0.3590  0.2897
 1745TIP3    H126870   3.588   0.717   8.649  0.7462 -0.9368 -0.1715
 1745TIP3    H226871   3.738   0.726   8.671  0.4853  2.0567  0.8568
 1746TIP3   OH226872   1.726   4.059   0.068  0.2391  0.2364  0.8057
 1746TIP3    H126873   1.694   4.148   0.060 -0.1602 -0.1048 -3.0028
 1746TIP3    H226874   1.651   4.004   0.045  1.2181 -0.9472  0.3293
 1747TIP3   OH226875   1.451   3.013   1.755 -0.5579  0.3615  0.5035
 1747TIP3    H126876   1.494   3.027   1.670 -2.5905  0.9509 -0.4924
 1747TIP3    H226877   1.420   2.923   1.751 -1.7032  0.7615  0.0949
 1748TIP3   OH226878   0.152   2.501   3.326 -0.5746  0.3566  0.2529
 1748TIP3    H126879   0.106   2.583   3.307  1.2015  0.9650 -1.7628
 1748TIP3    H226880   0.214   2.524   3.395 -0.6222  0.5235  0.2401
 1749TIP3   OH226881   6.209   2.181   7.417  0.7167  0.3225  0.3671
 1749TIP3    H126882   6.272   2.224   7.360  0.9624  0.3020  0.6194
 1749TIP3    H226883   6.123   2.205   7.382  0.8652  0.3576  0.0284
 1750TIP3   OH226884   6.167   0.935   0.154  0.0997 -0.1107 -0.0779
 1750TIP3    H126885   6.189   0.869   0.087  0.6100  0.4380 -0.4608
 1750TIP3    H226886   6.252   0.966   0.186 -0.1426 -0.2062  0.6750
 1751TIP3   OH226887   6.615   2.978   3.064 -0.4659  0.3567  0.4822
 1751TIP3    H126888   6.535   3.001   3.018 -1.2124 -1.5967  0.6969
 1751TIP3    H226889   6.587   2.959   3.154  0.3375  0.2926  0.7299
 1752TIP3   OH226890   5.093   3.690   8.720 -0.0582  0.1503  0.0485
 1752TIP3    H126891   5.069   3.747   8.647  1.0034  0.4675 -0.0700
 1752TIP3    H226892   5.165   3.637   8.686  0.5575  0.4149  0.9091
 1753TIP3   OH226893   2.434   6.608   0.759 -0.4739  0.4808  0.6021
 1753TIP3    H126894   2.399   6.659   0.687 -1.0703  1.9827  1.9053
 1753TIP3    H226895   2.519   6.578   0.728 -1.4956 -0.4948 -1.3955
 1754TIP3   OH226896   4.997   0.448   1.357  0.0638 -0.4744 -0.2716
 1754TIP3    H126897   4.959   0.475   1.440 -0.3495 -0.3169 -0.5089
 1754TIP3    H226898   5.001   0.528   1.305  0.2806 -0.5784 -0.4183
 1755TIP3   OH226899   1.558   4.281   7.192  0.0477  0.5845  0.0771
 1755TIP3    H126900   1.588   4.226   7.119 -1.4048  0.1265 -0.2011
 1755TIP3    H226901   1.541   4.219   7.262  0.2957  0.9055  0.4239
 1756TIP3   OH226902   4.506   4.642   0.597 -0.1917 -0.3457 -0.2390
 1756TIP3    H126903   4.475   4.727   0.567  0.8040  0.6175  1.3183
 1756TIP3    H226904   4.489   4.642   0.692  1.7452 -1.0000  0.1518
 1757TIP3   OH226905   6.613   1.495   2.066  0.4175  0.0908 -0.2198
 1757TIP3    H126906   6.521   1.470   2.058  0.7191 -0.9317 -0.6750
 1757TIP3    H226907   6.661   1.427   2.018  1.3534  1.0501 -0.7046
 1758TIP3   OH226908   4.481   6.739   2.204  0.0168 -0.6329 -0.0217
 1758TIP3    H126909   4.440   6.740   2.117 -0.7095 -0.1085  0.3166
 1758TIP3    H226910   4.549   6.806   2.198 -0.4163 -0.1824 -0.0198
 1759TIP3   OH226911   6.369   2.726   2.890  0.0411 -0.3801 -0.1597
 1759TIP3    H126912   6.317   2.734   2.811 -0.0606 -1.3176 -0.1925
 1759TIP3    H226913   6.406   2.814   2.903 -0.2769 -0.1115 -1.0000
 1760TIP3   OH226914   4.928   6.758   7.199 -0.2862 -0.2969 -0.1010
 1760TIP3    H126915   4.870   6.685   7.174 -1.0735 -0.0016  0.8060
 1760TIP3    H226916   4.869   6.825   7.234  0.5100  0.4514 -0.1436
 1761TIP3   OH226917   5.774   2.365   0.868  0.3667  0.2867 -0.2574
 1761TIP3    H126918   5.827   2.353   0.790  2.4928  0.7129  1.0240
 1761TIP3    H226919   5.819   2.315   0.936 -0.4096  1.3321  1.0905
 1762TIP3   OH226920   6.588   5.688   6.974  0.5056  0.3032 -0.0126
 1762TIP3    H126921   6.674   5.671   7.014  0.0332  0.9701  1.3719
 1762TIP3    H226922   6.528   5.696   7.049 -0.2939  2.4149 -0.7781
 1763TIP3   OH226923   2.301   0.584   0.152 -0.3444  0.2359 -0.5018
 1763TIP3    H126924   2.394   0.583   0.129 -0.4911  1.0442 -1.1790
 1763TIP3    H226925   2.279   0.677   0.158 -0.3577  0.1463  2.9331
 1764TIP3   OH226926   5.691   0.334   1.357 -0.0766 -0.1796 -0.3529
 1764TIP3    H126927   5.703   0.360   1.448  0.1960  1.1501 -0.7483
 1764TIP3    H226928   5.767   0.279   1.337 -0.7823 -1.5453  0.5642
 1765TIP3   OH226929   3.293   5.010   0.537  0.0430 -0.0936  0.0762
 1765TIP3    H126930   3.225   5.006   0.470 -0.3915 -0.4924  0.5282
 1765TIP3    H226931   3.247   4.988   0.618  0.3438  1.3690  0.6645
 1766TIP3   OH226932   1.730   1.370   1.063 -0.1642  0.1818 -0.0626
 1766TIP3    H126933   1.698   1.394   0.976  2.4193 -2.3579 -1.8453
 1766TIP3    H226934   1.784   1.445   1.090 -1.1657  1.0862 -0.4857
 1767TIP3   OH226935   5.641   3.476   2.459  0.4258 -0.6264  0.2519
 1767TIP3    H126936   5.621   3.550   2.517  1.9016  0.7133 -0.9028
 1767TIP3    H226937   5.574   3.480   2.391  0.0008 -0.8941  0.6433
 1768TIP3   OH226938   1.984   4.669   1.882  0.6871 -0.2426 -0.4224
 1768TIP3    H126939   2.019   4.704   1.800 -2.5533 -0.8679 -2.2742
 1768TIP3    H226940   1.969   4.576   1.863 -0.9564 -0.2022  0.5435
 1769TIP3   OH226941   1.408   4.231   2.915 -0.0543  0.2731  0.0645
 1769TIP3    H126942   1.313   4.234   2.926 -0.0414  0.9223  0.0085
 1769TIP3    H226943   1.438   4.319   2.936  0.4674  0.2549 -0.5727
 1770TIP3   OH226944   4.331   3.535   1.849  0.3505 -0.1097 -0.3584
 1770TIP3    H126945   4.426   3.533   1.834  0.5170 -0.0102  0.6122
 1770TIP3    H226946   4.322   3.554   1.943 -0.6145 -1.4123 -0.1609
 1771TIP3   OH226947   2.179   5.608   1.095 -0.0405 -0.3199  0.3424
 1771TIP3    H126948   2.159   5.518   1.067  1.3438 -0.3767 -0.5968
 1771TIP3    H226949   2.121   5.663   1.043  0.9790 -0.5575 -1.1361
 1772TIP3   OH226950   1.710   0.113   2.133  0.5946  0.0762  0.2854
 1772TIP3    H126951   1.677   0.201   2.153 -0.1788  0.2857 -1.7311
 1772TIP3    H226952   1.751   0.084   2.215 -1.7041  1.1274  1.9189
 1773TIP3   OH226953   3.149   1.467   0.374 -0.1235 -0.4005  0.3218
 1773TIP3    H126954   3.171   1.528   0.444  0.0785  1.3920 -1.2221
 1773TIP3    H226955   3.066   1.500   0.338  0.4018 -0.5274 -1.0714
 1774TIP3   OH226956   5.302   6.850   0.355 -0.1899  0.3468  0.0301
 1774TIP3    H126957   5.224   6.797   0.376 -0.2402 -0.6676 -2.3924
 1774TIP3    H226958   5.267   6.936   0.333 -0.5153  0.2061 -0.0115
 1775TIP3   OH226959   6.354   4.862   0.725 -0.4916 -0.3492 -0.0126
 1775TIP3    H126960   6.400   4.934   0.767  0.5528 -0.4514 -0.9296
 1775TIP3    H226961   6.291   4.905   0.666  0.3265 -0.1539 -0.7715
 1776TIP3   OH226962   1.146   4.763   0.314 -0.3486 -0.3487 -0.5422
 1776TIP3    H126963   1.067   4.736   0.361  0.0531 -0.7202 -0.0773
 1776TIP3    H226964   1.113   4.801   0.232 -0.9847 -1.0628 -0.6326
 1777TIP3   OH226965   1.273   4.388   0.170 -0.0123  0.1705 -0.4423
 1777TIP3    H126966   1.304   4.443   0.242 -0.0132  0.9864 -1.0541
 1777TIP3    H226967   1.211   4.443   0.122  0.1980 -0.2583 -1.2328
 1778TIP3   OH226968   4.524   1.639   7.238  0.3094  0.2196  0.0144
 1778TIP3    H126969   4.486   1.719   7.200 -0.3786 -0.3155 -0.4463
 1778TIP3    H226970   4.483   1.632   7.324 -1.0231 -0.5921 -0.6504
 1779TIP3   OH226971   2.579   1.291   1.913  0.0251 -0.2808  0.6917
 1779TIP3    H126972   2.587   1.210   1.962  1.0843 -1.2030 -0.8982
 1779TIP3    H226973   2.498   1.282   1.864 -1.0779  0.6775  2.2685
 1780TIP3   OH226974   0.256   5.371   1.114 -0.3843  0.4748  0.1962
 1780TIP3    H126975   0.182   5.324   1.152  1.2384 -0.1225  2.9855
 1780TIP3    H226976   0.257   5.454   1.161  0.0899  0.9326 -0.6087
 1781TIP3   OH226977   6.670   2.398   0.853 -0.3593 -0.1549 -0.0703
 1781TIP3    H126978   6.704   2.443   0.930 -2.2040 -0.3517  0.9038
 1781TIP3    H226979   6.736   2.415   0.785  0.1114  2.1196  0.8442
 1782TIP3   OH226980   0.905   4.059   0.489 -0.4322  0.2205 -0.1828
 1782TIP3    H126981   0.911   4.118   0.565  0.0689 -0.4479  0.3030
 1782TIP3    H226982   0.953   3.981   0.515 -1.4355 -0.5811 -0.6668
 1783TIP3   OH226983   4.922   5.814   1.046  0.2240 -0.0951 -0.2205
 1783TIP3    H126984   4.842   5.825   1.096  1.0944  1.0707  0.9838
 1783TIP3    H226985   4.918   5.724   1.014 -1.6275 -0.0017 -0.3667
 1784TIP3   OH226986   3.424   4.765   8.649 -0.7132 -0.4294  0.1294
 1784TIP3    H126987   3.450   4.838   8.592 -2.2483  2.3876  2.6875
 1784TIP3    H226988   3.351   4.724   8.604 -2.5194  2.3190  0.2672
 1785TIP3   OH226989   3.260   2.297   2.671 -0.6869 -0.2558  0.1532
 1785TIP3    H126990   3.273   2.251   2.754  0.7954  0.8326  0.5864
 1785TIP3    H226991   3.201   2.369   2.693  0.7830  0.8593  0.6527
 1786TIP3   OH226992   2.187   4.221   8.611  0.3554  0.1388 -0.1377
 1786TIP3    H126993   2.232   4.271   8.542 -1.2647 -0.3977 -1.6558
 1786TIP3    H226994   2.175   4.134   8.573 -1.1179  0.0058  0.5630
 1787TIP3   OH226995   4.480   4.653   1.724 -0.8397 -0.4819  0.9755
 1787TIP3    H126996   4.468   4.701   1.805 -0.5464 -0.4535  1.0028
 1787TIP3    H226997   4.525   4.573   1.749 -1.9023 -1.0887  1.0242
 1788TIP3   OH226998   2.382   2.068   7.908 -0.1272 -0.1912  0.1130
 1788TIP3    H126999   2.456   2.076   7.847 -0.3813 -0.2613 -0.2110
 1788TIP3    H227000   2.382   2.150   7.957 -0.7855  0.4966 -0.9826
 1789TIP3   OH227001   4.311   1.028   1.777 -0.1928  0.4885 -0.1032
 1789TIP3    H127002   4.230   1.032   1.828 -0.4692  0.9330 -0.5651
 1789TIP3    H227003   4.284   0.987   1.694  0.4513 -1.1966  0.4675
 1790TIP3   OH227004   5.014   3.354   7.870  0.7629 -0.3843 -0.0946
 1790TIP3    H127005   4.958   3.336   7.946  0.1261  0.0205 -0.4520
 1790TIP3    H227006   4.991   3.444   7.845  1.0128 -0.4908 -0.7178
 1791TIP3   OH227007   2.549   4.473   7.516  0.1327 -0.2122  0.3713
 1791TIP3    H127008   2.596   4.458   7.598 -1.0584  0.8957  1.2838
 1791TIP3    H227009   2.569   4.563   7.493 -0.7880 -0.0213  0.2772
 1792TIP3   OH227010   2.488   2.647   2.895  0.2317  0.4425  0.2126
 1792TIP3    H127011   2.462   2.584   2.962 -0.1306 -1.0830 -1.2836
 1792TIP3    H227012   2.583   2.636   2.887  0.2158  0.3161  0.1935
 1793TIP3   OH227013   3.351   0.738   2.108 -0.0669  0.0882 -0.0025
 1793TIP3    H127014   3.345   0.764   2.016 -2.1000 -0.4835 -0.0812
 1793TIP3    H227015   3.353   0.642   2.105 -2.7978 -0.0637  0.5661
 1794TIP3   OH227016   0.563   4.949   2.497 -0.7991 -0.3373  0.0685
 1794TIP3    H127017   0.658   4.939   2.501 -0.8328 -0.8995 -0.3915
 1794TIP3    H227018   0.550   5.040   2.472 -0.4384  0.3249  2.1162
 1795TIP3   OH227019   5.329   6.661   0.120 -0.3102 -0.1081 -0.4346
 1795TIP3    H127020   5.313   6.580   0.169 -0.5573 -0.1163 -0.5289
 1795TIP3    H227021   5.361   6.723   0.186  0.9220 -0.5952 -0.5462
 1796TIP3   OH227022   0.790   0.139   0.315  0.1932  0.0930 -0.2574
 1796TIP3    H127023   0.876   0.147   0.274 -0.3183  2.4702 -1.0823
 1796TIP3    H227024   0.781   0.220   0.366 -1.2748 -0.4365  0.3710
 1797TIP3   OH227025   4.209   3.780   8.224  0.0854  0.0903 -0.5843
 1797TIP3    H127026   4.197   3.687   8.202  0.5944  0.3211 -1.9830
 1797TIP3    H227027   4.133   3.802   8.277  0.2623 -1.2797  0.2987
 1798TIP3   OH227028   5.643   2.902   0.744  0.4196  0.0735  0.0650
 1798TIP3    H127029   5.610   2.906   0.654 -0.9559 -1.9627  0.4080
 1798TIP3    H227030   5.608   2.981   0.785 -1.6806 -0.5467 -0.3819
 1799TIP3   OH227031   4.760   2.863   0.770 -0.5135  0.3502 -0.3610
 1799TIP3    H127032   4.668   2.874   0.793 -1.1956  1.4318 -3.2423
 1799TIP3    H227033   4.796   2.951   0.773  0.7594 -0.1708  1.6760
 1800TIP3   OH227034   2.154   4.499   1.033  0.2986  0.2078  0.3789
 1800TIP3    H127035   2.079   4.514   1.090  0.1046  0.5051  0.0513
 1800TIP3    H227036   2.191   4.416   1.063 -1.3631 -1.0249 -0.7722
 1801TIP3   OH227037   4.494   6.715   1.634  0.5364 -0.5140  0.1197
 1801TIP3    H127038   4.414   6.671   1.605  1.4393 -1.5495 -0.9022
 1801TIP3    H227039   4.565   6.660   1.602  1.6872  0.7313  0.4201
 1802TIP3   OH227040   1.669   6.239   8.322 -0.5867 -0.1083 -0.0275
 1802TIP3    H127041   1.612   6.181   8.373  1.5519 -0.9638  1.5568
 1802TIP3    H227042   1.739   6.182   8.290  0.1322  1.1272 -0.7356
 1803TIP3   OH227043   6.836   2.488   8.280  0.6878  0.3320 -0.0271
 1803TIP3    H127044   6.759   2.500   8.335  1.2301  0.6131  0.6979
 1803TIP3    H227045   6.833   2.397   8.252 -0.4516  0.6092 -0.8652
 1804TIP3   OH227046   6.332   3.963   0.324  0.8793 -0.1289 -0.2498
 1804TIP3    H127047   6.330   4.011   0.241 -0.0794 -0.7031 -0.5780
 1804TIP3    H227048   6.240   3.957   0.350  1.0183 -1.3493  0.0276
 1805TIP3   OH227049   4.525   1.640   8.287 -0.0119 -0.2557 -0.0860
 1805TIP3    H127050   4.611   1.621   8.249 -0.1503 -2.2452  0.4966
 1805TIP3    H227051   4.484   1.701   8.224  1.7404  0.6393 -0.4273
 1806TIP3   OH227052   1.251   4.122   0.385  0.1560 -0.1933  1.0815
 1806TIP3    H127053   1.337   4.112   0.343 -1.2882 -0.8067 -1.9388
 1806TIP3    H227054   1.262   4.083   0.471  2.5419 -1.5105  0.2646
 1807TIP3   OH227055   0.973   2.936   8.618 -0.6414  0.0064  0.8266
 1807TIP3    H127056   0.885   2.972   8.622 -0.2379  0.9037  2.7085
 1807TIP3    H227057   1.014   2.963   8.700  1.1780 -0.9466  0.2907
 1808TIP3   OH227058   5.178   0.980   0.791 -0.0470 -0.2643 -0.2097
 1808TIP3    H127059   5.230   1.014   0.718  0.2828  0.1297  0.1974
 1808TIP3    H227060   5.154   0.891   0.764  1.5299 -0.7669 -0.0738
 1809TIP3   OH227061   3.954   5.279   8.038 -0.1039 -0.0615 -0.4031
 1809TIP3    H127062   3.995   5.234   7.964  0.6411  0.0448 -0.0620
 1809TIP3    H227063   3.960   5.372   8.015  0.4150 -0.0094 -0.0683
 1810TIP3   OH227064   3.065   0.474   2.615  0.6670  0.3398  0.2266
 1810TIP3    H127065   3.141   0.458   2.672  0.6361  0.1240  0.2068
 1810TIP3    H227066   3.039   0.387   2.585  0.2905  0.3974  0.3876
 1811TIP3   OH227067   1.990   2.266   3.007 -0.2554 -0.2025  0.1009
 1811TIP3    H127068   1.897   2.288   2.999 -0.5874 -1.7102 -0.5852
 1811TIP3    H227069   1.990   2.179   3.047  0.8480 -0.3832 -0.2601
 1812TIP3   OH227070   4.889   3.511   1.513  0.8285  0.2809 -0.4653
 1812TIP3    H127071   4.911   3.527   1.605  1.6097  0.5974 -0.7025
 1812TIP3    H227072   4.907   3.418   1.500 -1.0793 -0.2322  0.1808
 1813TIP3   OH227073   2.645   5.286   8.197 -0.5269  0.5150  0.0794
 1813TIP3    H127074   2.706   5.221   8.232 -2.6311 -2.7679 -1.8327
 1813TIP3    H227075   2.699   5.365   8.184  3.0031 -1.7575 -0.4063
 1814TIP3   OH227076   5.339   1.892   7.982  0.0007  0.7255 -0.0618
 1814TIP3    H127077   5.380   1.812   7.950 -0.9350 -0.1977  0.9514
 1814TIP3    H227078   5.411   1.945   8.014  0.5553 -0.1085  0.0985
 1815TIP3   OH227079   2.035   1.958   7.096  0.1114  0.3851 -0.1455
 1815TIP3    H127080   2.010   1.885   7.040  0.4907  0.2125 -0.0900
 1815TIP3    H227081   2.030   2.035   7.039 -2.8437  0.7404  0.4048
 1816TIP3   OH227082   6.492   4.221   0.020 -0.3070  0.1632  0.0511
 1816TIP3    H127083   6.568   4.177   0.058  0.1468  1.2229  0.4145
 1816TIP3    H227084   6.506   4.218  -0.074 -0.3553 -0.5775  0.0629
 1817TIP3   OH227085   4.743   1.194   0.983  0.4351 -0.6773  0.5982
 1817TIP3    H127086   4.827   1.204   1.029  1.2064 -0.2268 -0.8472
 1817TIP3    H227087   4.699   1.278   0.996  0.2512 -0.8608  1.2301
 1818TIP3   OH227088   4.946   3.815   1.190 -0.1374  0.5485 -0.0084
 1818TIP3    H127089   4.901   3.742   1.231  1.2541 -2.6633 -3.5386
 1818TIP3    H227090   4.884   3.848   1.125  0.3511  0.3231 -0.6007
 1819TIP3   OH227091   0.847   1.774   2.235 -0.3873  0.2929  0.8056
 1819TIP3    H127092   0.793   1.852   2.249  0.8194  1.3677 -0.2598
 1819TIP3    H227093   0.787   1.700   2.250 -1.4372  1.3920  2.3002
 1820TIP3   OH227094   6.291   4.190   1.925 -0.1406 -0.5824 -0.1921
 1820TIP3    H127095   6.229   4.133   1.970 -1.1301  0.2223 -0.5023
 1820TIP3    H227096   6.357   4.130   1.889 -0.6690 -1.4419  0.2351
 1821TIP3   OH227097   3.057   4.883   2.095 -0.3957 -0.6974  0.2752
 1821TIP3    H127098   2.985   4.899   2.034  0.6444  0.2423 -0.7453
 1821TIP3    H227099   3.052   4.789   2.113 -2.2247 -0.5589  0.6997
 1822TIP3   OH227100   3.936   6.807   8.376  0.5228  0.4703 -0.1591
 1822TIP3    H127101   3.922   6.724   8.330 -2.3337 -0.1417  1.5764
 1822TIP3    H227102   4.028   6.826   8.362  0.7693 -1.8224 -2.5112
 1823TIP3   OH227103   1.961   3.601   0.409  0.0826 -0.2185  0.5579
 1823TIP3    H127104   2.009   3.572   0.331  1.8023  1.3995  0.9271
 1823TIP3    H227105   1.872   3.616   0.378  0.1976 -1.6429 -0.5788
 1824TIP3   OH227106   6.586   2.343   1.463 -0.9025  0.3410 -0.6128
 1824TIP3    H127107   6.535   2.298   1.531 -0.1922  0.2086 -0.1522
 1824TIP3    H227108   6.674   2.305   1.471 -0.2163  1.9586 -0.0564
 1825TIP3   OH227109   1.725   0.175   8.229  0.0936  0.6337 -0.3934
 1825TIP3    H127110   1.795   0.206   8.287  1.0936 -1.7841 -0.2047
 1825TIP3    H227111   1.674   0.115   8.283 -1.1532  1.0848 -1.0273
 1826TIP3   OH227112   5.144   5.330   1.267  0.3453 -0.2395 -0.0456
 1826TIP3    H127113   5.083   5.357   1.335  2.6371  0.4128  1.8656
 1826TIP3    H227114   5.153   5.235   1.278  1.1497 -0.0559  0.9962
 1827TIP3   OH227115   0.695   5.578   8.726  0.2954  0.5520  0.2112
 1827TIP3    H127116   0.617   5.523   8.723 -0.1850  1.2652 -1.5596
 1827TIP3    H227117   0.768   5.516   8.716 -0.2168  0.1355 -1.2724
 1828TIP3   OH227118   1.847   3.187   7.845 -0.4666  0.6619  0.2503
 1828TIP3    H127119   1.906   3.116   7.869  0.1844  0.8545 -0.7019
 1828TIP3    H227120   1.763   3.163   7.883 -0.0010 -0.0771  0.8471
 1829TIP3   OH227121   6.552   2.085   7.470  0.4981 -0.0451  0.3213
 1829TIP3    H127122   6.612   2.020   7.436 -1.0594  0.4595 -4.0121
 1829TIP3    H227123   6.487   2.034   7.520  1.1417 -1.3528 -0.1399
 1830TIP3   OH227124   4.758   0.672   1.894 -0.1499 -0.6968  0.1874
 1830TIP3    H127125   4.663   0.676   1.908 -0.1886 -1.3295  0.1605
 1830TIP3    H227126   4.773   0.582   1.864  0.7011 -1.2393  2.0857
 1831TIP3   OH227127   2.443   1.267   8.329 -0.3557 -0.1316 -0.4031
 1831TIP3    H127128   2.440   1.325   8.253  1.1812  1.5771  0.7708
 1831TIP3    H227129   2.508   1.306   8.387 -1.0011 -1.7494  1.5204
 1832TIP3   OH227130   5.568   5.561   2.129 -0.3978  0.0486  0.5828
 1832TIP3    H127131   5.491   5.599   2.171 -0.1412  0.4513  0.7021
 1832TIP3    H227132   5.539   5.476   2.097 -0.7088 -0.0909  1.2203
 1833TIP3   OH227133   4.160   1.949   1.051  0.2422 -0.4708  0.3924
 1833TIP3    H127134   4.152   1.976   0.960  1.9854  0.0093  0.3479
 1833TIP3    H227135   4.107   2.012   1.099 -0.0162 -0.2146 -0.2209
 1834TIP3   OH227136   2.495   4.333   1.809 -0.4492 -0.1141  0.1010
 1834TIP3    H127137   2.453   4.247   1.807 -0.9505  0.1395 -0.3918
 1834TIP3    H227138   2.530   4.341   1.898 -1.5657 -0.2615  0.5658
 1835TIP3   OH227139   4.262   3.395   1.609  0.3909  0.0095 -0.4003
 1835TIP3    H127140   4.232   3.306   1.628 -1.8599  0.7525 -0.2997
 1835TIP3    H227141   4.260   3.440   1.693 -1.2762  0.9181 -0.8834
 1836TIP3   OH227142   6.041   1.271   1.780  0.2531  0.0927 -0.5306
 1836TIP3    H127143   6.094   1.195   1.802 -0.2742 -1.9672 -5.0990
 1836TIP3    H227144   5.951   1.240   1.782 -0.0746  0.9226 -1.2585
 1837TIP3   OH227145   6.690   5.624   8.155  0.4549 -0.2053 -0.3353
 1837TIP3    H127146   6.657   5.584   8.074  1.1020  0.0773 -0.7508
 1837TIP3    H227147   6.678   5.556   8.221  0.3797 -0.6340 -0.7770
 1838TIP3   OH227148   5.461   1.807   1.365 -0.3246 -0.1389  0.3766
 1838TIP3    H127149   5.487   1.825   1.275  0.4889 -0.8308  0.4574
 1838TIP3    H227150   5.512   1.869   1.418 -0.3259 -0.1575  0.3998
 1839TIP3   OH227151   4.057   4.903   1.530 -0.1957 -0.1662 -0.3898
 1839TIP3    H127152   4.011   4.958   1.466 -1.5039 -0.5609  0.1740
 1839TIP3    H227153   4.054   4.953   1.611  3.1617  1.2195 -0.9767
 1840TIP3   OH227154   6.335   4.511   0.422 -0.2834  0.4023  0.2318
 1840TIP3    H127155   6.409   4.493   0.480  0.1242  0.9667 -0.1049
 1840TIP3    H227156   6.289   4.583   0.465 -0.3969  0.3350  0.2231
 1841TIP3   OH227157   5.769   5.829   8.354 -0.6225 -0.0136  0.0287
 1841TIP3    H127158   5.804   5.918   8.362  2.9748 -1.4599  3.0495
 1841TIP3    H227159   5.709   5.820   8.428  0.6036 -0.6519  0.9767
 1842TIP3   OH227160   5.439   2.172   2.019 -0.1987 -0.2536 -0.5625
 1842TIP3    H127161   5.393   2.179   2.102 -0.5161 -0.6469 -0.7015
 1842TIP3    H227162   5.370   2.183   1.953  0.4462  3.1999 -0.8354
 1843TIP3   OH227163   4.782   5.310   7.648  0.3063 -0.4132  0.1581
 1843TIP3    H127164   4.876   5.291   7.644  0.4519  0.0591  1.0489
 1843TIP3    H227165   4.759   5.300   7.740 -0.3302  0.3530  0.0936
 1844TIP3   OH227166   6.771   0.498   7.761 -0.3154 -0.3536  0.1277
 1844TIP3    H127167   6.804   0.563   7.698 -0.1471  0.3343  0.9092
 1844TIP3    H227168   6.681   0.526   7.779 -0.3025 -0.4390  0.3277
 1845TIP3   OH227169   0.626   0.592   7.141 -0.0059  0.4691  0.1450
 1845TIP3    H127170   0.658   0.560   7.226 -0.6836  2.4826  1.2289
 1845TIP3    H227171   0.694   0.652   7.111  0.6635 -0.9274 -1.2359
 1846TIP3   OH227172   0.873   6.573   1.182  0.4131  0.3951 -0.1935
 1846TIP3    H127173   0.964   6.581   1.157  0.2601  0.5475 -0.7054
 1846TIP3    H227174   0.843   6.492   1.139  0.1638  0.6318 -0.4703
 1847TIP3   OH227175   6.024   4.065   0.716  0.1086 -0.1761 -0.0421
 1847TIP3    H127176   5.950   4.006   0.701 -1.1056  1.4451 -0.7779
 1847TIP3    H227177   6.010   4.099   0.805 -1.3000  1.7285 -0.9188
 1848TIP3   OH227178   2.449   1.760   2.913  0.3389 -0.1715  0.5614
 1848TIP3    H127179   2.416   1.807   2.989  0.7848  1.6015 -0.2771
 1848TIP3    H227180   2.388   1.784   2.842  0.5591 -0.9049  0.1136
 1849TIP3   OH227181   5.687   6.747   7.747 -0.5178  0.3134  0.3004
 1849TIP3    H127182   5.674   6.763   7.654 -0.3974 -0.4585  0.1453
 1849TIP3    H227183   5.618   6.798   7.790 -0.7315  0.4702 -0.2248
 1850TIP3   OH227184   3.171   6.105   2.500  0.1851 -0.1641  0.1579
 1850TIP3    H127185   3.105   6.042   2.529  1.6909 -1.5842  0.6099
 1850TIP3    H227186   3.247   6.052   2.478  0.3739  1.1909 -2.8927
 1851TIP3   OH227187   3.531   5.805   7.590  0.7166 -0.2767 -0.1163
 1851TIP3    H127188   3.599   5.744   7.562  0.7436  0.2012 -1.1153
 1851TIP3    H227189   3.503   5.849   7.510 -1.4463 -1.1294  0.0966
 1852TIP3   OH227190   1.649   0.900   2.126  0.1174 -0.5301 -0.8668
 1852TIP3    H127191   1.592   0.883   2.051  0.8636  0.6610 -1.7228
 1852TIP3    H227192   1.622   0.986   2.158  2.1276  0.5817 -1.9798
 1853TIP3   OH227193   1.678   3.739   7.941  0.3756  0.0968 -0.1383
 1853TIP3    H127194   1.583   3.725   7.933  0.0063  1.6283  1.0353
 1853TIP3    H227195   1.692   3.758   8.033  1.6459  1.1231 -0.5124
 1854TIP3   OH227196   1.727   5.176   8.454 -0.1156  0.2494  0.2208
 1854TIP3    H127197   1.634   5.194   8.439 -0.1437 -0.4235 -0.5016
 1854TIP3    H227198   1.728   5.088   8.493  0.2669 -0.1674 -0.7017
 1855TIP3   OH227199   5.649   0.522   2.377  0.1053  0.5881  0.0644
 1855TIP3    H127200   5.743   0.534   2.393  0.0420  0.3221  0.6378
 1855TIP3    H227201   5.607   0.585   2.434 -0.0708  0.6775 -0.1630
 1856TIP3   OH227202   2.307   3.282   1.828 -0.5634 -0.0998 -0.5290
 1856TIP3    H127203   2.256   3.217   1.877  0.5950 -0.1455  0.6476
 1856TIP3    H227204   2.258   3.294   1.747 -1.3924 -1.6186 -0.2849
 1857TIP3   OH227205   6.596   3.543   2.127 -0.5314  0.5476  0.0981
 1857TIP3    H127206   6.506   3.531   2.096 -0.6590  0.8129  0.3570
 1857TIP3    H227207   6.650   3.527   2.050 -0.8182  0.6817 -0.1355
 1858TIP3   OH227208   2.407   2.373   8.536  0.1330  0.1457  0.8592
 1858TIP3    H127209   2.330   2.429   8.521  0.7697  1.5865  2.6607
 1858TIP3    H227210   2.411   2.318   8.458 -1.2823  1.7435 -0.4344
 1859TIP3   OH227211   1.245   1.854   2.065  0.0688  0.6860 -0.1626
 1859TIP3    H127212   1.235   1.874   1.972  0.3671  1.5875 -0.0040
 1859TIP3    H227213   1.169   1.799   2.085 -0.0557  0.5726 -0.9055
 1860TIP3   OH227214   3.705   1.857   1.671 -0.2496 -0.0089  0.4351
 1860TIP3    H127215   3.800   1.868   1.667 -0.0932 -1.4539 -1.1979
 1860TIP3    H227216   3.669   1.942   1.646  0.6332  0.3628  0.4185
 1861TIP3   OH227217   2.950   2.449   7.882  0.2649  0.6822 -0.0113
 1861TIP3    H127218   2.887   2.402   7.826 -0.3330  1.1497  0.2585
 1861TIP3    H227219   2.898   2.477   7.958  0.8447  0.9225  0.3008
 1862TIP3   OH227220   3.267   4.345   3.379 -0.1268 -0.0147  0.3613
 1862TIP3    H127221   3.338   4.283   3.396 -0.6491 -1.6075 -2.5234
 1862TIP3    H227222   3.302   4.430   3.406  1.2231 -1.2787  2.9816
 1863TIP3   OH227223   0.759   5.838   2.243 -0.0235 -0.5776 -0.2428
 1863TIP3    H127224   0.817   5.871   2.312  0.7140  0.1425 -1.1908
 1863TIP3    H227225   0.687   5.796   2.291  0.7383 -0.5567  0.9549
 1864TIP3   OH227226   0.277   4.459   8.591 -0.1193 -0.0332 -0.5153
 1864TIP3    H127227   0.288   4.364   8.604 -0.3987  0.0244  0.2241
 1864TIP3    H227228   0.346   4.498   8.644  0.2483  0.1742 -1.1406
 1865TIP3   OH227229   4.781   0.168   1.138 -0.1775  0.2077  0.5034
 1865TIP3    H127230   4.864   0.184   1.182 -0.7306  1.3955  1.1911
 1865TIP3    H227231   4.716   0.174   1.208 -0.8873 -0.1872 -0.1077
 1866TIP3   OH227232   1.061   1.920   0.623 -0.0873  0.4995 -0.0769
 1866TIP3    H127233   1.006   1.986   0.665  0.9204  2.0783 -1.1267
 1866TIP3    H227234   1.107   1.968   0.554  0.3912 -1.4067 -1.1438
 1867TIP3   OH227235   5.186   4.934   2.075 -0.2546  0.4158 -0.2741
 1867TIP3    H127236   5.250   4.870   2.106 -1.4169 -0.9739 -0.5941
 1867TIP3    H227237   5.226   4.974   1.998  0.3505 -0.2172 -0.2927
 1868TIP3   OH227238   5.968   6.616   8.498 -0.0376  0.5058  0.0223
 1868TIP3    H127239   5.981   6.695   8.550 -1.7353  1.9505 -1.5569
 1868TIP3    H227240   5.988   6.543   8.557  1.7796  2.0943  1.4740
 1869TIP3   OH227241   5.461   6.182   7.634  0.0344  0.2909 -0.4324
 1869TIP3    H127242   5.436   6.273   7.617  0.9670  0.5953 -0.2384
 1869TIP3    H227243   5.383   6.132   7.613 -0.6719  1.1842 -0.0077
 1870TIP3   OH227244   4.309   1.431   1.088  0.8430  0.2771  0.5148
 1870TIP3    H127245   4.238   1.494   1.074  0.3173 -0.0643  1.5427
 1870TIP3    H227246   4.276   1.350   1.051  1.2125  0.4120 -0.1251
 1871TIP3   OH227247   0.138   3.132   0.754 -0.0804  0.2223 -0.0848
 1871TIP3    H127248   0.091   3.064   0.705 -2.8313  1.4341  0.6950
 1871TIP3    H227249   0.162   3.090   0.836  0.6725 -0.5366 -0.6668
 1872TIP3   OH227250   2.455   6.100   0.290 -0.0790  0.1568 -0.0209
 1872TIP3    H127251   2.406   6.018   0.281  1.2321 -0.7608  0.8853
 1872TIP3    H227252   2.520   6.098   0.220 -0.2917  0.6222 -0.2397
 1873TIP3   OH227253   0.861   4.402   0.058  0.3007 -0.4076 -0.1906
 1873TIP3    H127254   0.876   4.308   0.069  1.1782 -0.2432  0.1348
 1873TIP3    H227255   0.804   4.426   0.131 -0.7496 -0.8569 -0.8372
 1874TIP3   OH227256   6.311   3.139   0.448 -0.0627  0.8650  0.4611
 1874TIP3    H127257   6.338   3.084   0.375 -0.1379  0.1581  0.9554
 1874TIP3    H227258   6.222   3.167   0.426 -0.5806 -0.4171  0.8872
 1875TIP3   OH227259   2.534   3.657   7.433  0.2661 -0.7033  0.2369
 1875TIP3    H127260   2.520   3.589   7.367  0.0098  0.0253 -0.4883
 1875TIP3    H227261   2.502   3.737   7.391  2.4317  0.2588  0.2373
 1876TIP3   OH227262   3.686   4.983   1.817  0.4835  0.0725 -0.0856
 1876TIP3    H127263   3.697   4.981   1.722 -2.2912  1.6554 -0.5597
 1876TIP3    H227264   3.616   4.920   1.834  1.8781 -1.2083  1.1355
 1877TIP3   OH227265   4.079   1.871   7.672  0.1557 -0.4510 -0.3895
 1877TIP3    H127266   4.137   1.922   7.615 -1.7426  0.3629 -1.7405
 1877TIP3    H227267   4.068   1.788   7.626 -0.3562 -0.2903 -0.5677
 1878TIP3   OH227268   4.991   6.170   1.767  0.2578  0.0927  0.5650
 1878TIP3    H127269   5.046   6.227   1.713 -0.7279  1.2421  0.7455
 1878TIP3    H227270   4.919   6.226   1.796 -1.3175 -1.5022 -0.1000
 1879TIP3   OH227271   1.598   4.173   6.925  0.8182 -0.2816 -0.4932
 1879TIP3    H127272   1.587   4.093   6.874  1.5211 -0.6890 -0.0237
 1879TIP3    H227273   1.519   4.224   6.906  0.4831 -0.9632 -1.0039
 1880TIP3   OH227274   1.062   1.561   8.567  0.3978  0.1047 -0.5317
 1880TIP3    H127275   0.991   1.588   8.508  0.6912 -0.2210 -1.0390
 1880TIP3    H227276   1.029   1.580   8.654 -0.1699  0.3023 -0.7856
 1881TIP3   OH227277   4.771   1.095   6.915  0.0326  0.2251 -0.0451
 1881TIP3    H127278   4.751   1.186   6.936  1.0777  1.1173 -2.5789
 1881TIP3    H227279   4.861   1.083   6.946  0.1265  0.2745 -0.2931
 1882TIP3   OH227280   5.586   4.861   2.934 -0.1020 -0.4909  0.4299
 1882TIP3    H127281   5.667   4.884   2.889  0.5360 -1.2108  1.1770
 1882TIP3    H227282   5.544   4.797   2.876  0.2665 -0.7368  0.4324
 1883TIP3   OH227283   6.547   6.179   0.513 -0.1170 -0.0248  0.1908
 1883TIP3    H127284   6.548   6.145   0.603  0.0464  1.2975  0.7110
 1883TIP3    H227285   6.620   6.134   0.471 -1.2276 -1.9583  0.1768
 1884TIP3   OH227286   4.089   6.192   0.067 -0.7178  0.1574 -0.2206
 1884TIP3    H127287   4.112   6.118   0.011 -0.9170  0.2423 -0.4148
 1884TIP3    H227288   4.170   6.242   0.075 -0.5397 -0.1628  0.0405
 1885TIP3   OH227289   2.832   4.724   8.561 -0.3387  0.0286  0.9594
 1885TIP3    H127290   2.805   4.804   8.606 -1.7306 -0.9263  1.8954
 1885TIP3    H227291   2.876   4.755   8.481 -1.2325  1.7153  1.0842
 1886TIP3   OH227292   0.470   1.733   2.865 -0.1081 -0.0872  0.3553
 1886TIP3    H127293   0.407   1.688   2.922 -0.6462 -0.1594 -0.2939
 1886TIP3    H227294   0.452   1.826   2.878 -0.2768 -0.1052  0.2472
 1887TIP3   OH227295   0.715   3.514   2.008 -0.4322 -0.1308 -0.2813
 1887TIP3    H127296   0.748   3.588   1.957 -0.5652  1.2057  1.5015
 1887TIP3    H227297   0.778   3.444   1.992  0.2307  0.6552 -1.2438
 1888TIP3   OH227298   4.827   2.210   2.202 -0.0798 -0.2503  0.1875
 1888TIP3    H127299   4.761   2.241   2.265 -0.3118 -0.8370  0.2371
 1888TIP3    H227300   4.782   2.211   2.118 -0.4890 -1.6169  0.3647
 1889TIP3   OH227301   6.840   2.211   1.096 -0.6191  0.0916 -0.1137
 1889TIP3    H127302   6.902   2.186   1.027 -1.1895 -0.7311 -0.3498
 1889TIP3    H227303   6.869   2.297   1.125  0.3726 -0.0964 -0.5188
 1890TIP3   OH227304   0.802   0.475   1.570  0.5150  0.3454  0.2303
 1890TIP3    H127305   0.799   0.379   1.569 -1.5781  0.3731  0.4484
 1890TIP3    H227306   0.882   0.495   1.619  1.6307 -1.2568 -0.8270
 1891TIP3   OH227307   1.509   3.594   1.612 -0.1913 -0.3113  0.0489
 1891TIP3    H127308   1.446   3.629   1.674 -1.3269  0.0441 -1.2597
 1891TIP3    H227309   1.585   3.571   1.666 -1.2668 -0.4001  1.6119
 1892TIP3   OH227310   6.467   0.548   1.448  0.1026  0.4547 -0.6999
 1892TIP3    H127311   6.418   0.495   1.385 -0.3832  0.4775 -0.3461
 1892TIP3    H227312   6.469   0.494   1.528  2.6105 -0.5596 -1.3508
 1893TIP3   OH227313   0.798   1.012   1.090 -0.0566 -0.5264 -0.1395
 1893TIP3    H127314   0.824   0.960   1.014 -0.1389 -0.1835 -0.4081
 1893TIP3    H227315   0.836   0.966   1.165 -0.2758 -1.0599 -0.3551
 1894TIP3   OH227316   4.801   6.053   1.555 -0.2329  0.5041  0.5154
 1894TIP3    H127317   4.852   6.105   1.492  0.0368  1.0173  1.1472
 1894TIP3    H227318   4.840   6.074   1.640  0.8147 -1.7902  0.6709
 1895TIP3   OH227319   2.578   3.830   0.794  0.0315 -0.0812  0.2109
 1895TIP3    H127320   2.638   3.765   0.758  1.2881  0.4347  1.2555
 1895TIP3    H227321   2.556   3.886   0.720  0.3797 -0.6287 -0.3165
 1896TIP3   OH227322   2.382   0.239   8.447  0.8234 -0.5375  0.2509
 1896TIP3    H127323   2.342   0.288   8.375 -1.0458 -0.2920  1.3937
 1896TIP3    H227324   2.359   0.147   8.429 -2.3620 -0.2189  2.0299
 1897TIP3   OH227325   2.809   0.235   0.959  0.2656  0.9379 -0.1261
 1897TIP3    H127326   2.876   0.260   1.022  0.3348  1.6825 -0.4898
 1897TIP3    H227327   2.835   0.147   0.931  0.8143  1.0249  0.0947
 1898TIP3   OH227328   0.525   6.036   0.483  0.3755 -0.5014  0.0199
 1898TIP3    H127329   0.484   5.975   0.544 -0.3673 -2.6059 -2.4261
 1898TIP3    H227330   0.604   5.990   0.452 -0.2885 -0.3790 -2.0140
 1899TIP3   OH227331   1.463   5.357   8.114 -0.1532 -0.1625  0.0318
 1899TIP3    H127332   1.436   5.366   8.205 -1.0473  0.9741 -0.3292
 1899TIP3    H227333   1.515   5.435   8.096  1.7502 -1.3490  0.1220
 1900TIP3   OH227334   6.428   3.343   7.627 -0.7209  0.5027  0.0337
 1900TIP3    H127335   6.409   3.281   7.556  1.0844  0.7439 -0.7215
 1900TIP3    H227336   6.450   3.287   7.701 -0.9545  0.2418 -0.0884
 1901TIP3   OH227337   3.560   6.635   8.182  0.1344  0.1900 -0.0549
 1901TIP3    H127338   3.576   6.577   8.257  0.8422 -1.3141 -1.3110
 1901TIP3    H227339   3.581   6.582   8.106 -2.0305  1.1725 -1.4376
 1902TIP3   OH227340   3.140   2.673   8.670 -0.0171  0.1153 -0.5507
 1902TIP3    H127341   3.088   2.754   8.672  1.3700  1.0566 -0.8411
 1902TIP3    H227342   3.228   2.701   8.694  0.8457 -1.0262 -2.1641
 1903TIP3   OH227343   0.014   3.345   2.284  0.1926 -0.4285  0.1050
 1903TIP3    H127344   0.078   3.275   2.297  1.9575  0.7991 -1.4002
 1903TIP3    H227345   0.049   3.396   2.211 -1.8674  1.0799  0.0873
 1904TIP3   OH227346   1.369   3.727   6.795  0.3172  0.3362 -0.0087
 1904TIP3    H127347   1.363   3.790   6.723  1.3433 -1.2941 -1.6158
 1904TIP3    H227348   1.284   3.732   6.839 -0.5730  0.9644 -1.7168
 1905TIP3   OH227349   3.659   4.682   0.976 -0.4525  0.1003  0.2047
 1905TIP3    H127350   3.725   4.751   0.979  1.6323 -1.7716  0.0555
 1905TIP3    H227351   3.634   4.676   0.884  0.0217  0.0659  0.0778
 1906TIP3   OH227352   5.876   2.783   0.720  0.4901 -0.6199 -0.1556
 1906TIP3    H127353   5.925   2.756   0.798  0.7340 -1.4720 -0.5936
 1906TIP3    H227354   5.814   2.848   0.753  2.6225  1.3369  0.2261
 1907TIP3   OH227355   6.251   1.081   1.101  0.3628  0.0954 -0.0869
 1907TIP3    H127356   6.253   1.012   1.034  0.5765  0.3798 -0.3774
 1907TIP3    H227357   6.180   1.139   1.073 -0.8185 -0.7811  0.9513
 1908TIP3   OH227358   1.768   1.593   0.794 -0.5432 -0.0960 -0.0904
 1908TIP3    H127359   1.785   1.687   0.784 -1.0335  0.0494  0.3858
 1908TIP3    H227360   1.731   1.566   0.710  1.2191 -0.2499 -0.8655
 1909TIP3   OH227361   0.972   1.088   0.263 -0.1718 -0.0133  0.2493
 1909TIP3    H127362   0.941   1.175   0.289 -0.4398 -0.3475  1.0606
 1909TIP3    H227363   0.939   1.029   0.330  0.9559 -0.6014  0.3105
 1910TIP3   OH227364   3.591   0.756   0.392  0.1460 -0.4496  0.0751
 1910TIP3    H127365   3.501   0.781   0.370 -0.4203 -1.8141  0.7162
 1910TIP3    H227366   3.633   0.838   0.419 -0.3782  0.5184 -1.8292
 1911TIP3   OH227367   3.687   0.830   1.216  0.8763 -0.0938  0.3654
 1911TIP3    H127368   3.646   0.790   1.292 -1.2071 -0.6752 -0.9667
 1911TIP3    H227369   3.708   0.919   1.244  0.1718 -0.2939  1.6113
 1912TIP3   OH227370   2.329   6.201   8.002  0.0605  0.7809 -0.1338
 1912TIP3    H127371   2.408   6.179   7.952  0.6528 -0.0921  1.1390
 1912TIP3    H227372   2.258   6.162   7.951  0.7961 -1.3876  0.3854
 1913TIP3   OH227373   0.037   1.646   6.970  0.0603  0.2889 -0.7100
 1913TIP3    H127374   0.059   1.556   6.947 -1.3762 -1.0141  2.3987
 1913TIP3    H227375   0.096   1.667   7.043 -0.6631  1.2911 -0.3865
 1914TIP3   OH227376   4.450   3.506   3.263 -0.0699  0.8521 -0.3890
 1914TIP3    H127377   4.378   3.548   3.310  0.2967  1.3668 -0.2719
 1914TIP3    H227378   4.519   3.573   3.262  0.1646  0.6009 -1.0715
 1915TIP3   OH227379   2.131   0.604   2.071  0.3002  0.2632 -0.4447
 1915TIP3    H127380   2.173   0.540   2.127 -2.0681  0.0490  1.2135
 1915TIP3    H227381   2.151   0.689   2.111  2.0398  0.4881 -1.6933
 1916TIP3   OH227382   5.072   4.801   2.959  0.2355 -0.7340  0.3659
 1916TIP3    H127383   5.151   4.761   2.995 -0.5670 -1.2398  1.6469
 1916TIP3    H227384   5.000   4.756   3.004 -0.7532  0.4893  0.0642
 1917TIP3   OH227385   6.159   3.276   1.927  0.0843 -0.6182 -0.2512
 1917TIP3    H127386   6.143   3.204   1.988  0.7546 -0.8645 -0.3574
 1917TIP3    H227387   6.161   3.234   1.841 -0.2917 -0.3547 -0.3912
 1918TIP3   OH227388   4.321   2.592   1.926 -0.0404 -0.0145  0.4116
 1918TIP3    H127389   4.270   2.657   1.976 -1.9634  0.5025 -2.0511
 1918TIP3    H227390   4.411   2.624   1.931 -0.2491  0.4405  2.8055
 1919TIP3   OH227391   3.007   0.808   7.398 -0.1785 -0.2010 -0.0836
 1919TIP3    H127392   3.013   0.737   7.462 -2.2305  0.2157  0.6376
 1919TIP3    H227393   3.037   0.885   7.445  0.6562 -0.3248 -0.4080
 1920TIP3   OH227394   2.966   2.840   2.198  0.0689  0.3520 -0.2246
 1920TIP3    H127395   3.050   2.793   2.201  0.3356  0.8085 -0.3576
 1920TIP3    H227396   2.967   2.884   2.112 -1.2916 -1.4124 -1.2027
 1921TIP3   OH227397   6.670   3.836   3.003 -0.8919 -0.0187  0.0493
 1921TIP3    H127398   6.582   3.850   3.037 -0.4320  0.0922  1.2499
 1921TIP3    H227399   6.706   3.924   2.991  0.1326 -0.0068  2.5742
 1922TIP3   OH227400   3.371   0.129   7.216 -0.3462 -0.1976  0.0616
 1922TIP3    H127401   3.356   0.115   7.310  0.1444 -0.0282  0.1625
 1922TIP3    H227402   3.393   0.222   7.208 -0.1877 -0.2562 -0.1970
 1923TIP3   OH227403   5.614   1.949   2.129  0.3861 -0.3669 -0.5534
 1923TIP3    H127404   5.534   1.910   2.093 -0.8046  0.4571  1.0830
 1923TIP3    H227405   5.670   1.874   2.150 -0.7522 -1.0781  0.0488
 1924TIP3   OH227406   2.367   4.596   1.833  0.1895  0.2286 -0.0269
 1924TIP3    H127407   2.413   4.518   1.864 -0.8132  0.3487  1.8589
 1924TIP3    H227408   2.418   4.669   1.868  0.1046  0.3983 -0.2569
 1925TIP3   OH227409   1.272   1.400   8.624 -0.0980 -0.3043  0.1475
 1925TIP3    H127410   1.282   1.349   8.544 -0.7632  2.2741 -1.6882
 1925TIP3    H227411   1.186   1.443   8.615 -0.2111  0.0281  2.2713
 1926TIP3   OH227412   4.995   4.197   8.194  0.2219 -0.2107 -0.8895
 1926TIP3    H127413   4.951   4.265   8.143  0.3579 -1.4248 -2.7216
 1926TIP3    H227414   5.087   4.223   8.195  0.4358 -0.7780 -2.4025
 1927TIP3   OH227415   1.585   3.113   7.910  0.3075 -0.4197 -0.0956
 1927TIP3    H127416   1.541   3.060   7.976 -0.7388 -1.1313 -1.3196
 1927TIP3    H227417   1.515   3.142   7.852  1.1517  0.5402 -0.6710
 1928TIP3   OH227418   5.694   5.384   7.823 -0.2465  0.2884  0.3910
 1928TIP3    H127419   5.698   5.443   7.748  0.4334 -0.3129 -0.0653
 1928TIP3    H227420   5.782   5.349   7.831 -0.6633 -0.7672  0.5562
 1929TIP3   OH227421   5.168   6.711   8.631  0.2613 -0.0861  0.6473
 1929TIP3    H127422   5.163   6.807   8.628  0.8313 -0.0727 -0.8835
 1929TIP3    H227423   5.198   6.691   8.720  0.1612  1.1529  0.9771
 1930TIP3   OH227424   1.180   3.075   6.800  0.5008  0.4003 -0.2279
 1930TIP3    H127425   1.208   3.160   6.833  0.1196 -0.4589  2.6079
 1930TIP3    H227426   1.261   3.025   6.790  0.5425 -0.4811  3.1810
 1931TIP3   OH227427   3.071   3.564   0.941 -0.2366 -0.0336  0.2133
 1931TIP3    H127428   3.140   3.512   0.981  0.5090  0.2435 -0.6769
 1931TIP3    H227429   3.015   3.499   0.897  0.3857 -0.1506 -0.4363
 1932TIP3   OH227430   5.248   2.336   7.329 -0.2093 -0.4719  0.3260
 1932TIP3    H127431   5.200   2.409   7.291 -0.2367 -1.6280 -2.0205
 1932TIP3    H227432   5.191   2.304   7.399 -0.6705  1.0559  0.6955
 1933TIP3   OH227433   4.929   5.777   2.705  0.1865  0.2798  0.3278
 1933TIP3    H127434   4.987   5.701   2.711 -0.5791 -0.6301 -2.4471
 1933TIP3    H227435   4.890   5.785   2.792  2.3907 -0.7196  1.4954
 1934TIP3   OH227436   6.132   5.750   7.537 -0.6986  0.2215 -0.5663
 1934TIP3    H127437   6.051   5.772   7.583 -1.0614  0.7246 -1.4230
 1934TIP3    H227438   6.158   5.666   7.575 -0.6168  0.9285  1.0176
 1935TIP3   OH227439   0.746   6.555   7.317  0.3853  0.5242  0.0210
 1935TIP3    H127440   0.813   6.488   7.300 -1.1475 -0.7529 -1.4374
 1935TIP3    H227441   0.732   6.596   7.232  1.0002  2.4892  0.8162
 1936TIP3   OH227442   0.613   3.959   2.592 -0.3981 -0.2677 -0.4099
 1936TIP3    H127443   0.606   3.936   2.685 -0.9311 -0.0138 -0.3796
 1936TIP3    H227444   0.637   4.052   2.592 -1.0582 -0.0926 -0.5212
 1937TIP3   OH227445   6.016   4.424   1.860  0.1029  0.7896  0.6161
 1937TIP3    H127446   5.988   4.379   1.940 -1.0860  0.4178  0.0033
 1937TIP3    H227447   5.950   4.492   1.846 -0.5956 -0.1627 -0.9099
 1938TIP3   OH227448   4.737   3.145   2.235  0.1002 -0.2227 -0.4326
 1938TIP3    H127449   4.744   3.052   2.253 -2.2162 -0.7109 -1.6609
 1938TIP3    H227450   4.828   3.177   2.236  0.9066 -2.3938  0.3309
 1939TIP3   OH227451   1.428   5.356   0.025  0.4269  0.2873 -0.5025
 1939TIP3    H127452   1.393   5.436  -0.013 -2.0537 -0.2535  0.4416
 1939TIP3    H227453   1.521   5.375   0.040  0.8631  1.5659 -3.8430
 1940TIP3   OH227454   3.234   0.304   1.171  0.0961 -0.1177  0.2729
 1940TIP3    H127455   3.265   0.374   1.113 -0.2101  0.8181  1.2092
 1940TIP3    H227456   3.269   0.327   1.257 -1.2801 -0.2648  0.9048
 1941TIP3   OH227457   5.235   1.145   2.420  0.3867 -0.0855  0.0168
 1941TIP3    H127458   5.223   1.181   2.508  1.1933 -1.4586  0.7191
 1941TIP3    H227459   5.330   1.149   2.406  0.4513 -1.5268 -0.0413
 1942TIP3   OH227460   4.797   5.364   2.996  0.0831  0.4150  0.1984
 1942TIP3    H127461   4.834   5.412   3.070 -1.5092  0.9384  0.7006
 1942TIP3    H227462   4.763   5.432   2.938 -0.9103 -0.0532  0.2191
 1943TIP3   OH227463   2.780   2.294   0.100  0.7302  0.2306 -0.4702
 1943TIP3    H127464   2.687   2.315   0.089  0.2760 -1.2437  0.2144
 1943TIP3    H227465   2.823   2.335   0.025 -0.8577 -1.2834 -2.3303
 1944TIP3   OH227466   3.496   4.781   8.136  0.2691 -0.1477 -0.0708
 1944TIP3    H127467   3.455   4.865   8.116  1.4038  0.6898  0.9855
 1944TIP3    H227468   3.424   4.718   8.135 -0.1812  0.0607 -4.5321
 1945TIP3   OH227469   1.392   5.735   1.598 -0.6583 -0.2238 -0.1037
 1945TIP3    H127470   1.437   5.764   1.518 -0.5608  0.6107  0.2376
 1945TIP3    H227471   1.441   5.777   1.669  0.8155 -2.9246  0.6105
 1946TIP3   OH227472   5.306   6.253   1.244 -0.5314  0.5926  0.0157
 1946TIP3    H127473   5.237   6.219   1.187 -0.5753  2.0718 -0.8731
 1946TIP3    H227474   5.387   6.213   1.212 -1.0569 -2.3205  1.9963
 1947TIP3   OH227475   1.163   0.311   1.227 -0.3263  0.4616 -0.0543
 1947TIP3    H127476   1.103   0.237   1.216  2.3786 -2.0705  0.8733
 1947TIP3    H227477   1.160   0.331   1.321  0.0431  0.4769 -0.0416
 1948TIP3   OH227478   0.245   4.966   3.313  0.1045  0.3614 -0.0310
 1948TIP3    H127479   0.169   5.009   3.273  0.3219  0.3985 -0.4083
 1948TIP3    H227480   0.302   5.038   3.338  0.7003  0.2905 -1.1236
 1949TIP3   OH227481   5.275   0.936   8.440 -0.2740 -0.3298 -0.2422
 1949TIP3    H127482   5.196   0.977   8.404 -0.9354 -0.3593  1.1045
 1949TIP3    H227483   5.257   0.842   8.438  0.1485 -0.4094 -0.8332
 1950TIP3   OH227484   3.153   3.054   0.036 -0.0416  0.5079  0.5290
 1950TIP3    H127485   3.150   3.039   0.130 -0.1571 -0.8533  0.3284
 1950TIP3    H227486   3.210   2.985   0.002  1.1190  1.8055 -0.2579
 1951TIP3   OH227487   6.488   3.629   7.679 -0.0007  0.6133  0.2176
 1951TIP3    H127488   6.544   3.649   7.604 -0.8975  2.3956 -0.0240
 1951TIP3    H227489   6.449   3.544   7.659  0.1649  0.8341 -1.0826
 1952TIP3   OH227490   0.861   2.533   2.851 -0.0210 -0.1885  0.2308
 1952TIP3    H127491   0.861   2.459   2.911  0.7716  0.9219  1.6470
 1952TIP3    H227492   0.881   2.494   2.765 -0.4281 -1.7000  0.7964
 1953TIP3   OH227493   5.416   4.960   3.147  0.4425  0.1632 -0.5357
 1953TIP3    H127494   5.486   4.954   3.082 -0.7175 -0.1778 -1.7984
 1953TIP3    H227495   5.376   4.873   3.146 -0.2907  0.4954 -0.1806
 1954TIP3   OH227496   1.156   6.733   1.210  0.5442 -0.3279 -0.1014
 1954TIP3    H127497   1.173   6.712   1.119  1.2481 -0.6411  0.0954
 1954TIP3    H227498   1.221   6.799   1.232 -1.0980  1.5005 -0.4676
 1955TIP3   OH227499   3.475   6.565   1.076 -0.0437  0.3208  1.0225
 1955TIP3    H127500   3.435   6.479   1.095 -1.6888  0.6856 -0.5397
 1955TIP3    H227501   3.519   6.552   0.992  1.7387  0.4120  1.9058
 1956TIP3   OH227502   4.914   0.580   2.206  0.5325  0.2746 -0.0639
 1956TIP3    H127503   4.821   0.562   2.192  0.4373  0.4999  0.2790
 1956TIP3    H227504   4.952   0.494   2.222  0.3300  0.2133  0.1009
 1957TIP3   OH227505   1.719   3.639   1.252 -0.5358  0.3681  0.1878
 1957TIP3    H127506   1.797   3.670   1.205 -0.5466 -0.2073 -0.2112
 1957TIP3    H227507   1.701   3.709   1.316 -0.1056  0.8270 -0.1819
 1958TIP3   OH227508   3.714   5.379   1.422  0.2917  0.1346  0.0414
 1958TIP3    H127509   3.647   5.446   1.435 -1.5421 -1.1853 -1.7846
 1958TIP3    H227510   3.706   5.322   1.498 -1.1663 -0.3371 -0.4170
 1959TIP3   OH227511   6.735   1.894   8.668 -0.0164 -0.1414  0.6110
 1959TIP3    H127512   6.655   1.945   8.653 -0.2456 -1.1196 -1.8935
 1959TIP3    H227513   6.713   1.837   8.742 -1.2011  0.4201  0.7215
 1960TIP3   OH227514   2.627   5.734   8.496 -0.1425 -0.1099  0.0088
 1960TIP3    H127515   2.664   5.756   8.411 -0.5853  0.1897 -0.1100
 1960TIP3    H227516   2.561   5.667   8.477 -1.0999  0.8327 -0.0427
 1961TIP3   OH227517   1.180   5.639   2.678 -0.2188  0.4682 -0.0711
 1961TIP3    H127518   1.242   5.596   2.737  2.0481  2.5821 -0.7364
 1961TIP3    H227519   1.213   5.618   2.590 -3.7101 -2.9193 -0.8508
 1962TIP3   OH227520   5.081   6.105   2.341  0.2996  0.0063 -0.4054
 1962TIP3    H127521   5.149   6.162   2.378 -1.6545  1.6670  0.8006
 1962TIP3    H227522   5.080   6.029   2.400  1.1019 -0.0616 -0.4573
 1963TIP3   OH227523   0.398   3.402   2.110  0.1603  0.1796 -0.1387
 1963TIP3    H127524   0.487   3.421   2.138  0.6083  0.8762 -1.9261
 1963TIP3    H227525   0.407   3.343   2.035 -0.9505 -0.8919  0.5277
 1964TIP3   OH227526   4.659   3.331   1.056 -0.6462 -0.1292 -0.3897
 1964TIP3    H127527   4.595   3.287   1.000 -1.0442 -1.2273  0.8862
 1964TIP3    H227528   4.623   3.324   1.144  0.3091  0.9499  0.1086
 1965TIP3   OH227529   2.569   0.914   1.048  0.2737 -0.1221 -0.6458
 1965TIP3    H127530   2.632   0.887   1.114 -1.0363  0.1157  0.7706
 1965TIP3    H227531   2.542   0.833   1.005  0.3323 -0.4211 -0.1195
 1966TIP3   OH227532   1.187   1.326   7.992  0.2306  0.0209  0.5488
 1966TIP3    H127533   1.104   1.289   7.961 -0.6040 -0.7208  3.3258
 1966TIP3    H227534   1.186   1.310   8.086  2.3209  2.4503  1.0947
 1967TIP3   OH227535   4.892   0.921   2.826 -0.1275 -0.0239  0.3612
 1967TIP3    H127536   4.907   0.872   2.906 -0.1888 -0.6438 -0.0035
 1967TIP3    H227537   4.800   0.906   2.804 -0.7778  1.9921  1.3955
 1968TIP3   OH227538   0.946   3.394   1.647 -0.3852  0.2364 -0.0737
 1968TIP3    H127539   0.948   3.379   1.553 -1.6439 -0.8800  0.0376
 1968TIP3    H227540   0.862   3.357   1.675 -0.4389  1.3449  1.3572
 1969TIP3   OH227541   1.232   5.678   2.024 -0.2222 -0.0133 -0.2139
 1969TIP3    H127542   1.211   5.670   1.931  2.3364 -0.1537 -0.8678
 1969TIP3    H227543   1.165   5.736   2.059 -0.7328  0.7932 -2.3493
 1970TIP3   OH227544   4.147   3.063   8.280 -0.4616 -0.0401  0.7874
 1970TIP3    H127545   4.080   3.117   8.238 -0.9124  0.1748  1.7402
 1970TIP3    H227546   4.167   3.109   8.362 -0.9428 -1.3548  1.6890
 1971TIP3   OH227547   5.776   2.035   0.785  0.4611 -0.3814 -0.0260
 1971TIP3    H127548   5.819   2.093   0.722 -0.8640  1.4170  0.6236
 1971TIP3    H227549   5.816   2.055   0.869 -0.7151  0.3984  0.3767
 1972TIP3   OH227550   2.145   2.457   2.243 -0.0307  0.9865  0.1411
 1972TIP3    H127551   2.186   2.461   2.157 -1.8831  1.9943 -0.7564
 1972TIP3    H227552   2.141   2.364   2.264  2.7022  0.8321  0.3408
 1973TIP3   OH227553   0.737   3.858   0.384  0.4758 -0.1331 -0.6251
 1973TIP3    H127554   0.691   3.890   0.307 -0.2919  0.4990  0.0796
 1973TIP3    H227555   0.768   3.937   0.428 -1.9502 -0.2194  1.4508
 1974TIP3   OH227556   2.279   5.046   2.185  0.1514  0.2290  0.4168
 1974TIP3    H127557   2.335   5.103   2.131 -0.0264  1.2798  1.3089
 1974TIP3    H227558   2.297   5.073   2.275 -0.6477 -0.4923  0.8088
 1975TIP3   OH227559   6.657   5.641   0.759  0.7018  0.5044  0.2289
 1975TIP3    H127560   6.589   5.607   0.818  0.4611 -0.6498 -0.6743
 1975TIP3    H227561   6.710   5.699   0.814 -1.0005  1.4434  0.9603
 1976TIP3   OH227562   4.411   5.739   0.049  0.4465 -0.9388  0.2486
 1976TIP3    H127563   4.478   5.688   0.096 -0.3748 -3.7082 -1.3936
 1976TIP3    H227564   4.375   5.678  -0.016 -0.7856  1.7246 -1.7398
 1977TIP3   OH227565   3.488   5.754   0.830 -1.0248 -0.5850 -0.0300
 1977TIP3    H127566   3.416   5.770   0.890 -0.8959  2.1411 -0.4609
 1977TIP3    H227567   3.566   5.745   0.885 -0.9761  1.4585  0.3012
 1978TIP3   OH227568   4.972   5.737   8.289 -0.6064  0.8076  0.2368
 1978TIP3    H127569   4.930   5.820   8.312  0.4295  1.5082 -0.3000
 1978TIP3    H227570   5.039   5.725   8.356 -0.8355  0.3369  0.3840
 1979TIP3   OH227571   5.427   5.814   0.572 -0.5552  0.1353  0.0660
 1979TIP3    H127572   5.461   5.725   0.557 -1.3216 -0.2775  0.6702
 1979TIP3    H227573   5.504   5.870   0.563 -0.3815 -0.3824 -2.1110
 1980TIP3   OH227574   6.259   6.089   2.179  0.0712  0.3017  0.4949
 1980TIP3    H127575   6.320   6.152   2.218 -0.2712  0.7445  0.3266
 1980TIP3    H227576   6.188   6.143   2.144  0.7219 -0.0228 -1.4140
 1981TIP3   OH227577   4.447   0.778   1.739 -0.6230 -0.3700 -0.3837
 1981TIP3    H127578   4.459   0.701   1.795  0.5410  0.8216  1.0676
 1981TIP3    H227579   4.402   0.842   1.794 -0.0415  0.5941 -0.9958
 1982TIP3   OH227580   5.786   3.094   1.327  0.3884  0.1223 -0.0936
 1982TIP3    H127581   5.735   3.120   1.404 -1.3840 -0.0115 -1.1833
 1982TIP3    H227582   5.835   3.173   1.303  1.2117  0.0727  1.3272
 1983TIP3   OH227583   0.665   2.697   0.511 -0.2996 -0.1952 -0.2271
 1983TIP3    H127584   0.612   2.693   0.591 -1.4771  0.2346 -0.9595
 1983TIP3    H227585   0.747   2.653   0.534 -1.0462 -1.0612  0.8795
 1984TIP3   OH227586   4.580   5.213   2.759  0.2506  0.2598  0.3456
 1984TIP3    H127587   4.672   5.206   2.734  0.2036 -0.6359  0.3875
 1984TIP3    H227588   4.581   5.264   2.841  0.8654 -1.0632  1.1976
 1985TIP3   OH227589   3.331   0.671   7.685  0.1320 -0.0168 -0.1109
 1985TIP3    H127590   3.270   0.645   7.753 -0.5901 -0.6269 -0.9639
 1985TIP3    H227591   3.407   0.705   7.732 -0.2883 -0.5568  0.9872
 1986TIP3   OH227592   6.311   6.386   7.489  0.0530 -0.1458  0.0500
 1986TIP3    H127593   6.307   6.328   7.565 -0.4568 -0.2658 -0.0675
 1986TIP3    H227594   6.265   6.465   7.516 -1.3818 -0.7310 -0.6013
 1987TIP3   OH227595   1.754   4.359   7.749  0.2770 -0.0050  0.3128
 1987TIP3    H127596   1.734   4.452   7.759 -1.5454 -0.3574  0.2603
 1987TIP3    H227597   1.669   4.315   7.757  0.5969 -1.4197 -2.5715
 1988TIP3   OH227598   5.804   4.379   7.373  0.5384 -0.0051 -0.1617
 1988TIP3    H127599   5.899   4.373   7.368  0.4541 -1.6869 -0.3658
 1988TIP3    H227600   5.787   4.462   7.418  2.1066  0.0628  0.3475
 1989TIP3   OH227601   6.484   6.576   1.878  0.2742 -0.6739  0.7698
 1989TIP3    H127602   6.390   6.595   1.890  0.2668 -1.2722  1.8200
 1989TIP3    H227603   6.518   6.567   1.967  1.8393  1.7529  0.5094
 1990TIP3   OH227604   3.349   0.841   0.648 -0.3303 -0.1666  0.3819
 1990TIP3    H127605   3.315   0.912   0.593 -0.8603 -1.4885 -1.0882
 1990TIP3    H227606   3.327   0.761   0.600 -0.3614 -1.3807  2.3012
 1991TIP3   OH227607   0.894   4.118   2.652  0.0996  0.4525  0.1604
 1991TIP3    H127608   0.973   4.065   2.661  0.6567  1.2433  0.0212
 1991TIP3    H227609   0.906   4.166   2.571 -1.6006 -1.1530 -1.1262
 1992TIP3   OH227610   0.874   2.037   1.730  0.1991  0.0069  0.6752
 1992TIP3    H127611   0.878   2.130   1.710 -0.3537 -0.1419 -0.1685
 1992TIP3    H227612   0.938   1.996   1.672  1.2305 -0.0403  1.8002
 1993TIP3   OH227613   6.570   2.118   0.243  0.7608 -0.2966 -0.3966
 1993TIP3    H127614   6.597   2.057   0.312  2.7978  1.3007  0.3322
 1993TIP3    H227615   6.499   2.073   0.197 -0.1700 -1.7490  2.2423
 1994TIP3   OH227616   5.405   4.042   7.146  0.0204 -0.3270  0.2472
 1994TIP3    H127617   5.370   4.120   7.189 -0.8643  0.5499 -1.9188
 1994TIP3    H227618   5.498   4.061   7.133  0.1139 -0.2571  0.9637
 1995TIP3   OH227619   2.986   2.442   1.189  0.8521  0.8116  0.0787
 1995TIP3    H127620   2.974   2.443   1.094 -0.5610  2.4508  0.2367
 1995TIP3    H227621   3.039   2.519   1.208 -1.8588  2.6451  0.8734
 1996TIP3   OH227622   0.630   2.278   7.867 -0.4828 -0.2266 -0.0283
 1996TIP3    H127623   0.702   2.287   7.804 -1.0025  0.5461 -0.5283
 1996TIP3    H227624   0.663   2.216   7.932  0.6832  0.2057 -0.1811
 1997TIP3   OH227625   6.269   2.662   7.008 -0.0219  0.2832 -0.2228
 1997TIP3    H127626   6.277   2.697   6.920 -0.9293 -1.4295 -1.0338
 1997TIP3    H227627   6.201   2.595   7.002 -0.3635  0.3581  1.8613
 1998TIP3   OH227628   4.872   1.353   1.511  0.0742 -0.0436 -0.0493
 1998TIP3    H127629   4.844   1.262   1.521  2.5157 -0.6817  1.8047
 1998TIP3    H227630   4.804   1.403   1.557 -0.7851 -0.9890 -0.2460
 1999TIP3   OH227631   6.863   0.804   8.646 -0.2270 -0.0852 -0.0643
 1999TIP3    H127632   6.879   0.819   8.740 -0.4886 -0.9802  0.1424
 1999TIP3    H227633   6.809   0.878   8.618 -1.0152 -0.3279  0.7498
 2000TIP3   OH227634   3.545   1.268   8.751 -0.2973  0.6268 -0.2018
 2000TIP3    H127635   3.465   1.229   8.716  0.4238  0.8671 -2.2486
 2000TIP3    H227636   3.610   1.198   8.749 -0.3509  0.5012  1.2093
 2001TIP3   OH227637   0.840   4.534   7.799  0.1423  0.0097  0.0065
 2001TIP3    H127638   0.931   4.560   7.783 -0.0439  0.9540  0.4314
 2001TIP3    H227639   0.816   4.577   7.881 -0.8843  0.2774 -0.4108
 2002TIP3   OH227640   1.436   2.155   0.432 -0.0678 -0.0974  0.3886
 2002TIP3    H127641   1.465   2.069   0.464  1.6979  0.3380  0.0603
 2002TIP3    H227642   1.439   2.211   0.510 -0.6110 -0.1774  0.4711
 2003TIP3   OH227643   6.761   6.528   2.420 -0.6777 -0.3620 -0.0573
 2003TIP3    H127644   6.690   6.494   2.474 -1.3130 -0.7095 -1.0825
 2003TIP3    H227645   6.765   6.469   2.345  0.1737  0.1090 -0.3992
 2004TIP3   OH227646   5.056   2.357   7.562  0.3090 -0.0973 -0.4782
 2004TIP3    H127647   4.992   2.355   7.491  0.9471  1.7810 -1.1732
 2004TIP3    H227648   5.066   2.265   7.588 -1.5370 -0.5928 -1.3450
 2005TIP3   OH227649   3.350   4.787   3.209  0.5185 -0.2789  0.3252
 2005TIP3    H127650   3.370   4.876   3.237  0.4186 -0.0585 -0.2889
 2005TIP3    H227651   3.332   4.794   3.115  0.8071 -0.9893  0.2029
 2006TIP3   OH227652   4.346   0.491   1.662 -0.7145 -0.3464 -0.3347
 2006TIP3    H127653   4.298   0.567   1.631  0.6550  1.2821  1.3050
 2006TIP3    H227654   4.316   0.479   1.753  1.7778  0.6533  0.7016
 2007TIP3   OH227655   1.879   5.629   1.031 -0.2990  0.0887  0.1775
 2007TIP3    H127656   1.932   5.695   0.985 -0.2762  0.9856  1.4348
 2007TIP3    H227657   1.833   5.583   0.962  0.8264  0.4338 -0.8382
 2008TIP3   OH227658   0.540   1.796   2.381 -0.0198  0.2415  0.4012
 2008TIP3    H127659   0.510   1.747   2.458 -0.1941  0.3371  0.3944
 2008TIP3    H227660   0.459   1.831   2.342  0.1130  0.6161  0.4621
 2009TIP3   OH227661   1.650   1.598   0.447  0.1071 -0.6100 -0.0112
 2009TIP3    H127662   1.664   1.505   0.465 -0.6759 -1.4229 -2.9084
 2009TIP3    H227663   1.737   1.631   0.424  0.4531 -0.5044  1.4053
 2010TIP3   OH227664   1.073   0.311   2.008 -0.3397 -0.1861 -0.4473
 2010TIP3    H127665   1.089   0.368   2.083 -0.8207  0.3681 -0.7648
 2010TIP3    H227666   1.090   0.223   2.042  0.2979  0.1217  0.0754
 2011TIP3   OH227667   3.493   3.630   1.570  0.0991  0.4902  0.8242
 2011TIP3    H127668   3.526   3.673   1.649  1.5580  0.1304  0.4427
 2011TIP3    H227669   3.478   3.539   1.596 -0.4749  0.6140  0.9510
 2012TIP3   OH227670   5.466   2.568   7.228  0.1178 -0.5196 -0.1998
 2012TIP3    H127671   5.460   2.640   7.292 -0.1759 -0.8497  0.1468
 2012TIP3    H227672   5.386   2.575   7.177  0.5408 -0.0074 -0.7991
 2013TIP3   OH227673   3.257   3.091   7.409  0.0805  0.1514 -0.0384
 2013TIP3    H127674   3.283   3.181   7.386 -1.9154  0.7164 -0.2683
 2013TIP3    H227675   3.218   3.056   7.329  1.7275 -1.3302 -0.2565
 2014TIP3   OH227676   4.122   0.649   2.758 -0.5750  0.4510 -0.4064
 2014TIP3    H127677   4.090   0.653   2.848 -0.7387  1.0000 -0.4852
 2014TIP3    H227678   4.206   0.604   2.763  0.0101  1.5858  0.1810
 2015TIP3   OH227679   6.329   3.824   8.264  0.0888  0.4270 -0.5971
 2015TIP3    H127680   6.250   3.848   8.217 -0.7145  0.1008  0.5509
 2015TIP3    H227681   6.315   3.732   8.289  1.4734 -0.1112 -1.6511
 2016TIP3   OH227682   5.069   0.691   8.028 -0.5898 -0.5943 -0.2065
 2016TIP3    H127683   5.018   0.763   7.992  0.4102  0.1985 -0.0708
 2016TIP3    H227684   5.159   0.723   8.030 -0.1027 -1.8788 -0.2333
 2017TIP3   OH227685   2.997   1.535   2.255  0.4577 -0.0826  0.4210
 2017TIP3    H127686   2.931   1.485   2.303 -0.7578 -0.8890 -1.9162
 2017TIP3    H227687   2.975   1.626   2.272 -1.3323 -0.3327 -0.2825
 2018TIP3   OH227688   2.234   3.347   0.507  0.2068 -0.3726  0.4729
 2018TIP3    H127689   2.140   3.329   0.503 -0.2879  1.6581  1.5018
 2018TIP3    H227690   2.249   3.373   0.598  1.6349 -0.0981  0.1719
 2019TIP3   OH227691   6.506   0.469   7.108  0.2648 -0.5322 -0.2276
 2019TIP3    H127692   6.516   0.436   7.019 -0.0818  1.3830 -1.0116
 2019TIP3    H227693   6.593   0.459   7.147  0.6617 -0.5297 -1.0865
 2020TIP3   OH227694   4.294   4.386   8.517  0.3925  0.3326  0.0803
 2020TIP3    H127695   4.317   4.361   8.428  2.3225  0.8240  0.3965
 2020TIP3    H227696   4.217   4.442   8.507  0.9857  0.9403 -1.3669
 2021TIP3   OH227697   1.724   1.689   3.302 -0.2082 -0.2827 -0.3157
 2021TIP3    H127698   1.679   1.649   3.227 -0.6676  1.7689 -1.2132
 2021TIP3    H227699   1.805   1.725   3.265  0.3608 -0.6849  0.5223
 2022TIP3   OH227700   6.686   4.706   7.332  0.5116 -0.0983 -0.1165
 2022TIP3    H127701   6.713   4.780   7.278  0.3117  0.1992  0.1863
 2022TIP3    H227702   6.753   4.639   7.317  0.4789 -0.0090 -0.6993
 2023TIP3   OH227703   2.852   0.812   1.831 -0.3202 -0.2462 -0.0685
 2023TIP3    H127704   2.762   0.811   1.863 -0.1262  0.3565  0.5448
 2023TIP3    H227705   2.860   0.733   1.778 -0.7283 -1.1928  1.2264
 2024TIP3   OH227706   0.015   3.510   7.856 -0.3048  0.0753  0.7114
 2024TIP3    H127707   0.023   3.548   7.943  1.6913  0.0461  0.5821
 2024TIP3    H227708  -0.032   3.577   7.805 -2.1876 -0.2347  1.9505
 2025TIP3   OH227709   4.657   5.831   1.626  0.2516  0.4286 -0.2929
 2025TIP3    H127710   4.718   5.902   1.609  0.4508 -0.2140 -2.6332
 2025TIP3    H227711   4.570   5.870   1.617  0.3341  0.8299  0.6235
 2026TIP3   OH227712   5.063   6.212   0.672  0.1423 -0.3118 -0.5198
 2026TIP3    H127713   5.068   6.153   0.748 -1.1830  0.2527  0.0347
 2026TIP3    H227714   4.992   6.273   0.694  1.1355  1.1777 -1.3025
 2027TIP3   OH227715   2.382   0.309   2.927  0.4087 -0.0043  0.1634
 2027TIP3    H127716   2.383   0.404   2.939 -0.8197  0.2547 -1.4309
 2027TIP3    H227717   2.458   0.291   2.873 -0.0571  0.2574 -0.5913
 2028TIP3   OH227718   1.476   3.216   0.993 -0.1863  0.4233  0.3972
 2028TIP3    H127719   1.397   3.269   0.990 -1.1728 -1.0318 -1.4435
 2028TIP3    H227720   1.448   3.133   1.032  0.5152  0.0076  0.0343
 2029TIP3   OH227721   2.269   6.002   7.538 -0.4123 -0.3313  0.4843
 2029TIP3    H127722   2.236   5.930   7.484 -0.6076 -0.9247  1.3837
 2029TIP3    H227723   2.294   6.069   7.475 -0.2685 -1.1683 -0.3682
 2030TIP3   OH227724   3.471   3.795   8.483 -0.1991 -0.7745 -0.3870
 2030TIP3    H127725   3.534   3.732   8.518  1.9622  0.0816 -2.4804
 2030TIP3    H227726   3.428   3.749   8.411 -1.3047 -1.0089  0.3895
 2031TIP3   OH227727   5.189   1.919   7.756 -0.1482  0.2579  0.3948
 2031TIP3    H127728   5.262   1.875   7.713  0.3501  2.1548 -0.8514
 2031TIP3    H227729   5.220   1.935   7.845  0.2283 -0.5585  0.4183
 2032TIP3   OH227730   6.184   4.105   8.066  0.0550 -0.1025 -0.0741
 2032TIP3    H127731   6.091   4.100   8.044 -0.3432 -0.2709  1.5297
 2032TIP3    H227732   6.222   4.027   8.025 -0.8782 -1.0623  0.7931
 2033TIP3   OH227733   6.629   5.926   2.253  0.1228 -0.3254  0.0862
 2033TIP3    H127734   6.716   5.913   2.291  1.2208  0.4583 -1.9371
 2033TIP3    H227735   6.574   5.952   2.326  1.9575  0.6180  1.2065
 2034TIP3   OH227736   4.890   3.940   7.418  0.6410 -0.4105  0.0200
 2034TIP3    H127737   4.978   3.959   7.384  0.1959 -0.7237 -1.3773
 2034TIP3    H227738   4.849   3.887   7.349 -0.1720 -1.4528  1.2570
 2035TIP3   OH227739   6.170   2.622   0.821 -0.1021  0.4405 -0.2380
 2035TIP3    H127740   6.224   2.629   0.743 -1.4365  1.0198 -1.1457
 2035TIP3    H227741   6.129   2.708   0.830  0.1803  0.4423  1.2263
 2036TIP3   OH227742   3.103   4.141   3.284 -0.1422 -0.0814 -0.0515
 2036TIP3    H127743   3.148   4.209   3.334  0.3140  0.7319 -1.5315
 2036TIP3    H227744   3.055   4.188   3.216  1.6510 -1.2990 -2.2680
 2037TIP3   OH227745   6.348   4.917   8.379 -0.2896  0.1431 -0.0921
 2037TIP3    H127746   6.264   4.941   8.417  0.0330  1.5497 -0.1846
 2037TIP3    H227747   6.362   4.983   8.310 -0.6874 -2.0767 -2.4384
 2038TIP3   OH227748   0.024   0.461   1.140  0.4771  0.0003  0.2608
 2038TIP3    H127749  -0.060   0.469   1.095 -0.0867 -0.3785  1.2260
 2038TIP3    H227750   0.083   0.427   1.072 -0.3362 -0.4899 -0.2224
 2039TIP3   OH227751   1.191   1.000   8.355 -0.0296  0.0116 -0.0424
 2039TIP3    H127752   1.117   0.959   8.399 -0.2035  1.1576  0.7722
 2039TIP3    H227753   1.265   0.987   8.415  0.0109  0.4743  0.0141
 2040TIP3   OH227754   1.199   5.574   1.029  0.3398  0.3042 -0.6393
 2040TIP3    H127755   1.138   5.637   0.990 -1.3045 -1.5177 -1.1696
 2040TIP3    H227756   1.285   5.612   1.014 -0.6089  3.6169  1.2242
 2041TIP3   OH227757   0.881   5.743   8.493 -0.1241 -0.4063 -0.0422
 2041TIP3    H127758   0.946   5.721   8.559  1.7617  1.5707 -1.1290
 2041TIP3    H227759   0.845   5.827   8.522 -0.5298 -0.3662 -0.6409
 2042TIP3   OH227760   3.863   3.032   2.449  0.1049 -0.1662  0.0282
 2042TIP3    H127761   3.769   3.021   2.445 -0.1221  1.6260 -1.3919
 2042TIP3    H227762   3.876   3.105   2.510  0.7248 -1.4441  1.4744
 2043TIP3   OH227763   5.001   1.082   0.217 -0.5538  0.2939  0.3218
 2043TIP3    H127764   4.940   1.142   0.175 -0.5252 -0.0536 -0.2163
 2043TIP3    H227765   5.080   1.135   0.232 -0.1932  0.1638 -0.9768
 2044TIP3   OH227766   4.681   0.349   0.016 -0.1166  0.5438 -0.1049
 2044TIP3    H127767   4.734   0.362  -0.062 -0.3722  2.2991 -0.0272
 2044TIP3    H227768   4.744   0.333   0.086  0.3053  1.9320 -0.1417
 2045TIP3   OH227769   6.404   1.106   6.762  0.3711  0.5758  0.6360
 2045TIP3    H127770   6.411   1.052   6.840  0.2315 -0.4882 -0.0725
 2045TIP3    H227771   6.311   1.102   6.738  1.0661 -3.0435 -2.2528
 2046TIP3   OH227772   5.767   2.058   2.358  0.0023 -0.6126 -0.1624
 2046TIP3    H127773   5.740   1.997   2.427 -2.2589  1.2627  0.7644
 2046TIP3    H227774   5.823   2.122   2.403  2.3593 -1.8940 -1.1206
 2047TIP3   OH227775   6.201   2.230   7.024 -0.4605  0.0725  0.2542
 2047TIP3    H127776   6.106   2.219   7.012 -0.4152  0.2450 -0.3065
 2047TIP3    H227777   6.210   2.274   7.108 -1.0020  2.0538 -0.6738
 2048TIP3   OH227778   1.405   1.234   0.089  0.2550  0.4531 -0.7030
 2048TIP3    H127779   1.357   1.158   0.054  0.2859 -0.6421  1.4403
 2048TIP3    H227780   1.354   1.310   0.060 -0.0876 -0.3942 -2.4605
 2049TIP3   OH227781   6.137   3.023   2.051 -0.1807  1.0826  0.2978
 2049TIP3    H127782   6.085   2.979   2.119 -0.6399 -0.2591 -0.8660
 2049TIP3    H227783   6.198   2.956   2.021  0.1142  1.7019 -0.5169
 2050TIP3   OH227784   3.756   1.586   1.335 -0.2477 -0.4205 -0.1441
 2050TIP3    H127785   3.702   1.606   1.412  0.4282 -0.0960  0.2543
 2050TIP3    H227786   3.760   1.491   1.333 -0.1657 -0.4300  0.3031
 2051TIP3   OH227787   1.579   6.131   8.719 -0.5271 -0.4895  0.7132
 2051TIP3    H127788   1.608   6.146   8.630 -2.2362 -0.1440  0.1830
 2051TIP3    H227789   1.494   6.087   8.710 -0.8748 -0.1782  2.1572
 2052TIP3   OH227790   5.119   0.256   0.928  0.7385  0.7018  0.6895
 2052TIP3    H127791   5.197   0.235   0.876  1.5859  0.7954  1.8833
 2052TIP3    H227792   5.081   0.171   0.950 -0.3529  0.6832 -1.1047
 2053TIP3   OH227793   0.715   0.893   1.527 -0.4949 -0.9255  0.4519
 2053TIP3    H127794   0.805   0.863   1.520  0.3064  1.4391  0.0168
 2053TIP3    H227795   0.698   0.898   1.621  1.1138  2.0153  0.6886
 2054TIP3   OH227796   2.149   1.060   7.727  0.2675 -0.1704  0.1461
 2054TIP3    H127797   2.075   1.070   7.787  1.0168 -1.8963  1.4598
 2054TIP3    H227798   2.225   1.090   7.778  0.9382 -1.8162  0.1848
 2055TIP3   OH227799   2.886   4.571   7.562 -0.1578 -0.0976 -0.1982
 2055TIP3    H127800   2.875   4.662   7.589 -0.7726 -0.2591  0.1233
 2055TIP3    H227801   2.815   4.524   7.606  1.1542 -1.0222  1.0118
 2056TIP3   OH227802   5.792   6.689   0.463  0.1109 -0.4011 -0.4882
 2056TIP3    H127803   5.737   6.647   0.398  0.7871  0.7550 -1.8611
 2056TIP3    H227804   5.809   6.621   0.528 -0.6115 -1.5744 -1.4911
 2057TIP3   OH227805   1.427   3.523   8.208  0.5706  0.3865 -0.7498
 2057TIP3    H127806   1.437   3.477   8.125  0.1624 -0.9099 -0.1183
 2057TIP3    H227807   1.376   3.601   8.187 -0.0524 -0.2370 -1.6228
 2058TIP3   OH227808   3.094   4.593   8.285 -0.2146 -0.0866 -0.2775
 2058TIP3    H127809   3.011   4.545   8.286  0.4996 -1.3611 -0.6451
 2058TIP3    H227810   3.068   4.685   8.282 -1.6164 -0.4622 -0.3399
 2059TIP3   OH227811   1.769   5.192   1.759  0.1060 -0.5328  0.4106
 2059TIP3    H127812   1.794   5.146   1.679  1.5905 -0.3362  0.7365
 2059TIP3    H227813   1.842   5.250   1.777 -0.0414 -0.8390  2.1178
 2060TIP3   OH227814   5.795   3.246   0.472  0.0655  0.4653 -0.2033
 2060TIP3    H127815   5.728   3.192   0.428 -1.8917  1.3278  1.5265
 2060TIP3    H227816   5.796   3.327   0.421  3.0043 -0.9816 -2.8016
 2061TIP3   OH227817   2.440   5.328   2.316 -0.1066  0.6139 -0.3097
 2061TIP3    H127818   2.512   5.356   2.373 -1.3878  1.7868  0.8026
 2061TIP3    H227819   2.409   5.246   2.354 -1.4872  1.7926  1.2764
 2062TIP3   OH227820   3.406   6.672   0.367  0.3827  0.4542 -0.0037
 2062TIP3    H127821   3.379   6.688   0.276 -0.6408  1.8882  0.4976
 2062TIP3    H227822   3.326   6.642   0.411  1.1497 -1.4190  0.1957
 2063TIP3   OH227823   2.059   4.985   1.858 -0.4020  0.0871 -0.5935
 2063TIP3    H127824   2.086   5.075   1.876  0.3041 -0.1108 -0.6338
 2063TIP3    H227825   2.122   4.953   1.794  0.2048 -0.8704  0.4362
 2064TIP3   OH227826   1.904   1.452   1.781  0.4715  0.0770 -0.6414
 2064TIP3    H127827   1.918   1.447   1.687 -0.2598 -0.5042 -0.7333
 2064TIP3    H227828   1.952   1.530   1.809  0.6905  0.2556 -1.4875
 2065TIP3   OH227829   3.038   0.589   2.933  0.1686 -0.2003  0.2578
 2065TIP3    H127830   3.084   0.528   2.876  1.1611  0.1020  0.7035
 2065TIP3    H227831   3.013   0.662   2.876 -1.3107 -1.1484 -0.3422
 2066TIP3   OH227832   1.777   5.454   3.486  0.2102 -0.1717 -0.2765
 2066TIP3    H127833   1.773   5.453   3.581 -0.0619 -1.5092 -0.2845
 2066TIP3    H227834   1.848   5.515   3.466 -0.7041  1.2911  0.7149
 2067TIP3   OH227835   4.729   4.624   1.025 -0.4926 -0.1482 -0.5065
 2067TIP3    H127836   4.818   4.593   1.041 -0.6697 -0.0296  0.8624
 2067TIP3    H227837   4.723   4.634   0.930  0.9331 -0.2152 -0.6204
 2068TIP3   OH227838   1.383   2.548   8.258  0.3192 -0.3521 -0.3086
 2068TIP3    H127839   1.315   2.549   8.326  1.2548  0.9930  0.6604
 2068TIP3    H227840   1.336   2.571   8.177 -0.3796  0.7038  0.3675
 2069TIP3   OH227841   2.249   0.796   2.732 -0.0675  0.1330  0.3046
 2069TIP3    H127842   2.210   0.875   2.769 -1.2861 -0.3677  0.1396
 2069TIP3    H227843   2.341   0.818   2.720 -0.3748  1.5062  0.3135
 2070TIP3   OH227844   3.717   5.575   8.048 -0.5689 -0.5468  0.1054
 2070TIP3    H127845   3.810   5.566   8.028 -0.7652 -1.0270 -0.6375
 2070TIP3    H227846   3.678   5.610   7.968 -0.7099  1.7844  1.1364
 2071TIP3   OH227847   6.843   0.752   1.600  0.6237  0.2773  0.2111
 2071TIP3    H127848   6.873   0.842   1.599  0.0130  0.4959  0.7326
 2071TIP3    H227849   6.923   0.699   1.597  0.9521  0.8223 -1.0008
 2072TIP3   OH227850   5.449   4.058   8.337  0.0616 -0.2059 -0.4686
 2072TIP3    H127851   5.440   4.048   8.242 -0.7043 -2.5392 -0.2171
 2072TIP3    H227852   5.392   3.990   8.373 -1.1114  1.8047  1.7205
 2073TIP3   OH227853   4.333   3.465   0.186  0.3556 -0.4104 -0.6021
 2073TIP3    H127854   4.261   3.473   0.124 -0.5792  1.6645  0.6512
 2073TIP3    H227855   4.412   3.476   0.132 -0.3997  0.4922 -1.5614
 2074TIP3   OH227856   6.460   2.630   0.413 -0.0758 -0.0607  0.8695
 2074TIP3    H127857   6.526   2.693   0.385 -1.3249  0.9226  0.0205
 2074TIP3    H227858   6.494   2.545   0.384 -0.0792  0.6396 -1.3310
 2075TIP3   OH227859   5.579   1.669   7.273  0.4600 -0.1549  0.6257
 2075TIP3    H127860   5.569   1.611   7.348 -3.1426 -0.8809 -0.1914
 2075TIP3    H227861   5.634   1.619   7.212 -0.2993 -1.5516  1.0335
 2076TIP3   OH227862   1.150   1.477   8.240  0.3487 -0.1359 -0.2529
 2076TIP3    H127863   1.064   1.478   8.282  0.3861 -0.7237 -0.1638
 2076TIP3    H227864   1.180   1.568   8.246 -0.4894  0.1844 -0.7630
 2077TIP3   OH227865   2.099   0.448   1.595 -1.0813  0.4440  0.2509
 2077TIP3    H127866   2.169   0.382   1.588 -1.7691 -0.1774 -1.3060
 2077TIP3    H227867   2.078   0.450   1.688 -1.1039 -1.6566  0.3466
 2078TIP3   OH227868   0.199   5.718   7.966  0.0237  0.2567 -0.1634
 2078TIP3    H127869   0.263   5.786   7.945  2.8345 -1.8193  1.0332
 2078TIP3    H227870   0.241   5.637   7.937 -3.4172 -1.0321 -2.0414
 2079TIP3   OH227871   6.026   2.837   1.821  0.0185  0.3211  0.1048
 2079TIP3    H127872   6.122   2.841   1.829  0.2481  0.9116 -2.1618
 2079TIP3    H227873   5.998   2.927   1.837  0.0986  0.6343 -1.3741
 2080TIP3   OH227874   6.239   0.466   7.162 -0.4138  0.2131 -0.4343
 2080TIP3    H127875   6.332   0.445   7.154 -0.4307 -0.1370  0.3012
 2080TIP3    H227876   6.201   0.432   7.081  0.1513  0.6757 -0.9045
 2081TIP3   OH227877   5.408   2.165   1.431 -0.2605  0.5551 -0.1817
 2081TIP3    H127878   5.359   2.135   1.354 -0.8486 -0.3268  0.5246
 2081TIP3    H227879   5.489   2.201   1.394  0.3250 -1.5694 -1.1296
 2082TIP3   OH227880   6.359   1.831   8.267  0.0741 -0.0295 -0.0880
 2082TIP3    H127881   6.444   1.823   8.309  0.5692  1.2165 -0.7787
 2082TIP3    H227882   6.350   1.752   8.213  0.9691  0.0118 -0.3072
 2083TIP3   OH227883   5.506   0.906   7.146 -0.3012 -0.4906 -0.0496
 2083TIP3    H127884   5.536   0.904   7.055  1.2987 -0.1933  0.4320
 2083TIP3    H227885   5.579   0.946   7.194  0.3095 -3.6115  1.8567
 2084TIP3   OH227886   0.758   3.125   2.495  0.3203 -0.2295  0.2075
 2084TIP3    H127887   0.761   3.193   2.562 -1.2428  0.7432 -0.6448
 2084TIP3    H227888   0.736   3.045   2.543 -0.5537  0.4092  0.8961
 2085TIP3   OH227889   2.487   3.759   2.071 -0.1003 -0.6049 -0.0947
 2085TIP3    H127890   2.481   3.822   2.143  2.5466  0.1894 -0.4297
 2085TIP3    H227891   2.413   3.780   2.014  0.4313  1.9689  0.0461
 2086TIP3   OH227892   6.226   6.623   7.638  1.0624  0.0883 -0.1708
 2086TIP3    H127893   6.193   6.696   7.691 -0.0402 -0.6431  0.1773
 2086TIP3    H227894   6.290   6.579   7.694  0.4332 -0.2513  0.2900
 2087TIP3   OH227895   5.122   0.502   8.268 -0.4863  0.2368 -0.1544
 2087TIP3    H127896   5.069   0.565   8.218  0.4265  1.6656  0.6227
 2087TIP3    H227897   5.193   0.555   8.304 -0.4396 -1.0006  1.6396
 2088TIP3   OH227898   5.125   4.601   8.067  0.5032 -0.4221 -0.1769
 2088TIP3    H127899   5.161   4.660   8.000  0.2497  1.3097  1.1460
 2088TIP3    H227900   5.182   4.524   8.063  1.6272  0.4063 -1.1344
 2089TIP3   OH227901   4.197   2.355   7.011 -0.0733 -0.3886 -0.0989
 2089TIP3    H127902   4.204   2.400   6.927 -1.1256 -0.5716 -0.3024
 2089TIP3    H227903   4.141   2.411   7.064 -0.4845 -0.9045  0.0248
 2090TIP3   OH227904   3.107   5.349   8.609  0.0518 -0.1531 -0.1469
 2090TIP3    H127905   3.136   5.347   8.701  0.2163 -1.1657 -0.2082
 2090TIP3    H227906   3.081   5.440   8.594 -1.7493 -0.3387  1.4478
 2091TIP3   OH227907   4.294   0.249   2.567 -0.3268  0.1384 -0.9991
 2091TIP3    H127908   4.359   0.312   2.600  0.1900 -0.5845 -0.5872
 2091TIP3    H227909   4.215   0.301   2.553  0.2781  1.0019 -1.3031
 2092TIP3   OH227910   2.688   3.770   0.167  0.3592  0.0982  0.1393
 2092TIP3    H127911   2.725   3.777   0.079  0.5222  1.6384  0.3107
 2092TIP3    H227912   2.760   3.738   0.221  1.6457  3.3023  0.5272
 2093TIP3   OH227913   0.839   1.734   8.492  0.0629 -0.3932  0.3807
 2093TIP3    H127914   0.840   1.801   8.423  3.1714 -2.0069 -1.3919
 2093TIP3    H227915   0.774   1.670   8.462 -1.6937  0.8984  1.2322
 2094TIP3   OH227916   4.280   1.380   2.335 -0.5699  0.2897 -0.2951
 2094TIP3    H127917   4.337   1.444   2.379 -2.8565  2.4592 -0.2331
 2094TIP3    H227918   4.253   1.320   2.405  0.5454  0.0638 -0.0464
 2095TIP3   OH227919   5.318   6.420   7.596 -0.5436 -0.0063  0.3870
 2095TIP3    H127920   5.329   6.494   7.536 -1.1606  1.8212  2.3895
 2095TIP3    H227921   5.225   6.421   7.618 -0.9155 -2.4622 -0.7751
 2096TIP3   OH227922   3.935   5.581   8.628 -0.2539  0.1126  0.1840
 2096TIP3    H127923   3.869   5.569   8.696  0.3912 -0.4586  0.7234
 2096TIP3    H227924   3.886   5.616   8.553 -1.3706 -1.3142  0.1995
 2097TIP3   OH227925   5.235   5.946   7.315 -0.1625  0.3569  0.0203
 2097TIP3    H127926   5.212   6.015   7.378 -1.0973 -0.7679  0.9441
 2097TIP3    H227927   5.181   5.966   7.238  1.0069  1.7526 -0.4789
 2098TIP3   OH227928   0.158   3.171   3.239 -0.2248 -0.7965 -0.3625
 2098TIP3    H127929   0.181   3.223   3.163 -0.3880 -0.6329 -0.3009
 2098TIP3    H227930   0.204   3.213   3.312 -0.1935 -0.8604 -0.3450
 2099TIP3   OH227931   5.159   0.758   0.139  0.6993  0.6584  0.2486
 2099TIP3    H127932   5.174   0.839   0.090  0.7922  0.9815  0.8017
 2099TIP3    H227933   5.205   0.691   0.089 -0.2051  0.7530 -0.7664
 2100TIP3   OH227934   2.065   5.713   1.858  0.6145  0.5553 -0.0215
 2100TIP3    H127935   2.152   5.738   1.889 -0.1029  1.0674  1.6922
 2100TIP3    H227936   2.008   5.723   1.934 -1.0489  0.7184 -1.2140
 2101TIP3   OH227937   1.656   0.299   0.963  0.0319 -1.0758  0.3393
 2101TIP3    H127938   1.639   0.372   0.904  0.8450 -0.0964  1.2673
 2101TIP3    H227939   1.606   0.320   1.042  2.2067 -0.1833  1.5773
 2102TIP3   OH227940   5.938   2.134   1.669 -0.2485 -0.6263 -0.3220
 2102TIP3    H127941   5.874   2.164   1.605 -1.2987 -0.1475  0.9260
 2102TIP3    H227942   5.891   2.071   1.724 -0.2278  0.9955  1.6893
 2103TIP3   OH227943   1.472   2.908   0.984  0.0008  0.4509  0.1604
 2103TIP3    H127944   1.564   2.884   0.999 -0.2775 -0.1903  0.9029
 2103TIP3    H227945   1.422   2.836   1.023 -0.8095  0.2372 -1.2333
 2104TIP3   OH227946   2.085   2.904   8.462 -0.4681 -0.1883 -0.4787
 2104TIP3    H127947   2.064   2.824   8.414 -0.8916 -0.0858 -0.4601
 2104TIP3    H227948   2.083   2.973   8.395  2.0357 -0.4755 -0.9558
 2105TIP3   OH227949   0.213   5.947   1.624 -0.0206 -0.5646 -0.4875
 2105TIP3    H127950   0.154   5.985   1.558  1.4573 -0.2686 -1.7079
 2105TIP3    H227951   0.174   5.862   1.645 -2.1595  0.6140  0.5737
 2106TIP3   OH227952   5.732   5.672   0.518  0.3280 -0.5849 -0.3403
 2106TIP3    H127953   5.808   5.677   0.460  0.4908  4.2496 -0.1505
 2106TIP3    H227954   5.766   5.699   0.604 -1.3863  1.1514 -0.1326
 2107TIP3   OH227955   4.202   0.310   1.070  0.5579 -0.4466  0.4140
 2107TIP3    H127956   4.256   0.370   1.019  0.6031 -1.3521 -0.6393
 2107TIP3    H227957   4.191   0.354   1.155  1.7532  0.3913  0.1597
 2108TIP3   OH227958   5.694   3.763   1.019 -0.1594  0.2309 -0.2101
 2108TIP3    H127959   5.770   3.705   1.032 -1.7146 -1.6564  1.2035
 2108TIP3    H227960   5.696   3.822   1.094  0.8378  1.3552 -1.0925
 2109TIP3   OH227961   4.616   5.080   7.828  0.2803  0.0392 -0.3124
 2109TIP3    H127962   4.585   5.066   7.917 -0.0928 -2.4416 -0.7599
 2109TIP3    H227963   4.578   5.164   7.802  0.4565  0.8400  1.8618
 2110TIP3   OH227964   2.151   6.648   7.840 -0.7547  0.2113  0.2057
 2110TIP3    H127965   2.241   6.668   7.816 -1.2641  0.7708 -1.3104
 2110TIP3    H227966   2.142   6.683   7.929  0.3874  0.5368  0.2067
 2111TIP3   OH227967   1.879   1.718   1.888  0.1719  0.1378  0.2379
 2111TIP3    H127968   1.794   1.754   1.913 -0.1468 -0.6492  0.3241
 2111TIP3    H227969   1.942   1.785   1.913 -0.4882  1.1271 -0.6476
 2112TIP3   OH227970   6.103   1.465   0.660 -0.1128 -0.5602 -0.1420
 2112TIP3    H127971   6.051   1.415   0.723 -0.2703 -1.6877 -1.1163
 2112TIP3    H227972   6.138   1.398   0.600  2.2260  0.1931  0.2928
 2113TIP3   OH227973   3.705   4.497   2.480 -0.3750 -0.2891 -0.1731
 2113TIP3    H127974   3.678   4.502   2.571 -2.5493  0.0975 -0.7680
 2113TIP3    H227975   3.778   4.558   2.472 -0.8463  0.4611  1.0665
 2114TIP3   OH227976   6.394   6.058   2.522 -0.0671  0.4109 -0.2213
 2114TIP3    H127977   6.460   6.004   2.566 -0.6804 -0.1080  0.0855
 2114TIP3    H227978   6.328   5.995   2.491 -0.3066  0.8972 -0.7230
 2115TIP3   OH227979   6.749   0.954   1.209  0.6587  0.0421 -0.2658
 2115TIP3    H127980   6.695   1.028   1.236 -0.9473 -0.8073 -0.9787
 2115TIP3    H227981   6.727   0.884   1.272  1.2454 -0.1951 -0.3189
 2116TIP3   OH227982   0.434   0.636   0.783  0.2846 -0.2899 -0.1091
 2116TIP3    H127983   0.365   0.626   0.718 -0.2567  0.7096  0.2888
 2116TIP3    H227984   0.403   0.587   0.859  0.1502 -0.0880 -0.0337
 2117TIP3   OH227985   5.967   0.733   7.607  0.4369  0.0779  0.1388
 2117TIP3    H127986   6.048   0.748   7.558  0.5625  0.1121  0.3550
 2117TIP3    H227987   5.928   0.656   7.567  1.4499 -0.9875  1.1556
 2118TIP3   OH227988   5.817   4.876   1.693  0.0442  0.2752  0.2991
 2118TIP3    H127989   5.757   4.820   1.644 -0.9267  0.2082  1.5197
 2118TIP3    H227990   5.863   4.816   1.751 -0.9116  0.6898  1.5252
 2119TIP3   OH227991   2.321   1.827   1.936 -0.6181 -0.3818  0.6287
 2119TIP3    H127992   2.372   1.792   2.009 -0.3059 -0.2486  0.4761
 2119TIP3    H227993   2.237   1.854   1.975 -0.7493 -1.0235  0.8002
 2120TIP3   OH227994   3.215   1.680   2.579  0.2153 -0.1780  0.4827
 2120TIP3    H127995   3.144   1.691   2.641  0.0089 -0.9615  0.3932
 2120TIP3    H227996   3.206   1.590   2.548  1.4205 -0.3789  0.6839
 2121TIP3   OH227997   3.966   0.448   0.555  0.2716 -0.1125  0.0045
 2121TIP3    H127998   3.947   0.371   0.609  0.1097  0.0781  0.2233
 2121TIP3    H227999   3.881   0.485   0.534  0.3087 -0.5065 -0.8660
 2122TIP3   OH228000   4.195   6.688   1.227  0.1874  0.2765  0.9701
 2122TIP3    H128001   4.191   6.773   1.270 -1.0313  1.1957 -0.7865
 2122TIP3    H228002   4.116   6.643   1.257 -3.3638  2.6889 -3.3547
 2123TIP3   OH228003   2.551   5.857   1.579  0.1275  0.0529 -0.2778
 2123TIP3    H128004   2.633   5.836   1.623  0.7341  0.8053 -1.0257
 2123TIP3    H228005   2.570   5.849   1.486  0.0534  2.5716 -0.5661
 2124TIP3   OH228006   5.731   3.374   8.410  0.7885 -0.1253  0.6472
 2124TIP3    H128007   5.684   3.335   8.336  1.4366 -0.4846  0.4188
 2124TIP3    H228008   5.784   3.443   8.371  1.1207 -0.3039  0.7760
 2125TIP3   OH228009   4.312   3.177   0.002  0.3896 -0.0221 -0.5765
 2125TIP3    H128010   4.402   3.148   0.015  0.8113  1.6021  0.5728
 2125TIP3    H228011   4.271   3.167   0.089 -0.1263  0.5243 -0.7483
 2126TIP3   OH228012   2.303   4.758   8.396 -0.0395 -0.2660 -0.2955
 2126TIP3    H128013   2.321   4.720   8.310  0.6777  0.8630 -0.6516
 2126TIP3    H228014   2.364   4.714   8.456 -1.5932 -2.2148 -0.0162
 2127TIP3   OH228015   2.745   6.232   0.575  0.7223  0.4086 -0.1479
 2127TIP3    H128016   2.778   6.276   0.653  0.6855  0.5002 -0.1840
 2127TIP3    H228017   2.811   6.249   0.508 -0.1887  2.0225 -0.6894
 2128TIP3   OH228018   2.655   4.694   0.511 -0.2043 -0.5748 -0.5179
 2128TIP3    H128019   2.636   4.626   0.576 -1.1361  0.2114  0.0540
 2128TIP3    H228020   2.616   4.661   0.430  0.8544 -1.4995 -0.6763
 2129TIP3   OH228021   0.035   6.655   8.270  0.0778 -0.4708  0.8437
 2129TIP3    H128022  -0.042   6.712   8.277  0.2211  0.1802 -1.7957
 2129TIP3    H228023   0.046   6.618   8.358 -3.3208 -0.7075  1.2913
 2130TIP3   OH228024   2.101   3.374   8.260  0.2133  0.1947 -0.0144
 2130TIP3    H128025   2.070   3.336   8.178 -1.2738  0.1942  0.5134
 2130TIP3    H228026   2.196   3.366   8.256  0.0513 -1.8324 -0.7468
 2131TIP3   OH228027   5.270   4.357   1.333 -0.6372 -0.3572  0.2695
 2131TIP3    H128028   5.298   4.332   1.245 -0.0739  0.3626  0.2290
 2131TIP3    H228029   5.304   4.287   1.389 -1.6408 -1.2071 -0.1530
 2132TIP3   OH228030   3.242   4.588   7.068 -0.3014 -0.0453 -0.0016
 2132TIP3    H128031   3.282   4.675   7.071 -0.9278  0.2083  2.1604
 2132TIP3    H228032   3.270   4.545   7.149 -0.0561 -1.8691 -0.9836
 2133TIP3   OH228033   2.750   6.224   8.632  0.2188 -0.4390 -0.3527
 2133TIP3    H128034   2.763   6.279   8.555  2.0570 -2.0269 -1.2667
 2133TIP3    H228035   2.835   6.225   8.676 -0.2664 -1.0637  0.6260
 2134TIP3   OH228036   1.440   4.397   7.637  0.8223 -0.1055 -0.0912
 2134TIP3    H128037   1.378   4.324   7.642 -0.6448  1.0427 -0.8866
 2134TIP3    H228038   1.402   4.465   7.692  3.2424 -0.5853  2.4429
 2135TIP3   OH228039   5.958   2.265   7.350  0.6232  0.7242  0.5253
 2135TIP3    H128040   5.904   2.341   7.371  0.9419  0.6416  1.7022
 2135TIP3    H228041   5.933   2.242   7.260 -0.6034  1.2677  0.7071
 2136TIP3   OH228042   2.579   0.383   8.318  0.5791 -0.1784  0.3544
 2136TIP3    H128043   2.539   0.329   8.386  2.0971 -0.1565  1.3023
 2136TIP3    H228044   2.529   0.464   8.318 -1.6746 -1.4592 -1.0187
 2137TIP3   OH228045   0.840   0.707   7.926  0.6180 -0.1185  0.4084
 2137TIP3    H128046   0.876   0.619   7.939  1.9757  0.3893  0.3391
 2137TIP3    H228047   0.833   0.744   8.014 -1.2510 -0.7401  0.5646
 2138TIP3   OH228048   3.587   1.237   2.483 -0.2563 -0.4880  0.0092
 2138TIP3    H128049   3.532   1.254   2.559 -1.2304  0.1327 -0.8018
 2138TIP3    H228050   3.615   1.324   2.454 -0.0528 -0.7013 -0.4453
 2139TIP3   OH228051   2.695   1.657   2.952 -0.6475 -0.1152 -0.1114
 2139TIP3    H128052   2.702   1.562   2.941  0.6046  0.1619 -2.0072
 2139TIP3    H228053   2.602   1.675   2.941 -0.7656 -1.0189 -0.7383
 2140TIP3   OH228054   3.155   1.568   7.225 -0.3893 -0.3126  0.0778
 2140TIP3    H128055   3.201   1.493   7.185  0.5504  1.3062 -2.0517
 2140TIP3    H228056   3.218   1.640   7.219 -1.4280  0.7734  1.7090
 2141TIP3   OH228057   6.093   4.703   0.239  0.3350  0.2617  0.6106
 2141TIP3    H128058   6.127   4.745   0.318  0.8051  0.3377  0.3702
 2141TIP3    H228059   6.107   4.609   0.252  0.6181  0.2920  0.5201
 2142TIP3   OH228060   5.556   2.342   3.253  0.0541  0.1159 -0.6661
 2142TIP3    H128061   5.585   2.412   3.195  1.3699  0.2193  0.0702
 2142TIP3    H228062   5.503   2.285   3.198 -0.6323  1.4119 -1.4009
 2143TIP3   OH228063   2.604   6.601   0.407 -0.4899 -0.0168  0.4487
 2143TIP3    H128064   2.550   6.625   0.331 -1.2993  1.7468  1.5208
 2143TIP3    H228065   2.547   6.545   0.460 -1.3773  1.8753  1.5990
 2144TIP3   OH228066   0.100   6.140   1.192  0.1532  0.6652  0.2642
 2144TIP3    H128067   0.165   6.116   1.126  0.2893  2.9768 -0.5222
 2144TIP3    H228068   0.066   6.056   1.224  1.8180 -0.5468 -0.9914
 2145TIP3   OH228069   0.925   2.260   0.240 -0.4887  0.5476  0.4537
 2145TIP3    H128070   0.997   2.238   0.299 -0.2289  0.6738  0.1878
 2145TIP3    H228071   0.848   2.221   0.280 -0.1284 -0.3523  0.2916
 2146TIP3   OH228072   5.349   5.435   2.371  0.2040 -0.0783  0.3198
 2146TIP3    H128073   5.401   5.355   2.380 -1.7321 -1.4381  0.0813
 2146TIP3    H228074   5.314   5.451   2.458 -0.6680 -0.4147  0.0428
 2147TIP3   OH228075   6.017   4.201   7.601 -0.0224 -0.6389  0.3686
 2147TIP3    H128076   6.023   4.290   7.634 -0.0820 -0.6717  0.4677
 2147TIP3    H228077   6.044   4.207   7.510 -3.7412  0.1726 -0.8462
 2148TIP3   OH228078   4.082   4.068   1.296 -0.3689 -0.2986  0.5248
 2148TIP3    H128079   4.041   4.153   1.312 -0.1489 -0.4711  2.2749
 2148TIP3    H228080   4.017   4.020   1.244 -0.9020  0.6106  0.3241
 2149TIP3   OH228081   2.893   0.669   2.487  0.3537  0.2705 -0.2663
 2149TIP3    H128082   2.951   0.595   2.504  0.6903  0.8113  1.0594
 2149TIP3    H228083   2.822   0.659   2.551 -1.5339 -0.8406 -2.3812
 2150TIP3   OH228084   4.586   1.530   2.449 -0.1281 -0.1366  0.1344
 2150TIP3    H128085   4.540   1.599   2.400 -2.1379 -1.6196 -0.1715
 2150TIP3    H228086   4.648   1.494   2.386  1.6965  1.9889  0.5965
 2151TIP3   OH228087   2.735   5.842   8.726 -0.4342 -0.1325  0.5818
 2151TIP3    H128088   2.700   5.789   8.798  0.2350 -2.1299 -0.4834
 2151TIP3    H228089   2.712   5.793   8.647  0.5519  0.9897 -0.4304
 2152TIP3   OH228090   2.047   2.766   7.589  0.3905  0.0495  0.2195
 2152TIP3    H128091   2.068   2.744   7.498  0.4754  1.0971 -0.0272
 2152TIP3    H228092   2.103   2.840   7.610  0.7451 -0.5087  1.3092
 2153TIP3   OH228093   6.247   2.563   8.104 -0.1628 -0.0156 -0.3986
 2153TIP3    H128094   6.231   2.473   8.132 -1.8205  0.8065  1.5478
 2153TIP3    H228095   6.199   2.572   8.021  0.6825 -1.1065 -1.0266
 2154TIP3   OH228096   5.222   0.965   7.156 -0.0018  0.6087 -0.1659
 2154TIP3    H128097   5.299   0.913   7.174 -0.4553 -0.0884 -0.2103
 2154TIP3    H228098   5.154   0.929   7.213 -1.1839 -0.9624 -2.4015
 2155TIP3   OH228099   6.596   0.427   1.095 -0.2893  0.0066 -0.1425
 2155TIP3    H128100   6.595   0.405   1.002 -0.9909 -1.2773  0.1383
 2155TIP3    H228101   6.627   0.517   1.098  0.8459 -0.2945 -1.5347
 2156TIP3   OH228102   3.512   2.315   8.260  0.3862  0.3723  0.0933
 2156TIP3    H128103   3.441   2.334   8.322  1.4562  1.4824  1.0301
 2156TIP3    H228104   3.543   2.401   8.232  0.5848 -0.1072 -1.2486
 2157TIP3   OH228105   3.077   0.219   8.411 -0.2691  0.1375  0.1700
 2157TIP3    H128106   3.091   0.306   8.373 -0.4806 -0.2373 -0.7702
 2157TIP3    H228107   2.982   0.206   8.407 -0.1970 -0.3221 -0.1133
 2158TIP3   OH228108   6.316   0.383   1.860  0.3255 -0.0641  0.4707
 2158TIP3    H128109   6.341   0.299   1.819  1.6219  0.0975  0.8743
 2158TIP3    H228110   6.322   0.366   1.954  0.0412  0.3215  0.5586
 2159TIP3   OH228111   3.334   3.435   0.489 -0.8043 -0.8321 -0.7029
 2159TIP3    H128112   3.364   3.408   0.576 -2.7106 -0.9256 -0.0357
 2159TIP3    H228113   3.406   3.412   0.430  0.4568 -0.9004  0.8192
 2160TIP3   OH228114   4.032   4.761   8.247 -0.6255  1.0745  0.9786
 2160TIP3    H128115   4.018   4.682   8.299  1.7061  0.1076  0.2670
 2160TIP3    H228116   3.954   4.767   8.191 -0.7734 -0.8759  0.8917
 2161TIP3   OH228117   5.826   3.873   0.774  1.1624 -0.3432  0.3320
 2161TIP3    H128118   5.784   3.952   0.808 -0.9250 -1.0474 -0.5094
 2161TIP3    H228119   5.864   3.831   0.852  0.2475  0.2818  1.1397
 2162TIP3   OH228120   2.459   4.848   6.920 -0.5623 -0.1370  0.1564
 2162TIP3    H128121   2.482   4.770   6.969  0.7900 -0.4557 -0.9356
 2162TIP3    H228122   2.496   4.920   6.971 -0.8085 -0.2992  0.5673
 2163TIP3   OH228123   2.018   6.847   8.171  0.4795  0.8170  1.0929
 2163TIP3    H128124   2.105   6.885   8.161  0.4183  1.0670  1.4764
 2163TIP3    H228125   2.018   6.809   8.259  0.5735 -0.1689  0.6810
 2164TIP3   OH228126   1.895   5.139   1.530 -0.2006 -0.3721  0.1365
 2164TIP3    H128127   1.983   5.103   1.544  0.9023  1.9777 -0.1617
 2164TIP3    H228128   1.911   5.228   1.499 -2.6767  1.1812  2.8049
 2165TIP3   OH228129   0.207   5.464   1.888  0.0938 -0.0940  0.8520
 2165TIP3    H128130   0.290   5.424   1.914  0.4577  0.7637  1.0558
 2165TIP3    H228131   0.141   5.409   1.929  0.5877 -0.3087  1.3816
 2166TIP3   OH228132   1.044   1.934   1.536 -0.6766  0.2974 -0.0526
 2166TIP3    H128133   1.096   1.861   1.567  0.8528  1.8024  1.0887
 2166TIP3    H228134   1.044   1.925   1.441  1.0110 -0.1977 -0.0276
 2167TIP3   OH228135   3.166   0.841   7.937  0.4676 -0.4883 -0.6727
 2167TIP3    H128136   3.205   0.916   7.893 -1.4208  2.2495  1.8771
 2167TIP3    H228137   3.082   0.828   7.893  0.5179 -0.7131 -0.7075
 2168TIP3   OH228138   6.539   0.026   0.706 -0.1736  0.2558 -0.3463
 2168TIP3    H128139   6.561   0.019   0.799  1.7761 -1.6297 -0.8679
 2168TIP3    H228140   6.508   0.115   0.695  1.8394  1.2997  1.6856
 2169TIP3   OH228141   5.393   4.408   1.856  0.2144 -0.2062  0.6592
 2169TIP3    H128142   5.307   4.451   1.865  0.1344 -0.3707  0.6884
 2169TIP3    H228143   5.424   4.400   1.946 -0.1197 -0.9104  0.7218
 2170TIP3   OH228144   5.091   6.093   1.406 -0.0742  0.3706  0.4597
 2170TIP3    H128145   5.115   6.047   1.326  0.5656  0.6564  0.4834
 2170TIP3    H228146   5.066   6.023   1.467 -0.3948  0.1424  0.0725
 2171TIP3   OH228147   5.920   5.525   2.469 -0.3038 -0.2347  0.3873
 2171TIP3    H128148   5.921   5.577   2.389  2.7111 -1.8808 -0.8403
 2171TIP3    H228149   5.848   5.464   2.458 -0.0390 -0.3171 -1.0232
 2172TIP3   OH228150   0.448   5.433   1.541  0.5403 -0.5088 -0.0478
 2172TIP3    H128151   0.510   5.468   1.604 -1.4306  2.0549  0.6300
 2172TIP3    H228152   0.423   5.348   1.576  1.5050 -0.3038  1.1881
 2173TIP3   OH228153   2.264   5.150   2.752  0.1909 -0.0870 -0.4460
 2173TIP3    H128154   2.331   5.086   2.727 -1.4875 -1.9807 -0.3887
 2173TIP3    H228155   2.253   5.137   2.846 -1.0517 -0.6466 -0.6519
 2174TIP3   OH228156   0.612   4.093   8.115 -0.5273  0.0515 -0.4858
 2174TIP3    H128157   0.667   4.015   8.124 -2.1791 -1.1947 -0.7176
 2174TIP3    H228158   0.522   4.061   8.124 -1.2578  1.9793 -0.3159
 2175TIP3   OH228159   6.754   0.508   7.277  0.5041 -0.3712  0.5077
 2175TIP3    H128160   6.802   0.438   7.234  0.6726  0.8310 -1.3883
 2175TIP3    H228161   6.805   0.587   7.259 -1.0486  0.6249  0.2826
 2176TIP3   OH228162   1.089   1.316   7.541 -0.3853  0.8053  0.3599
 2176TIP3    H128163   1.054   1.252   7.479 -0.9913  1.2814  0.1912
 2176TIP3    H228164   1.176   1.284   7.563 -0.8038 -0.2342  0.5246
 2177TIP3   OH228165   1.446   4.388   2.140  0.1611  0.8842  0.1461
 2177TIP3    H128166   1.408   4.475   2.147 -1.7178  0.1548 -0.3623
 2177TIP3    H228167   1.454   4.373   2.045 -0.3314  0.2005  0.2026
 2178TIP3   OH228168   5.911   3.760   7.794  0.2405 -0.1508 -0.3237
 2178TIP3    H128169   5.857   3.772   7.873  2.4672 -1.2420  1.4988
 2178TIP3    H228170   5.964   3.840   7.789  0.5866 -0.3763 -0.2918
 2179TIP3   OH228171   4.224   0.466   1.924  0.6087 -0.3558 -0.1055
 2179TIP3    H128172   4.130   0.482   1.931 -0.0394 -3.8085  0.8397
 2179TIP3    H228173   4.256   0.470   2.014  1.0570 -0.6914 -0.2474
 2180TIP3   OH228174   2.275   0.356   8.224  0.5426 -0.7143 -0.2229
 2180TIP3    H128175   2.303   0.319   8.141  0.6331 -1.9177  0.3311
 2180TIP3    H228176   2.181   0.336   8.230  0.6956 -1.2864  0.3017
 2181TIP3   OH228177   6.718   0.170   7.713  0.5043 -0.3262 -0.0473
 2181TIP3    H128178   6.701   0.231   7.641  1.0168 -0.6274 -0.4263
 2181TIP3    H228179   6.756   0.224   7.782 -0.6115  0.0938  0.2765
 2182TIP3   OH228180   2.068   4.230   1.529  0.2749 -0.0420  0.1704
 2182TIP3    H128181   2.136   4.174   1.492  2.5632  1.6278  1.6009
 2182TIP3    H228182   2.064   4.205   1.622  0.8027  1.5558  0.6631
 2183TIP3   OH228183   6.333   3.550   2.048 -0.1619  0.2466 -0.1947
 2183TIP3    H128184   6.246   3.523   2.078 -0.7490  0.4960 -1.5953
 2183TIP3    H228185   6.321   3.641   2.023  1.3058  1.3211  2.5673
 2184TIP3   OH228186   5.269   5.015   0.179  0.3210 -0.2492 -0.3501
 2184TIP3    H128187   5.208   4.966   0.124  1.8379 -1.2654 -1.1956
 2184TIP3    H228188   5.252   4.983   0.268 -1.3821  0.5947 -0.3337
 2185TIP3   OH228189   5.169   5.807   2.028  0.1954 -0.2951  0.5383
 2185TIP3    H128190   5.191   5.763   2.110  1.6148  0.8890  0.8400
 2185TIP3    H228191   5.193   5.744   1.960  0.1179 -0.8285  0.9930
 2186TIP3   OH228192   2.963   4.073   0.763  0.1938  0.2160 -0.2219
 2186TIP3    H128193   2.956   4.168   0.775  0.9321  0.2470 -0.0240
 2186TIP3    H228194   2.960   4.061   0.668  1.1375  0.5294 -0.2979
 2187TIP3   OH228195   4.100   4.772   7.659  0.3351  0.4741  0.0800
 2187TIP3    H128196   4.084   4.857   7.618 -1.9938 -0.0279 -0.1634
 2187TIP3    H228197   4.142   4.720   7.590 -0.3913  0.7007 -0.5425
 2188TIP3   OH228198   0.438   3.910   2.807  0.0441 -0.3362  0.4503
 2188TIP3    H128199   0.397   3.895   2.722  1.1782  0.2900 -0.2346
 2188TIP3    H228200   0.412   3.999   2.831 -0.7484 -0.7160  1.0545
 2189TIP3   OH228201   4.127   0.578   6.832  0.4743 -0.2813 -0.0405
 2189TIP3    H128202   4.108   0.640   6.902  0.4257 -0.8376  0.4491
 2189TIP3    H228203   4.159   0.500   6.877 -0.5424 -1.0213 -0.5589
 2190TIP3   OH228204   0.607   4.269   1.785  0.7988 -0.8380  0.1927
 2190TIP3    H128205   0.598   4.238   1.695  0.3063  1.6001 -0.6726
 2190TIP3    H228206   0.647   4.356   1.777 -2.0265  0.7950  2.0421
 2191TIP3   OH228207   2.552   1.146   8.698 -0.1384  0.3526 -0.1291
 2191TIP3    H128208   2.504   1.133   8.780  0.0693 -1.3908 -0.2478
 2191TIP3    H228209   2.502   1.098   8.633  0.3640  0.7117 -0.7936
 2192TIP3   OH228210   5.373   5.058   2.887 -0.4334 -0.2166  0.1973
 2192TIP3    H128211   5.349   5.032   2.976  0.4131  0.0969  0.5285
 2192TIP3    H228212   5.466   5.033   2.879  0.0448  1.4874  0.0775
 2193TIP3   OH228213   1.288   0.776   3.113  0.0794  0.4108 -0.0923
 2193TIP3    H128214   1.227   0.796   3.042  0.0885 -0.4906 -0.3627
 2193TIP3    H228215   1.239   0.792   3.193  0.2030  1.8712 -0.2709
 2194TIP3   OH228216   6.205   6.149   0.700  0.4066 -0.1978 -0.2016
 2194TIP3    H128217   6.145   6.100   0.644 -0.6026 -1.8459  2.1191
 2194TIP3    H228218   6.252   6.082   0.749 -0.3543  1.0276  2.4464
 2195TIP3   OH228219   2.287   2.631   2.408 -0.5847 -0.4631  0.0608
 2195TIP3    H128220   2.336   2.580   2.472  0.8060  0.4622 -0.2400
 2195TIP3    H228221   2.248   2.565   2.350  0.6080 -1.2174  0.0869
 2196TIP3   OH228222   5.965   3.231   2.241  0.0020  0.0621  0.6939
 2196TIP3    H128223   6.051   3.273   2.237 -0.1337  0.2707 -2.3991
 2196TIP3    H228224   5.983   3.139   2.262  0.8668  0.3011  1.0289
 2197TIP3   OH228225   0.600   3.275   2.310 -0.0997  0.2304 -0.2136
 2197TIP3    H128226   0.665   3.214   2.343  0.5487  0.4186 -1.1218
 2197TIP3    H228227   0.537   3.220   2.264 -0.6322  0.0436  0.7030
 2198TIP3   OH228228   4.621   5.213   8.361  0.6074  0.0518 -0.3577
 2198TIP3    H128229   4.708   5.238   8.395 -0.1712  1.5011  0.6747
 2198TIP3    H228230   4.599   5.282   8.298 -0.8755  1.1955  1.3167
 2199TIP3   OH228231   3.482   1.002   7.204 -0.2252 -0.4474  0.2010
 2199TIP3    H128232   3.555   1.039   7.155  1.4807 -3.4461  0.2509
 2199TIP3    H228233   3.508   1.009   7.295 -0.6797 -0.2021  0.3130
 2200TIP3   OH228234   5.778   3.534   7.675 -0.0648 -0.2858  0.1370
 2200TIP3    H128235   5.749   3.480   7.748  0.2598  0.2752  0.6915
 2200TIP3    H228236   5.802   3.618   7.715  2.1043 -0.6310 -0.3058
 2201TIP3   OH228237   4.115   4.342   1.608  0.0961 -0.2680 -0.2182
 2201TIP3    H128238   4.084   4.409   1.546  0.5480  0.7287  0.6029
 2201TIP3    H228239   4.191   4.382   1.651 -0.1444 -0.9772  0.9101
 2202TIP3   OH228240   4.354   2.102   8.137 -0.1583  0.6251 -0.1485
 2202TIP3    H128241   4.314   2.163   8.075 -2.2584 -0.0715  0.4386
 2202TIP3    H228242   4.353   2.148   8.221  1.1516  0.9316 -0.2739
 2203TIP3   OH228243   6.574   2.370   2.506  0.2372 -0.2871  0.3843
 2203TIP3    H128244   6.535   2.453   2.537  0.1855 -0.2770  0.2905
 2203TIP3    H228245   6.549   2.306   2.573  0.2540 -0.2324  0.4431
 2204TIP3   OH228246   6.664   4.886   0.434 -0.4008  0.3389  0.0408
 2204TIP3    H128247   6.742   4.941   0.426  0.4580 -0.7039  0.9664
 2204TIP3    H228248   6.674   4.819   0.366 -1.0280  0.8006 -0.5274
 2205TIP3   OH228249   5.751   3.702   8.656  0.1553  0.6086  0.1438
 2205TIP3    H128250   5.664   3.721   8.692 -0.6521 -2.5475  0.1335
 2205TIP3    H228251   5.752   3.747   8.571 -1.8465 -0.0154 -0.2522
 2206TIP3   OH228252   2.548   3.666   0.478 -0.2243  0.0812 -0.0503
 2206TIP3    H128253   2.463   3.707   0.493 -0.1356  0.2021  0.1201
 2206TIP3    H228254   2.551   3.651   0.383 -1.0077 -1.1758  0.0940
 2207TIP3   OH228255   0.875   1.478   8.312  0.4380 -0.2615 -0.1487
 2207TIP3    H128256   0.784   1.504   8.294 -0.0168 -0.9426  1.0773
 2207TIP3    H228257   0.879   1.386   8.284  1.3531  0.3332 -2.1506
 2208TIP3   OH228258   0.274   2.718   8.236 -0.2500 -1.1747 -0.5518
 2208TIP3    H128259   0.256   2.782   8.168  2.7581  0.6524  0.2085
 2208TIP3    H228260   0.325   2.650   8.192 -1.7230 -2.0872 -0.9153
 2209TIP3   OH228261   6.798   3.510   0.691  0.7838  0.3637 -0.0180
 2209TIP3    H128262   6.804   3.566   0.613 -0.6426  0.7744  0.1446
 2209TIP3    H228263   6.747   3.435   0.663  0.5511  0.3514  0.4329
 2210TIP3   OH228264   1.059   0.671   8.360  0.9186 -0.5580  0.0176
 2210TIP3    H128265   1.041   0.725   8.283 -0.0527 -1.7038 -0.6084
 2210TIP3    H228266   1.136   0.710   8.400  1.1732  0.3371 -1.2865
 2211TIP3   OH228267   4.547   0.692   0.538 -0.3108  0.2629 -0.0536
 2211TIP3    H128268   4.471   0.743   0.509 -0.0399 -0.1394 -1.5507
 2211TIP3    H228269   4.613   0.758   0.560 -0.8501  0.5992  0.6073
 2212TIP3   OH228270   3.480   1.284   0.555  0.0415  0.3267 -0.0832
 2212TIP3    H128271   3.417   1.254   0.490  1.4009 -1.0273 -0.8363
 2212TIP3    H228272   3.434   1.275   0.639 -0.8048 -0.4848 -0.6219
 2213TIP3   OH228273   2.657   4.821   7.968  0.0482 -0.1448 -0.5523
 2213TIP3    H128274   2.672   4.806   7.875 -1.3362  0.8157 -0.9586
 2213TIP3    H228275   2.563   4.832   7.976  0.1446 -0.2365  0.9739
 2214TIP3   OH228276   4.454   5.630   2.175  0.4646 -0.3481 -0.1919
 2214TIP3    H128277   4.446   5.686   2.252  0.5805  0.7392 -0.9413
 2214TIP3    H228278   4.378   5.571   2.180 -0.1907  0.4955  0.1439
 2215TIP3   OH228279   0.975   0.897   8.522  0.4973  0.2484 -0.0802
 2215TIP3    H128280   0.951   0.810   8.555  1.4101  0.1710  0.4176
 2215TIP3    H228281   0.951   0.956   8.593 -0.9694  0.5275 -0.7769
 2216TIP3   OH228282   4.467   2.350   1.001  0.0000 -1.0755  0.2485
 2216TIP3    H128283   4.505   2.434   0.974 -2.2883  0.9586  2.7604
 2216TIP3    H228284   4.536   2.308   1.051  0.0822  1.1083  2.1339
 2217TIP3   OH228285   0.569   5.930   2.682  0.2108  0.5490 -0.4571
 2217TIP3    H128286   0.657   5.965   2.698  0.8195 -0.1740 -2.0407
 2217TIP3    H228287   0.579   5.872   2.607 -1.0902 -1.7280  1.0064
 2218TIP3   OH228288   4.408   5.236   1.303  0.0243  0.0121 -0.0777
 2218TIP3    H128289   4.499   5.267   1.307  1.2176 -3.0961 -0.4519
 2218TIP3    H228290   4.380   5.233   1.395  0.9808 -0.7816  0.2015
 2219TIP3   OH228291   5.515   4.412   7.418 -0.5594  0.2046 -0.1974
 2219TIP3    H128292   5.514   4.362   7.337  0.2192  0.4338 -0.3512
 2219TIP3    H228293   5.558   4.495   7.395 -0.1724  0.2007  0.4848
 2220TIP3   OH228294   5.630   4.592   1.276 -0.6568  0.2678  0.3268
 2220TIP3    H128295   5.677   4.672   1.300 -0.1959  0.8780 -2.2918
 2220TIP3    H228296   5.538   4.618   1.275 -0.6870  0.2387  1.2455
 2221TIP3   OH228297   4.458   0.978   1.292 -0.4237  0.0005  0.2101
 2221TIP3    H128298   4.393   1.049   1.295 -0.1860  0.2041  0.6860
 2221TIP3    H228299   4.428   0.917   1.360 -2.6338 -2.1527 -2.4519
 2222TIP3   OH228300   3.785   1.521   8.116 -0.3679  0.2323 -0.5260
 2222TIP3    H128301   3.853   1.582   8.090  1.0703 -0.4435  1.4220
 2222TIP3    H228302   3.745   1.560   8.193 -0.0537 -0.8183  0.1923
 2223TIP3   OH228303   6.858   5.084   3.158  0.2761 -0.1532  0.1691
 2223TIP3    H128304   6.813   5.140   3.222  1.1185  1.9768 -0.9897
 2223TIP3    H228305   6.799   5.079   3.084 -0.5371 -2.3182  0.8886
 2224TIP3   OH228306   2.906   6.189   1.990 -0.0495 -0.0451  0.2512
 2224TIP3    H128307   2.909   6.174   2.085  1.0084 -0.8797  0.1035
 2224TIP3    H228308   2.838   6.256   1.979 -0.3971 -0.1437  1.5658
 2225TIP3   OH228309   2.897   6.291   0.282 -0.0691  0.2063 -0.0470
 2225TIP3    H128310   2.905   6.386   0.284  0.9032  0.1251  0.9231
 2225TIP3    H228311   2.928   6.266   0.195 -0.6668  0.7858 -0.4386
 2226TIP3   OH228312   2.677   6.150   8.074 -1.0898  0.1062  0.4522
 2226TIP3    H128313   2.641   6.197   8.150 -1.7958  1.4755 -0.6802
 2226TIP3    H228314   2.704   6.219   8.014 -2.3065 -0.9253 -1.3651
 2227TIP3   OH228315   4.826   4.700   1.835 -0.2088 -0.0708  0.3960
 2227TIP3    H128316   4.738   4.675   1.863 -0.1201  2.2218  3.2038
 2227TIP3    H228317   4.884   4.655   1.897  0.3998  0.7148  0.4130
 2228TIP3   OH228318   3.416   1.994   0.084  0.1799 -0.2331 -0.7061
 2228TIP3    H128319   3.330   2.025   0.057 -0.3924 -1.9627 -0.9940
 2228TIP3    H228320   3.460   1.968   0.003  0.7240  0.0117 -0.4993
 2229TIP3   OH228321   3.102   2.834   1.132 -0.2023  0.7422 -0.1517
 2229TIP3    H128322   3.042   2.800   1.066  0.0734  0.5245 -0.2940
 2229TIP3    H228323   3.060   2.913   1.165  0.4762  1.8805 -1.8675
 2230TIP3   OH228324   1.494   2.853   0.062  0.3489  0.5792  0.1436
 2230TIP3    H128325   1.446   2.786   0.013 -1.4062  2.4256 -0.8465
 2230TIP3    H228326   1.480   2.830   0.154  0.5693 -0.8880 -0.1618
 2231TIP3   OH228327   0.730   2.905   2.674  0.4626  0.0708  0.0434
 2231TIP3    H128328   0.683   2.847   2.733  1.3931 -1.3318 -0.5519
 2231TIP3    H228329   0.787   2.956   2.731  0.3529 -0.2927  0.4811
 2232TIP3   OH228330   2.567   0.120   0.632  0.0361 -0.1741  0.2744
 2232TIP3    H128331   2.637   0.087   0.689 -0.7605 -1.2869  0.6301
 2232TIP3    H228332   2.512   0.044   0.615 -1.3412  0.7810  0.3416
 2233TIP3   OH228333   0.181   4.671   0.666  0.3779 -0.4808  0.3057
 2233TIP3    H128334   0.270   4.636   0.657 -0.0646 -1.6012  0.1591
 2233TIP3    H228335   0.148   4.677   0.577  0.6395  0.8953  0.2742
 2234TIP3   OH228336   2.030   2.537   8.072 -0.4880 -0.1711 -0.3304
 2234TIP3    H128337   1.985   2.455   8.091  0.0109 -0.3493  0.0845
 2234TIP3    H228338   1.990   2.600   8.132  1.0495 -0.7219  1.3508
 2235TIP3   OH228339   1.905   1.796   1.286  0.4228  0.5414  0.0748
 2235TIP3    H128340   1.814   1.772   1.267  0.5572 -0.3946  0.5693
 2235TIP3    H228341   1.898   1.881   1.331 -0.3268 -0.2068  1.4314
 2236TIP3   OH228342   6.475   6.624   1.464 -0.4655  0.1836 -0.2271
 2236TIP3    H128343   6.527   6.689   1.415  0.7404  0.6038  1.5227
 2236TIP3    H228344   6.530   6.601   1.539 -2.4408 -0.0338  1.2338
 2237TIP3   OH228345   1.992   4.051   1.257  0.1982 -0.0212 -0.0423
 2237TIP3    H128346   1.989   4.144   1.235  0.6651 -0.5215 -2.5616
 2237TIP3    H228347   1.940   4.043   1.337 -0.6064  2.2557 -0.2712
 2238TIP3   OH228348   0.829   2.689   8.567 -0.0809 -0.2261  0.5121
 2238TIP3    H128349   0.750   2.673   8.515  0.3296  0.3516 -0.3251
 2238TIP3    H228350   0.819   2.779   8.599  0.7903  0.3123 -0.6529
 2239TIP3   OH228351   0.880   4.895   8.410 -0.5497  0.1991 -0.0416
 2239TIP3    H128352   0.976   4.894   8.411 -0.5468 -0.8820  0.8871
 2239TIP3    H228353   0.857   4.867   8.321  0.0251 -1.0318  0.1675
 2240TIP3   OH228354   0.764   4.533   8.079 -0.5440  0.3479  0.2300
 2240TIP3    H128355   0.818   4.496   8.149  0.3916 -0.4145 -0.8403
 2240TIP3    H228356   0.695   4.468   8.065 -0.9485  0.6763  0.6880
 2241TIP3   OH228357   6.694   1.072   1.782  0.3689 -0.3921  0.1159
 2241TIP3    H128358   6.611   1.042   1.821 -0.2080 -0.2427 -0.9662
 2241TIP3    H228359   6.673   1.088   1.690  1.8157 -1.1376 -0.3733
 2242TIP3   OH228360   5.661   3.361   7.261 -0.0586 -0.1217 -0.4137
 2242TIP3    H128361   5.745   3.320   7.244  0.3454  0.5235 -0.0319
 2242TIP3    H228362   5.638   3.333   7.350  0.5290  0.9661  0.0998
 2243TIP3   OH228363   2.904   2.147   1.939 -0.0307  0.0762 -0.5942
 2243TIP3    H128364   2.980   2.152   1.882  0.8303 -0.2338  0.4847
 2243TIP3    H228365   2.929   2.195   2.018 -0.3666 -1.2913  0.3913
 2244TIP3   OH228366   4.169   5.084   1.819 -0.1335 -0.4027  0.3391
 2244TIP3    H128367   4.105   5.138   1.866 -0.0640 -0.4819  0.5272
 2244TIP3    H228368   4.174   5.004   1.871  1.1204  0.1386  1.0980
 2245TIP3   OH228369   4.390   5.672   8.012  0.4418 -0.5692  0.1992
 2245TIP3    H128370   4.468   5.664   7.957  1.8453  0.0276  1.9906
 2245TIP3    H228371   4.322   5.625   7.963  2.1536 -2.0266 -0.9692
 2246TIP3   OH228372   2.234   3.265   7.575 -0.7978 -0.4938 -0.3293
 2246TIP3    H128373   2.230   3.303   7.487  0.8605 -0.9698 -0.6535
 2246TIP3    H228374   2.325   3.278   7.602 -1.7433  1.6527  2.2692
 2247TIP3   OH228375   4.478   6.668   8.407 -0.0260 -0.4852  0.4329
 2247TIP3    H128376   4.465   6.763   8.419 -0.2138  0.1337 -3.5013
 2247TIP3    H228377   4.412   6.628   8.463 -2.2205  1.8551 -0.2782
 2248TIP3   OH228378   2.260   4.054   1.482  1.1078  0.3109  0.4928
 2248TIP3    H128379   2.309   3.976   1.455 -0.0010 -0.4846  0.6889
 2248TIP3    H228380   2.327   4.114   1.516  1.9937 -0.5018  0.2406
 2249TIP3   OH228381   5.468   3.158   7.834 -0.5663  0.1705 -0.1784
 2249TIP3    H128382   5.455   3.110   7.916  3.1922  1.1982  1.1940
 2249TIP3    H228383   5.537   3.110   7.788  1.2141  2.5049 -0.1212
 2250TIP3   OH228384   4.065   2.907   7.191  0.3033  0.3265 -0.3190
 2250TIP3    H128385   4.005   2.833   7.193  0.8701 -0.2162 -2.0637
 2250TIP3    H228386   4.065   2.935   7.100  0.9737  1.7693  0.0985
 2251TIP3   OH228387   3.032   6.638   2.707 -0.2927  0.4587 -0.3288
 2251TIP3    H128388   3.028   6.712   2.768 -0.1264  0.3015 -0.1249
 2251TIP3    H228389   2.993   6.565   2.756 -0.1943  0.3405 -0.4264
 2252TIP3   OH228390   6.295   2.961   0.955 -0.1419 -0.0081  0.1902
 2252TIP3    H128391   6.352   2.904   0.903  0.9754  0.4869  0.8362
 2252TIP3    H228392   6.355   3.025   0.995 -1.4129  1.9987 -0.9565
 2253TIP3   OH228393   2.366   0.845   7.533  0.0663  0.6294 -0.2677
 2253TIP3    H128394   2.319   0.927   7.518 -1.1504 -0.0234 -0.1195
 2253TIP3    H228395   2.404   0.855   7.620 -2.1586  0.1063  0.8260
 2254TIP3   OH228396   1.780   6.288   2.563 -0.2019  0.1650 -0.1544
 2254TIP3    H128397   1.731   6.222   2.613 -0.1983  0.3078  0.0359
 2254TIP3    H228398   1.767   6.370   2.611  2.7763 -0.3002  1.7585
 2255TIP3   OH228399   1.545   5.955   0.292  0.4105  0.5159 -0.0121
 2255TIP3    H128400   1.528   6.048   0.277 -1.5720  0.1699 -0.0688
 2255TIP3    H228401   1.495   5.909   0.224 -0.8872 -0.6866  1.6780
 2256TIP3   OH228402   2.454   5.632   0.916 -0.7002 -0.0471 -0.0655
 2256TIP3    H128403   2.401   5.599   0.844  1.4433 -1.6586 -0.9988
 2256TIP3    H228404   2.438   5.569   0.987 -2.1360  1.0541  0.6431
 2257TIP3   OH228405   3.135   3.085   2.119 -0.3206  0.2530 -0.6381
 2257TIP3    H128406   3.214   3.084   2.065 -0.4856  0.4388 -0.8871
 2257TIP3    H228407   3.139   3.003   2.169 -0.8913 -0.6359 -1.9841
 2258TIP3   OH228408   6.304   2.000   0.183  1.4016 -0.1276  0.0367
 2258TIP3    H128409   6.301   1.908   0.207  0.1577 -0.2990 -0.6694
 2258TIP3    H228410   6.262   2.045   0.256  2.0470 -0.1094  0.4002
 2259TIP3   OH228411   3.689   6.499   0.078 -0.3756  0.2649  0.5957
 2259TIP3    H128412   3.764   6.450   0.112  0.1648  1.6658  1.4966
 2259TIP3    H228413   3.612   6.454   0.114 -0.1139 -1.9520 -1.3334
 2260TIP3   OH228414   5.664   6.838   1.054 -0.5081 -0.2858 -0.5034
 2260TIP3    H128415   5.590   6.789   1.018 -2.5433  0.8634  1.8474
 2260TIP3    H228416   5.651   6.837   1.148  2.3632  0.2452 -0.0023
 2261TIP3   OH228417   3.169   5.572   3.106  0.2069 -0.1350  0.1665
 2261TIP3    H128418   3.248   5.620   3.133  0.1176 -0.0745  0.3264
 2261TIP3    H228419   3.098   5.619   3.149  0.0623 -0.0503 -0.1650
 2262TIP3   OH228420   0.827   3.923   8.169  0.3405  0.0844 -0.3732
 2262TIP3    H128421   0.767   3.849   8.173  1.0220 -0.5289 -1.2625
 2262TIP3    H228422   0.898   3.894   8.112  0.9682  1.1703 -0.1751
 2263TIP3   OH228423   0.312   5.708   8.519  0.1944  0.1967  0.3289
 2263TIP3    H128424   0.259   5.786   8.538 -0.4037  0.1522 -1.0004
 2263TIP3    H228425   0.256   5.655   8.460  1.3543 -0.2914 -0.3706
 2264TIP3   OH228426   1.847   5.900   8.408  0.3508 -0.0604  1.0372
 2264TIP3    H128427   1.795   5.886   8.487 -0.5090  1.1818  0.7126
 2264TIP3    H228428   1.926   5.944   8.439 -1.4841  3.6794  0.9146
 2265TIP3   OH228429   3.894   2.132   1.160 -0.4670 -0.0745 -1.0520
 2265TIP3    H128430   3.964   2.169   1.214 -1.1583  1.9853 -1.4793
 2265TIP3    H228431   3.822   2.117   1.221 -1.2170  2.1686 -1.2670
 2266TIP3   OH228432   0.159   5.053   1.883  0.0577  0.3141  0.0328
 2266TIP3    H128433   0.112   5.134   1.905  1.1250  1.2992 -1.2207
 2266TIP3    H228434   0.166   5.007   1.967 -1.5726  0.9608  0.5672
 2267TIP3   OH228435   6.329   2.143   2.009  0.4114 -0.0861  0.2118
 2267TIP3    H128436   6.391   2.208   1.977  0.2255  0.1841  0.4052
 2267TIP3    H228437   6.373   2.059   1.992  0.0912  0.0097 -1.2531
 2268TIP3   OH228438   1.903   6.005   8.708  0.2125 -0.1759  0.4157
 2268TIP3    H128439   1.902   6.019   8.803 -1.1506 -0.9718  0.5363
 2268TIP3    H228440   1.929   5.914   8.698  0.5724 -0.0317  0.0031
 2269TIP3   OH228441   3.265   5.690   8.635 -0.1417  0.3635 -0.3558
 2269TIP3    H128442   3.207   5.674   8.709  0.9343  2.1624  0.9660
 2269TIP3    H228443   3.317   5.610   8.627 -0.9965 -0.2590  0.1123
 2270TIP3   OH228444   0.923   3.507   2.557 -0.1878  1.1226 -0.0430
 2270TIP3    H128445   0.998   3.566   2.545  2.1279 -1.6799 -0.5154
 2270TIP3    H228446   0.892   3.490   2.468  2.0324 -1.6262 -0.4369
 2271TIP3   OH228447   6.089   1.795   8.263  0.0242  0.6374 -0.1910
 2271TIP3    H128448   6.179   1.827   8.264  1.0945 -2.1016  0.5471
 2271TIP3    H228449   6.065   1.788   8.355 -0.2717 -0.3326 -0.3354
 2272TIP3   OH228450   0.436   2.547   8.066  0.0456  0.4095 -0.7031
 2272TIP3    H128451   0.363   2.491   8.040 -2.1037  2.0900  1.2611
 2272TIP3    H228452   0.492   2.491   8.120 -0.5232 -0.5379 -1.0781
 2273TIP3   OH228453   0.253   1.585   3.028  0.2754  0.0332 -0.2392
 2273TIP3    H128454   0.252   1.616   3.119  1.9897 -2.1897  0.6220
 2273TIP3    H228455   0.195   1.509   3.028 -0.7125  0.7503 -1.3559
 2274TIP3   OH228456   2.362   3.927   8.048  0.3306  0.0617  0.2501
 2274TIP3    H128457   2.297   3.937   7.979 -1.0265 -0.2278  1.4304
 2274TIP3    H228458   2.401   3.841   8.034  0.3656  0.1749 -0.3718
 2275TIP3   OH228459   5.572   5.360   1.077  0.3203  0.5359 -0.1710
 2275TIP3    H128460   5.564   5.292   1.010  1.3129  1.8026 -1.6392
 2275TIP3    H228461   5.663   5.387   1.074 -0.0288  1.8766  0.4329
 2276TIP3   OH228462   4.324   4.902   0.833 -0.4973  0.1039 -0.1475
 2276TIP3    H128463   4.256   4.917   0.767 -1.9611 -0.7957  1.0828
 2276TIP3    H228464   4.319   4.808   0.851 -0.6236  0.4365  1.7233
 2277TIP3   OH228465   3.837   1.361   0.001 -0.3310 -0.2666  0.9443
 2277TIP3    H128466   3.779   1.417  -0.052 -0.9271 -2.5619 -0.9906
 2277TIP3    H228467   3.807   1.375   0.091 -1.9438  0.8130  0.2935
 2278TIP3   OH228468   1.937   5.910   8.126  0.1768 -0.5073  0.7171
 2278TIP3    H128469   1.990   5.987   8.146 -0.9909  0.3602  0.5839
 2278TIP3    H228470   1.891   5.891   8.207 -1.5541  0.5943  0.0526
 2279TIP3   OH228471   3.644   6.157   1.222  0.2734  0.3869 -0.6113
 2279TIP3    H128472   3.684   6.167   1.308  1.8859 -0.7045 -1.1738
 2279TIP3    H228473   3.674   6.235   1.173  0.3886  0.3846 -0.5452
 2280TIP3   OH228474   2.628   2.997   3.305  0.0633 -0.0247 -0.4086
 2280TIP3    H128475   2.565   3.059   3.270 -1.4818 -0.8872  0.6972
 2280TIP3    H228476   2.615   2.917   3.254  0.0376 -0.3108  0.0389
 2281TIP3   OH228477   6.595   2.847   2.520 -0.4049  0.4592 -0.2156
 2281TIP3    H128478   6.576   2.757   2.549  0.3794  0.2694 -0.2848
 2281TIP3    H228479   6.615   2.894   2.601 -0.8958  0.5963 -0.1706
 2282TIP3   OH228480   3.056   4.903   1.415  0.0987  0.4846  0.4860
 2282TIP3    H128481   3.143   4.887   1.378 -0.8000 -2.0383 -0.7802
 2282TIP3    H228482   3.032   4.989   1.382  0.5851 -0.3840 -2.5128
 2283TIP3   OH228483   4.324   0.823   7.124  0.1331 -0.1193  0.5576
 2283TIP3    H128484   4.300   0.835   7.216 -1.4130 -0.0242  0.1692
 2283TIP3    H228485   4.252   0.772   7.087  1.1307 -0.8507 -0.4325
 2284TIP3   OH228486   1.126   2.121   0.369  0.0358  0.6863  0.2631
 2284TIP3    H128487   1.202   2.063   0.373  0.5677  1.1214 -2.2268
 2284TIP3    H228488   1.115   2.151   0.460  2.4900  0.1797  0.8140
 2285TIP3   OH228489   4.679   0.528   0.930 -0.5144 -0.4377  0.1406
 2285TIP3    H128490   4.673   0.601   0.992 -0.4797 -0.9404  0.7420
 2285TIP3    H228491   4.773   0.508   0.926 -0.3313  0.5506 -1.2140
 2286TIP3   OH228492   3.076   3.168   2.377  0.4858  0.6819  0.0686
 2286TIP3    H128493   3.084   3.181   2.283 -4.7686 -1.2432 -1.0343
 2286TIP3    H228494   3.030   3.246   2.408  0.0015  0.2349  0.4953
 2287TIP3   OH228495   6.006   6.731   0.016  0.3310 -0.6612  0.0754
 2287TIP3    H128496   6.028   6.772   0.100 -0.5953  0.1253 -0.0487
 2287TIP3    H228497   5.983   6.641   0.039  1.0404 -0.7365  0.5351
 2288TIP3   OH228498   4.807   6.710   7.451 -0.0045 -0.0246  1.0720
 2288TIP3    H128499   4.894   6.698   7.414  0.9454  1.4583  2.6640
 2288TIP3    H228500   4.782   6.799   7.426 -1.0995 -0.4466  0.5928
 2289TIP3   OH228501   1.253   1.066   7.529 -0.2099 -0.2825 -0.3326
 2289TIP3    H128502   1.334   1.034   7.490 -0.0086  0.9291 -0.9518
 2289TIP3    H228503   1.250   1.025   7.615  2.5429  1.8383  0.9043
 2290TIP3   OH228504   5.851   6.319   1.890  0.0216 -0.1881 -0.2795
 2290TIP3    H128505   5.811   6.328   1.976 -0.4798 -0.0327 -0.5260
 2290TIP3    H228506   5.777   6.314   1.829  0.3010 -2.2751 -0.5323
 2291TIP3   OH228507   6.090   6.194   0.124 -0.2424  0.2147  0.1284
 2291TIP3    H128508   6.160   6.158   0.071  0.3505  0.5500  0.6704
 2291TIP3    H228509   6.062   6.121   0.180 -1.7807 -0.5290 -1.5277
 2292TIP3   OH228510   5.587   4.071   2.014  0.5610  0.2384  0.4915
 2292TIP3    H128511   5.512   4.111   2.057  1.2839  2.3914 -0.0785
 2292TIP3    H228512   5.561   4.065   1.922  0.9468  0.7394  0.3403
 2293TIP3   OH228513   4.007   1.870   1.646  0.0181 -0.1088 -0.1788
 2293TIP3    H128514   4.079   1.862   1.584  0.2090 -0.5513  0.1001
 2293TIP3    H228515   4.038   1.829   1.726  0.1257  1.2653  0.5242
 2294TIP3   OH228516   3.381   1.305   8.483 -0.2460  0.0748 -0.6035
 2294TIP3    H128517   3.394   1.218   8.520 -0.6401  0.6874  1.0869
 2294TIP3    H228518   3.446   1.360   8.527 -2.4369  1.3681  1.3075
 2295TIP3   OH228519   4.178   3.789   1.792  0.2482  0.6824 -0.5148
 2295TIP3    H128520   4.175   3.745   1.707  2.2026  0.9589 -0.7769
 2295TIP3    H228521   4.093   3.771   1.831 -0.1918 -0.6205 -1.9549
 2296TIP3   OH228522   3.037   1.482   1.975  0.5570  0.1020  0.2586
 2296TIP3    H128523   3.130   1.491   1.955  0.3575  1.6836 -0.0938
 2296TIP3    H228524   3.033   1.473   2.070  1.0123  1.6251  0.4538
 2297TIP3   OH228525   0.723   4.936   8.137 -0.2649  0.2738  0.8528
 2297TIP3    H128526   0.800   4.881   8.118  0.3365  0.6093  2.1639
 2297TIP3    H228527   0.653   4.899   8.083  1.0134  0.5241 -1.0810
 2298TIP3   OH228528   2.054   2.831   3.091  0.7422  0.3522  0.0545
 2298TIP3    H128529   2.054   2.752   3.144  1.0429  0.2750 -0.0626
 2298TIP3    H228530   2.138   2.873   3.110  0.2495  1.0790  0.7646
 2299TIP3   OH228531   0.309   1.782   2.071 -0.0886  0.5880  0.2158
 2299TIP3    H128532   0.295   1.773   1.976 -1.2718 -1.2455  0.5084
 2299TIP3    H228533   0.372   1.712   2.092  0.6192  1.3570  0.7143
 2300TIP3   OH228534   0.626   6.549   8.541  0.4186  0.8930  0.2509
 2300TIP3    H128535   0.652   6.555   8.633 -0.3301 -0.5015  0.5757
 2300TIP3    H228536   0.708   6.540   8.493  0.7533  0.4397  0.8916
 2301TIP3   OH228537   5.606   2.635   2.758 -0.1692 -0.9454 -0.1070
 2301TIP3    H128538   5.531   2.632   2.698 -0.3450 -3.1392  0.1290
 2301TIP3    H228539   5.682   2.623   2.701 -0.1223 -0.3999 -0.1632
 2302TIP3   OH228540   0.916   2.545   0.118 -0.1725 -0.8946  0.2002
 2302TIP3    H128541   0.907   2.451   0.126 -1.3834 -0.7256  1.1234
 2302TIP3    H228542   0.912   2.562   0.024 -0.2093 -1.7242  0.0454
 2303TIP3   OH228543   1.842   4.914   1.356 -0.4131  0.2277 -0.1935
 2303TIP3    H128544   1.850   4.986   1.418 -0.3726 -0.9645  1.2329
 2303TIP3    H228545   1.753   4.880   1.369 -0.4686  0.0628 -0.9238
 2304TIP3   OH228546   4.585   0.191   8.043  0.0746 -0.9076 -0.2448
 2304TIP3    H128547   4.675   0.189   8.074 -0.7724  0.1556  2.5101
 2304TIP3    H228548   4.540   0.124   8.094 -0.9458 -0.6083 -0.7164
 2305TIP3   OH228549   6.391   5.074   0.898 -0.0159  0.4497 -0.2679
 2305TIP3    H128550   6.414   5.040   0.984 -1.6749  0.5014  0.2326
 2305TIP3    H228551   6.468   5.124   0.870  0.9662 -0.4701  0.6859
 2306TIP3   OH228552   4.000   2.573   2.805 -0.1278 -0.0049 -0.7704
 2306TIP3    H128553   4.008   2.608   2.894  0.2752 -1.1527 -0.3413
 2306TIP3    H228554   4.087   2.541   2.784 -0.5840 -1.1942 -0.9415
 2307TIP3   OH228555   1.367   2.258   0.914 -0.4045 -0.3686 -0.5603
 2307TIP3    H128556   1.298   2.305   0.961 -0.9319 -1.3843 -0.2984
 2307TIP3    H228557   1.372   2.173   0.957  1.0049 -0.3278 -0.5961
 2308TIP3   OH228558   6.780   2.264   1.879  0.1645 -0.0245 -0.4873
 2308TIP3    H128559   6.869   2.241   1.853 -0.5904 -0.7460 -2.6525
 2308TIP3    H228560   6.725   2.197   1.838 -1.3224 -0.3933  1.8882
 2309TIP3   OH228561   3.000   5.935   8.225 -0.0893 -0.6567 -0.4608
 2309TIP3    H128562   3.050   5.934   8.143  0.3081 -0.7479 -0.2165
 2309TIP3    H228563   3.045   5.873   8.282  1.6895  1.8631  1.0540
 2310TIP3   OH228564   0.783   4.227   1.998 -0.6159  0.0318 -0.0326
 2310TIP3    H128565   0.753   4.305   2.045  1.6951  1.7868 -1.2549
 2310TIP3    H228566   0.738   4.231   1.914 -0.5919 -0.0157 -0.0477
 2311TIP3   OH228567   6.063   1.975   0.682  0.1742  0.3651  0.2416
 2311TIP3    H128568   6.121   2.019   0.744  0.3913  1.0519 -0.4271
 2311TIP3    H228569   6.001   1.927   0.736  1.4157 -0.4592  0.9667
 2312TIP3   OH228570   5.508   6.524   0.960  0.1969  0.2155 -0.1208
 2312TIP3    H128571   5.497   6.618   0.950 -0.5903  0.3070  1.4088
 2312TIP3    H228572   5.421   6.487   0.948  0.5132 -0.3430 -0.8007
 2313TIP3   OH228573   0.237   3.181   2.294  0.5317 -0.2346 -1.4595
 2313TIP3    H128574   0.261   3.150   2.381  0.9039  2.7288 -0.3662
 2313TIP3    H228575   0.303   3.143   2.236  1.0001 -1.3119 -0.2690
 2314TIP3   OH228576   2.262   6.264   0.961 -0.0827  0.6424 -0.2181
 2314TIP3    H128577   2.188   6.318   0.987 -3.5827 -2.7712 -2.0172
 2314TIP3    H228578   2.280   6.290   0.871  1.6278  2.0656  0.4907
 2315TIP3   OH228579   6.508   2.180   7.978 -0.0372  0.2260  0.0013
 2315TIP3    H128580   6.567   2.144   7.911  1.6452  0.1879  1.4221
 2315TIP3    H228581   6.483   2.266   7.944 -1.0481 -0.6896 -1.6838
 2316TIP3   OH228582   6.656   1.470   7.827  0.1993  0.3460 -0.4853
 2316TIP3    H128583   6.561   1.478   7.826  0.0643  0.1150  2.3678
 2316TIP3    H228584   6.674   1.392   7.775 -1.6502 -2.4242  2.6563
 2317TIP3   OH228585   6.802   5.833   0.910  0.3570  0.1431  0.3904
 2317TIP3    H128586   6.786   5.891   0.836 -0.0270  0.0098  0.3671
 2317TIP3    H228587   6.882   5.786   0.887  1.0276  1.1145  0.6927
 2318TIP3   OH228588   5.635   0.187   7.646  0.3731 -0.0881 -0.3856
 2318TIP3    H128589   5.587   0.147   7.719  1.8061 -0.8581  0.1892
 2318TIP3    H228590   5.632   0.121   7.577  0.7681 -0.2391 -0.2644
 2319TIP3   OH228591   5.629   5.981   8.026  0.1803  0.3736  0.0780
 2319TIP3    H128592   5.657   5.909   7.969  1.0051  0.7899 -0.0556
 2319TIP3    H228593   5.556   6.021   7.980  0.0557 -0.0497 -0.0977
 2320TIP3   OH228594   4.928   0.016   1.797  0.1779 -0.6228  0.3548
 2320TIP3    H128595   4.956  -0.029   1.877 -1.7870 -1.1927  0.7730
 2320TIP3    H228596   4.917  -0.054   1.733  2.2293 -0.1234 -0.6353
 2321TIP3   OH228597   1.881   4.532   2.828  0.3857  0.0254 -0.1468
 2321TIP3    H128598   1.951   4.536   2.763 -0.3009  1.9949 -0.8216
 2321TIP3    H228599   1.891   4.612   2.880 -0.2748 -0.5582  0.9275
 2322TIP3   OH228600   0.312   0.843   1.459 -0.1987  0.4879 -0.9651
 2322TIP3    H128601   0.371   0.784   1.411 -0.5921 -0.5765 -0.1829
 2322TIP3    H228602   0.264   0.890   1.390 -0.3955 -0.6500 -1.6415
 2323TIP3   OH228603   5.085   1.948   1.828 -0.1645 -0.4677  0.0903
 2323TIP3    H128604   5.118   2.024   1.780  1.4982 -0.9336  0.4114
 2323TIP3    H228605   5.064   1.982   1.915  0.0225 -0.2540  0.0545
 2324TIP3   OH228606   1.383   1.389   0.619  0.3777 -0.3475  0.1981
 2324TIP3    H128607   1.374   1.404   0.525 -1.0310  1.6776  0.5896
 2324TIP3    H228608   1.467   1.345   0.628  0.7406 -0.2122 -1.9772
 2325TIP3   OH228609   2.733   4.848   2.449  0.2249  0.0708  0.4819
 2325TIP3    H128610   2.778   4.811   2.525 -0.8479 -1.6449  0.3329
 2325TIP3    H228611   2.736   4.943   2.464 -0.4741 -0.2302  2.9783
 2326TIP3   OH228612   4.350   2.942   8.105  0.1753 -0.3712  0.0081
 2326TIP3    H128613   4.272   2.999   8.101 -0.3079 -1.0617 -0.6688
 2326TIP3    H228614   4.423   3.001   8.086 -0.2890  0.0896 -0.3948
 2327TIP3   OH228615   6.066   4.841   1.056  0.0904  0.2039 -0.0428
 2327TIP3    H128616   6.129   4.769   1.050 -0.1620 -0.0441  0.2686
 2327TIP3    H228617   6.016   4.834   0.975  1.2183  1.1248 -0.8552
 2328TIP3   OH228618   0.750   2.481   7.504  0.3609 -0.0126  0.3120
 2328TIP3    H128619   0.761   2.432   7.423  3.2328  1.5046 -0.3291
 2328TIP3    H228620   0.711   2.564   7.477  1.6648  0.6458  0.3602
 2329TIP3   OH228621   2.317   3.692   0.920  0.3529 -0.0016  0.0072
 2329TIP3    H128622   2.410   3.712   0.930 -0.0424  1.5138  1.0762
 2329TIP3    H228623   2.275   3.778   0.912 -1.2009 -0.5063  2.0258
 2330TIP3   OH228624   0.725   6.285   7.829 -0.0020 -0.0822  0.2557
 2330TIP3    H128625   0.667   6.359   7.842  1.6503  1.9862 -2.9921
 2330TIP3    H228626   0.735   6.277   7.734  2.5892 -2.2659  0.5696
 2331TIP3   OH228627   4.553   1.197   8.381 -0.0438 -0.2513  0.1288
 2331TIP3    H128628   4.487   1.158   8.438 -0.4154  0.7680  0.4244
 2331TIP3    H228629   4.603   1.123   8.348 -1.1181 -1.0167  0.1679
 2332TIP3   OH228630   1.986   4.328   1.279 -0.2419 -0.1180  0.0277
 2332TIP3    H128631   2.008   4.313   1.371  0.7038 -0.0547 -0.1781
 2332TIP3    H228632   2.001   4.421   1.265  1.4631 -0.4519 -0.6425
 2333TIP3   OH228633   2.115   5.584   8.230 -0.0649 -0.0456 -0.1998
 2333TIP3    H128634   2.138   5.663   8.279  1.5505 -0.4201 -0.2943
 2333TIP3    H228635   2.134   5.512   8.290  2.2423 -0.5340 -1.3862
 2334TIP3   OH228636   5.373   5.206   2.641  0.2403 -0.7460  0.5864
 2334TIP3    H128637   5.347   5.298   2.650 -0.5209 -0.7602 -1.1536
 2334TIP3    H228638   5.343   5.164   2.722 -3.4149 -0.3400 -0.3813
 2335TIP3   OH228639   6.071   6.683   6.864 -0.3703  0.2637 -0.7996
 2335TIP3    H128640   6.030   6.634   6.936 -1.1911  0.5425 -1.0719
 2335TIP3    H228641   6.141   6.733   6.907  0.1775 -0.7638 -0.4453
 2336TIP3   OH228642   6.808   3.732   2.131 -0.1385 -0.1968  0.1882
 2336TIP3    H128643   6.756   3.651   2.132  1.1399 -1.0596 -0.7688
 2336TIP3    H228644   6.877   3.717   2.195  0.8713 -0.4235 -0.9105
 2337TIP3   OH228645   5.415   2.170   7.905 -0.5516  0.2069  0.2489
 2337TIP3    H128646   5.446   2.100   7.848 -1.2404 -1.0083  1.3207
 2337TIP3    H228647   5.488   2.188   7.964 -0.8788 -0.7058  0.9617
 2338TIP3   OH228648   3.124   2.033   1.672 -0.1454 -0.0484  0.2804
 2338TIP3    H128649   3.090   1.967   1.612 -3.2930 -0.3620  2.1734
 2338TIP3    H228650   3.085   2.115   1.643  1.3590  0.5185 -0.2693
 2339TIP3   OH228651   1.748   2.806   0.677 -0.7812 -0.1718  0.8059
 2339TIP3    H128652   1.842   2.789   0.669 -0.5424  1.0767  0.7080
 2339TIP3    H228653   1.706   2.736   0.628  0.2277  0.9725 -1.8986
 2340TIP3   OH228654   4.666   6.585   8.655 -0.1350 -0.1293 -0.3995
 2340TIP3    H128655   4.645   6.532   8.578  1.3517 -0.8280 -0.3405
 2340TIP3    H228656   4.698   6.668   8.619 -1.5536  0.4118 -0.4930
 2341TIP3   OH228657   0.209   5.664   6.800 -0.3012  0.1618  0.6985
 2341TIP3    H128658   0.184   5.753   6.774  0.5610  0.5977  1.3073
 2341TIP3    H228659   0.214   5.668   6.896 -0.1490 -0.5155  0.7220
 2342TIP3   OH228660   5.780   0.214   1.111 -0.0629  0.0067  1.0696
 2342TIP3    H128661   5.790   0.175   1.197 -1.3318 -0.3145  1.0918
 2342TIP3    H228662   5.735   0.147   1.059  0.7093  0.1874  0.1538
 2343TIP3   OH228663   2.861   4.103   6.919  0.9785  0.1066 -0.7005
 2343TIP3    H128664   2.809   4.032   6.882 -0.4963  1.5001 -1.4466
 2343TIP3    H228665   2.909   4.062   6.991 -0.7679 -1.3843 -0.3020
 2344TIP3   OH228666   3.377   2.434   2.200  0.8155  0.2899 -0.3372
 2344TIP3    H128667   3.283   2.418   2.197  1.3434 -3.9707 -1.6681
 2344TIP3    H228668   3.399   2.430   2.293 -0.0597 -1.6876 -0.1611
 2345TIP3   OH228669   5.735   0.421   0.495  0.0047 -0.2905  0.2765
 2345TIP3    H128670   5.802   0.428   0.563 -0.0677 -0.9654  0.4260
 2345TIP3    H228671   5.738   0.505   0.449  0.3952 -0.0151  0.7956
 2346TIP3   OH228672   5.798   2.332   2.251  0.2340 -0.3913 -0.5202
 2346TIP3    H128673   5.783   2.371   2.337  0.5326 -1.3531 -0.0179
 2346TIP3    H228674   5.878   2.373   2.219 -1.7268  2.6766 -1.9781
 2347TIP3   OH228675   3.021   0.054   7.888 -0.2279 -0.1917  0.1852
 2347TIP3    H128676   2.956  -0.015   7.900 -0.8710  0.6691  2.2903
 2347TIP3    H228677   2.969   0.135   7.889  0.4465  0.3608 -2.7775
 2348TIP3   OH228678   1.574   5.152   6.975  0.3393 -0.3163 -0.3442
 2348TIP3    H128679   1.619   5.231   6.946  0.2805 -0.5639 -1.1332
 2348TIP3    H228680   1.577   5.093   6.899 -0.9439 -0.4883 -0.2902
 2349TIP3   OH228681   1.466   5.690   0.985  0.0015 -0.3595 -0.1400
 2349TIP3    H128682   1.467   5.613   0.929 -0.9997 -0.9261  0.5883
 2349TIP3    H228683   1.476   5.656   1.074 -0.9178  0.2858  0.2337
 2350TIP3   OH228684   1.463   3.760   2.571  0.7526 -0.2417 -0.2029
 2350TIP3    H128685   1.466   3.802   2.657 -0.6973 -1.9710  0.7690
 2350TIP3    H228686   1.398   3.811   2.522  0.1219 -0.4054  0.4375
 2351TIP3   OH228687   0.861   2.396   2.580  0.3505  0.1184 -0.2645
 2351TIP3    H128688   0.846   2.302   2.568  0.4362  0.2043 -1.1415
 2351TIP3    H228689   0.778   2.437   2.553  0.4654  0.3192 -0.3135
 2352TIP3   OH228690   4.345   6.109   1.745 -0.2232 -0.2630  0.2930
 2352TIP3    H128691   4.403   6.132   1.817  0.8614 -2.2383  0.1278
 2352TIP3    H228692   4.311   6.192   1.714 -0.5122  0.6772  2.8762
 2353TIP3   OH228693   3.290   2.150   0.396 -0.3984  0.1060 -0.1256
 2353TIP3    H128694   3.267   2.121   0.485 -2.3603  0.6353 -0.4223
 2353TIP3    H228695   3.386   2.158   0.398  0.1141 -3.8803  0.7150
 2354TIP3   OH228696   6.199   2.159   7.948 -0.2677  0.2227  0.2950
 2354TIP3    H128697   6.180   2.234   8.004  1.0039  0.0987  0.9170
 2354TIP3    H228698   6.294   2.161   7.935 -0.2719 -0.9926 -0.0965
 2355TIP3   OH228699   1.599   5.586   2.646 -0.7493  0.8741 -0.7594
 2355TIP3    H128700   1.605   5.492   2.665 -0.7162  1.2728  1.3748
 2355TIP3    H228701   1.682   5.622   2.677 -1.2329  1.7764 -0.4875
 2356TIP3   OH228702   5.814   2.153   3.003  0.2735 -0.2593  0.4786
 2356TIP3    H128703   5.833   2.059   3.012 -0.0370 -0.3363  0.3569
 2356TIP3    H228704   5.773   2.177   3.085  0.9828 -0.0681  0.7839
 2357TIP3   OH228705   0.979   0.904   0.881  0.3917  0.0629 -0.3182
 2357TIP3    H128706   1.025   0.851   0.947 -1.5931  0.8742  1.8520
 2357TIP3    H228707   1.039   0.976   0.863  2.3797 -1.8429 -1.9905
 2358TIP3   OH228708   6.767   4.241   0.858 -0.4693 -0.1268  0.4390
 2358TIP3    H128709   6.714   4.263   0.782  0.9512  0.3611 -0.4479
 2358TIP3    H228710   6.738   4.302   0.926 -0.1094  1.0644 -0.4489
 2359TIP3   OH228711   0.218   6.286   0.109 -0.2794  0.4389  0.0889
 2359TIP3    H128712   0.271   6.245   0.177 -2.1350  0.7824  1.8186
 2359TIP3    H228713   0.181   6.213   0.059 -1.0256  0.0808  1.1460
 2360TIP3   OH228714   5.751   3.734   0.299 -0.1691 -0.2188  0.8240
 2360TIP3    H128715   5.813   3.766   0.233  1.3380 -0.4033  2.1079
 2360TIP3    H228716   5.676   3.793   0.291  1.1579  1.5551  0.8483
 2361TIP3   OH228717   0.888   1.104   2.319  0.0098  0.1171 -0.1720
 2361TIP3    H128718   0.972   1.140   2.291 -0.1025  1.3582  1.0042
 2361TIP3    H228719   0.890   1.109   2.414 -1.1506 -0.4556 -0.0976
 2362TIP3   OH228720   1.317   6.765   0.088  0.2743 -0.3499  0.2008
 2362TIP3    H128721   1.242   6.763   0.147 -0.7242 -0.4385 -1.0159
 2362TIP3    H228722   1.297   6.836   0.027  2.3360  1.2530  1.2617
 2363TIP3   OH228723   6.138   5.362   2.221  0.1770  0.0031  0.0231
 2363TIP3    H128724   6.124   5.348   2.127  0.0585  0.1709  0.0172
 2363TIP3    H228725   6.154   5.456   2.229  0.0733  0.0051  0.1864
 2364TIP3   OH228726   6.645   6.815   1.407  0.1152 -0.0036  0.0601
 2364TIP3    H128727   6.673   6.891   1.358 -1.0410  0.3096 -0.1416
 2364TIP3    H228728   6.706   6.810   1.481  0.2504  1.0586  0.0296
 2365TIP3   OH228729   3.478   4.646   1.294 -0.4523 -0.3586 -0.2220
 2365TIP3    H128730   3.481   4.583   1.222  0.0993  0.3899 -0.8695
 2365TIP3    H228731   3.569   4.673   1.306 -0.6770  0.2822  0.0804
 2366TIP3   OH228732   4.308   3.650   2.123  0.5403 -0.1137  0.4435
 2366TIP3    H128733   4.385   3.705   2.138  0.8380 -0.5051  0.3655
 2366TIP3    H228734   4.298   3.600   2.204  0.4558 -0.1716  0.3969
 2367TIP3   OH228735   4.873   5.330   7.078  0.2687 -0.7800 -0.5541
 2367TIP3    H128736   4.875   5.425   7.068 -0.7623 -0.7323 -0.4298
 2367TIP3    H228737   4.964   5.303   7.070  0.9486  0.4770  2.0067
 2368TIP3   OH228738   4.843   4.458   8.693 -0.1039  0.1757  0.0799
 2368TIP3    H128739   4.925   4.408   8.699 -0.6010 -0.6771 -0.1799
 2368TIP3    H228740   4.798   4.440   8.775 -0.0569  0.6225  0.2084
 2369TIP3   OH228741   4.565   1.375   2.066 -0.2986  0.0039 -0.1762
 2369TIP3    H128742   4.605   1.359   1.980  0.3605  0.1990  0.0858
 2369TIP3    H228743   4.536   1.288   2.095  1.1775 -0.3852  0.2242
 2370TIP3   OH228744   2.138   0.152   0.244  0.4321 -0.2355 -0.2219
 2370TIP3    H128745   2.077   0.226   0.249  0.1706 -0.5065  0.8159
 2370TIP3    H228746   2.087   0.077   0.276  1.5205 -0.3273  1.3830
 2371TIP3   OH228747   5.344   4.477   7.132  0.1436  0.2226 -0.3273
 2371TIP3    H128748   5.435   4.500   7.150  0.5390 -0.8554 -0.8725
 2371TIP3    H228749   5.293   4.547   7.173  1.2094  0.7998  0.0463
 2372TIP3   OH228750   2.472   2.266   8.065 -0.2226  0.0547 -0.7227
 2372TIP3    H128751   2.450   2.358   8.078  0.3557  0.1307 -0.1941
 2372TIP3    H228752   2.469   2.229   8.153 -1.4048 -0.6614 -1.0509
 2373TIP3   OH228753   3.300   3.130   1.864  0.0196 -0.1463  0.1885
 2373TIP3    H128754   3.356   3.126   1.787  1.1362 -0.2018  0.9929
 2373TIP3    H228755   3.243   3.206   1.848 -0.6326 -0.9052 -1.2532
 2374TIP3   OH228756   5.230   2.146   2.177 -0.3197  0.2890  0.4950
 2374TIP3    H128757   5.156   2.121   2.122 -0.7448  0.3623  1.0209
 2374TIP3    H228758   5.198   2.136   2.267  0.4348 -0.0499  0.7351
 2375TIP3   OH228759   0.852   0.214   8.022  0.4246 -0.7103 -0.2657
 2375TIP3    H128760   0.769   0.183   8.059 -0.8190  1.0723 -1.3917
 2375TIP3    H228761   0.847   0.192   7.930  0.3701  0.9333 -0.6974
 2376TIP3   OH228762   6.848   2.399   0.617 -0.1442 -0.0931 -0.4241
 2376TIP3    H128763   6.821   2.334   0.552  0.3443  0.9087 -1.6655
 2376TIP3    H228764   6.912   2.453   0.571  1.1442 -0.0957  1.2802
 2377TIP3   OH228765   3.746   1.236   0.594  0.0818  0.5596  0.5386
 2377TIP3    H128766   3.744   1.144   0.569  0.3103  0.0579  2.2276
 2377TIP3    H228767   3.657   1.267   0.581 -0.4394 -0.4081  1.6020
 2378TIP3   OH228768   1.913   5.452   2.906  0.3802 -0.5663  0.1227
 2378TIP3    H128769   1.898   5.388   2.835  1.1903  0.0786 -0.6585
 2378TIP3    H228770   1.914   5.399   2.986 -0.1222 -1.3770 -0.3918
 2379TIP3   OH228771   2.690   0.197   3.095 -0.0500 -0.5188  0.1855
 2379TIP3    H128772   2.723   0.152   3.018 -0.8726 -0.2443 -0.3409
 2379TIP3    H228773   2.718   0.288   3.084 -0.6508 -0.3614 -0.0812
 2380TIP3   OH228774   3.056   5.021   0.392 -0.8096 -0.1540  0.1662
 2380TIP3    H128775   3.056   5.014   0.297 -2.4783  3.2683 -0.2515
 2380TIP3    H228776   2.973   4.981   0.419 -0.0416 -1.7147  0.3219
 2381TIP3   OH228777   2.735   2.401   1.369 -0.2175  0.0757 -0.3516
 2381TIP3    H128778   2.810   2.423   1.314 -0.8526  2.0138 -0.5426
 2381TIP3    H228779   2.735   2.306   1.374  1.3773 -0.0227 -1.5621
 2382TIP3   OH228780   1.423   3.298   1.739  0.2033  0.3301 -0.1529
 2382TIP3    H128781   1.379   3.337   1.664  1.3633  1.7350 -0.1566
 2382TIP3    H228782   1.406   3.204   1.731  0.0082  0.4768 -1.9844
 2383TIP3   OH228783   5.396   2.917   1.887  0.4168 -0.4856 -0.3196
 2383TIP3    H128784   5.396   2.978   1.813 -0.8212 -0.3028 -0.1922
 2383TIP3    H228785   5.459   2.849   1.862  2.2295  1.0937 -0.2223
 2384TIP3   OH228786   6.870   1.335   0.691 -0.2472 -0.3575  0.6790
 2384TIP3    H128787   6.915   1.412   0.656 -1.1229 -0.1362  0.0002
 2384TIP3    H228788   6.782   1.341   0.655 -0.1713 -1.9977  0.1204
 2385TIP3   OH228789   5.481   4.014   0.550 -0.2708  0.1365 -0.0354
 2385TIP3    H128790   5.488   3.946   0.484  0.4705 -0.1700  0.3435
 2385TIP3    H228791   5.571   4.029   0.580 -0.5599  0.4216  0.7461
 2386TIP3   OH228792   4.462   3.406   7.526  0.2843  0.4634 -0.4999
 2386TIP3    H128793   4.437   3.314   7.530 -0.1652  0.6003 -0.1529
 2386TIP3    H228794   4.380   3.453   7.513  0.4105  0.8745  0.1429
 2387TIP3   OH228795   1.091   6.177   8.400 -0.1408 -0.3517 -0.3828
 2387TIP3    H128796   1.151   6.205   8.331 -0.6116 -1.8123 -1.4255
 2387TIP3    H228797   1.114   6.086   8.416 -1.3198 -0.5857  0.0257
 2388TIP3   OH228798   1.331   0.986   1.182  0.3365 -0.0572  0.0120
 2388TIP3    H128799   1.355   1.030   1.100  4.7725 -0.1924  1.0209
 2388TIP3    H228800   1.283   1.053   1.232  1.3784  1.5141 -0.9887
 2389TIP3   OH228801   3.739   2.050   0.903 -0.4033 -0.1081  0.4238
 2389TIP3    H128802   3.767   2.133   0.943  1.2037  0.5193 -1.7856
 2389TIP3    H228803   3.789   1.983   0.950  2.6223  0.7378 -1.3374
 2390TIP3   OH228804   1.310   1.650   1.128 -0.4138  0.3107 -0.1002
 2390TIP3    H128805   1.360   1.731   1.137 -0.1493  0.1195  0.1520
 2390TIP3    H228806   1.245   1.670   1.060 -1.6981  1.4177  1.3561
 2391TIP3   OH228807   4.404   3.138   2.779  0.2143 -0.0140 -0.3638
 2391TIP3    H128808   4.451   3.072   2.728 -0.7527 -0.6904 -0.4008
 2391TIP3    H228809   4.452   3.142   2.862  2.3953  1.7913 -1.5724
 2392TIP3   OH228810   4.289   3.781   7.813 -0.2954  0.3049  0.1160
 2392TIP3    H128811   4.375   3.739   7.817 -0.3254  0.3383  1.4272
 2392TIP3    H228812   4.307   3.875   7.816 -0.3193  0.3699 -1.1276
 2393TIP3   OH228813   2.732   4.426   7.715 -0.9666 -0.2378  0.4188
 2393TIP3    H128814   2.741   4.331   7.726 -2.5358 -0.5091 -0.4143
 2393TIP3    H228815   2.683   4.455   7.792  1.2793  0.2679  1.7461
 2394TIP3   OH228816   4.043   4.582   7.849 -0.2061 -0.5491 -0.3143
 2394TIP3    H128817   4.067   4.655   7.791 -0.7782 -1.1523 -1.3558
 2394TIP3    H228818   3.952   4.598   7.872 -0.3765 -0.9890 -0.6556
 2395TIP3   OH228819   6.515   5.875   6.793  0.4313  0.1473 -0.7998
 2395TIP3    H128820   6.607   5.870   6.768  0.8377 -0.6599  0.7114
 2395TIP3    H228821   6.507   5.815   6.867 -1.3179  0.2049 -0.8937
 2396TIP3   OH228822   1.674   0.358   0.561 -0.1345  0.5636 -0.0513
 2396TIP3    H128823   1.661   0.286   0.500 -1.0459  1.2597 -0.7260
 2396TIP3    H228824   1.585   0.380   0.590  0.0507  1.8481 -0.4004
 2397TIP3   OH228825   4.158   4.679   0.159 -0.3839 -0.1332 -0.3294
 2397TIP3    H128826   4.167   4.720   0.073 -1.9060 -0.6737 -0.7743
 2397TIP3    H228827   4.242   4.697   0.202  0.8945 -0.8770 -2.3429
 2398TIP3   OH228828   1.884   5.106   0.567 -0.7954 -0.4963 -0.0126
 2398TIP3    H128829   1.928   5.181   0.606  0.3286 -1.1322 -0.0066
 2398TIP3    H228830   1.887   5.039   0.636 -0.9693 -0.8344 -0.3346
 2399TIP3   OH228831   6.373   0.328   0.637  0.2427 -0.3767 -0.2387
 2399TIP3    H128832   6.360   0.313   0.543 -0.1610 -2.9072  0.1512
 2399TIP3    H228833   6.293   0.372   0.666  0.2331  0.1232 -1.0017
 2400TIP3   OH228834   5.718   2.746   7.364 -0.4423  0.2505  0.0610
 2400TIP3    H128835   5.750   2.830   7.396 -0.2319  0.4730 -0.7114
 2400TIP3    H228836   5.650   2.769   7.301  1.5946 -0.0035 -2.4030
 2401TIP3   OH228837   2.344   1.014   1.814  0.5989  0.4297 -0.7142
 2401TIP3    H128838   2.366   1.056   1.730 -0.3841  2.5192 -0.0061
 2401TIP3    H228839   2.326   1.087   1.873  1.1253 -0.9890  1.3137
 2402TIP3   OH228840   3.501   1.269   0.861  0.5914  0.3205 -0.3558
 2402TIP3    H128841   3.513   1.174   0.865  1.0255  0.3515 -0.8421
 2402TIP3    H228842   3.583   1.305   0.896  0.5450  0.5186 -0.4507
 2403TIP3   OH228843   3.582   1.648   3.498  0.2091  0.7420  0.3020
 2403TIP3    H128844   3.569   1.565   3.451  2.7650  0.5502 -0.2385
 2403TIP3    H228845   3.629   1.703   3.435 -1.4097  2.6308  0.6708
 2404TIP3   OH228846   0.410   0.304   0.961 -0.1619 -0.5503 -0.0667
 2404TIP3    H128847   0.443   0.282   0.874  1.1241 -1.1395  0.5445
 2404TIP3    H228848   0.388   0.220   1.001 -0.7057 -0.2878  0.1911
 2405TIP3   OH228849   2.406   1.313   1.290  0.1749 -0.2420 -0.2202
 2405TIP3    H128850   2.353   1.255   1.235 -2.0551  0.6523  0.8584
 2405TIP3    H228851   2.379   1.293   1.380  1.5006  0.4483  0.3617
 2406TIP3   OH228852   2.038   5.927   2.127  0.1973  0.5204  0.4713
 2406TIP3    H128853   2.066   5.868   2.197  0.6791  0.4615  0.2271
 2406TIP3    H228854   1.991   5.997   2.173 -1.3392 -0.5950  0.6835
 2407TIP3   OH228855   2.927   1.091   0.941  0.0850 -0.1419  0.4673
 2407TIP3    H128856   2.834   1.070   0.933 -0.1118  1.0683 -1.1132
 2407TIP3    H228857   2.971   1.031   0.880 -0.3790  2.9113 -3.3014
 2408TIP3   OH228858   2.983   3.306   0.879  0.4949  0.2025 -0.4844
 2408TIP3    H128859   2.891   3.286   0.860 -0.0945  3.5724 -1.8620
 2408TIP3    H228860   2.988   3.310   0.974  0.0041 -2.7763 -0.2224
 2409TIP3   OH228861   0.125   3.921   8.527 -0.3813 -0.3204  0.4352
 2409TIP3    H128862   0.100   3.858   8.459  0.0986  0.5787 -0.5963
 2409TIP3    H228863   0.051   3.981   8.532  0.3703  0.7185 -0.6466
 2410TIP3   OH228864   4.659   2.953   1.127 -0.2244  0.8374 -0.4765
 2410TIP3    H128865   4.743   2.907   1.125  0.0805  1.3794 -0.4254
 2410TIP3    H228866   4.666   3.020   1.059 -0.8089  0.5630 -0.8144
 2411TIP3   OH228867   2.764   5.591   2.398  0.3215 -0.5677 -0.3533
 2411TIP3    H128868   2.776   5.677   2.436 -2.6365  0.0715 -0.6475
 2411TIP3    H228869   2.694   5.551   2.450 -0.0699 -1.7866 -1.7485
 2412TIP3   OH228870   4.322   4.298   3.391 -0.1267 -0.1852  0.5826
 2412TIP3    H128871   4.302   4.383   3.429 -0.9719 -0.1520  0.0840
 2412TIP3    H228872   4.302   4.307   3.298 -1.5597 -1.3013  0.7441
 2413TIP3   OH228873   3.544   0.381   2.265  0.0743  0.4363  0.1489
 2413TIP3    H128874   3.511   0.342   2.346 -1.2917 -0.1975 -0.6656
 2413TIP3    H228875   3.466   0.416   2.222  0.2524 -1.7517 -2.2021
 2414TIP3   OH228876   2.984   0.340   0.251 -0.5058  0.0109 -0.3139
 2414TIP3    H128877   2.894   0.353   0.220 -0.6040 -0.1708 -0.1070
 2414TIP3    H228878   3.038   0.381   0.184 -0.8161  2.1978  0.6867
 2415TIP3   OH228879   0.103   0.547   1.389 -0.1356 -0.2304  0.0861
 2415TIP3    H128880   0.192   0.572   1.366  0.8332 -1.6906  1.9080
 2415TIP3    H228881   0.066   0.510   1.309  0.6454  0.9828 -0.8644
 2416TIP3   OH228882   0.757   3.053   1.913 -0.0307  0.2042  0.1255
 2416TIP3    H128883   0.741   3.043   1.819  0.7773  0.6282 -0.0641
 2416TIP3    H228884   0.699   2.988   1.954  1.9100 -2.2536 -0.7956
 2417TIP3   OH228885   2.843   4.860   1.910 -0.3629  0.1177  0.0861
 2417TIP3    H128886   2.791   4.821   1.981 -1.1593  1.5786  0.3413
 2417TIP3    H228887   2.817   4.812   1.832 -3.1638  1.6517 -0.0380
 2418TIP3   OH228888   4.207   3.209   7.954 -0.1538 -0.4798  0.0152
 2418TIP3    H128889   4.296   3.189   7.984 -0.5986 -1.3145  0.8542
 2418TIP3    H228890   4.205   3.178   7.864  0.4962 -0.1688 -0.1137
 2419TIP3   OH228891   2.137   3.464   8.698  0.3614 -0.4108 -0.2542
 2419TIP3    H128892   2.063   3.510   8.660 -0.2582 -1.2106 -0.0529
 2419TIP3    H228893   2.144   3.383   8.648  0.5816 -0.7179  0.2572
 2420TIP3   OH228894   0.433   2.778   2.525  0.3741  0.2241  0.7155
 2420TIP3    H128895   0.512   2.759   2.474  0.6178 -0.6751  1.4122
 2420TIP3    H228896   0.465   2.805   2.611 -0.0783 -0.6143  1.1585
 2421TIP3   OH228897   1.630   0.663   1.328 -0.2105 -0.0069  1.1083
 2421TIP3    H128898   1.542   0.673   1.291  0.2215  0.5085  0.1681
 2421TIP3    H228899   1.668   0.751   1.323  1.0297 -0.5830 -0.3083
 2422TIP3   OH228900   5.265   6.061   2.052  0.2250 -0.5360  0.0455
 2422TIP3    H128901   5.231   5.987   2.002  0.5924 -0.1288 -0.8435
 2422TIP3    H228902   5.271   6.030   2.142 -0.1778 -1.3863 -0.2137
 2423TIP3   OH228903   6.130   6.833   1.253  0.1210 -0.0913 -0.2598
 2423TIP3    H128904   6.149   6.744   1.283  2.2359  0.7122  0.9722
 2423TIP3    H228905   6.110   6.823   1.160  2.4195 -1.6384 -0.6616
 2424TIP3   OH228906   0.740   6.326   0.017 -0.5328 -0.3081 -0.6404
 2424TIP3    H128907   0.827   6.307  -0.016 -0.6166  0.3551 -1.2572
 2424TIP3    H228908   0.742   6.294   0.108  0.2706 -0.5063 -0.7181
 2425TIP3   OH228909   6.224   1.338   2.967  0.1622  0.2947 -0.1265
 2425TIP3    H128910   6.287   1.385   3.022  0.0734 -0.2072  0.4172
 2425TIP3    H228911   6.229   1.382   2.882  0.8316  0.6195  0.0713
 2426TIP3   OH228912   3.137   1.497   1.122  0.4343 -0.1212  0.7063
 2426TIP3    H128913   3.068   1.435   1.096  0.1633  1.2965 -2.3972
 2426TIP3    H228914   3.095   1.583   1.116  1.9148  0.6440  0.9091
 2427TIP3   OH228915   2.728   4.799   1.504 -0.0230  0.3820 -0.0702
 2427TIP3    H128916   2.805   4.768   1.551  0.2472  1.5188  0.2857
 2427TIP3    H228917   2.654   4.771   1.558  0.1584 -0.3584 -0.2009
 2428TIP3   OH228918   2.446   1.019   8.177  0.3010 -0.2631  0.0061
 2428TIP3    H128919   2.537   1.006   8.205  0.8601  0.6082 -1.3275
 2428TIP3    H228920   2.412   1.086   8.236  0.4754 -0.6625  0.5754
 2429TIP3   OH228921   0.919   3.922   0.134 -0.2852  0.0541  0.0888
 2429TIP3    H128922   0.996   3.889   0.088 -0.8480 -0.0408 -0.8094
 2429TIP3    H228923   0.850   3.859   0.115 -1.3802  1.6541 -1.6353
 2430TIP3   OH228924   3.017   1.116   2.562 -0.2176  0.2786 -0.6026
 2430TIP3    H128925   2.945   1.082   2.509 -1.3381 -0.0234  1.0349
 2430TIP3    H228926   3.088   1.051   2.551 -0.8164 -0.3425 -0.8614
 2431TIP3   OH228927   1.970   5.438   1.787  0.0289  0.2918 -0.2359
 2431TIP3    H128928   2.021   5.510   1.750  0.7832  0.0893  0.3959
 2431TIP3    H228929   1.934   5.473   1.869  0.8666 -0.2232  0.3599
 2432TIP3   OH228930   6.321   1.699   7.644 -0.8918  0.3214  0.2676
 2432TIP3    H128931   6.298   1.685   7.552 -0.0803  0.2922  0.0608
 2432TIP3    H228932   6.251   1.656   7.693 -0.9747 -0.2670 -0.3430
 2433TIP3   OH228933   2.422   4.227   0.041  0.0033 -0.1974  0.0202
 2433TIP3    H128934   2.337   4.239  -0.001  0.1638  1.9750  0.2405
 2433TIP3    H228935   2.417   4.139   0.078 -1.6237 -0.6461 -1.1249
 2434TIP3   OH228936   0.022   5.144   0.693  0.6871  0.2485 -0.2453
 2434TIP3    H128937  -0.012   5.055   0.702 -0.2520  0.5470 -0.6849
 2434TIP3    H228938   0.108   5.141   0.735  0.3479 -0.6743  0.4259
 2435TIP3   OH228939   2.469   0.990   8.486  0.1203  0.1761  0.4771
 2435TIP3    H128940   2.501   0.907   8.451 -0.9133 -0.6102  1.3184
 2435TIP3    H228941   2.522   1.057   8.443 -0.0464 -0.8249 -1.3498
 2436TIP3   OH228942   3.334   0.509   1.022  0.0095  0.3977 -0.3896
 2436TIP3    H128943   3.298   0.527   0.935  0.0912  1.0552 -0.2907
 2436TIP3    H228944   3.421   0.550   1.021  0.9513 -1.4944 -0.7629
 2437TIP3   OH228945   3.862   2.790   1.960 -0.0319  0.4831  0.4110
 2437TIP3    H128946   3.774   2.822   1.939 -0.0370  0.2703  0.1055
 2437TIP3    H228947   3.874   2.714   1.903 -0.4393 -0.7422  1.8806
 2438TIP3   OH228948   0.960   4.647   2.056 -0.0565  0.8979  0.4247
 2438TIP3    H128949   0.995   4.735   2.041  1.2352  0.6477  1.7051
 2438TIP3    H228950   0.878   4.662   2.102 -1.2251  1.4745 -1.7249
 2439TIP3   OH228951   5.081   4.618   2.374 -0.3749 -1.0071 -0.0362
 2439TIP3    H128952   5.164   4.649   2.408 -0.0202 -2.0689  0.1064
 2439TIP3    H228953   5.103   4.540   2.322 -1.1765 -0.7954 -0.7200
 2440TIP3   OH228954   3.990   0.179   7.812  0.4438 -0.5692 -0.2063
 2440TIP3    H128955   3.954   0.116   7.750 -1.5097  0.7891 -0.5334
 2440TIP3    H228956   3.934   0.173   7.889 -1.3135  2.2335 -1.0758
 2441TIP3   OH228957   6.318   1.150   8.202  0.4053 -0.4641 -0.0720
 2441TIP3    H128958   6.278   1.121   8.120 -1.4446  1.3089  0.1472
 2441TIP3    H228959   6.400   1.192   8.175  0.5508 -1.2082 -0.8423
 2442TIP3   OH228960   5.545   2.469   2.458  0.4594  0.0305  0.2822
 2442TIP3    H128961   5.524   2.536   2.523 -0.1243  1.4274 -1.2935
 2442TIP3    H228962   5.613   2.509   2.403  1.8081 -1.5629  0.6772
 2443TIP3   OH228963   0.480   2.630   2.244  0.0076 -0.5968  0.3280
 2443TIP3    H128964   0.441   2.546   2.224 -0.5166  0.0467 -1.6177
 2443TIP3    H228965   0.406   2.690   2.252  0.4152 -0.1414  0.7868
 2444TIP3   OH228966   1.829   5.374   1.212 -0.0812 -0.0485 -0.2055
 2444TIP3    H128967   1.822   5.441   1.144 -0.1060  1.9853  1.6758
 2444TIP3    H228968   1.739   5.360   1.241  0.1564  1.4740  1.4751
 2445TIP3   OH228969   6.618   5.383   8.299  0.1076  0.0767 -0.1029
 2445TIP3    H128970   6.624   5.382   8.395  1.3771  5.2747  0.1825
 2445TIP3    H228971   6.524   5.391   8.281 -0.1723 -1.2827  0.6104
 2446TIP3   OH228972   1.873   1.209   0.687 -0.1586  0.2068  0.2843
 2446TIP3    H128973   1.912   1.272   0.748 -1.0514 -1.6063  2.8969
 2446TIP3    H228974   1.937   1.138   0.682 -0.3908  0.0402 -0.3929
 2447TIP3   OH228975   4.386   0.197   7.586 -0.3339 -0.1585  0.1047
 2447TIP3    H128976   4.443   0.189   7.509 -1.0351 -0.2994 -0.4055
 2447TIP3    H228977   4.406   0.119   7.638  1.6562  0.9391  1.1315
 2448TIP3   OH228978   6.700   3.021   1.208  0.5004  0.5438 -0.1780
 2448TIP3    H128979   6.613   3.051   1.183 -0.4597 -3.1528 -1.9965
 2448TIP3    H228980   6.704   3.034   1.302 -2.9742 -1.1403  0.3443
 2449TIP3   OH228981   4.875   0.808   3.072 -0.0643 -0.3972  0.0190
 2449TIP3    H128982   4.804   0.810   3.136  0.4967  0.4642  0.6207
 2449TIP3    H228983   4.942   0.754   3.113 -0.7512 -2.1073 -0.9897
 2450TIP3   OH228984   4.064   5.829   7.935  0.4509  0.3142 -0.2028
 2450TIP3    H128985   4.115   5.777   7.874  1.1204  1.9517 -1.1147
 2450TIP3    H228986   3.973   5.810   7.914  0.6761 -0.4184 -0.5428
 2451TIP3   OH228987   1.256   2.170   3.342  0.1998 -0.1642  0.1021
 2451TIP3    H128988   1.186   2.230   3.368  1.7092  0.8399  2.0702
 2451TIP3    H228989   1.248   2.164   3.246 -2.5629 -0.1376  0.2572
 2452TIP3   OH228990   1.750   6.132   1.733 -0.5102  0.0119 -0.0654
 2452TIP3    H128991   1.828   6.188   1.731 -1.7746  1.9689  1.5225
 2452TIP3    H228992   1.740   6.101   1.643  0.4365  2.1539 -0.9800
 2453TIP3   OH228993   3.289   4.661   1.652  0.3147  0.1220 -0.0312
 2453TIP3    H128994   3.327   4.574   1.639  0.7693  0.3224 -0.0747
 2453TIP3    H228995   3.249   4.657   1.738  0.7286  0.0048  0.1607
 2454TIP3   OH228996   3.317   6.110   8.465  0.3215 -0.7345  0.4607
 2454TIP3    H128997   3.297   6.099   8.372 -1.5497  0.4579  0.6656
 2454TIP3    H228998   3.369   6.033   8.487  2.8223  0.0636 -2.0647
 2455TIP3   OH228999   1.686   3.892   2.430 -0.1748  0.0723 -0.2335
 2455TIP3    H129000   1.650   3.822   2.485 -0.6324  0.8250  0.4510
 2455TIP3    H229001   1.694   3.967   2.490 -0.4524  0.8353 -1.1335
 2456TIP3   OH229002   6.746   6.750   7.914  0.6030 -0.5337  0.5736
 2456TIP3    H129003   6.834   6.775   7.943  0.1436 -1.5393  3.1129
 2456TIP3    H229004   6.754   6.657   7.892  0.1959 -0.6253  0.7999
 2457TIP3   OH229005   1.936   2.214   8.547 -0.5022  0.3956  0.3899
 2457TIP3    H129006   1.933   2.310   8.537  1.7760  0.4887 -0.1406
 2457TIP3    H229007   1.906   2.198   8.636  0.6592  1.7937  1.0812
 2458TIP3   OH229008   4.239   5.167   8.064  0.3186  0.2235  0.3208
 2458TIP3    H129009   4.275   5.084   8.097 -1.2161 -0.1069  1.2825
 2458TIP3    H229010   4.205   5.145   7.978 -1.3377 -0.5455  1.1290
 2459TIP3   OH229011   2.495   6.629   1.977 -0.0482 -0.3588 -0.1650
 2459TIP3    H129012   2.452   6.707   2.013  1.9773  1.1918 -0.9008
 2459TIP3    H229013   2.433   6.596   1.912 -0.6396  1.1301 -0.4192
 2460TIP3   OH229014   0.323   0.764   2.816  0.4948 -0.3194  1.1588
 2460TIP3    H129015   0.286   0.801   2.896 -1.4346  0.2186  0.0626
 2460TIP3    H229016   0.321   0.836   2.753  1.8987 -0.7608  0.5726
 2461TIP3   OH229017   1.247   1.933   1.807 -0.1493  0.2781  0.1113
 2461TIP3    H129018   1.305   1.878   1.754  0.4175  0.4750  0.5068
 2461TIP3    H229019   1.230   2.009   1.752 -0.6396 -0.1232 -0.2962
 2462TIP3   OH229020   4.490   6.375   1.536 -0.4686  0.0042 -0.0745
 2462TIP3    H129021   4.434   6.357   1.611 -0.9200 -2.8562 -0.9767
 2462TIP3    H229022   4.430   6.401   1.466 -0.6022 -1.6970 -0.6433
 2463TIP3   OH229023   4.546   2.090   7.370 -0.2538  0.1515  0.1273
 2463TIP3    H129024   4.482   2.129   7.310  0.6702 -0.3135 -1.1714
 2463TIP3    H229025   4.555   2.156   7.439 -2.8759 -0.1794  0.9238
 2464TIP3   OH229026   0.290   5.006   7.752 -0.0131 -0.1467  0.0548
 2464TIP3    H129027   0.263   5.048   7.671  0.8173  1.8942  0.7920
 2464TIP3    H229028   0.375   5.044   7.773  0.1244 -1.1442  1.5338
 2465TIP3   OH229029   0.739   4.105   8.685  0.4888 -0.3031  0.4040
 2465TIP3    H129030   0.669   4.113   8.621 -1.0177 -0.2293  1.9769
 2465TIP3    H229031   0.819   4.110   8.634 -0.5918  2.0706 -1.2077
 2466TIP3   OH229032   5.321   0.473   8.011 -0.1246  0.1584 -0.4726
 2466TIP3    H129033   5.232   0.485   7.978 -0.4589 -1.8860 -0.4509
 2466TIP3    H229034   5.338   0.379   8.000  1.6018  0.3007  0.6034
 2467TIP3   OH229035   5.625   4.488   8.071  0.2888 -0.5484  0.3487
 2467TIP3    H129036   5.546   4.433   8.067 -1.8672  2.2422  1.3839
 2467TIP3    H229037   5.594   4.576   8.052  2.9130  0.9223  2.2138
 2468TIP3   OH229038   6.662   5.285   1.414 -0.0007 -1.1310 -0.3643
 2468TIP3    H129039   6.728   5.218   1.399  1.4538 -0.1832  1.3724
 2468TIP3    H229040   6.683   5.321   1.500 -1.6913  0.4742 -0.5407
 2469TIP3   OH229041   3.005   5.027   0.669  0.1294 -0.0474  0.0421
 2469TIP3    H129042   2.955   5.064   0.742  1.9357  1.7148  0.4566
 2469TIP3    H229043   2.938   5.000   0.606 -1.4375 -0.7482  1.9158
 2470TIP3   OH229044   5.734   4.376   8.298 -0.2598 -0.4730 -0.3305
 2470TIP3    H129045   5.722   4.412   8.210  1.9864  1.2966  0.0167
 2470TIP3    H229046   5.815   4.414   8.329 -0.9723 -1.0781  2.5436
 2471TIP3   OH229047   1.069   4.693   0.710  0.2248 -0.1025 -0.2680
 2471TIP3    H129048   1.159   4.721   0.731  0.6552 -0.6423 -1.3264
 2471TIP3    H229049   1.017   4.723   0.785  0.8850  2.3340 -0.6939
 2472TIP3   OH229050   1.567   0.330   2.218 -0.0630  0.0516  0.6505
 2472TIP3    H129051   1.510   0.376   2.279  0.1983  0.8812  0.2880
 2472TIP3    H229052   1.653   0.369   2.231  0.1307 -0.2198  0.2213
 2473TIP3   OH229053   0.116   1.359   2.991  0.2418 -0.5144  0.2491
 2473TIP3    H129054   0.059   1.346   2.915  1.0109 -3.4641  0.0893
 2473TIP3    H229055   0.075   1.309   3.061  0.2414  1.1199  1.4891
 2474TIP3   OH229056   6.264   5.710   0.943  0.2024 -0.3997 -0.3625
 2474TIP3    H129057   6.251   5.672   0.856 -0.5621  2.8253 -1.8080
 2474TIP3    H229058   6.183   5.692   0.990 -0.1202 -0.6238 -0.9891
 2475TIP3   OH229059   0.939   1.485   0.902  0.0088  0.0644 -0.0273
 2475TIP3    H129060   0.920   1.578   0.899  2.3195  0.7267  2.2005
 2475TIP3    H229061   1.000   1.470   0.829  0.2374  0.4641  0.0818
 2476TIP3   OH229062   3.194   2.621   0.529 -0.0385  0.6566  0.5241
 2476TIP3    H129063   3.129   2.570   0.577  0.1218  0.4639  0.5336
 2476TIP3    H229064   3.204   2.701   0.581 -0.2742  0.6907  0.5184
 2477TIP3   OH229065   5.150   3.033   0.319 -0.0810 -0.6512 -0.4039
 2477TIP3    H129066   5.058   3.010   0.336  0.1361  0.3557  2.9900
 2477TIP3    H229067   5.146   3.121   0.282 -0.5145 -0.0733  0.9418
 2478TIP3   OH229068   5.972   6.303   0.606  0.0512 -0.3314  0.6979
 2478TIP3    H129069   6.052   6.290   0.656  1.1962  1.2634 -0.5929
 2478TIP3    H229070   5.917   6.359   0.662  0.7787  0.3758  0.7330
 2479TIP3   OH229071   3.292   4.313   1.963 -0.4447  0.0076 -0.3611
 2479TIP3    H129072   3.269   4.342   1.875 -1.6964  0.0147 -0.0508
 2479TIP3    H229073   3.251   4.227   1.971  2.0236 -1.2974 -0.7656
 2480TIP3   OH229074   2.269   4.343   8.380  0.2013  0.3551  0.0519
 2480TIP3    H129075   2.283   4.431   8.344 -2.8767  0.5595 -0.9225
 2480TIP3    H229076   2.306   4.284   8.314 -0.1818  0.8788 -0.6460
 2481TIP3   OH229077   3.547   4.899   2.094  0.2011 -0.0124 -0.6243
 2481TIP3    H129078   3.503   4.931   2.014  0.3433  0.7358 -0.4103
 2481TIP3    H229079   3.483   4.840   2.133  0.6972 -1.5851 -2.0544
 2482TIP3   OH229080   0.578   6.067   0.977 -0.3839  0.0080 -0.1834
 2482TIP3    H129081   0.622   6.017   1.045  0.4621 -0.8342 -1.3038
 2482TIP3    H229082   0.649   6.104   0.925 -1.0103  0.8504 -0.4643
 2483TIP3   OH229083   1.875   1.843   0.786 -0.2711  0.2130 -0.3031
 2483TIP3    H129084   1.963   1.825   0.752 -0.1101 -0.8370  0.5972
 2483TIP3    H229085   1.890   1.905   0.857 -0.0339 -1.0996  0.8523
 2484TIP3   OH229086   0.831   1.124   1.993 -0.2894  0.3541 -0.4567
 2484TIP3    H129087   0.830   1.038   2.034  0.1845  1.0574  1.0962
 2484TIP3    H229088   0.752   1.126   1.938  1.0542 -2.0282 -2.7052
 2485TIP3   OH229089   1.978   4.603   1.216 -0.0405 -0.0191 -0.1549
 2485TIP3    H129090   1.951   4.672   1.156  0.6510  0.6019  0.2306
 2485TIP3    H229091   1.900   4.583   1.267 -0.2220  0.5325 -0.2145
 2486TIP3   OH229092   2.857   6.329   0.831  0.1324  0.0021  0.2370
 2486TIP3    H129093   2.866   6.374   0.915  1.7707 -1.4539  0.9003
 2486TIP3    H229094   2.944   6.333   0.791 -0.3423 -0.3212 -0.8772
 2487TIP3   OH229095   4.775   4.711   7.515  0.6930  0.0248  0.0975
 2487TIP3    H129096   4.786   4.772   7.442 -2.0522  0.5034 -0.0606
 2487TIP3    H229097   4.829   4.747   7.585  1.3338  1.0378 -0.8830
 2488TIP3   OH229098   4.709   1.139   2.376  0.7310  0.2597  0.4926
 2488TIP3    H129099   4.726   1.231   2.354  0.9927  0.3718  1.1426
 2488TIP3    H229100   4.792   1.109   2.414  0.2208  0.1468  1.5501
 2489TIP3   OH229101   5.480   1.709   1.620 -0.7886  0.2728  0.7560
 2489TIP3    H129102   5.430   1.778   1.576  0.1764  0.4368 -0.1065
 2489TIP3    H229103   5.469   1.632   1.565  1.4570  0.7990 -0.5383
 2490TIP3   OH229104   4.420   0.093   0.993 -0.0925 -0.3589 -0.2348
 2490TIP3    H129105   4.376   0.175   1.010 -0.2034 -0.0190 -2.0143
 2490TIP3    H229106   4.350   0.027   0.993 -0.3641 -0.0749 -1.3442
 2491TIP3   OH229107   4.554   1.874   1.561 -0.0130  0.0043  0.0615
 2491TIP3    H129108   4.569   1.828   1.478  0.4782  1.9940 -1.0144
 2491TIP3    H229109   4.611   1.829   1.623  0.6929 -0.6456 -1.0062
 2492TIP3   OH229110   6.833   6.549   3.138 -0.0145 -0.2246  0.2483
 2492TIP3    H129111   6.754   6.499   3.118 -0.2962 -1.2147  3.2472
 2492TIP3    H229112   6.802   6.635   3.165  0.0536 -0.1106 -0.0385
 2493TIP3   OH229113   6.076   2.391   0.548 -0.6399  0.1330 -0.4183
 2493TIP3    H129114   6.158   2.370   0.593 -0.4393  0.1408 -0.7720
 2493TIP3    H229115   6.104   2.434   0.467 -1.0192  1.2919  0.0376
 2494TIP3   OH229116   5.685   1.877   2.557  0.1346 -0.4272 -0.0414
 2494TIP3    H129117   5.721   1.800   2.601  0.7827  0.0595  0.2896
 2494TIP3    H229118   5.652   1.932   2.627 -2.2545 -1.3242 -0.3831
 2495TIP3   OH229119   4.761   5.225   1.744 -0.2670 -0.0206 -0.0622
 2495TIP3    H129120   4.695   5.220   1.812  1.0678  1.6252  1.4525
 2495TIP3    H229121   4.822   5.154   1.763  0.6832  1.0626  1.2139
 2496TIP3   OH229122   3.211   3.301   1.506 -0.5734  0.2089 -0.2169
 2496TIP3    H129123   3.128   3.252   1.505 -1.5804  1.8213 -1.4178
 2496TIP3    H229124   3.186   3.390   1.480  1.4566  0.9088  0.0727
 2497TIP3   OH229125   1.997   5.312   0.716 -0.0412  0.0403  0.0338
 2497TIP3    H129126   1.930   5.268   0.769 -0.6865  0.0315 -0.7745
 2497TIP3    H229127   1.971   5.403   0.714  1.3747  0.5650  1.8213
 2498TIP3   OH229128   0.866   1.154   8.406  0.0342  0.1834  0.3102
 2498TIP3    H129129   0.922   1.083   8.437  1.7136  1.3642  0.1619
 2498TIP3    H229130   0.807   1.173   8.479  1.0839  0.1087  1.2097
 2499TIP3   OH229131   6.870   0.660   2.304 -0.0743 -0.1627  0.4782
 2499TIP3    H129132   6.831   0.602   2.370  0.3549  1.4448  2.2181
 2499TIP3    H229133   6.876   0.606   2.225 -0.3549 -2.2456  1.8133
 2500TIP3   OH229134   6.462   3.008   1.352  0.6467 -0.1297  0.0269
 2500TIP3    H129135   6.437   3.089   1.398  1.5606 -0.4896  1.2337
 2500TIP3    H229136   6.389   2.990   1.294  0.1306  1.2184  0.2044
 2501TIP3   OH229137   1.115   2.850   8.062 -0.0566  0.1570  0.0808
 2501TIP3    H129138   1.042   2.813   8.112 -0.8062  1.5966  0.1100
 2501TIP3    H229139   1.165   2.900   8.127  0.6095 -0.3136 -0.0653
 2502TIP3   OH229140   0.644   2.568   1.839 -0.1985  0.4444  0.7508
 2502TIP3    H129141   0.655   2.479   1.806  0.1909  0.8276 -0.1846
 2502TIP3    H229142   0.588   2.611   1.774 -0.0507  0.9978  0.9852
 2503TIP3   OH229143   3.572   0.527   0.137 -0.3588  0.0573  0.0195
 2503TIP3    H129144   3.612   0.603   0.093 -0.7229  0.0903 -0.2546
 2503TIP3    H229145   3.548   0.469   0.065 -0.8992  0.0815  0.1833
 2504TIP3   OH229146   2.264   2.442   2.733  0.1982  0.1637  0.3090
 2504TIP3    H129147   2.328   2.396   2.788 -0.3075 -2.5258 -1.1604
 2504TIP3    H229148   2.307   2.452   2.649 -0.4153  0.6572  0.0527
 2505TIP3   OH229149   2.536   5.378   1.084 -0.0447  0.1423  0.6892
 2505TIP3    H129150   2.523   5.387   1.178 -0.7870  2.6906  0.4142
 2505TIP3    H229151   2.626   5.406   1.069  0.0660 -0.2392  0.6372
 2506TIP3   OH229152   4.025   2.636   0.978  0.0555 -0.2186  0.6472
 2506TIP3    H129153   3.966   2.566   1.006 -1.9956  0.9403 -0.5238
 2506TIP3    H229154   4.043   2.686   1.057 -2.4403  0.7160  0.7121
 2507TIP3   OH229155   1.929   3.828   7.329 -0.0880 -0.2573 -0.0541
 2507TIP3    H129156   1.928   3.913   7.374 -2.0200 -0.2168 -0.0597
 2507TIP3    H229157   2.021   3.806   7.319  0.4596  2.0501 -0.4464
 2508TIP3   OH229158   2.270   1.442   1.602 -0.0979  0.3257  0.2466
 2508TIP3    H129159   2.361   1.470   1.603 -0.4449  1.5314 -0.1478
 2508TIP3    H229160   2.220   1.523   1.600 -1.1890 -0.3118  0.5961
 2509TIP3   OH229161   4.315   4.131   3.087  0.0370 -0.4421 -0.0153
 2509TIP3    H129162   4.274   4.083   3.159  0.4308  0.0446  0.5400
 2509TIP3    H229163   4.303   4.223   3.110  0.1311 -0.2802 -0.5966
 2510TIP3   OH229164   1.080   3.121   7.233  0.8238  0.2874  0.4103
 2510TIP3    H129165   1.012   3.126   7.300  0.8078  1.6019  0.3093
 2510TIP3    H229166   1.031   3.106   7.152  0.5128  2.3162  0.1668
 2511TIP3   OH229167   5.389   0.185   8.255 -0.0262  0.7015 -0.5005
 2511TIP3    H129168   5.345   0.200   8.171 -2.6254 -0.7828  0.4908
 2511TIP3    H229169   5.415   0.093   8.252  1.7939  1.1717 -0.4509
 2512TIP3   OH229170   0.245   4.547   2.162 -0.5079  0.1368 -0.2092
 2512TIP3    H129171   0.167   4.584   2.121 -0.7753 -1.1808 -0.9503
 2512TIP3    H229172   0.222   4.537   2.254 -0.5877  1.3254 -0.0832
 2513TIP3   OH229173   3.852   4.233   7.878  1.0361 -0.9692 -0.0115
 2513TIP3    H129174   3.856   4.150   7.924  0.5918 -0.0775  1.7267
 2513TIP3    H229175   3.839   4.298   7.947 -1.4144  0.2891 -1.5135
 2514TIP3   OH229176   1.550   4.463   0.284 -0.3412 -0.2489 -0.2162
 2514TIP3    H129177   1.493   4.531   0.319 -1.7507 -1.1944 -0.5327
 2514TIP3    H229178   1.573   4.409   0.359 -3.0245 -2.0372 -0.5400
 2515TIP3   OH229179   2.620   3.128   2.664  0.2652 -0.4194 -0.4096
 2515TIP3    H129180   2.594   3.220   2.667 -1.4622 -0.8859  0.1374
 2515TIP3    H229181   2.715   3.130   2.673  0.0938  1.2364  2.3387
 2516TIP3   OH229182   6.721   1.868   7.413 -0.0276  0.2235 -0.1374
 2516TIP3    H129183   6.723   1.882   7.319 -2.7871  2.4583  0.0343
 2516TIP3    H229184   6.675   1.785   7.424 -0.4793  0.3926 -0.7382
 2517TIP3   OH229185   5.267   2.536   1.112  0.0007 -0.2920  0.4286
 2517TIP3    H129186   5.298   2.591   1.183  0.5903  2.3848 -1.7401
 2517TIP3    H229187   5.173   2.529   1.125  0.0902  0.2361  1.4050
 2518TIP3   OH229188   1.493   2.279   0.663 -0.1615  0.0396  0.1042
 2518TIP3    H129189   1.449   2.281   0.749  1.7561 -1.8933  1.2398
 2518TIP3    H229190   1.582   2.309   0.680  0.3619 -0.7182 -1.1149
 2519TIP3   OH229191   0.028   5.261   1.991 -0.0537 -1.0207 -1.0297
 2519TIP3    H129192  -0.003   5.200   2.059  0.2812 -0.0227  0.0508
 2519TIP3    H229193  -0.041   5.328   1.986  1.5344  0.9293  1.0118
 2520TIP3   OH229194   6.567   6.650   1.161 -0.1324 -0.4726  0.3094
 2520TIP3    H129195   6.587   6.662   1.253  0.3563  1.4963 -0.0190
 2520TIP3    H229196   6.633   6.701   1.114 -1.5129  0.1643 -1.0535
 2521TIP3   OH229197   5.487   1.562   3.032 -0.3284  0.0139  0.5797
 2521TIP3    H129198   5.395   1.589   3.031 -0.3059  0.4629 -3.0738
 2521TIP3    H229199   5.484   1.467   3.016 -0.2775  0.4635 -2.9078
 2522TIP3   OH229200   4.094   1.536   2.978  0.1087 -0.3718  0.4612
 2522TIP3    H129201   4.071   1.530   3.071  2.3470  0.6960  1.1730
 2522TIP3    H229202   4.130   1.450   2.957 -1.2078 -0.9064  0.3006
 2523TIP3   OH229203   6.686   4.081   8.245 -0.3527  0.2136  0.1596
 2523TIP3    H129204   6.662   4.048   8.332 -1.0874  0.2268 -0.0340
 2523TIP3    H229205   6.652   4.016   8.184 -0.9684  0.8416 -0.1786
 2524TIP3   OH229206   5.854   1.260   7.735 -0.2186 -0.6094 -0.9072
 2524TIP3    H129207   5.830   1.192   7.672 -2.3898 -2.2305  1.4458
 2524TIP3    H229208   5.770   1.296   7.765  0.7444  0.6316  0.4730
 2525TIP3   OH229209   3.315   6.766   2.908  0.5137 -0.1113 -0.0240
 2525TIP3    H129210   3.387   6.752   2.846 -0.7835  0.4453 -1.7333
 2525TIP3    H229211   3.262   6.835   2.868  0.6708  1.7639  2.7072
 2526TIP3   OH229212   2.490   2.791   7.780 -0.3455 -0.1377 -0.1791
 2526TIP3    H129213   2.553   2.841   7.729 -0.4139  1.4621  1.2320
 2526TIP3    H229214   2.433   2.857   7.820 -0.1711 -1.2752  2.1161
 2527TIP3   OH229215   6.825   3.099   2.475 -0.0060 -0.1710  0.0235
 2527TIP3    H129216   6.861   3.114   2.563  1.6041  0.7406 -0.7413
 2527TIP3    H229217   6.783   3.182   2.452  1.0293  0.1678 -0.6993
 2528TIP3   OH229218   1.648   1.188   0.823  0.2001 -0.0034  0.4370
 2528TIP3    H129219   1.688   1.206   0.908 -0.9691  1.6048  0.7080
 2528TIP3    H229220   1.719   1.198   0.760  0.9188 -0.4835  1.1547
 2529TIP3   OH229221   5.881   6.445   1.436 -0.0791  0.4256 -0.7187
 2529TIP3    H129222   5.925   6.366   1.467  0.5297  0.7476 -0.7590
 2529TIP3    H229223   5.825   6.471   1.510 -0.4513 -0.1621 -0.7880
 2530TIP3   OH229224   1.335   6.075   1.037 -0.0191  0.3672 -0.2678
 2530TIP3    H129225   1.242   6.095   1.029 -0.7005 -1.7569  1.3540
 2530TIP3    H229226   1.357   6.026   0.958 -0.5313  0.1024 -0.2481
 2531TIP3   OH229227   6.218   2.910   0.675 -0.3762 -0.1006 -0.0113
 2531TIP3    H129228   6.309   2.933   0.655  0.6988 -1.5686  2.6051
 2531TIP3    H229229   6.176   2.994   0.695  0.1083  0.6933 -2.0913
 2532TIP3   OH229230   0.449   2.354   0.457  0.7725  0.1768  0.1334
 2532TIP3    H129231   0.487   2.404   0.384  1.7775  1.0192  1.2001
 2532TIP3    H229232   0.362   2.330   0.426  1.5194 -0.3365 -1.7264
 2533TIP3   OH229233   3.000   1.195   1.797 -0.4489  0.8647 -0.0778
 2533TIP3    H129234   3.085   1.158   1.821  1.3678  2.2385 -3.6866
 2533TIP3    H229235   2.943   1.173   1.871  2.7618 -0.8938  2.1326
 2534TIP3   OH229236   2.876   3.372   2.464  0.5253 -0.1327 -0.3327
 2534TIP3    H129237   2.802   3.367   2.403  1.5191 -0.9380 -1.5088
 2534TIP3    H229238   2.853   3.309   2.533 -0.5883  0.7603  0.1598
 2535TIP3   OH229239   1.988   0.046   2.033  0.4036  0.0917 -0.3734
 2535TIP3    H129240   1.984  -0.027   1.970  0.5527 -0.5944  0.4039
 2535TIP3    H229241   1.900   0.050   2.071  0.7889 -0.6319  0.6317
 2536TIP3   OH229242   6.020   4.911   1.312 -0.9249 -0.0985 -0.4252
 2536TIP3    H129243   6.029   4.855   1.235 -1.1816  3.3651 -3.2148
 2536TIP3    H229244   6.106   4.951   1.322 -1.5379  1.2590 -0.4494
 2537TIP3   OH229245   4.381   3.436   0.583  0.2246  0.1714 -0.0947
 2537TIP3    H129246   4.328   3.507   0.548 -1.8728 -0.8772  0.7495
 2537TIP3    H229247   4.423   3.472   0.661  0.1917  0.8342 -0.3838
 2538TIP3   OH229248   2.996   4.032   8.729  0.1925 -0.4218  0.2257
 2538TIP3    H129249   2.903   4.054   8.720 -0.0379 -0.9169  1.2256
 2538TIP3    H229250   3.037   4.071   8.652 -0.7900  0.0977 -0.0602
 2539TIP3   OH229251   1.716   0.894   1.825 -0.2173 -0.3726  0.2711
 2539TIP3    H129252   1.709   0.976   1.875 -0.5650  0.4933 -1.1406
 2539TIP3    H229253   1.676   0.914   1.741 -1.7816 -2.4746  0.4289
 2540TIP3   OH229254   2.232   5.886   0.314  0.0506 -0.0657  0.4191
 2540TIP3    H129255   2.259   5.796   0.295  2.9645  1.2206 -2.3798
 2540TIP3    H229256   2.208   5.922   0.229  0.9739  2.3680  1.1041
 2541TIP3   OH229257   1.893   0.696   7.490 -0.5032  0.2850 -0.2935
 2541TIP3    H129258   1.977   0.736   7.468 -0.4840  0.2949 -0.2010
 2541TIP3    H229259   1.833   0.730   7.423 -0.2899 -0.2493 -0.7617
 2542TIP3   OH229260   0.828   2.979   1.241 -0.7520  0.3399 -0.3951
 2542TIP3    H129261   0.893   2.953   1.306 -0.8132  0.0938 -0.4289
 2542TIP3    H229262   0.873   3.044   1.187 -0.9192  1.0227  0.2865
 2543TIP3   OH229263   1.340   0.941   0.310 -0.0118 -0.1825 -0.4501
 2543TIP3    H129264   1.255   0.980   0.331  0.1155  0.5392 -1.2161
 2543TIP3    H229265   1.344   0.862   0.364 -1.4386 -0.5771 -0.8776
 2544TIP3   OH229266   3.284   5.284   7.979  0.3128  0.2452 -0.0754
 2544TIP3    H129267   3.217   5.318   8.039 -1.2980 -0.6327 -1.3020
 2544TIP3    H229268   3.365   5.324   8.010 -0.7872  1.5483  1.3343
 2545TIP3   OH229269   5.388   1.407   2.378 -0.4540 -0.5814  0.4233
 2545TIP3    H129270   5.317   1.381   2.436  0.8251 -1.4838  1.6723
 2545TIP3    H229271   5.434   1.325   2.359  0.4542  0.0213 -0.0548
 2546TIP3   OH229272   1.321   1.922   0.717  0.1580  0.2606 -0.4664
 2546TIP3    H129273   1.391   1.861   0.693  1.0735  1.4602 -0.9540
 2546TIP3    H229274   1.242   1.885   0.679  0.7333 -0.4996 -0.9374
 2547TIP3   OH229275   3.416   2.706   1.110  0.2945  0.0109  0.0385
 2547TIP3    H129276   3.455   2.660   1.184  0.0186 -0.5611 -0.1709
 2547TIP3    H229277   3.328   2.728   1.139  0.3960  0.3466  0.1060
 2548TIP3   OH229278   2.648   2.367   2.631  0.2014  0.1207  0.1803
 2548TIP3    H129279   2.594   2.368   2.553  0.0781 -2.0064  0.1803
 2548TIP3    H229280   2.592   2.401   2.700 -0.9150 -1.2675  0.0115
 2549TIP3   OH229281   5.004   2.138   7.689  0.1357  0.1475 -0.3145
 2549TIP3    H129282   5.069   2.074   7.719 -0.1553  0.1030  0.2403
 2549TIP3    H229283   4.926   2.086   7.671 -0.5596  0.4795  1.5010
 2550TIP3   OH229284   6.274   0.162   1.636 -0.0286 -0.0589 -0.4164
 2550TIP3    H129285   6.365   0.193   1.633 -1.0380  4.6631  3.9550
 2550TIP3    H229286   6.275   0.090   1.699  0.5357  1.6958  1.6968
 2551TIP3   OH229287   2.880   5.113   1.184  0.6210 -0.3146  0.0450
 2551TIP3    H129288   2.965   5.144   1.216  0.1768  0.5836  0.3810
 2551TIP3    H229289   2.834   5.085   1.263  0.7493 -1.1915 -0.1827
 2552TIP3   OH229290   3.265   6.376   1.499  0.1237  0.0793  0.6552
 2552TIP3    H129291   3.300   6.313   1.436 -1.6055  0.2374 -0.5553
 2552TIP3    H229292   3.272   6.332   1.583  1.2074 -0.7218  0.1614
 2553TIP3   OH229293   2.758   1.447   1.121  0.0716  0.3805  0.2785
 2553TIP3    H129294   2.682   1.504   1.126 -0.2238  0.2634 -1.9181
 2553TIP3    H229295   2.774   1.420   1.212 -1.5534  1.6052  0.9765
 2554TIP3   OH229296   5.903   3.619   1.774  0.3419 -0.3114  0.4979
 2554TIP3    H129297   5.828   3.677   1.790 -0.0816 -0.9865  1.0366
 2554TIP3    H229298   5.949   3.659   1.701 -2.1957 -1.3975 -1.8947
 2555TIP3   OH229299   5.579   2.491   0.482  0.1791  0.1359  0.2631
 2555TIP3    H129300   5.661   2.499   0.530  0.6622  0.6803 -0.6354
 2555TIP3    H229301   5.545   2.405   0.506  0.9411 -0.0363  0.7464
 2556TIP3   OH229302   6.827   4.655   1.078 -0.3987  0.0124  0.1015
 2556TIP3    H129303   6.846   4.610   1.160 -1.4928 -0.2621  0.2268
 2556TIP3    H229304   6.872   4.603   1.011 -0.5833 -0.5231  0.3883
 2557TIP3   OH229305   3.434   6.372   0.629 -0.4191 -0.3399  0.1612
 2557TIP3    H129306   3.383   6.454   0.630 -0.4393 -0.3534  1.1607
 2557TIP3    H229307   3.368   6.303   0.636 -0.3855 -0.4349 -0.4403
 2558TIP3   OH229308   1.919   5.708   1.300  0.2472  0.7589  0.1253
 2558TIP3    H129309   1.930   5.659   1.218  0.3489  1.2193 -0.1385
 2558TIP3    H229310   2.000   5.759   1.308  0.9692 -0.5026  1.3468
 2559TIP3   OH229311   1.966   6.637   1.319 -0.3262 -0.2821  0.0750
 2559TIP3    H129312   1.877   6.672   1.327 -0.3401 -0.2356 -0.2580
 2559TIP3    H229313   1.978   6.625   1.224  0.5407  1.0847 -0.0098
 2560TIP3   OH229314   0.625   3.529   6.918  0.3964  0.2235  0.1554
 2560TIP3    H129315   0.575   3.507   6.996 -0.4095 -1.2699 -0.7203
 2560TIP3    H229316   0.661   3.615   6.935 -1.4596  0.8163  1.3516
 2561TIP3   OH229317   3.676   1.812   1.937  0.2294 -1.3240 -0.4040
 2561TIP3    H129318   3.672   1.829   1.842  2.2735  2.5866  0.0130
 2561TIP3    H229319   3.587   1.828   1.968 -0.4748 -2.6727 -1.5619
 2562TIP3   OH229320   2.173   3.508   7.730  0.2045  0.3080 -0.0278
 2562TIP3    H129321   2.155   3.524   7.637  1.3125  1.9165 -0.0111
 2562TIP3    H229322   2.261   3.471   7.731 -0.4350 -1.2702  0.3008
 2563TIP3   OH229323   5.740   6.455   2.389  0.5318  0.2649  0.0143
 2563TIP3    H129324   5.651   6.445   2.424 -0.3797  0.8127 -2.0138
 2563TIP3    H229325   5.797   6.423   2.459 -1.2612 -0.2919  1.2888
 2564TIP3   OH229326   5.197   1.010   8.744 -0.2583 -0.6032 -0.2012
 2564TIP3    H129327   5.107   1.043   8.742  0.0088  0.0909 -1.5669
 2564TIP3    H229328   5.212   0.975   8.656  0.7582 -0.8543  0.0602
 2565TIP3   OH229329   0.206   3.034   0.992  0.2110 -0.8194 -0.3176
 2565TIP3    H129330   0.151   3.098   1.037  1.0211 -0.0290 -0.4178
 2565TIP3    H229331   0.242   2.979   1.062  0.3397 -0.4942 -0.1261
 2566TIP3   OH229332   3.127   6.529   1.836 -0.5338  0.4557 -0.1027
 2566TIP3    H129333   3.098   6.563   1.921  2.0180  2.4928  0.0732
 2566TIP3    H229334   3.109   6.600   1.774  1.4000  0.7066 -0.4441
 2567TIP3   OH229335   4.182   4.341   2.082  0.5049  0.0614 -0.0938
 2567TIP3    H129336   4.115   4.338   2.015 -0.2852 -0.2650  0.6899
 2567TIP3    H229337   4.255   4.388   2.041  1.0855 -2.3577 -2.0972
 2568TIP3   OH229338   3.238   6.612   8.010 -0.8515 -0.6344  0.5570
 2568TIP3    H129339   3.307   6.612   7.944  1.3333 -0.1094  2.6903
 2568TIP3    H229340   3.235   6.702   8.043  0.0382 -1.3876  2.9402
 2569TIP3   OH229341   0.819   4.414   8.310  0.0103  0.6966 -0.7867
 2569TIP3    H129342   0.878   4.339   8.312  0.4810  1.0254 -1.5479
 2569TIP3    H229343   0.737   4.382   8.346  0.1395 -0.2477 -1.2972
 2570TIP3   OH229344   5.770   4.006   8.750  0.3319  0.4017  0.3978
 2570TIP3    H129345   5.678   3.979   8.749  0.3826  0.2389 -0.7446
 2570TIP3    H229346   5.801   3.990   8.661  1.0802  1.7658  0.3802
 2571TIP3   OH229347   0.381   4.371   0.237 -0.5642 -0.1420  0.1319
 2571TIP3    H129348   0.372   4.286   0.194  0.9324 -0.4184  0.2934
 2571TIP3    H229349   0.318   4.369   0.308  0.1806 -1.5651  0.7899
 2572TIP3   OH229350   1.818   0.423   2.284  0.2150  0.2360 -0.4218
 2572TIP3    H129351   1.875   0.354   2.318 -0.3519  0.8631  1.9992
 2572TIP3    H229352   1.867   0.504   2.298  0.9570  0.4081 -3.4050
 2573TIP3   OH229353   1.455   1.657   1.859  0.5508 -0.2676  0.5915
 2573TIP3    H129354   1.483   1.587   1.800  1.2332 -0.3204  0.9713
 2573TIP3    H229355   1.399   1.613   1.923  2.9585 -0.9867  2.3336
 2574TIP3   OH229356   3.900   2.589   8.389  0.4156 -0.1814 -0.2906
 2574TIP3    H129357   3.913   2.684   8.396 -1.4042  0.0870  0.0889
 2574TIP3    H229358   3.829   2.580   8.324 -0.0151 -1.2268  0.3012
 2575TIP3   OH229359   2.127   3.906   0.919  0.1738 -0.1479 -0.0580
 2575TIP3    H129360   2.118   3.991   0.875  1.0207 -1.3814 -2.8041
 2575TIP3    H229361   2.051   3.856   0.891  2.3353 -2.1022 -3.1592
 2576TIP3   OH229362   3.480   3.985   7.353  0.0060 -0.1035  0.0983
 2576TIP3    H129363   3.460   3.999   7.445 -1.5286 -0.0707 -0.2097
 2576TIP3    H229364   3.412   3.924   7.323  1.2466 -1.1391 -0.7105
 2577TIP3   OH229365   0.727   3.680   8.411 -0.1110 -0.0745 -0.5383
 2577TIP3    H129366   0.719   3.590   8.445 -2.3309  0.2324 -0.0503
 2577TIP3    H229367   0.810   3.712   8.446  0.7010 -1.9132 -0.6903
 2578TIP3   OH229368   5.326   0.031   1.792  0.8076 -0.6500 -0.4649
 2578TIP3    H129369   5.305   0.030   1.698  0.2471 -0.1098 -0.3501
 2578TIP3    H229370   5.277   0.105   1.827  2.3633  0.2340 -0.0545
 2579TIP3   OH229371   2.375   6.077   8.309 -0.1467 -0.4329  0.0264
 2579TIP3    H129372   2.406   6.161   8.275 -0.6109 -0.3744 -0.2564
 2579TIP3    H229373   2.455   6.026   8.322  0.0531 -0.4583 -1.1815
 2580TIP3   OH229374   5.233   0.254   0.354 -0.2261  0.5116 -0.1283
 2580TIP3    H129375   5.327   0.270   0.365 -0.3961 -0.1910  4.2466
 2580TIP3    H229376   5.216   0.271   0.261  4.4442 -0.8067 -1.4802
 2581TIP3   OH229377   6.657   0.626   8.693 -0.4471  0.1135 -0.1069
 2581TIP3    H129378   6.727   0.682   8.660 -1.2187 -0.3441 -2.8255
 2581TIP3    H229379   6.692   0.537   8.687 -0.6291  0.0165  0.2506
 2582TIP3   OH229380   0.894   2.285   2.093  0.1836 -0.3976  0.1824
 2582TIP3    H129381   0.916   2.193   2.081 -0.6713 -0.7705  1.2862
 2582TIP3    H229382   0.979   2.331   2.089  0.5303 -1.1146 -1.1509
 2583TIP3   OH229383   0.303   6.699   8.196 -0.4518  0.1097 -0.1255
 2583TIP3    H129384   0.211   6.683   8.218 -0.9880  4.3702  1.6360
 2583TIP3    H229385   0.346   6.714   8.280  1.6206 -0.3577 -1.0181
 2584TIP3   OH229386   1.563   0.292   1.265 -0.0363  0.2665 -0.2457
 2584TIP3    H129387   1.505   0.356   1.307 -0.1323 -0.5275  0.9047
 2584TIP3    H229388   1.584   0.230   1.336 -0.2428 -1.1609 -1.3907
 2585TIP3   OH229389   1.596   0.930   0.227  0.2307 -0.3840  0.1695
 2585TIP3    H129390   1.508   0.937   0.265  0.4170 -0.2898  0.5892
 2585TIP3    H229391   1.591   0.981   0.146 -0.0776 -0.3112  0.2318
 2586TIP3   OH229392   6.020   6.407   8.675 -0.6820  0.2949  0.2055
 2586TIP3    H129393   6.040   6.318   8.704  1.0451  0.0704 -1.5083
 2586TIP3    H229394   6.045   6.462   8.749  0.2487 -0.4980  0.5080
 2587TIP3   OH229395   0.686   0.471   7.369  0.6150 -0.3029  0.3947
 2587TIP3    H129396   0.624   0.398   7.374  0.3920 -0.2514 -1.0561
 2587TIP3    H229397   0.772   0.429   7.362  0.5460 -0.4215  0.2386
 2588TIP3   OH229398   1.952   3.638   8.589 -0.4168 -0.0664 -0.0926
 2588TIP3    H129399   1.946   3.572   8.520  0.5362  0.1616 -0.4211
 2588TIP3    H229400   1.923   3.719   8.547 -2.3012 -0.3813  0.5186
 2589TIP3   OH229401   3.358   1.683   8.333 -0.1009  0.0353 -0.6236
 2589TIP3    H129402   3.286   1.626   8.361  0.3689 -0.5450 -0.5607
 2589TIP3    H229403   3.325   1.728   8.255 -0.3729 -0.5587 -0.8542
 2590TIP3   OH229404   6.685   1.141   8.428 -0.1918  0.2379 -0.4761
 2590TIP3    H129405   6.604   1.102   8.393 -1.9824  3.3245 -0.1594
 2590TIP3    H229406   6.660   1.230   8.450  2.7167  0.5674  2.0749
 2591TIP3   OH229407   1.799   0.206   0.100  0.0176  0.1288  0.0957
 2591TIP3    H129408   1.766   0.251   0.022 -2.2247  0.3586  1.1247
 2591TIP3    H229409   1.781   0.114   0.084  0.1684  0.1022  0.0734
 2592TIP3   OH229410   6.434   6.294   1.018 -0.0102  0.0953 -0.8644
 2592TIP3    H129411   6.478   6.375   0.993  1.5176 -0.7336 -0.9265
 2592TIP3    H229412   6.487   6.258   1.088 -1.6635  0.0045  0.4029
 2593TIP3   OH229413   2.666   5.775   1.338 -0.0357  0.1528  0.3009
 2593TIP3    H129414   2.710   5.696   1.372 -0.3288 -0.5757 -0.9427
 2593TIP3    H229415   2.590   5.742   1.291  1.2787  0.8793 -2.6066
 2594TIP3   OH229416   0.119   5.815   1.246 -0.5194 -0.1138  0.1098
 2594TIP3    H129417   0.083   5.726   1.239  0.9562 -0.7045 -0.1993
 2594TIP3    H229418   0.211   5.802   1.268 -0.1119  1.3200 -0.6465
 2595TIP3   OH229419   2.892   0.391   1.469 -0.0056  0.8853  0.3622
 2595TIP3    H129420   2.799   0.397   1.491 -0.4795  3.2384 -1.7944
 2595TIP3    H229421   2.910   0.297   1.468 -2.6208  0.3015 -0.1011
 2596TIP3   OH229422   1.807   3.128   7.388 -0.2913 -0.0445 -0.1122
 2596TIP3    H129423   1.864   3.195   7.427 -0.7024 -0.2534  0.8818
 2596TIP3    H229424   1.806   3.057   7.453 -0.8452 -0.4906 -0.5998
 2597TIP3   OH229425   3.789   5.918   7.231  0.4738  0.3945  0.1847
 2597TIP3    H129426   3.751   5.857   7.168 -2.5908  0.8620  1.4164
 2597TIP3    H229427   3.720   5.982   7.248  2.2211  1.9913  1.8378
 2598TIP3   OH229428   2.162   1.819   1.180 -0.2173  0.3095 -0.4289
 2598TIP3    H129429   2.190   1.783   1.096 -0.4200  0.5356 -0.5966
 2598TIP3    H229430   2.067   1.806   1.181 -0.3954  1.4371 -0.7912
 2599TIP3   OH229431   5.405   3.805   0.792 -0.8730  0.4829 -0.2189
 2599TIP3    H129432   5.445   3.892   0.782 -0.4485  0.2385 -0.7217
 2599TIP3    H229433   5.332   3.819   0.851  0.8398  0.6722  2.0097
 2600TIP3   OH229434   3.919   2.052   8.464  0.1756 -0.2527 -0.5622
 2600TIP3    H129435   3.845   1.992   8.457  0.1819 -0.4838  0.9107
 2600TIP3    H229436   3.879   2.139   8.465 -0.2487 -0.4074  1.4226
 2601TIP3   OH229437   1.491   2.554   1.637  0.2678  0.0578 -1.2108
 2601TIP3    H129438   1.405   2.513   1.646  0.2718  0.2786 -0.1344
 2601TIP3    H229439   1.552   2.491   1.675  0.5338  0.0946 -1.5715
 2602TIP3   OH229440   1.326   6.329   1.518 -0.0013  0.0172 -0.5315
 2602TIP3    H129441   1.242   6.361   1.486 -0.2134 -1.2351 -1.2850
 2602TIP3    H229442   1.377   6.312   1.439  0.1621 -1.3137 -0.1565
 2603TIP3   OH229443   0.531   0.512   1.100 -0.3112  1.1983  0.0520
 2603TIP3    H129444   0.490   0.442   1.048  1.4894  1.3546 -1.7355
 2603TIP3    H229445   0.547   0.472   1.185 -0.9147  0.0027 -0.3607
 2604TIP3   OH229446   4.643   3.071   1.886  0.1672  0.2833 -0.3080
 2604TIP3    H129447   4.689   3.145   1.927  3.5400 -1.3268 -0.7764
 2604TIP3    H229448   4.612   3.019   1.960 -1.2201  1.5302  0.0295
 2605TIP3   OH229449   1.288   4.298   8.563  0.0640  0.5905 -0.2426
 2605TIP3    H129450   1.219   4.256   8.615  1.9347  1.3025  3.0986
 2605TIP3    H229451   1.285   4.390   8.588  0.9730  1.0030 -1.5555
 2606TIP3   OH229452   0.269   4.136   8.578  0.6887 -0.0973  0.5581
 2606TIP3    H129453   0.337   4.111   8.515 -0.3305  1.2545 -1.1725
 2606TIP3    H229454   0.201   4.070   8.566 -0.9850  1.9273 -2.3348
 2607TIP3   OH229455   1.184   2.595   2.372 -0.1451 -0.0018 -0.3101
 2607TIP3    H129456   1.101   2.633   2.344  0.2074  1.2131  0.2082
 2607TIP3    H229457   1.170   2.501   2.367 -1.9146  0.1472  0.7932
 2608TIP3   OH229458   1.285   5.983   2.590  0.7048  0.1213  0.2842
 2608TIP3    H129459   1.307   5.923   2.519  1.1824  0.6120  0.0104
 2608TIP3    H229460   1.300   6.070   2.553 -0.8388  0.4517  0.3758
 2609TIP3   OH229461   2.673   2.018   2.687 -0.1887  0.9558 -0.2505
 2609TIP3    H129462   2.738   2.088   2.691 -0.8346  1.5029  1.4510
 2609TIP3    H229463   2.612   2.045   2.619 -0.8451  2.4589  0.8859
 2610TIP3   OH229464   2.172   3.272   1.580  0.4359 -0.3763  0.3940
 2610TIP3    H129465   2.216   3.318   1.508  0.2063  0.6454  0.8959
 2610TIP3    H229466   2.092   3.238   1.541  1.8027 -2.6488 -0.6574
 2611TIP3   OH229467   1.643   1.383   1.856 -0.3175 -0.4394 -0.5219
 2611TIP3    H129468   1.565   1.391   1.801 -1.1401 -2.9927  0.1013
 2611TIP3    H229469   1.713   1.425   1.806 -1.4164 -1.0438 -2.6746
 2612TIP3   OH229470   6.229   4.750   0.471 -0.5560  0.1148  0.1210
 2612TIP3    H129471   6.293   4.821   0.465  0.4070 -0.6477  0.9392
 2612TIP3    H229472   6.155   4.788   0.518 -0.6690  0.9748 -0.7235
 2613TIP3   OH229473   4.748   5.182   7.319 -0.2067 -0.3688 -0.0854
 2613TIP3    H129474   4.807   5.232   7.263 -0.7238 -1.0467 -1.2870
 2613TIP3    H229475   4.681   5.148   7.259 -1.2664 -0.4300  1.0820
 2614TIP3   OH229476   1.439   1.410   2.365  0.4284  0.5362 -0.7065
 2614TIP3    H129477   1.486   1.467   2.426 -0.0721  1.0078 -0.7607
 2614TIP3    H229478   1.495   1.332   2.358  1.2248  1.1090 -0.8117
 2615TIP3   OH229479   2.299   1.521   1.988  0.0245  0.1236 -0.5382
 2615TIP3    H129480   2.359   1.563   1.926 -1.1390  0.6711 -1.3346
 2615TIP3    H229481   2.356   1.488   2.058  1.2085  0.9166 -1.0929
 2616TIP3   OH229482   5.750   1.425   1.910 -0.7458 -0.0993 -0.1510
 2616TIP3    H129483   5.707   1.502   1.946 -1.4490 -0.0491 -1.0599
 2616TIP3    H229484   5.829   1.415   1.963 -0.8349  1.0152  0.2245
 2617TIP3   OH229485   0.250   2.351   7.880 -0.0723 -0.3768 -0.3127
 2617TIP3    H129486   0.205   2.285   7.934  0.7914  0.8140  2.0407
 2617TIP3    H229487   0.180   2.410   7.852 -0.3801 -0.1931  0.7883
 2618TIP3   OH229488   6.681   1.661   0.724 -0.4606 -0.4354 -0.1778
 2618TIP3    H129489   6.677   1.600   0.797  0.2810  0.3837  0.5752
 2618TIP3    H229490   6.594   1.703   0.723  0.2171  1.1284  1.6727
 2619TIP3   OH229491   3.037   5.277   8.117  0.5260  0.0789 -0.0530
 2619TIP3    H129492   3.017   5.341   8.048 -0.0600 -1.2009 -1.1097
 2619TIP3    H229493   3.024   5.192   8.076  2.0824 -0.7656  1.0827
 2620TIP3   OH229494   4.704   5.275   1.059 -0.3521 -0.3150 -0.2560
 2620TIP3    H129495   4.616   5.264   1.022 -0.1298  1.8764 -1.6157
 2620TIP3    H229496   4.689   5.315   1.145 -0.6914 -1.5165  0.2813
 2621TIP3   OH229497   0.016   5.028   0.088  0.6698  0.3741 -0.1194
 2621TIP3    H129498   0.097   5.014   0.039  1.1527 -0.6012  0.9092
 2621TIP3    H229499   0.045   5.035   0.179 -0.2729  1.4313  0.1101
 2622TIP3   OH229500   5.351   6.199   1.547 -0.2010  0.1444 -0.4324
 2622TIP3    H129501   5.325   6.113   1.579  0.2483 -0.3884 -1.4705
 2622TIP3    H229502   5.442   6.208   1.574 -0.3157  0.4138 -0.1148
 2623TIP3   OH229503   3.554   6.832   7.138  0.2324 -0.3306  0.2217
 2623TIP3    H129504   3.493   6.904   7.156 -0.3134 -0.8651  0.5506
 2623TIP3    H229505   3.593   6.854   7.053  0.4244  0.5887  0.5403
 2624TIP3   OH229506   3.343   2.081   7.733 -0.4912 -0.2819  0.4619
 2624TIP3    H129507   3.249   2.095   7.742 -0.3683  0.8930  0.1005
 2624TIP3    H229508   3.356   1.988   7.753 -1.6997 -0.4179  0.6680
 2625TIP3   OH229509   4.657   0.275   2.432  0.2966 -0.0754  0.2061
 2625TIP3    H129510   4.684   0.233   2.514 -0.4678  0.9247  1.0043
 2625TIP3    H229511   4.573   0.316   2.453 -0.0037  0.0505 -1.1420
 2626TIP3   OH229512   0.355   4.689   1.647 -0.0541  0.2185  0.0250
 2626TIP3    H129513   0.335   4.680   1.554  0.3810  0.3444 -0.0816
 2626TIP3    H229514   0.311   4.770   1.673 -2.5204 -1.2102  0.5889
 2627TIP3   OH229515   2.660   0.757   8.050 -0.1896  0.3123  0.5545
 2627TIP3    H129516   2.727   0.694   8.022 -0.4394  0.8132 -1.3649
 2627TIP3    H229517   2.577   0.712   8.031 -0.3775  0.6464  0.5828
 2628TIP3   OH229518   5.781   2.397   2.782  0.5179  0.0466 -0.2822
 2628TIP3    H129519   5.714   2.456   2.817  0.9785  1.3883 -1.5368
 2628TIP3    H229520   5.819   2.355   2.858 -0.5469  0.5979  0.5800
 2629TIP3   OH229521   6.385   1.542   0.596 -0.3020 -0.2208 -0.5252
 2629TIP3    H129522   6.341   1.620   0.629  0.0758 -0.2077 -0.0382
 2629TIP3    H229523   6.407   1.563   0.505  2.9822  1.6771  0.5409
 2630TIP3   OH229524   5.559   2.871   2.407  0.0900 -0.5007  0.0794
 2630TIP3    H129525   5.595   2.929   2.475  0.5937 -0.8150  0.0853
 2630TIP3    H229526   5.630   2.809   2.389 -1.0555 -2.3215  1.4427
 2631TIP3   OH229527   6.226   3.302   2.224  0.3597 -0.2097 -0.0600
 2631TIP3    H129528   6.299   3.341   2.271  1.3292  0.3899 -1.9852
 2631TIP3    H229529   6.263   3.273   2.141 -1.9582  2.0669 -2.0368
 2632TIP3   OH229530   0.151   6.659   1.081 -0.3306 -1.2205  0.0009
 2632TIP3    H129531   0.213   6.687   1.147  0.0952 -0.9893 -0.4887
 2632TIP3    H229532   0.181   6.571   1.056  1.0949 -0.2945 -1.7502
 2633TIP3   OH229533   4.613   6.137   0.925 -0.1120  0.5305  0.5832
 2633TIP3    H129534   4.533   6.091   0.951 -1.0933  1.9378  0.1680
 2633TIP3    H229535   4.583   6.209   0.870  1.5544  0.3721 -0.5980
 2634TIP3   OH229536   4.762   4.634   7.062 -0.5331  0.4472 -0.4102
 2634TIP3    H129537   4.726   4.607   7.147 -1.6495  1.8120 -0.4165
 2634TIP3    H229538   4.779   4.552   7.016  1.2681 -0.3983  1.5775
 2635TIP3   OH229539   6.344   0.807   3.197 -0.0603  0.1084 -0.2992
 2635TIP3    H129540   6.353   0.880   3.258  0.0976  0.0784 -0.2859
 2635TIP3    H229541   6.404   0.829   3.125 -1.7441  1.1915 -1.4705
 2636TIP3   OH229542   6.192   4.574   3.027  0.2731 -0.4966  0.1911
 2636TIP3    H129543   6.285   4.594   3.027 -0.2907  2.6774  0.0180
 2636TIP3    H229544   6.184   4.495   3.080  3.0612 -1.0184 -0.0374
 2637TIP3   OH229545   1.288   3.443   1.538  0.0159 -0.1028  0.0121
 2637TIP3    H129546   1.223   3.489   1.485  1.0630 -0.1306 -1.3373
 2637TIP3    H229547   1.359   3.506   1.549 -0.0262 -0.2232  1.1063
 2638TIP3   OH229548   1.081   0.421   0.721  0.2964  0.4196 -0.2530
 2638TIP3    H129549   1.114   0.374   0.798  1.5987  1.2757 -0.2752
 2638TIP3    H229550   1.019   0.485   0.757 -0.4730 -0.3728 -0.1067
 2639TIP3   OH229551   6.251   2.154   2.418  0.0015 -0.7567  0.0854
 2639TIP3    H129552   6.250   2.068   2.377  0.1247  0.1919 -2.0333
 2639TIP3    H229553   6.328   2.197   2.382 -0.8924  0.7707 -0.1113
 2640TIP3   OH229554   4.339   2.483   0.028  0.1306  0.1650  0.5788
 2640TIP3    H129555   4.249   2.515   0.025  0.6369  1.5902 -1.9949
 2640TIP3    H229556   4.369   2.505   0.116 -1.8457  0.1384  1.3089
 2641TIP3   OH229557   3.683   5.087   2.224 -0.0815 -0.1808  0.3319
 2641TIP3    H129558   3.633   5.027   2.169 -2.1700 -0.3551  2.2620
 2641TIP3    H229559   3.733   5.030   2.283 -0.2477 -0.0021  0.6448
 2642TIP3   OH229560   0.269   4.503   1.412  0.3155 -0.0999 -0.1520
 2642TIP3    H129561   0.207   4.443   1.370 -0.4250  0.6801 -0.2207
 2642TIP3    H229562   0.300   4.456   1.489 -0.9317 -0.2391  0.2915
 2643TIP3   OH229563   5.980   1.752   0.452  0.0200  0.3729  0.5153
 2643TIP3    H129564   5.890   1.733   0.425  0.0196  0.1393  0.6750
 2643TIP3    H229565   5.971   1.802   0.533  0.0466 -0.8533  1.2947
 2644TIP3   OH229566   0.645   6.128   6.720 -0.3248 -0.2839 -0.0720
 2644TIP3    H129567   0.575   6.079   6.762  0.9252 -1.1784  1.0437
 2644TIP3    H229568   0.726   6.087   6.752  0.7140  0.6029 -1.4416
 2645TIP3   OH229569   6.113   6.689   1.793 -0.5913  0.0033 -0.4086
 2645TIP3    H129570   6.064   6.707   1.713 -0.4459  0.8418 -0.3214
 2645TIP3    H229571   6.107   6.594   1.805 -0.1677 -0.1985 -1.6975
 2646TIP3   OH229572   6.252   5.870   2.353  0.4571  0.0875 -0.2252
 2646TIP3    H129573   6.159   5.850   2.367  0.4867 -1.2325 -1.6448
 2646TIP3    H229574   6.252   5.954   2.306  0.0577  0.6629  0.7729
 2647TIP3   OH229575   0.309   2.654   6.815 -0.0910 -0.3043  0.6848
 2647TIP3    H129576   0.306   2.588   6.884  0.8575 -0.0831  0.9637
 2647TIP3    H229577   0.402   2.673   6.805 -0.2790  0.2389 -0.1132
 2648TIP3   OH229578   5.471   2.972   8.073  0.4358 -0.2109  0.5074
 2648TIP3    H129579   5.486   2.982   8.167  0.5770 -4.0289  1.0425
 2648TIP3    H229580   5.558   2.953   8.037  0.1692 -0.1453 -0.1866
 2649TIP3   OH229581   2.695   6.564   0.723  0.1644  0.4304 -0.1965
 2649TIP3    H129582   2.758   6.501   0.759 -0.8352  0.1035  1.0676
 2649TIP3    H229583   2.741   6.606   0.651  1.3936 -0.6655 -0.0805
 2650TIP3   OH229584   1.776   1.302   2.580  0.0636  0.1352 -0.1340
 2650TIP3    H129585   1.831   1.252   2.641 -0.7136  0.5759  0.9666
 2650TIP3    H229586   1.838   1.336   2.515  0.6587 -1.8816 -0.6777
 2651TIP3   OH229587   5.619   2.304   1.737  0.1244 -0.0420  0.8439
 2651TIP3    H129588   5.630   2.289   1.831  0.8356 -0.3421  0.7197
 2651TIP3    H229589   5.684   2.372   1.716 -0.1857  0.1826  0.6119
 2652TIP3   OH229590   0.037   0.124   2.437  0.0617  0.6208 -0.5664
 2652TIP3    H129591  -0.002   0.066   2.372 -0.7914  0.8351 -0.2650
 2652TIP3    H229592   0.070   0.065   2.505  2.2116  0.3062 -1.8040
 2653TIP3   OH229593   0.651   2.328   2.254 -0.9377 -0.7256 -0.2730
 2653TIP3    H129594   0.702   2.273   2.194 -0.9429  0.4848 -1.4568
 2653TIP3    H229595   0.713   2.395   2.282 -1.2361 -0.6593  0.2251
 2654TIP3   OH229596   5.560   0.537   8.592 -0.3998  0.0015  0.0072
 2654TIP3    H129597   5.539   0.486   8.514  0.3350 -0.7669  0.2896
 2654TIP3    H229598   5.620   0.605   8.562 -0.4934  0.0008 -0.1811
 2655TIP3   OH229599   0.102   3.971   1.107 -0.1147 -0.7024 -0.0671
 2655TIP3    H129600   0.075   3.912   1.038  0.3249 -2.1095  0.9157
 2655TIP3    H229601   0.027   4.029   1.120 -0.5303 -0.9918 -1.0928
 2656TIP3   OH229602   4.502   2.703   8.009 -0.2959  0.3296 -0.7033
 2656TIP3    H129603   4.476   2.784   8.053  0.3572 -1.0819  2.6089
 2656TIP3    H229604   4.591   2.720   7.977 -0.3803  1.0930 -0.5443
 2657TIP3   OH229605   4.779   2.890   1.716 -0.2763 -0.5409 -0.0074
 2657TIP3    H129606   4.743   2.943   1.787  2.4203  0.8900  0.4163
 2657TIP3    H229607   4.807   2.954   1.650 -1.5400 -1.7738 -1.8528
 2658TIP3   OH229608   4.871   4.939   7.870 -0.5903  0.6636  0.7771
 2658TIP3    H129609   4.820   5.011   7.832  1.1357  1.6435  0.2270
 2658TIP3    H229610   4.805   4.875   7.895 -2.2302  2.5229  1.5229
 2659TIP3   OH229611   0.038   5.919   7.252  0.1992 -0.1174 -0.2984
 2659TIP3    H129612   0.002   5.979   7.318  0.6020  0.1189 -0.2902
 2659TIP3    H229613   0.101   5.866   7.300 -0.7117 -1.0891 -0.1334
 2660TIP3   OH229614   0.984   5.842   2.088  0.8070  0.1156  0.0997
 2660TIP3    H129615   0.897   5.840   2.128  0.8269  1.4466  0.2428
 2660TIP3    H229616   0.971   5.887   2.005  0.9760 -1.6503 -0.9386
 2661TIP3   OH229617   1.778   1.622   7.690  0.1712 -0.2095  0.6032
 2661TIP3    H129618   1.709   1.589   7.747 -0.9993  2.7076  1.0459
 2661TIP3    H229619   1.765   1.577   7.607 -1.8370 -0.2780  0.9047
 2662TIP3   OH229620   2.634   6.727   2.769 -0.5123 -0.2203  0.2586
 2662TIP3    H129621   2.548   6.691   2.746 -0.5756  0.1818 -0.1552
 2662TIP3    H229622   2.660   6.680   2.848  0.0856 -2.2827 -1.0872
 2663TIP3   OH229623   3.266   3.746   0.781 -0.7088 -0.1027 -0.0645
 2663TIP3    H129624   3.202   3.719   0.847  0.1716  0.6419  1.1380
 2663TIP3    H229625   3.248   3.840   0.768 -0.0474  0.0486  0.0848
 2664TIP3   OH229626   3.733   1.693   0.549 -0.0229 -0.2618  0.3319
 2664TIP3    H129627   3.651   1.735   0.578 -0.6242 -2.7035  2.5317
 2664TIP3    H229628   3.708   1.641   0.473 -0.4672 -0.6994  0.7664
 2665TIP3   OH229629   6.834   2.171   2.618  0.2759 -0.0648  0.6865
 2665TIP3    H129630   6.757   2.118   2.641  0.3678  0.6181  2.7552
 2665TIP3    H229631   6.821   2.193   2.526 -0.7068 -2.0950  0.2828
 2666TIP3   OH229632   5.014   4.514   8.324 -0.0017  0.4440  0.2748
 2666TIP3    H129633   5.073   4.486   8.254 -1.1526 -0.8909 -0.1890
 2666TIP3    H229634   5.057   4.591   8.362  1.1963  0.5094 -1.1462
 2667TIP3   OH229635   1.616   3.349   2.129  0.4069 -0.4595  0.4872
 2667TIP3    H129636   1.546   3.380   2.186  1.6170 -0.5699  2.1125
 2667TIP3    H229637   1.580   3.272   2.085 -0.6526 -0.1969  0.8817
 2668TIP3   OH229638   1.731   5.193   8.171 -0.6647  0.4409  0.1227
 2668TIP3    H129639   1.790   5.127   8.205  0.7712  1.1634 -0.8481
 2668TIP3    H229640   1.746   5.270   8.225 -0.3186  0.7847 -0.4471
 2669TIP3   OH229641   6.107   0.632   1.507 -0.2102  0.0449  0.4920
 2669TIP3    H129642   6.042   0.662   1.570  1.0681  1.5840  1.1609
 2669TIP3    H229643   6.140   0.550   1.544  0.0033  0.5544  1.4530
 2670TIP3   OH229644   4.950   5.240   8.186  1.1375 -1.0499 -0.7213
 2670TIP3    H129645   4.914   5.303   8.248  0.3180  0.4366 -2.6020
 2670TIP3    H229646   4.946   5.156   8.232 -0.5688 -0.2214  0.7805
 2671TIP3   OH229647   4.316   2.187   7.199 -0.4631 -1.4958 -0.0458
 2671TIP3    H129648   4.302   2.254   7.132 -0.6645 -0.6799  0.8022
 2671TIP3    H229649   4.236   2.188   7.251  0.4294 -0.7575  1.3850
 2672TIP3   OH229650   2.266   4.206   0.788  0.3642 -0.1292 -0.5832
 2672TIP3    H129651   2.348   4.187   0.742  0.2643 -2.4146  0.0485
 2672TIP3    H229652   2.292   4.222   0.879  0.3195  1.8522 -0.8803
 2673TIP3   OH229653   2.095   0.397   0.584  0.1908  0.0410 -0.2872
 2673TIP3    H129654   2.022   0.419   0.526 -0.2567  1.2363  0.6889
 2673TIP3    H229655   2.173   0.412   0.530 -0.2170  1.1384 -0.5893
 2674TIP3   OH229656   0.237   4.693   0.171  0.1531  0.1113 -0.1761
 2674TIP3    H129657   0.185   4.737   0.104 -2.5743 -0.3667  1.4483
 2674TIP3    H229658   0.209   4.602   0.168  1.9583 -0.4854 -0.1140
 2675TIP3   OH229659   4.863   5.916   0.693 -0.2219 -0.0963  0.3639
 2675TIP3    H129660   4.851   5.994   0.640 -0.8635 -0.1263  0.4650
 2675TIP3    H229661   4.958   5.903   0.694 -0.0906  0.8077  0.5399
 2676TIP3   OH229662   5.655   1.105   0.030  0.0684  0.1308  0.5826
 2676TIP3    H129663   5.627   1.129   0.118 -0.7140  2.4556 -0.2263
 2676TIP3    H229664   5.696   1.184  -0.005 -0.8952 -0.2481 -1.6344
 2677TIP3   OH229665   4.024   3.728   1.108  0.4418 -0.0232  0.4101
 2677TIP3    H129666   4.036   3.636   1.134  1.3742  0.6256  2.5299
 2677TIP3    H229667   3.974   3.767   1.180  0.0208  1.1196 -0.4747
 2678TIP3   OH229668   4.910   4.391   2.423 -0.0701 -0.4497  0.0342
 2678TIP3    H129669   4.867   4.429   2.346  1.1845 -0.0674 -0.4999
 2678TIP3    H229670   4.942   4.466   2.472 -1.8618 -0.6203  1.5862
 2679TIP3   OH229671   6.581   2.041   1.832 -0.1737 -0.1799  0.5628
 2679TIP3    H129672   6.598   1.956   1.792 -0.9064 -0.2743  0.4238
 2679TIP3    H229673   6.617   2.034   1.921 -0.7653 -0.8538  0.7584
 2680TIP3   OH229674   3.537   0.826   7.792  0.0955  0.2916 -0.8564
 2680TIP3    H129675   3.574   0.908   7.760  2.2725  0.3919  1.5343
 2680TIP3    H229676   3.589   0.806   7.870 -1.8612 -2.1942 -0.0644
 2681TIP3   OH229677   0.952   5.339   7.704  0.1506 -0.0415 -0.0467
 2681TIP3    H129678   0.872   5.387   7.723 -0.0293 -0.2339 -0.3100
 2681TIP3    H229679   0.947   5.318   7.611  0.4910 -0.0841 -0.0594
 2682TIP3   OH229680   0.233   2.780   2.223  0.0465  0.4507  0.1769
 2682TIP3    H129681   0.156   2.815   2.268 -1.1325 -1.4167 -0.2536
 2682TIP3    H229682   0.234   2.826   2.139 -1.1240 -0.0558 -0.1472
 2683TIP3   OH229683   4.903   4.603   2.647 -0.4208  0.3100  0.5484
 2683TIP3    H129684   4.998   4.610   2.634 -0.4473 -0.7980 -0.4658
 2683TIP3    H229685   4.889   4.623   2.739  0.7333  1.0377  0.5796
 2684TIP3   OH229686   0.558   2.069   1.386 -0.1962  0.1673  0.3149
 2684TIP3    H129687   0.517   2.054   1.471  0.8466  0.7265  0.9462
 2684TIP3    H229688   0.529   2.157   1.360 -2.1545 -0.7848 -0.9143
 2685TIP3   OH229689   0.363   1.471   2.476 -0.4160 -0.0737 -0.6048
 2685TIP3    H129690   0.454   1.496   2.492 -0.2723 -1.2894  0.6254
 2685TIP3    H229691   0.321   1.477   2.562 -1.6434  0.9577 -1.2424
 2686TIP3   OH229692   5.788   1.410   0.554  0.2874  0.6114  0.1893
 2686TIP3    H129693   5.844   1.407   0.477  0.5025 -0.1911  0.3726
 2686TIP3    H229694   5.718   1.471   0.531 -0.0182 -0.1242 -0.8848
 2687TIP3   OH229695   6.671   1.339   1.790  0.0280 -0.4110 -0.1932
 2687TIP3    H129696   6.666   1.244   1.799  0.0409 -0.6160 -2.0691
 2687TIP3    H229697   6.763   1.357   1.773 -0.0248 -0.0856 -0.1411
 2688TIP3   OH229698   2.737   6.812   1.895 -0.5921  0.2832 -0.2335
 2688TIP3    H129699   2.706   6.899   1.917  1.1073  0.5497  1.3245
 2688TIP3    H229700   2.667   6.774   1.841 -1.4310  2.5171 -0.8158
 2689TIP3   OH229701   6.186   5.623   2.248 -0.2016  0.2079 -0.3961
 2689TIP3    H129702   6.165   5.678   2.173 -0.8091  1.3485  0.5865
 2689TIP3    H229703   6.227   5.682   2.311  1.7507 -1.0255 -0.4012
 2690TIP3   OH229704   3.868   0.663   2.626  0.1183 -0.4069  0.1035
 2690TIP3    H129705   3.805   0.669   2.699  1.2436 -1.6562  1.2403
 2690TIP3    H229706   3.953   0.657   2.669  0.8477 -0.7650 -1.3450
 2691TIP3   OH229707   4.659   6.752   0.184  0.2753 -0.8312 -0.0929
 2691TIP3    H129708   4.649   6.828   0.126  0.2645 -0.4290  0.4280
 2691TIP3    H229709   4.713   6.691   0.134  0.7190 -0.2621 -0.3228
 2692TIP3   OH229710   1.209   1.610   8.015  0.3068 -0.4635 -0.0281
 2692TIP3    H129711   1.135   1.649   8.062 -0.2129 -3.2099  1.6166
 2692TIP3    H229712   1.185   1.519   8.002  2.2187 -0.7674 -2.0699
 2693TIP3   OH229713   6.010   1.822   8.517  0.0685 -0.1114 -0.0081
 2693TIP3    H129714   5.943   1.887   8.540  1.8728  0.7306  3.5293
 2693TIP3    H229715   5.982   1.742   8.563 -0.2674 -0.8462 -1.4266
 2694TIP3   OH229716   2.282   1.783   2.668  0.4881 -0.3193 -0.5569
 2694TIP3    H129717   2.350   1.773   2.602 -0.1935  0.4699 -1.4103
 2694TIP3    H229718   2.201   1.758   2.623  0.3610 -2.9113  0.9231
 2695TIP3   OH229719   0.882   3.044   7.989 -0.1360 -0.4134 -0.0205
 2695TIP3    H129720   0.967   3.073   8.023  0.2258 -1.0209 -0.3863
 2695TIP3    H229721   0.866   2.961   8.033 -0.8869  0.0276  0.5740
 2696TIP3   OH229722   0.414   1.738   7.365 -0.1217 -0.0305 -0.0580
 2696TIP3    H129723   0.432   1.652   7.402  0.1023 -0.7686 -1.8202
 2696TIP3    H229724   0.474   1.797   7.412 -0.6674 -0.6943  1.5528
 2697TIP3   OH229725   6.273   0.521   8.016  0.2749 -0.2387 -0.1331
 2697TIP3    H129726   6.298   0.448   7.960 -1.1245 -0.3911 -0.5998
 2697TIP3    H229727   6.190   0.553   7.979 -0.1180  0.3673  1.1868
 2698TIP3   OH229728   5.498   2.275   6.527  0.4580 -0.0990 -0.0199
 2698TIP3    H129729   5.464   2.337   6.592  1.0113  0.5591 -0.3437
 2698TIP3    H229730   5.425   2.261   6.467  0.3355  0.2665  0.0412
 2699TIP3   OH229731   2.222   1.055   7.431 -0.1880  0.0722  0.0139
 2699TIP3    H129732   2.182   1.089   7.511  1.8079 -1.9196  2.0144
 2699TIP3    H229733   2.156   0.995   7.395 -0.7100  0.1813  0.7692
 2700TIP3   OH229734   2.283   3.686   8.613  0.2330 -0.2516  0.0623
 2700TIP3    H129735   2.225   3.613   8.635  0.2546 -0.4564 -0.5519
 2700TIP3    H229736   2.349   3.685   8.682  0.3876 -0.9817 -0.0845
 2701TIP3   OH229737   3.772   6.170   2.322 -0.5623 -0.1957 -0.3612
 2701TIP3    H129738   3.832   6.227   2.273  0.1378 -0.7889 -0.2106
 2701TIP3    H229739   3.829   6.124   2.384 -1.4792  0.9390  1.4180
 2702TIP3   OH229740   1.306   2.002   1.019  0.0847  0.3726 -0.2320
 2702TIP3    H129741   1.399   1.988   1.037  0.0206  0.2981  0.0487
 2702TIP3    H229742   1.286   1.942   0.947 -0.0700 -0.6275  0.6336
 2703TIP3   OH229743   1.993   4.241   7.667 -0.3888 -0.0562  0.1811
 2703TIP3    H129744   1.909   4.270   7.704  0.6045  0.7601  1.9123
 2703TIP3    H229745   2.056   4.307   7.696  0.8276 -0.4795 -1.3551
 2704TIP3   OH229746   5.567   6.690   0.284 -0.1485 -0.4249  0.3001
 2704TIP3    H129747   5.581   6.784   0.269 -1.5966 -0.0208  1.2208
 2704TIP3    H229748   5.500   6.687   0.352 -0.1085 -2.1460  0.3030
 2705TIP3   OH229749   3.538   1.337   1.759  0.3022 -0.2371  0.7739
 2705TIP3    H129750   3.589   1.416   1.778  1.2862 -0.8298  0.6675
 2705TIP3    H229751   3.462   1.369   1.711  1.2936  0.5245 -0.3275
 2706TIP3   OH229752   4.381   3.565   8.045  0.0578 -0.2815  0.6288
 2706TIP3    H129753   4.388   3.511   8.123 -0.7367  0.7262  1.4198
 2706TIP3    H229754   4.287   3.577   8.032  0.2112  0.9945  0.5449
 2707TIP3   OH229755   5.522   3.627   8.307 -0.1589 -0.7694  0.4977
 2707TIP3    H129756   5.462   3.662   8.242  0.1449 -1.4976 -0.1955
 2707TIP3    H229757   5.591   3.585   8.256  1.4582  0.8161  1.2273
 2708TIP3   OH229758   2.809   3.132   1.756 -0.7025  0.4066 -0.3966
 2708TIP3    H129759   2.718   3.126   1.786  0.4323  2.0599  4.2893
 2708TIP3    H229760   2.830   3.225   1.764  1.8105 -0.1522  0.3871
 2709TIP3   OH229761   4.001   3.281   8.137  0.1889  0.1339 -0.0228
 2709TIP3    H129762   3.930   3.288   8.073 -0.4906  0.6573  0.7719
 2709TIP3    H229763   4.081   3.285   8.085 -0.3194  2.0619 -0.7207
 2710TIP3   OH229764   3.949   5.193   0.345 -0.8022 -0.0017 -0.0982
 2710TIP3    H129765   4.001   5.114   0.330  1.0591  1.5026 -2.1836
 2710TIP3    H229766   3.885   5.193   0.274 -3.0947 -1.2482  1.8088
 2711TIP3   OH229767   0.297   5.931   1.961 -0.0466 -0.5180  0.2295
 2711TIP3    H129768   0.207   5.899   1.971  0.0691 -0.5984  1.0679
 2711TIP3    H229769   0.294   6.021   1.994 -0.1852  0.0769 -1.3350
 2712TIP3   OH229770   4.626   4.260   0.995  0.0335 -0.5276 -0.0319
 2712TIP3    H129771   4.658   4.294   0.911 -1.5817 -2.1489 -1.4013
 2712TIP3    H229772   4.690   4.290   1.059  0.9612  1.3651 -1.7324
 2713TIP3   OH229773   6.387   0.855   0.512  0.8690 -0.0552  0.2034
 2713TIP3    H129774   6.303   0.860   0.558  1.1085  1.9067  0.5513
 2713TIP3    H229775   6.449   0.828   0.579  0.6710 -0.5767  0.1788
 2714TIP3   OH229776   4.544   5.491   0.652  0.0904 -0.1164  0.4567
 2714TIP3    H129777   4.605   5.552   0.693 -0.0996  0.6484 -0.3710
 2714TIP3    H229778   4.598   5.414   0.632  0.8331  0.5736 -0.3312
 2715TIP3   OH229779   5.324   6.389   8.025 -0.1115  0.6306 -0.0836
 2715TIP3    H129780   5.375   6.324   8.072  1.0598  1.2893 -0.3985
 2715TIP3    H229781   5.297   6.452   8.093 -0.8023  0.1175  0.1329
 2716TIP3   OH229782   4.296   5.173   8.461  0.3170  0.1272 -0.2651
 2716TIP3    H129783   4.246   5.252   8.482 -0.2778 -0.0892 -0.8293
 2716TIP3    H229784   4.300   5.171   8.366  2.4512  0.7686 -0.2461
 2717TIP3   OH229785   3.895   5.388   2.788  0.2780  0.4190  0.4364
 2717TIP3    H129786   3.817   5.343   2.756  1.4847 -0.5945 -1.3222
 2717TIP3    H229787   3.903   5.465   2.731  0.6411  0.4066  0.4649
 2718TIP3   OH229788   3.704   1.152   1.648 -0.2746 -0.4309  0.6095
 2718TIP3    H129789   3.714   1.068   1.692 -0.0153  0.4359  2.2848
 2718TIP3    H229790   3.623   1.189   1.683 -1.0734 -0.4982 -1.0587
 2719TIP3   OH229791   6.739   5.884   8.009  0.0719  0.6735  0.4409
 2719TIP3    H129792   6.719   5.818   8.075 -0.2810 -0.1828 -0.5093
 2719TIP3    H229793   6.803   5.942   8.051 -0.0599  0.0711  1.4814
 2720TIP3   OH229794   4.894   2.167   1.053 -0.2603  0.4374  0.4167
 2720TIP3    H129795   4.909   2.078   1.023 -1.4201  0.2860  0.2689
 2720TIP3    H229796   4.961   2.219   1.008 -0.1924 -0.2040 -0.2279
 2721TIP3   OH229797   4.821   5.156   2.688  0.0938  0.0770  0.4394
 2721TIP3    H129798   4.831   5.097   2.614 -0.7658  0.7938 -0.2700
 2721TIP3    H229799   4.872   5.115   2.758 -1.0209 -1.8827  0.1949
 2722TIP3   OH229800   5.346   3.401   7.683  0.4741 -0.0221  0.2623
 2722TIP3    H129801   5.357   3.309   7.707  1.9963  0.0025 -0.2733
 2722TIP3    H229802   5.383   3.409   7.596 -0.3266  0.9629 -0.0191
 2723TIP3   OH229803   0.285   5.270   3.215  0.1650  0.1499 -0.6389
 2723TIP3    H129804   0.381   5.273   3.217  0.2409 -1.1733 -1.2533
 2723TIP3    H229805   0.258   5.356   3.247  1.5392  0.0685  0.9029
 2724TIP3   OH229806   5.588   1.183   0.572 -0.0353 -0.4523 -0.6663
 2724TIP3    H129807   5.646   1.155   0.642 -1.5534  1.2487  1.4115
 2724TIP3    H229808   5.616   1.272   0.552 -1.4515  0.1626 -0.0740
 2725TIP3   OH229809   3.202   4.355   1.721 -0.1593  0.2434 -0.3175
 2725TIP3    H129810   3.221   4.374   1.629  0.4957  2.1327  0.1593
 2725TIP3    H229811   3.108   4.340   1.724 -0.3769  1.3408 -1.1459
 2726TIP3   OH229812   4.645   0.513   2.206  0.6247  0.8319  0.1643
 2726TIP3    H129813   4.589   0.525   2.283  1.9241 -0.1362  1.3062
 2726TIP3    H229814   4.632   0.421   2.182 -2.4488  1.8536 -3.0241
 2727TIP3   OH229815   1.389   3.539   7.468  0.1369 -0.1160 -0.3456
 2727TIP3    H129816   1.404   3.626   7.430  0.7568  0.1643  0.5197
 2727TIP3    H229817   1.347   3.490   7.397 -0.6859  1.0321 -0.6923
 2728TIP3   OH229818   6.621   5.013   2.430 -0.8548  0.4960 -0.1750
 2728TIP3    H129819   6.695   5.058   2.390  0.8729 -2.4577 -0.6055
 2728TIP3    H229820   6.660   4.960   2.499 -2.1131 -2.8280 -1.7920
 2729TIP3   OH229821   1.214   4.591   2.147  0.0810  0.3032  0.3650
 2729TIP3    H129822   1.118   4.599   2.146  0.2198  2.6820 -1.1070
 2729TIP3    H229823   1.239   4.598   2.055  1.7373  0.7321  0.8195
 2730TIP3   OH229824   5.723   3.500   8.124  0.5983 -0.0068 -0.1285
 2730TIP3    H129825   5.712   3.406   8.111  1.0246 -0.0662 -0.0476
 2730TIP3    H229826   5.693   3.539   8.041 -0.6079 -0.1428  0.2253
 2731TIP3   OH229827   4.445   3.370   8.249  0.1128  0.0132 -0.1464
 2731TIP3    H129828   4.521   3.348   8.302  0.5239  0.0892 -0.6926
 2731TIP3    H229829   4.373   3.377   8.311  0.5775  0.0645  0.3927
 2732TIP3   OH229830   6.834   1.942   7.648  0.1043  1.3911 -0.1039
 2732TIP3    H129831   6.807   1.943   7.556  0.7003  0.3644 -0.3123
 2732TIP3    H229832   6.816   1.852   7.677  2.0172  1.0177  0.0973
 2733TIP3   OH229833   5.422   2.674   2.270 -0.0648 -0.0062  0.3111
 2733TIP3    H129834   5.438   2.592   2.317 -1.5580 -0.2476  0.4465
 2733TIP3    H229835   5.469   2.740   2.320  0.0159 -0.5754  1.0002
 2734TIP3   OH229836   1.171   4.161   0.074 -0.3089 -0.3046  0.8227
 2734TIP3    H129837   1.219   4.244   0.084  2.0671 -1.6202  1.0031
 2734TIP3    H229838   1.126   4.149   0.157  1.3058 -0.3428  1.7265
 2735TIP3   OH229839   5.082   6.005   0.894  0.6835  0.5513 -0.7084
 2735TIP3    H129840   5.098   6.052   0.976  0.2251  0.0379 -0.3134
 2735TIP3    H229841   5.017   5.938   0.917  1.3276 -0.2836 -1.2440
 2736TIP3   OH229842   4.968   4.381   0.920  0.1848  0.5542  0.5532
 2736TIP3    H129843   5.015   4.462   0.900  2.2049 -0.8753 -0.9441
 2736TIP3    H229844   5.037   4.316   0.934 -1.2913 -1.5769 -1.2261
 2737TIP3   OH229845   6.636   6.267   8.506 -0.3594  0.4989  0.2942
 2737TIP3    H129846   6.673   6.276   8.418  0.9000  0.5294  0.8057
 2737TIP3    H229847   6.623   6.358   8.536 -1.9938  0.5037 -0.3165
 2738TIP3   OH229848   4.090   5.816   2.135 -0.2773  0.0939  0.0443
 2738TIP3    H129849   4.015   5.821   2.194  0.7592  0.2394  1.4033
 2738TIP3    H229850   4.058   5.766   2.060 -1.6153 -0.1741  0.7591
 2739TIP3   OH229851   2.180   0.928   8.560  0.0179  0.3846 -0.1575
 2739TIP3    H129852   2.274   0.942   8.559 -0.0077  0.5968  0.3022
 2739TIP3    H229853   2.149   0.967   8.478  0.1213  1.8718  0.4770
 2740TIP3   OH229854   2.502   4.791   7.411  0.2032  0.0321 -0.2015
 2740TIP3    H129855   2.561   4.826   7.344 -0.0362  0.8565  0.0074
 2740TIP3    H229856   2.424   4.765   7.363 -0.0162  0.7324 -0.2399
 2741TIP3   OH229857   5.708   4.118   7.032 -0.0891 -0.3797 -0.0555
 2741TIP3    H129858   5.690   4.186   6.967  0.4948  1.0612  1.2297
 2741TIP3    H229859   5.786   4.073   6.998 -0.2079 -0.1177 -0.6947
 2742TIP3   OH229860   1.999   4.146   0.138  0.0695  0.7488  0.2556
 2742TIP3    H129861   2.045   4.094   0.072 -0.5981  0.7372 -0.2130
 2742TIP3    H229862   1.917   4.098   0.153  0.0736  0.9260  0.8498
 2743TIP3   OH229863   4.467   3.043   8.382  0.1890 -0.4117  0.3007
 2743TIP3    H129864   4.384   3.009   8.348  1.0142 -1.5454 -0.6436
 2743TIP3    H229865   4.454   3.046   8.477 -1.1515  0.0797  0.1352
 2744TIP3   OH229866   6.723   4.993   1.346 -0.0779 -0.2025 -0.1141
 2744TIP3    H129867   6.749   5.003   1.438  0.1247  1.6493 -0.3445
 2744TIP3    H229868   6.802   4.961   1.302 -0.1893 -1.1432  0.3456
 2745TIP3   OH229869   1.935   4.335   8.653 -0.4717  0.0246 -0.2154
 2745TIP3    H129870   2.028   4.317   8.665 -0.3417  0.4985 -0.5033
 2745TIP3    H229871   1.897   4.318   8.739  0.1176  1.2961  0.3201
 2746TIP3   OH229872   1.625   0.593   1.596 -0.1155 -0.2021  0.2673
 2746TIP3    H129873   1.621   0.619   1.504 -1.3189  0.9819  0.6317
 2746TIP3    H229874   1.716   0.610   1.622 -0.2854  1.4228 -0.1551
 2747TIP3   OH229875   4.183   0.053   1.844  0.3937  0.0854  0.0834
 2747TIP3    H129876   4.159   0.135   1.802 -0.6262 -0.7588 -1.0768
 2747TIP3    H229877   4.175   0.070   1.938 -1.7947  0.7733 -0.1573
 2748TIP3   OH229878   0.728   3.657   2.706 -0.5551 -0.3139  0.3127
 2748TIP3    H129879   0.808   3.679   2.659 -2.0585 -0.0155 -2.3345
 2748TIP3    H229880   0.748   3.673   2.798  1.8683  1.3325 -0.4147
 2749TIP3   OH229881   1.179   5.020   7.863 -0.0804 -0.3505  0.1715
 2749TIP3    H129882   1.244   5.089   7.849  1.6908 -1.3103  2.8677
 2749TIP3    H229883   1.099   5.067   7.885  0.0305  0.8381 -1.7205
 2750TIP3   OH229884   6.206   3.491   0.359 -0.3390 -0.6626  0.0155
 2750TIP3    H129885   6.170   3.407   0.388 -0.0906 -0.2915  1.4892
 2750TIP3    H229886   6.138   3.555   0.379  0.1381 -0.2930  0.4758
 2751TIP3   OH229887   4.667   4.602   8.556  0.4238  0.0695  0.3305
 2751TIP3    H129888   4.699   4.599   8.466 -0.2246  1.8133 -0.0055
 2751TIP3    H229889   4.723   4.542   8.604 -0.2027 -2.1311 -1.5153
 2752TIP3   OH229890   2.764   1.623   1.394  0.2312  0.0368  0.0286
 2752TIP3    H129891   2.780   1.533   1.423  2.8046  0.4329  0.1010
 2752TIP3    H229892   2.790   1.677   1.469 -0.3656  0.8636 -0.3503
 2753TIP3   OH229893   1.110   3.139   0.044 -0.0322  0.1447  0.4665
 2753TIP3    H129894   1.037   3.182   0.090 -2.4882 -1.1157 -1.9594
 2753TIP3    H229895   1.121   3.056   0.089  0.2101  0.5032  1.0864
 2754TIP3   OH229896   1.360   5.202   6.749  0.3221  0.2227 -0.2608
 2754TIP3    H129897   1.425   5.158   6.695 -0.7006 -1.9395  0.1479
 2754TIP3    H229898   1.283   5.145   6.745 -0.4453  1.0041  1.8807
 2755TIP3   OH229899   3.667   1.571   1.774 -0.3656  0.3793 -0.1782
 2755TIP3    H129900   3.656   1.665   1.787  2.0833  0.6755  0.3398
 2755TIP3    H229901   3.754   1.563   1.735 -1.5302 -1.5383 -2.6766
 2756TIP3   OH229902   1.048   2.796   1.124 -0.1897 -0.1749 -0.1040
 2756TIP3    H129903   0.956   2.773   1.135 -0.0594 -0.8324 -0.3575
 2756TIP3    H229904   1.051   2.891   1.139 -0.9087 -0.1446 -0.1249
 2757TIP3   OH229905   3.461   4.493   1.052  1.1991 -1.2652  0.3278
 2757TIP3    H129906   3.463   4.427   0.982  1.2065 -0.9315  0.0093
 2757TIP3    H229907   3.535   4.551   1.032  0.8155 -0.7953  0.2423
 2758TIP3   OH229908   1.450   5.914   0.806 -0.0193  0.5201  0.2546
 2758TIP3    H129909   1.539   5.947   0.792  1.2099 -2.4119  0.6313
 2758TIP3    H229910   1.457   5.854   0.880 -2.5912  1.0524  1.0439
 2759TIP3   OH229911   0.564   6.401   1.520  0.4273 -0.0402  0.2276
 2759TIP3    H129912   0.617   6.329   1.555 -0.4513 -0.5337  0.5735
 2759TIP3    H229913   0.477   6.388   1.558 -0.5228 -0.4564 -1.8892
 2760TIP3   OH229914   1.850   2.252   0.418  0.5511 -0.1677 -0.1379
 2760TIP3    H129915   1.865   2.284   0.507  0.2566  1.3641 -0.6100
 2760TIP3    H229916   1.934   2.263   0.374  0.5247 -0.3329 -0.2315
 2761TIP3   OH229917   0.891   0.625   1.304  0.3005  0.3548 -0.3862
 2761TIP3    H129918   0.829   0.601   1.372  2.7833  0.6358  2.1624
 2761TIP3    H229919   0.870   0.566   1.231 -2.3930 -0.0593  0.6048
 2762TIP3   OH229920   6.807   3.850   2.692 -0.1001  0.6217 -0.0503
 2762TIP3    H129921   6.856   3.884   2.617  1.7332  0.2179  0.9233
 2762TIP3    H229922   6.868   3.855   2.765 -1.0195 -1.2959  0.9186
 2763TIP3   OH229923   4.333   4.719   8.408 -0.5679  0.1336 -0.1656
 2763TIP3    H129924   4.371   4.758   8.487 -0.6357  0.8250 -0.4604
 2763TIP3    H229925   4.371   4.631   8.403  1.0839  0.8286 -0.5001
 2764TIP3   OH229926   0.082   5.415   0.537  0.0989 -0.3110 -0.4002
 2764TIP3    H129927   0.103   5.464   0.458  1.0846  0.3728  0.2511
 2764TIP3    H229928   0.160   5.363   0.555  0.8906  1.3546  1.4037
 2765TIP3   OH229929   6.117   4.371   0.470  0.1181  0.0157 -0.2573
 2765TIP3    H129930   6.156   4.294   0.511 -0.1985 -0.3658 -0.6562
 2765TIP3    H229931   6.191   4.422   0.438  0.4073  0.6953  1.4163
 2766TIP3   OH229932   4.070   5.317   3.003 -0.1545  0.7043  0.0909
 2766TIP3    H129933   4.018   5.263   3.063  0.1212  0.3919  0.0521
 2766TIP3    H229934   4.007   5.348   2.938 -0.4018  0.8080  0.3750
 2767TIP3   OH229935   0.111   5.453   0.858  0.3666 -0.0875  0.2815
 2767TIP3    H129936   0.111   5.398   0.937 -0.8078  1.2593  1.2732
 2767TIP3    H229937   0.071   5.398   0.791 -1.8058 -0.1503  1.5242
 2768TIP3   OH229938   1.817   1.424   8.159 -0.0849 -0.0987 -0.0032
 2768TIP3    H129939   1.753   1.475   8.209  0.2412  0.3890 -0.0712
 2768TIP3    H229940   1.876   1.389   8.225  0.4699  0.7204 -0.0526
 2769TIP3   OH229941   1.537   5.399   3.349  0.4652  0.5281  0.2999
 2769TIP3    H129942   1.555   5.331   3.414  0.7684 -0.6702 -0.9882
 2769TIP3    H229943   1.616   5.454   3.350  1.8524 -1.2919 -1.1760
 2770TIP3   OH229944   0.929   3.400   0.188 -0.4320  0.3506 -0.4104
 2770TIP3    H129945   0.990   3.381   0.259 -1.0079 -1.8510 -0.4034
 2770TIP3    H229946   0.843   3.402   0.230 -1.0320 -2.9393 -1.1319
 2771TIP3   OH229947   1.308   5.113   0.897  0.0083 -0.3369  0.0810
 2771TIP3    H129948   1.398   5.120   0.927  0.1886 -3.4059  0.5159
 2771TIP3    H229949   1.315   5.095   0.803 -0.0544 -2.0344  0.3838
 2772TIP3   OH229950   2.014   5.000   7.596  0.2339  0.1357  0.0956
 2772TIP3    H129951   1.943   5.030   7.540  0.6281  1.1556  0.1326
 2772TIP3    H229952   1.996   5.041   7.681  0.9791  0.5699  0.0476
 2773TIP3   OH229953   0.531   0.116   1.208 -0.0724 -0.5186  0.0886
 2773TIP3    H129954   0.535   0.066   1.290  0.3214 -1.9393 -0.7479
 2773TIP3    H229955   0.439   0.113   1.183  0.1591 -2.2524 -0.7399
 2774TIP3   OH229956   5.687   2.538   1.301 -0.1251 -0.4985 -0.1001
 2774TIP3    H129957   5.677   2.598   1.375  1.6341 -0.0739 -0.1513
 2774TIP3    H229958   5.777   2.507   1.308 -0.6099 -2.1554 -0.8310
 2775TIP3   OH229959   6.445   3.686   6.980  0.1954  0.4992  0.5851
 2775TIP3    H129960   6.515   3.641   7.027  0.9635 -0.1530 -1.1064
 2775TIP3    H229961   6.367   3.635   6.998  0.5945 -0.0882  0.6915
 2776TIP3   OH229962   3.306   0.968   2.259  0.3146  0.6728  0.2157
 2776TIP3    H129963   3.306   0.888   2.206  2.9090  0.0849  0.9837
 2776TIP3    H229964   3.387   1.013   2.234 -0.1368  2.1082  1.2142
 2777TIP3   OH229965   3.643   4.288   0.371 -0.0350  0.4998  0.2600
 2777TIP3    H129966   3.649   4.306   0.465 -0.0631 -2.4415  0.9377
 2777TIP3    H229967   3.734   4.281   0.342 -0.0120 -0.0449  0.4405
 2778TIP3   OH229968   1.857   2.281   2.243  0.3556  0.8639 -0.2572
 2778TIP3    H129969   1.783   2.221   2.250  1.2274 -0.1964  0.0706
 2778TIP3    H229970   1.842   2.347   2.310 -1.0423  1.5199 -1.1697
 2779TIP3   OH229971   0.860   1.385   7.687  0.2766 -0.1136 -0.3415
 2779TIP3    H129972   0.932   1.361   7.629  0.0452  2.1615 -1.6727
 2779TIP3    H229973   0.782   1.381   7.632 -0.2362  0.1404  0.3462
 2780TIP3   OH229974   4.588   3.456   7.243  0.4293 -0.0365 -0.0429
 2780TIP3    H129975   4.581   3.465   7.338 -2.3342 -2.3389  0.1252
 2780TIP3    H229976   4.498   3.440   7.214  1.3840 -0.8574 -2.8669
 2781TIP3   OH229977   2.642   4.686   1.010  0.0571 -0.6689  0.0475
 2781TIP3    H129978   2.734   4.665   0.996 -0.1961 -0.9916 -1.4056
 2781TIP3    H229979   2.639   4.732   1.093  1.5145 -0.7316  0.1555
 2782TIP3   OH229980   4.435   0.975   0.007  0.2266  0.6728  0.3349
 2782TIP3    H129981   4.474   0.908   0.063 -0.9288  0.4208  0.8794
 2782TIP3    H229982   4.421   1.050   0.066 -2.0351  0.0224  0.7458
 2783TIP3   OH229983   0.730   5.941   8.254  0.1499 -0.3135  0.5536
 2783TIP3    H129984   0.635   5.925   8.251  0.2160 -0.5883 -0.2891
 2783TIP3    H229985   0.753   5.927   8.346 -0.7723  0.6681  0.9583
 2784TIP3   OH229986   6.294   6.205   1.445  0.2743 -0.5339 -0.6603
 2784TIP3    H129987   6.306   6.110   1.447  2.1989 -0.3253  0.8057
 2784TIP3    H229988   6.333   6.236   1.527 -0.4232  1.5339 -1.0380
 2785TIP3   OH229989   1.905   4.502   0.435 -0.9184 -0.0812 -0.0183
 2785TIP3    H129990   1.967   4.568   0.469  0.1179 -0.1399 -1.6987
 2785TIP3    H229991   1.820   4.530   0.470 -0.0647  0.3502  1.8602
 2786TIP3   OH229992   1.383   6.481   0.364 -0.8561 -0.0247  0.0578
 2786TIP3    H129993   1.369   6.548   0.297 -0.4299  0.9647  0.9173
 2786TIP3    H229994   1.452   6.518   0.420 -0.9782 -0.9589  0.8530
 2787TIP3   OH229995   0.123   1.087   0.836  0.6237  0.5934  0.2116
 2787TIP3    H129996   0.125   1.181   0.855 -1.7392  0.8731 -0.6102
 2787TIP3    H229997   0.082   1.081   0.749 -0.6938 -1.2694  0.9062
 2788TIP3   OH229998   1.746   2.946   1.990 -0.2204 -0.3442 -0.8453
 2788TIP3    H129999   1.657   2.981   1.989 -0.4917 -1.0003 -0.1943
 2788TIP3    H230000   1.753   2.897   1.907 -0.4841 -0.3435 -0.8689
 2789TIP3   OH230001   5.819   6.102   8.355  0.0131  0.4544  0.7701
 2789TIP3    H130002   5.914   6.112   8.361  0.4828 -1.2621 -1.9144
 2789TIP3    H230003   5.783   6.179   8.400  2.6464  1.1882  1.7808
 2790TIP3   OH230004   1.065   6.760   0.691 -0.0216  0.2448  0.8921
 2790TIP3    H130005   0.983   6.798   0.722 -2.2752 -3.1209 -0.3391
 2790TIP3    H230006   1.043   6.717   0.609  3.5606  0.9350 -0.6422
 2791TIP3   OH230007   3.299   1.022   1.141  0.1029  0.3307  0.1034
 2791TIP3    H130008   3.351   1.005   1.063 -1.0518  2.5030 -1.2372
 2791TIP3    H230009   3.355   1.078   1.196  0.5809 -0.4727  0.4493
 2792TIP3   OH230010   1.420   0.753   2.560 -0.5352 -0.0931  0.0034
 2792TIP3    H130011   1.492   0.704   2.520  1.0051  0.6200  1.7322
 2792TIP3    H230012   1.419   0.837   2.514 -0.7367 -0.3707 -0.5008
 2793TIP3   OH230013   0.462   2.913   0.900 -0.2275  0.3771 -0.3567
 2793TIP3    H130014   0.369   2.930   0.917 -0.2675 -1.0891  1.2567
 2793TIP3    H230015   0.504   2.999   0.906 -1.3454  0.9288 -0.1201
 2794TIP3   OH230016   4.110   5.375   8.507  0.2194 -0.1672 -0.3050
 2794TIP3    H130017   4.132   5.411   8.422 -1.9390 -0.0082 -0.8520
 2794TIP3    H230018   4.049   5.437   8.545 -1.8121 -2.0533 -0.2950
 2795TIP3   OH230019   0.598   0.025   1.754  0.3327 -0.5734  0.4308
 2795TIP3    H130020   0.615   0.082   1.829  0.2830  0.8488 -0.6048
 2795TIP3    H230021   0.537  -0.041   1.788 -0.8043  0.8625  1.2976
 2796TIP3   OH230022   3.817   3.478   0.350  0.0464  0.3399 -0.0830
 2796TIP3    H130023   3.880   3.429   0.403  0.0787 -2.1689 -2.2190
 2796TIP3    H230024   3.732   3.444   0.376 -0.0412  0.2161 -0.5176
 2797TIP3   OH230025   3.634   6.128   7.579 -0.5567  0.0517  0.1079
 2797TIP3    H130026   3.650   6.222   7.571 -1.0284  0.1364  0.1246
 2797TIP3    H230027   3.601   6.102   7.493  2.4271 -0.7051 -0.9269
 2798TIP3   OH230028   0.294   2.122   0.989 -0.4574 -0.1824 -0.0906
 2798TIP3    H130029   0.311   2.032   0.961  0.2109 -0.0166 -0.2262
 2798TIP3    H230030   0.259   2.166   0.911  0.2780 -0.0353 -0.3473
 2799TIP3   OH230031   5.712   1.012   2.166 -0.0188 -0.2317 -0.6580
 2799TIP3    H130032   5.708   0.945   2.234  1.3032  0.2156 -0.1209
 2799TIP3    H230033   5.626   1.006   2.122 -0.7307 -0.8148  0.7538
 2800TIP3   OH230034   2.334   5.379   1.339  0.8766  0.0632 -0.3242
 2800TIP3    H130035   2.251   5.427   1.334  2.1931  2.5081 -0.2114
 2800TIP3    H230036   2.325   5.327   1.419 -0.7923 -0.2367 -0.6626
 2801TIP3   OH230037   3.736   4.981   8.342  0.2572  0.4931 -0.7546
 2801TIP3    H130038   3.783   4.930   8.275 -0.8213  0.3501 -1.4279
 2801TIP3    H230039   3.798   4.989   8.414  1.0235 -0.3859 -1.2940
 2802TIP3   OH230040   0.900   1.751   0.759 -0.4849  0.1545 -0.1177
 2802TIP3    H130041   0.825   1.760   0.701  0.6764 -0.2224 -1.7539
 2802TIP3    H230042   0.970   1.800   0.716  0.6850 -0.9624  0.4329
 2803TIP3   OH230043   0.785   4.717   1.475 -0.6642  0.6504  0.3469
 2803TIP3    H130044   0.838   4.741   1.399 -0.6013 -0.0200  0.1671
 2803TIP3    H230045   0.815   4.775   1.545  2.3498 -1.4778  1.0423
 2804TIP3   OH230046   4.872   4.422   7.730  0.5984  0.2741 -0.9110
 2804TIP3    H130047   4.951   4.453   7.686  0.8263  1.1500  0.0733
 2804TIP3    H230048   4.804   4.485   7.704 -0.1819 -1.3035 -2.9491
 2805TIP3   OH230049   3.929   1.060   1.186  0.3625  0.3713  0.0191
 2805TIP3    H130050   3.845   1.087   1.224  0.5265  1.7443 -0.5393
 2805TIP3    H230051   3.911   1.051   1.093  0.7492  0.3143 -0.0510
 2806TIP3   OH230052   2.113   2.834   1.835 -0.1212  0.3785  0.0371
 2806TIP3    H130053   2.116   2.823   1.740 -0.5943  0.3432  0.0266
 2806TIP3    H230054   2.037   2.784   1.863 -0.4790  1.0784  0.3366
 2807TIP3   OH230055   3.423   2.203   7.085 -0.1876 -0.4141 -0.0854
 2807TIP3    H130056   3.347   2.231   7.135  1.1280  0.6408  1.4208
 2807TIP3    H230057   3.496   2.254   7.121  1.1804 -1.1086 -1.7162
 2808TIP3   OH230058   2.357   2.308   7.661  0.1185 -0.2558 -0.4101
 2808TIP3    H130059   2.331   2.370   7.593  0.4176  1.7960  1.2342
 2808TIP3    H230060   2.277   2.296   7.714  0.3041 -0.5488 -0.1912
 2809TIP3   OH230061   6.551   1.810   7.192  0.3065 -0.2805  0.1394
 2809TIP3    H130062   6.511   1.886   7.149 -0.1613 -0.4593  0.2517
 2809TIP3    H230063   6.638   1.803   7.152 -0.1687 -0.5192 -0.8695
 2810TIP3   OH230064   4.480   5.423   1.638  0.1287  0.0691  0.4944
 2810TIP3    H130065   4.395   5.462   1.659 -0.6459 -1.2842  0.0195
 2810TIP3    H230066   4.458   5.340   1.594  1.6963 -0.2158  0.1922
 2811TIP3   OH230067   4.046   5.722   0.593  0.1925 -0.0885  0.2390
 2811TIP3    H130068   4.079   5.785   0.529 -1.1448 -0.0552 -0.4378
 2811TIP3    H230069   4.125   5.676   0.624  1.3876  2.7421  1.7530
 2812TIP3   OH230070   1.250   1.385   3.228  0.4707  0.4956  0.4987
 2812TIP3    H130071   1.299   1.418   3.153 -1.1166  0.3342 -0.6594
 2812TIP3    H230072   1.257   1.290   3.221 -2.1842  0.3268 -1.3108
 2813TIP3   OH230073   1.744   5.877   1.147  0.1131  0.2135 -0.1093
 2813TIP3    H130074   1.752   5.837   1.060  0.5537 -0.3057  0.1593
 2813TIP3    H230075   1.787   5.814   1.206  0.6506  0.9974  0.3550
 2814TIP3   OH230076   5.769   2.985   1.633 -0.0614  0.6449  0.0443
 2814TIP3    H130077   5.820   2.975   1.552 -2.1651 -0.9173 -1.1919
 2814TIP3    H230078   5.724   3.069   1.622 -0.0161  0.6338 -0.2381
 2815TIP3   OH230079   2.609   0.581   7.277  0.0302 -0.4086  0.3623
 2815TIP3    H130080   2.572   0.525   7.209 -1.6515  2.5405 -1.3313
 2815TIP3    H230081   2.551   0.568   7.352 -1.1232 -0.0028 -0.4382
 2816TIP3   OH230082   2.809   3.780   8.667  0.1833  0.2774  0.2302
 2816TIP3    H130083   2.757   3.707   8.635 -1.0575  0.6921  1.1919
 2816TIP3    H230084   2.763   3.858   8.636  0.7279  0.6473  0.3418
 2817TIP3   OH230085   3.083   6.774   0.297  0.0059  0.0380 -0.0919
 2817TIP3    H130086   3.005   6.829   0.288 -0.4411 -0.4848  0.4963
 2817TIP3    H230087   3.155   6.830   0.267 -0.3849  1.0871  0.8150
 2818TIP3   OH230088   6.483   2.868   6.911 -0.1625  0.3737 -0.5399
 2818TIP3    H130089   6.567   2.822   6.907 -0.1384  0.3882 -0.2404
 2818TIP3    H230090   6.465   2.877   7.004 -0.9122 -0.3709 -0.6092
 2819TIP3   OH230091   5.037   6.291   2.138 -0.4396  0.0526  0.1031
 2819TIP3    H130092   5.088   6.223   2.183 -0.2343  1.4672  2.1225
 2819TIP3    H230093   4.987   6.333   2.208 -1.9516  0.8188 -1.3773
 2820TIP3   OH230094   3.161   0.015   0.699  0.1852  0.4336  0.6968
 2820TIP3    H130095   3.099   0.052   0.636  0.7036  0.1955  0.0383
 2820TIP3    H230096   3.190   0.089   0.751  0.0921  0.7059  0.3624
 2821TIP3   OH230097   5.730   4.101   0.950 -0.1318  0.0782 -0.4354
 2821TIP3    H130098   5.752   4.192   0.930  0.6890  0.7559  2.9384
 2821TIP3    H230099   5.641   4.106   0.985  0.6739  0.0373  1.8087
 2822TIP3   OH230100   5.965   2.685   8.605 -0.5882  0.2331 -0.0473
 2822TIP3    H130101   6.056   2.682   8.635 -0.8535 -0.8907  0.7367
 2822TIP3    H230102   5.960   2.762   8.549  0.6674  0.7107  0.4714
 2823TIP3   OH230103   4.355   6.833   7.695  0.0352 -0.3410 -0.6190
 2823TIP3    H130104   4.283   6.799   7.643  0.2274 -1.4144 -0.1988
 2823TIP3    H230105   4.432   6.783   7.666  0.1455 -0.9726  0.6768
 2824TIP3   OH230106   4.851   0.893   7.965 -0.4377 -0.3535 -0.0378
 2824TIP3    H130107   4.861   0.925   8.055  0.7023  0.2840 -0.3743
 2824TIP3    H230108   4.773   0.938   7.933  0.8090  1.7487 -0.3156
 2825TIP3   OH230109   5.640   3.556   2.161  0.1794 -0.2579 -0.0540
 2825TIP3    H130110   5.551   3.537   2.190  0.0560 -0.0718 -0.3090
 2825TIP3    H230111   5.660   3.642   2.197  0.0409 -0.0443 -0.4771
 2826TIP3   OH230112   0.652   1.891   1.138 -0.2351 -0.1896  0.0429
 2826TIP3    H130113   0.611   1.805   1.150 -2.1744  0.7514  0.4637
 2826TIP3    H230114   0.635   1.938   1.220  0.5823  0.6813 -0.2700
 2827TIP3   OH230115   0.329   1.845   1.804  0.7819  0.3994 -0.1590
 2827TIP3    H130116   0.340   1.937   1.778  1.7044  0.0186 -1.1772
 2827TIP3    H230117   0.240   1.823   1.775  0.8532  0.7435 -0.6583
 2828TIP3   OH230118   3.157   4.352   8.669  0.0037  0.4891  0.1307
 2828TIP3    H130119   3.195   4.397   8.744  1.0986 -0.2801  0.0556
 2828TIP3    H230120   3.180   4.406   8.594  0.0720  0.5530  0.1975
 2829TIP3   OH230121   0.679   5.794   1.383  0.0624  0.0069  0.1197
 2829TIP3    H130122   0.693   5.701   1.397 -0.7799 -0.0690  0.5505
 2829TIP3    H230123   0.738   5.837   1.445  0.1331 -0.2441  0.2275
 2830TIP3   OH230124   5.926   0.743   1.701  0.3343  0.6568 -0.1247
 2830TIP3    H130125   5.860   0.762   1.635 -0.8707 -0.8826  0.5708
 2830TIP3    H230126   5.889   0.776   1.783  0.1539 -0.6849  0.3604
 2831TIP3   OH230127   1.129   0.145   1.761  0.3749 -0.0054  0.1985
 2831TIP3    H130128   1.052   0.091   1.777 -0.0929  0.6554  0.2090
 2831TIP3    H230129   1.109   0.228   1.804  0.2178  0.8862 -1.5276
 2832TIP3   OH230130   3.954   0.109   0.990 -0.0177  0.4932 -0.2154
 2832TIP3    H130131   3.878   0.051   0.999  1.0981 -0.7738  1.8002
 2832TIP3    H230132   3.972   0.138   1.079  1.7907  0.8670 -0.6713
 2833TIP3   OH230133   5.265   5.696   0.964  0.4308 -0.1787  0.0563
 2833TIP3    H130134   5.202   5.650   1.020  1.0876 -4.9026 -2.5531
 2833TIP3    H230135   5.220   5.708   0.881  2.0881 -1.5035 -1.1194
 2834TIP3   OH230136   2.249   6.583   8.265 -0.5435  0.0793 -0.1289
 2834TIP3    H130137   2.314   6.541   8.322 -1.7023  0.6718  1.7451
 2834TIP3    H230138   2.208   6.511   8.218 -1.1464 -0.7520  1.5691
 2835TIP3   OH230139   2.588   4.557   0.773  0.1680  0.0323 -0.1407
 2835TIP3    H130140   2.513   4.505   0.802 -0.1046  0.2022 -0.5316
 2835TIP3    H230141   2.622   4.596   0.853  0.4709 -0.8703  0.1807
 2836TIP3   OH230142   6.489   2.553   7.133 -0.0699 -0.3737 -0.5107
 2836TIP3    H130143   6.540   2.614   7.187  0.0305  0.2625 -1.3014
 2836TIP3    H230144   6.429   2.609   7.084 -2.8510 -1.2279  1.6816
 2837TIP3   OH230145   3.206   4.332   0.671  0.4978  0.3592  0.1567
 2837TIP3    H130146   3.171   4.293   0.592 -1.1574  0.5375  0.7588
 2837TIP3    H230147   3.166   4.419   0.675  0.7304  0.4380  1.0538
 2838TIP3   OH230148   5.316   5.905   2.263  0.3179 -0.2146 -0.6270
 2838TIP3    H130149   5.238   5.870   2.308 -0.1117 -0.2871 -1.4075
 2838TIP3    H230150   5.388   5.854   2.299 -0.0368 -0.4009 -0.1566
 2839TIP3   OH230151   2.899   6.125   2.239 -0.0750 -0.6444 -0.1955
 2839TIP3    H130152   2.901   6.030   2.247 -0.4792 -0.5528  1.2528
 2839TIP3    H230153   2.905   6.157   2.329  0.2178  0.7101 -0.6701
 2840TIP3   OH230154   4.060   5.889   0.813 -0.5398 -0.0445  0.3391
 2840TIP3    H130155   4.025   5.851   0.733  1.6081  0.4550 -0.8996
 2840TIP3    H230156   4.130   5.830   0.840 -1.2010 -0.1944  1.8886
 2841TIP3   OH230157   6.185   1.883   1.077  0.3912  0.2253 -0.0389
 2841TIP3    H130158   6.151   1.797   1.054 -0.9918  0.5646  0.6225
 2841TIP3    H230159   6.234   1.869   1.158 -0.3748  0.1496  0.4236
 2842TIP3   OH230160   5.486   0.626   8.235  0.0951 -0.1136 -0.2899
 2842TIP3    H130161   5.447   0.589   8.156 -0.3392  0.4388 -0.3458
 2842TIP3    H230162   5.549   0.560   8.265  0.1352 -0.4043 -0.9950
 2843TIP3   OH230163   3.752   2.197   8.124  0.3617  0.6212  0.0312
 2843TIP3    H130164   3.665   2.232   8.143  0.8110  1.3659  0.7518
 2843TIP3    H230165   3.806   2.227   8.197  1.9112  2.6443 -1.8475
 2844TIP3   OH230166   5.367   4.600   8.479  0.5061 -0.1881  0.0091
 2844TIP3    H130167   5.354   4.684   8.434 -2.5344 -0.1182  0.7824
 2844TIP3    H230168   5.335   4.535   8.416 -0.9419 -0.3474  0.8549
 2845TIP3   OH230169   0.153   0.689   0.598 -0.4965  0.3709  0.3128
 2845TIP3    H130170   0.164   0.702   0.504 -0.9448 -0.0489  0.1946
 2845TIP3    H230171   0.192   0.603   0.615 -2.4718 -0.6521  0.0709
 2846TIP3   OH230172   1.376   0.473   1.685  0.0006  0.0022 -0.1804
 2846TIP3    H130173   1.460   0.496   1.646 -1.0014  0.1863 -2.4196
 2846TIP3    H230174   1.396   0.451   1.776  2.2045  1.5809 -0.2154
 2847TIP3   OH230175   2.562   3.062   2.312  0.4027  0.1683  0.1217
 2847TIP3    H130176   2.615   3.061   2.392 -1.9762  2.9000  1.9512
 2847TIP3    H230177   2.496   2.994   2.327  0.3180  0.2668  0.1938
 2848TIP3   OH230178   2.877   1.172   8.455 -0.1593  0.2915 -0.8984
 2848TIP3    H130179   2.877   1.181   8.550 -2.2310 -1.9339 -0.6011
 2848TIP3    H230180   2.946   1.108   8.437 -0.2082  0.2202 -0.8311
 2849TIP3   OH230181   6.434   2.349   8.637 -0.3816 -0.7139 -0.4709
 2849TIP3    H130182   6.509   2.405   8.620 -0.2812 -1.0921 -1.3699
 2849TIP3    H230183   6.363   2.389   8.588 -0.6492 -0.6237 -0.0128
 2850TIP3   OH230184   0.002   3.558   1.656 -0.6747  0.3847  0.4881
 2850TIP3    H130185   0.027   3.467   1.670 -0.1755  0.1930 -1.3115
 2850TIP3    H230186  -0.012   3.564   1.561 -0.4883  2.2201  0.5391
 2851TIP3   OH230187   0.725   1.321   8.116  0.3120 -0.2312 -0.7991
 2851TIP3    H130188   0.633   1.328   8.141  0.2707  0.3253 -1.1031
 2851TIP3    H230189   0.734   1.232   8.081  0.0000 -0.4481 -0.3330
 2852TIP3   OH230190   3.644   2.875   1.819  0.7230  0.0151 -0.0151
 2852TIP3    H130191   3.564   2.856   1.868  1.5472  0.6768  1.6562
 2852TIP3    H230192   3.615   2.926   1.744 -0.5950 -1.0970 -0.2999
 2853TIP3   OH230193   2.624   0.261   0.373 -0.5756  0.4738 -0.4681
 2853TIP3    H130194   2.613   0.257   0.468  1.4863  1.0200 -0.1586
 2853TIP3    H230195   2.537   0.242   0.338 -1.4429  0.5420  1.5211
 2854TIP3   OH230196   1.202   1.384   2.860  0.7078  0.3480  0.4115
 2854TIP3    H130197   1.130   1.439   2.890  0.0227 -0.0605 -0.4370
 2854TIP3    H230198   1.271   1.397   2.924 -0.2653  0.4382  1.4687
 2855TIP3   OH230199   4.356   4.006   7.908  0.3819 -0.2272 -0.1371
 2855TIP3    H130200   4.330   4.074   7.971 -0.1323  0.9995 -1.5922
 2855TIP3    H230201   4.435   3.967   7.945  0.6484  1.1262  0.7830
 2856TIP3   OH230202   3.719   0.082   2.592  0.2214  1.0296  0.0017
 2856TIP3    H130203   3.782   0.011   2.605 -1.2976 -0.9885 -2.7740
 2856TIP3    H230204   3.769   0.161   2.613  2.5487 -0.6776  1.4174
 2857TIP3   OH230205   1.810   3.715   2.232 -0.1701  0.0618 -0.6855
 2857TIP3    H130206   1.845   3.647   2.289 -1.4649 -1.2018 -1.3316
 2857TIP3    H230207   1.768   3.777   2.291 -0.4315 -0.5794 -0.1896
 2858TIP3   OH230208   2.883   2.744   0.957  0.4476  0.2264  0.0478
 2858TIP3    H130209   2.844   2.789   0.883  3.1547  2.1053 -0.3718
 2858TIP3    H230210   2.929   2.670   0.918  1.8829  1.2221 -0.2311
 2859TIP3   OH230211   1.255   2.381   0.236 -0.1127 -0.2957  0.0012
 2859TIP3    H130212   1.287   2.296   0.267 -0.5087 -0.6296 -0.4857
 2859TIP3    H230213   1.181   2.359   0.179 -1.4583  0.4676  1.3935
 2860TIP3   OH230214   0.205   1.378   6.910  0.5955 -0.0022 -0.9538
 2860TIP3    H130215   0.278   1.441   6.914  2.6924 -2.2986  2.8186
 2860TIP3    H230216   0.232   1.314   6.844  2.0121 -0.6910  0.2221
 2861TIP3   OH230217   2.134   5.741   2.343  0.3737 -0.3771 -0.0416
 2861TIP3    H130218   2.081   5.760   2.420 -1.0277 -0.5810 -0.9319
 2861TIP3    H230219   2.160   5.649   2.354  0.4633 -0.3082  0.3427
 2862TIP3   OH230220   5.736   2.542   6.771 -0.3676 -0.0830 -0.3073
 2862TIP3    H130221   5.661   2.537   6.712 -0.6253 -1.7580  0.0985
 2862TIP3    H230222   5.698   2.536   6.859 -0.0042  2.4881  0.0992
 2863TIP3   OH230223   2.077   2.845   7.013  0.1525 -0.3999  0.0088
 2863TIP3    H130224   2.061   2.940   7.015  1.0321 -0.2537  0.7971
 2863TIP3    H230225   1.992   2.807   6.992 -0.3185  0.5448  0.1527
 2864TIP3   OH230226   0.522   4.713   1.372 -0.2257  0.1840 -0.1161
 2864TIP3    H130227   0.552   4.795   1.333  1.2630 -0.5354 -0.5848
 2864TIP3    H230228   0.601   4.676   1.412 -1.1152 -0.4895  1.0635
 2865TIP3   OH230229   4.869   2.044   1.393 -0.0944 -0.3398  0.1535
 2865TIP3    H130230   4.887   2.138   1.393 -0.6366 -0.2320 -0.0041
 2865TIP3    H230231   4.775   2.038   1.377 -0.0468 -0.9131  0.0748
 2866TIP3   OH230232   0.934   4.324   7.045  0.1913 -0.2675  0.2203
 2866TIP3    H130233   0.941   4.283   7.131 -1.6061  2.0526  1.6147
 2866TIP3    H230234   0.840   4.329   7.029  0.4785  0.2531 -1.4260
 2867TIP3   OH230235   4.961   0.147   0.361 -0.1635  0.1931  0.2849
 2867TIP3    H130236   4.978   0.121   0.270  0.2210  3.5799 -0.7541
 2867TIP3    H230237   5.046   0.178   0.393  0.2778 -3.0106  2.7156
 2868TIP3   OH230238   5.272   5.191   7.858  0.9270 -0.7057  0.7309
 2868TIP3    H130239   5.351   5.222   7.814  0.1146  0.1502 -0.1744
 2868TIP3    H230240   5.266   5.245   7.937  0.6429  0.0434  0.2129
 2869TIP3   OH230241   5.282   3.369   1.909  0.1347 -0.2031 -0.2068
 2869TIP3    H130242   5.343   3.442   1.920  0.3687 -0.3628 -0.4232
 2869TIP3    H230243   5.254   3.348   1.998 -1.7012  1.6137 -0.2739
 2870TIP3   OH230244   2.508   2.406   0.036 -0.1346  0.2549  0.1352
 2870TIP3    H130245   2.462   2.384  -0.045  0.1780  0.0481  0.0122
 2870TIP3    H230246   2.446   2.459   0.085 -0.3082  0.4306 -0.2656
 2871TIP3   OH230247   0.050   0.115   1.102 -0.7309 -0.3005  0.3573
 2871TIP3    H130248   0.037   0.137   1.194 -2.1457 -2.7008  0.8141
 2871TIP3    H230249  -0.027   0.064   1.079 -0.1839 -0.1500 -2.0574
 2872TIP3   OH230250   2.828   6.702   0.521  0.0608  0.3783  0.0881
 2872TIP3    H130251   2.763   6.654   0.470 -0.5182  1.6230 -0.3996
 2872TIP3    H230252   2.861   6.768   0.460  0.4251  0.9432  0.8880
 2873TIP3   OH230253   3.101   6.193   0.902  0.5821  0.3789 -0.6279
 2873TIP3    H130254   3.117   6.135   0.977 -2.3528  0.6083  0.3113
 2873TIP3    H230255   3.062   6.135   0.836  2.9609  0.2196 -2.0007
 2874TIP3   OH230256   3.942   1.463   1.072 -0.7441  0.2275 -0.1261
 2874TIP3    H130257   3.898   1.470   0.987  0.1400  0.3148 -0.5848
 2874TIP3    H230258   4.016   1.523   1.066  0.8874 -1.6772 -0.2870
 2875TIP3   OH230259   3.214   0.086   0.152 -0.0682 -0.3520  0.1450
 2875TIP3    H130260   3.206   0.142   0.075  0.7653 -0.2154  0.1554
 2875TIP3    H230261   3.296   0.112   0.193  0.6270 -1.9369 -0.1517
 2876TIP3   OH230262   0.406   5.521   2.391  0.1500  0.0092  0.8630
 2876TIP3    H130263   0.340   5.486   2.451  0.8219 -0.8718  1.1165
 2876TIP3    H230264   0.417   5.452   2.325  0.0160  0.6214  0.1807
 2877TIP3   OH230265   3.529   0.462   1.950  0.4428  0.4747  0.3052
 2877TIP3    H130266   3.437   0.442   1.965  0.8745 -1.1426  1.0662
 2877TIP3    H230267   3.532   0.499   1.862 -0.8518 -0.0612  0.0194
 2878TIP3   OH230268   3.352   4.707   2.234 -0.1995 -0.6693 -0.3878
 2878TIP3    H130269   3.298   4.718   2.313  0.8376 -1.0937  0.4037
 2878TIP3    H230270   3.399   4.625   2.249  1.4693  0.2268 -0.5598
 2879TIP3   OH230271   2.311   0.671   1.018 -0.2117  0.2618 -0.0588
 2879TIP3    H130272   2.380   0.676   0.952 -2.0155  1.2999 -1.9565
 2879TIP3    H230273   2.258   0.595   0.992  0.6292 -1.1104  1.9155
 2880TIP3   OH230274   1.820   6.621   8.733 -0.0663  0.2341  0.4718
 2880TIP3    H130275   1.905   6.595   8.699 -1.6188 -2.6543 -1.6617
 2880TIP3    H230276   1.789   6.545   8.782 -1.1380  1.4963  1.8513
 2881TIP3   OH230277   2.746   5.328   0.435  0.1514 -0.3343  0.0641
 2881TIP3    H130278   2.775   5.413   0.469 -1.2514  0.5955 -0.9461
 2881TIP3    H230279   2.798   5.316   0.355 -0.3703  0.1022 -0.3545
 2882TIP3   OH230280   2.290   4.654   7.623  0.3267  0.8161 -0.2556
 2882TIP3    H130281   2.272   4.711   7.697  3.5811 -0.0550  1.3931
 2882TIP3    H230282   2.334   4.711   7.559 -1.6889  1.3662 -1.2234
 2883TIP3   OH230283   2.322   5.482   1.900  0.0954  0.2247 -0.3828
 2883TIP3    H130284   2.285   5.542   1.964 -0.0576  1.1627 -1.3234
 2883TIP3    H230285   2.397   5.529   1.863  1.4369 -1.0969  0.5123
 2884TIP3   OH230286   2.708   5.652   7.362  0.3976  0.6724 -0.7300
 2884TIP3    H130287   2.790   5.695   7.388  0.3733  1.5922 -2.0551
 2884TIP3    H230288   2.732   5.561   7.349  0.7681  0.5198  0.7699
 2885TIP3   OH230289   2.811   1.720   1.687 -0.1847  0.3904 -0.7676
 2885TIP3    H130290   2.764   1.664   1.748  0.0733 -1.1350 -1.8968
 2885TIP3    H230291   2.872   1.770   1.742 -1.7199  0.9668  0.4779
 2886TIP3   OH230292   2.509   1.466   2.179  0.3145 -0.1733  0.1207
 2886TIP3    H130293   2.572   1.425   2.120  1.4141  1.0982  0.3695
 2886TIP3    H230294   2.541   1.446   2.266  0.4136  0.5274  0.2495
 2887TIP3   OH230295   2.211   3.365   0.815 -0.1648 -0.2522  0.7941
 2887TIP3    H130296   2.116   3.360   0.826 -0.2386  0.2579  0.4376
 2887TIP3    H230297   2.235   3.448   0.856  0.2614 -0.8240  1.7316
 2888TIP3   OH230298   4.167   2.221   7.677 -0.0276 -0.9157  0.7534
 2888TIP3    H130299   4.229   2.149   7.668  0.6956 -0.1673 -0.5370
 2888TIP3    H230300   4.198   2.270   7.753  0.9839 -0.5734  0.1453
 2889TIP3   OH230301   3.712   6.053   7.816 -0.4756  0.3218 -0.4928
 2889TIP3    H130302   3.693   6.060   7.722  1.7173 -1.1186 -1.1106
 2889TIP3    H230303   3.737   5.962   7.829  1.6744  1.0500  0.9965
 2890TIP3   OH230304   2.551   5.213   7.273 -0.3141  0.4922  0.5053
 2890TIP3    H130305   2.504   5.297   7.269 -0.4060  0.4828  1.3285
 2890TIP3    H230306   2.547   5.180   7.183 -1.7931  0.5474  0.5274
 2891TIP3   OH230307   4.701   1.918   8.242  0.5238  0.0110  0.3547
 2891TIP3    H130308   4.613   1.885   8.226  0.6950 -0.1109 -0.4153
 2891TIP3    H230309   4.745   1.848   8.289  0.2300  0.0476  0.6857
 2892TIP3   OH230310   4.190   5.885   0.057  0.5656 -0.2886 -0.2283
 2892TIP3    H130311   4.174   5.892  -0.038  2.3426 -0.3804 -0.5621
 2892TIP3    H230312   4.281   5.857   0.064  1.2608  2.1682  1.5838
 2893TIP3   OH230313   1.459   0.802   0.633 -0.5618 -0.4524  0.1551
 2893TIP3    H130314   1.554   0.793   0.624 -0.6302 -0.5888 -0.4580
 2893TIP3    H230315   1.423   0.750   0.561 -1.0615  0.9949 -0.6912
 2894TIP3   OH230316   0.908   0.374   2.400  0.6956  0.3840  0.1630
 2894TIP3    H130317   0.918   0.388   2.494  1.5175  0.9928  0.0025
 2894TIP3    H230318   0.840   0.308   2.392 -0.7235  1.6482  1.1261
 2895TIP3   OH230319   5.099   6.618   7.344  0.4018 -0.7717 -0.1529
 2895TIP3    H130320   5.049   6.537   7.343 -0.0734 -0.4846 -0.1025
 2895TIP3    H230321   5.051   6.677   7.285  0.0096 -0.1071  0.8049
 2896TIP3   OH230322   0.853   3.209   8.615 -0.5076  0.3455  0.0098
 2896TIP3    H130323   0.948   3.203   8.624 -0.6418 -2.9730  0.4899
 2896TIP3    H230324   0.835   3.179   8.526 -1.1492 -1.0781  0.5787
 2897TIP3   OH230325   6.119   0.014   2.033 -0.1221 -0.4229 -0.2910
 2897TIP3    H130326   6.056   0.086   2.032 -1.2840 -1.4028 -0.9465
 2897TIP3    H230327   6.090  -0.043   1.961 -0.6597 -2.7018  1.6225
 2898TIP3   OH230328   2.768   1.114   2.846  0.7143  0.3295 -0.1812
 2898TIP3    H130329   2.767   1.036   2.791 -0.8692 -1.6223  2.3339
 2898TIP3    H230330   2.835   1.097   2.912 -0.5879  0.3465  1.2307
 2899TIP3   OH230331   6.502   1.766   1.782  0.3663 -0.2899  0.1522
 2899TIP3    H130332   6.411   1.796   1.777  1.4154  3.0663 -2.6897
 2899TIP3    H230333   6.500   1.677   1.746 -2.0998 -1.8323  3.4734
 2900TIP3   OH230334   6.453   5.672   1.523  0.1483 -0.3786  0.2161
 2900TIP3    H130335   6.430   5.605   1.588 -1.2297 -0.2249 -0.0925
 2900TIP3    H230336   6.394   5.656   1.450 -1.0064  1.8407  0.5659
 2901TIP3   OH230337   2.552   2.496   1.544  0.4299 -0.1258 -0.2738
 2901TIP3    H130338   2.521   2.422   1.596 -3.0595  0.8026 -0.7772
 2901TIP3    H230339   2.634   2.465   1.505 -0.0135 -3.0828  0.8692
 2902TIP3   OH230340   2.430   4.249   2.471 -0.3227  0.3008  0.0608
 2902TIP3    H130341   2.491   4.246   2.546 -3.0255  1.0039  2.4628
 2902TIP3    H230342   2.358   4.191   2.497 -2.5156  2.4722 -0.8257
 2903TIP3   OH230343   2.783   1.789   0.943  0.3667  0.3289 -0.1815
 2903TIP3    H130344   2.860   1.839   0.915  1.6253 -1.1205  0.5772
 2903TIP3    H230345   2.766   1.820   1.032  1.1206 -0.4878  0.2723
 2904TIP3   OH230346   5.266   4.378   0.050 -0.0631  0.5418  0.3610
 2904TIP3    H130347   5.220   4.375  -0.034  0.7266 -0.4947 -0.0619
 2904TIP3    H230348   5.359   4.368   0.027  0.2139  0.8382  1.3162
 2905TIP3   OH230349   2.342   2.027   1.215 -0.4806  1.1053  0.1953
 2905TIP3    H130350   2.247   2.027   1.204 -0.2770  0.0629 -2.1978
 2905TIP3    H230351   2.365   1.935   1.227  0.3537  1.1035 -1.1559
 2906TIP3   OH230352   2.230   3.756   1.590 -0.4266  0.2692 -0.5191
 2906TIP3    H130353   2.142   3.756   1.555 -0.3752 -3.3747 -1.0791
 2906TIP3    H230354   2.285   3.792   1.520 -1.5084  5.2897  0.8148
 2907TIP3   OH230355   6.816   2.592   1.854  0.0574  0.6514 -0.0826
 2907TIP3    H130356   6.746   2.646   1.889  0.6839  1.4726 -0.0759
 2907TIP3    H230357   6.773   2.536   1.789 -0.5163  1.5002 -0.4514
 2908TIP3   OH230358   1.540   5.121   1.216 -0.2163 -0.0428 -0.7002
 2908TIP3    H130359   1.457   5.148   1.177 -1.3124 -1.7928  0.2770
 2908TIP3    H230360   1.542   5.167   1.300  0.2285  0.6463 -1.0790
 2909TIP3   OH230361   6.439   0.075   7.475  0.1964 -0.7317  0.3546
 2909TIP3    H130362   6.355   0.120   7.476  0.1668 -0.7865  0.7331
 2909TIP3    H230363   6.439   0.024   7.556  1.4019  0.7580  1.3319
 2910TIP3   OH230364   2.207   5.839   0.705 -0.3946 -0.0324  0.1844
 2910TIP3    H130365   2.293   5.804   0.681 -1.0545 -0.9485 -0.9048
 2910TIP3    H230366   2.191   5.908   0.641 -0.9208 -0.5773 -0.2816
 2911TIP3   OH230367   4.303   3.515   2.350  0.6908 -0.0450  0.2909
 2911TIP3    H130368   4.218   3.542   2.385 -0.6839  0.9664 -3.3398
 2911TIP3    H230369   4.326   3.437   2.399 -2.3206 -0.3153  1.4748
 2912TIP3   OH230370   6.258   6.320   7.138 -0.4188 -0.2311  0.0813
 2912TIP3    H130371   6.295   6.273   7.212  1.1057 -1.2985 -1.2762
 2912TIP3    H230372   6.178   6.272   7.116 -2.0961  1.3186  2.2132
 2913TIP3   OH230373   1.668   1.929   2.301  0.0563  0.3446 -0.2875
 2913TIP3    H130374   1.717   1.964   2.226  0.2831  0.1707 -0.2206
 2913TIP3    H230375   1.578   1.921   2.269 -0.2071  1.9220 -0.0023
 2914TIP3   OH230376   1.268   6.695   0.953 -0.5293 -0.1234  0.1912
 2914TIP3    H130377   1.359   6.696   0.922 -0.5388 -0.7518  0.1429
 2914TIP3    H230378   1.218   6.728   0.878 -0.2508  1.1821  0.5494
 2915TIP3   OH230379   4.761   5.840   2.951  0.6104 -0.6691  0.0605
 2915TIP3    H130380   4.695   5.888   2.901  2.3248  0.3658 -1.3517
 2915TIP3    H230381   4.719   5.819   3.034 -0.7956  1.7562  0.0290
 2916TIP3   OH230382   4.126   6.116   7.956  0.4721  0.0345 -0.6237
 2916TIP3    H130383   4.056   6.154   7.902  1.2918  1.3335 -0.8183
 2916TIP3    H230384   4.122   6.023   7.937 -0.5937  0.2055 -1.3615
 2917TIP3   OH230385   6.491   3.156   2.727 -0.1144  0.2644  0.1532
 2917TIP3    H130386   6.475   3.126   2.638 -0.2783  0.7303  0.0211
 2917TIP3    H230387   6.440   3.096   2.782  0.5819 -0.4847 -0.0038
 2918TIP3   OH230388   0.700   6.413   7.062  0.1665 -0.0135 -0.7363
 2918TIP3    H130389   0.605   6.407   7.051 -0.0794  0.4446  0.9443
 2918TIP3    H230390   0.716   6.386   7.152  1.6104  0.2465 -0.8904
 2919TIP3   OH230391   1.342   4.611   7.815 -0.5108 -0.0712  0.2311
 2919TIP3    H130392   1.305   4.639   7.899  0.3252  0.5215  0.4118
 2919TIP3    H230393   1.306   4.673   7.751  0.7612  0.9961  0.5225
 2920TIP3   OH230394   4.683   4.034   2.183 -0.0024  0.1210 -0.1173
 2920TIP3    H130395   4.767   4.030   2.229  0.1004 -1.3305 -0.3785
 2920TIP3    H230396   4.670   4.127   2.164  0.5690  0.6199  1.7041
 2921TIP3   OH230397   1.244   3.311   6.920  0.1306 -0.0351  0.1874
 2921TIP3    H130398   1.331   3.327   6.884 -0.0236  1.2392  0.3303
 2921TIP3    H230399   1.231   3.381   6.984 -1.2403  0.1570 -0.2625
 2922TIP3   OH230400   1.291   3.706   1.752  0.1130 -0.4061 -0.2802
 2922TIP3    H130401   1.203   3.669   1.759  0.6775 -1.5603  1.0021
 2922TIP3    H230402   1.316   3.725   1.842  1.2226 -0.1674 -0.6282
 2923TIP3   OH230403   0.578   1.069   0.947 -0.9246  0.1246 -0.6450
 2923TIP3    H130404   0.612   1.128   0.880 -0.1371 -0.7818 -1.0724
 2923TIP3    H230405   0.652   1.056   1.006 -1.6920  1.1322  0.5811
 2924TIP3   OH230406   4.553   3.841   8.024  0.0625 -0.0683 -0.5678
 2924TIP3    H130407   4.646   3.822   8.034  0.0456  0.6272  1.4426
 2924TIP3    H230408   4.510   3.756   8.036  0.3073  0.1084  2.2272
 2925TIP3   OH230409   3.021   3.132   7.525 -0.3882 -0.0037  0.3406
 2925TIP3    H130410   2.939   3.096   7.493 -0.5525  1.5414 -1.1627
 2925TIP3    H230411   3.080   3.129   7.449  0.8877 -0.8690  1.3218
 2926TIP3   OH230412   4.387   1.200   0.147 -0.4783 -0.2841 -0.8510
 2926TIP3    H130413   4.458   1.190   0.210 -2.1442 -0.4328  1.1467
 2926TIP3    H230414   4.395   1.289   0.113  0.5070 -0.2294 -0.4795
 2927TIP3   OH230415   3.323   1.831   7.812  0.0373 -0.3712 -0.7312
 2927TIP3    H130416   3.240   1.785   7.830  1.4866 -3.0139 -0.2415
 2927TIP3    H230417   3.363   1.841   7.898 -0.7773  3.1895 -0.6432
 2928TIP3   OH230418   1.715   4.969   7.516 -0.2887 -0.5420  0.2590
 2928TIP3    H130419   1.741   5.051   7.475 -1.6275 -0.3283 -0.1832
 2928TIP3    H230420   1.666   4.995   7.594  1.6173 -0.9477  1.6717
 2929TIP3   OH230421   5.884   0.258   2.180 -0.0606  0.3232 -0.1810
 2929TIP3    H130422   5.831   0.191   2.223 -0.2479  1.0028  0.6628
 2929TIP3    H230423   5.890   0.229   2.089  0.1391 -1.0129  0.2412
 2930TIP3   OH230424   2.451   4.543   2.812 -0.1306  0.0152  0.3990
 2930TIP3    H130425   2.423   4.584   2.894 -1.9366  0.1526 -0.2253
 2930TIP3    H230426   2.409   4.457   2.812  3.6042 -2.0095  1.6826
 2931TIP3   OH230427   3.301   0.826   8.578  0.0279 -0.1953 -0.4025
 2931TIP3    H130428   3.367   0.762   8.551  0.8491 -0.5300  2.1236
 2931TIP3    H230429   3.341   0.911   8.560  0.6862 -0.4057  0.0363
 2932TIP3   OH230430   5.380   5.547   1.750 -1.0021  0.4168  0.2368
 2932TIP3    H130431   5.296   5.590   1.769 -0.9184  1.8168 -2.1772
 2932TIP3    H230432   5.363   5.498   1.669  0.4339  0.5536 -0.1704
 2933TIP3   OH230433   4.403   1.816   7.754 -0.6024 -0.3236 -0.1657
 2933TIP3    H130434   4.493   1.800   7.726 -0.1016  0.1304  1.1328
 2933TIP3    H230435   4.364   1.729   7.763 -0.3824 -0.5120 -0.9900
 2934TIP3   OH230436   2.591   1.408   8.501  0.1576  0.2024  0.1184
 2934TIP3    H130437   2.605   1.502   8.505  0.5450  0.1460  0.0877
 2934TIP3    H230438   2.621   1.375   8.586  0.2117  0.0828  0.0540
 2935TIP3   OH230439   5.277   6.535   1.187 -0.2852 -0.1480  0.6344
 2935TIP3    H130440   5.356   6.588   1.190 -0.6671  0.5375 -0.6839
 2935TIP3    H230441   5.309   6.445   1.179  0.3554 -0.0191  1.6079
 2936TIP3   OH230442   6.798   3.063   0.305 -0.3022 -0.0111 -0.2058
 2936TIP3    H130443   6.757   3.147   0.324 -1.7504 -0.0152 -2.8802
 2936TIP3    H230444   6.876   3.084   0.254  0.4319 -0.2408  0.7870
 2937TIP3   OH230445   5.299   2.457   1.902 -0.1705 -0.2241 -0.0677
 2937TIP3    H130446   5.209   2.458   1.934 -0.3894  0.4438 -0.6749
 2937TIP3    H230447   5.350   2.421   1.974 -0.4353  2.4309  1.5753
 2938TIP3   OH230448   0.837   2.804   8.079 -0.4050 -0.2790 -0.2218
 2938TIP3    H130449   0.799   2.773   8.161 -1.1475 -1.0055 -0.8321
 2938TIP3    H230450   0.783   2.765   8.010 -1.5950  2.5923 -1.0531
 2939TIP3   OH230451   6.413   2.624   0.094 -0.2049  0.5305  0.8239
 2939TIP3    H130452   6.498   2.588   0.071 -0.8155 -0.6183  0.2460
 2939TIP3    H230453   6.432   2.699   0.150  1.2965  2.3060 -1.8469
 2940TIP3   OH230454   0.652   5.136   8.745 -0.0516  0.8921  0.4613
 2940TIP3    H130455   0.686   5.108   8.830 -0.2087 -0.1788  0.1827
 2940TIP3    H230456   0.627   5.055   8.701  1.9401  1.2259 -1.4338
 2941TIP3   OH230457   0.929   2.563   0.508  0.1448 -0.2964 -0.8132
 2941TIP3    H130458   0.919   2.475   0.471  0.1188 -0.2504 -0.9161
 2941TIP3    H230459   0.946   2.618   0.432 -1.3345  0.0359 -0.9331
 2942TIP3   OH230460   4.270   3.647   7.546  0.0172  0.4118  0.0878
 2942TIP3    H130461   4.297   3.711   7.480  1.7384 -1.3818 -1.0389
 2942TIP3    H230462   4.305   3.682   7.628  1.6576  0.5618 -0.6263
 2943TIP3   OH230463   1.690   6.227   0.963  0.1217  0.1672  0.0560
 2943TIP3    H130464   1.602   6.261   0.979 -0.5439 -1.6054  0.3843
 2943TIP3    H230465   1.712   6.179   1.042  0.6610 -0.8627 -0.6904
 2944TIP3   OH230466   6.250   5.268   8.501 -0.0610  0.4434  0.3338
 2944TIP3    H130467   6.205   5.221   8.571 -0.9586  0.9066  0.0877
 2944TIP3    H230468   6.252   5.207   8.428  0.3027  0.1875  0.5558
 2945TIP3   OH230469   1.171   0.369   2.694 -0.1823  0.1945  0.0803
 2945TIP3    H130470   1.119   0.293   2.720  0.6224 -0.1322  0.7699
 2945TIP3    H230471   1.126   0.403   2.616  1.6016 -3.4498 -2.8983
 2946TIP3   OH230472   0.555   3.239   7.395 -0.1259 -0.2389  0.1227
 2946TIP3    H130473   0.502   3.302   7.347 -1.3837 -1.6856 -0.4665
 2946TIP3    H230474   0.527   3.153   7.362  2.2088 -1.1044  0.1773
 2947TIP3   OH230475   0.247   6.362   0.471 -0.4209 -0.3191  0.2070
 2947TIP3    H130476   0.245   6.321   0.384  0.4300 -0.0694  0.0636
 2947TIP3    H230477   0.322   6.422   0.468 -2.1448  1.9413  0.1195
 2948TIP3   OH230478   4.132   6.485   8.300 -0.2337  0.3192  0.1038
 2948TIP3    H130479   4.129   6.451   8.389 -1.3807  1.2480  0.4485
 2948TIP3    H230480   4.064   6.437   8.253  0.1956  0.0114 -0.2101
 2949TIP3   OH230481   0.982   5.236   7.438 -0.1633  0.2529 -0.3413
 2949TIP3    H130482   0.987   5.152   7.484  0.6774  0.0119 -0.8445
 2949TIP3    H230483   0.955   5.214   7.349 -0.6258  0.5898 -0.2864
 2950TIP3   OH230484   3.670   0.654   8.074 -0.1782  0.1393 -0.0958
 2950TIP3    H130485   3.618   0.711   8.130  0.2320  1.3966 -0.9547
 2950TIP3    H230486   3.740   0.710   8.040  0.3073 -0.9034 -0.8808
 2951TIP3   OH230487   4.324   4.355   2.562  0.5098  0.4246 -0.3387
 2951TIP3    H130488   4.372   4.282   2.603 -0.7594 -0.3304 -0.1391
 2951TIP3    H230489   4.359   4.433   2.604  2.2488 -0.0029 -0.8972
 2952TIP3   OH230490   4.774   1.115   1.561  0.4252 -0.7489 -0.4111
 2952TIP3    H130491   4.791   1.052   1.632 -1.7240 -2.1953 -1.0637
 2952TIP3    H230492   4.787   1.064   1.481  0.9808  0.3366 -1.0207
 2953TIP3   OH230493   3.425   6.163   0.063 -0.2691  0.0093 -0.3391
 2953TIP3    H130494   3.422   6.139   0.155 -1.0936  0.9230 -0.1164
 2953TIP3    H230495   3.376   6.094   0.018  0.5650 -0.7156 -0.1803
 2954TIP3   OH230496   5.405   6.791   0.956  0.0317 -0.5469 -0.2459
 2954TIP3    H130497   5.312   6.768   0.964  0.4102 -2.2597 -0.4944
 2954TIP3    H230498   5.405   6.887   0.955 -1.6222 -0.4736  1.0594
 2955TIP3   OH230499   5.128   1.692   1.977  0.1339 -0.0739 -0.0084
 2955TIP3    H130500   5.070   1.749   2.027  0.5317  0.1795  0.1620
 2955TIP3    H230501   5.117   1.720   1.886 -1.3029 -1.1457 -0.2132
 2956TIP3   OH230502   4.132   4.962   2.556 -0.3452 -0.2247 -0.2015
 2956TIP3    H130503   4.066   4.979   2.622  0.3694  1.3766  0.1523
 2956TIP3    H230504   4.148   4.867   2.561 -0.6257 -0.2148  1.6068
 2957TIP3   OH230505   1.053   3.631   0.039 -0.0555 -0.4662 -0.1234
 2957TIP3    H130506   1.060   3.544   0.076 -2.3161 -1.9963 -2.8603
 2957TIP3    H230507   0.960   3.652   0.046 -0.2600 -0.0572 -2.9775
 2958TIP3   OH230508   0.519   2.170   7.140  0.4586  0.3362  0.4924
 2958TIP3    H130509   0.479   2.157   7.226  0.4197 -4.0935  0.0584
 2958TIP3    H230510   0.450   2.212   7.087 -1.1512 -0.8570  1.5457
 2959TIP3   OH230511   6.087   1.665   8.029  0.3110  0.4133  0.0753
 2959TIP3    H130512   6.061   1.685   8.119  1.1175 -0.9134  0.6366
 2959TIP3    H230513   6.158   1.726   8.010  0.1533  0.6813  0.3415
 2960TIP3   OH230514   2.030   3.560   1.358  0.8594 -0.0424 -0.6001
 2960TIP3    H130515   1.961   3.507   1.319  0.0812  0.5701 -0.0809
 2960TIP3    H230516   2.082   3.590   1.283 -0.7376  1.3003 -1.2431
 2961TIP3   OH230517   3.736   4.334   1.658  0.1212  0.2673 -0.2716
 2961TIP3    H130518   3.743   4.313   1.751 -1.6982  0.6342 -0.0256
 2961TIP3    H230519   3.758   4.252   1.613 -0.6694 -0.3905  0.5206
 2962TIP3   OH230520   4.763   6.506   0.330  0.8622  0.1938 -0.1827
 2962TIP3    H130521   4.745   6.592   0.368 -0.6430 -0.7225  1.3376
 2962TIP3    H230522   4.677   6.472   0.305  1.3922 -0.9887 -0.5019
 2963TIP3   OH230523   4.631   3.688   0.675  0.4132 -0.1993  0.0760
 2963TIP3    H130524   4.563   3.752   0.694 -1.4805 -1.3242 -2.2656
 2963TIP3    H230525   4.660   3.657   0.761 -0.9902  1.3770  1.1848
 2964TIP3   OH230526   5.664   5.706   1.897 -0.3271 -0.3817 -0.4149
 2964TIP3    H130527   5.600   5.777   1.904  0.1199  0.0727 -0.8395
 2964TIP3    H230528   5.640   5.645   1.967  1.0587  1.6061  1.9527
 2965TIP3   OH230529   1.575   6.174   2.406  0.6318 -0.3332 -0.2450
 2965TIP3    H130530   1.490   6.211   2.431  1.2449  0.7425  0.3314
 2965TIP3    H230531   1.639   6.221   2.460  1.5384 -1.6479 -0.1254
 2966TIP3   OH230532   1.337   3.512   0.205  0.6096  0.5836  0.6119
 2966TIP3    H130533   1.380   3.581   0.255  2.0066  0.9093 -0.9610
 2966TIP3    H230534   1.256   3.495   0.254  0.9871  2.1888  1.9165
 2967TIP3   OH230535   5.594   0.043   1.562  0.2500 -0.2913 -0.0714
 2967TIP3    H130536   5.583   0.113   1.627 -0.9945 -1.3351  0.8942
 2967TIP3    H230537   5.589  -0.038   1.612  0.9563 -1.1070 -1.2669
 2968TIP3   OH230538   1.929   2.377   2.711  0.2149 -0.3677 -0.4284
 2968TIP3    H130539   1.952   2.371   2.804 -0.0341 -1.3125 -0.4145
 2968TIP3    H230540   1.971   2.457   2.681 -1.3883  1.0755  0.9728
 2969TIP3   OH230541   3.524   4.947   7.412 -0.7054 -0.7440  0.2775
 2969TIP3    H130542   3.510   4.856   7.389 -2.1759 -0.7132  0.9836
 2969TIP3    H230543   3.459   4.996   7.362  1.6376  0.2544 -2.0591
 2970TIP3   OH230544   3.064   0.887   1.260 -0.5598 -0.6042  0.3710
 2970TIP3    H130545   3.113   0.963   1.227 -1.8007  0.3416  0.6553
 2970TIP3    H230546   3.081   0.886   1.354 -2.8057  1.0999  0.8787
 2971TIP3   OH230547   6.262   4.620   8.291 -0.2348 -0.1578 -0.3178
 2971TIP3    H130548   6.350   4.658   8.281  0.0284 -0.9054 -0.9390
 2971TIP3    H230549   6.202   4.692   8.273  0.2560 -0.0165 -1.4705
 2972TIP3   OH230550   3.460   0.826   2.479  0.0517 -0.0414  0.2946
 2972TIP3    H130551   3.422   0.825   2.566 -0.0579 -1.4137  0.2561
 2972TIP3    H230552   3.392   0.865   2.423  0.0017  0.5484  0.7675
 2973TIP3   OH230553   3.671   0.125   8.695  0.1144 -0.3746  0.5752
 2973TIP3    H130554   3.632   0.038   8.704 -0.6670  0.0086  0.9755
 2973TIP3    H230555   3.737   0.129   8.763  1.2162 -1.2014 -0.3994
 2974TIP3   OH230556   0.299   1.486   2.749  0.4336  0.0052 -0.8211
 2974TIP3    H130557   0.266   1.527   2.829  3.0552  1.9078 -0.6075
 2974TIP3    H230558   0.329   1.400   2.777 -0.0928  0.0506 -0.0927
 2975TIP3   OH230559   3.356   0.451   0.304 -0.5454  0.0509  0.8280
 2975TIP3    H130560   3.327   0.419   0.219  1.1539  1.4444 -0.3399
 2975TIP3    H230561   3.436   0.500   0.286 -0.8202  1.4863  3.0441
 2976TIP3   OH230562   4.290   3.682   2.850 -0.2552 -0.7532 -0.2810
 2976TIP3    H130563   4.333   3.636   2.922  3.4287 -0.6756 -2.1922
 2976TIP3    H230564   4.268   3.767   2.886  0.9311 -0.9327  0.9572
 2977TIP3   OH230565   2.820   3.742   2.264 -0.1754 -0.4852 -0.5841
 2977TIP3    H130566   2.756   3.705   2.324  0.8222 -1.0346  0.1655
 2977TIP3    H230567   2.901   3.746   2.314  0.3773  0.2512 -1.4937
 2978TIP3   OH230568   2.899   0.103   0.396  0.4326  0.0125  0.4376
 2978TIP3    H130569   2.927   0.179   0.346 -0.5746  0.3720  0.4042
 2978TIP3    H230570   2.891   0.135   0.486 -1.8282  0.4785  0.1278
 2979TIP3   OH230571   4.663   3.693   7.442 -0.4326  0.6835  0.3151
 2979TIP3    H130572   4.642   3.774   7.488 -3.8370  0.9840 -1.4106
 2979TIP3    H230573   4.673   3.719   7.350 -0.7684 -0.7119 -0.1477
 2980TIP3   OH230574   3.466   5.692   2.587  0.1687  0.2996 -0.4922
 2980TIP3    H130575   3.555   5.726   2.598 -0.1785  0.7947  0.9795
 2980TIP3    H230576   3.436   5.673   2.676 -1.0353 -0.3145 -1.0034
 2981TIP3   OH230577   5.287   2.423   7.786  0.3857 -0.1131  0.8337
 2981TIP3    H130578   5.202   2.415   7.743  1.2199 -0.4634 -0.8034
 2981TIP3    H230579   5.308   2.334   7.815  2.1992 -1.0871 -2.8484
 2982TIP3   OH230580   3.930   5.308   2.338  0.1784  0.6303 -0.2299
 2982TIP3    H130581   3.934   5.259   2.256  0.9162 -0.4813  0.4436
 2982TIP3    H230582   3.845   5.286   2.375 -0.3770  1.5417 -0.9149
 2983TIP3   OH230583   0.183   3.133   0.211  0.9742 -0.5348 -0.5518
 2983TIP3    H130584   0.198   3.167   0.123 -0.6554  1.0886 -0.2694
 2983TIP3    H230585   0.224   3.197   0.269  1.1740 -1.0681 -0.0955
 2984TIP3   OH230586   4.736   4.100   8.650 -0.2727 -0.2312 -0.5447
 2984TIP3    H130587   4.826   4.131   8.642 -0.0344 -0.8721 -0.4666
 2984TIP3    H230588   4.682   4.177   8.636  0.3067  0.3216  0.2191
 2985TIP3   OH230589   3.441   1.800   0.340  0.0398 -0.6520  0.1210
 2985TIP3    H130590   3.415   1.860   0.270  3.8654  0.2004 -0.7997
 2985TIP3    H230591   3.423   1.713   0.305 -1.2612 -0.1786 -0.4502
 2986TIP3   OH230592   4.446   1.265   7.743  0.1689  0.4112  0.0048
 2986TIP3    H130593   4.389   1.325   7.791  0.0287  0.5008 -0.2707
 2986TIP3    H230594   4.396   1.243   7.664 -0.4884 -1.3355  0.8366
 2987TIP3   OH230595   4.175   2.747   1.625  0.1679  0.0757 -0.1862
 2987TIP3    H130596   4.248   2.688   1.644  0.3053  0.8804  2.0620
 2987TIP3    H230597   4.100   2.690   1.613  0.5053 -0.6135  0.9119
 2988TIP3   OH230598   3.264   5.787   1.999 -0.6567 -0.1711 -0.4645
 2988TIP3    H130599   3.275   5.859   2.061 -1.7901 -1.4918  1.3955
 2988TIP3    H230600   3.341   5.732   2.012 -0.0208  0.4288 -1.5507
 2989TIP3   OH230601   6.062   2.816   0.201 -0.2933  0.6515 -0.2768
 2989TIP3    H130602   5.998   2.886   0.185  0.5939  1.3331 -0.9280
 2989TIP3    H230603   6.087   2.828   0.293 -0.5447  0.8464 -0.2292
 2990TIP3   OH230604   6.402   0.641   0.917 -0.0000 -0.8811  0.1215
 2990TIP3    H130605   6.417   0.632   1.011 -1.0641  0.4328  0.4600
 2990TIP3    H230606   6.331   0.581   0.898 -0.7897 -0.1001  0.4887
 2991TIP3   OH230607   1.510   6.388   2.557  0.1178 -0.2627  0.6415
 2991TIP3    H130608   1.514   6.346   2.643 -1.7130 -2.1539 -0.1311
 2991TIP3    H230609   1.426   6.361   2.520  0.7714  0.6232 -1.6891
 2992TIP3   OH230610   1.841   0.053   2.398 -0.5341  0.2112  0.0762
 2992TIP3    H130611   1.901   0.127   2.404 -0.9864  0.7149 -1.2587
 2992TIP3    H230612   1.886  -0.008   2.339 -1.1185  0.3785 -0.5436
 2993TIP3   OH230613   5.005   2.748   1.780  0.3829 -0.0251 -0.5208
 2993TIP3    H130614   4.963   2.685   1.838 -0.4438  2.8089  2.2043
 2993TIP3    H230615   4.935   2.778   1.722  0.1757  0.1138 -0.2032
 2994TIP3   OH230616   4.653   0.805   0.972  0.5112 -0.0451 -0.7875
 2994TIP3    H130617   4.722   0.872   0.970  0.5061 -0.0347 -0.6595
 2994TIP3    H230618   4.574   0.852   0.945  0.5445 -0.0448 -0.8836
 2995TIP3   OH230619   4.646   2.144   8.592 -0.0134  0.5210 -0.4552
 2995TIP3    H130620   4.585   2.084   8.636 -0.6181  1.3947 -0.0738
 2995TIP3    H230621   4.663   2.212   8.657  1.7365  0.0691 -0.4075
 2996TIP3   OH230622   1.385   4.073   1.749  0.4945 -0.6685  0.3895
 2996TIP3    H130623   1.339   4.055   1.667  2.5600  0.1264 -0.9989
 2996TIP3    H230624   1.439   3.995   1.764  1.5048 -0.0670 -0.0191
 2997TIP3   OH230625   4.867   6.553   7.694 -0.5481 -0.1200 -0.5446
 2997TIP3    H130626   4.781   6.519   7.671 -0.7624  0.2679 -0.3262
 2997TIP3    H230627   4.856   6.648   7.696  0.4202  0.0846 -2.6639
 2998TIP3   OH230628   2.377   1.257   0.951 -0.3490 -0.0761 -0.0883
 2998TIP3    H130629   2.300   1.203   0.933 -1.6666  1.8664 -0.6282
 2998TIP3    H230630   2.343   1.347   0.955  1.8140  0.7962  0.2105
 2999TIP3   OH230631   2.830   1.002   1.591 -0.5917 -0.2939 -0.1480
 2999TIP3    H130632   2.817   1.012   1.686  0.6345 -0.5028  0.0601
 2999TIP3    H230633   2.906   1.056   1.571 -0.0478 -1.2682 -0.7828
 3000TIP3   OH230634   5.414   1.095   7.363  0.0045 -0.0403 -0.2822
 3000TIP3    H130635   5.321   1.078   7.375  0.2530 -0.4505  1.2744
 3000TIP3    H230636   5.456   1.011   7.380  0.6253 -0.0926 -1.8782
 3001TIP3   OH230637   5.608   1.684   1.874 -0.0784 -0.1749 -0.3591
 3001TIP3    H130638   5.596   1.707   1.782  0.2175 -0.7107 -0.5355
 3001TIP3    H230639   5.527   1.713   1.916  0.1350  0.8646 -0.6268
 3002TIP3   OH230640   4.944   2.311   1.348  0.1162 -0.6240  0.1345
 3002TIP3    H130641   5.031   2.348   1.363 -0.2343  0.2508  0.0516
 3002TIP3    H230642   4.926   2.329   1.256 -0.7718  0.5532  0.5188
 3003TIP3   OH230643   1.933   4.121   0.890  0.3036 -0.7499  0.0767
 3003TIP3    H130644   1.856   4.090   0.938  0.6162  1.0137  1.8717
 3003TIP3    H230645   1.904   4.125   0.799 -1.6644 -0.4145  0.6608
 3004TIP3   OH230646   6.761   4.873   2.608 -0.5816  0.0813 -0.0400
 3004TIP3    H130647   6.778   4.866   2.702 -1.8880 -0.2167  0.1949
 3004TIP3    H230648   6.841   4.840   2.566 -1.0505 -2.5759  0.9828
 3005TIP3   OH230649   6.373   3.932   7.839  0.1107 -0.0932 -0.6971
 3005TIP3    H130650   6.402   3.972   7.757 -0.3293  0.7943 -0.4444
 3005TIP3    H230651   6.283   3.905   7.822 -0.2142  0.7014 -0.3274
 3006TIP3   OH230652   2.616   4.180   6.996  0.7789 -0.1825  0.4868
 3006TIP3    H130653   2.702   4.154   6.962 -0.4538 -0.5885 -2.6010
 3006TIP3    H230654   2.625   4.273   7.015  2.1283 -0.4081  1.0841
 3007TIP3   OH230655   5.710   5.407   8.172 -0.3990  0.1431 -0.1475
 3007TIP3    H130656   5.708   5.491   8.126 -2.0440  0.8726  1.1313
 3007TIP3    H230657   5.627   5.404   8.220 -1.3357 -3.1173 -1.6906
 3008TIP3   OH230658   1.766   4.812   2.381 -0.2892  0.0694 -0.0058
 3008TIP3    H130659   1.859   4.792   2.384 -0.5915 -1.5681 -0.3700
 3008TIP3    H230660   1.752   4.875   2.451  1.0436  0.1752  0.1878
 3009TIP3   OH230661   3.680   0.995   0.447 -0.3421 -0.0850  0.1954
 3009TIP3    H130662   3.767   0.965   0.418 -0.4155  0.3059 -0.4285
 3009TIP3    H230663   3.658   1.067   0.388 -1.5978 -0.9061 -0.3869
 3010TIP3   OH230664   2.020   6.737   8.440  0.5648  0.0311  0.3539
 3010TIP3    H130665   2.000   6.648   8.469 -0.8217 -0.0900 -0.8787
 3010TIP3    H230666   2.045   6.783   8.521 -0.1795 -1.0772  1.2493
 3011TIP3   OH230667   3.927   3.742   1.537  0.2817  0.2268  0.3204
 3011TIP3    H130668   4.021   3.725   1.533  0.5937  1.1018  2.4539
 3011TIP3    H230669   3.902   3.717   1.626 -1.8583 -1.4342 -0.6273
 3012TIP3   OH230670   5.417   0.178   0.888  0.1992  0.4403 -0.3484
 3012TIP3    H130671   5.437   0.272   0.885 -3.1558  1.3677  0.8240
 3012TIP3    H230672   5.379   0.160   0.802 -1.7927  0.9740  0.3626
 3013TIP3   OH230673   2.807   0.538   1.777 -0.0301  0.6753 -0.1218
 3013TIP3    H130674   2.732   0.553   1.720 -0.4951  0.8639  0.5223
 3013TIP3    H230675   2.844   0.455   1.747  0.5086  1.3783 -1.5067
 3014TIP3   OH230676   5.656   5.488   3.127 -0.1423 -0.1189 -0.2614
 3014TIP3    H130677   5.685   5.457   3.213 -0.8112 -0.4475 -0.1425
 3014TIP3    H230678   5.561   5.473   3.127 -0.2076  0.2468 -0.9068
 3015TIP3   OH230679   1.582   3.932   1.852 -0.1515  0.2473  0.1023
 3015TIP3    H130680   1.548   3.860   1.904 -0.8752  1.0153  0.7198
 3015TIP3    H230681   1.654   3.894   1.802 -0.4380 -0.8609  0.5165
 3016TIP3   OH230682   4.677   6.068   1.897 -0.5403  0.5546 -0.2223
 3016TIP3    H130683   4.582   6.084   1.899 -0.6119  0.1218  0.2534
 3016TIP3    H230684   4.716   6.154   1.906 -0.8829  0.8375 -1.3287
 3017TIP3   OH230685   4.834   6.105   1.236 -0.0451 -0.4108 -0.1004
 3017TIP3    H130686   4.817   6.012   1.255 -0.9320 -0.2378 -0.0425
 3017TIP3    H230687   4.755   6.135   1.192 -0.2003  0.6123  0.8666
 3018TIP3   OH230688   5.620   3.543   2.732 -0.3215 -0.0514 -0.0566
 3018TIP3    H130689   5.685   3.570   2.796 -1.5985 -0.0243  1.2923
 3018TIP3    H230690   5.549   3.608   2.741 -0.9853 -0.6572 -0.7357
 3019TIP3   OH230691   1.694   2.445   8.275 -0.3437 -0.4493  0.7504
 3019TIP3    H130692   1.714   2.537   8.292 -0.1638  0.0202 -1.7058
 3019TIP3    H230693   1.652   2.444   8.189  0.7626 -2.7708  0.1388
 3020TIP3   OH230694   4.436   4.109   2.024 -0.1086 -0.2853  0.4107
 3020TIP3    H130695   4.370   4.109   1.955 -0.0435 -0.4222  0.3501
 3020TIP3    H230696   4.460   4.202   2.034 -0.2594 -0.2442  0.3843
 3021TIP3   OH230697   5.715   1.074   1.243 -0.0344 -0.1045 -0.3535
 3021TIP3    H130698   5.626   1.085   1.211 -0.2178 -0.8944 -0.1364
 3021TIP3    H230699   5.715   1.116   1.329 -0.4517 -0.8653  0.0326
 3022TIP3   OH230700   0.401   5.489   8.645 -0.5627  0.2716  1.0793
 3022TIP3    H130701   0.365   5.403   8.620  0.6021  0.5906 -2.1152
 3022TIP3    H230702   0.336   5.552   8.613 -0.0509  0.6608  0.8027
 3023TIP3   OH230703   0.108   3.721   0.924 -0.2162 -0.3651 -0.2304
 3023TIP3    H130704   0.023   3.718   0.880 -0.4318 -0.9772  0.2049
 3023TIP3    H230705   0.170   3.743   0.855 -0.4246 -2.1786 -1.0664
 3024TIP3   OH230706   1.320   5.365   0.484  0.4305 -0.3234 -0.2136
 3024TIP3    H130707   1.345   5.290   0.538  1.6011  0.5209  0.4889
 3024TIP3    H230708   1.305   5.329   0.397  0.4724 -1.4392  0.2307
 3025TIP3   OH230709   1.923   5.740   2.523  0.1262  0.1515 -0.4316
 3025TIP3    H130710   1.879   5.691   2.593  1.0553  1.7268  1.3719
 3025TIP3    H230711   1.863   5.813   2.505 -0.5619 -0.7737 -2.0308
 3026TIP3   OH230712   4.809   4.648   7.939 -0.1979 -0.8533  0.6621
 3026TIP3    H130713   4.790   4.560   7.971  0.9710 -0.5023  2.4503
 3026TIP3    H230714   4.904   4.649   7.925 -0.4948 -0.5869 -1.7157
 3027TIP3   OH230715   2.154   5.371   7.244  0.2646 -0.4508  0.1758
 3027TIP3    H130716   2.076   5.418   7.274  0.5728  1.4572 -1.7994
 3027TIP3    H230717   2.160   5.295   7.302 -2.5328 -0.1720  0.9499
 3028TIP3   OH230718   5.452   1.967   0.597 -0.1183  0.4581 -0.5306
 3028TIP3    H130719   5.428   1.883   0.557 -1.0008  1.4298 -2.1364
 3028TIP3    H230720   5.416   1.963   0.686 -1.5078 -0.2729 -1.1009
 3029TIP3   OH230721   0.100   4.394   7.927  0.3289  0.4105 -0.2641
 3029TIP3    H130722   0.090   4.354   8.013 -1.6074 -2.2095 -1.5532
 3029TIP3    H230723   0.172   4.345   7.886  0.0384  0.3796 -0.7497
 3030TIP3   OH230724   2.751   1.708   8.012 -0.3065 -0.1852 -0.1653
 3030TIP3    H130725   2.777   1.654   8.087 -1.1146 -0.0170  0.2544
 3030TIP3    H230726   2.808   1.680   7.941 -0.4993 -1.3845  0.1308
 3031TIP3   OH230727   4.873   4.864   0.521  0.4796  0.1769 -0.0497
 3031TIP3    H130728   4.792   4.912   0.506 -0.1608 -0.7434  0.4104
 3031TIP3    H230729   4.903   4.894   0.607  0.8937  0.8689 -0.4242
 3032TIP3   OH230730   5.228   5.503   0.538 -0.5888 -0.1825  0.1268
 3032TIP3    H130731   5.324   5.505   0.535 -0.5804 -0.8319 -0.3033
 3032TIP3    H230732   5.200   5.562   0.469 -0.5076  0.5691  0.7286
 3033TIP3   OH230733   4.442   0.479   0.019 -0.8298 -0.2737 -0.1021
 3033TIP3    H130734   4.455   0.540   0.092 -0.3379  1.6980 -1.7370
 3033TIP3    H230735   4.529   0.446  -0.001 -0.8544 -0.2233 -0.2923
 3034TIP3   OH230736   1.685   2.841   2.252 -0.4481 -0.0337  0.0908
 3034TIP3    H130737   1.686   2.937   2.254  1.9193 -0.0071  2.4217
 3034TIP3    H230738   1.753   2.818   2.188  0.3647 -0.0937  0.9508
 3035TIP3   OH230739   5.131   4.691   7.280 -0.4027 -0.5573 -0.3732
 3035TIP3    H130740   5.087   4.758   7.228 -1.6951 -2.0590 -1.3571
 3035TIP3    H230741   5.173   4.738   7.351 -1.3906  1.2589 -0.9342
 3036TIP3   OH230742   0.762   0.541   2.235 -0.0645  0.1142  0.2047
 3036TIP3    H130743   0.733   0.602   2.303 -1.2370 -0.9481  0.6947
 3036TIP3    H230744   0.817   0.478   2.281 -0.8243 -0.5817  0.1824
 3037TIP3   OH230745   6.091   1.660   2.071  0.4285 -0.5665  0.4442
 3037TIP3    H130746   6.045   1.743   2.081  1.6449  0.1620  0.1137
 3037TIP3    H230747   6.159   1.661   2.138  1.7925 -0.3515 -0.8990
 3038TIP3   OH230748   2.239   1.673   2.354 -0.3904 -0.5467 -0.4738
 3038TIP3    H130749   2.310   1.719   2.309 -1.3630  0.5438 -0.9334
 3038TIP3    H230750   2.182   1.642   2.284 -2.5050  2.1053 -0.0829
 3039TIP3   OH230751   5.571   3.380   0.730  0.0143 -0.2227 -0.2101
 3039TIP3    H130752   5.539   3.369   0.640  1.5393 -1.6832 -0.6293
 3039TIP3    H230753   5.647   3.438   0.720 -0.2570  0.2163  0.2525
 3040TIP3   OH230754   0.279   4.855   1.370  0.6575 -0.5805  0.5044
 3040TIP3    H130755   0.290   4.909   1.449  1.0512 -0.2566  0.2320
 3040TIP3    H230756   0.364   4.814   1.357 -0.0386 -2.4822  1.5660
 3041TIP3   OH230757   2.277   1.530   2.793  0.2984  0.2047  0.2782
 3041TIP3    H130758   2.263   1.600   2.730 -0.7551 -0.2273  0.0200
 3041TIP3    H230759   2.216   1.550   2.865  0.2612 -0.2417  0.3734
 3042TIP3   OH230760   2.375   0.614   7.413 -0.0943 -0.2491  0.2454
 3042TIP3    H130761   2.369   0.576   7.500  0.4162  0.5004  0.6156
 3042TIP3    H230762   2.368   0.708   7.427  1.3321 -0.0292 -0.3743
 3043TIP3   OH230763   4.522   4.368   0.558  0.0884  0.8506  0.3250
 3043TIP3    H130764   4.431   4.352   0.584  0.0420 -0.1546 -0.3800
 3043TIP3    H230765   4.524   4.461   0.535 -1.0804  0.6233 -0.8163
 3044TIP3   OH230766   0.481   5.294   1.254  0.0056 -0.1160  0.1911
 3044TIP3    H130767   0.443   5.247   1.327 -1.7402  2.6020  1.1863
 3044TIP3    H230768   0.407   5.334   1.209  1.1859 -0.2319 -2.0347
 3045TIP3   OH230769   3.316   3.858   7.821  0.0798  0.3383  0.0981
 3045TIP3    H130770   3.346   3.941   7.783 -0.1419 -0.3769 -1.7863
 3045TIP3    H230771   3.233   3.880   7.864 -0.0552  1.0866 -0.5148
 3046TIP3   OH230772   6.529   1.947   7.796 -0.0833 -0.1590 -0.2104
 3046TIP3    H130773   6.462   1.992   7.745 -1.2647 -0.9481  0.5941
 3046TIP3    H230774   6.605   2.006   7.793 -1.9529  2.6650  1.9146
 3047TIP3   OH230775   4.406   0.781   1.470  0.5738 -0.0797  0.0832
 3047TIP3    H130776   4.391   0.768   1.564  1.2648 -0.4886  0.1381
 3047TIP3    H230777   4.500   0.768   1.459  0.5212  0.1424 -0.6431
 3048TIP3   OH230778   2.848   3.855   7.529  0.2660  0.6661  0.9131
 3048TIP3    H130779   2.811   3.804   7.600 -1.9527  0.5444 -0.2486
 3048TIP3    H230780   2.778   3.915   7.503  1.4130  1.5130 -0.4015
 3049TIP3   OH230781   3.110   2.826   0.774 -0.1477  0.3302  0.0779
 3049TIP3    H130782   3.053   2.869   0.710 -0.5306  1.3576  1.0675
 3049TIP3    H230783   3.122   2.891   0.843 -1.1242 -1.3152  1.8843
 3050TIP3   OH230784   0.361   2.022   2.597 -0.0062  0.1325  0.2865
 3050TIP3    H130785   0.326   2.082   2.663 -0.1034 -1.0735  1.3771
 3050TIP3    H230786   0.361   2.073   2.516 -1.9175  0.9819  0.7514
 3051TIP3   OH230787   2.318   0.859   0.109 -0.4603  0.2840  0.0105
 3051TIP3    H130788   2.304   0.947   0.074  2.2157  1.3733  1.4284
 3051TIP3    H230789   2.409   0.839   0.087  0.0106 -0.7121  2.5371
 3052TIP3   OH230790   2.374   3.948   0.141  0.4480 -0.1188  0.5727
 3052TIP3    H130791   2.281   3.930   0.131  0.7098 -1.1584 -0.2441
 3052TIP3    H230792   2.412   3.865   0.171  0.8111  0.9139  3.1947
 3053TIP3   OH230793   5.709   0.274   0.763  0.3083  0.8436  0.0348
 3053TIP3    H130794   5.646   0.325   0.813  0.4478 -1.7514  3.1872
 3053TIP3    H230795   5.656   0.207   0.719  0.6040 -0.0034  0.9268
 3054TIP3   OH230796   1.899   5.628   0.218 -0.9078  0.4032 -0.7923
 3054TIP3    H130797   1.918   5.696   0.283  1.5006  0.1793 -1.1579
 3054TIP3    H230798   1.806   5.612   0.227 -0.9701  1.5631  1.4514
 3055TIP3   OH230799   0.661   2.984   2.962  0.0342  0.0888 -0.0673
 3055TIP3    H130800   0.589   3.046   2.962  0.4711  0.6012 -0.1226
 3055TIP3    H230801   0.619   2.899   2.947 -0.3177  0.6512 -2.8582
 3056TIP3   OH230802   3.543   2.917   2.606 -0.4789 -0.5494  0.3754
 3056TIP3    H130803   3.567   2.824   2.600  0.1545 -0.4176  0.7882
 3056TIP3    H230804   3.564   2.941   2.696 -0.1120  0.1402  0.1125
 3057TIP3   OH230805   4.712   3.018   7.311 -0.5451  0.6418  0.3340
 3057TIP3    H130806   4.713   3.023   7.216  0.4420  0.2149  0.3129
 3057TIP3    H230807   4.733   2.927   7.331  0.3620  0.9812  0.9800
 3058TIP3   OH230808   5.131   2.133   8.070 -0.2289 -0.3267  0.2496
 3058TIP3    H130809   5.221   2.164   8.061 -0.0979 -1.2455 -2.2445
 3058TIP3    H230810   5.139   2.049   8.114  0.2741 -0.8955 -0.8791
 3059TIP3   OH230811   6.735   3.886   0.675 -0.7174 -0.1550  0.4300
 3059TIP3    H130812   6.666   3.935   0.630 -1.2431  0.4748  1.8627
 3059TIP3    H230813   6.690   3.836   0.743  0.2795  0.9085  1.9467
 3060TIP3   OH230814   0.900   1.245   0.600 -0.4489  0.7360  0.6169
 3060TIP3    H130815   0.962   1.220   0.668 -0.5615 -0.4831  0.3015
 3060TIP3    H230816   0.816   1.212   0.631 -0.4647 -0.0451 -0.1908
 3061TIP3   OH230817   1.195   4.889   2.246  0.2448 -0.5903 -0.1336
 3061TIP3    H130818   1.170   4.981   2.237 -0.1831 -0.3861  2.3065
 3061TIP3    H230819   1.161   4.846   2.168  0.8968  1.3841 -1.5800
 3062TIP3   OH230820   6.380   4.513   8.024  0.0759  0.5566  0.8425
 3062TIP3    H130821   6.347   4.535   8.111 -0.9903 -0.9867  0.8753
 3062TIP3    H230822   6.449   4.448   8.041 -0.1304  0.2591  0.5375
 3063TIP3   OH230823   2.484   4.576   1.342  0.0511 -0.3311  0.1487
 3063TIP3    H130824   2.524   4.499   1.302  0.6952  0.3238 -0.4912
 3063TIP3    H230825   2.522   4.650   1.295  0.3702  0.4427  1.5618
 3064TIP3   OH230826   1.131   5.795   2.347  0.3688 -0.3679  0.0185
 3064TIP3    H130827   1.225   5.777   2.356  0.4260 -0.6638 -0.9710
 3064TIP3    H230828   1.122   5.829   2.258 -0.6736 -1.8814 -0.4902
 3065TIP3   OH230829   1.262   3.923   0.611  0.9021  0.0049  0.5049
 3065TIP3    H130830   1.172   3.891   0.605  0.9867 -0.6893  2.2974
 3065TIP3    H230831   1.315   3.855   0.570  0.6586  0.1496 -0.0523
 3066TIP3   OH230832   2.802   1.780   0.595 -0.5419 -0.0418 -0.5499
 3066TIP3    H130833   2.758   1.698   0.573  1.6758 -1.2655 -0.7068
 3066TIP3    H230834   2.827   1.771   0.687  1.1681 -0.2916 -1.0074
 3067TIP3   OH230835   5.841   5.117   0.513  0.3812  0.3500 -0.5758
 3067TIP3    H130836   5.812   5.084   0.428  1.3267 -1.0095 -0.4185
 3067TIP3    H230837   5.895   5.193   0.493  2.5744 -1.3097 -1.4586
 3068TIP3   OH230838   1.909   4.959   8.247 -0.7490  0.6115  0.0635
 3068TIP3    H130839   1.893   4.867   8.268 -0.5358  0.4097 -0.6359
 3068TIP3    H230840   2.003   4.971   8.263 -0.7263  0.6373 -0.0832
 3069TIP3   OH230841   2.006   0.470   1.860 -0.1957  0.1171  0.0929
 3069TIP3    H130842   1.928   0.416   1.875  1.4536 -2.2079  0.7376
 3069TIP3    H230843   2.012   0.526   1.937 -0.9376 -0.0441  0.2749
 3070TIP3   OH230844   3.057   6.684   1.592 -0.2101  0.1761  0.1369
 3070TIP3    H130845   3.006   6.603   1.595  1.4467 -0.8787  0.9455
 3070TIP3    H230846   3.124   6.669   1.526  1.6989 -0.1525  2.0351
 3071TIP3   OH230847   6.157   4.437   1.458  0.2882 -0.1841 -0.5328
 3071TIP3    H130848   6.155   4.532   1.463 -0.0876 -0.2161 -0.0689
 3071TIP3    H230849   6.067   4.412   1.438  0.5963 -0.3873 -1.7622
 3072TIP3   OH230850   5.348   3.745   1.162 -0.0785 -0.4912 -0.1037
 3072TIP3    H130851   5.360   3.688   1.238  0.2122  0.7433  0.7964
 3072TIP3    H230852   5.401   3.705   1.093 -0.7456 -1.9039  0.1693
 3073TIP3   OH230853   2.493   0.501   7.876  0.2694 -0.2044  0.2952
 3073TIP3    H130854   2.472   0.521   7.785  0.6119  2.7114  0.7705
 3073TIP3    H230855   2.410   0.474   7.915 -0.1977  0.0704 -0.5026
 3074TIP3   OH230856   1.895   6.603   1.041  0.4385  0.0347  0.3884
 3074TIP3    H130857   1.908   6.544   0.966 -1.3086 -1.8673  1.4640
 3074TIP3    H230858   1.891   6.690   1.002 -0.5329 -0.8969 -1.7852
 3075TIP3   OH230859   1.904   1.420   2.815  0.1945  0.1217  0.2209
 3075TIP3    H130860   1.809   1.408   2.823 -0.2838  1.7949 -1.9607
 3075TIP3    H230861   1.939   1.332   2.805 -1.2180 -0.4823  0.3795
 3076TIP3   OH230862   4.760   6.485   1.460 -0.2045  0.4628 -0.0098
 3076TIP3    H130863   4.777   6.526   1.375 -0.8644  0.8334  0.0383
 3076TIP3    H230864   4.666   6.469   1.461 -0.1574  0.1969  0.5403
 3077TIP3   OH230865   5.074   1.452   0.004  0.2757 -0.0548  0.0561
 3077TIP3    H130866   5.013   1.431  -0.067  0.7044 -0.2757 -0.2511
 3077TIP3    H230867   5.151   1.398  -0.013  0.6825  0.4469  0.2686
 3078TIP3   OH230868   3.901   3.419   1.186  0.1022  0.3791  0.4515
 3078TIP3    H130869   3.907   3.368   1.267  1.2763  1.3586  1.0101
 3078TIP3    H230870   3.985   3.404   1.142 -0.3848  0.1466 -0.4211
 3079TIP3   OH230871   4.309   1.945   0.585  0.2347  0.2710  0.0504
 3079TIP3    H130872   4.342   1.893   0.659 -0.6821  1.4201  1.3312
 3079TIP3    H230873   4.387   1.981   0.545  0.7071  1.3884  1.8407
 3080TIP3   OH230874   0.424   5.527   7.706 -0.5977  0.0069  0.6473
 3080TIP3    H130875   0.375   5.543   7.625  0.1281  0.7800  0.3430
 3080TIP3    H230876   0.425   5.612   7.750  0.2076 -0.0622  0.7817
 3081TIP3   OH230877   1.227   6.087   2.223 -0.2395  0.7238 -0.4330
 3081TIP3    H130878   1.148   6.122   2.182  0.6562  2.2619 -0.9228
 3081TIP3    H230879   1.269   6.035   2.155  0.3172  1.7830 -0.9186
 3082TIP3   OH230880   6.657   6.400   1.714 -0.6028  0.0097 -0.4941
 3082TIP3    H130881   6.592   6.456   1.758  1.7323  1.6554  1.1460
 3082TIP3    H230882   6.674   6.329   1.777  2.2733  2.0222  1.2910
 3083TIP3   OH230883   6.511   5.810   0.568 -0.2326  0.0753  0.0604
 3083TIP3    H130884   6.555   5.748   0.627 -0.6959 -0.7179 -0.4098
 3083TIP3    H230885   6.582   5.862   0.531  0.1753 -0.2328  0.3954
 3084TIP3   OH230886   2.479   0.979   7.203 -0.0321 -0.1358  1.0806
 3084TIP3    H130887   2.546   0.931   7.252 -0.1055 -0.6619  0.6694
 3084TIP3    H230888   2.529   1.033   7.142  0.0171 -0.8970  0.4311
 3085TIP3   OH230889   6.711   4.661   0.293  0.1591 -0.3912  0.0505
 3085TIP3    H130890   6.691   4.625   0.206  0.8200 -0.3447 -0.1289
 3085TIP3    H230891   6.652   4.615   0.352  0.5560 -1.3247 -0.2558
 3086TIP3   OH230892   1.504   5.776   7.086  0.0009 -0.1860 -0.1623
 3086TIP3    H130893   1.548   5.860   7.075 -1.2368  0.6736  1.0711
 3086TIP3    H230894   1.569   5.711   7.060  1.4120  1.0861  0.0369
 3087TIP3   OH230895   5.750   1.105   0.766  0.2397  0.1291  0.6939
 3087TIP3    H130896   5.695   1.147   0.832 -2.2915 -0.4617 -0.8891
 3087TIP3    H230897   5.714   1.016   0.758  2.2848 -0.7181  0.4864
 3088TIP3   OH230898   4.977   1.076   3.077  0.1021 -0.0847 -0.4550
 3088TIP3    H130899   4.907   1.020   3.043  1.2431 -1.0689 -1.2488
 3088TIP3    H230900   4.941   1.113   3.158 -1.8818  0.6358 -1.5968
 3089TIP3   OH230901   3.913   1.617   8.520  0.2699 -0.5215 -0.0994
 3089TIP3    H130902   3.941   1.690   8.575  0.0679 -0.0425 -0.6306
 3089TIP3    H230903   3.980   1.611   8.452 -0.4948  0.1527 -0.9406
 3090TIP3   OH230904   1.896   2.731   2.655  0.4867 -0.0491  0.0967
 3090TIP3    H130905   1.820   2.739   2.598 -0.8184 -1.7513  1.5094
 3090TIP3    H230906   1.968   2.772   2.606 -1.1160  0.7783 -1.6480
 3091TIP3   OH230907   0.654   4.752   0.216  0.4519 -0.1266  0.0936
 3091TIP3    H130908   0.693   4.749   0.128 -0.4632  2.6009 -0.5029
 3091TIP3    H230909   0.679   4.668   0.256  1.9930 -0.9127 -2.2802
 3092TIP3   OH230910   1.270   0.317   0.231 -0.0989  0.1353 -0.3014
 3092TIP3    H130911   1.261   0.356   0.318  1.5379 -0.3563  0.1312
 3092TIP3    H230912   1.181   0.293   0.206 -0.6669  0.7692  1.0048
 3093TIP3   OH230913   3.607   4.445   0.149 -0.2452  1.0647 -0.3859
 3093TIP3    H130914   3.602   4.384   0.222  3.2240  2.8496  1.5744
 3093TIP3    H230915   3.576   4.395   0.074 -0.5285 -2.0513  1.6432
 3094TIP3   OH230916   0.266   3.718   2.200  0.2400  0.0387  0.2186
 3094TIP3    H130917   0.281   3.797   2.147 -0.8620 -0.2809 -0.6049
 3094TIP3    H230918   0.354   3.684   2.218  0.6794  0.8643 -0.3410
 3095TIP3   OH230919   0.131   0.231   1.642 -0.2728 -0.4814 -0.2428
 3095TIP3    H130920   0.204   0.260   1.587 -0.5375 -2.0215 -1.4619
 3095TIP3    H230921   0.055   0.277   1.607 -0.0085  0.7248  0.6978
 3096TIP3   OH230922   1.387   0.227   1.051 -0.4538  0.4560  0.3624
 3096TIP3    H130923   1.333   0.299   1.081 -0.3433  0.0832  1.5277
 3096TIP3    H230924   1.452   0.215   1.121 -0.3955 -0.6800  0.1401
 3097TIP3   OH230925   0.539   6.608   1.211 -0.0150 -0.2982  0.3573
 3097TIP3    H130926   0.525   6.529   1.160  0.0802 -0.4587  0.5790
 3097TIP3    H230927   0.611   6.586   1.270  1.3458  0.5725 -0.9077
 3098TIP3   OH230928   3.058   2.706   7.922 -0.1681  0.2458  0.4748
 3098TIP3    H130929   3.046   2.616   7.893  1.0285  0.0109  0.6571
 3098TIP3    H230930   3.150   2.710   7.950  0.1957  1.8901 -0.8304
 3099TIP3   OH230931   5.846   2.260   0.597 -0.1142  0.3861  0.3188
 3099TIP3    H130932   5.921   2.306   0.560 -0.6568  1.3127  0.3600
 3099TIP3    H230933   5.820   2.197   0.529  1.5333 -0.9272  0.8371
 3100TIP3   OH230934   3.128   6.635   3.091 -0.9539 -0.4231 -0.5502
 3100TIP3    H130935   3.062   6.704   3.094  2.1843  2.8915  2.6010
 3100TIP3    H230936   3.176   6.651   3.009 -0.8641  0.4963 -0.3193
 3101TIP3   OH230937   1.298   0.410   3.079 -0.2387  0.1285  0.0490
 3101TIP3    H130938   1.215   0.361   3.080 -0.1608 -0.0165 -0.2804
 3101TIP3    H230939   1.298   0.459   3.161 -0.3712 -0.3375  0.3336
 3102TIP3   OH230940   3.917   4.473   8.316 -0.0444 -0.1139  0.3017
 3102TIP3    H130941   3.987   4.496   8.377 -1.9564  1.0592  2.2156
 3102TIP3    H230942   3.844   4.445   8.372 -0.9362 -1.9370 -1.6253
 3103TIP3   OH230943   2.375   4.840   0.082  0.0563 -0.0083  0.0470
 3103TIP3    H130944   2.423   4.904   0.031  0.0365  0.3124  0.4213
 3103TIP3    H230945   2.440   4.802   0.142  0.2465 -0.9296 -0.7223
 3104TIP3   OH230946   4.869   4.132   0.704  0.0215 -0.0289 -0.3004
 3104TIP3    H130947   4.872   4.050   0.753  0.5902 -1.2283 -2.2313
 3104TIP3    H230948   4.878   4.201   0.770 -1.0945 -1.4763  1.4381
 3105TIP3   OH230949   1.143   2.325   2.625 -0.0430  0.1956 -0.2430
 3105TIP3    H130950   1.133   2.333   2.720 -0.3750 -1.8490 -0.0531
 3105TIP3    H230951   1.056   2.341   2.589 -0.0364  0.4118 -0.1635
 3106TIP3   OH230952   0.482   3.168   1.080 -0.0673  0.1847  0.5384
 3106TIP3    H130953   0.445   3.243   1.127  0.6780  0.8353  0.1015
 3106TIP3    H230954   0.506   3.203   0.994  1.9548 -0.0887  0.9468
 3107TIP3   OH230955   4.536   5.967   8.225 -0.4636  0.0421 -0.0057
 3107TIP3    H130956   4.553   6.054   8.189 -0.4239 -0.2266 -0.6643
 3107TIP3    H230957   4.440   5.962   8.232 -0.4609  0.1727  0.1137
 3108TIP3   OH230958   4.376   5.801   1.290  0.1436  0.2125  0.2044
 3108TIP3    H130959   4.353   5.846   1.371 -0.6111  0.3921 -0.1036
 3108TIP3    H230960   4.299   5.749   1.268  0.2504  0.3422 -0.5127
 3109TIP3   OH230961   4.016   2.303   8.242  0.0990  0.3268  0.0987
 3109TIP3    H130962   4.075   2.368   8.204  1.2774 -0.6022  0.2910
 3109TIP3    H230963   3.989   2.341   8.326 -0.1252  1.0471 -0.2846
 3110TIP3   OH230964   6.863   4.902   2.885 -0.1217 -0.3384 -0.2929
 3110TIP3    H130965   6.953   4.928   2.902 -0.1181 -2.1270  3.5787
 3110TIP3    H230966   6.810   4.965   2.933 -0.7271 -0.9783 -0.0960
 3111TIP3   OH230967   0.689   0.318   1.274  0.1342 -0.2990  0.4588
 3111TIP3    H130968   0.651   0.235   1.243  1.2285 -0.5953 -0.1525
 3111TIP3    H230969   0.643   0.336   1.355 -1.8536 -0.2268 -0.6311
 3112TIP3   OH230970   2.370   4.904   7.998 -0.4150  0.2053  0.1165
 3112TIP3    H130971   2.295   4.930   7.945 -0.3437  1.0190  0.4074
 3112TIP3    H230972   2.375   4.969   8.067  0.7169  0.3104 -0.0416
 3113TIP3   OH230973   3.328   3.963   8.261 -0.4225  0.4346 -0.1863
 3113TIP3    H130974   3.340   4.051   8.297 -0.9855  0.4191  0.0461
 3113TIP3    H230975   3.396   3.955   8.195  0.2709  0.6824  0.4729
 3114TIP3   OH230976   2.409   2.070   0.844  0.0067 -0.1941  0.1512
 3114TIP3    H130977   2.440   2.084   0.754 -0.0169  0.0046  0.1732
 3114TIP3    H230978   2.478   2.106   0.899 -0.1848  0.0958  0.2038
 3115TIP3   OH230979   2.384   2.436   0.769  0.0012 -0.4825 -0.2543
 3115TIP3    H130980   2.474   2.415   0.793 -0.2745 -1.1115  0.2656
 3115TIP3    H230981   2.372   2.527   0.798  0.7229 -0.1060 -1.1020
 3116TIP3   OH230982   5.616   2.263   8.083 -0.9657 -0.2612 -0.2848
 3116TIP3    H130983   5.644   2.354   8.098  0.5911 -0.8706  0.6386
 3116TIP3    H230984   5.666   2.211   8.145 -1.0963 -1.8850 -1.4783
 3117TIP3   OH230985   1.582   5.847   2.125  0.3992  0.5053  0.1684
 3117TIP3    H130986   1.548   5.760   2.145  0.3165  0.8362  1.5617
 3117TIP3    H230987   1.666   5.830   2.082  0.6804 -0.2651  0.9825
 3118TIP3   OH230988   5.554   1.818   7.011  0.4722 -0.3731  0.5524
 3118TIP3    H130989   5.621   1.756   7.040  0.0789 -0.9325  0.2859
 3118TIP3    H230990   5.580   1.840   6.921  0.7524  0.0523  0.7337
 3119TIP3   OH230991   4.741   3.004   1.398 -0.4975 -0.0692  0.0151
 3119TIP3    H130992   4.691   2.970   1.324 -0.3078 -0.4487  0.0579
 3119TIP3    H230993   4.793   2.929   1.427 -0.2821  0.1873  0.2859
 3120TIP3   OH230994   3.205   3.791   2.378  0.1469  0.1068  0.5704
 3120TIP3    H130995   3.135   3.753   2.431  0.7934 -1.5369  0.2967
 3120TIP3    H230996   3.180   3.775   2.288 -0.3885  1.8917  0.3539
 3121TIP3   OH230997   1.598   1.233   8.598 -0.1938 -0.7329  0.3123
 3121TIP3    H130998   1.556   1.263   8.678  0.8768 -1.1855  1.0533
 3121TIP3    H230999   1.644   1.311   8.565  1.1291 -1.0761  1.2931
 3122TIP3   OH231000   0.138   2.577   0.491  0.4247  0.3437 -0.4303
 3122TIP3    H131001   0.200   2.649   0.503  0.8439  0.0173 -0.5768
 3122TIP3    H231002   0.111   2.584   0.400  1.8388 -0.7335 -0.9677
 3123TIP3   OH231003   6.571   0.107   0.974  0.1861 -0.3480 -0.3744
 3123TIP3    H131004   6.575   0.124   1.068  1.5911 -0.7324 -0.3407
 3123TIP3    H231005   6.576   0.194   0.934 -1.3088 -0.1187 -0.0981
 3124TIP3   OH231006   5.486   3.886   1.750 -0.1307  0.2852 -0.7577
 3124TIP3    H131007   5.433   3.837   1.686 -0.3697  0.0528 -0.3899
 3124TIP3    H231008   5.426   3.952   1.784 -0.3014 -0.2109 -0.0742
 3125TIP3   OH231009   3.219   4.496   0.166  0.0271 -0.5226 -0.4186
 3125TIP3    H131010   3.276   4.483   0.242 -0.1947 -0.0645 -0.1679
 3125TIP3    H231011   3.131   4.476   0.199 -0.2663  1.0858 -0.1427
 3126TIP3   OH231012   2.140   4.941   7.186  0.6337 -0.0973 -0.2795
 3126TIP3    H131013   2.203   4.870   7.197  1.3270  0.5879  0.2794
 3126TIP3    H231014   2.143   4.961   7.092  1.2019 -0.1229 -0.2717
 3127TIP3   OH231015   4.118   6.546   8.745 -0.0164  0.1654  0.3221
 3127TIP3    H131016   4.123   6.527   8.839 -4.5098  2.3528  1.2938
 3127TIP3    H231017   4.086   6.464   8.706  1.4899 -0.6377  0.7135
 3128TIP3   OH231018   0.779   3.274   1.118 -0.0421  0.7809  0.5491
 3128TIP3    H131019   0.844   3.278   1.048 -0.7880  0.4375 -0.1695
 3128TIP3    H231020   0.709   3.219   1.083  0.1526 -0.5076  2.0527
 3129TIP3   OH231021   5.279   0.763   3.070 -0.3552  0.1194  0.3468
 3129TIP3    H131022   5.255   0.764   2.977  0.8094  0.6416  0.0455
 3129TIP3    H231023   5.373   0.746   3.071 -0.7973 -2.8255  1.5537
 3130TIP3   OH231024   2.941   3.794   0.996 -0.8953  0.2326  0.6743
 3130TIP3    H131025   2.894   3.805   0.914  0.4257  0.6864 -0.0534
 3130TIP3    H231026   2.997   3.717   0.981 -1.6148 -0.5059  1.6363
 3131TIP3   OH231027   4.011   3.261   2.595  0.0720  0.3036  0.1251
 3131TIP3    H131028   3.966   3.228   2.673 -1.8792 -0.5935 -1.2786
 3131TIP3    H231029   4.092   3.300   2.628  0.2287 -1.6970  2.3969
 3132TIP3   OH231030   1.652   4.409   8.192  0.3356  0.3531  0.3211
 3132TIP3    H131031   1.580   4.455   8.150  0.9936  1.5243  0.4144
 3132TIP3    H231032   1.633   4.414   8.286  1.4578  2.3836  0.4948
 3133TIP3   OH231033   4.819   1.266   7.679 -0.3345 -0.6256  0.6899
 3133TIP3    H131034   4.772   1.189   7.712  0.1938 -0.7551  1.1511
 3133TIP3    H231035   4.901   1.266   7.727  0.5364 -0.9183 -0.7563
 3134TIP3   OH231036   0.770   3.327   0.436  0.3612  0.2328  0.3425
 3134TIP3    H131037   0.792   3.350   0.526 -2.4486  1.0969  0.9183
 3134TIP3    H231038   0.717   3.248   0.444  0.0980  0.3091 -0.5636
 3135TIP3   OH231039   4.340   3.808   0.161  0.8135  0.0097 -0.3113
 3135TIP3    H131040   4.293   3.861   0.097  0.8897  0.2771 -0.1480
 3135TIP3    H231041   4.371   3.732   0.112 -2.0046 -1.5327  0.0542
 3136TIP3   OH231042   4.034   4.485   2.286  0.0424 -0.2041  0.5627
 3136TIP3    H131043   4.124   4.510   2.302  0.6424 -1.2297 -0.9864
 3136TIP3    H231044   4.033   4.390   2.297 -0.5807 -0.3485 -0.5615
 3137TIP3   OH231045   6.020   2.763   2.830 -0.0790  0.2206 -0.0232
 3137TIP3    H131046   6.039   2.676   2.864 -0.1852  0.9587  2.0813
 3137TIP3    H231047   6.081   2.820   2.875 -0.8779  1.3999 -0.3882
 3138TIP3   OH231048   3.284   6.222   2.073  0.3718  0.0736  0.3202
 3138TIP3    H131049   3.269   6.150   2.134  0.6978  1.3950  2.0723
 3138TIP3    H231050   3.344   6.281   2.120  1.2065  0.8370 -1.5786
 3139TIP3   OH231051   5.754   4.614   7.542 -0.3384  0.3637  0.6259
 3139TIP3    H131052   5.669   4.637   7.580  0.0623  1.4438  0.8972
 3139TIP3    H231053   5.767   4.678   7.472 -0.6646 -1.0581 -0.7946
 3140TIP3   OH231054   0.651   1.979   2.193 -0.3051 -1.2483  0.2147
 3140TIP3    H131055   0.592   2.044   2.156 -0.6959 -2.6423 -1.8103
 3140TIP3    H231056   0.603   1.943   2.267 -0.1138  0.6338  1.3166
 3141TIP3   OH231057   6.570   2.035   2.584 -0.2905  0.4116 -0.1197
 3141TIP3    H131058   6.562   1.945   2.616 -0.8782  0.1191 -1.0485
 3141TIP3    H231059   6.513   2.085   2.642  0.4756  0.2916  0.7599
 3142TIP3   OH231060   5.274   5.591   2.171 -0.6230  0.4212 -0.2437
 3142TIP3    H131061   5.236   5.512   2.133  0.5578 -0.1084 -0.3741
 3142TIP3    H231062   5.292   5.567   2.262  0.2290  0.3374 -0.4204
 3143TIP3   OH231063   2.798   1.232   8.735  0.4027  0.6514 -0.0787
 3143TIP3    H131064   2.709   1.198   8.730  0.6718  0.0705 -1.1868
 3143TIP3    H231065   2.788   1.327   8.723 -0.0031  0.4994 -1.0067
 3144TIP3   OH231066   0.816   5.863   1.155 -0.1332  0.1138  0.3928
 3144TIP3    H131067   0.904   5.859   1.191 -0.6803  2.3356  2.2265
 3144TIP3    H231068   0.759   5.835   1.227 -1.0386  0.7573 -0.0463
 3145TIP3   OH231069   3.792   5.131   7.668 -0.0193 -0.0114 -0.2565
 3145TIP3    H131070   3.871   5.183   7.663 -0.9038  1.4635  0.3756
 3145TIP3    H231071   3.727   5.190   7.707 -1.4767 -1.1036 -0.9487
 3146TIP3   OH231072   4.146   5.581   2.293 -0.5740  0.1748 -0.4505
 3146TIP3    H131073   4.143   5.670   2.260 -0.4287  0.4503  0.2540
 3146TIP3    H231074   4.087   5.581   2.369  1.6820  0.4938  1.4278
 3147TIP3   OH231075   6.813   3.524   2.628  0.1140 -0.1979 -0.3480
 3147TIP3    H131076   6.871   3.495   2.699 -0.0290 -1.7911 -0.8316
 3147TIP3    H231077   6.755   3.588   2.670 -0.0055 -1.1444  1.0148
 3148TIP3   OH231078   0.500   6.014   7.723 -0.1812 -0.1235  0.1601
 3148TIP3    H131079   0.542   6.064   7.793 -1.7821  0.5633  0.6852
 3148TIP3    H231080   0.566   6.008   7.655  0.3194  2.1946  0.3476
 3149TIP3   OH231081   1.651   0.690   8.379 -0.0630 -0.5321  0.4991
 3149TIP3    H131082   1.729   0.644   8.408  0.1529 -0.1856  0.4691
 3149TIP3    H231083   1.670   0.783   8.393 -0.4663 -0.4441  0.4922
 3150TIP3   OH231084   0.606   3.150   0.820  0.8270 -0.3273  0.0479
 3150TIP3    H131085   0.631   3.236   0.784  2.4349 -0.1474  1.5032
 3150TIP3    H231086   0.654   3.087   0.767  0.5320 -0.2732 -0.2897
 3151TIP3   OH231087   1.665   0.319   8.635 -0.3388  0.4428  0.3366
 3151TIP3    H131088   1.696   0.392   8.581  2.0455 -0.5165  0.2857
 3151TIP3    H231089   1.704   0.241   8.596 -1.5706 -0.7091  1.2982
 3152TIP3   OH231090   5.344   1.214   6.695 -0.0193 -0.8113 -0.2241
 3152TIP3    H131091   5.331   1.278   6.765  2.5499 -0.8907  0.4535
 3152TIP3    H231092   5.267   1.157   6.699 -1.0679  0.6241  0.9285
 3153TIP3   OH231093   4.378   2.181   8.728  0.0857 -0.3666 -0.5078
 3153TIP3    H131094   4.284   2.167   8.715 -0.2692  1.5050 -0.3269
 3153TIP3    H231095   4.388   2.277   8.726  2.0656 -0.5404 -1.0133
 3154TIP3   OH231096   5.914   0.037   8.077  0.1826 -0.0106 -0.1878
 3154TIP3    H131097   5.946   0.016   7.988  1.9052  0.2399  0.3312
 3154TIP3    H231098   5.965  -0.021   8.134  0.8979  1.5447  0.8218
 3155TIP3   OH231099   0.677   4.419   0.588 -0.4135 -0.2773  0.6515
 3155TIP3    H131100   0.731   4.479   0.639 -1.4039 -0.0986  1.5284
 3155TIP3    H231101   0.694   4.333   0.626 -0.7326 -0.2200  0.9317
 3156TIP3   OH231102   6.466   2.613   7.737  1.0475 -0.3600  0.1677
 3156TIP3    H131103   6.444   2.615   7.644 -0.1257  0.3379  0.4529
 3156TIP3    H231104   6.533   2.680   7.747 -1.1114  1.8794  0.3691
 3157TIP3   OH231105   6.058   1.673   1.377  0.1715  0.1814  0.3144
 3157TIP3    H131106   6.025   1.649   1.463 -0.3836  2.1429  0.7037
 3157TIP3    H231107   6.115   1.748   1.394  0.6245  0.1515 -0.9567
 3158TIP3   OH231108   4.915   2.143   8.688  0.5042  0.0351 -0.2076
 3158TIP3    H131109   4.823   2.118   8.697  0.7372 -0.5913  0.6201
 3158TIP3    H231110   4.929   2.149   8.594 -0.3218 -0.0796 -0.3515
 3159TIP3   OH231111   2.315   0.228   0.749 -0.8260 -0.5480  0.3995
 3159TIP3    H131112   2.309   0.322   0.769  1.4896 -0.1424 -0.4465
 3159TIP3    H231113   2.382   0.223   0.680 -0.7040 -2.8521  0.6192
 3160TIP3   OH231114   3.298   4.167   7.926 -0.8256  0.0138  0.2002
 3160TIP3    H131115   3.367   4.122   7.877 -1.0405  0.0146 -0.1090
 3160TIP3    H231116   3.342   4.202   8.003 -0.3282  0.6497 -0.3610
 3161TIP3   OH231117   6.301   3.951   2.298  0.0310 -0.3270  0.4802
 3161TIP3    H131118   6.295   3.909   2.384  1.9703  2.6664  2.2580
 3161TIP3    H231119   6.387   3.927   2.265 -1.3024 -2.7879 -1.5375
 3162TIP3   OH231120   4.239   3.098   1.198 -0.2898 -0.1772 -0.7851
 3162TIP3    H131121   4.204   3.038   1.265  0.9182 -1.6747 -1.4195
 3162TIP3    H231122   4.240   3.183   1.241 -0.1539 -0.9809  0.9117
 3163TIP3   OH231123   1.045   3.854   7.978 -0.0178 -0.5177  0.1013
 3163TIP3    H131124   1.010   3.814   7.899 -2.2999  2.6068 -0.6393
 3163TIP3    H231125   1.125   3.898   7.949  1.4288 -2.6899  0.5238
 3164TIP3   OH231126   5.476   6.225   2.008  0.2618  0.1255 -0.2538
 3164TIP3    H131127   5.400   6.176   2.039  1.2652 -1.2204  0.1773
 3164TIP3    H231128   5.495   6.286   2.079  1.9616 -2.2809  1.5383
 3165TIP3   OH231129   0.889   2.262   1.260  0.2274 -0.5280  0.9531
 3165TIP3    H131130   0.859   2.257   1.351  0.3182  0.3985  1.0397
 3165TIP3    H231131   0.844   2.337   1.224 -1.5136 -2.1490 -0.4395
 3166TIP3   OH231132   0.233   4.650   8.389 -0.2506  0.0447 -0.1037
 3166TIP3    H131133   0.236   4.620   8.299 -2.5949  0.5806 -0.4288
 3166TIP3    H231134   0.218   4.571   8.441 -0.7006 -0.0429 -0.3679
 3167TIP3   OH231135   1.760   2.137   2.597  0.6574 -0.2953 -0.2160
 3167TIP3    H131136   1.815   2.210   2.626 -0.1133  0.1533  0.1476
 3167TIP3    H231137   1.804   2.059   2.632  0.2252  0.1614  1.4525
 3168TIP3   OH231138   2.067   2.124   2.307  0.2990 -0.0380 -1.2481
 3168TIP3    H131139   2.002   2.185   2.273  0.0481  1.4571  1.6866
 3168TIP3    H231140   2.023   2.039   2.306 -0.4297  0.3258 -2.4757
 3169TIP3   OH231141   3.976   0.892   3.126  0.3448 -0.2145 -0.4871
 3169TIP3    H131142   3.898   0.902   3.182 -1.0529  2.7386 -2.6899
 3169TIP3    H231143   4.042   0.949   3.166  0.4878 -0.6470 -0.0942
 3170TIP3   OH231144   5.391   5.998   0.201 -0.0369  0.4690  0.3597
 3170TIP3    H131145   5.407   6.092   0.211 -1.1094  0.5935  1.1308
 3170TIP3    H231146   5.318   5.980   0.260 -0.9012 -0.5507 -0.9567
 3171TIP3   OH231147   6.539   3.733   1.799 -0.2555  0.4868  0.6287
 3171TIP3    H131148   6.527   3.827   1.811 -0.0857  0.4919  0.7641
 3171TIP3    H231149   6.464   3.705   1.747  0.2137  0.8700 -0.2749
 3172TIP3   OH231150   4.054   1.175   8.576  0.1540  0.1856  0.0521
 3172TIP3    H131151   3.995   1.250   8.570 -1.3279 -0.9669 -0.1957
 3172TIP3    H231152   4.044   1.142   8.665 -0.3104 -0.5765 -0.2705
 3173TIP3   OH231153   4.536   2.521   8.223 -0.0117 -0.2509  0.1234
 3173TIP3    H131154   4.511   2.585   8.156 -1.4258 -1.3218 -0.4060
 3173TIP3    H231155   4.454   2.492   8.261  0.7346 -0.1363  1.9327
 3174TIP3   OH231156   1.232   5.289   2.018  0.0510 -0.4978  0.9282
 3174TIP3    H131157   1.240   5.342   2.098  0.5790 -0.8233  1.0999
 3174TIP3    H231158   1.319   5.293   1.978 -0.9643  2.2901 -1.3606
 3175TIP3   OH231159   6.277   2.757   7.284 -0.6259  0.0103 -0.1513
 3175TIP3    H131160   6.259   2.727   7.195 -1.9385  2.0806 -0.6669
 3175TIP3    H231161   6.331   2.835   7.273  0.4774 -0.5454  0.9890
 3176TIP3   OH231162   6.081   3.979   3.130  0.3388 -0.0073  0.0930
 3176TIP3    H131163   6.114   3.922   3.061 -1.3691 -0.2869 -0.5594
 3176TIP3    H231164   6.097   3.930   3.211 -1.7584 -1.8777 -0.5038
 3177TIP3   OH231165   2.722   4.281   0.626 -0.6976 -0.2909 -0.3195
 3177TIP3    H131166   2.763   4.362   0.596 -2.6940  0.5603 -0.9271
 3177TIP3    H231167   2.772   4.211   0.583  0.4842  0.6470 -0.5124
 3178TIP3   OH231168   4.800   0.068   0.695  0.2107 -0.8943  0.4275
 3178TIP3    H131169   4.777   0.160   0.680  0.0696 -1.1452 -0.9935
 3178TIP3    H231170   4.753   0.045   0.776 -1.0747 -0.1682 -0.0778
 3179TIP3   OH231171   2.250   5.673   2.098 -0.2374 -0.4585  0.2186
 3179TIP3    H131172   2.211   5.723   2.170  0.2483 -1.2932  1.0822
 3179TIP3    H231173   2.344   5.688   2.107 -0.1192 -1.1758  0.2265
 3180TIP3   OH231174   5.691   4.854   2.130  0.2164  0.0061  0.2476
 3180TIP3    H131175   5.673   4.905   2.051  1.8242  0.5618  0.2106
 3180TIP3    H231176   5.761   4.795   2.105  0.6025  0.0426  1.1969
 3181TIP3   OH231177   2.169   1.475   1.217 -0.1198  0.1529 -0.0462
 3181TIP3    H131178   2.202   1.515   1.297  0.2585  1.1626 -0.6981
 3181TIP3    H231179   2.235   1.494   1.150 -1.4855  1.3353 -1.1369
 3182TIP3   OH231180   3.697   0.022   8.434  0.2151  0.6790 -0.4628
 3182TIP3    H131181   3.692   0.063   8.521 -1.7930 -2.0957  0.9282
 3182TIP3    H231182   3.768  -0.042   8.442 -0.2284  0.1438 -0.6842
 3183TIP3   OH231183   6.275   1.397   2.689 -0.5108  0.3184  0.3773
 3183TIP3    H131184   6.360   1.439   2.703  0.2556 -0.4578 -1.5464
 3183TIP3    H231185   6.231   1.453   2.624 -1.2153  0.3739  0.8922
 3184TIP3   OH231186   4.588   3.775   1.107 -0.0710  0.0275  0.1621
 3184TIP3    H131187   4.657   3.717   1.139  0.1393 -0.9224 -1.8293
 3184TIP3    H231188   4.566   3.740   1.021 -2.1147  1.1177  0.1888
 3185TIP3   OH231189   1.726   4.853   2.720 -0.1022 -0.0744 -0.1094
 3185TIP3    H131190   1.735   4.948   2.727 -2.6998  0.1296  3.9161
 3185TIP3    H231191   1.765   4.820   2.801  0.5451 -2.4727 -1.3328
 3186TIP3   OH231192   2.057   4.964   1.202 -0.1331  0.4818  0.6133
 3186TIP3    H131193   1.984   4.942   1.259  0.8945  0.4297  1.9725
 3186TIP3    H231194   2.135   4.952   1.257  0.8658  1.0760 -0.6110
 3187TIP3   OH231195   1.013   1.043   7.969  0.0788  0.0871 -0.3575
 3187TIP3    H131196   1.036   1.084   8.052 -1.0594 -0.3100  0.1597
 3187TIP3    H231197   0.925   1.076   7.949 -0.0212 -0.5199 -0.9524
 3188TIP3   OH231198   1.183   5.180   7.611  0.1661 -0.8575 -0.4020
 3188TIP3    H131199   1.124   5.246   7.647  1.4122 -0.4007  0.8635
 3188TIP3    H231200   1.131   5.099   7.612 -0.6483 -0.3445  0.0683
 3189TIP3   OH231201   5.562   4.262   0.757 -0.6379  0.4470  0.2275
 3189TIP3    H131202   5.480   4.311   0.748 -1.7626 -1.4351 -0.3062
 3189TIP3    H231203   5.592   4.248   0.667 -0.1483  0.4599  0.3874
 3190TIP3   OH231204   5.663   6.250   7.854  0.1718 -0.2356 -0.3648
 3190TIP3    H131205   5.594   6.315   7.870  0.2674  0.0190 -0.9467
 3190TIP3    H231206   5.701   6.233   7.940  1.3786  1.8749 -0.4032
 3191TIP3   OH231207   3.308   5.604   7.749  0.0090 -0.3341 -0.0933
 3191TIP3    H131208   3.275   5.629   7.662  0.6163 -2.9431 -1.1543
 3191TIP3    H231209   3.229   5.579   7.798 -0.1220 -1.3265 -0.7893
 3192TIP3   OH231210   0.647   1.579   3.095  0.0037  0.1245  0.0046
 3192TIP3    H131211   0.634   1.548   3.005 -0.8734  1.5773 -0.3912
 3192TIP3    H231212   0.742   1.579   3.107  0.1204 -0.1986 -0.8664
 3193TIP3   OH231213   3.676   4.150   8.125 -0.1033  0.2110  0.2053
 3193TIP3    H131214   3.618   4.097   8.071  0.4379  0.9916 -1.2184
 3193TIP3    H231215   3.628   4.231   8.140 -0.8529 -0.5396  2.2140
 3194TIP3   OH231216   0.080   3.922   1.650  0.2613 -0.2805 -0.0999
 3194TIP3    H131217   0.143   3.952   1.584  1.1825 -0.3537  0.7313
 3194TIP3    H231218   0.059   3.832   1.624  2.2617 -1.0817  0.8640
 3195TIP3   OH231219   4.270   4.368   1.146  0.0429 -0.2400  0.2321
 3195TIP3    H131220   4.203   4.418   1.191  1.9658  1.3008  1.5589
 3195TIP3    H231221   4.345   4.369   1.205  1.5041 -1.2297 -1.4943
 3196TIP3   OH231222   2.492   1.713   0.061 -0.9937 -0.7632  0.0214
 3196TIP3    H131223   2.435   1.706   0.138 -1.4222 -1.2625 -0.3340
 3196TIP3    H231224   2.436   1.688  -0.013 -0.8054  0.4503 -0.5581
 3197TIP3   OH231225   3.314   2.016   0.639  0.1660 -0.5101 -0.0854
 3197TIP3    H131226   3.286   1.967   0.716  0.6824 -1.6643 -0.6158
 3197TIP3    H231227   3.377   1.959   0.596 -0.4675 -0.0994 -1.6305
 3198TIP3   OH231228   0.641   1.906   0.559  0.0090  0.4965 -0.0976
 3198TIP3    H131229   0.568   1.954   0.521  0.0737  0.1100 -0.7351
 3198TIP3    H231230   0.648   1.938   0.649 -0.4996  1.0333 -0.2482
 3199TIP3   OH231231   0.994   5.462   0.861 -0.2987 -0.3749  0.1586
 3199TIP3    H131232   0.958   5.517   0.930 -1.5159 -1.4390  0.4115
 3199TIP3    H231233   0.999   5.519   0.784 -0.7648  0.2982  0.6189
 3200TIP3   OH231234   4.322   6.542   2.472  0.3565 -0.4074  0.6939
 3200TIP3    H131235   4.255   6.507   2.413  0.9558 -0.3988 -0.0132
 3200TIP3    H231236   4.352   6.467   2.523  0.8757 -0.7294 -0.0633
 3201TIP3   OH231237   5.328   2.898   1.151 -0.1240  0.0810 -0.1391
 3201TIP3    H131238   5.278   2.868   1.227 -0.7023 -0.3516 -0.6872
 3201TIP3    H231239   5.389   2.826   1.133 -0.1440  0.0881 -0.2330
 3202TIP3   OH231240   6.787   1.695   1.414 -0.1871 -0.0100  0.0775
 3202TIP3    H131241   6.768   1.629   1.481 -2.3277  0.9160  0.4790
 3202TIP3    H231242   6.760   1.655   1.332  1.9075 -0.9315 -0.2216
 3203TIP3   OH231243   1.046   5.128   2.125  0.9223  0.0680  0.0379
 3203TIP3    H131244   0.994   5.131   2.044 -0.2152 -1.3799  0.6700
 3203TIP3    H231245   1.120   5.186   2.108  0.1398  0.6403 -1.6411
 3204TIP3   OH231246   5.069   6.197   1.118  0.2378  0.3942  0.1736
 3204TIP3    H131247   5.003   6.179   1.185 -0.3605  1.4702 -0.1021
 3204TIP3    H231248   5.031   6.266   1.065  0.7157 -0.4156 -1.2744
 3205TIP3   OH231249   1.495   0.111   8.031 -0.4118 -0.0779  0.0095
 3205TIP3    H131250   1.571   0.145   8.079 -0.2375 -1.3491  0.6919
 3205TIP3    H231251   1.456   0.047   8.090  0.4497 -2.5360 -1.9090
 3206TIP3   OH231252   2.197   4.022   2.033  0.7201 -0.6120  0.3635
 3206TIP3    H131253   2.136   3.966   1.985  0.0706  0.5023 -0.1276
 3206TIP3    H231254   2.178   4.005   2.125  0.2410 -0.8850  0.2137
 3207TIP3   OH231255   6.158   3.401   1.212 -0.4184 -0.1618  0.3892
 3207TIP3    H131256   6.133   3.328   1.156 -1.1695 -0.1063  0.6334
 3207TIP3    H231257   6.195   3.466   1.152 -1.0221 -0.1863 -0.0186
 3208TIP3   OH231258   1.844   0.420   1.247  0.0588  0.3056  0.0977
 3208TIP3    H131259   1.763   0.463   1.274 -0.0806  0.5468 -0.6850
 3208TIP3    H231260   1.829   0.327   1.266  0.5524  0.6042  2.2674
 3209TIP3   OH231261   2.489   4.213   1.490 -0.0593  0.1624  0.1952
 3209TIP3    H131262   2.532   4.228   1.406  1.1457 -0.8415  0.6180
 3209TIP3    H231263   2.526   4.280   1.548 -1.3100  1.2291 -0.1744
 3210TIP3   OH231264   5.643   1.985   7.740 -0.5266 -0.3052  0.2855
 3210TIP3    H131265   5.717   1.927   7.754 -1.1782 -1.5029 -0.9540
 3210TIP3    H231266   5.679   2.073   7.747  0.9218 -0.8694  0.1380
 3211TIP3   OH231267   2.419   5.306   0.345 -0.5433  0.3378 -0.1462
 3211TIP3    H131268   2.505   5.344   0.365 -1.4277  2.7350 -0.4825
 3211TIP3    H231269   2.366   5.324   0.423 -0.6353 -1.5953  0.2695
 3212TIP3   OH231270   2.972   5.580   8.234  0.3127 -0.3885  0.6129
 3212TIP3    H131271   3.023   5.505   8.266 -0.3511 -0.3318  1.8312
 3212TIP3    H231272   2.926   5.546   8.157  0.7452 -0.9604  0.6015
 3213TIP3   OH231273   5.407   5.770   1.411 -0.1487  0.3234  0.2202
 3213TIP3    H131274   5.438   5.693   1.363 -0.1288  0.6717 -0.3331
 3213TIP3    H231275   5.342   5.810   1.353  0.2970  1.0719  0.2200
 3214TIP3   OH231276   5.173   2.380   1.525 -0.0251  0.3046  0.0865
 3214TIP3    H131277   5.219   2.411   1.447  1.0363 -2.8377 -0.6840
 3214TIP3    H231278   5.240   2.381   1.594 -0.5056  1.4569  0.5605
 3215TIP3   OH231279   0.215   6.150   7.420  0.0384  0.4335  0.1609
 3215TIP3    H131280   0.138   6.115   7.465 -1.0502  0.2630 -1.7467
 3215TIP3    H231281   0.251   6.075   7.373  1.2765  0.5590  0.8714
 3216TIP3   OH231282   1.439   4.786   0.005  0.2467 -0.4335 -0.2094
 3216TIP3    H131283   1.506   4.800  -0.062 -0.7926  1.6059 -0.9174
 3216TIP3    H231284   1.453   4.857   0.067  0.0102 -1.2018  0.7426
 3217TIP3   OH231285   3.867   0.116   7.338 -0.0370 -0.3036  0.4436
 3217TIP3    H131286   3.823   0.135   7.422  0.4890 -1.1036  0.9138
 3217TIP3    H231287   3.940   0.059   7.362 -0.0770 -0.8143 -0.6117
 3218TIP3   OH231288   5.119   4.300   0.268 -0.1055  0.0651  0.4620
 3218TIP3    H131289   5.193   4.309   0.328  0.1714 -1.2343  0.3640
 3218TIP3    H231290   5.151   4.335   0.185  0.5543 -0.8321  0.3200
 3219TIP3   OH231291   1.058   5.050   0.275 -0.3692 -0.0884 -0.5014
 3219TIP3    H131292   1.076   5.045   0.369 -1.0673  0.4945 -0.3266
 3219TIP3    H231293   1.128   4.999   0.234  0.0002 -0.2586  0.3274
 3220TIP3   OH231294   2.374   5.217   8.459  0.1587  0.3549  0.3250
 3220TIP3    H131295   2.468   5.226   8.476  0.1625  1.2413 -0.1030
 3220TIP3    H231296   2.341   5.167   8.534  0.4427  2.7018  2.1433
 3221TIP3   OH231297   5.887   3.363   1.647 -0.0013  0.3802 -0.0122
 3221TIP3    H131298   5.871   3.441   1.700 -0.5393 -0.4930  1.1582
 3221TIP3    H231299   5.963   3.386   1.593  2.1077  0.5337  2.8027
 3222TIP3   OH231300   1.149   4.944   8.414 -0.4456  0.3045  0.1247
 3222TIP3    H131301   1.182   4.949   8.503  0.8640 -1.8175 -0.1494
 3222TIP3    H231302   1.214   4.991   8.361 -0.6042  0.5549  0.1507
 3223TIP3   OH231303   2.548   2.813   8.648 -0.5007 -0.2182  0.1451
 3223TIP3    H131304   2.592   2.891   8.615  1.6229 -0.8690  1.2719
 3223TIP3    H231305   2.505   2.776   8.571  0.9329  0.4933 -1.0586
 3224TIP3   OH231306   4.761   4.497   7.339 -0.6812  0.4175 -0.1030
 3224TIP3    H131307   4.855   4.484   7.323 -0.4304  0.3170  1.3272
 3224TIP3    H231308   4.758   4.562   7.409 -1.5953 -1.3727  1.5890
 3225TIP3   OH231309   2.947   0.136   1.462  0.1735  0.4533 -0.4338
 3225TIP3    H131310   3.013   0.114   1.396  0.8922  0.6978  0.1776
 3225TIP3    H231311   2.942   0.058   1.518  1.7447  1.2724  0.9441
 3226TIP3   OH231312   4.898   1.147   0.738 -0.3114 -0.3365 -0.7992
 3226TIP3    H131313   4.883   1.160   0.831 -2.1646  0.3198 -1.1313
 3226TIP3    H231314   4.810   1.149   0.700  0.4293 -0.2686 -2.5979
 3227TIP3   OH231315   3.468   6.833   0.843  0.4663  0.6935  0.0181
 3227TIP3    H131316   3.401   6.792   0.898 -0.7435  2.3170 -0.1403
 3227TIP3    H231317   3.454   6.927   0.856 -0.0785  1.1806 -3.2536
 3228TIP3   OH231318   3.621   2.368   1.140  0.3373  0.0190 -0.4611
 3228TIP3    H131319   3.583   2.431   1.201  1.0829  0.9770 -0.9663
 3228TIP3    H231320   3.559   2.295   1.140 -1.2007  1.2585 -0.8053
 3229TIP3   OH231321   5.974   2.624   2.223  0.5395  0.1973  0.2546
 3229TIP3    H131322   6.028   2.548   2.202 -0.5216 -0.1198 -1.6109
 3229TIP3    H231323   6.036   2.697   2.228  1.2082 -0.0846 -2.2477
 3230TIP3   OH231324   1.187   5.082   2.667 -0.4450 -0.2939 -0.2225
 3230TIP3    H131325   1.094   5.066   2.654 -0.3025 -1.1451 -0.2532
 3230TIP3    H231326   1.220   5.002   2.709  0.9005 -1.4148 -3.1533
 3231TIP3   OH231327   3.461   0.186   2.521 -0.3702  0.3577 -0.2901
 3231TIP3    H131328   3.420   0.218   2.601 -0.9473 -1.2043  0.0741
 3231TIP3    H231329   3.543   0.147   2.550 -0.8494 -0.7313 -0.3527
 3232TIP3   OH231330   0.689   0.440   7.693  0.0868 -0.3140 -0.4659
 3232TIP3    H131331   0.686   0.528   7.731 -0.4317 -0.3879 -0.3258
 3232TIP3    H231332   0.771   0.438   7.643  0.7163 -0.1664  0.5266
 3233TIP3   OH231333   0.858   0.461   1.074 -0.2505 -0.0986 -0.4207
 3233TIP3    H131334   0.810   0.398   1.129 -0.2605 -0.7801 -1.1977
 3233TIP3    H231335   0.789   0.508   1.027 -0.2129 -0.0289 -0.4056
 3234TIP3   OH231336   5.589   0.197   2.022  0.0594  0.4185  0.0243
 3234TIP3    H131337   5.506   0.192   2.070 -0.3059 -0.1261 -0.6514
 3234TIP3    H231338   5.637   0.119   2.050  0.4113  0.8026  0.5164
 3235TIP3   OH231339   3.616   6.202   8.276  0.4164  0.7018  0.0335
 3235TIP3    H131340   3.542   6.142   8.283 -1.3428  2.8037  0.5942
 3235TIP3    H231341   3.675   6.160   8.214 -1.0974 -1.2192 -0.1993
 3236TIP3   OH231342   3.484   5.560   1.845  0.4963  0.0607  0.1259
 3236TIP3    H131343   3.439   5.513   1.915 -0.5026 -0.5139 -0.8806
 3236TIP3    H231344   3.480   5.501   1.770  1.3136  0.7819 -0.5077
 3237TIP3   OH231345   5.616   1.376   1.682 -0.2516 -0.3448  0.2248
 3237TIP3    H131346   5.633   1.448   1.622 -0.4269 -0.0732  0.4975
 3237TIP3    H231347   5.683   1.384   1.750 -0.7968  0.0879  0.7240
 3238TIP3   OH231348   3.167   5.983   8.009 -0.5292 -0.3747 -0.3721
 3238TIP3    H131349   3.200   5.939   7.931 -0.3253  0.3163 -0.6884
 3238TIP3    H231350   3.205   6.071   8.005 -1.0718 -0.1062  0.1423
 3239TIP3   OH231351   0.302   4.362   7.679  0.0534  0.0866 -0.6396
 3239TIP3    H131352   0.278   4.433   7.620 -0.4189 -0.0033 -0.5559
 3239TIP3    H231353   0.396   4.373   7.692 -0.1235  1.0926 -0.0980
 3240TIP3   OH231354   6.194   3.805   0.920  0.3351 -0.2656 -0.2672
 3240TIP3    H131355   6.125   3.863   0.952 -0.2081 -0.5909 -0.8566
 3240TIP3    H231356   6.269   3.825   0.977 -0.5197 -0.6091  1.0116
 3241TIP3   OH231357   2.638   6.692   8.644  0.0998  0.0396  0.2070
 3241TIP3    H131358   2.729   6.671   8.624 -0.4483 -0.7550 -1.7974
 3241TIP3    H231359   2.620   6.647   8.727  1.2405 -0.6854  0.0873
 3242TIP3   OH231360   5.977   0.428   1.795 -0.2691  0.8299  0.2200
 3242TIP3    H131361   5.973   0.348   1.847 -0.8314 -0.1385 -1.2532
 3242TIP3    H231362   5.983   0.499   1.860  0.1190 -0.3782  1.5488
 3243TIP3   OH231363   4.103   1.413   8.748  0.1364  0.1066  0.1471
 3243TIP3    H131364   4.144   1.395   8.833  2.1530 -1.9584 -1.1395
 3243TIP3    H231365   4.014   1.381   8.757  0.3162 -0.0569  1.4916
 3244TIP3   OH231366   6.129   2.815   8.298  0.1445 -0.2369 -0.3703
 3244TIP3    H131367   6.166   2.738   8.341 -1.7935 -1.7261 -1.2200
 3244TIP3    H231368   6.186   2.831   8.223  0.3696 -1.0650 -0.3778
 3245TIP3   OH231369   6.051   6.392   7.901 -0.2478  0.4267 -0.3058
 3245TIP3    H131370   6.029   6.306   7.865 -2.5747  0.0086  1.8412
 3245TIP3    H231371   5.986   6.451   7.864 -0.9200  0.5157  0.9446
 3246TIP3   OH231372   6.098   3.117   2.620 -0.3848 -0.0331  0.2033
 3246TIP3    H131373   6.104   3.202   2.664  1.2563 -0.5031  0.9568
 3246TIP3    H231374   6.087   3.054   2.692 -1.0486 -0.5317 -0.3152
 3247TIP3   OH231375   6.517   1.885   3.018  0.2428 -0.0347  0.0603
 3247TIP3    H131376   6.536   1.793   3.036  2.2761  0.6238  1.6802
 3247TIP3    H231377   6.597   1.919   2.979 -0.8771  0.8330 -1.5962
 3248TIP3   OH231378   4.078   1.922   0.766  0.5014 -0.2205  0.4643
 3248TIP3    H131379   4.027   1.910   0.686  3.3753 -1.1668 -1.3755
 3248TIP3    H231380   4.134   1.998   0.748 -1.0368  1.6897  2.9623
 3249TIP3   OH231381   2.477   0.058   1.363  0.2391 -0.1146  0.3757
 3249TIP3    H131382   2.560   0.037   1.322 -0.1240  1.1723 -1.1202
 3249TIP3    H231383   2.411   0.028   1.301 -0.3971 -0.4251  1.1837
 3250TIP3   OH231384   1.707   0.742   2.842 -0.6139  0.0332  0.3374
 3250TIP3    H131385   1.723   0.778   2.929  0.1298 -0.8576  0.5806
 3250TIP3    H231386   1.770   0.789   2.786 -1.0747  0.5873  0.2767
 3251TIP3   OH231387   4.962   4.656   1.405 -0.2792  0.2356 -0.8644
 3251TIP3    H131388   4.926   4.716   1.470 -2.1985 -2.1138  0.3906
 3251TIP3    H231389   5.057   4.668   1.412 -0.5312  1.7996  0.5879
 3252TIP3   OH231390   0.480   0.221   8.069 -0.6181 -0.0403  0.3651
 3252TIP3    H131391   0.535   0.159   8.117  0.6996  1.1121  0.4084
 3252TIP3    H231392   0.479   0.188   7.979 -1.5088 -1.1377  0.7426
 3253TIP3   OH231393   1.418   3.763   7.887  0.3160 -0.2121  0.0712
 3253TIP3    H131394   1.351   3.764   7.819  0.5682 -0.8758 -0.1980
 3253TIP3    H231395   1.369   3.763   7.970 -0.0124 -0.6322 -0.1202
 3254TIP3   OH231396   4.136   4.461   8.138 -0.0886 -0.0712  0.1644
 3254TIP3    H131397   4.072   4.469   8.209 -0.5715 -2.4637  0.0858
 3254TIP3    H231398   4.100   4.513   8.067 -1.2240 -0.2404  0.5996
 3255TIP3   OH231399   3.707   1.700   7.721 -0.3383 -0.0639  0.1449
 3255TIP3    H131400   3.749   1.760   7.782 -1.0473  0.4618  0.1350
 3255TIP3    H231401   3.776   1.676   7.659  0.1928 -0.0094  0.7047
 3256TIP3   OH231402   1.316   0.598   2.779  0.0144  0.0780  0.2969
 3256TIP3    H131403   1.379   0.659   2.741 -0.3899 -0.0700 -0.6348
 3256TIP3    H231404   1.232   0.622   2.739 -0.7287  0.8690  2.1832
 3257TIP3   OH231405   0.310   0.839   8.208  0.1817 -0.2880  0.2390
 3257TIP3    H131406   0.388   0.825   8.262  1.4538 -1.5995 -1.7917
 3257TIP3    H231407   0.242   0.785   8.250  1.1322 -1.2784  0.5597
 3258TIP3   OH231408   5.885   1.356   0.800  0.3173  0.5199  0.7646
 3258TIP3    H131409   5.815   1.330   0.860 -1.3553 -0.0306 -1.2963
 3258TIP3    H231410   5.840   1.375   0.718  2.4386  1.9058 -0.1490
 3259TIP3   OH231411   5.527   5.192   7.699  0.3037  0.1086 -0.6603
 3259TIP3    H131412   5.580   5.260   7.740 -0.2307  0.9614 -1.3652
 3259TIP3    H231413   5.590   5.122   7.680  0.7665  0.1548  0.5451
 3260TIP3   OH231414   5.003   2.127   7.384  0.2124  1.1166  0.4184
 3260TIP3    H131415   4.921   2.177   7.388 -0.0912  0.6408  0.2648
 3260TIP3    H231416   4.981   2.042   7.422  0.9072  1.3277  1.3333
 3261TIP3   OH231417   1.604   5.304   1.412 -0.3168  0.0508 -0.2610
 3261TIP3    H131418   1.678   5.360   1.436  0.1264 -0.6725  0.1016
 3261TIP3    H231419   1.535   5.329   1.473 -0.3361  0.6348 -0.5121
 3262TIP3   OH231420   5.549   5.603   1.248 -0.3053  0.3039 -0.0264
 3262TIP3    H131421   5.615   5.671   1.240 -2.6157  2.7540  0.2020
 3262TIP3    H231422   5.568   5.543   1.175  3.3261 -0.3618  1.2655
 3263TIP3   OH231423   3.420   4.973   1.869 -0.8425  0.2947 -0.2512
 3263TIP3    H131424   3.332   5.002   1.892 -0.8242  1.0995 -1.1179
 3263TIP3    H231425   3.415   4.953   1.776 -0.9849 -3.1359  0.3675
 3264TIP3   OH231426   0.692   3.773   7.900  0.8665 -0.0537 -0.7380
 3264TIP3    H131427   0.754   3.706   7.931  1.8998  0.9668 -0.5120
 3264TIP3    H231428   0.647   3.802   7.979  0.5453 -0.3628 -0.8092
 3265TIP3   OH231429   6.766   4.588   2.305 -0.4950 -0.4537  1.1594
 3265TIP3    H131430   6.740   4.592   2.213  1.7713  1.1893  0.5046
 3265TIP3    H231431   6.821   4.510   2.311 -0.3607 -0.3672  1.0437
 3266TIP3   OH231432   6.827   1.283   8.107  0.6104 -0.7021 -0.0689
 3266TIP3    H131433   6.886   1.242   8.171  3.2455  0.7987 -1.3659
 3266TIP3    H231434   6.834   1.227   8.029 -1.5155 -1.7551  0.4290
 3267TIP3   OH231435   6.348   6.715   8.203 -0.1964 -0.3947  0.1923
 3267TIP3    H131436   6.367   6.675   8.287 -0.6550  0.2091  0.5935
 3267TIP3    H231437   6.253   6.711   8.195 -0.4976  2.2920  1.1533
 3268TIP3   OH231438   1.925   1.010   7.209 -0.2912  0.4039 -0.3025
 3268TIP3    H131439   1.970   1.053   7.137  1.7756 -0.5792  0.3208
 3268TIP3    H231440   1.835   1.041   7.203  0.3697  2.2157 -1.8171
 3269TIP3   OH231441   0.937   1.301   1.837 -0.1775  0.1552  0.4466
 3269TIP3    H131442   0.913   1.233   1.901 -2.5155 -0.5550 -1.0485
 3269TIP3    H231443   0.969   1.251   1.761 -3.3066  0.4899 -1.2410
 3270TIP3   OH231444   0.345   3.777   8.297  0.0312 -0.2675 -1.3804
 3270TIP3    H131445   0.293   3.811   8.369 -1.2036  1.9589 -3.1764
 3270TIP3    H231446   0.292   3.706   8.260 -0.5990  0.3741 -1.7192
 3271TIP3   OH231447   0.490   4.694   2.840  0.4880  0.5580  0.1193
 3271TIP3    H131448   0.585   4.690   2.847  0.6582  0.8153 -1.6335
 3271TIP3    H231449   0.463   4.754   2.910  1.4007 -0.9309  1.8457
 3272TIP3   OH231450   5.020   6.441   0.212 -0.1706  0.4316  0.6415
 3272TIP3    H131451   4.934   6.445   0.253 -0.0268 -0.3005  1.0400
 3272TIP3    H231452   5.016   6.506   0.141 -0.7544  1.0079  1.1849
 3273TIP3   OH231453   5.528   3.150   8.282  0.1102 -0.0007  0.1963
 3273TIP3    H131454   5.500   3.114   8.366 -0.8934  2.2138  0.8777
 3273TIP3    H231455   5.623   3.140   8.283 -0.0745 -2.4067  0.3727
 3274TIP3   OH231456   2.267   2.644   3.319  0.2655  0.2007  0.4676
 3274TIP3    H131457   2.316   2.566   3.343  0.8037 -0.3332 -2.0732
 3274TIP3    H231458   2.203   2.614   3.254  0.7362  1.8842 -0.8659
 3275TIP3   OH231459   2.023   1.371   0.470  0.1648  0.1170 -0.4071
 3275TIP3    H131460   2.007   1.276   0.469  0.9457 -0.0885  1.8982
 3275TIP3    H231461   2.108   1.381   0.512  0.7530  1.8170 -1.8584
 3276TIP3   OH231462   0.283   2.999   7.393 -0.0312 -0.0763  0.4774
 3276TIP3    H131463   0.276   3.039   7.307  0.3455  0.9822  0.9241
 3276TIP3    H231464   0.375   2.976   7.402 -0.1878 -0.7697  0.3497
 3277TIP3   OH231465   3.804   2.298   0.026 -1.1649  0.0748  0.3794
 3277TIP3    H131466   3.798   2.204   0.048 -0.5622 -0.0941 -0.1699
 3277TIP3    H231467   3.713   2.329   0.032 -1.7267 -1.0438 -1.5990
 3278TIP3   OH231468   1.452   0.538   8.152 -0.0834 -0.1378 -0.4698
 3278TIP3    H131469   1.513   0.610   8.167  0.8057 -1.0448  0.4501
 3278TIP3    H231470   1.505   0.470   8.111 -0.6057 -0.7506 -0.1452
 3279TIP3   OH231471   4.460   1.423   0.041  0.4431  0.1517  0.3421
 3279TIP3    H131472   4.480   1.493   0.102 -1.0596  0.8951  0.0225
 3279TIP3    H231473   4.514   1.441  -0.036  1.0023  0.2312  0.7545
 3280TIP3   OH231474   3.208   5.139   2.149  0.3922 -0.1548 -0.3768
 3280TIP3    H131475   3.178   5.048   2.147 -1.8358  0.5125 -0.5665
 3280TIP3    H231476   3.154   5.180   2.216  0.7660  1.2085 -0.8828
 3281TIP3   OH231477   5.763   0.895   1.466 -0.0279 -0.1952  0.2821
 3281TIP3    H131478   5.810   0.967   1.508  1.2688 -0.7838 -0.1246
 3281TIP3    H231479   5.700   0.938   1.408  1.3847  0.6240 -0.6857
 3282TIP3   OH231480   1.109   5.605   1.278  0.5467  0.1227  0.7335
 3282TIP3    H131481   1.120   5.700   1.270  2.3007  0.0376  1.5923
 3282TIP3    H231482   1.177   5.568   1.222 -0.5802 -0.6632 -0.1605
 3283TIP3   OH231483   0.031   3.227   8.162  0.0359  0.6382  0.1295
 3283TIP3    H131484   0.097   3.241   8.231 -0.6719  0.5939  0.8317
 3283TIP3    H231485  -0.016   3.149   8.190  0.3980  0.0255 -0.9484
 3284TIP3   OH231486   4.932   1.291   8.553  0.0213  0.1557 -0.5266
 3284TIP3    H131487   4.930   1.197   8.571 -1.7404  0.4206  0.8439
 3284TIP3    H231488   4.969   1.297   8.464  3.6444 -1.5519  0.6635
 3285TIP3   OH231489   2.247   0.841   2.227  0.0095 -0.1906  0.1627
 3285TIP3    H131490   2.338   0.813   2.220  0.3357  0.7659  0.4559
 3285TIP3    H231491   2.208   0.778   2.288 -0.4852 -2.8099 -2.5827
 3286TIP3   OH231492   4.419   2.278   1.503  0.1419 -0.1821 -0.0487
 3286TIP3    H131493   4.384   2.228   1.430 -1.2801 -2.4153  2.0071
 3286TIP3    H231494   4.488   2.332   1.465  0.7358 -2.6081 -2.7198
 3287TIP3   OH231495   6.091   6.114   8.285 -0.1912 -0.2133  0.2368
 3287TIP3    H131496   6.145   6.069   8.349 -0.2412  0.0246  0.4457
 3287TIP3    H231497   6.102   6.063   8.204  1.4271  0.6006 -0.0899
 3288TIP3   OH231498   5.307   4.028   2.900  0.8037  0.3441 -0.2072
 3288TIP3    H131499   5.240   4.097   2.904  0.3762 -0.0051 -1.0271
 3288TIP3    H231500   5.258   3.949   2.876  1.2976 -0.2376  0.6737
 3289TIP3   OH231501   3.829   2.345   2.096 -0.1724 -0.0069 -0.0057
 3289TIP3    H131502   3.886   2.269   2.096 -2.7284 -2.1091 -1.5615
 3289TIP3    H231503   3.861   2.400   2.025  0.1575 -0.9667 -0.6111
 3290TIP3   OH231504   1.853   6.785   0.772 -0.2907  0.1993 -0.0181
 3290TIP3    H131505   1.940   6.825   0.771 -0.5556  1.0613  2.8705
 3290TIP3    H231506   1.792   6.859   0.772 -0.7976  0.1189  4.8714
 3291TIP3   OH231507   0.346   5.905   2.994 -0.4730  0.7721  0.3657
 3291TIP3    H131508   0.280   5.861   3.047  0.3104 -0.8322  0.0902
 3291TIP3    H231509   0.324   5.882   2.904  0.3274  0.3645  0.2599
 3292TIP3   OH231510   5.570   1.139   8.347  0.5460 -0.1499  0.1044
 3292TIP3    H131511   5.545   1.049   8.322 -2.0698 -0.2184  2.4651
 3292TIP3    H231512   5.553   1.143   8.441  1.2549  2.6505  0.1901
 3293TIP3   OH231513   5.505   1.678   7.895 -0.3570 -0.0717  0.7376
 3293TIP3    H131514   5.481   1.591   7.862  0.2288 -0.2505  0.7592
 3293TIP3    H231515   5.600   1.674   7.903  0.1251  1.5993 -2.3536
 3294TIP3   OH231516   5.718   3.621   0.691  0.5312  0.4775 -0.3208
 3294TIP3    H131517   5.637   3.672   0.694  1.2025  1.6903 -1.5192
 3294TIP3    H231518   5.776   3.665   0.752  0.8535  0.6920 -0.7740
 3295TIP3   OH231519   1.385   3.305   7.213  0.4703  0.2791 -0.0293
 3295TIP3    H131520   1.319   3.357   7.167  0.2841  0.8883  0.8854
 3295TIP3    H231521   1.341   3.276   7.293  1.1573  0.2947  0.3641
 3296TIP3   OH231522   1.400   3.950   7.127 -0.4832  0.6150  0.1312
 3296TIP3    H131523   1.329   3.886   7.124  0.8577 -0.9797  0.9897
 3296TIP3    H231524   1.464   3.918   7.065 -0.5618  2.1717 -0.8183
 3297TIP3   OH231525   0.490   1.175   8.251  0.0143  0.5056  0.4178
 3297TIP3    H131526   0.458   1.222   8.328 -1.1032  0.3304  0.0644
 3297TIP3    H231527   0.471   1.234   8.177  1.3405  0.8055  0.2735
 3298TIP3   OH231528   2.692   0.460   8.072 -0.0816 -0.5756  0.3038
 3298TIP3    H131529   2.663   0.425   8.157 -0.6538 -2.1031 -0.4890
 3298TIP3    H231530   2.622   0.437   8.011  0.5115  0.1483 -0.6807
 3299TIP3   OH231531   4.643   1.823   0.031 -0.5216 -0.4945 -0.1291
 3299TIP3    H131532   4.664   1.750   0.090 -1.8612  0.2173  1.2863
 3299TIP3    H231533   4.597   1.782  -0.042 -0.3378 -1.1999  0.1408
 3300TIP3   OH231534   3.870   3.675   8.680 -0.5364 -0.0663 -0.1049
 3300TIP3    H131535   3.961   3.657   8.655  0.1893  0.6884  1.8554
 3300TIP3    H231536   3.860   3.769   8.670 -0.6717  0.0457  0.9956
 3301TIP3   OH231537   5.997   2.712   1.174  0.1940 -0.3146 -0.2348
 3301TIP3    H131538   5.957   2.625   1.164  0.9871 -0.8067  0.7401
 3301TIP3    H231539   5.923   2.772   1.170 -0.1610 -0.7821 -3.4402
 3302TIP3   OH231540   1.266   2.897   8.274  0.7251 -0.0957  0.1667
 3302TIP3    H131541   1.331   2.914   8.342  2.0472 -0.7940 -0.8645
 3302TIP3    H231542   1.206   2.833   8.313  1.0831  0.0009  0.8886
 3303TIP3   OH231543   5.912   2.327   8.301 -0.4221 -0.4643 -0.4907
 3303TIP3    H131544   5.913   2.347   8.395  0.6041 -0.0749 -0.5685
 3303TIP3    H231545   5.840   2.378   8.266 -0.9669 -0.8028  0.1255
 3304TIP3   OH231546   4.382   0.060   1.513  0.2017 -0.6029  0.4943
 3304TIP3    H131547   4.439  -0.017   1.502  0.1457 -0.4781 -0.9153
 3304TIP3    H231548   4.314   0.049   1.447  1.2678  1.5665 -1.1338
 3305TIP3   OH231549   5.232   4.153   2.442  0.2918  0.2097 -0.5763
 3305TIP3    H131550   5.236   4.213   2.516 -2.0714  2.6609 -2.2337
 3305TIP3    H231551   5.164   4.091   2.466  0.2606  0.3579 -0.2689
 3306TIP3   OH231552   0.352   3.993   2.324  0.1049  0.0864 -0.4704
 3306TIP3    H131553   0.294   4.063   2.356 -0.1613 -0.5967  0.5816
 3306TIP3    H231554   0.330   3.984   2.232 -3.0054 -1.5721  0.2999
 3307TIP3   OH231555   3.661   5.776   6.584 -0.4991 -0.3305 -0.0589
 3307TIP3    H131556   3.722   5.797   6.513 -0.3276  0.5349  0.3351
 3307TIP3    H231557   3.653   5.858   6.634 -0.3052 -1.0230  1.1489
 3308TIP3   OH231558   0.606   5.463   8.055 -0.7257 -0.0762  0.1855
 3308TIP3    H131559   0.620   5.533   8.119 -2.3042  0.0889  0.3858
 3308TIP3    H231560   0.640   5.385   8.098 -1.5324  0.0764  1.1512
 3309TIP3   OH231561   3.651   0.500   3.048 -0.2594 -0.3881 -0.0869
 3309TIP3    H131562   3.729   0.451   3.074  0.7647  0.4172 -1.4562
 3309TIP3    H231563   3.639   0.565   3.117  0.5656 -0.2326 -0.0757
 3310TIP3   OH231564   5.664   3.179   8.592 -0.1032 -0.5658 -0.7162
 3310TIP3    H131565   5.647   3.267   8.560 -1.6076 -0.5905 -0.0642
 3310TIP3    H231566   5.753   3.159   8.562  0.9644  1.8211  0.5603
 3311TIP3   OH231567   5.294   3.839   8.439 -0.3088 -0.1156  0.2583
 3311TIP3    H131568   5.199   3.838   8.429 -0.2554  2.0830 -1.3417
 3311TIP3    H231569   5.318   3.748   8.457 -2.6545 -0.7994  0.2223
 3312TIP3   OH231570   4.578   1.271   0.319  0.0232 -0.0562  0.2528
 3312TIP3    H131571   4.518   1.244   0.389 -1.4882  1.3210 -0.4276
 3312TIP3    H231572   4.568   1.367   0.315  2.3153  0.2309  0.1061
 3313TIP3   OH231573   3.950   0.878   0.259 -0.4546  0.0975  0.6308
 3313TIP3    H131574   3.950   0.797   0.208  1.9806  0.1887  0.3822
 3313TIP3    H231575   3.963   0.947   0.194 -0.3168  0.4771  1.0555
 3314TIP3   OH231576   6.571   0.838   1.643  0.2962 -0.7702  0.2289
 3314TIP3    H131577   6.665   0.821   1.636  0.5580  1.0698 -1.7464
 3314TIP3    H231578   6.537   0.763   1.692  2.6203 -2.0356  0.0695
 3315TIP3   OH231579   1.393   0.494   2.406  0.5545  0.1788  0.4596
 3315TIP3    H131580   1.308   0.527   2.377 -0.7441 -0.6883  3.0155
 3315TIP3    H231581   1.437   0.571   2.442 -0.1522  0.2133  1.2882
 3316TIP3   OH231582   6.322   4.654   2.314 -0.1009  0.2564 -0.5345
 3316TIP3    H131583   6.346   4.588   2.379 -0.0316 -0.5119 -1.3298
 3316TIP3    H231584   6.234   4.629   2.284  0.0812  0.2944 -1.1212
 3317TIP3   OH231585   5.139   1.010   2.755 -0.0052  0.0141 -0.1570
 3317TIP3    H131586   5.168   0.925   2.722 -0.8595 -0.0593 -0.7325
 3317TIP3    H231587   5.063   0.989   2.809 -2.0171  0.6361 -2.5720
 3318TIP3   OH231588   4.311   1.110   8.521  0.2422 -0.6695 -0.0326
 3318TIP3    H131589   4.331   1.069   8.605  0.3079  1.5734  1.1343
 3318TIP3    H231590   4.232   1.161   8.538  0.4004  0.0176 -1.2650
 3319TIP3   OH231591   3.892   5.110   1.928  0.0520 -0.2077  0.4065
 3319TIP3    H131592   3.882   5.188   1.873  1.4176 -1.2872 -1.4915
 3319TIP3    H231593   3.813   5.059   1.910 -1.5778  1.3020  2.7842
 3320TIP3   OH231594   6.380   0.109   8.141  0.0991 -0.2818  0.0244
 3320TIP3    H131595   6.385   0.020   8.176 -0.6572 -0.0951  0.6249
 3320TIP3    H231596   6.348   0.162   8.214 -0.0652  0.3767 -0.5160
 3321TIP3   OH231597   3.677   0.323   0.348 -0.3483  0.3729 -0.2146
 3321TIP3    H131598   3.617   0.367   0.289  0.2111 -0.3673 -1.3588
 3321TIP3    H231599   3.707   0.392   0.408 -2.6919  0.6745  0.7436
 3322TIP3   OH231600   0.571   5.376   0.157  0.2409 -0.7374  0.1976
 3322TIP3    H131601   0.623   5.298   0.139  2.0953  0.3808  0.4937
 3322TIP3    H231602   0.579   5.388   0.252 -0.3581 -0.3948  0.2077
 3323TIP3   OH231603   3.004   5.782   1.862  0.2609 -0.2748 -0.1468
 3323TIP3    H131604   3.008   5.869   1.821  0.1412 -0.1946  0.0132
 3323TIP3    H231605   3.074   5.784   1.927  1.0435 -0.7124 -0.9446
 3324TIP3   OH231606   3.705   1.163   8.443 -0.0231 -0.1733  0.0864
 3324TIP3    H131607   3.703   1.259   8.438 -0.6671 -0.2131 -0.5823
 3324TIP3    H231608   3.753   1.136   8.365 -0.7553 -0.4229 -0.2886
 3325TIP3   OH231609   2.451   3.475   7.689  0.0377 -0.7081 -0.2422
 3325TIP3    H131610   2.540   3.453   7.663  0.3822 -1.4395  1.4285
 3325TIP3    H231611   2.438   3.565   7.657  2.5450  0.6451  2.1365
 3326TIP3   OH231612   6.027   6.757   0.315 -0.5591 -0.2079 -1.0538
 3326TIP3    H131613   5.933   6.757   0.335 -0.5246  0.2201 -0.8647
 3326TIP3    H231614   6.055   6.668   0.333 -1.2720 -0.8174 -2.8165
 3327TIP3   OH231615   4.339   0.839   2.171 -0.5545 -0.1150 -0.1770
 3327TIP3    H131616   4.420   0.843   2.120 -1.2880 -1.0793 -1.4717
 3327TIP3    H231617   4.269   0.853   2.107 -1.4309  0.4453  0.8758
 3328TIP3   OH231618   3.564   1.869   1.126  0.8815 -0.1915 -0.4940
 3328TIP3    H131619   3.540   1.883   1.034 -0.8066  0.1047 -0.0406
 3328TIP3    H231620   3.603   1.952   1.153 -2.9329  1.5447  0.3021
 3329TIP3   OH231621   2.694   3.959   2.136 -0.0042  0.5811 -0.0341
 3329TIP3    H131622   2.742   3.906   2.199 -0.7591  0.5517  0.5343
 3329TIP3    H231623   2.602   3.950   2.162 -0.2019  1.6822 -0.2852
 3330TIP3   OH231624   0.306   3.579   0.541 -0.7011 -0.1209  0.1797
 3330TIP3    H131625   0.276   3.527   0.616  0.6794 -0.6513  0.3974
 3330TIP3    H231626   0.356   3.517   0.488 -0.0455  0.7069 -0.1805
 3331TIP3   OH231627   2.402   1.894   8.174  0.1194  0.8124 -0.0582
 3331TIP3    H131628   2.336   1.836   8.137  0.3642  0.2135  0.4304
 3331TIP3    H231629   2.371   1.982   8.153 -0.2000  0.5117 -0.9011
 3332TIP3   OH231630   5.212   6.018   2.800  0.1503 -0.6387  0.1235
 3332TIP3    H131631   5.167   6.092   2.759  0.7347 -0.9871 -1.1901
 3332TIP3    H231632   5.144   5.974   2.851 -0.7307 -0.4969 -0.8995
 3333TIP3   OH231633   0.920   2.486   7.925 -0.4667 -0.0086  0.0054
 3333TIP3    H131634   0.929   2.474   8.020  2.6995 -0.2018 -0.1965
 3333TIP3    H231635   0.826   2.495   7.911 -1.1037 -0.5237  3.0832
 3334TIP3   OH231636   2.511   1.558   1.790  0.1347 -0.0154  0.2656
 3334TIP3    H131637   2.584   1.527   1.842 -0.1063 -0.4719  0.3345
 3334TIP3    H231638   2.540   1.547   1.699  0.1119 -0.2880  0.2918
 3335TIP3   OH231639   1.325   5.642   0.254  0.1490  0.2441 -0.6565
 3335TIP3    H131640   1.330   5.706   0.183  0.5866 -0.5878 -1.3915
 3335TIP3    H231641   1.264   5.575   0.222  2.1723 -1.3904 -1.3239
 3336TIP3   OH231642   0.243   3.259   8.347 -0.0230  0.3992  0.0983
 3336TIP3    H131643   0.265   3.183   8.399  0.3189 -0.2749 -0.9934
 3336TIP3    H231644   0.320   3.316   8.352  0.2780  0.0262 -0.2061
 3337TIP3   OH231645   1.704   4.749   0.181  0.1024  0.1579  0.3724
 3337TIP3    H131646   1.644   4.676   0.164  0.5679 -0.5461  1.6202
 3337TIP3    H231647   1.682   4.777   0.270  0.6722  0.8301  0.3096
 3338TIP3   OH231648   3.600   3.995   2.531  0.1337 -0.6586 -0.2669
 3338TIP3    H131649   3.659   3.945   2.587 -0.0016 -0.2361  0.2675
 3338TIP3    H231650   3.567   4.065   2.588 -0.4896 -0.5920 -0.7042
 3339TIP3   OH231651   5.554   6.047   2.284 -0.3617  0.1661 -0.5105
 3339TIP3    H131652   5.460   6.032   2.290 -0.2586 -1.0545 -1.6187
 3339TIP3    H231653   5.565   6.102   2.206 -0.0296 -1.2898 -1.5281
 3340TIP3   OH231654   5.739   5.674   2.582  0.1841 -0.0777  0.5842
 3340TIP3    H131655   5.673   5.611   2.553  0.6886 -2.0083  3.2786
 3340TIP3    H231656   5.821   5.642   2.544  0.2831 -0.4370  1.1003
 3341TIP3   OH231657   6.321   6.694   8.707 -0.7461  0.3310  0.0191
 3341TIP3    H131658   6.329   6.726   8.797 -0.2923  1.9132 -0.5519
 3341TIP3    H231659   6.276   6.610   8.715 -0.7532  0.4669  1.7148
 3342TIP3   OH231660   1.417   0.659   2.106  0.2682 -0.1981  0.4294
 3342TIP3    H131661   1.329   0.662   2.143  0.6072  0.4886  1.2025
 3342TIP3    H231662   1.411   0.710   2.026  0.2727  0.9892  1.1720
 3343TIP3   OH231663   4.311   4.267   0.014  0.0227  0.2066 -0.0725
 3343TIP3    H131664   4.402   4.281  -0.013  0.0716  1.1931  0.5298
 3343TIP3    H231665   4.260   4.277  -0.066  0.3374  0.9758 -0.1870
 3344TIP3   OH231666   5.441   2.176   3.056  0.2907  0.0442  0.0616
 3344TIP3    H131667   5.398   2.219   2.982 -2.2214 -0.8408  0.8834
 3344TIP3    H231668   5.458   2.087   3.025 -0.7185 -0.3127  0.4579
 3345TIP3   OH231669   5.840   4.629   2.044  0.2683 -0.0152 -0.0505
 3345TIP3    H131670   5.882   4.659   1.963  1.3060  0.5391  0.6730
 3345TIP3    H231671   5.756   4.593   2.015  1.3382 -1.4628 -1.6107
 3346TIP3   OH231672   2.200   2.997   0.544  0.2060 -0.1380 -0.4035
 3346TIP3    H131673   2.263   3.003   0.616  0.5859  1.0237 -0.8125
 3346TIP3    H231674   2.248   3.028   0.468 -1.1721  1.9247 -0.5156
 3347TIP3   OH231675   1.708   3.606   0.798 -1.0702  0.3096 -0.0210
 3347TIP3    H131676   1.685   3.566   0.882 -1.2321  0.5244  0.0368
 3347TIP3    H231677   1.733   3.532   0.743 -0.7826  0.1855  0.2714
 3348TIP3   OH231678   3.467   2.990   1.350 -0.2510  0.0321  0.3843
 3348TIP3    H131679   3.489   3.059   1.288 -1.2042  0.5792  0.6362
 3348TIP3    H231680   3.371   2.982   1.344 -0.6904  1.6486  3.3402
 3349TIP3   OH231681   0.763   2.712   1.063 -0.4260 -0.0532 -0.5594
 3349TIP3    H131682   0.684   2.714   1.117 -0.4884 -2.1168 -0.4916
 3349TIP3    H231683   0.779   2.619   1.048  1.7445  0.3307 -0.9510
 3350TIP3   OH231684   5.488   6.480   0.697 -0.2404 -0.0898 -0.0204
 3350TIP3    H131685   5.537   6.476   0.780 -0.6974  1.9277  0.3972
 3350TIP3    H231686   5.441   6.397   0.693  1.5799 -1.2105  0.5801
 3351TIP3   OH231687   6.089   1.951   2.348  0.4685 -0.3115  0.1354
 3351TIP3    H131688   6.045   2.034   2.326  0.6157 -0.0237  0.9042
 3351TIP3    H231689   6.089   1.902   2.266 -1.0758 -0.2209  0.0457
 3352TIP3   OH231690   1.214   0.177   7.951  0.4159  0.6800  0.7609
 3352TIP3    H131691   1.168   0.181   8.035  1.0661  1.1887  1.1035
 3352TIP3    H231692   1.304   0.152   7.974 -0.1878 -2.8855 -0.0958
 3353TIP3   OH231693   2.603   4.021   7.443  0.1437 -0.5173  0.2132
 3353TIP3    H131694   2.517   3.991   7.414 -0.5428  1.8076 -0.3136
 3353TIP3    H231695   2.610   4.111   7.412  3.0429 -0.8015 -0.3118
 3354TIP3   OH231696   0.542   6.066   0.058 -0.3012 -0.0857  0.0724
 3354TIP3    H131697   0.525   6.104  -0.029  2.1614 -0.6213 -0.7286
 3354TIP3    H231698   0.514   5.975   0.050 -0.2146 -0.0966 -0.1233
 3355TIP3   OH231699   6.391   2.354   3.258 -0.0608  0.1485 -0.5951
 3355TIP3    H131700   6.359   2.278   3.210 -2.3438 -0.2508  1.3710
 3355TIP3    H231701   6.440   2.317   3.332  1.5525  0.7134 -1.3201
 3356TIP3   OH231702   2.401   2.186   0.205  0.4078 -0.3676  0.2135
 3356TIP3    H131703   2.466   2.134   0.156  0.2491  0.4848 -0.9356
 3356TIP3    H231704   2.413   2.275   0.173 -0.7283 -0.0424  0.6619
 3357TIP3   OH231705   0.852   6.065   7.352  0.1908 -0.4699  0.9420
 3357TIP3    H131706   0.931   6.105   7.314 -0.1499  2.3370  2.8336
 3357TIP3    H231707   0.828   5.996   7.291  1.7064  1.3363 -1.9299
 3358TIP3   OH231708   6.476   0.756   8.400  0.2865  0.2854  0.6009
 3358TIP3    H131709   6.565   0.769   8.431  0.5359 -1.1067  0.5563
 3358TIP3    H231710   6.452   0.668   8.432 -0.4198 -0.0780 -0.8304
 3359TIP3   OH231711   5.917   0.174   7.652  0.2237 -0.0938  0.2484
 3359TIP3    H131712   5.821   0.170   7.652  0.2463 -2.7405 -0.5677
 3359TIP3    H231713   5.939   0.236   7.582 -0.9106 -1.1066 -1.0628
 3360TIP3   OH231714   2.536   6.336   1.798 -0.1730  0.4559  0.4121
 3360TIP3    H131715   2.608   6.305   1.743 -1.4595 -2.2833  0.0643
 3360TIP3    H231716   2.468   6.363   1.736 -0.9941 -1.0562  0.5943
 3361TIP3   OH231717   6.625   5.288   2.314  0.1537  0.4552 -0.1259
 3361TIP3    H131718   6.617   5.290   2.409 -1.2701 -0.2627 -0.2087
 3361TIP3    H231719   6.611   5.378   2.286 -2.5462  0.1907  0.1612
 3362TIP3   OH231720   0.860   5.631   7.434  0.4622 -0.6093 -0.0878
 3362TIP3    H131721   0.952   5.634   7.463  0.4004  1.8336  0.1157
 3362TIP3    H231722   0.865   5.609   7.341  1.3159  0.0368 -0.2096
 3363TIP3   OH231723   6.329   1.340   6.591  0.9064 -0.4421 -0.2546
 3363TIP3    H131724   6.324   1.272   6.658  0.9278 -0.7055 -0.5172
 3363TIP3    H231725   6.421   1.342   6.564  0.6535 -1.2957 -1.2449
 3364TIP3   OH231726   0.061   3.078   1.660 -0.5263  0.2126 -0.1631
 3364TIP3    H131727  -0.008   3.018   1.687 -1.9117  1.8171  0.1036
 3364TIP3    H231728   0.141   3.044   1.701 -1.3357 -1.1614  0.3365
 3365TIP3   OH231729   2.118   0.804   1.569 -0.2069 -0.5942 -0.1515
 3365TIP3    H131730   2.149   0.888   1.537  0.3724 -0.7135  0.0813
 3365TIP3    H231731   2.072   0.825   1.650  0.3923 -0.5544  0.1841
 3366TIP3   OH231732   0.660   2.560   1.469 -0.0347  0.0608 -0.0343
 3366TIP3    H131733   0.627   2.643   1.504  2.5481  1.2074 -0.0960
 3366TIP3    H231734   0.626   2.556   1.380 -1.1320  0.4587  0.3508
 3367TIP3   OH231735   3.454   3.763   2.182  0.1302 -0.6298 -0.2066
 3367TIP3    H131736   3.461   3.844   2.232  1.7625  0.3003 -1.8194
 3367TIP3    H231737   3.360   3.746   2.177 -0.2119  0.8568  0.6323
 3368TIP3   OH231738   4.134   0.456   2.500 -0.3941  0.3678  0.5975
 3368TIP3    H131739   4.163   0.521   2.435  2.0210 -0.4253  0.7757
 3368TIP3    H231740   4.120   0.507   2.580 -1.4759  1.0672 -0.0149
 3369TIP3   OH231741   5.839   6.126   8.078 -0.3588  0.0754  0.6584
 3369TIP3    H131742   5.836   6.121   8.174 -1.2676  0.9547  0.6855
 3369TIP3    H231743   5.779   6.058   8.049  0.1741 -0.4219  0.6914
 3370TIP3   OH231744   5.081   3.577   1.278 -0.1165  0.7203  0.3612
 3370TIP3    H131745   5.133   3.651   1.249  0.3836 -0.5466 -2.3090
 3370TIP3    H231746   5.027   3.611   1.349  0.5953  3.4258 -0.3041
 3371TIP3   OH231747   1.678   2.177   8.298  0.9848  0.2895  0.1554
 3371TIP3    H131748   1.585   2.190   8.316  0.8479 -0.8243  0.3432
 3371TIP3    H231749   1.717   2.264   8.310  0.0062  0.7331  0.2593
 3372TIP3   OH231750   4.108   4.461   2.872 -0.3774  0.2903 -0.1152
 3372TIP3    H131751   4.130   4.554   2.885  0.4513 -0.2751  3.6581
 3372TIP3    H231752   4.189   4.421   2.841  0.1593  0.3924  1.0955
 3373TIP3   OH231753   5.693   6.561   8.392 -0.0258  0.2946  0.0192
 3373TIP3    H131754   5.778   6.578   8.433  0.1522  0.9885 -0.5980
 3373TIP3    H231755   5.704   6.592   8.302 -1.1629  1.1099  0.1341
 3374TIP3   OH231756   6.794   1.878   7.132 -0.0142  0.1580 -0.3916
 3374TIP3    H131757   6.798   1.881   7.036  1.2429 -3.2311 -0.5784
 3374TIP3    H231758   6.878   1.913   7.161  0.1898 -0.1495 -0.6068
 3375TIP3   OH231759   5.996   6.609   2.529 -0.2239  0.0749  0.0949
 3375TIP3    H131760   6.031   6.657   2.454 -0.6888  0.4476  0.1111
 3375TIP3    H231761   6.032   6.520   2.520 -1.2586 -0.2381 -1.2757
 3376TIP3   OH231762   1.346   4.372   8.030  0.2184 -0.1115  0.2104
 3376TIP3    H131763   1.373   4.461   8.053  0.0555 -0.0445  0.1428
 3376TIP3    H231764   1.280   4.384   7.962  1.9107 -0.3404 -1.5682
 3377TIP3   OH231765   2.524   6.461   1.366 -0.0665 -0.2404 -0.1460
 3377TIP3    H131766   2.493   6.408   1.293 -1.2721 -0.8945  0.7899
 3377TIP3    H231767   2.450   6.519   1.386 -0.1484 -0.7612  1.1618
 3378TIP3   OH231768   5.645   1.791   0.734  0.3218 -0.4076  0.2416
 3378TIP3    H131769   5.648   1.760   0.643 -0.9133  0.1601 -0.0066
 3378TIP3    H231770   5.659   1.885   0.728 -1.0530 -0.1674  0.5022
 3379TIP3   OH231771   0.443   4.456   0.831 -0.0541 -0.4753 -0.1785
 3379TIP3    H131772   0.366   4.409   0.800 -0.0209 -1.6011  1.3996
 3379TIP3    H231773   0.410   4.542   0.858 -0.3708 -0.1530 -1.4804
 3380TIP3   OH231774   2.829   0.756   8.408 -0.5501  0.0062 -0.5096
 3380TIP3    H131775   2.911   0.707   8.402  0.1536  1.2511 -1.7323
 3380TIP3    H231776   2.765   0.702   8.362  0.0350 -0.1457 -1.1652
 3381TIP3   OH231777   5.624   5.438   2.535 -0.1752  0.3005 -0.3460
 3381TIP3    H131778   5.530   5.436   2.555 -0.4574  1.4565 -1.4747
 3381TIP3    H231779   5.658   5.358   2.575 -1.3293  0.6826  1.5537
 3382TIP3   OH231780   1.287   5.615   7.898  0.1253  0.3113 -0.2169
 3382TIP3    H131781   1.363   5.663   7.863  1.6044 -2.2343 -0.7567
 3382TIP3    H231782   1.220   5.625   7.830  0.1791  1.9915 -0.0689
 3383TIP3   OH231783   3.990   0.647   1.476 -0.0236 -0.3664 -0.1502
 3383TIP3    H131784   3.984   0.670   1.569  2.9620 -2.0370  0.6078
 3383TIP3    H231785   4.040   0.718   1.436 -1.6149  0.5309 -0.6129
 3384TIP3   OH231786   3.101   1.973   7.318  0.3852  0.5935  0.1014
 3384TIP3    H131787   3.139   1.910   7.380  1.0594  1.6084  0.7395
 3384TIP3    H231788   3.008   1.977   7.342  0.0379 -1.1403 -0.8094
 3385TIP3   OH231789   5.062   1.216   1.324  0.1176  0.2137  0.1108
 3385TIP3    H131790   5.001   1.246   1.391  0.5566  0.6821  0.3087
 3385TIP3    H231791   5.139   1.186   1.373  0.2175  0.0297 -0.1540
 3386TIP3   OH231792   0.210   6.359   7.601 -0.1278 -0.2158  0.3616
 3386TIP3    H131793   0.256   6.321   7.676  0.1479  1.0494  0.8548
 3386TIP3    H231794   0.206   6.287   7.537  0.7000 -0.9591  1.1064
 3387TIP3   OH231795   5.567   5.945   1.956  0.1733  0.1449 -0.0085
 3387TIP3    H131796   5.501   5.909   2.015  0.1970  0.5992  0.2998
 3387TIP3    H231797   5.545   6.038   1.949  1.5198  0.5921  1.1201
 3388TIP3   OH231798   4.883   1.353   0.377  0.0490  0.0037 -0.9317
 3388TIP3    H131799   4.803   1.321   0.335 -0.1399  0.3496 -0.8361
 3388TIP3    H231800   4.854   1.426   0.432  0.4873  0.3846 -1.1978
 3389TIP3   OH231801   2.783   0.674   0.479 -0.3459  0.6596 -0.4100
 3389TIP3    H131802   2.764   0.756   0.525 -1.3529  0.2610 -0.0804
 3389TIP3    H231803   2.705   0.619   0.494  1.2674 -1.2961  1.4965
 3390TIP3   OH231804   3.759   4.877   1.544  0.1989 -0.2440 -0.1046
 3390TIP3    H131805   3.796   4.824   1.615  1.2696 -0.8112 -1.0641
 3390TIP3    H231806   3.687   4.824   1.509 -1.1912  0.5888  1.3488
 3391TIP3   OH231807   0.622   2.319   6.813 -0.5332 -0.1454  0.9619
 3391TIP3    H131808   0.551   2.320   6.748  1.6810  3.3453 -1.8367
 3391TIP3    H231809   0.608   2.398   6.865  0.6629  0.0026  1.0893
 3392TIP3   OH231810   5.085   0.526   0.309 -0.2599 -0.5956  0.4453
 3392TIP3    H131811   5.165   0.532   0.361  0.0417  0.2753 -0.1003
 3392TIP3    H231812   5.084   0.606   0.256 -0.3393 -1.6356 -1.1972
 3393TIP3   OH231813   2.055   1.157   1.397  0.1043 -0.0984  0.1165
 3393TIP3    H131814   2.016   1.200   1.473  0.6759 -0.0821  0.4037
 3393TIP3    H231815   1.985   1.157   1.331  0.2131  1.6335 -0.0408
 3394TIP3   OH231816   0.997   3.822   0.598 -0.0149  1.0041 -0.3885
 3394TIP3    H131817   1.014   3.776   0.680  1.0254  0.3924 -0.9373
 3394TIP3    H231818   0.901   3.818   0.588 -0.0083 -0.4219 -0.0608
 3395TIP3   OH231819   0.981   2.736   0.295  0.3798 -0.2965 -0.3821
 3395TIP3    H131820   0.897   2.781   0.289  0.9760  0.9737  0.5524
 3395TIP3    H231821   0.985   2.683   0.215 -1.3639 -0.5029 -0.3706
 3396TIP3   OH231822   6.597   1.137   2.838 -0.0540  0.0201  0.2374
 3396TIP3    H131823   6.654   1.199   2.793  1.0955 -0.5864  0.8165
 3396TIP3    H231824   6.542   1.100   2.769  1.1570 -0.3433 -0.5622
 3397TIP3   OH231825   2.927   4.366   1.694 -0.1339  0.6414  0.2965
 3397TIP3    H131826   2.907   4.452   1.731  0.2416  0.3770  1.1488
 3397TIP3    H231827   2.883   4.365   1.609 -0.6578  1.4355  0.5514
 3398TIP3   OH231828   1.954   1.688   0.060  0.5397 -0.0520 -0.1644
 3398TIP3    H131829   1.938   1.594   0.067  0.4119  0.0278  0.7613
 3398TIP3    H231830   1.874   1.729   0.092  1.1070  0.3533  0.8073
 3399TIP3   OH231831   1.093   5.973   7.123 -0.5901 -0.1413 -0.2843
 3399TIP3    H131832   1.113   6.046   7.182 -1.0195 -0.8546  0.7852
 3399TIP3    H231833   1.000   5.958   7.136 -0.9055  0.2901 -1.8831
 3400TIP3   OH231834   0.284   0.743   1.740 -0.4842  0.2575 -0.1121
 3400TIP3    H131835   0.365   0.696   1.757 -0.0647  1.4621  1.4042
 3400TIP3    H231836   0.301   0.793   1.660 -0.0091 -0.0756 -0.2192
 3401TIP3   OH231837   6.503   5.370   8.561 -0.4560  0.2730  0.0089
 3401TIP3    H131838   6.411   5.350   8.544 -0.3753 -0.4812  0.4135
 3401TIP3    H231839   6.501   5.455   8.607 -0.8802  0.6818 -0.7491
 3402TIP3   OH231840   3.657   3.745   3.253  0.1503  0.6398 -0.5234
 3402TIP3    H131841   3.567   3.723   3.229 -0.7400  1.5621  1.7696
 3402TIP3    H231842   3.711   3.683   3.202 -1.7907 -0.6466 -1.1306
 3403TIP3   OH231843   5.413   2.945   0.323 -0.4702 -0.3695  0.3364
 3403TIP3    H131844   5.412   2.868   0.380  1.6599 -0.3566  0.4864
 3403TIP3    H231845   5.321   2.970   0.313 -0.9983 -1.2204  2.6057
 3404TIP3   OH231846   3.177   5.755   8.369 -0.4789  0.2259 -0.0057
 3404TIP3    H131847   3.209   5.751   8.459  1.2133  0.9949 -0.5336
 3404TIP3    H231848   3.168   5.663   8.343  0.5849 -0.0165  0.4252
 3405TIP3   OH231849   1.615   5.592   0.225 -0.1959 -0.1136 -0.1334
 3405TIP3    H131850   1.574   5.556   0.303  1.3027  0.9175  1.1931
 3405TIP3    H231851   1.543   5.635   0.178 -0.9469  0.2178  1.2637
 3406TIP3   OH231852   2.968   6.616   2.057  0.6544  0.3935  0.2918
 3406TIP3    H131853   2.990   6.697   2.103  1.6809 -0.6306  1.6797
 3406TIP3    H231854   2.988   6.546   2.119 -0.2233 -0.9475 -0.8606
 3407TIP3   OH231855   3.476   2.420   8.712 -0.1842 -0.1791  0.2779
 3407TIP3    H131856   3.415   2.483   8.751 -0.3385 -1.1776  1.7038
 3407TIP3    H231857   3.482   2.349   8.775  0.6379 -1.2259 -0.9159
 3408TIP3   OH231858   5.288   2.492   8.053  0.2865 -0.4433 -0.4866
 3408TIP3    H131859   5.193   2.489   8.055  0.2254  1.1715  0.2829
 3408TIP3    H231860   5.311   2.484   7.960 -0.6992  0.9895 -0.8817
 3409TIP3   OH231861   2.862   2.865   8.695 -0.7152 -0.0233 -0.0863
 3409TIP3    H131862   2.785   2.810   8.680 -0.9150  0.5065 -1.1518
 3409TIP3    H231863   2.858   2.930   8.625 -0.5798  1.4528  1.2190
 3410TIP3   OH231864   6.709   4.246   7.909 -0.0233 -0.3230  0.0493
 3410TIP3    H131865   6.726   4.159   7.872 -1.4861 -0.8674  0.6235
 3410TIP3    H231866   6.638   4.233   7.971 -0.4801  1.3514 -0.0808
 3411TIP3   OH231867   2.009   6.228   1.654 -0.1744  0.0248 -0.2898
 3411TIP3    H131868   2.039   6.231   1.563  0.2058  2.0817 -0.1274
 3411TIP3    H231869   2.071   6.168   1.696  0.9667  0.7051 -0.9400
 3412TIP3   OH231870   0.592   1.839   1.641  0.3070  0.2719  0.1637
 3412TIP3    H131871   0.669   1.895   1.633 -0.7203  1.6480 -0.6711
 3412TIP3    H231872   0.521   1.900   1.664 -0.1665 -1.2390  3.2959
 3413TIP3   OH231873   1.463   0.415   1.952  0.6642  0.0048 -1.1635
 3413TIP3    H131874   1.464   0.492   2.008  0.7058  0.0191 -1.1845
 3413TIP3    H231875   1.492   0.344   2.010  0.0789 -0.0988 -0.9882
 3414TIP3   OH231876   5.287   6.554   1.796 -0.2587 -0.1344 -0.0844
 3414TIP3    H131877   5.192   6.560   1.797 -0.2610 -0.1238  1.0995
 3414TIP3    H231878   5.313   6.578   1.885  0.9665  1.7614 -0.8936
 3415TIP3   OH231879   0.575   3.670   2.209 -0.3384 -0.6617 -0.1811
 3415TIP3    H131880   0.605   3.630   2.128 -0.5417 -0.5731 -0.3026
 3415TIP3    H231881   0.645   3.731   2.234  0.9280 -2.5385  1.0979
 3416TIP3   OH231882   5.019   5.886   8.069 -0.5016 -0.1536 -0.0198
 3416TIP3    H131883   5.021   5.833   8.149  0.3057 -0.7714 -0.4388
 3416TIP3    H231884   4.966   5.835   8.008  4.2273 -3.1627 -2.1727
 3417TIP3   OH231885   6.657   0.346   7.494  0.0432  0.2505 -0.4554
 3417TIP3    H131886   6.570   0.309   7.507  0.6069 -1.0426 -0.2085
 3417TIP3    H231887   6.647   0.404   7.419 -1.1660  0.6379 -0.0301
 3418TIP3   OH231888   4.212   3.883   8.700 -0.1651 -0.6497 -0.2890
 3418TIP3    H131889   4.180   3.828   8.629 -0.5405  1.0539 -1.5241
 3418TIP3    H231890   4.290   3.925   8.663  0.9872 -1.4430  1.1428
 3419TIP3   OH231891   3.342   1.375   3.097  0.7665 -0.2767 -0.3471
 3419TIP3    H131892   3.304   1.290   3.120  0.0963  0.0245 -0.3053
 3419TIP3    H231893   3.288   1.406   3.023  2.1909 -0.7313 -1.6305
 3420TIP3   OH231894   6.102   5.221   6.971  0.0249  0.2193  0.2758
 3420TIP3    H131895   6.099   5.306   6.927 -1.1160  1.3878  2.4238
 3420TIP3    H231896   6.193   5.210   6.997  1.3130 -1.5749 -4.0314
 3421TIP3   OH231897   6.783   6.759   1.020  0.0501  0.3195  0.1526
 3421TIP3    H131898   6.865   6.715   1.041  0.3958  1.1003  0.4895
 3421TIP3    H231899   6.801   6.807   0.939  0.4207  1.7065  1.0143
 3422TIP3   OH231900   5.626   6.224   0.302 -0.2447  0.2687  0.0180
 3422TIP3    H131901   5.711   6.255   0.332  0.1843 -0.6437 -0.2355
 3422TIP3    H231902   5.616   6.260   0.214  0.6380 -0.9789 -0.6208
 3423TIP3   OH231903   4.551   3.083   7.026 -0.0760 -0.5108 -0.3874
 3423TIP3    H131904   4.557   3.024   6.951 -1.3689  1.1045 -1.8381
 3423TIP3    H231905   4.501   3.034   7.091 -0.7971 -1.1722 -1.4072
 3424TIP3   OH231906   1.239   3.428   8.378  0.5252  0.6889 -0.4397
 3424TIP3    H131907   1.284   3.426   8.462  1.2568 -2.2451 -0.8080
 3424TIP3    H231908   1.303   3.465   8.317  2.3862 -2.7061 -0.7997
 3425TIP3   OH231909   2.754   2.476   8.076 -0.1721  0.2027  0.3252
 3425TIP3    H131910   2.689   2.521   8.022 -0.6825 -0.8929 -0.0105
 3425TIP3    H231911   2.706   2.452   8.155  0.7008  2.2385  1.5411
 3426TIP3   OH231912   1.430   6.271   1.266 -0.4906  0.2593 -0.0733
 3426TIP3    H131913   1.470   6.284   1.180 -1.3605  0.4206 -0.4662
 3426TIP3    H231914   1.444   6.178   1.286 -1.1337 -0.0032 -0.8324
 3427TIP3   OH231915   3.582   0.388   2.794 -0.4784  0.5468 -0.0307
 3427TIP3    H131916   3.593   0.417   2.884  0.2090 -0.8806  0.3633
 3427TIP3    H231917   3.557   0.468   2.746  3.2380  2.3043  0.6100
 3428TIP3   OH231918   1.361   3.775   0.164  0.2064  0.1331  0.2266
 3428TIP3    H131919   1.294   3.830   0.205 -0.3186  0.7689 -1.3729
 3428TIP3    H231920   1.317   3.692   0.147  0.8968 -0.7106  2.3276
 3429TIP3   OH231921   5.871   2.403   8.548 -0.6715 -0.4261 -0.2379
 3429TIP3    H131922   5.879   2.496   8.566  1.4739 -0.0902 -2.3715
 3429TIP3    H231923   5.825   2.367   8.624  1.0285  1.8754  2.0417
 3430TIP3   OH231924   4.860   3.824   1.831  0.1643 -0.7329 -0.2866
 3430TIP3    H131925   4.840   3.747   1.778 -0.8824 -0.0658 -0.9003
 3430TIP3    H231926   4.800   3.892   1.798  1.5236  0.5452 -0.2311
 3431TIP3   OH231927   2.244   6.019   0.080  0.1118 -0.3358 -0.3518
 3431TIP3    H131928   2.285   5.956   0.021  0.0558  0.6070 -1.4194
 3431TIP3    H231929   2.287   6.102   0.060 -1.2314  0.3731 -0.4046
 3432TIP3   OH231930   1.815   6.097   1.437  0.4713 -0.0832  0.4088
 3432TIP3    H131931   1.826   6.191   1.421  0.5085 -0.2617 -0.7664
 3432TIP3    H231932   1.903   6.063   1.449  0.4660  0.0110  0.7215
 3433TIP3   OH231933   2.434   5.112   7.506 -0.3877  0.0963  0.3238
 3433TIP3    H131934   2.340   5.113   7.488 -0.0343 -1.4021 -1.9868
 3433TIP3    H231935   2.475   5.112   7.420  1.7962  1.5784  1.2654
 3434TIP3   OH231936   1.492   4.656   2.034 -0.1816 -0.2379 -0.4323
 3434TIP3    H131937   1.401   4.669   2.006 -1.2421 -2.1183  1.7285
 3434TIP3    H231938   1.529   4.596   1.970 -0.5044  0.4085 -1.2354
 3435TIP3   OH231939   4.308   1.881   0.170  0.6676  0.1736  0.1389
 3435TIP3    H131940   4.391   1.929   0.168  0.2843  0.8241 -0.9407
 3435TIP3    H231941   4.272   1.891   0.082  0.7460 -2.4627 -0.2692
 3436TIP3   OH231942   1.543   2.315   7.765  0.4078 -0.0640 -0.3300
 3436TIP3    H131943   1.591   2.256   7.707  3.6508 -0.2380  2.2438
 3436TIP3    H231944   1.566   2.402   7.734  0.5978 -0.1566 -0.4562
 3437TIP3   OH231945   2.966   0.286   1.180 -0.0164 -0.0063 -0.6417
 3437TIP3    H131946   3.058   0.308   1.168  0.3158 -1.5063 -1.1269
 3437TIP3    H231947   2.944   0.318   1.268  1.0352  0.1629 -0.4322
 3438TIP3   OH231948   6.720   5.391   0.990  0.5272 -0.0872  0.5269
 3438TIP3    H131949   6.682   5.310   0.956 -0.2624  0.1692  0.7708
 3438TIP3    H231950   6.646   5.451   0.997  1.2658  1.0189 -0.6922
 3439TIP3   OH231951   4.661   5.033   1.958 -0.1190  0.0958  0.5785
 3439TIP3    H131952   4.752   5.044   1.930 -0.0604 -1.8084 -0.1108
 3439TIP3    H231953   4.656   4.942   1.989 -2.1935 -0.4209 -1.0893
 3440TIP3   OH231954   1.641   5.758   8.286  0.0359  0.2035  0.0603
 3440TIP3    H131955   1.650   5.699   8.211 -2.0912 -0.1119 -0.0210
 3440TIP3    H231956   1.728   5.762   8.325  0.9707 -0.3962 -1.8481
 3441TIP3   OH231957   4.339   6.776   0.689 -0.1200 -0.1637 -0.2244
 3441TIP3    H131958   4.364   6.867   0.674 -0.3707  0.0274  0.5018
 3441TIP3    H231959   4.286   6.778   0.768 -3.6137 -0.3219 -2.3361
 3442TIP3   OH231960   0.068   2.738   7.920  0.2843 -1.0405  0.3315
 3442TIP3    H131961  -0.003   2.726   7.983 -0.3610 -0.2418 -0.2250
 3442TIP3    H231962   0.127   2.801   7.961  0.2633 -1.1044  0.4598
 3443TIP3   OH231963   4.915   2.243   8.186  0.6896 -0.0870  0.1823
 3443TIP3    H131964   4.982   2.191   8.143 -0.7761 -1.8877 -0.0309
 3443TIP3    H231965   4.922   2.221   8.279  1.2422  0.7694  0.3625
 3444TIP3   OH231966   4.876   6.800   1.355 -0.0308 -0.7071 -0.4963
 3444TIP3    H131967   4.867   6.895   1.357  1.1590 -0.5445  2.6228
 3444TIP3    H231968   4.969   6.784   1.342  0.0328 -1.3709  0.6263
 3445TIP3   OH231969   0.625   4.436   2.066  0.3135 -0.2033  0.5233
 3445TIP3    H131970   0.588   4.430   2.154 -0.0282  0.3550  0.4257
 3445TIP3    H231971   0.549   4.446   2.009  0.5845  0.3604  0.2572
 3446TIP3   OH231972   6.074   0.627   7.848 -0.7921 -0.3347  0.2655
 3446TIP3    H131973   6.111   0.557   7.795 -0.0058 -0.1852  0.5917
 3446TIP3    H231974   6.015   0.674   7.790  1.5111  1.0470 -1.1401
 3447TIP3   OH231975   5.121   3.896   1.803 -0.5141  0.1029 -0.0066
 3447TIP3    H131976   5.034   3.861   1.784 -1.0671  1.3865  0.0285
 3447TIP3    H231977   5.125   3.978   1.754  0.0505  0.8614  1.2407
 3448TIP3   OH231978   2.729   0.424   8.612  0.1515 -0.2597 -0.0225
 3448TIP3    H131979   2.655   0.484   8.601 -0.1755 -0.6607 -0.0264
 3448TIP3    H231980   2.725   0.397   8.703  0.5107 -0.0093  0.0734
 3449TIP3   OH231981   5.825   4.555   1.683 -0.6293  0.1789 -0.1293
 3449TIP3    H131982   5.882   4.608   1.628  0.1891  1.7804  2.1129
 3449TIP3    H231983   5.834   4.466   1.649  1.5585  0.7409 -1.1559
 3450TIP3   OH231984   0.883   1.184   2.612 -0.5815  0.5044  0.2758
 3450TIP3    H131985   0.789   1.195   2.626 -0.8373  0.2551 -1.1375
 3450TIP3    H231986   0.909   1.116   2.675 -1.0261  1.6519  1.7323
 3451TIP3   OH231987   5.151   3.126   7.861 -0.0294  0.1700  0.3110
 3451TIP3    H131988   5.241   3.152   7.881  0.6543 -1.8447  0.1073
 3451TIP3    H231989   5.101   3.207   7.864  1.6836  1.2488  1.0446
 3452TIP3   OH231990   1.193   2.026   0.072  0.2430 -0.1100  0.3458
 3452TIP3    H131991   1.117   1.967   0.072  0.0280  0.1547  1.0519
 3452TIP3    H231992   1.238   2.006   0.154  0.1795  0.6906  0.5797
 3453TIP3   OH231993   3.935   1.071   2.187 -0.2304  0.6642 -0.1891
 3453TIP3    H131994   3.922   1.156   2.228  1.0354  0.9527 -0.3405
 3453TIP3    H231995   3.890   1.078   2.102 -1.3688  0.6579  0.3989
 3454TIP3   OH231996   4.556   2.279   7.592  0.9404  0.5275 -0.1331
 3454TIP3    H131997   4.619   2.348   7.614  0.0901  1.1665  0.3351
 3454TIP3    H231998   4.505   2.267   7.672  0.2080  0.2972 -0.6260
 3455TIP3   OH231999   5.838   5.423   0.020 -0.5421 -0.4713  0.1936
 3455TIP3    H132000   5.792   5.345  -0.013 -0.8642 -0.1844 -0.0473
 3455TIP3    H232001   5.913   5.388   0.067 -1.8668 -1.0403  1.9949
 3456TIP3   OH232002   3.885   0.824   0.993 -0.3241  0.1122  0.1995
 3456TIP3    H132003   3.817   0.845   1.057  0.0689  2.1971  0.0036
 3456TIP3    H232004   3.881   0.729   0.985 -3.2322  0.1283  0.1779
 3457TIP3   OH232005   6.646   1.059   0.839 -0.2962  0.0817  0.0224
 3457TIP3    H132006   6.573   1.121   0.851  0.6745  1.3172 -0.2179
 3457TIP3    H232007   6.711   1.086   0.904  0.7821  0.3148 -1.1273
 3458TIP3   OH232008   3.673   0.969   0.748  0.1724  0.2670 -0.6555
 3458TIP3    H132009   3.666   0.987   0.654 -0.2277 -1.8273 -1.0762
 3458TIP3    H232010   3.752   0.915   0.756  0.7234  1.1845  0.3678
 3459TIP3   OH232011   5.947   1.518   8.519 -0.2259  0.2522  0.4144
 3459TIP3    H132012   6.015   1.502   8.584  0.5303  0.1900 -0.3821
 3459TIP3    H232013   5.987   1.495   8.435 -0.6095  1.9756 -0.2824
 3460TIP3   OH232014   6.793   5.301   7.665 -0.6607  0.4207 -0.3282
 3460TIP3    H132015   6.785   5.383   7.715  0.1260  0.3302 -0.0447
 3460TIP3    H232016   6.705   5.263   7.668 -1.2001  1.5654 -1.0072
 3461TIP3   OH232017   0.420   4.553   0.550 -0.0294 -0.1247 -0.1189
 3461TIP3    H132018   0.490   4.489   0.554  0.3971  0.3701  0.4431
 3461TIP3    H232019   0.351   4.509   0.500  0.5031 -0.7747 -0.3019
 3462TIP3   OH232020   4.307   1.462   2.704  0.1472 -0.3996  0.2452
 3462TIP3    H132021   4.284   1.382   2.656 -1.6063  0.2211 -0.0359
 3462TIP3    H232022   4.269   1.449   2.791 -1.8603  0.8506 -0.3741
 3463TIP3   OH232023   4.121   4.700   2.643  0.2305 -0.0005 -0.5531
 3463TIP3    H132024   4.209   4.662   2.647  0.1772 -0.0946 -0.2766
 3463TIP3    H232025   4.093   4.707   2.734 -0.1362 -0.1741 -0.6474
 3464TIP3   OH232026   6.448   3.128   2.096  0.9719  0.4272  0.4167
 3464TIP3    H132027   6.461   3.040   2.131 -0.8112  0.1393  0.4566
 3464TIP3    H232028   6.465   3.119   2.002  0.7813  0.0217  0.4161
 3465TIP3   OH232029   4.563   0.093   0.016 -0.0827 -0.4307 -0.1207
 3465TIP3    H132030   4.587   0.184   0.001  0.2972 -0.5060  0.0140
 3465TIP3    H232031   4.468   0.093   0.022  0.0004  0.2854  1.9586
 3466TIP3   OH232032   3.131   2.160   2.422  0.2151  0.2180 -0.2624
 3466TIP3    H132033   3.174   2.222   2.481 -1.6691  1.1775  0.1729
 3466TIP3    H232034   3.156   2.189   2.334 -0.1538  1.2155 -0.0458
 3467TIP3   OH232035   1.710   6.039   3.150 -0.1832 -0.2016 -0.0228
 3467TIP3    H132036   1.772   6.085   3.093 -0.9233  0.2077 -0.5184
 3467TIP3    H232037   1.731   5.947   3.138 -0.4751 -0.1418 -1.1672
 3468TIP3   OH232038   6.332   5.406   8.252  0.3656  0.7418  0.8370
 3468TIP3    H132039   6.319   5.439   8.163  0.8128 -0.4597  0.3045
 3468TIP3    H232040   6.245   5.412   8.293 -0.4247 -0.9125 -0.4798
 3469TIP3   OH232041   0.966   6.765   7.102 -0.0624 -1.5335  0.3027
 3469TIP3    H132042   0.954   6.694   7.038 -0.1413 -2.2229  1.0588
 3469TIP3    H232043   0.887   6.762   7.155 -2.5690  2.4043 -2.6662
 3470TIP3   OH232044   0.675   3.253   0.050  0.0230  0.1395 -0.1051
 3470TIP3    H132045   0.609   3.192   0.018  0.1118 -0.1015  0.1646
 3470TIP3    H232046   0.742   3.253  -0.018 -0.5047  0.8060 -0.6376
 3471TIP3   OH232047   5.062   2.371   2.074  0.2021  0.1863  0.2442
 3471TIP3    H132048   4.993   2.313   2.104  0.5382 -0.6058 -0.4431
 3471TIP3    H232049   5.117   2.385   2.151 -0.6047  0.6624  0.7411
 3472TIP3   OH232050   6.511   3.648   0.109 -0.3958 -0.4525 -0.4032
 3472TIP3    H132051   6.457   3.639   0.188 -1.5868  0.8366 -1.0141
 3472TIP3    H232052   6.487   3.572   0.056 -0.0447 -0.9992  0.2026
 3473TIP3   OH232053   5.903   6.097   7.123  0.1798 -0.1592 -0.1017
 3473TIP3    H132054   5.875   6.180   7.162 -0.0895 -0.5742  0.5912
 3473TIP3    H232055   5.982   6.120   7.074  1.2638  0.1585  1.6940
 3474TIP3   OH232056   4.008   0.659   3.004  0.2265  0.0497  0.1672
 3474TIP3    H132057   3.976   0.744   3.031  1.1791  0.2180  0.8080
 3474TIP3    H232058   3.931   0.603   3.002 -0.9819  1.5898 -3.1477
 3475TIP3   OH232059   0.399   4.855   0.325 -0.0718 -0.4470  0.6483
 3475TIP3    H132060   0.479   4.806   0.304  0.3899  0.5960 -0.0810
 3475TIP3    H232061   0.332   4.817   0.267  0.3786  0.0488 -0.2125
 3476TIP3   OH232062   0.010   1.418   0.399 -0.5461  0.2376 -0.4773
 3476TIP3    H132063   0.088   1.373   0.431 -1.6545 -1.6592 -0.2955
 3476TIP3    H232064  -0.025   1.360   0.331 -1.9539  0.9000 -0.3501
 3477TIP3   OH232065   6.528   5.629   2.507 -0.2035  0.2745  0.1025
 3477TIP3    H132066   6.587   5.593   2.573  0.0723  0.2658 -0.1504
 3477TIP3    H232067   6.542   5.575   2.430 -2.4528 -1.4817  0.8005
 3478TIP3   OH232068   1.980   3.655   1.602 -0.0394  0.4142  0.4565
 3478TIP3    H132069   1.940   3.586   1.656 -0.7419  0.4299 -0.0380
 3478TIP3    H232070   1.999   3.612   1.519  0.5492  0.5328  0.5275
 3479TIP3   OH232071   1.917   3.180   1.506 -0.0227  0.0482 -0.2664
 3479TIP3    H132072   1.894   3.175   1.414  0.0607 -0.1207 -0.2794
 3479TIP3    H232073   1.839   3.214   1.549  0.5430  1.8908 -0.6336
 3480TIP3   OH232074   5.739   5.105   8.114  0.0494  0.1964  0.5849
 3480TIP3    H132075   5.793   5.088   8.037  1.7951 -0.5323  1.8890
 3480TIP3    H232076   5.740   5.200   8.124 -0.5145  0.3271 -0.4844
 3481TIP3   OH232077   0.332   1.554   7.826 -0.4179 -0.8359 -0.3424
 3481TIP3    H132078   0.312   1.647   7.832  0.4656 -0.7031  0.6636
 3481TIP3    H232079   0.416   1.550   7.780 -1.1231 -1.2275 -1.6570
 3482TIP3   OH232080   3.370   2.234   8.027 -0.8803  0.4730  0.1081
 3482TIP3    H132081   3.387   2.226   8.121 -1.6200  0.7380  0.2691
 3482TIP3    H232082   3.288   2.186   8.013 -0.5136  0.0012 -0.4970
 3483TIP3   OH232083   3.544   6.265   1.719  0.1662  0.7221  0.0288
 3483TIP3    H132084   3.452   6.292   1.728  0.0356  0.2504  0.1010
 3483TIP3    H232085   3.590   6.319   1.784 -0.0809  0.8450  0.1065
 3484TIP3   OH232086   6.784   0.383   1.539 -0.5597 -0.4186  0.0794
 3484TIP3    H132087   6.733   0.336   1.473 -0.7528  1.0820 -0.8684
 3484TIP3    H232088   6.832   0.450   1.490 -0.8313  0.8355  1.4771
 3485TIP3   OH232089   1.328   4.031   8.530 -0.1803 -0.2460  0.1749
 3485TIP3    H132090   1.341   4.126   8.525 -0.8299 -0.0961  1.0148
 3485TIP3    H232091   1.380   4.004   8.606 -1.3429 -0.2748  0.9980
 3486TIP3   OH232092   3.209   2.213   0.824 -0.1533  0.2967 -0.0455
 3486TIP3    H132093   3.260   2.293   0.839 -0.2643  0.1061  1.5354
 3486TIP3    H232094   3.256   2.167   0.754  0.2936  1.4082 -0.4972
 3487TIP3   OH232095   3.007   3.251   7.775 -0.6484 -0.2955 -0.1429
 3487TIP3    H132096   3.017   3.346   7.779 -2.0255 -0.1611  0.5792
 3487TIP3    H232097   3.018   3.230   7.682 -1.6461  0.7387 -0.5187
 3488TIP3   OH232098   6.434   6.430   0.709  0.6969  0.0234  0.3455
 3488TIP3    H132099   6.434   6.334   0.698  0.0451  0.0219  0.3403
 3488TIP3    H232100   6.342   6.455   0.700  0.7851  0.5862  0.9726
 3489TIP3   OH232101   6.262   0.706   1.218 -0.1686  0.3155 -0.3137
 3489TIP3    H132102   6.264   0.613   1.241  0.5662  0.0565 -1.3787
 3489TIP3    H232103   6.228   0.749   1.297 -1.8360 -0.9761 -0.2735
 3490TIP3   OH232104   4.826   2.896   0.381 -0.2458 -0.0030 -0.4244
 3490TIP3    H132105   4.825   2.981   0.338  0.4460 -0.2277 -0.8898
 3490TIP3    H232106   4.795   2.914   0.470 -2.9456  0.2820 -1.3223
 3491TIP3   OH232107   5.270   4.743   1.312 -0.2818  0.3238 -0.0126
 3491TIP3    H132108   5.288   4.818   1.256 -2.6379  0.1811 -1.0982
 3491TIP3    H232109   5.267   4.669   1.252 -1.3980 -0.0678  0.4994
 3492TIP3   OH232110   4.708   6.717   8.240  0.2717  0.2058  0.2829
 3492TIP3    H132111   4.683   6.686   8.153  0.3320 -2.6146  1.1615
 3492TIP3    H232112   4.644   6.677   8.299  2.3397 -1.0348  1.8485
 3493TIP3   OH232113   0.313   4.314   8.127 -0.0667  0.5216 -0.7764
 3493TIP3    H132114   0.234   4.344   8.173  1.6782  0.9774  2.1074
 3493TIP3    H232115   0.295   4.221   8.108 -0.7774  0.2156  1.1393
 3494TIP3   OH232116   1.469   1.857   8.281 -0.4951 -0.6795  0.0403
 3494TIP3    H132117   1.479   1.894   8.369 -0.4165 -0.7512  0.0624
 3494TIP3    H232118   1.399   1.793   8.290  1.0167 -2.3425  0.5964
 3495TIP3   OH232119   2.125   0.044   0.763 -0.4097 -0.3768 -0.3762
 3495TIP3    H132120   2.085   0.054   0.676  0.3157 -0.3584 -0.7115
 3495TIP3    H232121   2.201   0.101   0.762 -0.7650  0.1393  0.5204
 3496TIP3   OH232122   1.624   1.848   1.967  0.2538 -0.3971  0.6467
 3496TIP3    H132123   1.570   1.896   2.030  0.3602  0.8239 -0.1597
 3496TIP3    H232124   1.568   1.776   1.938 -1.1578  1.0734 -0.4861
 3497TIP3   OH232125   5.652   5.196   1.485  0.2301  0.1615  0.4800
 3497TIP3    H132126   5.632   5.143   1.562 -0.5146 -0.5968 -0.2260
 3497TIP3    H232127   5.735   5.161   1.452  0.0247 -0.1967  0.3410
 3498TIP3   OH232128   5.836   6.151   2.255 -0.2025  0.2698 -1.1400
 3498TIP3    H132129   5.811   6.142   2.347  3.3908 -0.8223 -0.1055
 3498TIP3    H232130   5.814   6.065   2.217  0.5926 -0.1615 -0.6422
 3499TIP3   OH232131   5.379   0.338   6.997 -0.3944  0.2818 -0.0690
 3499TIP3    H132132   5.465   0.300   7.013 -1.3295 -1.6088  0.9452
 3499TIP3    H232133   5.353   0.306   6.911 -1.2766 -1.7766  0.8773
 3500TIP3   OH232134   1.696   3.606   2.674  0.2910  0.1462  0.4425
 3500TIP3    H132135   1.613   3.637   2.639  1.2673  2.1367 -0.2986
 3500TIP3    H232136   1.702   3.647   2.760  1.3461  1.6968 -0.3186
 3501TIP3   OH232137   6.671   6.796   6.998 -0.0173 -0.0780  0.0319
 3501TIP3    H132138   6.667   6.736   6.924  0.4741 -0.2388  0.1339
 3501TIP3    H232139   6.737   6.759   7.057  0.2484  0.5197  0.1269
 3502TIP3   OH232140   4.487   0.095   8.428  0.1992  0.6681 -0.0741
 3502TIP3    H132141   4.580   0.116   8.417  0.7473 -0.9729  0.9955
 3502TIP3    H232142   4.443   0.180   8.430  1.5922  1.4623 -1.1504
 3503TIP3   OH232143   4.689   2.275   0.769  0.3286 -0.5632 -0.4274
 3503TIP3    H132144   4.643   2.201   0.807  1.0414  0.0027  1.6973
 3503TIP3    H232145   4.620   2.329   0.730 -0.3034 -1.8198 -1.0788
 3504TIP3   OH232146   2.951   0.465   7.985 -0.2021  0.0925 -0.3829
 3504TIP3    H132147   2.864   0.444   8.020 -0.7036  3.1535  0.5529
 3504TIP3    H232148   2.936   0.479   7.892 -0.9675  1.3192 -0.1187
 3505TIP3   OH232149   3.361   3.429   0.765 -0.2732 -0.3819  0.2431
 3505TIP3    H132150   3.307   3.426   0.843  1.3811 -2.3983  1.4417
 3505TIP3    H232151   3.411   3.510   0.773 -2.1564  0.8910 -0.2813
 3506TIP3   OH232152   1.984   0.726   1.031  0.7464 -0.0723 -0.0256
 3506TIP3    H132153   2.033   0.798   0.991 -1.0668  2.0799  1.3796
 3506TIP3    H232154   2.032   0.707   1.112  1.5075 -0.8475 -0.6370
 3507TIP3   OH232155   1.843   0.866   2.476  0.4188  0.6492 -0.2015
 3507TIP3    H132156   1.772   0.802   2.478 -0.0075  1.0358 -1.5333
 3507TIP3    H232157   1.861   0.886   2.568 -0.5539 -0.1593  0.1782
 3508TIP3   OH232158   5.925   4.653   2.966 -0.1316  0.4285  0.7846
 3508TIP3    H132159   5.925   4.748   2.960 -0.3668  0.4412  0.9763
 3508TIP3    H232160   6.015   4.630   2.992 -0.2370  0.6350  1.3330
 3509TIP3   OH232161   2.987   1.182   7.901 -0.2286  0.1928  0.6111
 3509TIP3    H132162   2.941   1.143   7.975 -0.1194 -1.5161 -0.1635
 3509TIP3    H232163   3.075   1.145   7.905 -0.0393  0.5603 -0.0165
 3510TIP3   OH232164   0.671   2.408   8.494  0.0679  0.0274  0.6114
 3510TIP3    H132165   0.680   2.393   8.588 -0.0341 -1.8140  0.3634
 3510TIP3    H232166   0.619   2.335   8.463  0.2348  0.5243 -0.9109
 3511TIP3   OH232167   3.914   6.242   7.863  0.5798 -1.0296 -0.1661
 3511TIP3    H132168   3.904   6.329   7.824  0.8432 -0.8817  0.0914
 3511TIP3    H232169   3.837   6.194   7.834 -0.3384 -0.2558  0.9110
 3512TIP3   OH232170   0.502   5.868   1.799  0.2345 -0.2870 -0.0532
 3512TIP3    H132171   0.431   5.874   1.862  1.3028  0.5019  1.1154
 3512TIP3    H232172   0.464   5.898   1.716 -1.0982 -1.0408  0.2666
 3513TIP3   OH232173   5.443   2.786   6.885  0.3613 -0.5443  0.9161
 3513TIP3    H132174   5.392   2.860   6.851  0.3616  0.0602  2.1558
 3513TIP3    H232175   5.517   2.778   6.826  1.2387  1.5214  1.6398
 3514TIP3   OH232176   1.222   3.931   1.548 -0.4077  0.0370 -0.1392
 3514TIP3    H132177   1.257   3.862   1.604  2.6130  0.9042 -0.7487
 3514TIP3    H232178   1.257   3.911   1.461  2.1265  3.1417 -0.0186
 3515TIP3   OH232179   4.116   1.584   8.358 -0.4578  0.5866 -0.5515
 3515TIP3    H132180   4.156   1.519   8.415 -2.4734 -1.0093 -0.8591
 3515TIP3    H232181   4.120   1.546   8.270 -1.2940  1.0326 -0.7975
 3516TIP3   OH232182   5.556   5.711   0.096  0.2936  0.0870  0.1934
 3516TIP3    H132183   5.625   5.770   0.125  0.1415 -0.0594  0.8859
 3516TIP3    H232184   5.591   5.670   0.017  0.7082  0.5351  0.1385
 3517TIP3   OH232185   6.691   1.443   1.489 -0.1371  0.2424 -0.5538
 3517TIP3    H132186   6.619   1.447   1.426  0.1510 -3.1294 -1.3184
 3517TIP3    H232187   6.647   1.428   1.573 -0.4129  0.2205 -0.6983
 3518TIP3   OH232188   5.215   1.153   1.793 -0.2414  0.3149 -0.5194
 3518TIP3    H132189   5.176   1.241   1.800  0.2816  0.4224  3.0659
 3518TIP3    H232190   5.165   1.100   1.855  2.2782 -0.7154  0.7885
 3519TIP3   OH232191   3.209   2.962   1.402  0.2262  0.0991 -0.2247
 3519TIP3    H132192   3.213   2.894   1.469 -0.1137  0.6995  0.4129
 3519TIP3    H232193   3.122   2.953   1.363  0.2100  0.1219 -0.1934
 3520TIP3   OH232194   2.363   5.157   8.137 -0.4829 -0.3116  0.0008
 3520TIP3    H132195   2.341   5.116   8.221 -0.9217  0.5929  0.3370
 3520TIP3    H232196   2.444   5.206   8.155  0.5933 -1.7618 -0.6474
 3521TIP3   OH232197   5.936   3.483   1.049 -0.0411 -0.2172 -0.4534
 3521TIP3    H132198   5.919   3.396   1.085 -0.2628 -0.3388 -0.8383
 3521TIP3    H232199   5.975   3.532   1.121  3.4219 -1.6704 -1.1364
 3522TIP3   OH232200   4.400   3.766   0.884 -0.1851 -0.3533  0.6967
 3522TIP3    H132201   4.309   3.782   0.860 -0.3559 -0.0334  1.4920
 3522TIP3    H232202   4.429   3.849   0.923 -0.4356 -1.2710  3.0161
 3523TIP3   OH232203   4.983   6.007   2.983  0.1766 -0.9239  0.5258
 3523TIP3    H132204   4.918   5.945   2.951  1.3412 -2.1833  0.5061
 3523TIP3    H232205   4.933   6.068   3.038 -1.5479  0.1065 -1.9639
 3524TIP3   OH232206   1.643   1.141   7.539  0.5587 -0.0292 -0.1856
 3524TIP3    H132207   1.650   1.216   7.480  1.1879 -0.3751 -0.5521
 3524TIP3    H232208   1.729   1.101   7.538  0.3225 -0.5632  0.2811
 3525TIP3   OH232209   6.295   6.281   7.771 -0.0313  0.0961  0.2185
 3525TIP3    H132210   6.222   6.342   7.784 -0.6330 -0.4606 -0.4886
 3525TIP3    H232211   6.296   6.228   7.851  0.8703  1.3777  1.1107
 3526TIP3   OH232212   0.899   3.853   7.721 -0.5592  0.1135 -0.1395
 3526TIP3    H132213   0.905   3.758   7.731  1.4547  0.3295  1.4152
 3526TIP3    H232214   0.819   3.877   7.768 -1.1290 -0.8005 -0.6148
 3527TIP3   OH232215   4.110   3.391   2.175  0.2038  0.4265  0.3662
 3527TIP3    H132216   4.181   3.453   2.194 -1.3950  2.5087 -0.1086
 3527TIP3    H232217   4.050   3.401   2.249 -0.0610 -0.6253  0.3051
 3528TIP3   OH232218   5.036   6.858   7.872 -0.4448 -0.4464  0.5263
 3528TIP3    H132219   4.962   6.881   7.815 -0.0773  0.4570  0.3920
 3528TIP3    H232220   5.112   6.859   7.814 -0.2988 -1.1874  0.7029
 3529TIP3   OH232221   2.417   1.720   8.369  0.3946  0.1669 -0.2545
 3529TIP3    H132222   2.336   1.678   8.340  0.1519 -1.1201  2.0219
 3529TIP3    H232223   2.426   1.797   8.313 -2.4273  0.3732 -0.5612
 3530TIP3   OH232224   3.575   0.204   1.157 -0.6817  0.3889  0.1064
 3530TIP3    H132225   3.534   0.207   1.070 -2.6338  0.3179  0.9745
 3530TIP3    H232226   3.563   0.293   1.191  0.2155  0.4566  0.2656
 3531TIP3   OH232227   6.051   0.441   8.356  0.0019  0.0592 -0.3080
 3531TIP3    H132228   6.047   0.351   8.324  1.0552 -0.1627  0.1530
 3531TIP3    H232229   6.144   0.462   8.360 -0.2434  1.4248 -1.0863
 3532TIP3   OH232230   4.977   3.779   1.508 -0.8107 -0.1304 -0.2630
 3532TIP3    H132231   4.894   3.733   1.512 -0.8719 -0.0636 -0.7708
 3532TIP3    H232232   4.959   3.864   1.546 -0.6954 -0.5184  0.6911
 3533TIP3   OH232233   6.034   5.974   2.514  0.3508 -0.5056 -0.5323
 3533TIP3    H132234   6.048   5.890   2.556 -0.0170 -0.7399 -0.8707
 3533TIP3    H232235   5.938   5.982   2.508  0.3882 -0.1856 -0.7355
 3534TIP3   OH232236   5.674   0.910   1.777  0.2994 -0.0002  0.1905
 3534TIP3    H132237   5.642   0.920   1.688  0.9242 -0.9826 -0.1650
 3534TIP3    H232238   5.652   0.820   1.801 -1.3057  0.7021  1.6497
 3535TIP3   OH232239   5.951   3.722   1.497  0.1280 -0.0589 -0.5174
 3535TIP3    H132240   5.861   3.693   1.510  0.3496 -0.4215  0.3089
 3535TIP3    H232241   5.952   3.813   1.527  0.8112 -1.1107  3.1690
 3536TIP3   OH232242   3.634   4.014   3.195  0.0240  0.3851  0.2485
 3536TIP3    H132243   3.560   3.998   3.137  0.0446  0.9978  0.0507
 3536TIP3    H232244   3.650   3.929   3.237 -1.2569  0.4060  0.8400
 3537TIP3   OH232245   6.638   0.002   2.698 -0.6067 -0.2735 -0.1827
 3537TIP3    H132246   6.564  -0.046   2.736  0.6556 -1.1200  1.3549
 3537TIP3    H232247   6.623  -0.001   2.604 -2.5461 -0.3601  0.0766
 3538TIP3   OH232248   5.382   4.966   0.815  0.5015  0.2893  0.0312
 3538TIP3    H132249   5.307   4.977   0.872  1.1178  1.4864  0.6456
 3538TIP3    H232250   5.392   5.050   0.770  2.5835  0.8652  1.3989
 3539TIP3   OH232251   6.107   5.994   7.416  0.4035  0.0119  0.1236
 3539TIP3    H132252   6.038   5.980   7.350  0.8539 -0.2625 -0.2950
 3539TIP3    H232253   6.107   5.914   7.468 -0.9718  0.8150  1.4301
 3540TIP3   OH232254   6.313   5.709   7.778 -0.3872 -0.7953 -0.3308
 3540TIP3    H132255   6.262   5.634   7.747 -0.4389 -0.7162 -0.4360
 3540TIP3    H232256   6.296   5.778   7.714  0.3831 -0.9769 -0.7433
 3541TIP3   OH232257   2.778   0.151   8.516 -0.2246 -0.3011  0.5320
 3541TIP3    H132258   2.798   0.123   8.606  3.1261  0.4529  0.1464
 3541TIP3    H232259   2.759   0.244   8.524  1.3192  0.0418  0.3405
 3542TIP3   OH232260   2.905   5.800   0.405  0.3885  0.4803 -0.4310
 3542TIP3    H132261   2.977   5.801   0.343 -0.0406  0.3642 -0.9443
 3542TIP3    H232262   2.866   5.887   0.399 -0.2695  0.1608 -1.0821
 3543TIP3   OH232263   0.212   1.670   3.278 -0.1385 -0.1310 -0.0603
 3543TIP3    H132264   0.223   1.759   3.244 -0.6166 -0.2519 -0.5482
 3543TIP3    H232265   0.301   1.634   3.282 -0.0003  0.1606 -0.4364
 3544TIP3   OH232266   5.576   2.851   8.385 -0.2309 -0.1282 -0.1348
 3544TIP3    H132267   5.656   2.897   8.359 -1.1154  1.5739  0.0182
 3544TIP3    H232268   5.596   2.811   8.469 -0.4997  3.1100  1.5928
 3545TIP3   OH232269   4.653   4.316   2.145 -0.8787  0.2827  0.7527
 3545TIP3    H132270   4.670   4.400   2.188  0.3517  0.3495  0.1877
 3545TIP3    H232271   4.566   4.290   2.175 -0.2422  0.5083  3.0097
 3546TIP3   OH232272   1.134   2.326   1.079 -0.5381  0.0964 -0.1350
 3546TIP3    H132273   1.114   2.417   1.056 -0.7354  0.2958  0.7758
 3546TIP3    H232274   1.050   2.287   1.100 -0.2564  0.2657  1.3942
 3547TIP3   OH232275   0.861   2.882   3.113  0.6216 -0.2340 -0.1399
 3547TIP3    H132276   0.802   2.942   3.067 -0.4575 -1.6525 -0.6839
 3547TIP3    H232277   0.914   2.843   3.043  1.0045 -0.2687  0.1649
 3548TIP3   OH232278   4.246   4.188   8.074  0.2042 -0.2314  0.1795
 3548TIP3    H132279   4.264   4.275   8.109 -0.4935  0.3452 -0.8553
 3548TIP3    H232280   4.151   4.181   8.075  0.2698 -1.2920  0.9475
 3549TIP3   OH232281   5.993   3.220   0.107 -0.2972  0.9107  0.5588
 3549TIP3    H132282   5.937   3.147   0.135 -1.4836  2.0138  1.1657
 3549TIP3    H232283   6.071   3.178   0.071 -1.7732 -0.7142 -0.9143
 3550TIP3   OH232284   6.835   1.003   2.961 -0.1882 -0.5010  0.1949
 3550TIP3    H132285   6.780   1.022   2.885 -0.5251 -0.0325  0.5452
 3550TIP3    H232286   6.813   1.072   3.024 -0.4276 -1.2943  0.9880
 3551TIP3   OH232287   4.101   4.598   8.467 -0.7871  0.5647  0.1680
 3551TIP3    H132288   4.166   4.661   8.436 -0.3113 -0.2304 -0.5000
 3551TIP3    H232289   4.069   4.635   8.549  1.3123  0.4830  1.1004
 3552TIP3   OH232290   1.297   6.797   7.686  0.3190 -0.0677 -0.1050
 3552TIP3    H132291   1.213   6.843   7.684 -0.2487 -1.0366  0.6067
 3552TIP3    H232292   1.312   6.778   7.779 -0.5827 -3.2408 -0.4787
 3553TIP3   OH232293   1.366   0.736   1.303  0.0408 -0.3766  0.1293
 3553TIP3    H132294   1.362   0.818   1.253 -2.6006 -0.8864 -0.6766
 3553TIP3    H232295   1.390   0.763   1.392  0.1494  1.1571 -0.3429
 3554TIP3   OH232296   5.663   0.421   1.951  0.1058  0.0257 -0.0375
 3554TIP3    H132297   5.655   0.333   1.987 -0.5732  0.4725  0.9401
 3554TIP3    H232298   5.751   0.450   1.977 -0.3980  0.3660  1.3592
 3555TIP3   OH232299   3.009   3.629   1.241  0.3748 -0.0678 -0.0054
 3555TIP3    H132300   3.020   3.721   1.216 -0.1731  0.2048  0.6923
 3555TIP3    H232301   3.063   3.619   1.320 -0.6312  0.0382  0.7200
 3556TIP3   OH232302   6.051   2.972   8.697 -0.3985  0.7032  0.4022
 3556TIP3    H132303   6.139   3.007   8.687 -0.0141 -0.4360 -0.4372
 3556TIP3    H232304   6.060   2.902   8.761 -0.5544  0.1856 -0.1269
 3557TIP3   OH232305   0.073   3.079   8.567 -0.4015 -0.1697 -0.1410
 3557TIP3    H132306   0.157   3.040   8.542  0.2722  1.6710 -0.9692
 3557TIP3    H232307   0.098   3.161   8.611 -1.7583 -0.0646  0.4720
 3558TIP3   OH232308   6.464   3.262   0.236 -0.0694  0.1915 -0.0275
 3558TIP3    H132309   6.480   3.304   0.152 -0.0255 -0.1912 -0.2151
 3558TIP3    H232310   6.549   3.262   0.281 -0.4333  1.9279  0.7458
 3559TIP3   OH232311   2.594   0.008   7.820  0.1032  0.3557 -0.4188
 3559TIP3    H132312   2.635  -0.069   7.860  0.7512  1.1008  0.3761
 3559TIP3    H232313   2.654   0.034   7.750 -0.0223  0.2569 -0.5645
 3560TIP3   OH232314   4.530   6.012   2.814 -0.0990 -0.2967 -0.1522
 3560TIP3    H132315   4.470   6.075   2.852 -1.5891 -1.0224 -1.1914
 3560TIP3    H232316   4.571   6.058   2.741 -0.8081 -0.3587 -0.5967
 3561TIP3   OH232317   5.334   0.337   1.630 -0.5821 -0.1501 -0.0623
 3561TIP3    H132318   5.312   0.258   1.582 -0.2704  0.7219 -1.7191
 3561TIP3    H232319   5.412   0.315   1.680  0.1186 -0.6128 -1.3186
 3562TIP3   OH232320   3.985   3.462   1.702  0.2112 -0.1921 -0.5049
 3562TIP3    H132321   4.014   3.400   1.768 -3.3132 -0.7368  0.7553
 3562TIP3    H232322   3.958   3.540   1.751  1.7199  1.2130 -1.7881
 3563TIP3   OH232323   5.900   4.026   1.519  0.3757  0.7865 -0.4607
 3563TIP3    H132324   5.981   4.041   1.567 -0.1315  3.9666 -0.3826
 3563TIP3    H232325   5.835   4.007   1.587  0.9249 -1.4717 -0.5038
 3564TIP3   OH232326   5.042   1.089   7.003 -0.3115  0.4811  0.1759
 3564TIP3    H132327   5.037   1.183   7.019 -0.8137  0.3124  1.0432
 3564TIP3    H232328   5.098   1.055   7.074  1.2325  0.3275 -1.0453
 3565TIP3   OH232329   0.178   0.380   0.371  0.3092 -0.0109 -0.0578
 3565TIP3    H132330   0.085   0.395   0.389  0.5478  0.2213  1.0331
 3565TIP3    H232331   0.179   0.300   0.318 -0.5596  0.4256 -0.7627
 3566TIP3   OH232332   3.603   5.833   7.040  0.1394  0.1693 -0.3970
 3566TIP3    H132333   3.562   5.784   7.112  0.1784  2.1502  1.0824
 3566TIP3    H232334   3.563   5.798   6.961  0.3939 -2.3938  0.5332
 3567TIP3   OH232335   6.191   5.861   1.692  0.3806  0.2152  0.2809
 3567TIP3    H132336   6.276   5.833   1.727  0.5953  1.8596  1.1203
 3567TIP3    H232337   6.127   5.802   1.733  0.9711 -0.1174  0.7355
 3568TIP3   OH232338   0.529   0.179   8.668  0.1070  0.2275 -0.2339
 3568TIP3    H132339   0.463   0.110   8.659 -1.0376  1.0732  1.2091
 3568TIP3    H232340   0.512   0.218   8.754  1.6183  1.3872 -0.4166
 3569TIP3   OH232341   4.192   1.671   0.786 -0.9266  0.4314 -0.8367
 3569TIP3    H132342   4.168   1.763   0.772 -1.7173  0.2922 -0.4303
 3569TIP3    H232343   4.110   1.628   0.809 -0.8416 -0.6895 -2.4536
 3570TIP3   OH232344   0.459   4.228   2.600  0.3194 -0.6136  0.1303
 3570TIP3    H132345   0.386   4.207   2.541  0.1345  1.0289 -0.2887
 3570TIP3    H232346   0.435   4.188   2.683 -0.7508 -0.6429 -0.1765
 3571TIP3   OH232347   4.377   0.345   8.391 -0.3537 -0.2804  0.2416
 3571TIP3    H132348   4.430   0.342   8.311 -1.5194 -0.5441 -0.5578
 3571TIP3    H232349   4.381   0.436   8.419 -0.6948  0.0261 -0.6648
 3572TIP3   OH232350   5.749   1.432   1.274  0.0269  0.4866 -0.2418
 3572TIP3    H132351   5.670   1.411   1.324  0.7197  1.5070  1.3842
 3572TIP3    H232352   5.720   1.493   1.207 -0.5063  1.2934  0.6883
 3573TIP3   OH232353   2.613   2.457   7.679  0.0632  0.0312  0.4374
 3573TIP3    H132354   2.680   2.392   7.660  0.3595  0.5259 -0.2383
 3573TIP3    H232355   2.540   2.406   7.715  0.9813 -0.4444  1.6672
 3574TIP3   OH232356   3.675   2.815   1.274 -0.3454 -0.3210  0.0891
 3574TIP3    H132357   3.600   2.868   1.302 -0.4108 -0.4235  0.1057
 3574TIP3    H232358   3.658   2.728   1.309 -0.9671 -0.7298 -1.1759
 3575TIP3   OH232359   5.380   1.947   2.931 -0.5246 -0.2550 -0.1107
 3575TIP3    H132360   5.339   1.883   2.990 -0.8989  0.2357  0.1720
 3575TIP3    H232361   5.306   1.997   2.897 -0.3247 -0.6213 -1.1164
 3576TIP3   OH232362   0.038   3.762   8.319  0.3403  0.3423  0.0158
 3576TIP3    H132363  -0.035   3.705   8.344  0.5115 -0.0222 -0.2964
 3576TIP3    H232364   0.075   3.720   8.241  1.6075 -0.1054  0.8370
 3577TIP3   OH232365   3.767   4.864   0.299  0.3708 -0.0726  0.5663
 3577TIP3    H132366   3.692   4.813   0.268  0.9315  0.1160 -1.2100
 3577TIP3    H232367   3.824   4.800   0.340  0.8546 -0.8654 -1.2281
 3578TIP3   OH232368   0.045   6.638   1.431  0.7148 -1.1084  0.1024
 3578TIP3    H132369   0.115   6.583   1.466  1.8989 -1.4838 -2.5991
 3578TIP3    H232370  -0.011   6.578   1.382  0.2688 -0.3566 -0.3339
 3579TIP3   OH232371   4.438   5.223   0.867  0.2894 -0.0637  0.8109
 3579TIP3    H132372   4.480   5.256   0.787  0.1373 -1.1082  0.2747
 3579TIP3    H232373   4.350   5.258   0.864  0.1639 -0.4131  0.3091
 3580TIP3   OH232374   0.035   4.293   8.181 -0.5004 -0.1883  0.3760
 3580TIP3    H132375  -0.017   4.363   8.220  1.2297  0.6282  1.2995
 3580TIP3    H232376  -0.025   4.218   8.177 -2.0474  1.0045  0.4104
 3581TIP3   OH232377   2.912   0.278   2.155  0.2836  0.2481 -0.6840
 3581TIP3    H132378   2.973   0.248   2.088  0.6300  1.1640 -0.7986
 3581TIP3    H232379   2.936   0.229   2.234  1.2940  0.7224 -0.6820
 3582TIP3   OH232380   4.018   2.904   0.879 -0.1008  0.1886  0.2113
 3582TIP3    H132381   3.954   2.951   0.932 -2.1553 -0.9953 -1.0716
 3582TIP3    H232382   4.006   2.812   0.903  1.0768 -0.0741 -0.1364
 3583TIP3   OH232383   0.537   3.761   7.667  0.2560 -0.6485 -0.7226
 3583TIP3    H132384   0.588   3.758   7.748 -0.3317 -0.5956 -0.3479
 3583TIP3    H232385   0.451   3.792   7.694  0.1379 -0.3636 -1.4114
 3584TIP3   OH232386   4.070   6.784   0.291 -0.0727  0.4641 -0.7090
 3584TIP3    H132387   4.083   6.783   0.386  2.0688  0.8562 -0.9485
 3584TIP3    H232388   3.986   6.828   0.279 -1.5538 -1.7192  1.0714
 3585TIP3   OH232389   5.078   3.104   0.638  0.1352 -0.1568 -0.2949
 3585TIP3    H132390   5.161   3.151   0.633 -0.4783  1.2870  1.7931
 3585TIP3    H232391   5.102   3.012   0.639  1.6804  0.2277 -0.1242
 3586TIP3   OH232392   0.474   4.564   1.863  0.6496  0.1344  0.3131
 3586TIP3    H132393   0.567   4.590   1.863  0.4792  0.8017  0.9871
 3586TIP3    H232394   0.443   4.588   1.776  1.1763 -0.3547 -0.0160
 3587TIP3   OH232395   1.296   4.821   8.010  0.5463  0.0676  0.6260
 3587TIP3    H132396   1.358   4.883   8.048  1.9271 -0.4105 -0.7719
 3587TIP3    H232397   1.218   4.874   7.991  1.6280  1.3568 -0.3782
 3588TIP3   OH232398   1.645   3.731   2.922 -0.1061 -0.0490  0.7735
 3588TIP3    H132399   1.556   3.766   2.931 -0.4732 -0.4777 -0.8451
 3588TIP3    H232400   1.643   3.649   2.970 -0.2053  0.5439  1.8072
 3589TIP3   OH232401   1.182   2.648   2.004 -0.1305 -0.1353  0.0134
 3589TIP3    H132402   1.274   2.663   1.983  0.4686 -2.7423  0.4459
 3589TIP3    H232403   1.134   2.697   1.936  1.5639  0.4673 -0.8139
 3590TIP3   OH232404   3.012   5.466   2.525  0.2382 -0.1107 -0.0763
 3590TIP3    H132405   2.974   5.449   2.611  0.1467 -0.2225 -0.1375
 3590TIP3    H232406   2.964   5.542   2.492 -1.0364 -1.1906 -0.8091
 3591TIP3   OH232407   3.369   2.678   7.922  0.4194 -0.2922 -0.2796
 3591TIP3    H132408   3.338   2.599   7.966  1.3070 -0.2939  0.3683
 3591TIP3    H232409   3.453   2.654   7.884  0.3739  0.1463 -0.6766
 3592TIP3   OH232410   1.288   4.191   7.200  0.0046  0.1968 -0.0162
 3592TIP3    H132411   1.349   4.120   7.180  1.0142  0.9205  0.4443
 3592TIP3    H232412   1.203   4.147   7.208  0.7278 -1.0884  1.0739
 3593TIP3   OH232413   0.897   4.540   8.558 -0.2834 -0.2550 -0.3062
 3593TIP3    H132414   0.884   4.512   8.467  1.8238 -0.2305 -0.6556
 3593TIP3    H232415   0.876   4.462   8.610 -0.3802 -0.6211 -0.8794
 3594TIP3   OH232416   0.703   0.977   8.223  0.2882 -0.1732  0.1267
 3594TIP3    H132417   0.626   1.033   8.213  1.5456  1.4923 -0.6415
 3594TIP3    H232418   0.763   1.029   8.277  0.5224 -1.8662  1.6114
 3595TIP3   OH232419   2.686   1.688   2.360 -0.2876 -0.0475  0.1246
 3595TIP3    H132420   2.673   1.593   2.368  0.6373 -0.2471 -0.6739
 3595TIP3    H232421   2.614   1.726   2.411 -0.5591 -1.1767  0.6099
 3596TIP3   OH232422   0.529   2.767   7.662 -0.0547  0.2884 -0.0329
 3596TIP3    H132423   0.451   2.711   7.664  0.9660 -1.1710  1.3258
 3596TIP3    H232424   0.573   2.743   7.581 -0.0434 -0.2817  0.1380
 3597TIP3   OH232425   3.833   5.699   7.416  0.2266  0.2078 -0.2724
 3597TIP3    H132426   3.823   5.643   7.339  3.0742  0.3173 -0.8508
 3597TIP3    H232427   3.792   5.781   7.391  0.2818 -0.0683 -1.3291
 3598TIP3   OH232428   1.523   4.272   0.092  0.1332  0.4134 -0.5649
 3598TIP3    H132429   1.553   4.336   0.157  0.4309  1.9838 -2.1613
 3598TIP3    H232430   1.428   4.278   0.095  0.0140 -1.5706  1.6250
 3599TIP3   OH232431   4.791   0.925   0.295  0.3442  0.5619  0.0032
 3599TIP3    H132432   4.863   0.978   0.262  1.0135 -0.6056 -0.4766
 3599TIP3    H232433   4.816   0.903   0.385  0.9687 -0.4358 -0.3904
 3600TIP3   OH232434   0.305   2.856   1.946  0.4641  0.1693 -0.0816
 3600TIP3    H132435   0.315   2.915   1.872  0.3837  0.3705  0.0653
 3600TIP3    H232436   0.253   2.783   1.912 -1.2592  1.1628  0.2430
 3601TIP3   OH232437   6.514   2.878   7.913 -0.0421  0.1750  0.4096
 3601TIP3    H132438   6.468   2.912   7.836 -1.8013  0.0399  1.3413
 3601TIP3    H232439   6.592   2.933   7.920  0.3683 -0.0518 -1.6488
 3602TIP3   OH232440   2.035   0.161   1.591 -0.2259  0.0123 -0.0644
 3602TIP3    H132441   2.085   0.174   1.511 -1.2163 -1.5879 -0.9896
 3602TIP3    H232442   2.083   0.095   1.641 -2.1065 -2.8476 -1.7419
 3603TIP3   OH232443   1.226   4.946   8.667 -0.5263 -0.0025 -0.3033
 3603TIP3    H132444   1.273   4.872   8.705 -0.8001  0.3572  0.7769
 3603TIP3    H232445   1.264   5.023   8.709  0.0131  0.5222 -1.6848
 3604TIP3   OH232446   0.662   6.538   7.590  0.0661 -0.5861 -0.7425
 3604TIP3    H132447   0.686   6.518   7.500  1.1911 -0.9597 -0.3787
 3604TIP3    H232448   0.667   6.633   7.596  0.7929 -0.6151 -0.8636
 3605TIP3   OH232449   2.997   2.477   2.560 -0.5379 -0.7424 -0.2854
 3605TIP3    H132450   2.961   2.563   2.535 -0.1702 -0.2687  0.7523
 3605TIP3    H232451   3.048   2.495   2.639 -0.3757 -1.9100 -0.1156
 3606TIP3   OH232452   3.254   5.480   1.086  0.4305  0.5084 -0.4110
 3606TIP3    H132453   3.179   5.533   1.111 -0.7000 -1.4780  0.6353
 3606TIP3    H232454   3.232   5.446   0.999 -0.3344 -0.7539  0.2421
 3607TIP3   OH232455   5.313   1.307   8.413 -0.2992  0.0091  0.0283
 3607TIP3    H132456   5.326   1.395   8.378 -0.7474 -0.8167 -2.4623
 3607TIP3    H232457   5.398   1.264   8.402 -0.0857  0.1090  1.2118
 3608TIP3   OH232458   0.349   3.025   1.736  0.6421 -0.5276  0.3228
 3608TIP3    H132459   0.409   3.015   1.662  0.3903  0.2550  0.0029
 3608TIP3    H232460   0.349   3.119   1.754  1.4301 -0.8005  1.9460
 3609TIP3   OH232461   1.348   0.693   8.385 -0.0492 -0.6815  0.0331
 3609TIP3    H132462   1.432   0.650   8.369  0.8742  1.0764 -0.1871
 3609TIP3    H232463   1.352   0.773   8.332 -1.9642 -0.6598 -0.1342
 3610TIP3   OH232464   4.373   5.030   8.722 -0.0962  0.1213 -0.4320
 3610TIP3    H132465   4.371   5.087   8.645  0.5689  0.9774  0.1754
 3610TIP3    H232466   4.346   5.086   8.794 -0.2951 -0.5682  0.0339
 3611TIP3   OH232467   1.541   4.510   8.432 -0.1817  0.2253 -0.7261
 3611TIP3    H132468   1.463   4.551   8.471  0.8459  0.2943  1.3996
 3611TIP3    H232469   1.615   4.551   8.477  0.9792 -2.0617 -0.3957
 3612TIP3   OH232470   5.227   2.116   1.152 -0.5812  0.8354  0.3810
 3612TIP3    H132471   5.309   2.089   1.110 -1.4796 -1.9618  0.2370
 3612TIP3    H232472   5.197   2.191   1.100  0.8614  0.6217 -0.8183
 3613TIP3   OH232473   6.317   4.705   1.788 -0.4475  0.2057  0.1129
 3613TIP3    H132474   6.303   4.721   1.881 -0.3559 -0.3545  0.2264
 3613TIP3    H232475   6.312   4.610   1.779 -1.0541  0.2923 -0.5518
 3614TIP3   OH232476   3.564   3.355   7.051  0.0654  0.2822 -0.2956
 3614TIP3    H132477   3.635   3.402   7.006  0.2075  1.2178  0.8432
 3614TIP3    H232478   3.494   3.420   7.058  0.2673  0.3549  1.3256
 3615TIP3   OH232479   2.619   0.346   2.294 -0.2987  0.1067 -0.0222
 3615TIP3    H132480   2.707   0.309   2.284  0.3989  1.8353 -0.6499
 3615TIP3    H232481   2.583   0.304   2.372  0.6300 -1.4666 -0.4037
 3616TIP3   OH232482   1.036   3.967   7.236 -0.1913  0.0614 -0.0045
 3616TIP3    H132483   0.960   3.991   7.183  0.1025  0.8903 -0.0574
 3616TIP3    H232484   1.091   3.916   7.176  0.2374  1.1673 -0.5754
 3617TIP3   OH232485   4.314   2.054   7.843 -0.2156  0.1529 -0.1801
 3617TIP3    H132486   4.232   2.040   7.891  1.2258 -0.6965  2.1887
 3617TIP3    H232487   4.354   1.967   7.837  1.5914  0.8727  0.8067
 3618TIP3   OH232488   1.779   2.812   1.010  0.1176 -0.1424  0.1110
 3618TIP3    H132489   1.792   2.843   0.920 -1.0652  1.6925  0.5304
 3618TIP3    H232490   1.868   2.797   1.043  0.5670 -1.1515 -1.4223
 3619TIP3   OH232491   0.596   1.955   8.130 -0.4618  0.1603 -0.0326
 3619TIP3    H132492   0.602   1.891   8.059  0.8573  0.7032 -0.4505
 3619TIP3    H232493   0.674   2.011   8.118 -0.6239  0.7259  1.3902
 3620TIP3   OH232494   4.989   1.784   2.923 -0.2094  0.0662 -0.4114
 3620TIP3    H132495   4.945   1.844   2.862 -0.0973 -0.1858 -0.7414
 3620TIP3    H232496   4.933   1.707   2.924 -1.1527  0.7190  1.1407
 3621TIP3   OH232497   3.693   5.101   0.756  0.2976 -0.0465 -0.0747
 3621TIP3    H132498   3.644   5.164   0.810  1.5937  1.0061 -0.0926
 3621TIP3    H232499   3.707   5.146   0.673 -0.9252 -1.3386 -1.0445
 3622TIP3   OH232500   2.010   5.386   1.417  0.5755  0.4877  0.0678
 3622TIP3    H132501   2.037   5.467   1.461  2.8518 -0.2482  0.1712
 3622TIP3    H232502   1.946   5.415   1.352  0.5729  2.2343  0.7858
 3623TIP3   OH232503   2.084   0.817   7.341 -0.0648 -0.2558 -0.3305
 3623TIP3    H132504   2.029   0.855   7.273 -0.1273  1.4534  0.6251
 3623TIP3    H232505   2.168   0.802   7.298 -0.4629 -0.3499 -1.0956
 3624TIP3   OH232506   5.292   2.665   1.354  0.0953 -0.2363 -0.0815
 3624TIP3    H132507   5.371   2.617   1.378  0.4555 -0.4662 -1.6588
 3624TIP3    H232508   5.260   2.701   1.437  1.9309 -0.0104  0.5737
 3625TIP3   OH232509   3.001   5.315   7.451 -0.2457 -1.3016 -0.0990
 3625TIP3    H132510   2.928   5.267   7.490 -0.6144  0.4007  1.4267
 3625TIP3    H232511   3.074   5.300   7.511  0.0770 -1.2401 -0.4750
 3626TIP3   OH232512   2.305   1.925   3.080 -0.1766  0.0961  0.3407
 3626TIP3    H132513   2.241   1.933   3.151  0.1905  3.1083  0.4797
 3626TIP3    H232514   2.288   2.000   3.024  2.4897  0.3915 -0.2106
 3627TIP3   OH232515   1.334   1.995   7.755 -0.4549  0.1773  0.2934
 3627TIP3    H132516   1.421   1.970   7.724 -1.6546 -1.9797 -1.6335
 3627TIP3    H232517   1.325   2.087   7.730  0.9644  0.2169 -0.1628
 3628TIP3   OH232518   0.882   0.834   1.743  0.2174  0.4117 -0.3360
 3628TIP3    H132519   0.798   0.843   1.787  0.5041 -0.8356  0.5418
 3628TIP3    H232520   0.912   0.746   1.766  1.1802  0.3504 -1.6648
 3629TIP3   OH232521   5.085   2.767   8.172  0.1327 -0.1520  0.0800
 3629TIP3    H132522   5.180   2.778   8.171  0.1218 -0.0435  0.2032
 3629TIP3    H232523   5.072   2.673   8.184  0.2243 -0.1489  0.2056
 3630TIP3   OH232524   6.425   2.962   7.200 -0.2975  0.1505  0.4598
 3630TIP3    H132525   6.515   2.968   7.232 -0.2762  0.4654  0.3437
 3630TIP3    H232526   6.395   3.053   7.196 -0.8251  0.0080  1.0741
 3631TIP3   OH232527   1.671   1.108   7.960 -0.4431  0.5375 -0.3874
 3631TIP3    H132528   1.593   1.158   7.983 -2.1702 -0.8666 -2.7747
 3631TIP3    H232529   1.677   1.042   8.029 -0.1629  1.8098  0.8727
 3632TIP3   OH232530   6.010   3.391   8.402 -0.5218 -0.1189 -0.4192
 3632TIP3    H132531   6.046   3.433   8.480 -1.7107  0.1648  0.0080
 3632TIP3    H232532   5.980   3.305   8.433 -0.4916 -0.2239 -0.6843
 3633TIP3   OH232533   3.479   3.011   7.525  0.0027 -0.1140  0.4960
 3633TIP3    H132534   3.442   3.036   7.440  0.0962 -0.4603  0.3512
 3633TIP3    H232535   3.441   3.073   7.587  1.0701  1.0626 -0.0119
 3634TIP3   OH232536   3.293   6.504   8.439  0.3381  0.2367 -0.6585
 3634TIP3    H132537   3.316   6.457   8.519  0.2955  0.0167 -0.7726
 3634TIP3    H232538   3.377   6.524   8.397  0.3589  0.3194 -0.5763
 3635TIP3   OH232539   0.009   6.350   0.286 -0.0355  0.3443 -0.2107
 3635TIP3    H132540   0.044   6.347   0.197  1.6858  1.0186  0.3932
 3635TIP3    H232541  -0.028   6.263   0.300  2.7213 -0.9772 -0.4479
 3636TIP3   OH232542   5.941   1.391   0.331 -0.2942 -0.6735 -0.4187
 3636TIP3    H132543   6.033   1.417   0.330 -0.9236  2.6072  2.5707
 3636TIP3    H232544   5.902   1.439   0.258  0.0398 -0.4077 -0.4251
 3637TIP3   OH232545   2.444   2.975   0.758 -0.4809 -0.1888  0.2692
 3637TIP3    H132546   2.469   3.062   0.727 -0.7596 -0.5637 -1.0712
 3637TIP3    H232547   2.499   2.915   0.708  0.4218 -0.7677  1.9040
 3638TIP3   OH232548   3.397   5.764   0.327  0.0022  0.2343  0.7423
 3638TIP3    H132549   3.320   5.713   0.301 -0.2111 -0.0865  1.9274
 3638TIP3    H232550   3.424   5.725   0.410  0.5143  1.3378  1.1170
 3639TIP3   OH232551   0.673   6.197   7.523  0.7306 -0.0974  0.3476
 3639TIP3    H132552   0.607   6.223   7.460  2.9091  3.2618 -0.7982
 3639TIP3    H232553   0.735   6.144   7.473 -0.5355 -2.6150  1.2515
 3640TIP3   OH232554   3.830   5.640   3.072  0.8501 -0.2735  0.2982
 3640TIP3    H132555   3.918   5.622   3.106  0.4838 -1.3649  0.7174
 3640TIP3    H232556   3.776   5.569   3.108 -0.0668  0.0097 -0.4900
 3641TIP3   OH232557   5.002   3.090   8.561 -0.4664  0.9304 -0.3606
 3641TIP3    H132558   4.967   3.012   8.519 -0.6202  1.3738 -1.0807
 3641TIP3    H232559   5.092   3.068   8.583 -1.4409 -0.6450  2.5590
 3642TIP3   OH232560   1.605   4.227   1.464  0.3184  0.1185 -0.2596
 3642TIP3    H132561   1.516   4.258   1.480 -0.1267 -1.1798 -0.1647
 3642TIP3    H232562   1.621   4.246   1.372  0.1125  0.7480 -0.1713
 3643TIP3   OH232563   1.534   6.006   1.523  0.8189 -0.5197  0.0782
 3643TIP3    H132564   1.621   6.044   1.508  1.0942 -1.0859  0.1966
 3643TIP3    H232565   1.495   6.000   1.436 -0.0995  2.0110  0.2456
 3644TIP3   OH232566   2.085   2.966   2.823  0.2982  0.0216  0.6310
 3644TIP3    H132567   2.151   2.993   2.759  1.4231  0.7701  2.0789
 3644TIP3    H232568   2.086   3.033   2.890  1.0600 -2.0402  2.8210
 3645TIP3   OH232569   3.134   5.567   0.475  0.3139 -0.0647 -0.0091
 3645TIP3    H132570   3.118   5.575   0.381  1.2853  1.2619 -0.0861
 3645TIP3    H232571   3.118   5.474   0.494 -0.5492 -0.2154 -1.3404
 3646TIP3   OH232572   1.198   2.180   0.653  0.1262  0.7086 -0.2278
 3646TIP3    H132573   1.266   2.244   0.672  0.6049  0.5411 -1.3048
 3646TIP3    H232574   1.241   2.095   0.666 -0.2271  0.5932  0.2357
 3647TIP3   OH232575   3.245   4.667   1.983  0.1060  0.6615  0.1700
 3647TIP3    H132576   3.251   4.671   2.079 -2.8713 -0.5616  0.5009
 3647TIP3    H232577   3.336   4.669   1.954  1.1226  0.8791  3.0195
 3648TIP3   OH232578   3.691   6.763   7.398  0.2093  0.2643 -0.6079
 3648TIP3    H132579   3.705   6.844   7.349 -1.0423  0.8154 -0.0875
 3648TIP3    H232580   3.753   6.701   7.359  2.2666  1.8435 -0.0381
 3649TIP3   OH232581   5.527   3.131   0.835 -0.4142 -0.7819 -0.4507
 3649TIP3    H132582   5.536   3.216   0.792  1.0462 -0.6366  0.0795
 3649TIP3    H232583   5.438   3.130   0.869 -0.4094  0.5951 -0.3489
 3650TIP3   OH232584   3.370   6.333   8.617 -0.4403 -0.2259 -0.1717
 3650TIP3    H132585   3.345   6.251   8.574  2.3610  0.1849 -2.9654
 3650TIP3    H232586   3.406   6.306   8.701  0.8242 -1.9629 -1.2111
 3651TIP3   OH232587   0.706   4.818   2.264  0.1033 -0.5442  0.2091
 3651TIP3    H132588   0.643   4.748   2.280  0.9296 -0.8967  2.3196
 3651TIP3    H232589   0.695   4.841   2.172 -2.2223 -1.4311  0.2106
 3652TIP3   OH232590   5.912   2.650   2.609 -0.1645  0.7737 -0.0650
 3652TIP3    H132591   5.982   2.586   2.620 -0.3813  0.5194 -0.1355
 3652TIP3    H232592   5.932   2.720   2.671 -0.8475 -0.1643  1.2581
 3653TIP3   OH232593   2.699   4.777   7.691 -0.2622  0.2369 -0.7609
 3653TIP3    H132594   2.781   4.801   7.649 -0.1068 -2.8228 -2.5007
 3653TIP3    H232595   2.632   4.824   7.641  0.1960 -0.3082 -1.9209
 3654TIP3   OH232596   2.727   4.961   0.186  0.0686  0.5838  0.5351
 3654TIP3    H132597   2.673   4.958   0.264  1.3163  1.9247  1.5181
 3654TIP3    H232598   2.712   5.048   0.150 -0.2898  0.0736 -0.5906
 3655TIP3   OH232599   2.994   5.223   7.799  0.1102  0.0835  0.6360
 3655TIP3    H132600   2.920   5.265   7.755 -0.4151  2.0546  3.1736
 3655TIP3    H232601   3.071   5.257   7.754 -0.3643  2.8201  1.7352
 3656TIP3   OH232602   1.009   3.266   8.099 -0.0272 -0.3451 -1.0371
 3656TIP3    H132603   1.102   3.278   8.117 -0.8262 -0.4335  5.0332
 3656TIP3    H232604   0.973   3.355   8.098 -0.3407 -0.4170  0.9162
 3657TIP3   OH232605   0.678   6.756   0.508 -0.7542 -0.0340 -0.5991
 3657TIP3    H132606   0.638   6.816   0.571 -1.3433 -1.0360 -0.0001
 3657TIP3    H232607   0.613   6.687   0.495 -0.4903 -0.0566 -2.0236
 3658TIP3   OH232608   3.484   5.641   1.209 -0.0294  0.0905 -0.1558
 3658TIP3    H132609   3.454   5.731   1.195  0.6723  0.1251 -1.6644
 3658TIP3    H232610   3.419   5.587   1.163  0.4410 -0.0577 -0.6461
 3659TIP3   OH232611   2.066   0.037   7.652 -0.0471  0.7007  0.7046
 3659TIP3    H132612   2.071   0.119   7.603  2.5845  0.6176  0.7032
 3659TIP3    H232613   2.142   0.039   7.710 -0.3922 -1.3716  1.3143
 3660TIP3   OH232614   3.261   6.313   3.181  0.7440  0.4141  0.0754
 3660TIP3    H132615   3.281   6.334   3.272  0.4232 -0.2366  0.3024
 3660TIP3    H232616   3.240   6.220   3.181  0.2456  0.5130 -0.5793
 3661TIP3   OH232617   6.091   5.019   0.584  0.2353 -0.1603 -0.4972
 3661TIP3    H132618   6.135   5.096   0.548 -0.3375  0.6559  0.5206
 3661TIP3    H232619   5.998   5.034   0.567  0.1880 -1.0773 -1.1198
 3662TIP3   OH232620   3.101   0.291   1.689 -0.0861 -0.9535 -0.1518
 3662TIP3    H132621   3.010   0.300   1.662  0.2567  0.5925 -0.8808
 3662TIP3    H232622   3.109   0.199   1.715 -2.4113 -0.6450  2.0443
 3663TIP3   OH232623   0.000   4.515   7.341 -0.4115 -0.0771  0.4070
 3663TIP3    H132624   0.004   4.445   7.276 -0.4378  0.0637  0.2541
 3663TIP3    H232625   0.082   4.506   7.391  0.9777  1.5532 -1.4433
 3664TIP3   OH232626   3.784   5.419   1.727  0.0958 -0.1534  0.3420
 3664TIP3    H132627   3.752   5.359   1.795 -0.8207 -0.2761 -0.1723
 3664TIP3    H232628   3.754   5.505   1.755  2.4561  0.2969  1.7105
 3665TIP3   OH232629   0.977   6.184   0.331  0.1382 -0.2299 -0.2992
 3665TIP3    H132630   0.985   6.127   0.255  1.6721  0.4785 -0.7277
 3665TIP3    H232631   1.064   6.224   0.340  0.2967 -0.9899  2.4052
 3666TIP3   OH232632   6.446   2.875   0.164 -0.9512 -0.6849 -0.3530
 3666TIP3    H132633   6.509   2.865   0.092 -1.0531 -0.3333 -0.4927
 3666TIP3    H232634   6.364   2.899   0.121 -0.8581  0.1741 -0.0799
 3667TIP3   OH232635   5.439   0.636   1.289  0.0119  0.6156  0.3279
 3667TIP3    H132636   5.413   0.551   1.324  0.5731  0.2515 -0.1251
 3667TIP3    H232637   5.376   0.653   1.218  1.4778 -0.6958 -1.3891
 3668TIP3   OH232638   3.314   5.023   6.730 -0.4550 -0.3780  0.2108
 3668TIP3    H132639   3.313   5.118   6.733  0.9284 -0.1769 -2.3430
 3668TIP3    H232640   3.224   4.998   6.710 -0.6559  0.4717  0.0205
 3669TIP3   OH232641   5.949   4.476   7.705  0.4479  0.2989  0.0023
 3669TIP3    H132642   5.902   4.485   7.788  1.2809  0.4285  0.4682
 3669TIP3    H232643   5.886   4.505   7.639 -0.8126 -1.3137  0.4064
 3670TIP3   OH232644   5.366   2.579   0.301  0.0573  0.2721  1.0715
 3670TIP3    H132645   5.436   2.514   0.311  2.2953  2.4738  0.6463
 3670TIP3    H232646   5.343   2.604   0.391  0.1488 -0.1115  1.2018
 3671TIP3   OH232647   4.034   6.803   1.629 -0.0639 -0.0087 -0.7116
 3671TIP3    H132648   4.047   6.849   1.712 -2.0357  0.3639 -0.5654
 3671TIP3    H232649   4.044   6.870   1.562  0.0960 -0.0147 -0.6950
 3672TIP3   OH232650   5.287   6.001   1.756 -0.2098 -0.1407  0.2791
 3672TIP3    H132651   5.209   5.957   1.790  1.3074 -1.3723  2.3489
 3672TIP3    H232652   5.290   6.084   1.802 -1.1825  0.6873 -1.0790
 3673TIP3   OH232653   6.722   3.563   2.925 -0.1633 -0.3877 -0.2558
 3673TIP3    H132654   6.710   3.657   2.940 -1.0301 -0.2552 -1.5946
 3673TIP3    H232655   6.811   3.556   2.890 -0.1687 -0.0347 -0.3484
 3674TIP3   OH232656   6.702   5.069   8.237  0.6995 -0.3633 -0.5697
 3674TIP3    H132657   6.612   5.090   8.211  0.1247 -2.6841 -0.6707
 3674TIP3    H232658   6.715   5.116   8.319  0.4307  2.2554 -1.9340
 3675TIP3   OH232659   6.555   3.861   2.597 -0.1940  0.1822 -0.6904
 3675TIP3    H132660   6.634   3.842   2.648  0.4264  0.3349 -1.5795
 3675TIP3    H232661   6.530   3.949   2.624  0.8353  0.7487 -1.5171
 3676TIP3   OH232662   2.719   5.662   7.715  0.1139  0.0094  0.2946
 3676TIP3    H132663   2.791   5.702   7.666 -0.8656  0.7785 -0.5750
 3676TIP3    H232664   2.758   5.635   7.798  0.9868  2.2034  0.6735
 3677TIP3   OH232665   1.745   4.404   1.048  0.5717  0.3903  0.2567
 3677TIP3    H132666   1.808   4.339   1.079 -1.3176 -1.8305 -0.2737
 3677TIP3    H232667   1.761   4.409   0.953 -0.3558 -0.5726  0.0388
 3678TIP3   OH232668   3.226   2.756   7.011 -0.2429 -0.2428 -0.1139
 3678TIP3    H132669   3.142   2.712   7.001 -0.5311  0.1971  0.3016
 3678TIP3    H232670   3.292   2.688   6.997 -0.6528 -1.4629  3.0102
 3679TIP3   OH232671   0.314   5.775   2.701 -0.3499 -0.6013 -0.4551
 3679TIP3    H132672   0.363   5.847   2.661  0.7316 -0.3063  1.3409
 3679TIP3    H232673   0.253   5.748   2.632  0.9968  0.2881 -2.0848
 3680TIP3   OH232674   2.976   6.212   0.035  0.3958  0.2620  0.2420
 3680TIP3    H132675   3.063   6.237   0.004  0.2370 -0.2153 -0.6334
 3680TIP3    H232676   2.980   6.117   0.043 -0.7590 -0.0906 -2.2777
 3681TIP3   OH232677   3.722   6.449   1.861  0.0112  0.1015  0.1508
 3681TIP3    H132678   3.631   6.469   1.880 -0.6186 -2.2163 -0.1185
 3681TIP3    H232679   3.741   6.496   1.780 -1.6694 -1.1130 -1.0123
 3682TIP3   OH232680   0.239   6.768   1.819  0.2829 -0.2661  0.0532
 3682TIP3    H132681   0.150   6.741   1.797 -0.2129  0.5033  1.0367
 3682TIP3    H232682   0.295   6.700   1.781 -0.5713  0.3022 -2.4173
 3683TIP3   OH232683   2.861   4.446   8.241  0.2568  0.0721  0.3934
 3683TIP3    H132684   2.853   4.488   8.155 -0.6512 -0.0344  0.4260
 3683TIP3    H232685   2.785   4.475   8.290  0.5355 -0.2290  1.0154
 3684TIP3   OH232686   1.826   5.674   2.777 -0.2859  0.1597  0.0924
 3684TIP3    H132687   1.858   5.750   2.827  0.4111 -0.0276 -0.0644
 3684TIP3    H232688   1.844   5.599   2.833  0.7738 -0.0838 -0.5468
 3685TIP3   OH232689   0.336   0.415   2.325  0.2995 -0.1689  0.0789
 3685TIP3    H132690   0.248   0.377   2.326  0.3126 -0.2705 -1.1481
 3685TIP3    H232691   0.333   0.480   2.255  1.5869 -1.1450 -0.9179
 3686TIP3   OH232692   1.295   0.868   0.856 -0.0326 -0.0958  0.0360
 3686TIP3    H132693   1.344   0.872   0.774 -0.3830  2.2899 -0.1257
 3686TIP3    H232694   1.331   0.939   0.909 -0.5776 -0.8810  1.5187
 3687TIP3   OH232695   6.351   0.641   0.308 -0.0182  0.7505 -0.4822
 3687TIP3    H132696   6.288   0.645   0.236  0.0617 -0.5587 -0.6561
 3687TIP3    H232697   6.350   0.729   0.346 -1.6037  0.8922 -0.7758
 3688TIP3   OH232698   5.816   1.092   7.014 -0.3897  0.0348  0.3486
 3688TIP3    H132699   5.843   1.138   6.934 -0.3446 -1.2806 -0.4267
 3688TIP3    H232700   5.734   1.049   6.989  0.2798 -1.4202  0.6077
 3689TIP3   OH232701   2.500   2.096   1.476 -0.6937  0.3500  0.0192
 3689TIP3    H132702   2.453   2.104   1.393  0.1337  0.5580 -0.4448
 3689TIP3    H232703   2.593   2.099   1.451 -0.4187 -0.7726  0.8347
 3690TIP3   OH232704   5.636   1.424   8.200 -0.0132 -0.2254  0.1679
 3690TIP3    H132705   5.684   1.342   8.210 -1.7923 -1.5114 -1.1197
 3690TIP3    H232706   5.680   1.469   8.128  1.2419  0.1982  1.1717
 3691TIP3   OH232707   6.174   4.666   0.843  0.7119  0.0441 -0.0573
 3691TIP3    H132708   6.116   4.666   0.766  0.3370  0.1757  0.2209
 3691TIP3    H232709   6.248   4.720   0.817  0.7566 -0.1987 -0.4508
 3692TIP3   OH232710   1.310   2.372   7.458 -0.7769  0.2654  0.2393
 3692TIP3    H132711   1.224   2.389   7.420 -0.8708  1.6953  0.9959
 3692TIP3    H232712   1.296   2.300   7.519 -0.6883 -1.8415 -2.0825
 3693TIP3   OH232713   3.191   5.462   8.347 -0.3609  0.0113 -0.4788
 3693TIP3    H132714   3.175   5.368   8.334 -0.9703  0.0160  0.1923
 3693TIP3    H232715   3.287   5.470   8.344 -0.3075 -0.6246 -0.6032
 3694TIP3   OH232716   0.073   4.176   7.460 -0.2150 -0.0442 -0.0091
 3694TIP3    H132717   0.139   4.219   7.405  1.6133 -2.3086  0.2614
 3694TIP3    H232718   0.009   4.141   7.397 -1.8720  3.0017 -0.2281
 3695TIP3   OH232719   5.321   2.797   7.929  0.3551  0.5318  0.3924
 3695TIP3    H132720   5.352   2.843   8.007 -0.0385  1.8364 -0.1774
 3695TIP3    H232721   5.377   2.720   7.921  1.0818  0.9479  1.3620
 3696TIP3   OH232722   3.888   2.714   2.568  0.6154  0.0899 -0.2178
 3696TIP3    H132723   3.892   2.783   2.633 -0.8109  0.4748 -0.5039
 3696TIP3    H232724   3.796   2.686   2.568  0.6415 -0.1020 -1.8417
 3697TIP3   OH232725   0.616   6.536   2.812 -0.0450  0.0330  0.1729
 3697TIP3    H132726   0.534   6.583   2.822 -0.5753 -1.1215  1.4185
 3697TIP3    H232727   0.682   6.605   2.800 -0.8176  1.1172  1.8083
 3698TIP3   OH232728   1.265   4.605   1.885  0.4475 -0.1621  0.7650
 3698TIP3    H132729   1.212   4.636   1.811 -0.9320 -0.3501  1.6210
 3698TIP3    H232730   1.258   4.510   1.881  0.6628 -0.1833  0.9155
 3699TIP3   OH232731   0.961   6.854   8.668 -0.1390  0.2256  0.1467
 3699TIP3    H132732   0.974   6.760   8.683  0.0802  0.5109  1.9753
 3699TIP3    H232733   0.866   6.865   8.666 -0.1816  0.1206  1.1677
 3700TIP3   OH232734   2.776   5.782   8.261  0.0819  0.2667 -0.4935
 3700TIP3    H132735   2.834   5.708   8.241 -1.7759 -2.3761  2.7101
 3700TIP3    H232736   2.831   5.859   8.253  3.2536 -1.8193 -0.3859
 3701TIP3   OH232737   3.034   1.944   1.220  0.0138 -0.2231 -0.5553
 3701TIP3    H132738   2.980   2.012   1.260 -2.2123 -0.4289 -2.9435
 3701TIP3    H232739   3.117   1.987   1.201 -1.1698  1.7617 -1.5758
 3702TIP3   OH232740   0.328   1.834   8.667  0.1636 -0.7091 -0.3124
 3702TIP3    H132741   0.361   1.924   8.673  0.9391 -0.7438 -2.7534
 3702TIP3    H232742   0.235   1.844   8.648 -0.3087 -0.5212  1.8605
 3703TIP3   OH232743   4.035   5.911   8.174 -0.5203  0.7185  0.0819
 3703TIP3    H132744   4.033   5.877   8.084  2.5398 -0.1933  0.2289
 3703TIP3    H232745   4.129   5.918   8.194 -1.1128  2.0685  2.7993
 3704TIP3   OH232746   0.089   3.165   1.202  0.5520 -0.2957 -0.4627
 3704TIP3    H132747   0.038   3.192   1.279 -0.3756  1.7042 -1.7234
 3704TIP3    H232748   0.165   3.223   1.202  0.7281 -0.5228 -0.8700
 3705TIP3   OH232749   5.811   2.993   2.580 -0.7917 -0.4466  0.2082
 3705TIP3    H132750   5.749   2.950   2.638  1.0112 -2.8567  0.5196
 3705TIP3    H232751   5.880   3.024   2.638 -1.6473  2.2968 -0.1162
 3706TIP3   OH232752   3.934   2.791   7.660 -0.2921  0.0695 -0.3742
 3706TIP3    H132753   3.989   2.824   7.588 -0.6153 -0.3879 -0.8460
 3706TIP3    H232754   3.983   2.715   7.693  0.0204  0.4839  0.1161
 3707TIP3   OH232755   1.889   4.400   0.193 -0.3052 -0.1434  0.3361
 3707TIP3    H132756   1.890   4.435   0.282 -2.4931 -0.5891  0.5949
 3707TIP3    H232757   1.950   4.326   0.195  0.8862  0.8116  0.9917
 3708TIP3   OH232758   3.224   6.867   7.742 -0.2590  0.5259 -0.0501
 3708TIP3    H132759   3.185   6.826   7.665  0.5506 -0.0113 -0.1890
 3708TIP3    H232760   3.150   6.889   7.798 -0.7138 -1.5889  0.2556
 3709TIP3   OH232761   4.147   1.204   1.041  0.2563  0.0132 -0.0304
 3709TIP3    H132762   4.071   1.225   1.094  0.5186 -0.1939  0.4347
 3709TIP3    H232763   4.117   1.136   0.981 -0.7032  1.9069 -1.8035
 3710TIP3   OH232764   2.324   3.833   0.461 -0.3744 -0.4480 -0.2445
 3710TIP3    H132765   2.281   3.881   0.390 -0.8892  0.0558  0.3919
 3710TIP3    H232766   2.268   3.849   0.537  0.6035 -0.3106  0.4539
 3711TIP3   OH232767   2.169   4.747   1.692 -0.3747 -0.4470  0.0457
 3711TIP3    H132768   2.228   4.710   1.757 -1.3175 -0.7402  0.7669
 3711TIP3    H232769   2.168   4.683   1.621 -0.0454 -0.5762  0.1560
 3712TIP3   OH232770   2.560   4.197   0.840 -0.0183 -0.3747 -0.0009
 3712TIP3    H132771   2.610   4.226   0.764 -0.1566  0.6785  0.2815
 3712TIP3    H232772   2.587   4.107   0.855  0.7269 -0.2784 -0.7132
 3713TIP3   OH232773   1.934   3.370   1.736  0.6491  0.8236 -0.3331
 3713TIP3    H132774   1.999   3.307   1.705  0.9202  1.3640 -0.8709
 3713TIP3    H232775   1.851   3.322   1.733  1.1570 -0.3441  1.6637
 3714TIP3   OH232776   5.983   0.439   1.104  0.2755 -0.4037 -0.1601
 3714TIP3    H132777   5.912   0.377   1.119  0.2059 -0.6447 -1.4122
 3714TIP3    H232778   6.063   0.390   1.123  0.3502 -1.5509 -2.9597
 3715TIP3   OH232779   1.059   6.744   6.827 -0.6282 -0.1355 -0.5136
 3715TIP3    H132780   1.052   6.666   6.884  1.5535  0.2350  0.3497
 3715TIP3    H232781   0.976   6.746   6.780 -2.2545 -0.9340  2.0815
 3716TIP3   OH232782   5.349   1.447   8.074 -0.4992 -0.6734  0.3970
 3716TIP3    H132783   5.264   1.472   8.036 -1.3555 -1.7263  1.5401
 3716TIP3    H232784   5.384   1.528   8.109 -1.5604 -0.4128  0.8902
 3717TIP3   OH232785   5.644   6.450   7.626  0.1381  0.0268  0.4133
 3717TIP3    H132786   5.636   6.523   7.688  3.3789  1.8100 -0.9957
 3717TIP3    H232787   5.626   6.489   7.541 -0.8915 -1.5534 -0.1285
 3718TIP3   OH232788   2.145   1.242   2.190 -0.2661 -0.8490  0.6014
 3718TIP3    H132789   2.232   1.211   2.164  0.2199 -0.2809  1.4891
 3718TIP3    H232790   2.086   1.208   2.123  0.6254 -1.3416  0.0493
 3719TIP3   OH232791   0.300   5.101   0.761 -0.0445 -0.2893 -0.5146
 3719TIP3    H132792   0.331   5.188   0.789 -1.0082 -0.1472  0.1372
 3719TIP3    H232793   0.377   5.061   0.721  0.3114  1.0274 -1.2276
 3720TIP3   OH232794   1.766   2.939   2.880 -0.1262 -0.0653 -0.3126
 3720TIP3    H132795   1.693   2.887   2.912 -0.5509 -0.2138 -1.4666
 3720TIP3    H232796   1.725   3.020   2.849  0.4544  0.7260  0.9249
 3721TIP3   OH232797   0.148   6.140   3.183 -0.1955  0.1898  0.1096
 3721TIP3    H132798   0.241   6.123   3.165 -0.1856  0.4105 -0.0559
 3721TIP3    H232799   0.108   6.147   3.096  0.0666  2.4637  0.1308
 3722TIP3   OH232800   1.196   2.100   8.358 -0.2894  0.4711 -0.2574
 3722TIP3    H132801   1.199   2.019   8.408 -0.2407 -0.0362 -1.0638
 3722TIP3    H232802   1.133   2.083   8.288 -0.9376  1.4297  0.0626
 3723TIP3   OH232803   2.389   4.177   8.174  0.2830 -0.1461 -0.3293
 3723TIP3    H132804   2.308   4.217   8.141 -0.9409 -0.4554  2.0638
 3723TIP3    H232805   2.378   4.083   8.157  1.0220 -0.0116 -1.6743
 3724TIP3   OH232806   5.264   0.108   0.675 -0.1877 -0.1236  0.0835
 3724TIP3    H132807   5.316   0.028   0.664  0.0245 -0.0825  0.7855
 3724TIP3    H232808   5.236   0.129   0.586 -0.7045 -1.2909 -0.0573
 3725TIP3   OH232809   2.737   0.357   0.141 -0.6859 -0.2068  0.1577
 3725TIP3    H132810   2.708   0.326   0.227 -0.9325 -1.1094 -0.2346
 3725TIP3    H232811   2.681   0.432   0.123 -0.3702  0.2282  0.9546
 3726TIP3   OH232812   2.278   6.796   3.049 -0.2147  0.2175 -0.4238
 3726TIP3    H132813   2.324   6.867   3.093 -1.0884  1.7984 -1.9441
 3726TIP3    H232814   2.306   6.717   3.096 -0.8125  1.7004  2.7353
 3727TIP3   OH232815   5.939   2.749   1.554  0.5504  0.1191  0.1724
 3727TIP3    H132816   5.989   2.668   1.560  2.0849  0.8462 -1.6237
 3727TIP3    H232817   5.986   2.811   1.609  0.5143  0.2938  0.0102
 3728TIP3   OH232818   3.748   3.839   0.594  0.0055 -0.4344  0.0895
 3728TIP3    H132819   3.809   3.778   0.634  0.0788 -1.1956 -1.1360
 3728TIP3    H232820   3.666   3.790   0.588 -0.2890  0.0324  0.2462
 3729TIP3   OH232821   1.098   6.842   0.211  0.5827 -0.0945  0.0538
 3729TIP3    H132822   1.056   6.911   0.160 -0.5907 -0.3595  0.6378
 3729TIP3    H232823   1.109   6.879   0.298  2.0995  0.1654 -0.2051
 3730TIP3   OH232824   1.558   3.362   1.369  0.2194 -0.1660  0.1699
 3730TIP3    H132825   1.637   3.364   1.316  0.0446  0.1421 -0.0818
 3730TIP3    H232826   1.576   3.420   1.443  0.0165  0.3560 -0.1894
 3731TIP3   OH232827   1.173   3.594   0.653 -0.3447 -0.1999  0.4805
 3731TIP3    H132828   1.247   3.580   0.712 -1.4565 -0.7770  1.8220
 3731TIP3    H232829   1.096   3.574   0.707 -1.4247 -0.7204 -1.1816
 3732TIP3   OH232830   6.423   1.680   0.944  0.6870  0.1588  0.1219
 3732TIP3    H132831   6.334   1.670   0.980  0.1316  0.2008 -1.1915
 3732TIP3    H232832   6.438   1.599   0.895  1.2600  0.2972  0.0607
 3733TIP3   OH232833   5.144   6.619   8.125 -0.1740 -0.0923 -0.1527
 3733TIP3    H132834   5.076   6.578   8.071 -2.1727 -0.4712  2.4479
 3733TIP3    H232835   5.134   6.713   8.109 -0.7782 -0.1924 -0.3901
 3734TIP3   OH232836   1.795   5.185   7.386  0.1792  0.4521 -0.0639
 3734TIP3    H132837   1.823   5.165   7.297  1.4128  1.0050  0.1795
 3734TIP3    H232838   1.742   5.264   7.378  0.9834  0.9840 -0.2207
 3735TIP3   OH232839   4.617   4.633   1.449 -0.2121  0.2331 -0.1162
 3735TIP3    H132840   4.629   4.713   1.500 -1.5267  0.6849 -0.4846
 3735TIP3    H232841   4.593   4.566   1.513  0.2120  0.2829  0.1021
 3736TIP3   OH232842   0.261   3.351   1.482  0.6524  0.5388  0.0563
 3736TIP3    H132843   0.273   3.325   1.573  1.2721 -0.1585 -0.2093
 3736TIP3    H232844   0.168   3.337   1.465  0.8723 -1.1326  0.0637
 3737TIP3   OH232845   4.396   4.464   8.257  0.1513 -0.1117 -0.0859
 3737TIP3    H132846   4.315   4.464   8.205 -0.6026  0.7387  1.0303
 3737TIP3    H232847   4.466   4.449   8.193 -0.8870 -1.0780 -1.0597
 3738TIP3   OH232848   4.783   2.400   8.520  0.2618 -0.2856 -0.0473
 3738TIP3    H132849   4.764   2.329   8.459  1.8640 -0.8399  0.0495
 3738TIP3    H232850   4.858   2.446   8.482  1.1786 -0.5224  1.3776
 3739TIP3   OH232851   5.246   1.564   8.358 -0.1339 -0.3618  0.4215
 3739TIP3    H132852   5.153   1.555   8.338 -0.0878 -1.3122  0.5882
 3739TIP3    H232853   5.268   1.652   8.328 -1.3389  0.3163  1.4091
 3740TIP3   OH232854   1.563   6.719   0.968  0.5493 -0.3167 -0.0869
 3740TIP3    H132855   1.625   6.788   0.991 -0.8925  1.4570 -1.1742
 3740TIP3    H232856   1.616   6.649   0.931  1.9925  0.6386  0.1122
 3741TIP3   OH232857   2.479   4.473   8.697  0.5797  0.0643  0.1777
 3741TIP3    H132858   2.480   4.378   8.703  3.1237  0.0538  0.4969
 3741TIP3    H232859   2.394   4.498   8.733  0.2289 -2.0339  0.9279
 3742TIP3   OH232860   4.712   3.917   7.606  0.3526  0.3354 -0.5120
 3742TIP3    H132861   4.736   3.986   7.669  1.3894  0.0063 -0.5162
 3742TIP3    H232862   4.777   3.926   7.536 -0.5271  0.4193 -1.3338
 3743TIP3   OH232863   6.322   3.785   0.674 -0.2343 -0.2124  0.2047
 3743TIP3    H132864   6.279   3.812   0.755 -0.7567  1.3569 -0.5417
 3743TIP3    H232865   6.252   3.746   0.621 -0.0623 -0.5393  0.2188
 3744TIP3   OH232866   0.091   6.060   0.394  0.0244  0.1767  0.3519
 3744TIP3    H132867   0.083   6.149   0.429 -0.0466  0.3764 -0.1520
 3744TIP3    H232868   0.165   6.065   0.334 -0.1353 -0.0376  0.1346
 3745TIP3   OH232869   4.209   2.952   1.433 -0.4604  0.4264 -0.8640
 3745TIP3    H132870   4.179   2.885   1.494 -1.9909  0.1447 -1.8631
 3745TIP3    H232871   4.279   2.998   1.479 -1.3988  0.0581  0.9974
 3746TIP3   OH232872   5.565   1.016   7.651  0.1675  0.1938  0.1652
 3746TIP3    H132873   5.528   0.928   7.642 -0.6401  0.1431  3.0358
 3746TIP3    H232874   5.658   1.001   7.668  0.3778  0.0263 -1.0243
 3747TIP3   OH232875   5.908   1.643   0.164 -0.0001  0.4149  0.4229
 3747TIP3    H132876   5.859   1.681   0.090  0.5876 -0.8292 -0.6530
 3747TIP3    H232877   5.996   1.678   0.154  0.4723 -0.9405 -0.4086
 3748TIP3   OH232878   3.032   0.575   8.451 -0.0297 -0.3410  0.0830
 3748TIP3    H132879   2.983   0.499   8.419  0.4919 -0.0082 -1.5597
 3748TIP3    H232880   3.106   0.583   8.392 -0.1638  1.5582  0.1260
 3749TIP3   OH232881   0.893   0.614   0.773 -0.2372  0.2619 -0.2811
 3749TIP3    H132882   0.920   0.644   0.686  0.3914  1.2571  0.2355
 3749TIP3    H232883   0.837   0.684   0.805  0.3179  0.3607  0.4916
 3750TIP3   OH232884   6.157   1.507   1.828 -0.0952 -0.1119  0.0909
 3750TIP3    H132885   6.117   1.544   1.906  1.6185 -0.7697  1.3262
 3750TIP3    H232886   6.105   1.428   1.810 -0.5954  0.1266  0.4557
 3751TIP3   OH232887   0.944   6.465   0.770 -0.0416  0.1495 -0.2194
 3751TIP3    H132888   0.947   6.552   0.730 -1.3383 -0.2545 -1.2689
 3751TIP3    H232889   1.034   6.433   0.764  0.5640  1.5964  0.6489
 3752TIP3   OH232890   6.766   6.022   8.568  0.0728 -0.2689  0.3761
 3752TIP3    H132891   6.723   6.103   8.539  0.9532 -0.0100 -0.2477
 3752TIP3    H232892   6.717   5.996   8.646  0.6356  1.6348  1.4205
 3753TIP3   OH232893   6.373   6.593   7.872  0.5426 -0.3463  0.1105
 3753TIP3    H132894   6.365   6.598   7.968  3.1287  1.1865  0.3504
 3753TIP3    H232895   6.462   6.560   7.857 -0.2332 -1.7418 -1.8248
 3754TIP3   OH232896   1.319   2.244   8.016 -0.4086  0.1932 -0.0669
 3754TIP3    H132897   1.291   2.323   8.062  1.1397  1.4687 -1.2156
 3754TIP3    H232898   1.413   2.239   8.031 -0.1621 -0.3318 -1.6188
 3755TIP3   OH232899   1.528   3.920   8.718 -0.2561 -0.6748 -0.3625
 3755TIP3    H132900   1.562   3.848   8.666 -0.0462 -1.6423  1.0575
 3755TIP3    H232901   1.466   3.878   8.778 -0.9785  0.4975 -0.2650
 3756TIP3   OH232902   4.269   1.944   1.552  0.1175  1.0935  0.4274
 3756TIP3    H132903   4.290   2.007   1.484  2.5130  0.8552  0.8501
 3756TIP3    H232904   4.346   1.944   1.609 -0.7983 -0.4912  1.7606
 3757TIP3   OH232905   5.255   3.404   0.919 -0.4300 -0.4404 -0.7982
 3757TIP3    H132906   5.252   3.361   0.833 -0.1048  1.0032 -1.5589
 3757TIP3    H232907   5.318   3.475   0.908  0.5053 -0.9331  0.9921
 3758TIP3   OH232908   5.335   4.696   2.419  0.0580 -0.1696 -0.2566
 3758TIP3    H132909   5.334   4.774   2.364  0.3075 -1.6313 -2.4714
 3758TIP3    H232910   5.428   4.679   2.435 -0.0277  0.7197  1.4273
 3759TIP3   OH232911   4.993   4.715   0.331 -0.2069  0.4709  0.7542
 3759TIP3    H132912   4.966   4.764   0.254 -0.1425 -0.4848  0.1104
 3759TIP3    H232913   4.935   4.746   0.401 -0.7165  0.8602  0.1699
 3760TIP3   OH232914   1.549   1.446   2.629  0.4390 -0.0538 -0.1897
 3760TIP3    H132915   1.628   1.415   2.585 -0.3995 -3.1513  0.2358
 3760TIP3    H232916   1.566   1.429   2.722 -1.0335 -1.7971 -0.1792
 3761TIP3   OH232917   5.533   5.835   8.525 -0.2633  0.5332 -0.2997
 3761TIP3    H132918   5.555   5.750   8.562 -0.7765  0.2994 -0.5198
 3761TIP3    H232919   5.505   5.887   8.600 -0.6515  0.2741 -0.2623
 3762TIP3   OH232920   3.056   6.351   7.721 -0.0682 -0.6670 -0.2213
 3762TIP3    H132921   3.014   6.332   7.638  0.6150 -1.2430 -0.4445
 3762TIP3    H232922   3.111   6.428   7.704  0.0822 -0.7930 -0.3090
 3763TIP3   OH232923   3.001   3.067   8.551 -0.1394 -0.0688  0.2352
 3763TIP3    H132924   3.042   3.003   8.492 -0.2550 -0.7461  0.8661
 3763TIP3    H232925   3.057   3.066   8.629 -0.7473 -0.2067  0.6774
 3764TIP3   OH232926   5.499   2.253   0.616 -0.4468 -0.5936 -0.4318
 3764TIP3    H132927   5.595   2.253   0.605 -0.2974 -1.2965  0.6841
 3764TIP3    H232928   5.479   2.165   0.648 -1.3002 -0.0288  0.6662
 3765TIP3   OH232929   2.307   1.447   0.130  0.2212  0.1132  0.0278
 3765TIP3    H132930   2.321   1.536   0.161 -0.8631  0.5162 -0.5631
 3765TIP3    H232931   2.212   1.434   0.138 -0.0546  0.0767 -2.5964
 3766TIP3   OH232932   1.383   3.495   8.653  0.0474  0.5249 -0.6426
 3766TIP3    H132933   1.384   3.402   8.675  0.9477  0.5830 -0.3967
 3766TIP3    H232934   1.330   3.535   8.722 -0.4782  0.1792 -0.8401
 3767TIP3   OH232935   3.764   5.537   0.535  0.1667  0.1184 -0.0072
 3767TIP3    H132936   3.770   5.631   0.550 -1.3989  0.4522 -1.1563
 3767TIP3    H232937   3.852   5.511   0.507  0.3990  1.4343 -0.5755
 3768TIP3   OH232938   3.123   2.275   0.083 -0.4510  0.0489  0.3853
 3768TIP3    H132939   3.062   2.329   0.033  1.7204  1.9462 -0.3943
 3768TIP3    H232940   3.154   2.331   0.154  1.1481 -0.4483  0.1287
 3769TIP3   OH232941   2.910   5.372   2.761 -0.1455 -0.0825  0.0914
 3769TIP3    H132942   2.817   5.394   2.759 -0.6500 -2.0482  0.1704
 3769TIP3    H232943   2.914   5.281   2.733  2.0436  0.6955 -2.6034
 3770TIP3   OH232944   4.526   2.043   0.156  0.1057  0.7028  0.5548
 3770TIP3    H132945   4.485   2.092   0.085  1.0740  0.7969  0.0369
 3770TIP3    H232946   4.572   1.972   0.112 -0.5408 -0.1541  1.2284
 3771TIP3   OH232947   4.546   5.450   8.745 -0.1201  0.3685 -0.0674
 3771TIP3    H132948   4.539   5.469   8.651  0.4261  0.4208 -0.0968
 3771TIP3    H232949   4.505   5.364   8.754  1.4675 -0.4762 -0.6548
 3772TIP3   OH232950   3.692   2.030   1.336 -0.0419  0.2067  0.0963
 3772TIP3    H132951   3.651   2.006   1.419  1.7690 -1.2844  0.6330
 3772TIP3    H232952   3.765   1.969   1.327  1.2850  1.9096 -1.4213
 3773TIP3   OH232953   4.303   4.518   2.315  0.0531 -0.5586 -0.0235
 3773TIP3    H132954   4.303   4.547   2.406 -1.0940  0.2360 -0.2594
 3773TIP3    H232955   4.396   4.517   2.290  0.3942 -1.0097  1.2114
 3774TIP3   OH232956   1.760   4.466   2.530  0.2712  0.3011 -0.2159
 3774TIP3    H132957   1.845   4.505   2.551 -1.0842  3.2920  0.2148
 3774TIP3    H232958   1.715   4.461   2.614 -1.0889  1.7309 -0.8194
 3775TIP3   OH232959   2.196   4.501   1.562 -0.0117  0.6987 -0.1547
 3775TIP3    H132960   2.157   4.435   1.504 -2.1695  1.2447  0.5557
 3775TIP3    H232961   2.237   4.450   1.632 -0.9940  0.0772 -0.0051
 3776TIP3   OH232962   3.288   5.200   8.382 -0.2401 -0.4509  0.4386
 3776TIP3    H132963   3.292   5.241   8.468  1.5156 -1.4607  0.8711
 3776TIP3    H232964   3.365   5.144   8.377  0.3405  0.4165 -2.2412
 3777TIP3   OH232965   4.573   4.738   1.988 -0.4092 -0.3530 -0.2792
 3777TIP3    H132966   4.589   4.672   2.055  1.4984 -0.2031 -0.5329
 3777TIP3    H232967   4.490   4.779   2.014 -0.8939 -1.8540  0.6664
 3778TIP3   OH232968   4.544   6.383   8.514  0.3532  0.8125 -0.1307
 3778TIP3    H132969   4.470   6.422   8.560  0.1227  0.9202 -0.5839
 3778TIP3    H232970   4.510   6.365   8.426  1.1040  1.5929 -0.5886
 3779TIP3   OH232971   0.240   3.394   7.501  0.2088 -0.1523  0.3298
 3779TIP3    H132972   0.223   3.486   7.523 -2.4533 -0.5639  0.3036
 3779TIP3    H232973   0.307   3.367   7.564 -1.5062  0.8803  2.7651
 3780TIP3   OH232974   2.088   4.911   0.059  0.1821 -0.4164  0.3200
 3780TIP3    H132975   2.180   4.897   0.083  0.2029 -0.2428  0.3443
 3780TIP3    H232976   2.040   4.841   0.104  0.3747 -0.8967 -0.2030
 3781TIP3   OH232977   6.097   6.384   8.173  0.2948  0.1924 -1.0793
 3781TIP3    H132978   6.077   6.296   8.205  2.1768 -0.2703 -1.0941
 3781TIP3    H232979   6.093   6.376   8.077  1.3598 -0.1164 -1.1051
 3782TIP3   OH232980   0.863   1.736   0.336 -0.4959 -0.3846 -0.7969
 3782TIP3    H132981   0.787   1.724   0.393 -0.1860 -1.4593 -0.5682
 3782TIP3    H232982   0.851   1.822   0.297  0.3060  1.3528  2.4502
 3783TIP3   OH232983   0.602   6.875   0.174 -0.0614  0.5601 -0.5982
 3783TIP3    H132984   0.647   6.791   0.182 -0.5362  0.3159 -0.4815
 3783TIP3    H232985   0.651   6.934   0.232 -0.8211 -0.1010  0.7840
 3784TIP3   OH232986   0.830   5.680   0.963  1.1482 -0.0777  0.0853
 3784TIP3    H132987   0.754   5.627   0.988  0.6110  0.1969 -0.8671
 3784TIP3    H232988   0.821   5.760   1.015 -0.2665  0.7301 -1.2859
 3785TIP3   OH232989   3.002   1.994   2.645 -0.2306  0.2665 -0.3903
 3785TIP3    H132990   2.953   2.070   2.676  0.7138  0.7939 -0.1560
 3785TIP3    H232991   3.062   2.030   2.579  1.5341  0.0606  1.0415
 3786TIP3   OH232992   3.703   0.837   2.196 -0.6555  0.1192 -0.2781
 3786TIP3    H132993   3.666   0.774   2.258  0.1907 -0.7181 -0.5948
 3786TIP3    H232994   3.641   0.910   2.197 -0.6439  0.1660  1.5911
 3787TIP3   OH232995   3.564   4.250   2.646 -0.4351  0.7052 -0.1707
 3787TIP3    H132996   3.591   4.336   2.678 -0.2231  0.2379  0.9361
 3787TIP3    H232997   3.481   4.268   2.599  1.2728  2.0249 -2.9845
 3788TIP3   OH232998   4.196   2.080   8.412 -0.3027 -0.4111  0.5659
 3788TIP3    H132999   4.243   2.158   8.444  0.4182 -0.7246  0.2959
 3788TIP3    H233000   4.105   2.097   8.434 -0.2060  0.6678  0.2070
 3789TIP3   OH233001   0.735   5.983   7.922  0.3287 -0.4546  0.2008
 3789TIP3    H133002   0.702   5.921   7.987 -1.8140  0.2426 -0.1424
 3789TIP3    H233003   0.805   6.030   7.967 -0.8051 -0.2898  1.8954
 3790TIP3   OH233004   3.737   1.853   8.599 -0.4553  0.4249  0.6072
 3790TIP3    H133005   3.653   1.808   8.606 -0.4490  0.5337  1.6391
 3790TIP3    H233006   3.785   1.805   8.532 -0.8633 -0.4448  0.9223
 3791TIP3   OH233007   6.473   0.568   1.773  0.1080  0.0326 -0.4674
 3791TIP3    H133008   6.411   0.506   1.811 -0.3421  1.0530  0.5288
 3791TIP3    H233009   6.556   0.520   1.769  0.0802 -0.2583  1.4518
 3792TIP3   OH233010   4.137   1.353   0.271  0.0317  0.0021  0.5936
 3792TIP3    H133011   4.220   1.312   0.244 -0.2143 -0.0824 -0.0468
 3792TIP3    H233012   4.091   1.285   0.319 -1.3344 -1.2860 -2.2850
 3793TIP3   OH233013   2.177   2.202   0.983  0.1580  0.4147  0.7161
 3793TIP3    H133014   2.221   2.271   1.032  2.6079 -0.5501  0.0109
 3793TIP3    H233015   2.248   2.146   0.951 -1.6780 -1.9432  0.5085
 3794TIP3   OH233016   3.460   3.012   8.244  0.3128 -0.0844 -0.0205
 3794TIP3    H133017   3.384   3.069   8.238 -0.7373 -1.4973 -0.5627
 3794TIP3    H233018   3.503   3.037   8.325 -0.6055  0.8772  0.1856
 3795TIP3   OH233019   0.095   2.220   8.085  0.0625  0.5207  0.1771
 3795TIP3    H133020   0.166   2.203   8.147 -0.4870 -0.0939  0.6578
 3795TIP3    H233021   0.017   2.230   8.140 -0.1330  1.8544 -0.2911
 3796TIP3   OH233022   1.207   6.141   7.790 -0.0147 -0.3957  0.4742
 3796TIP3    H133023   1.294   6.158   7.755 -0.3564  2.1379  0.6464
 3796TIP3    H233024   1.162   6.094   7.720  1.0634 -0.4956 -0.1783
 3797TIP3   OH233025   4.982   5.950   0.270  0.6583  0.6948  0.2433
 3797TIP3    H133026   4.981   5.990   0.183  1.6678  0.9374  0.3358
 3797TIP3    H233027   5.045   6.002   0.320  0.9066 -0.1176  0.8034
 3798TIP3   OH233028   3.101   4.101   6.767 -0.2543 -0.2525  0.2791
 3798TIP3    H133029   3.011   4.086   6.797 -0.8702  2.2876 -0.1162
 3798TIP3    H233030   3.121   4.191   6.791  1.2210  0.1182 -1.9525
 3799TIP3   OH233031   4.756   4.442   8.350  0.1093  0.4206  0.2306
 3799TIP3    H133032   4.716   4.435   8.263 -1.8716  2.5697  0.8758
 3799TIP3    H233033   4.841   4.483   8.334  0.1467 -0.0128 -0.7638
 3800TIP3   OH233034   5.763   6.302   8.512  0.0437 -0.8988 -0.4256
 3800TIP3    H133035   5.701   6.372   8.492  1.0682 -0.7703 -3.8263
 3800TIP3    H233036   5.829   6.344   8.567 -0.7224  0.0697 -0.2121
 3801TIP3   OH233037   6.616   3.760   0.876 -0.4392  0.2324  0.3575
 3801TIP3    H133038   6.593   3.800   0.960 -3.3916  0.3756 -0.4026
 3801TIP3    H233039   6.552   3.689   0.865 -0.7875  0.8469 -2.1855
 3802TIP3   OH233040   1.503   6.578   2.369 -0.3215 -0.2602  0.4817
 3802TIP3    H133041   1.511   6.527   2.450 -2.4948 -1.2779  0.1237
 3802TIP3    H233042   1.522   6.515   2.299 -1.0750 -0.0871  0.1120
 3803TIP3   OH233043   2.375   3.790   1.366  0.3457 -0.3685 -0.6498
 3803TIP3    H133044   2.459   3.778   1.322 -0.2361 -1.9751 -1.3893
 3803TIP3    H233045   2.311   3.789   1.295 -0.5382 -2.1490  0.1202
 3804TIP3   OH233046   4.907   6.053   2.629 -0.5023  0.3370  0.8779
 3804TIP3    H133047   4.910   5.957   2.634 -0.5444  0.3975  2.5392
 3804TIP3    H233048   4.816   6.073   2.605 -0.5017 -0.0368  0.5549
 3805TIP3   OH233049   6.411   4.729   7.246 -0.1800 -0.7652 -0.3775
 3805TIP3    H133050   6.401   4.760   7.156  1.5943 -0.6924 -0.5876
 3805TIP3    H233051   6.503   4.702   7.252  0.0439  0.2207  1.6959
 3806TIP3   OH233052   0.088   3.881   7.994  0.0162  0.1633 -0.1797
 3806TIP3    H133053   0.038   3.804   8.021  1.8158 -1.5251 -1.3578
 3806TIP3    H233054   0.043   3.913   7.916 -0.5270  0.0704  0.0920
 3807TIP3   OH233055   0.078   1.698   2.190  0.0926  0.3504  0.5834
 3807TIP3    H133056   0.168   1.719   2.166  0.7121  0.4559  2.8295
 3807TIP3    H233057   0.063   1.610   2.154  1.5347 -0.1992  1.2847
 3808TIP3   OH233058   5.510   5.744   2.348 -0.0976  0.1050  0.2282
 3808TIP3    H133059   5.523   5.793   2.429 -1.2243  0.2331  0.3470
 3808TIP3    H233060   5.590   5.691   2.339  1.5288  2.4898 -0.3252
 3809TIP3   OH233061   2.144   2.265   7.914 -0.2091 -0.2873 -0.1876
 3809TIP3    H133062   2.165   2.205   7.842  1.1200  1.2450 -1.1502
 3809TIP3    H233063   2.153   2.212   7.993  0.6891 -1.4073 -1.0120
 3810TIP3   OH233064   5.313   5.924   1.140 -0.5316 -0.6196  0.1391
 3810TIP3    H133065   5.307   5.850   1.080  2.6543 -2.6260  1.9819
 3810TIP3    H233066   5.242   5.911   1.203 -0.4771 -1.7146 -0.0122
 3811TIP3   OH233067   4.498   3.839   2.116 -0.4931 -0.7391 -0.2189
 3811TIP3    H133068   4.464   3.920   2.077 -0.7304 -1.5849 -1.8319
 3811TIP3    H233069   4.590   3.858   2.134 -1.1061  0.7162  1.8281
 3812TIP3   OH233070   2.747   3.601   1.050 -0.3571 -1.0154  0.3264
 3812TIP3    H133071   2.801   3.676   1.023 -1.5504 -0.2927 -0.1040
 3812TIP3    H233072   2.728   3.555   0.969 -0.6157 -1.1163  0.4435
 3813TIP3   OH233073   0.795   4.467   6.713 -0.3067 -0.2814 -0.4947
 3813TIP3    H133074   0.707   4.497   6.733 -0.9020 -1.4910 -1.2070
 3813TIP3    H233075   0.796   4.375   6.741  1.1213  0.0395  0.6374
 3814TIP3   OH233076   6.361   1.844   2.520 -0.1621 -0.0830 -0.4446
 3814TIP3    H133077   6.416   1.801   2.585  0.4462 -1.8546 -2.0268
 3814TIP3    H233078   6.418   1.909   2.479 -0.0466 -0.0917 -0.2950
 3815TIP3   OH233079   2.660   3.081   0.198  0.6454 -0.8849  0.8004
 3815TIP3    H133080   2.645   2.989   0.176  0.4889 -1.0553  1.5907
 3815TIP3    H233081   2.739   3.105   0.149 -0.1328 -1.0066 -0.5758
 3816TIP3   OH233082   4.315   4.915   8.183 -0.3695  0.5824  0.0956
 3816TIP3    H133083   4.246   4.885   8.124  1.3123 -0.8675 -1.2488
 3816TIP3    H233084   4.299   4.867   8.265 -0.5847 -0.2117 -0.4076
 3817TIP3   OH233085   1.159   6.289   0.725 -0.1730  0.4733  0.3098
 3817TIP3    H133086   1.158   6.234   0.804  1.5464 -0.2446 -0.1266
 3817TIP3    H233087   1.203   6.235   0.659  0.0396  1.7487 -0.6287
 3818TIP3   OH233088   1.195   6.408   2.066 -0.0498  0.4680  0.8687
 3818TIP3    H133089   1.276   6.371   2.030 -0.7816 -0.3932  0.0320
 3818TIP3    H233090   1.198   6.501   2.043  0.1698  0.2091 -0.2128
 3819TIP3   OH233091   3.753   5.999   2.058  0.0357 -0.0079  0.1951
 3819TIP3    H133092   3.693   5.959   2.121 -1.1907  0.0433 -0.9190
 3819TIP3    H233093   3.807   6.058   2.112 -0.8266 -0.1369  1.2310
 3820TIP3   OH233094   6.142   2.786   7.592  0.2621  0.7157  0.0133
 3820TIP3    H133095   6.155   2.692   7.582  2.9136  1.0577 -0.3264
 3820TIP3    H233096   6.121   2.817   7.504 -0.0077  0.5492  0.0168
 3821TIP3   OH233097   3.064   4.157   7.754  0.0233 -0.2682 -0.6549
 3821TIP3    H133098   3.100   4.070   7.739 -3.0390 -1.7083 -0.5614
 3821TIP3    H233099   3.105   4.187   7.835 -0.2109 -2.4960  0.3685
 3822TIP3   OH233100   0.101   1.724   0.407 -0.1735 -0.3157  0.0274
 3822TIP3    H133101   0.168   1.720   0.476 -0.1408 -0.6331 -0.0200
 3822TIP3    H233102   0.077   1.633   0.393  0.2999 -0.3154 -0.8525
 3823TIP3   OH233103   0.950   1.692   8.133 -0.1115 -0.1688  0.6072
 3823TIP3    H133104   0.915   1.648   8.055  2.1709 -1.7501  0.3762
 3823TIP3    H233105   0.956   1.623   8.198  0.2036  0.6347  1.4396
 3824TIP3   OH233106   3.270   3.417   1.024  0.0428 -0.5911  0.4547
 3824TIP3    H133107   3.252   3.342   1.080 -0.0472 -0.1952  0.9681
 3824TIP3    H233108   3.316   3.479   1.081  0.2081 -0.3013  0.0094
 3825TIP3   OH233109   2.827   0.686   0.207  0.0981 -0.1544 -0.1515
 3825TIP3    H133110   2.773   0.695   0.285  0.4187 -0.0483  0.0582
 3825TIP3    H233111   2.904   0.740   0.224 -0.3110  0.7159 -0.9787
 3826TIP3   OH233112   4.317   1.969   7.523  0.5609 -0.1966  0.1584
 3826TIP3    H133113   4.383   1.962   7.454 -0.5784 -3.5499 -0.7490
 3826TIP3    H233114   4.364   1.947   7.603  1.0746  0.0355 -0.0723
 3827TIP3   OH233115   3.019   1.485   0.049 -0.5905  0.2803  0.2212
 3827TIP3    H133116   3.052   1.400   0.077 -1.2487  0.5775  2.0667
 3827TIP3    H233117   3.094   1.528   0.008  0.7537  0.0938  2.3274
 3828TIP3   OH233118   4.429   6.629   0.133 -0.0534  0.6718  0.3147
 3828TIP3    H133119   4.356   6.688   0.115 -1.2622  0.1990  2.9942
 3828TIP3    H233120   4.502   6.686   0.157 -0.5546  1.1338  0.7651
 3829TIP3   OH233121   6.213   0.379   7.772 -0.1655  0.4114  0.1846
 3829TIP3    H133122   6.259   0.416   7.697  0.2078  2.0514  1.1597
 3829TIP3    H233123   6.263   0.300   7.794 -0.0170  0.1614 -0.9924
 3830TIP3   OH233124   2.176   5.011   8.317 -0.2831  0.0828  0.1070
 3830TIP3    H133125   2.237   4.940   8.337  0.3032  0.8162  0.9656
 3830TIP3    H233126   2.158   5.051   8.401 -2.0190 -0.1550 -0.1204
 3831TIP3   OH233127   4.084   4.103   0.063 -0.4692 -0.1147 -0.5740
 3831TIP3    H133128   4.095   4.019   0.019 -0.0170  1.0433 -2.8362
 3831TIP3    H233129   4.173   4.133   0.080 -0.4007  1.5569 -3.2953
 3832TIP3   OH233130   5.094   4.527   7.615 -0.2928 -0.7364  0.3506
 3832TIP3    H133131   5.149   4.485   7.681  0.5994 -1.4792 -0.8225
 3832TIP3    H233132   5.082   4.616   7.647  1.3764 -0.6421  0.8079
 3833TIP3   OH233133   0.708   6.251   0.285  0.2534 -0.3118  0.2473
 3833TIP3    H133134   0.701   6.156   0.279  1.7276 -0.4326  0.1341
 3833TIP3    H233135   0.792   6.267   0.327  0.4334  0.9514 -0.5199
 3834TIP3   OH233136   5.384   2.308   8.216 -0.7484 -0.7810 -0.5224
 3834TIP3    H133137   5.344   2.377   8.164 -1.6447 -0.1715  0.9155
 3834TIP3    H233138   5.472   2.298   8.179 -0.6089  1.1044 -0.7855
 3835TIP3   OH233139   2.799   6.029   0.308 -0.4521 -0.1590 -0.4040
 3835TIP3    H133140   2.813   6.123   0.314 -0.5052 -0.2446  2.4847
 3835TIP3    H233141   2.706   6.019   0.290 -0.9749  0.4001  1.7327
 3836TIP3   OH233142   4.025   0.355   7.340  0.3873  0.1973 -0.2744
 3836TIP3    H133143   3.990   0.274   7.304 -0.2935 -0.0692  0.9487
 3836TIP3    H233144   4.053   0.332   7.428 -1.1706  1.5943  0.6462
 3837TIP3   OH233145   0.181   3.850   1.352  0.1887 -0.3475  0.5641
 3837TIP3    H133146   0.099   3.811   1.382 -0.6564  0.5735 -0.4455
 3837TIP3    H233147   0.156   3.899   1.273  1.5016  0.8727  0.8740
 3838TIP3   OH233148   3.359   6.740   0.087  0.9734  0.4900  0.0692
 3838TIP3    H133149   3.308   6.821   0.092 -0.0770  0.0291 -2.2954
 3838TIP3    H233150   3.349   6.710  -0.003  0.0880 -3.1043  1.2078
 3839TIP3   OH233151   1.341   4.334   1.514  0.2678  0.1233  0.0003
 3839TIP3    H133152   1.358   4.427   1.526 -0.7857  0.1312  1.8848
 3839TIP3    H233153   1.258   4.319   1.561  1.3890 -2.0949  1.4318
 3840TIP3   OH233154   1.345   4.532   7.377 -0.1741  0.4688 -0.0882
 3840TIP3    H133155   1.267   4.515   7.429  0.5090  0.8395  1.0826
 3840TIP3    H233156   1.417   4.533   7.440  0.7139  0.6426 -1.0751
 3841TIP3   OH233157   2.140   2.433   8.513 -0.6146  0.4327 -0.5868
 3841TIP3    H133158   2.138   2.381   8.432 -1.5157  0.3315 -0.5030
 3841TIP3    H233159   2.049   2.456   8.529 -0.2478  1.8567 -0.4862
 3842TIP3   OH233160   1.143   1.213   0.744 -0.6532 -0.3788  0.4990
 3842TIP3    H133161   1.166   1.275   0.675 -2.7112  0.9780  0.9408
 3842TIP3    H233162   1.203   1.233   0.816 -1.1464  1.0107  0.5557
 3843TIP3   OH233163   5.852   1.193   6.737  0.1457 -0.2155 -0.2101
 3843TIP3    H133164   5.831   1.283   6.761  1.7649 -0.0381  0.6752
 3843TIP3    H233165   5.779   1.165   6.682 -1.3484  0.9777  1.0925
 3844TIP3   OH233166   4.784   4.910   1.287 -0.0437  0.4338  0.0909
 3844TIP3    H133167   4.713   4.865   1.240  0.3282  0.3181 -0.3721
 3844TIP3    H233168   4.776   4.880   1.377 -0.1860 -0.0755 -0.0875
 3845TIP3   OH233169   2.194   5.398   8.423  0.1011 -0.5942 -0.0021
 3845TIP3    H133170   2.122   5.347   8.461 -0.1356  0.7747  1.4780
 3845TIP3    H233171   2.269   5.339   8.425 -0.5412 -1.4196  0.1923
 3846TIP3   OH233172   0.758   3.458   8.564 -0.1216  0.7453  0.2135
 3846TIP3    H133173   0.696   3.478   8.634 -0.9492  0.8655 -0.5458
 3846TIP3    H233174   0.799   3.375   8.591 -0.3335  0.8543  0.8915
 3847TIP3   OH233175   2.658   5.457   1.752 -0.3335 -0.1591 -0.0523
 3847TIP3    H133176   2.668   5.362   1.744  0.7388 -0.0059 -0.7578
 3847TIP3    H233177   2.744   5.492   1.728 -0.5992  0.9739  0.5815
 3848TIP3   OH233178   4.876   6.449   7.325 -0.0164 -0.2033 -0.3936
 3848TIP3    H133179   4.815   6.477   7.394 -1.6740 -1.4047 -1.2725
 3848TIP3    H233180   4.834   6.476   7.244  1.6596  0.7260 -0.9971
 3849TIP3   OH233181   5.683   1.696   0.466 -0.3310 -0.1354  0.1842
 3849TIP3    H133182   5.618   1.626   0.472 -1.7616  1.1902  0.7104
 3849TIP3    H233183   5.678   1.725   0.375  0.4293 -0.8347 -0.0959
 3850TIP3   OH233184   0.446   0.335   0.445 -0.5148  0.4082  0.9655
 3850TIP3    H133185   0.504   0.327   0.369 -0.5652  1.4519  0.7954
 3850TIP3    H233186   0.365   0.371   0.410 -0.9786 -0.2451  1.3366
 3851TIP3   OH233187   5.421   2.674   8.204  0.5174 -0.5764 -0.1371
 3851TIP3    H133188   5.467   2.636   8.279  0.5293 -0.0553  0.1295
 3851TIP3    H233189   5.366   2.604   8.171  0.7653 -0.9126  0.1570
 3852TIP3   OH233190   5.987   3.755   0.145 -0.1235  0.3160 -0.0305
 3852TIP3    H133191   5.947   3.730   0.062 -0.8148 -1.0367  0.6760
 3852TIP3    H233192   6.079   3.727   0.137 -0.4876 -0.9839  0.1130
 3853TIP3   OH233193   1.338   3.835   1.294  0.5299 -0.7219  0.0295
 3853TIP3    H133194   1.392   3.905   1.258  1.1831 -0.2286  1.8584
 3853TIP3    H233195   1.294   3.798   1.218 -0.1233  1.8922 -1.0037
 3854TIP3   OH233196   2.029   2.976   7.308  0.4853  0.8681  0.2861
 3854TIP3    H133197   2.065   3.010   7.390  0.2100  1.5619  0.1240
 3854TIP3    H233198   2.055   2.884   7.307  2.6082  1.4029 -0.0110
 3855TIP3   OH233199   2.828   2.492   6.564 -0.4106  0.0628 -0.5333
 3855TIP3    H133200   2.859   2.555   6.630  0.6709  1.6505 -2.4480
 3855TIP3    H233201   2.816   2.411   6.613 -1.0035  1.4836  1.8994
 3856TIP3   OH233202   2.403   1.460   7.268  0.2779  0.1460  0.3218
 3856TIP3    H133203   2.416   1.366   7.281  1.4156  0.5292  2.3833
 3856TIP3    H233204   2.486   1.491   7.234  0.1759  0.5282  0.4186
 3857TIP3   OH233205   4.745   5.692   2.423  0.0630 -0.1351  0.1436
 3857TIP3    H133206   4.689   5.766   2.398  1.5010  2.0643  2.9075
 3857TIP3    H233207   4.706   5.658   2.504 -0.2215 -2.1211 -0.7494
 3858TIP3   OH233208   4.835   1.539   7.547  0.1563 -0.3365  0.0179
 3858TIP3    H133209   4.895   1.603   7.584 -0.9961  0.1874  1.0645
 3858TIP3    H233210   4.857   1.457   7.591 -0.9116  0.1900  1.6396
 3859TIP3   OH233211   6.233   2.075   8.267 -0.2709  0.2195 -0.0031
 3859TIP3    H133212   6.305   2.012   8.261  0.1927  0.8050 -0.7050
 3859TIP3    H233213   6.178   2.042   8.338  0.0994 -0.8332 -0.1938
 3860TIP3   OH233214   0.746   1.076   7.961 -0.6320 -0.0523  0.6576
 3860TIP3    H133215   0.722   0.997   8.009 -1.1050  0.3166  1.0348
 3860TIP3    H233216   0.698   1.068   7.878  2.5448 -2.2360 -1.2269
 3861TIP3   OH233217   3.079   0.670   8.147  0.5549  0.5324  0.2177
 3861TIP3    H133218   3.027   0.610   8.093  0.5554 -0.9250  1.7390
 3861TIP3    H233219   3.121   0.729   8.084 -0.9167  0.1277 -1.2170
 3862TIP3   OH233220   4.745   3.461   0.488 -0.0601 -0.5076 -0.3112
 3862TIP3    H133221   4.697   3.425   0.563 -2.1840 -0.0885 -1.3745
 3862TIP3    H233222   4.825   3.409   0.484 -1.0583 -2.2424  0.7314
 3863TIP3   OH233223   4.001   4.326   1.884  0.5671  0.0975  0.0442
 3863TIP3    H133224   4.016   4.291   1.796 -0.9329  1.0698 -0.6598
 3863TIP3    H233225   3.931   4.272   1.919  0.9544 -0.0955  0.5115
 3864TIP3   OH233226   1.714   3.607   0.289 -0.3845 -0.5420  0.1398
 3864TIP3    H133227   1.714   3.702   0.276 -0.2149 -0.7919 -2.0123
 3864TIP3    H233228   1.708   3.570   0.201 -1.3248 -2.5446  0.9680
 3865TIP3   OH233229   5.540   2.614   7.873  0.0311 -0.2624  0.8184
 3865TIP3    H133230   5.558   2.678   7.805  1.4317 -1.2418  0.2381
 3865TIP3    H233231   5.497   2.542   7.828  0.2402 -0.5777  1.1195
 3866TIP3   OH233232   1.190   2.291   8.691 -0.0491 -0.3414 -0.1022
 3866TIP3    H133233   1.200   2.206   8.734 -1.7152 -0.0709  0.9131
 3866TIP3    H233234   1.095   2.306   8.690  0.2125  1.5534 -0.1265
 3867TIP3   OH233235   2.817   6.609   7.629  0.1498 -0.0987  0.0454
 3867TIP3    H133236   2.853   6.684   7.582  1.5129 -0.4201  0.5362
 3867TIP3    H233237   2.830   6.535   7.569  1.3892 -0.4127  0.6662
 3868TIP3   OH233238   3.458   5.001   8.396 -0.6954  0.2018  0.1573
 3868TIP3    H133239   3.548   4.993   8.364 -0.3347  2.3618  0.4662
 3868TIP3    H233240   3.414   4.922   8.365  1.7649 -1.8882  1.6730
 3869TIP3   OH233241   6.125   0.987   2.469  0.1781  0.7938 -0.3226
 3869TIP3    H133242   6.136   0.892   2.457 -0.6107  0.6613  0.0075
 3869TIP3    H233243   6.212   1.017   2.497  0.5395  0.2337 -0.7979
 3870TIP3   OH233244   0.805   5.964   2.771  0.4356  0.0827 -0.3301
 3870TIP3    H133245   0.884   5.926   2.733  0.9853  1.2295 -0.3631
 3870TIP3    H233246   0.835   6.004   2.853 -0.4516 -1.0294  0.5812
 3871TIP3   OH233247   4.232   3.259   8.520  0.0669  0.6032  0.6448
 3871TIP3    H133248   4.139   3.245   8.540  0.0976 -1.3523 -0.3713
 3871TIP3    H233249   4.277   3.234   8.601 -0.1098 -2.4265 -0.0706
 3872TIP3   OH233250   3.669   4.981   2.496 -0.0854  0.4920 -0.0459
 3872TIP3    H133251   3.689   5.011   2.584  0.8167  2.0023 -0.7234
 3872TIP3    H233252   3.741   4.923   2.474 -0.2364  0.2276  0.1529
 3873TIP3   OH233253   5.576   1.247   1.436 -0.4865  0.3522  0.0624
 3873TIP3    H133254   5.590   1.307   1.511 -0.5605  1.0740 -0.4879
 3873TIP3    H233255   5.481   1.243   1.427 -0.5194 -0.7413  0.7922
 3874TIP3   OH233256   1.318   1.304   8.355  1.1040 -0.0512 -0.2985
 3874TIP3    H133257   1.310   1.219   8.312 -1.0952 -0.5908  1.0178
 3874TIP3    H233258   1.255   1.360   8.309  1.0493  0.2749  0.1624
 3875TIP3   OH233259   0.331   3.963   8.105 -0.4085 -0.7509 -0.0492
 3875TIP3    H133260   0.251   3.943   8.057  0.6122  0.3438 -2.3520
 3875TIP3    H233261   0.324   3.911   8.185 -3.7913 -0.0525  0.2780
 3876TIP3   OH233262   1.702   1.354   0.546  0.1552  0.3941  0.3103
 3876TIP3    H133263   1.782   1.312   0.577  0.5139  0.5102 -0.4283
 3876TIP3    H233264   1.645   1.281   0.521  0.6250  0.3148 -0.5962
 3877TIP3   OH233265   6.355   0.802   1.468 -0.7138 -0.1111 -0.1046
 3877TIP3    H133266   6.422   0.821   1.534 -0.4390 -0.0646 -0.3938
 3877TIP3    H233267   6.367   0.710   1.448 -1.3050 -0.3195  0.4720
 3878TIP3   OH233268   0.956   3.321   0.928 -0.9452  0.7779 -0.0918
 3878TIP3    H133269   0.940   3.269   0.849 -1.5404  1.1853 -0.2469
 3878TIP3    H233270   0.947   3.411   0.899  0.1729  0.9763  0.1592
 3879TIP3   OH233271   6.215   6.449   0.141  0.3965 -0.5954 -1.0943
 3879TIP3    H133272   6.200   6.472   0.232  0.4555 -1.2842 -0.9075
 3879TIP3    H233273   6.176   6.362   0.131  1.6699 -1.1590 -1.3514
 3880TIP3   OH233274   4.481   5.964   0.193  0.0894  0.5641 -0.3058
 3880TIP3    H133275   4.519   5.917   0.268 -1.2790  1.4897  1.0218
 3880TIP3    H233276   4.444   5.895   0.138  0.9202 -0.1216 -0.0396
 3881TIP3   OH233277   3.944   2.258   7.917  0.1981  0.1901  0.1257
 3881TIP3    H133278   3.902   2.278   8.001  0.4017 -0.1873  0.3184
 3881TIP3    H233279   3.998   2.181   7.934  0.1603  0.0454 -0.3787
 3882TIP3   OH233280   2.253   2.167   1.861 -0.3425  0.0529  0.3550
 3882TIP3    H133281   2.312   2.214   1.802  0.2429  1.0423  1.6844
 3882TIP3    H233282   2.311   2.128   1.927 -0.8236 -2.4492 -0.6028
 3883TIP3   OH233283   5.928   0.715   1.311  0.0242 -0.0320  0.1288
 3883TIP3    H133284   5.999   0.665   1.352  0.0190  1.0489  1.5370
 3883TIP3    H233285   5.957   0.806   1.316 -1.5514  0.4580  0.9645
 3884TIP3   OH233286   4.054   1.692   0.027  0.0778 -0.1487 -0.4376
 3884TIP3    H133287   4.002   1.687   0.107 -1.7125 -1.2119 -1.5865
 3884TIP3    H233288   4.064   1.601  -0.001  0.6601  0.2031 -1.4479
 3885TIP3   OH233289   3.043   0.810   2.033 -0.1104  0.6182 -0.4856
 3885TIP3    H133290   2.964   0.801   1.980  0.5049 -0.5812 -1.2474
 3885TIP3    H233291   3.018   0.777   2.120 -0.0266 -1.4238 -1.1761
 3886TIP3   OH233292   1.270   3.233   0.776 -0.0032  0.1621  0.6281
 3886TIP3    H133293   1.327   3.287   0.720 -0.3759 -1.5083 -1.5009
 3886TIP3    H233294   1.297   3.143   0.758 -2.9523 -0.6836 -0.1647
 3887TIP3   OH233295   4.138   4.142   1.018  0.4275  0.0794 -0.1462
 3887TIP3    H133296   4.212   4.192   1.054  0.3332 -0.2854  0.5584
 3887TIP3    H233297   4.159   4.051   1.037  0.7969 -0.2121 -1.7928
 3888TIP3   OH233298   6.197   1.200   2.090  0.2807 -0.2542 -0.2515
 3888TIP3    H133299   6.141   1.141   2.139  0.5790 -0.8653 -0.6257
 3888TIP3    H233300   6.202   1.162   2.002  0.2370  0.4913 -0.5920
 3889TIP3   OH233301   6.445   3.400   8.730  0.5498  0.0707  0.3099
 3889TIP3    H133302   6.360   3.433   8.702  0.7078  1.9722  1.8379
 3889TIP3    H233303   6.459   3.322   8.677 -1.3893  0.6263 -1.1461
 3890TIP3   OH233304   0.372   6.159   0.293 -0.1813  0.1113 -0.0447
 3890TIP3    H133305   0.417   6.111   0.363  0.0936 -1.1089 -1.0115
 3890TIP3    H233306   0.379   6.101   0.217 -0.5373  1.3696 -1.0644
 3891TIP3   OH233307   0.255   2.449   1.941 -0.2224  0.0819 -0.4852
 3891TIP3    H133308   0.305   2.420   1.865 -1.3318 -0.0948 -1.1769
 3891TIP3    H233309   0.218   2.534   1.915 -0.6871 -0.0226 -0.1838
 3892TIP3   OH233310   6.252   2.400   0.110 -0.0523 -0.0970  0.8014
 3892TIP3    H133311   6.287   2.335   0.049  0.0816  1.2708 -0.6469
 3892TIP3    H233312   6.320   2.467   0.116 -0.7256  0.5728  1.1834
 3893TIP3   OH233313   1.510   2.900   7.537  0.0337  0.8043 -0.6995
 3893TIP3    H133314   1.481   2.868   7.451  1.8635  0.3768 -1.2208
 3893TIP3    H233315   1.553   2.983   7.517  1.4868  0.1547 -0.3979
 3894TIP3   OH233316   3.466   1.270   2.043  0.0209  0.5941  0.1508
 3894TIP3    H133317   3.453   1.363   2.063  0.4586  0.7058 -0.0569
 3894TIP3    H233318   3.465   1.266   1.947 -1.1315  0.2061  0.1733
 3895TIP3   OH233319   1.765   0.222   1.682 -0.4292  0.1129 -0.0307
 3895TIP3    H133320   1.772   0.284   1.755 -0.9204 -1.8968  1.8564
 3895TIP3    H233321   1.855   0.200   1.660 -0.2298  1.9352 -1.1778
 3896TIP3   OH233322   2.631   1.092   7.871  0.0698  0.5690 -0.0851
 3896TIP3    H133323   2.687   1.068   7.797 -0.4891  0.1385 -0.3703
 3896TIP3    H233324   2.691   1.133   7.933  1.0311 -1.4472  0.3827
 3897TIP3   OH233325   5.940   5.210   1.008  0.0898  0.2098 -0.2178
 3897TIP3    H133326   6.029   5.193   0.976  0.0083 -1.7780  0.4563
 3897TIP3    H233327   5.883   5.172   0.941 -0.2011  0.1362  0.0685
 3898TIP3   OH233328   1.783   2.630   2.009 -0.2209  0.2080  0.0022
 3898TIP3    H133329   1.828   2.549   1.985 -0.5019  0.3199 -0.9125
 3898TIP3    H233330   1.764   2.673   1.926 -1.1284  0.6434  0.4241
 3899TIP3   OH233331   3.767   0.993   8.634 -0.1732  0.0466  0.3253
 3899TIP3    H133332   3.758   1.073   8.584 -0.9396 -0.0200  0.3400
 3899TIP3    H233333   3.789   0.926   8.569  1.7365  0.4740  0.4747
 3900TIP3   OH233334   6.567   1.864   0.373 -0.1257  0.1244 -0.0396
 3900TIP3    H133335   6.490   1.834   0.420 -0.1599  1.4232  0.8027
 3900TIP3    H233336   6.641   1.833   0.425 -0.0721 -0.8788 -0.6946
 3901TIP3   OH233337   3.704   0.693   2.840  0.4347  0.4369 -0.5398
 3901TIP3    H133338   3.659   0.770   2.874  1.7489  1.5656 -1.2562
 3901TIP3    H233339   3.665   0.619   2.888 -1.1170  1.4868 -0.1182
 3902TIP3   OH233340   5.090   1.668   0.483  0.0582  0.4658  0.0050
 3902TIP3    H133341   5.122   1.586   0.444  1.9380  0.9611  0.4208
 3902TIP3    H233342   5.057   1.718   0.408  1.4494  0.4395 -0.6490
 3903TIP3   OH233343   4.152   2.309   0.202  0.0691 -0.1630 -0.1989
 3903TIP3    H133344   4.235   2.320   0.248 -0.2388  1.3612  0.0399
 3903TIP3    H233345   4.110   2.234   0.245  1.5499 -1.3572 -0.7202
 3904TIP3   OH233346   3.689   3.267   0.896 -0.0657 -0.2905 -0.3525
 3904TIP3    H133347   3.768   3.221   0.868 -0.4934 -1.7708  0.7501
 3904TIP3    H233348   3.619   3.225   0.846 -0.2961  0.1147 -0.3656
 3905TIP3   OH233349   5.216   2.315   0.963 -0.2520 -0.3023  0.0074
 3905TIP3    H133350   5.243   2.396   1.004  2.5757 -0.8603 -0.5649
 3905TIP3    H233351   5.127   2.333   0.931 -0.2311  2.0661  1.0701
 3906TIP3   OH233352   6.632   4.530   7.097 -0.0631  0.3566 -0.0455
 3906TIP3    H133353   6.704   4.468   7.112 -0.5684 -0.5540 -1.2160
 3906TIP3    H233354   6.553   4.478   7.108 -0.7011  1.8203  3.3513
 3907TIP3   OH233355   2.487   6.605   7.620 -0.3046  0.1746  0.0339
 3907TIP3    H133356   2.569   6.622   7.573 -0.6112  0.7256 -0.3150
 3907TIP3    H233357   2.485   6.671   7.689 -2.0620  2.5142 -2.0431
 3908TIP3   OH233358   2.098   5.235   1.129  0.3155 -0.2796 -0.7770
 3908TIP3    H133359   2.124   5.145   1.149  1.2136  0.0695 -0.2958
 3908TIP3    H233360   2.050   5.264   1.206 -1.3683 -0.8496 -1.5766
 3909TIP3   OH233361   2.153   2.735   7.942 -0.2973  0.0200 -0.6125
 3909TIP3    H133362   2.213   2.775   8.005 -1.2803  1.4623 -0.5188
 3909TIP3    H233363   2.102   2.673   7.994 -0.8720  0.9583 -0.0163
 3910TIP3   OH233364   3.905   1.342   2.250 -0.3586  0.2386 -0.1629
 3910TIP3    H133365   3.896   1.380   2.337 -1.5612  1.2456 -0.6923
 3910TIP3    H233366   3.824   1.367   2.205 -0.4059 -1.4789 -1.1098
 3911TIP3   OH233367   4.866   3.591   7.841  0.4095 -0.0301  0.2717
 3911TIP3    H133368   4.897   3.653   7.776 -0.7176 -0.2521 -0.5014
 3911TIP3    H233369   4.803   3.536   7.794  0.9007 -1.3488  1.0947
 3912TIP3   OH233370   1.782   0.917   1.216 -0.3487  0.4619  0.3691
 3912TIP3    H133371   1.859   0.861   1.232 -0.2719  0.4776  0.0597
 3912TIP3    H233372   1.819   1.003   1.198 -0.3992  0.3320 -0.4199
 3913TIP3   OH233373   3.758   5.539   0.116 -0.2748  0.5819 -0.1354
 3913TIP3    H133374   3.673   5.581   0.101 -1.0798 -0.4471  1.3047
 3913TIP3    H233375   3.781   5.564   0.205  0.3345 -0.1420 -0.0816
 3914TIP3   OH233376   6.393   3.500   2.329  0.0777  0.1389  0.0492
 3914TIP3    H133377   6.449   3.519   2.253 -1.7304 -0.0676 -1.4030
 3914TIP3    H233378   6.454   3.496   2.403  1.9429  0.1480 -1.4049
 3915TIP3   OH233379   1.019   1.463   2.155  0.1279  0.1535 -0.2791
 3915TIP3    H133380   0.932   1.423   2.151  0.3104 -0.3594  0.7721
 3915TIP3    H233381   1.019   1.514   2.236  0.4597  0.9975 -0.7960
 3916TIP3   OH233382   6.486   6.811   2.153  0.0358 -0.2886 -0.0738
 3916TIP3    H133383   6.567   6.854   2.124 -0.5153  0.8096 -0.0092
 3916TIP3    H233384   6.504   6.718   2.141  1.7982 -0.1581  1.1573
 3917TIP3   OH233385   3.156   0.852   2.535  0.5938 -0.2092  0.0269
 3917TIP3    H133386   3.198   0.778   2.491  0.2741  0.1922 -0.9858
 3917TIP3    H233387   3.102   0.811   2.603  0.2537 -0.9305 -0.6595
 3918TIP3   OH233388   4.192   6.178   3.151 -0.2784  0.1837  0.0989
 3918TIP3    H133389   4.138   6.240   3.200 -1.0822 -0.0587 -0.4532
 3918TIP3    H233390   4.189   6.098   3.202 -0.5152  0.1458  0.0271
 3919TIP3   OH233391   3.303   1.513   1.922 -0.2124  0.4789 -0.1191
 3919TIP3    H133392   3.343   1.487   1.839 -0.4089  1.5614 -0.5649
 3919TIP3    H233393   3.374   1.553   1.971  0.1318 -0.9732  0.6406
 3920TIP3   OH233394   4.733   4.016   1.127  0.3301 -0.3706 -0.0255
 3920TIP3    H133395   4.715   4.066   1.048 -0.0527  1.5106  1.1668
 3920TIP3    H233396   4.668   3.946   1.127  1.1705 -1.2197 -1.9879
 3921TIP3   OH233397   5.212   2.103   2.799  0.3154  0.3395 -0.2232
 3921TIP3    H133398   5.125   2.134   2.827 -0.3304 -0.5845 -1.1418
 3921TIP3    H233399   5.256   2.182   2.767  0.4462  1.1192  1.7028
 3922TIP3   OH233400   6.570   1.413   8.465  0.8814  0.5481 -0.3405
 3922TIP3    H133401   6.578   1.395   8.559  0.6788 -1.3636 -0.6494
 3922TIP3    H233402   6.640   1.475   8.447  0.1848  1.8812  1.2737
 3923TIP3   OH233403   6.251   3.016   2.419 -0.6411  0.3305 -0.7742
 3923TIP3    H133404   6.327   3.072   2.405 -0.5313  0.3723 -0.0507
 3923TIP3    H233405   6.188   3.072   2.464 -0.1521 -0.3719  0.8749
 3924TIP3   OH233406   6.449   3.525   0.754  0.1823  0.4853  0.2670
 3924TIP3    H133407   6.406   3.602   0.718 -0.2022  0.2364  0.1898
 3924TIP3    H233408   6.480   3.476   0.678  0.9910  0.8758  0.3302
 3925TIP3   OH233409   1.472   5.608   7.581 -0.5254  0.3675 -0.3163
 3925TIP3    H133410   1.556   5.631   7.543 -0.4055 -0.8680 -0.8403
 3925TIP3    H233411   1.418   5.686   7.569  1.3441  2.3170  2.6559
 3926TIP3   OH233412   0.814   4.834   2.529 -0.0794 -0.2468  0.2760
 3926TIP3    H133413   0.790   4.810   2.439 -0.2113  0.3212  0.1564
 3926TIP3    H233414   0.827   4.750   2.573 -1.4315 -0.5622  0.1166
 3927TIP3   OH233415   2.797   4.943   0.498  0.0139 -0.0689 -0.7099
 3927TIP3    H133416   2.740   4.866   0.506  1.4412 -1.2608 -1.6067
 3927TIP3    H233417   2.739   5.017   0.518 -0.7662 -1.4711  3.0893
 3928TIP3   OH233418   6.761   2.397   7.906 -0.0987  0.8001 -0.1058
 3928TIP3    H133419   6.723   2.443   7.980 -1.4616  2.2464 -1.6112
 3928TIP3    H233420   6.737   2.305   7.920 -1.9821  1.3088  0.3169
 3929TIP3   OH233421   3.268   4.439   8.453  0.1366 -0.1059  0.1141
 3929TIP3    H133422   3.203   4.491   8.405 -1.1458 -1.7705 -0.0289
 3929TIP3    H233423   3.352   4.470   8.420 -0.6721 -0.3224 -2.3004
 3930TIP3   OH233424   1.791   3.205   2.309  0.4931 -0.5744  0.3038
 3930TIP3    H133425   1.736   3.214   2.387  1.3856  0.0875  0.8824
 3930TIP3    H233426   1.749   3.261   2.243  1.3917  1.3404  1.2831
 3931TIP3   OH233427   5.897   4.638   2.668  0.2633  0.0070 -0.3334
 3931TIP3    H133428   5.829   4.682   2.618  1.2701  1.6219 -0.3511
 3931TIP3    H233429   5.876   4.656   2.759 -0.2754 -0.9662 -0.2528
 3932TIP3   OH233430   5.653   5.290   0.597  0.4272 -0.1582  0.1591
 3932TIP3    H133431   5.716   5.356   0.627  0.0293  1.1446 -1.6865
 3932TIP3    H233432   5.698   5.207   0.610  2.6192  0.7335 -1.1398
 3933TIP3   OH233433   5.583   3.266   7.013 -0.4528  0.7818  0.8299
 3933TIP3    H133434   5.488   3.273   7.024 -0.5888 -0.4285  0.5964
 3933TIP3    H233435   5.619   3.310   7.090 -1.2572 -1.1232  2.3937
 3934TIP3   OH233436   1.110   4.363   1.321 -0.2545  0.0239 -0.1275
 3934TIP3    H133437   1.196   4.338   1.354 -0.0838  0.5827 -0.1429
 3934TIP3    H233438   1.070   4.281   1.294  0.0812 -0.2955  0.3358
 3935TIP3   OH233439   2.607   5.794   2.230 -0.2382 -0.8634 -0.2458
 3935TIP3    H133440   2.545   5.836   2.290  0.6045  1.1552 -0.7168
 3935TIP3    H233441   2.657   5.734   2.285 -1.6709 -1.5224  0.3947
 3936TIP3   OH233442   1.734   6.786   1.341  0.0479  0.5212  0.3702
 3936TIP3    H133443   1.655   6.738   1.315  0.5233  0.4771 -1.0387
 3936TIP3    H233444   1.701   6.859   1.394 -1.1415  1.6149 -1.7643
 3937TIP3   OH233445   4.446   4.241   1.691 -0.0318 -0.2870 -0.1401
 3937TIP3    H133446   4.529   4.277   1.722 -0.2767 -0.2779  0.5202
 3937TIP3    H233447   4.466   4.151   1.667 -0.2646 -1.0105  2.1182
 3938TIP3   OH233448   3.161   5.386   2.896  0.3980 -0.6804  0.2639
 3938TIP3    H133449   3.169   5.445   2.971  2.1701 -0.8210  0.2249
 3938TIP3    H233450   3.067   5.382   2.879  0.0635  0.3776  1.6541
 3939TIP3   OH233451   1.295   6.679   2.015  0.1729 -0.2636  0.5762
 3939TIP3    H133452   1.380   6.719   2.031  0.2532 -0.5301  0.8342
 3939TIP3    H233453   1.296   6.654   1.923  0.2765 -0.0402  0.5171
 3940TIP3   OH233454   1.558   3.070   1.506 -0.6674  0.6524 -0.0663
 3940TIP3    H133455   1.575   3.142   1.445  0.6139  2.3572  2.1591
 3940TIP3    H233456   1.597   2.994   1.464 -0.3555  1.6321 -1.6324
 3941TIP3   OH233457   4.236   5.097   3.111 -0.1300 -0.1224  0.5656
 3941TIP3    H133458   4.298   5.033   3.145 -1.6231  0.2976  4.5276
 3941TIP3    H233459   4.162   5.044   3.080  0.5784 -0.4205 -0.7365
 3942TIP3   OH233460   2.393   2.383   2.497 -0.7909 -0.1906  0.5068
 3942TIP3    H133461   2.352   2.334   2.426 -1.8132  1.9570 -0.4794
 3942TIP3    H233462   2.460   2.435   2.455  1.4067 -1.8253  1.7717
 3943TIP3   OH233463   0.293   5.259   0.131  0.1254 -0.0448  0.1903
 3943TIP3    H133464   0.327   5.173   0.105  0.6391 -0.2122  1.3620
 3943TIP3    H233465   0.371   5.310   0.152 -0.2477  0.2758  0.8026
 3944TIP3   OH233466   6.077   3.828   1.758 -0.8702  0.1369 -0.6518
 3944TIP3    H133467   6.103   3.906   1.710 -1.7483  1.2125  0.5389
 3944TIP3    H233468   6.034   3.862   1.837 -0.9840 -1.5519  0.0541
 3945TIP3   OH233469   0.412   5.381   2.083 -0.5539 -0.3481 -0.2326
 3945TIP3    H133470   0.350   5.331   2.136 -1.1297 -0.0095 -0.5832
 3945TIP3    H233471   0.442   5.320   2.016 -0.7251 -0.4293 -0.2355
 3946TIP3   OH233472   3.583   3.480   3.103 -0.2523 -0.3515 -0.0781
 3946TIP3    H133473   3.605   3.530   3.025  0.8732 -0.6238  0.0422
 3946TIP3    H233474   3.495   3.447   3.087 -0.3984  0.3887 -0.8164
 3947TIP3   OH233475   5.708   6.094   2.510  0.0170  0.3270  0.1920
 3947TIP3    H133476   5.654   6.061   2.439  0.7713  0.8147 -0.6208
 3947TIP3    H233477   5.654   6.081   2.589  0.0192 -2.2449 -0.1343
 3948TIP3   OH233478   5.214   1.722   1.247 -0.2478 -0.4410  0.4912
 3948TIP3    H133479   5.184   1.670   1.321 -0.7074 -0.2599  0.4357
 3948TIP3    H233480   5.262   1.795   1.286 -1.1259  0.0630  0.6502
 3949TIP3   OH233481   3.531   0.181   1.700 -0.1942 -0.1996 -0.8123
 3949TIP3    H133482   3.597   0.191   1.769 -2.0304  0.9822  0.8960
 3949TIP3    H233483   3.522   0.268   1.663 -0.6696 -0.3889 -1.1503
 3950TIP3   OH233484   4.770   1.228   0.099 -0.5379 -0.0683  0.6201
 3950TIP3    H133485   4.779   1.256   0.008  1.6087  1.2815  1.1924
 3950TIP3    H233486   4.676   1.235   0.116 -0.7169  1.9595 -0.7988
 3951TIP3   OH233487   2.378   2.943   1.017  0.0336  0.4389 -0.5188
 3951TIP3    H133488   2.425   3.016   1.057  1.5674 -0.7440 -0.1126
 3951TIP3    H233489   2.398   2.950   0.924  1.7338 -0.5269 -0.2548
 3952TIP3   OH233490   2.644   3.262   8.006 -0.0150  0.1253 -0.3670
 3952TIP3    H133491   2.659   3.244   8.099  0.2519  2.9038  0.2060
 3952TIP3    H233492   2.688   3.190   7.961  1.4952 -0.2894  1.6162
 3953TIP3   OH233493   5.056   5.400   7.414  0.5521 -0.6663 -0.0754
 3953TIP3    H133494   5.032   5.312   7.386 -2.8879 -0.2344  1.0833
 3953TIP3    H233495   5.081   5.444   7.332  2.2326 -2.6245 -0.6821
 3954TIP3   OH233496   2.200   2.280   8.730 -0.6015  0.4100 -0.3848
 3954TIP3    H133497   2.286   2.311   8.760 -0.0458 -0.1857 -1.3135
 3954TIP3    H233498   2.171   2.347   8.668 -0.1403 -0.1012 -1.1632
 3955TIP3   OH233499   2.199   0.929   1.012  0.0592  0.0760 -0.0894
 3955TIP3    H133500   2.223   0.996   1.076  1.9376 -1.2442  0.6779
 3955TIP3    H233501   2.270   0.865   1.016 -0.2024 -0.5208 -2.8792
 3956TIP3   OH233502   6.336   3.126   7.444  0.1682 -0.3979 -0.3629
 3956TIP3    H133503   6.255   3.077   7.431  0.6226 -1.4552  0.5675
 3956TIP3    H233504   6.358   3.161   7.357 -1.7618  0.7384 -0.4494
 3957TIP3   OH233505   6.665   4.527   2.051  0.2082 -0.0584  0.2373
 3957TIP3    H133506   6.599   4.593   2.027  0.2533  0.1440  0.6516
 3957TIP3    H233507   6.630   4.445   2.018 -0.5021 -0.0326  0.8956
 3958TIP3   OH233508   3.247   1.242   8.254  0.0920  0.0504 -0.3184
 3958TIP3    H133509   3.290   1.276   8.332  1.8990 -0.9765 -0.7998
 3958TIP3    H233510   3.217   1.155   8.278 -1.4410  0.5968 -0.1170
 3959TIP3   OH233511   4.615   0.856   2.777  0.1273 -0.7010 -0.7730
 3959TIP3    H133512   4.533   0.873   2.732 -0.8225 -0.5365  0.9335
 3959TIP3    H233513   4.610   0.764   2.802 -0.2048 -0.3452  0.5577
 3960TIP3   OH233514   1.570   5.117   0.951 -0.0610  0.0297  0.2186
 3960TIP3    H133515   1.631   5.053   0.915 -1.2359 -0.2991 -1.2882
 3960TIP3    H233516   1.574   5.104   1.046  2.0686 -0.0739  0.1446
 3961TIP3   OH233517   4.150   3.283   0.725  0.4429 -0.4151 -0.2036
 3961TIP3    H133518   4.117   3.264   0.813 -0.2978  1.7898  0.0635
 3961TIP3    H233519   4.222   3.345   0.740  0.3789 -0.1042 -1.1219
 3962TIP3   OH233520   6.012   0.843   0.371 -0.4403 -0.5048 -0.3764
 3962TIP3    H133521   6.067   0.832   0.294 -0.6047 -0.5558 -0.4885
 3962TIP3    H233522   5.973   0.929   0.360 -0.3081 -0.4290 -0.2488
 3963TIP3   OH233523   3.388   6.597   7.151  0.1516  0.6415 -0.2138
 3963TIP3    H133524   3.446   6.673   7.143  1.4625 -0.2865  0.1283
 3963TIP3    H233525   3.405   6.563   7.239  0.3822 -0.6801 -0.7483
 3964TIP3   OH233526   4.296   3.346   2.576 -0.4745 -0.0021  0.7885
 3964TIP3    H133527   4.314   3.311   2.663 -0.8172 -0.4252  0.6939
 3964TIP3    H233528   4.259   3.433   2.592 -0.3312  0.0089  1.0591
 3965TIP3   OH233529   2.217   1.564   8.313  0.3102  0.0473 -0.2921
 3965TIP3    H133530   2.121   1.565   8.311  0.2865 -1.3701 -1.2093
 3965TIP3    H233531   2.239   1.498   8.379  0.6505 -0.0341 -0.4855
 3966TIP3   OH233532   6.557   5.322   2.593  0.0346  0.1045 -0.7071
 3966TIP3    H133533   6.538   5.269   2.671 -2.8353  0.7544 -0.8382
 3966TIP3    H233534   6.609   5.395   2.626  0.1917 -0.4486  0.3199
 3967TIP3   OH233535   2.164   0.259   1.907 -0.2088 -0.2361 -0.2832
 3967TIP3    H133536   2.096   0.206   1.947 -1.2821 -0.0249 -1.7563
 3967TIP3    H233537   2.123   0.345   1.893  0.4473 -0.0129 -0.9112
 3968TIP3   OH233538   2.527   0.539   0.505 -0.6908 -0.5126 -1.0605
 3968TIP3    H133539   2.445   0.582   0.480 -2.2315 -3.4978 -1.5337
 3968TIP3    H233540   2.521   0.451   0.469  1.3448 -1.8685  1.5140
 3969TIP3   OH233541   0.013   5.172   2.736  0.5239 -0.3859  0.0091
 3969TIP3    H133542   0.074   5.113   2.691  0.2177 -0.3025 -0.5161
 3969TIP3    H233543  -0.070   5.159   2.692  0.6741  1.2003 -0.7931
 3970TIP3   OH233544   1.434   1.684   0.598  0.1386  0.5257 -0.2231
 3970TIP3    H133545   1.376   1.620   0.640 -1.1341  0.6331 -1.7163
 3970TIP3    H233546   1.492   1.631   0.544 -0.9601  0.5633 -1.5135
 3971TIP3   OH233547   6.692   4.586   0.024  0.1262 -0.1934  0.0670
 3971TIP3    H133548   6.690   4.641  -0.054  0.5696 -0.5705 -0.2153
 3971TIP3    H233549   6.612   4.609   0.071  1.0536  1.8292  0.7525
 3972TIP3   OH233550   5.480   6.871   8.742 -0.2884  0.1878 -0.2859
 3972TIP3    H133551   5.545   6.878   8.812 -0.3704  0.4077 -0.2334
 3972TIP3    H233552   5.493   6.783   8.707 -0.6513 -0.1411  0.3976
 3973TIP3   OH233553   6.874   4.430   1.807 -0.3785 -0.1053  0.6065
 3973TIP3    H133554   6.831   4.354   1.768  1.7814 -0.7313 -0.6452
 3973TIP3    H233555   6.839   4.505   1.758 -0.3245 -0.5592 -0.1401
 3974TIP3   OH233556   2.545   5.927   7.736 -0.3093 -0.2571 -0.2059
 3974TIP3    H133557   2.614   5.885   7.787 -0.4097  0.0723  0.2025
 3974TIP3    H233558   2.565   5.903   7.645 -0.5395 -1.4324  0.0358
 3975TIP3   OH233559   0.883   0.011   1.842  0.1920 -0.2224  0.6146
 3975TIP3    H133560   0.799  -0.011   1.802  0.6255 -0.1821 -0.3369
 3975TIP3    H233561   0.861   0.035   1.932 -1.0049  1.2676 -0.0387
 3976TIP3   OH233562   4.493   5.947   0.644  1.0575 -0.2767 -0.0895
 3976TIP3    H133563   4.519   5.943   0.552 -0.8653  1.6182 -0.7815
 3976TIP3    H233564   4.572   5.975   0.690  1.0284  3.0804 -1.8075
 3977TIP3   OH233565   6.785   2.716   0.611 -0.0282 -1.0118  0.2107
 3977TIP3    H133566   6.873   2.678   0.614  0.6937  0.4978 -0.8082
 3977TIP3    H233567   6.727   2.640   0.602  1.3480 -1.9340 -1.6758
 3978TIP3   OH233568   3.768   1.376   0.304 -0.1195  0.6609  0.2680
 3978TIP3    H133569   3.673   1.389   0.295 -0.3272 -1.1549 -0.7975
 3978TIP3    H233570   3.776   1.290   0.345  1.0916  1.3902  1.6542
 3979TIP3   OH233571   2.114   4.957   0.927  0.3892 -0.6112  0.2202
 3979TIP3    H133572   2.081   4.968   1.016  0.8509 -1.5821  0.5304
 3979TIP3    H233573   2.091   4.867   0.903 -0.6787 -0.0311 -1.0624
 3980TIP3   OH233574   5.858   2.051   8.691  0.1383  0.0588  0.1194
 3980TIP3    H133575   5.771   2.038   8.729  0.1965  0.1928  0.3017
 3980TIP3    H233576   5.915   2.067   8.766  1.0474 -3.5454  0.3539
 3981TIP3   OH233577   0.084   1.746   1.729  0.4426  0.5582 -0.2098
 3981TIP3    H133578   0.035   1.731   1.810  0.8660  1.0276  0.1393
 3981TIP3    H233579   0.025   1.800   1.676  1.0781  2.2924  0.7590
 3982TIP3   OH233580   6.023   3.139   1.728 -0.7049  0.1565 -0.4195
 3982TIP3    H133581   6.076   3.122   1.650 -0.4963  1.6197 -0.6252
 3982TIP3    H233582   5.971   3.216   1.706 -0.2544  0.9247  1.0740
 3983TIP3   OH233583   1.650   6.511   0.778 -0.2486  0.4103  0.0725
 3983TIP3    H133584   1.584   6.570   0.742  0.4286  1.1977  0.0940
 3983TIP3    H233585   1.717   6.505   0.709  0.8227  1.5467  0.9572
 3984TIP3   OH233586   3.320   1.438   1.635 -0.7219 -0.4336  0.0220
 3984TIP3    H133587   3.234   1.457   1.673 -1.5125  0.9320 -2.2604
 3984TIP3    H233588   3.302   1.413   1.545  1.3013  0.5576 -0.7188
 3985TIP3   OH233589   6.523   4.757   1.331  0.3862  0.5028  0.2370
 3985TIP3    H133590   6.500   4.722   1.245 -1.2756  0.8918  0.4957
 3985TIP3    H233591   6.591   4.821   1.314  2.0095 -1.3094 -0.4753
 3986TIP3   OH233592   6.258   4.304   0.117  0.5304  0.4784 -0.2283
 3986TIP3    H133593   6.247   4.393   0.082  0.2925  0.2313 -0.7845
 3986TIP3    H233594   6.345   4.278   0.088  0.1372  0.0778 -1.1023
 3987TIP3   OH233595   5.943   1.683   0.758  0.3989 -0.2136  0.5890
 3987TIP3    H133596   5.985   1.619   0.701 -1.5581 -2.3768  1.4010
 3987TIP3    H233597   5.850   1.676   0.736 -0.0245  1.3067  1.7605
 3988TIP3   OH233598   5.359   1.008   0.583  0.4849 -0.2926  0.6650
 3988TIP3    H133599   5.310   1.021   0.502  1.3314  0.2865  0.2257
 3988TIP3    H233600   5.427   1.075   0.581  1.0638 -0.8326  1.4361
 3989TIP3   OH233601   2.554   5.320   6.623  0.1056  0.1738  0.1190
 3989TIP3    H133602   2.622   5.299   6.687  0.6578 -0.3931 -0.6301
 3989TIP3    H233603   2.572   5.261   6.550 -0.8667  0.4043 -0.3179
 3990TIP3   OH233604   0.066   0.282   0.881  0.2463 -0.0356  0.3050
 3990TIP3    H133605   0.071   0.215   0.812 -0.6645 -1.0408  1.1787
 3990TIP3    H233606   0.067   0.232   0.963 -3.1504  0.7503  0.9648
 3991TIP3   OH233607   3.483   1.535   0.409  0.0931 -0.4649  0.0087
 3991TIP3    H133608   3.493   1.512   0.317  0.2246 -0.8323  0.1117
 3991TIP3    H233609   3.429   1.464   0.446 -2.2981  1.0371 -0.3536
 3992TIP3   OH233610   2.217   6.048   0.525  0.0875 -0.0492  0.2656
 3992TIP3    H133611   2.209   5.990   0.450  0.4211  0.2773 -0.0303
 3992TIP3    H233612   2.301   6.092   0.513  0.2297 -0.1228  0.9268
 3993TIP3   OH233613   2.718   1.370   2.843 -0.2479  0.1018 -0.3686
 3993TIP3    H133614   2.734   1.276   2.848 -0.8688  0.0251  0.3422
 3993TIP3    H233615   2.802   1.407   2.816  0.3303 -0.5503  0.4766
 3994TIP3   OH233616   5.065   5.081   7.439 -0.5150  0.3423 -0.1355
 3994TIP3    H133617   5.047   5.055   7.348  1.7593 -3.5908  0.3340
 3994TIP3    H233618   5.160   5.080   7.446 -0.6501 -0.7766  2.5801
 3995TIP3   OH233619   5.486   3.505   1.661  0.1426  0.1193 -0.3975
 3995TIP3    H133620   5.491   3.520   1.755 -0.5334  0.4476 -0.4070
 3995TIP3    H233621   5.402   3.461   1.648  0.4804 -0.4265 -0.7872
 3996TIP3   OH233622   6.075   3.528   1.962 -0.8745  0.1071  0.0509
 3996TIP3    H133623   6.008   3.540   1.894  0.8541  0.4695 -1.6923
 3996TIP3    H233624   6.102   3.437   1.953  0.2960  0.5027 -0.7242
 3997TIP3   OH233625   3.442   5.330   0.269  0.4357  0.0329 -0.3966
 3997TIP3    H133626   3.507   5.262   0.250  1.1366  0.9001 -1.1489
 3997TIP3    H233627   3.426   5.323   0.363 -0.3672 -1.9305 -0.6275
 3998TIP3   OH233628   4.409   5.366   7.963  0.4788  0.1201 -0.1091
 3998TIP3    H133629   4.419   5.354   7.869 -0.3715  0.5557 -0.2663
 3998TIP3    H233630   4.360   5.289   7.992 -2.3077  1.5578 -0.6229
 3999TIP3   OH233631   1.682   5.691   7.445 -0.0608 -0.3158  0.0510
 3999TIP3    H133632   1.638   5.775   7.433 -0.7822 -1.0157 -3.0092
 3999TIP3    H233633   1.775   5.710   7.431 -0.0903  0.1222  0.4197
 4000TIP3   OH233634   5.702   4.413   0.419  0.1108 -0.2581  0.0731
 4000TIP3    H133635   5.707   4.461   0.336 -0.4520 -1.1814 -0.5163
 4000TIP3    H233636   5.616   4.435   0.454 -0.0817 -0.6866 -0.1178
 4001TIP3   OH233637   4.716   5.365   0.369  0.3334  0.0255 -0.4288
 4001TIP3    H133638   4.798   5.374   0.418 -0.3131  1.2023  0.4833
 4001TIP3    H233639   4.740   5.388   0.279  0.9153  0.8768 -0.0727
 4002TIP3   OH233640   6.422   1.981   7.002  0.4737  0.1067  0.1927
 4002TIP3    H133641   6.464   2.014   6.922  0.0025  0.5433  0.1181
 4002TIP3    H233642   6.370   2.055   7.034  2.1743  0.6007  1.9852
 4003TIP3   OH233643   2.424   6.431   1.120 -0.0727 -0.3247  0.0431
 4003TIP3    H133644   2.393   6.356   1.069 -0.8342 -0.6131  0.9125
 4003TIP3    H233645   2.409   6.507   1.064 -0.2376 -0.7110 -0.4374
 4004TIP3   OH233646   0.760   3.410   0.699  0.3432  0.2157 -0.5804
 4004TIP3    H133647   0.804   3.473   0.755  0.3788  0.3454 -0.7538
 4004TIP3    H233648   0.695   3.462   0.651 -1.2968 -0.2585  1.0229
 4005TIP3   OH233649   4.317   6.122   2.459  0.1945  0.4493  0.2709
 4005TIP3    H133650   4.268   6.199   2.432  0.0948  0.1196 -0.5004
 4005TIP3    H233651   4.401   6.156   2.488  0.3224  0.8072 -0.5011
 4006TIP3   OH233652   1.943   0.153   0.577 -0.0309 -0.3527  0.3322
 4006TIP3    H133653   1.988   0.238   0.579 -0.2717 -0.2269  0.4719
 4006TIP3    H233654   1.880   0.158   0.649  0.6477 -1.0440  0.9913
 4007TIP3   OH233655   6.423   2.355   7.571 -0.3794  0.0840 -0.2529
 4007TIP3    H133656   6.442   2.431   7.516 -2.0359  0.3966 -0.4360
 4007TIP3    H233657   6.411   2.283   7.510  0.9759 -0.3045 -0.0903
 4008TIP3   OH233658   6.793   0.215   2.764  0.0525 -0.9488 -0.2115
 4008TIP3    H133659   6.728   0.148   2.739 -0.3203 -0.4502 -0.5986
 4008TIP3    H233660   6.754   0.297   2.735  0.4408 -0.5426  0.4137
 4009TIP3   OH233661   2.184   3.686   2.031  0.1352 -0.2632 -0.0263
 4009TIP3    H133662   2.096   3.676   1.995  0.0649 -1.8162  0.4872
 4009TIP3    H233663   2.232   3.737   1.966 -0.5054 -1.3938 -1.4278
 4010TIP3   OH233664   5.979   5.697   1.840  0.0498 -0.2368  0.6801
 4010TIP3    H133665   5.924   5.737   1.908  0.2082  1.3317 -0.0697
 4010TIP3    H233666   6.034   5.635   1.888 -0.0672  0.5964  1.9476
 4011TIP3   OH233667   4.849   3.126   0.233 -0.1633 -0.4525  0.1272
 4011TIP3    H133668   4.754   3.123   0.224 -0.0868  0.2092 -1.0866
 4011TIP3    H233669   4.882   3.136   0.144  0.9589  1.1205  0.6665
 4012TIP3   OH233670   4.967   0.352   0.109 -0.0551 -0.1254  0.3532
 4012TIP3    H133671   5.032   0.310   0.052 -0.6921 -1.3189  0.4681
 4012TIP3    H233672   5.019   0.400   0.173  0.6709  1.6132 -1.4493
 4013TIP3   OH233673   4.414   4.909   1.619 -0.1692  0.6665 -0.0642
 4013TIP3    H133674   4.357   4.956   1.558 -0.1335  0.0367 -0.5973
 4013TIP3    H233675   4.384   4.818   1.614  0.6585  0.3880 -0.0947
 4014TIP3   OH233676   1.867   1.871   8.511  0.7796 -0.2781 -0.2136
 4014TIP3    H133677   1.823   1.952   8.538 -0.0788 -0.1575 -1.8692
 4014TIP3    H233678   1.943   1.866   8.569 -0.0326  0.8355  1.0361
 4015TIP3   OH233679   4.152   3.287   2.873 -0.3279 -0.3454  0.2269
 4015TIP3    H133680   4.208   3.352   2.916 -0.0611  0.2228 -0.9435
 4015TIP3    H233681   4.211   3.214   2.854 -0.2460 -0.2394  0.0670
 4016TIP3   OH233682   2.591   5.835   1.046 -0.0848 -0.2156  0.0756
 4016TIP3    H133683   2.531   5.910   1.042 -0.2199 -0.3591 -2.9902
 4016TIP3    H233684   2.537   5.760   1.021  1.1138 -0.4929 -1.8420
 4017TIP3   OH233685   4.577   5.668   1.412  0.0997 -0.6395  0.3649
 4017TIP3    H133686   4.504   5.713   1.370  1.4512  0.3712 -0.9981
 4017TIP3    H233687   4.584   5.709   1.498 -1.3247 -1.2105  0.7807
 4018TIP3   OH233688   6.539   1.535   2.421 -0.0221 -0.5133 -0.2116
 4018TIP3    H133689   6.569   1.444   2.419  2.7819  0.2472  1.4679
 4018TIP3    H233690   6.501   1.545   2.509  0.7931  0.2146  0.0699
 4019TIP3   OH233691   2.244   2.488   7.450 -0.0080 -0.3028 -0.1109
 4019TIP3    H133692   2.238   2.561   7.513  0.0364 -0.8158  0.5004
 4019TIP3    H233693   2.273   2.529   7.369 -1.3988  0.5913 -0.1874
 4020TIP3   OH233694   1.128   4.197   2.980  0.0207 -0.4006 -0.0659
 4020TIP3    H133695   1.070   4.131   2.942  0.3025 -0.9031  0.3586
 4020TIP3    H233696   1.101   4.279   2.939 -0.8193 -0.6643 -0.0708
 4021TIP3   OH233697   5.092   3.868   2.847 -0.0247  0.0974 -0.3919
 4021TIP3    H133698   5.077   3.890   2.939  2.0921 -3.5811  1.0672
 4021TIP3    H233699   5.027   3.800   2.828  0.4881 -0.2006 -1.1249
 4022TIP3   OH233700   1.235   6.252   0.379 -0.3310  0.7259 -0.3029
 4022TIP3    H133701   1.286   6.331   0.357 -0.1058  0.7626  0.3338
 4022TIP3    H233702   1.293   6.202   0.437 -0.1716 -0.2764 -1.3022
 4023TIP3   OH233703   3.567   2.175   0.456  0.2383 -0.0862 -0.3874
 4023TIP3    H133704   3.619   2.110   0.504 -0.9553 -0.9280 -0.1851
 4023TIP3    H233705   3.571   2.254   0.509  0.0874 -0.5913  0.3963
 4024TIP3   OH233706   5.892   6.596   7.829  0.3846 -0.0177 -0.4103
 4024TIP3    H133707   5.959   6.663   7.842  1.2989 -0.8531 -0.7552
 4024TIP3    H233708   5.816   6.645   7.797  0.6782  0.9980  0.3947
 4025TIP3   OH233709   4.985   0.381   7.194  0.1601 -0.0159  0.1341
 4025TIP3    H133710   4.905   0.340   7.227 -0.9824  1.3446 -0.7809
 4025TIP3    H233711   4.968   0.475   7.201  2.9209  0.4275  2.7955
 4026TIP3   OH233712   2.459   6.575   7.278 -0.1494  0.4353  0.4437
 4026TIP3    H133713   2.474   6.544   7.189 -2.3527  0.3625  0.0317
 4026TIP3    H233714   2.530   6.536   7.330 -0.5433 -2.0872 -0.7437
 4027TIP3   OH233715   1.405   3.011   7.151 -0.2124  0.6185  0.6733
 4027TIP3    H133716   1.370   3.097   7.127  1.3359  0.7760 -1.1751
 4027TIP3    H233717   1.327   2.954   7.153 -0.9203  1.4347 -1.0874
 4028TIP3   OH233718   1.705   4.811   2.116 -0.3503  0.4010 -0.1713
 4028TIP3    H133719   1.726   4.808   2.209  0.6544  1.8062 -0.3148
 4028TIP3    H233720   1.609   4.809   2.113 -0.3858 -0.9836  0.7934
 4029TIP3   OH233721   4.872   4.425   0.231  0.0974 -0.6345 -0.2234
 4029TIP3    H133722   4.966   4.440   0.230  0.2833 -1.6813 -1.3328
 4029TIP3    H233723   4.854   4.388   0.318  1.0988 -2.4630 -0.7355
 4030TIP3   OH233724   2.332   3.798   1.831  0.1339  0.5301  0.1217
 4030TIP3    H133725   2.417   3.832   1.804  0.7111 -0.8036  0.1811
 4030TIP3    H233726   2.286   3.779   1.750 -0.4918  2.0891  0.0751
 4031TIP3   OH233727   5.508   2.896   0.063 -0.4586 -0.3154  0.5768
 4031TIP3    H133728   5.429   2.845   0.078 -0.4231 -0.4783  0.2130
 4031TIP3    H233729   5.523   2.942   0.146 -1.2510  0.1603  0.4707
 4032TIP3   OH233730   2.686   2.572   2.009 -0.1720 -0.0875  0.2785
 4032TIP3    H133731   2.682   2.526   2.093 -0.4207 -0.3261  0.1369
 4032TIP3    H233732   2.698   2.664   2.033 -0.4819 -0.1236  0.5793
 4033TIP3   OH233733   1.632   0.426   0.205 -0.0126 -0.4940 -0.3240
 4033TIP3    H133734   1.680   0.386   0.132 -2.3542 -0.1788 -2.1800
 4033TIP3    H233735   1.582   0.497   0.164  1.3430  2.1601  2.2551
 4034TIP3   OH233736   5.526   3.783   7.043 -0.1291 -0.8229 -0.1380
 4034TIP3    H133737   5.488   3.868   7.064  0.6616 -0.5160  0.0847
 4034TIP3    H233738   5.451   3.729   7.016 -0.4096  0.5020 -2.2229
 4035TIP3   OH233739   4.822   4.437   1.570 -0.4586  0.0381 -0.6172
 4035TIP3    H133740   4.803   4.353   1.527  1.2733 -0.3191 -0.7810
 4035TIP3    H233741   4.838   4.497   1.497 -2.9952  0.9082 -0.5385
 4036TIP3   OH233742   5.123   2.866   0.881 -0.3939  0.3596  0.5018
 4036TIP3    H133743   5.134   2.845   0.788 -0.7684  1.8102  0.1067
 4036TIP3    H233744   5.205   2.908   0.907 -0.8914  1.4300  0.3847
 4037TIP3   OH233745   0.397   2.260   8.473  0.1606 -0.2098 -0.3211
 4037TIP3    H133746   0.386   2.301   8.558  0.6720 -0.9569  0.1159
 4037TIP3    H233747   0.365   2.325   8.410  0.6378  0.7016  0.3733
 4038TIP3   OH233748   1.460   5.829   7.848  0.2270 -0.4374  0.5282
 4038TIP3    H133749   1.535   5.788   7.891 -1.1169 -1.8241  1.6339
 4038TIP3    H233750   1.499   5.887   7.782  2.3141  0.4137  2.3982
 4039TIP3   OH233751   0.885   1.771   1.785  0.5413  0.5019 -0.8325
 4039TIP3    H133752   0.927   1.765   1.870  2.2164  1.6544 -1.5234
 4039TIP3    H233753   0.889   1.864   1.762  1.7517 -0.0022 -2.9069
 4040TIP3   OH233754   5.838   4.753   7.299  0.4105 -0.0102 -0.3534
 4040TIP3    H133755   5.908   4.704   7.256  0.1819 -1.3093  0.7001
 4040TIP3    H233756   5.857   4.844   7.279  2.3623 -0.3301 -0.1540
 4041TIP3   OH233757   3.572   1.076   7.639  0.3008  0.2019 -0.3943
 4041TIP3    H133758   3.495   1.132   7.630  1.3626  1.5081 -1.9811
 4041TIP3    H233759   3.580   1.033   7.554  0.8403 -0.5973  0.0486
 4042TIP3   OH233760   5.785   2.200   1.964 -0.3905  0.3072 -0.6904
 4042TIP3    H133761   5.845   2.270   1.941  0.9318 -1.5722 -3.4849
 4042TIP3    H233762   5.833   2.119   1.945 -1.1422 -1.5725  4.0715
 4043TIP3   OH233763   6.427   2.647   7.465 -0.1617  0.0261 -0.9630
 4043TIP3    H133764   6.502   2.649   7.406  0.8762 -0.6927  0.2872
 4043TIP3    H233765   6.359   2.696   7.418  1.2899  1.3133 -1.8373
 4044TIP3   OH233766   0.276   3.768   0.732  0.1107 -0.0906  0.4502
 4044TIP3    H133767   0.355   3.745   0.780 -0.1715  0.2578  1.0835
 4044TIP3    H233768   0.290   3.730   0.645  0.3404 -1.2921  0.9879
 4045TIP3   OH233769   3.021   4.994   7.929 -0.1849  0.1621 -0.1285
 4045TIP3    H133770   3.060   4.947   7.855 -1.3866  0.9949 -1.3291
 4045TIP3    H233771   3.011   5.084   7.898 -2.5018  0.1163  0.3277
 4046TIP3   OH233772   1.451   2.569   7.931 -0.0613  0.5155  0.1315
 4046TIP3    H133773   1.481   2.482   7.959 -0.1574 -0.2572 -2.0293
 4046TIP3    H233774   1.357   2.569   7.951  0.0376  0.3251  0.6116
 4047TIP3   OH233775   1.693   3.041   8.316  0.6413 -0.2053 -0.2261
 4047TIP3    H133776   1.610   3.028   8.361  0.5929 -1.3288 -0.6022
 4047TIP3    H233777   1.753   3.070   8.385 -0.0038  0.4300  0.0820
 4048TIP3   OH233778   5.719   0.260   8.019  0.0348  0.4579 -0.3204
 4048TIP3    H133779   5.756   0.348   8.022  0.2068  0.3718  0.1888
 4048TIP3    H233780   5.778   0.207   8.073 -2.0073  0.7667  2.4465
 4049TIP3   OH233781   0.720   0.844   2.312  0.1196  0.0474 -0.3922
 4049TIP3    H133782   0.630   0.869   2.293 -0.1782  0.0001  0.8932
 4049TIP3    H233783   0.769   0.926   2.309 -0.0540  0.1434 -0.5992
 4050TIP3   OH233784   0.939   5.492   1.879  0.8000 -0.3718 -0.1964
 4050TIP3    H133785   0.951   5.582   1.910 -1.8421  0.1701 -0.5342
 4050TIP3    H233786   0.929   5.440   1.958 -0.7109  0.1650 -0.0067
 4051TIP3   OH233787   1.095   6.173   1.019  0.2604 -0.0450  0.0877
 4051TIP3    H133788   1.130   6.240   1.078 -1.1698 -1.2763  2.4795
 4051TIP3    H233789   1.002   6.170   1.038 -0.3104 -0.4682 -2.3786
 4052TIP3   OH233790   1.082   0.181   8.188 -0.6254 -0.2423 -0.4914
 4052TIP3    H133791   1.113   0.266   8.218 -1.8688  0.3213 -0.7691
 4052TIP3    H233792   0.994   0.197   8.154 -0.5984 -1.5001 -1.2328
 4053TIP3   OH233793   1.450   6.654   1.354 -0.1833 -0.5000  1.0276
 4053TIP3    H133794   1.423   6.737   1.314 -1.4694 -1.7823 -0.9323
 4053TIP3    H233795   1.369   6.617   1.389  0.1848 -1.4147  0.9264
 4054TIP3   OH233796   4.053   6.616   7.838 -0.2392 -0.4672  0.0602
 4054TIP3    H133797   4.044   6.705   7.870 -1.9822  0.2814 -2.2198
 4054TIP3    H233798   4.012   6.617   7.752  1.0535 -3.1327 -0.7052
 4055TIP3   OH233799   5.059   1.261   8.320 -0.0543 -0.0498  0.0904
 4055TIP3    H133800   5.146   1.269   8.361  1.1362  0.7815 -2.3981
 4055TIP3    H233801   5.073   1.201   8.247 -1.6896 -0.1393 -0.1821
 4056TIP3   OH233802   2.948   3.368   1.135  0.6103  0.6689  0.0852
 4056TIP3    H133803   2.858   3.340   1.151  0.8138  0.8328  1.5929
 4056TIP3    H233804   2.953   3.456   1.172  1.2332  0.9099 -0.5400
 4057TIP3   OH233805   0.383   1.275   8.004 -0.0567  0.2689 -0.1654
 4057TIP3    H133806   0.333   1.332   7.947 -0.8532 -0.1829  0.0639
 4057TIP3    H233807   0.355   1.186   7.981 -1.0780  0.1001  1.4933
 4058TIP3   OH233808   0.269   1.373   1.308  0.0890  0.5048  0.4210
 4058TIP3    H133809   0.227   1.434   1.369 -0.0029  1.0124 -0.1406
 4058TIP3    H233810   0.362   1.376   1.332  0.0350  0.5921  0.6262
 4059TIP3   OH233811   0.652   1.444   0.051  0.2964  0.4698  0.5573
 4059TIP3    H133812   0.622   1.533   0.031  0.4472  0.2303 -0.7810
 4059TIP3    H233813   0.740   1.456   0.087 -0.9919  1.1222  3.8648
 4060TIP3   OH233814   1.138   2.349   2.896  0.4146  0.1649 -0.0373
 4060TIP3    H133815   1.125   2.416   2.963 -0.8283  0.9406 -1.0244
 4060TIP3    H233816   1.080   2.277   2.923  0.8110 -0.0190  0.3442
 4061TIP3   OH233817   4.248   5.557   0.278 -0.0492 -0.2348  0.0308
 4061TIP3    H133818   4.301   5.623   0.322 -0.2136 -0.5743  0.7568
 4061TIP3    H233819   4.290   5.474   0.300  0.6312 -0.3410 -1.5377
 4062TIP3   OH233820   1.132   3.552   0.374 -0.2435  0.7345  0.3733
 4062TIP3    H133821   1.140   3.596   0.458  1.0602  3.9047 -1.2444
 4062TIP3    H233822   1.082   3.612   0.319 -0.1740 -0.7487 -1.4446
 4063TIP3   OH233823   3.868   6.582   7.260  0.3934 -0.8349 -0.1450
 4063TIP3    H133824   3.869   6.652   7.196  4.5759 -2.4573 -2.2566
 4063TIP3    H233825   3.835   6.506   7.212  1.2951 -1.5377  0.3178
 4064TIP3   OH233826   3.349   1.564   2.301  0.3223 -0.7342  0.1926
 4064TIP3    H133827   3.281   1.510   2.341 -0.9084  1.7557  1.7150
 4064TIP3    H233828   3.304   1.608   2.228  1.0533 -1.0527 -0.4625
 4065TIP3   OH233829   1.365   2.810   7.770 -0.4665 -0.0242  0.4887
 4065TIP3    H133830   1.409   2.765   7.842 -1.9434  0.5809  1.8281
 4065TIP3    H233831   1.435   2.827   7.706  0.6368 -1.6954  1.1919
 4066TIP3   OH233832   3.487   4.010   1.719  0.7463  0.3887  0.4913
 4066TIP3    H133833   3.496   4.047   1.631  0.2615 -0.2816  0.1516
 4066TIP3    H233834   3.406   3.959   1.715  1.0969 -0.2290  1.1228
 4067TIP3   OH233835   5.565   4.761   7.971 -0.0042  0.6301  0.1590
 4067TIP3    H133836   5.651   4.788   7.939  0.7301  0.3971  1.8428
 4067TIP3    H233837   5.528   4.840   8.011 -0.3142  0.5715 -0.0040
 4068TIP3   OH233838   0.849   0.846   2.059 -0.4294 -0.0880 -0.7088
 4068TIP3    H133839   0.904   0.861   2.136 -0.9837 -0.9893 -0.1264
 4068TIP3    H233840   0.785   0.782   2.087 -0.2774 -0.8886 -2.0935
 4069TIP3   OH233841   4.574   5.045   7.149 -0.3495 -0.1276  0.1959
 4069TIP3    H133842   4.504   4.987   7.120  0.1084 -0.9098  0.6214
 4069TIP3    H233843   4.645   5.029   7.087 -0.6622  0.9490 -0.4725
 4070TIP3   OH233844   1.598   5.879   2.586  0.0471 -0.0376  0.2302
 4070TIP3    H133845   1.636   5.931   2.657 -1.4598 -1.1492  1.9195
 4070TIP3    H233846   1.575   5.795   2.626  0.3084 -1.2080 -1.8884
 4071TIP3   OH233847   0.726   2.302   1.836 -0.6065  0.0060 -0.2050
 4071TIP3    H133848   0.671   2.237   1.793 -0.7586  1.0718 -1.7066
 4071TIP3    H233849   0.772   2.254   1.905  1.2284 -2.3341 -2.8487
 4072TIP3   OH233850   4.358   2.838   0.271  0.5356  0.2616  0.2734
 4072TIP3    H133851   4.429   2.864   0.213  1.5974  0.5318  1.6480
 4072TIP3    H233852   4.351   2.743   0.258 -1.8943  0.7188 -3.1290
 4073TIP3   OH233853   0.230   2.686   0.988  0.1866  0.2775 -0.3002
 4073TIP3    H133854   0.239   2.753   1.055  1.4133  2.2202 -2.2603
 4073TIP3    H233855   0.181   2.729   0.917  0.3258 -1.1504 -1.3248
 4074TIP3   OH233856   1.293   6.005   8.057 -0.4866 -0.1605  0.4286
 4074TIP3    H133857   1.375   5.975   8.017  0.6856  0.9088  1.8990
 4074TIP3    H233858   1.238   6.029   7.983  1.0130  0.2888 -0.5947
 4075TIP3   OH233859   6.761   0.414   0.623  0.6461  0.6391 -0.0968
 4075TIP3    H133860   6.754   0.367   0.540 -0.1457 -0.8701  0.7851
 4075TIP3    H233861   6.749   0.506   0.599 -2.0052  0.0477 -1.3816
 4076TIP3   OH233862   6.291   5.494   2.527  0.4928  0.9573 -0.3068
 4076TIP3    H133863   6.328   5.413   2.493  3.0991 -0.0957  4.1683
 4076TIP3    H233864   6.367   5.550   2.545 -0.9515  2.9395  0.0793
 4077TIP3   OH233865   1.090   0.416   8.742 -0.4228 -0.0760  0.0505
 4077TIP3    H133866   1.174   0.427   8.698 -1.9526  1.3303 -2.8091
 4077TIP3    H233867   1.086   0.487   8.805  1.0120 -0.9252  1.1509
 4078TIP3   OH233868   4.546   3.872   8.670 -0.0185 -0.0610 -0.3403
 4078TIP3    H133869   4.630   3.918   8.671  0.6024 -1.1601  0.0303
 4078TIP3    H233870   4.489   3.928   8.618  0.6520  1.2010  0.2217
 4079TIP3   OH233871   4.673   2.272   1.157 -0.2416 -0.1896 -0.1843
 4079TIP3    H133872   4.678   2.223   1.239 -1.4168 -0.0268  0.0049
 4079TIP3    H233873   4.764   2.277   1.126  0.3601  0.5384  1.5771
 4080TIP3   OH233874   1.673   1.122   7.221  0.0865  0.0905  0.4170
 4080TIP3    H133875   1.663   1.202   7.273  2.6476  1.5332 -1.1049
 4080TIP3    H233876   1.604   1.127   7.155  0.7141  1.4792 -0.1572
 4081TIP3   OH233877   4.304   4.912   2.832 -0.4075 -0.3410 -0.5151
 4081TIP3    H133878   4.240   4.854   2.874 -0.0952 -0.5229 -0.2881
 4081TIP3    H233879   4.370   4.854   2.796  0.1096 -0.1180  0.0477
 4082TIP3   OH233880   3.888   5.480   1.233  1.0339  1.0232  0.2677
 4082TIP3    H133881   3.815   5.447   1.285 -0.0849  0.8199 -1.3829
 4082TIP3    H233882   3.952   5.509   1.299 -1.2010  2.8463  1.8278
 4083TIP3   OH233883   0.596   5.573   2.106  0.1030  0.5569  0.5065
 4083TIP3    H133884   0.668   5.522   2.071 -0.2117  1.6159 -1.8576
 4083TIP3    H233885   0.525   5.510   2.117  1.2997 -0.4964  2.8772
 4084TIP3   OH233886   4.740   3.937   0.524 -0.1451 -0.3011 -0.6746
 4084TIP3    H133887   4.788   3.991   0.586  0.6732 -1.0884 -0.6059
 4084TIP3    H233888   4.680   3.998   0.481 -1.0281  0.2172  1.1434
 4085TIP3   OH233889   1.037   4.826   0.076 -0.0529 -0.7382 -0.1578
 4085TIP3    H133890   1.092   4.867   0.009  2.3802  1.4169  2.8333
 4085TIP3    H233891   0.974   4.894   0.100 -1.7116 -1.9149 -1.0075
 4086TIP3   OH233892   0.069   5.686   2.199 -0.6021  0.1058  0.2532
 4086TIP3    H133893   0.022   5.705   2.280 -1.8342 -1.9450  0.1050
 4086TIP3    H233894   0.123   5.609   2.220 -0.7569 -0.3073 -0.7758
 4087TIP3   OH233895   2.283   0.413   2.228  0.7265  0.2455 -0.4876
 4087TIP3    H133896   2.229   0.401   2.306  0.6368  2.4068 -0.1615
 4087TIP3    H233897   2.324   0.327   2.214 -0.2997 -0.5593  1.1246
 4088TIP3   OH233898   5.561   1.552   2.227  0.2267 -1.0402  0.3104
 4088TIP3    H133899   5.492   1.553   2.161  1.0765  0.0015 -0.5933
 4088TIP3    H233900   5.529   1.491   2.294 -1.9950  0.1279  0.4070
 4089TIP3   OH233901   0.956   0.884   1.280  0.0833  0.4758  0.2575
 4089TIP3    H133902   0.918   0.813   1.333  0.2796 -0.5964 -0.9621
 4089TIP3    H233903   1.011   0.838   1.216  0.6261  1.7844 -0.2374
 4090TIP3   OH233904   3.806   4.496   7.635 -0.3365  0.0153 -0.0796
 4090TIP3    H133905   3.825   4.455   7.551  0.7481  1.3444 -0.5312
 4090TIP3    H233906   3.760   4.577   7.612  0.4777  0.6823  0.5386
 4091TIP3   OH233907   0.014   5.318   8.290 -0.2795 -0.2510  0.4699
 4091TIP3    H133908  -0.073   5.356   8.282  0.2485  1.7490  2.8683
 4091TIP3    H233909   0.004   5.250   8.357  0.2546  1.2712  2.1951
 4092TIP3   OH233910   2.031   1.228   1.924  0.6116 -0.0103  0.0824
 4092TIP3    H133911   1.988   1.299   1.878 -1.5261 -2.1550 -1.4564
 4092TIP3    H233912   2.102   1.201   1.865  2.5348  1.7938  1.4199
 4093TIP3   OH233913   2.981   4.717   1.646  0.5718 -0.1630  0.2311
 4093TIP3    H133914   3.014   4.805   1.667 -1.0404  0.6172 -0.3105
 4093TIP3    H233915   3.001   4.706   1.553  1.3360 -0.6585  0.4419
 4094TIP3   OH233916   1.340   0.158   2.267 -0.0682  0.1847  0.0458
 4094TIP3    H133917   1.349   0.184   2.358 -0.7869  0.0165  0.1689
 4094TIP3    H233918   1.426   0.177   2.228  0.5069 -0.4951  0.9380
 4095TIP3   OH233919   0.474   0.899   0.736  0.1900 -0.3404  0.3360
 4095TIP3    H133920   0.459   0.808   0.713  2.4290 -0.9331  0.9544
 4095TIP3    H233921   0.460   0.902   0.831 -2.4917  0.6151 -0.0066
 4096TIP3   OH233922   5.006   3.773   7.651  0.5026 -0.1903 -0.6186
 4096TIP3    H133923   4.974   3.817   7.573 -0.6652 -0.7814 -0.4872
 4096TIP3    H233924   5.086   3.821   7.674  0.0233  0.9652 -1.2737
 4097TIP3   OH233925   5.403   4.776   7.452 -0.1963  0.0668  0.0439
 4097TIP3    H133926   5.466   4.736   7.392  0.3056 -0.5347  0.9309
 4097TIP3    H233927   5.426   4.738   7.537 -1.7827 -0.1836  0.3782
 4098TIP3   OH233928   0.629   3.058   8.375 -0.0363 -0.2789 -0.4455
 4098TIP3    H133929   0.690   3.121   8.336  0.6116  1.3056  2.7796
 4098TIP3    H233930   0.591   3.012   8.301  0.4777  2.9819 -2.9719
 4099TIP3   OH233931   2.949   1.675   1.155  0.4374  0.4764 -0.0631
 4099TIP3    H133932   2.952   1.770   1.161 -0.0222  0.5803 -1.3269
 4099TIP3    H233933   2.860   1.652   1.183  0.6360  0.3857  0.5102
 4100TIP3   OH233934   0.894   3.827   1.376  0.2107 -0.0507 -0.1050
 4100TIP3    H133935   0.885   3.798   1.285 -1.2124  0.1092 -0.0306
 4100TIP3    H233936   0.817   3.792   1.420  0.6747  0.2305  0.9608
 4101TIP3   OH233937   4.187   1.633   2.507 -0.2237 -0.0937 -0.0223
 4101TIP3    H133938   4.217   1.601   2.591 -0.0827  1.1045  0.4008
 4101TIP3    H233939   4.266   1.661   2.462 -0.2782 -0.8815 -0.6413
 4102TIP3   OH233940   6.457   0.294   7.946 -0.1408  0.0044 -0.1761
 4102TIP3    H133941   6.424   0.238   8.016  0.1224  0.8429  0.6449
 4102TIP3    H233942   6.552   0.280   7.948 -0.1636 -0.2057 -0.5745
 4103TIP3   OH233943   0.128   4.292   1.359 -0.3545 -0.0445  0.6835
 4103TIP3    H133944   0.065   4.247   1.415 -2.0445  2.2356  0.7706
 4103TIP3    H233945   0.197   4.227   1.343 -2.3268 -2.4375  1.2089
 4104TIP3   OH233946   2.446   1.768   2.200 -0.2635  0.4852  0.0703
 4104TIP3    H133947   2.517   1.831   2.211  0.0498  0.3561 -1.0782
 4104TIP3    H233948   2.490   1.683   2.197 -0.7807  0.0339  2.8804
 4105TIP3   OH233949   4.320   1.258   7.228 -0.3180  0.7607  0.6741
 4105TIP3    H133950   4.267   1.323   7.182 -1.1792  0.6540  1.4988
 4105TIP3    H233951   4.337   1.190   7.162 -1.4677  0.6521  0.4669
 4106TIP3   OH233952   0.907   4.804   1.226  0.0689  0.2070 -0.0736
 4106TIP3    H133953   0.976   4.860   1.189  0.9792 -1.4220 -0.9648
 4106TIP3    H233954   0.924   4.717   1.189 -3.1010 -0.0851 -1.2065
 4107TIP3   OH233955   5.916   5.712   7.920 -0.4370 -0.3512 -0.0930
 4107TIP3    H133956   5.875   5.687   7.837 -0.6890  1.4786 -0.5680
 4107TIP3    H233957   5.892   5.642   7.980 -0.7429 -1.4315 -1.4064
 4108TIP3   OH233958   0.325   0.970   0.128 -0.3127  0.3607 -0.1988
 4108TIP3    H133959   0.405   0.947   0.175  0.3511  0.8033 -1.0811
 4108TIP3    H233960   0.346   0.954   0.036 -2.3325 -2.7917 -0.2765
 4109TIP3   OH233961   0.151   0.967   1.281  0.3240 -0.6628  0.1363
 4109TIP3    H133962   0.195   0.984   1.198  2.1957  0.9480  1.3559
 4109TIP3    H233963   0.057   0.968   1.259  0.7214  0.7068 -1.8040
 4110TIP3   OH233964   5.137   5.866   2.475  0.3260  0.0258  0.5251
 4110TIP3    H133965   5.064   5.840   2.531  0.0451  4.5449  2.7163
 4110TIP3    H233966   5.215   5.841   2.524  0.0974  0.7615  1.3064
 4111TIP3   OH233967   1.543   2.572   2.250  0.4523  0.1779  0.1017
 4111TIP3    H133968   1.510   2.661   2.241 -0.4782 -0.0719  0.8924
 4111TIP3    H233969   1.638   2.582   2.255  0.3866  1.0765 -0.3221
 4112TIP3   OH233970   3.221   0.738   0.089 -0.1299  0.2099  0.4161
 4112TIP3    H133971   3.259   0.759   0.004 -0.6821 -0.4126  0.0093
 4112TIP3    H233972   3.193   0.646   0.081 -2.5416  0.8855  0.3880
 4113TIP3   OH233973   0.769   5.005   0.966 -0.5031 -0.4477  0.1784
 4113TIP3    H133974   0.735   5.076   1.021 -0.3492  0.3313 -0.7145
 4113TIP3    H233975   0.856   4.986   1.002  0.0560  0.8136 -0.4447
 4114TIP3   OH233976   1.836   4.160   8.478  0.2931  0.2938 -0.2230
 4114TIP3    H133977   1.751   4.192   8.508 -0.3771 -1.4513 -0.2019
 4114TIP3    H233978   1.899   4.205   8.535 -0.6539  0.8783  0.4021
 4115TIP3   OH233979   3.114   1.772   2.811 -0.1224 -0.4893  0.0147
 4115TIP3    H133980   3.153   1.829   2.744  0.7242  0.6569  1.4352
 4115TIP3    H233981   3.033   1.816   2.835 -0.6555 -1.1386 -0.5492
 4116TIP3   OH233982   2.424   5.583   6.951  0.3565  0.3181  0.3353
 4116TIP3    H133983   2.454   5.670   6.926  1.5820 -0.2308 -0.1668
 4116TIP3    H233984   2.329   5.588   6.944  0.3072  1.9949  1.5921
 4117TIP3   OH233985   5.082   2.378   0.028 -0.0196 -0.2597  0.0017
 4117TIP3    H133986   5.055   2.452   0.082  0.3047  0.6199 -0.9937
 4117TIP3    H233987   5.002   2.329   0.010 -0.4003  0.3983 -0.1140
 4118TIP3   OH233988   5.031   4.443   7.327  0.0139  0.8169  0.4288
 4118TIP3    H133989   5.026   4.464   7.420  1.1560  0.3857  0.5937
 4118TIP3    H233990   5.071   4.520   7.287  0.0658  0.7612  0.3735
 4119TIP3   OH233991   3.875   2.440   1.069 -0.0505 -0.0130 -0.4075
 4119TIP3    H133992   3.786   2.408   1.079  0.1881 -0.4294  0.5267
 4119TIP3    H233993   3.930   2.365   1.090  0.5157  0.7247  0.8852
 4120TIP3   OH233994   4.872   6.279   8.629  0.4020  0.4064  0.4478
 4120TIP3    H133995   4.915   6.203   8.591  0.8223  1.4534 -1.2937
 4120TIP3    H233996   4.905   6.353   8.578  0.0386  1.7758  2.1075
 4121TIP3   OH233997   1.293   5.835   7.615  0.2969 -0.3455  0.0318
 4121TIP3    H133998   1.231   5.896   7.575  1.1175  0.0094 -0.7544
 4121TIP3    H233999   1.289   5.855   7.709 -0.2773  0.1375 -0.0905
 4122TIP3   OH234000   0.955   3.760   2.199  0.5247  0.3838 -0.1041
 4122TIP3    H134001   0.986   3.767   2.108 -0.3093 -0.7854 -0.5117
 4122TIP3    H234002   0.992   3.836   2.243 -0.2618  1.8087 -1.7786
 4123TIP3   OH234003   6.870   0.968   8.270  0.0716 -0.4522  0.0795
 4123TIP3    H134004   6.884   0.884   8.226  1.1343  0.1046 -0.7050
 4123TIP3    H234005   6.776   0.981   8.268 -0.1091 -1.6024  0.1785
 4124TIP3   OH234006   0.438   5.149   1.585 -0.0236  0.8594 -0.2138
 4124TIP3    H134007   0.520   5.123   1.542 -0.0445  1.6932 -0.7959
 4124TIP3    H234008   0.370   5.130   1.520 -0.3686 -0.2885  0.4508
 4125TIP3   OH234009   3.339   6.871   7.439 -0.8836  0.1340 -0.0394
 4125TIP3    H134010   3.332   6.776   7.428  1.2609  0.1563 -2.7656
 4125TIP3    H234011   3.405   6.883   7.507  0.5047 -0.4301 -1.2353
 4126TIP3   OH234012   5.048   1.234   7.985  0.2939  0.1755 -0.3142
 4126TIP3    H134013   5.070   1.141   7.979 -0.3571 -0.0201  0.1772
 4126TIP3    H234014   4.961   1.235   8.027  0.4133  1.0145 -0.0739
 4127TIP3   OH234015   6.081   2.523   0.285  0.0267 -0.1698 -0.1746
 4127TIP3    H134016   6.099   2.612   0.256  1.7888 -0.6059 -0.5634
 4127TIP3    H234017   6.116   2.467   0.216 -2.5650 -1.2132 -0.7811
 4128TIP3   OH234018   2.189   3.956   8.459  0.2601 -0.2285 -0.1688
 4128TIP3    H134019   2.199   3.865   8.486 -1.2673 -0.3100  0.1600
 4128TIP3    H234020   2.270   3.975   8.410  0.7503 -1.6352  0.0574
 4129TIP3   OH234021   3.529   1.611   2.555  0.3460  0.2803 -0.4087
 4129TIP3    H134022   3.500   1.524   2.581  1.2367 -0.5584 -2.0347
 4129TIP3    H234023   3.449   1.655   2.524  0.0451 -0.2861 -0.4430
 4130TIP3   OH234024   2.865   5.123   2.679 -0.0450 -0.3402 -0.1924
 4130TIP3    H134025   2.829   5.107   2.592 -1.4097 -0.6118  0.3850
 4130TIP3    H234026   2.825   5.055   2.734 -2.0905  1.9181  1.3500
 4131TIP3   OH234027   3.477   5.916   1.219 -0.2499 -0.1228 -0.2676
 4131TIP3    H134028   3.491   5.905   1.313 -0.9398 -1.0721 -0.2659
 4131TIP3    H234029   3.540   5.984   1.194  1.2459 -1.1419  0.5302
 4132TIP3   OH234030   0.637   1.622   0.540 -0.1759 -0.2757 -0.1683
 4132TIP3    H134031   0.618   1.716   0.539 -0.3875 -0.3194 -0.6851
 4132TIP3    H234032   0.632   1.597   0.632  3.3696  0.9303  0.5110
 4133TIP3   OH234033   4.735   2.556   1.226 -0.3259  0.1657 -0.0929
 4133TIP3    H134034   4.681   2.501   1.168  1.0784 -1.0243 -0.3245
 4133TIP3    H234035   4.672   2.598   1.285 -1.5097 -1.1916 -0.3461
 4134TIP3   OH234036   2.958   4.456   0.233 -0.3010  0.2746 -0.3484
 4134TIP3    H134037   2.920   4.371   0.209  1.2393 -0.2832 -0.9596
 4134TIP3    H234038   2.929   4.471   0.323 -1.4109 -0.4147 -0.5751
 4135TIP3   OH234039   6.022   1.116   8.237 -0.0362 -0.0987 -0.4142
 4135TIP3    H134040   6.096   1.096   8.294 -1.3825  2.8768  2.7571
 4135TIP3    H234041   6.058   1.112   8.148  2.9224 -2.2546  0.7462
 4136TIP3   OH234042   2.963   3.926   1.449  0.2145 -0.1852 -0.4145
 4136TIP3    H134043   2.967   3.945   1.355 -0.6227 -2.3461 -0.9562
 4136TIP3    H234044   2.885   3.972   1.480 -0.5888 -0.9398 -1.2233
 4137TIP3   OH234045   0.913   0.500   2.637 -0.3862  0.8046 -0.1143
 4137TIP3    H134046   0.861   0.454   2.703 -1.4781  0.2836 -1.3033
 4137TIP3    H234047   0.956   0.571   2.685 -0.4487 -0.0887  1.3192
 4138TIP3   OH234048   3.610   3.344   7.659  0.1069  0.2050  0.6168
 4138TIP3    H134049   3.573   3.390   7.583  1.1952 -0.0810 -0.1010
 4138TIP3    H234050   3.691   3.390   7.678  0.6039 -0.6705  0.6587
 4139TIP3   OH234051   2.369   6.626   2.799 -0.2071  0.0896  0.0740
 4139TIP3    H134052   2.352   6.575   2.878  0.4931 -0.0606  0.1255
 4139TIP3    H234053   2.405   6.563   2.737 -0.6110  0.2406 -0.3203
 4140TIP3   OH234054   1.568   3.805   1.431 -0.2380 -0.3284 -0.4771
 4140TIP3    H134055   1.479   3.820   1.398 -0.5644 -1.9896 -0.4878
 4140TIP3    H234056   1.555   3.751   1.509  0.5969  2.4715  1.7500
 4141TIP3   OH234057   4.610   0.259   2.117 -0.4783  0.3630 -0.4401
 4141TIP3    H134058   4.617   0.184   2.177 -2.5142 -0.0891 -0.6951
 4141TIP3    H234059   4.639   0.225   2.032 -0.6251  0.1094 -0.3875
 4142TIP3   OH234060   2.530   1.850   1.776 -0.1969 -0.1801 -0.3464
 4142TIP3    H134061   2.450   1.859   1.826  1.5199  1.8428  2.2959
 4142TIP3    H234062   2.568   1.767   1.805 -0.7634 -0.6071 -0.7992
 4143TIP3   OH234063   2.667   2.314   2.147 -0.0679 -0.2777  0.7892
 4143TIP3    H134064   2.748   2.274   2.179 -0.4827 -1.3005  0.5958
 4143TIP3    H234065   2.618   2.241   2.108 -0.3943  0.6019 -0.5055
 4144TIP3   OH234066   5.745   4.864   7.773  0.0795 -0.0089 -0.1108
 4144TIP3    H134067   5.735   4.939   7.715 -0.0272  1.2757  1.5171
 4144TIP3    H234068   5.737   4.788   7.715 -1.9044  1.1730 -1.5075
 4145TIP3   OH234069   6.648   1.743   0.113 -0.2279  0.2540  0.3665
 4145TIP3    H134070   6.570   1.690   0.098 -0.4813  0.5626  0.5978
 4145TIP3    H234071   6.631   1.789   0.195 -0.0164  0.7076  0.1592
 4146TIP3   OH234072   2.330   0.026   7.784 -0.3571 -0.0884  0.3003
 4146TIP3    H134073   2.304   0.118   7.784  0.0378  0.1949  4.0136
 4146TIP3    H234074   2.424   0.028   7.802  0.1909 -1.2730 -2.0272
 4147TIP3   OH234075   3.294   1.713   1.617  0.4747  0.1695  0.2529
 4147TIP3    H134076   3.304   1.621   1.641 -0.1031 -0.0892 -0.4523
 4147TIP3    H234077   3.249   1.711   1.533 -2.9582  1.1193  1.8834
 4148TIP3   OH234078   3.211   2.362   7.780 -0.0107  0.1230  0.1565
 4148TIP3    H134079   3.132   2.374   7.833 -1.1555 -0.1249 -1.4119
 4148TIP3    H234080   3.178   2.334   7.695  1.7203  0.9127 -0.8255
 4149TIP3   OH234081   4.908   4.835   2.110  0.0854 -0.5210  0.5456
 4149TIP3    H134082   4.927   4.741   2.109 -0.0566 -0.5505  0.5601
 4149TIP3    H234083   4.990   4.876   2.086  0.9317 -0.5005  3.1678
 4150TIP3   OH234084   3.913   2.731   7.320 -0.5118 -0.1163  0.1331
 4150TIP3    H134085   3.846   2.787   7.358 -0.4309 -0.3240  0.5979
 4150TIP3    H234086   3.873   2.644   7.319 -0.8893  0.0502 -1.2112
 4151TIP3   OH234087   4.382   4.137   2.715 -0.2139 -0.2798  0.6043
 4151TIP3    H134088   4.346   4.083   2.785 -0.6377 -2.5291 -1.1863
 4151TIP3    H234089   4.477   4.131   2.726 -0.2709  1.0993  2.1266
 4152TIP3   OH234090   1.312   2.756   1.771 -0.0684 -0.4381  0.7041
 4152TIP3    H134091   1.318   2.667   1.735  1.8328  0.1218 -0.4993
 4152TIP3    H234092   1.256   2.803   1.710  2.3313  0.2405 -1.0910
 4153TIP3   OH234093   5.100   2.274   2.590  0.5963 -0.1101  0.1173
 4153TIP3    H134094   5.127   2.364   2.572 -0.0664  0.0419 -0.1399
 4153TIP3    H234095   5.026   2.283   2.651  1.8122 -0.5614  1.7266
 4154TIP3   OH234096   1.721   6.535   8.338  0.2562 -0.3243 -0.2579
 4154TIP3    H134097   1.724   6.439   8.339  1.4539 -0.3037 -0.3196
 4154TIP3    H234098   1.802   6.561   8.295 -0.3094  0.7179 -0.7260
 4155TIP3   OH234099   4.100   4.413   0.187 -0.6166 -0.0380 -0.0772
 4155TIP3    H134100   4.119   4.507   0.187 -0.3525 -0.0907 -0.5436
 4155TIP3    H234101   4.178   4.373   0.148 -1.0412 -0.3899 -0.5683
 4156TIP3   OH234102   0.624   6.084   2.146 -0.3092 -0.0927  0.4944
 4156TIP3    H134103   0.668   6.167   2.168  0.1919 -0.0311 -0.6472
 4156TIP3    H234104   0.690   6.017   2.161 -0.3185 -0.1554  0.2679
 4157TIP3   OH234105   6.345   0.005   1.853 -0.9244 -0.2898 -0.0857
 4157TIP3    H134106   6.350   0.011   1.948 -0.1821  2.1468 -0.2215
 4157TIP3    H234107   6.269  -0.051   1.837 -2.7142  1.3849  1.9581
 4158TIP3   OH234108   6.532   0.264   1.675  0.0065  0.4290 -0.1234
 4158TIP3    H134109   6.613   0.293   1.633 -0.1216 -0.2104 -0.8388
 4158TIP3    H234110   6.552   0.265   1.769  1.7330 -2.1570 -0.3584
 4159TIP3   OH234111   0.922   4.750   8.168 -0.0458  0.7416  0.3039
 4159TIP3    H134112   0.852   4.685   8.158 -1.2158  1.3914  3.3813
 4159TIP3    H234113   0.988   4.706   8.222 -0.2198  1.6243  1.2574
 4160TIP3   OH234114   3.540   3.379   0.307 -1.1400  0.0290 -0.2324
 4160TIP3    H134115   3.555   3.439   0.233 -0.6437  0.2091  0.0124
 4160TIP3    H234116   3.487   3.309   0.270 -0.2683 -0.2710 -0.9575
 4161TIP3   OH234117   4.394   1.155   2.208 -0.1441  0.3778  0.8268
 4161TIP3    H134118   4.309   1.115   2.226  1.5942 -2.5083  3.4867
 4161TIP3    H234119   4.394   1.236   2.258 -0.6104 -0.7026  2.6849
 4162TIP3   OH234120   4.638   0.172   1.371 -0.3124 -0.2473 -0.0351
 4162TIP3    H134121   4.595   0.087   1.374  0.6318 -0.7701 -0.7368
 4162TIP3    H234122   4.567   0.235   1.358 -1.1788 -0.7553  1.9213
 4163TIP3   OH234123   1.169   6.510   2.593  0.1390 -0.5145 -0.4051
 4163TIP3    H134124   1.106   6.469   2.534 -1.8801 -1.0517  1.9665
 4163TIP3    H234125   1.216   6.437   2.634  1.0772 -0.1694 -0.8250
 4164TIP3   OH234126   0.691   5.244   7.175 -0.3145  0.2161 -0.1955
 4164TIP3    H134127   0.631   5.197   7.117  1.5138 -0.7149 -1.4482
 4164TIP3    H234128   0.772   5.193   7.172  0.1285  0.5868  2.6113
 4165TIP3   OH234129   5.496   1.272   7.566  0.3301 -0.6830 -0.0377
 4165TIP3    H134130   5.515   1.180   7.582 -1.5698 -1.5019 -2.0024
 4165TIP3    H234131   5.434   1.272   7.493 -1.2427  2.0377  1.1122
 4166TIP3   OH234132   1.320   3.502   1.223 -0.2025  0.2347  0.2954
 4166TIP3    H134133   1.355   3.450   1.296 -0.3374  0.2134  0.3467
 4166TIP3    H234134   1.284   3.437   1.163 -0.4149  0.2691  0.3824
 4167TIP3   OH234135   5.656   3.296   1.102 -0.2305  0.3300 -0.0486
 4167TIP3    H134136   5.675   3.243   1.179 -0.3870 -1.1472 -0.9728
 4167TIP3    H234137   5.712   3.258   1.033 -1.2215  0.5983 -1.0288
 4168TIP3   OH234138   4.987   0.993   8.556 -0.0099 -0.0053 -0.5636
 4168TIP3    H134139   4.912   0.951   8.599 -1.3096  2.0095 -0.6784
 4168TIP3    H234140   4.985   0.960   8.466 -2.7211  2.1652 -1.4618
 4169TIP3   OH234141   6.421   1.883   0.755  0.4013  0.3421 -0.3864
 4169TIP3    H134142   6.368   1.949   0.799  1.1377  0.2088  0.7240
 4169TIP3    H234143   6.437   1.816   0.821  0.2637 -0.6209 -1.2920
 4170TIP3   OH234144   0.116   0.051   2.681 -0.5377 -0.1207  0.2082
 4170TIP3    H134145   0.034   0.066   2.728 -0.0074 -0.4171  1.2529
 4170TIP3    H234146   0.141  -0.039   2.703  1.7499  0.9796  2.6259
 4171TIP3   OH234147   5.965   3.313   7.753 -0.2300  0.3632  0.0157
 4171TIP3    H134148   5.995   3.301   7.662  0.3277 -2.4061  0.4859
 4171TIP3    H234149   6.044   3.340   7.800 -0.0589 -0.1753  0.0371
 4172TIP3   OH234150   2.488   4.701   1.593 -0.1026  0.2755  0.0206
 4172TIP3    H134151   2.452   4.647   1.524 -0.1202  1.3719 -0.8589
 4172TIP3    H234152   2.462   4.657   1.674 -1.1995 -0.3328 -0.6367
 4173TIP3   OH234153   5.896   5.711   2.867 -0.1612 -0.1399 -0.1759
 4173TIP3    H134154   5.986   5.741   2.876 -0.0689 -0.4523 -0.0493
 4173TIP3    H234155   5.903   5.616   2.858 -0.5244 -0.2358  0.5532
 4174TIP3   OH234156   2.719   3.452   0.534  0.3319 -0.4350  0.7652
 4174TIP3    H134157   2.771   3.432   0.457 -2.5283 -1.1521 -1.1129
 4174TIP3    H234158   2.679   3.537   0.515 -0.0567 -0.3957  1.6791
 4175TIP3   OH234159   6.329   4.138   3.100 -0.1018  0.5127 -0.5200
 4175TIP3    H134160   6.405   4.104   3.053  1.5274  1.6294  1.1714
 4175TIP3    H234161   6.266   4.066   3.098  1.9917 -1.4739  0.2213
 4176TIP3   OH234162   0.426   0.933   2.363 -0.8070  0.1187  0.0426
 4176TIP3    H134163   0.347   0.899   2.322 -0.5544  1.3716 -1.5995
 4176TIP3    H234164   0.415   1.028   2.363  0.7267  0.3323 -0.3363
 4177TIP3   OH234165   3.039   6.150   2.754  0.3431 -0.4605 -0.0965
 4177TIP3    H134166   3.055   6.237   2.718 -0.8850  0.5530  1.6248
 4177TIP3    H234167   2.999   6.100   2.683 -0.6012  0.9759 -0.6051
 4178TIP3   OH234168   4.312   5.035   1.136  0.1230 -0.3540 -0.1419
 4178TIP3    H134169   4.318   4.959   1.193  1.0751 -0.7455 -0.7480
 4178TIP3    H234170   4.343   5.108   1.191 -0.9608 -0.3456  0.4935
 4179TIP3   OH234171   2.593   6.024   8.537  0.4097  0.5261 -0.5336
 4179TIP3    H134172   2.657   6.091   8.563 -0.3671  1.6501 -1.4275
 4179TIP3    H234173   2.645   5.944   8.531  1.2427  0.8841  1.1764
 4180TIP3   OH234174   3.289   4.856   6.982 -0.0692  0.5681 -0.2729
 4180TIP3    H134175   3.317   4.921   7.046 -0.5307  0.6184 -0.1189
 4180TIP3    H234176   3.339   4.876   6.903  0.5205  0.4899  0.0767
 4181TIP3   OH234177   2.739   3.943   8.164 -0.1606  1.0434 -0.6275
 4181TIP3    H134178   2.733   4.000   8.088 -2.4107  0.8711 -0.6434
 4181TIP3    H234179   2.690   3.988   8.233 -0.4192 -0.0183 -0.0916
 4182TIP3   OH234180   3.160   2.739   1.575 -1.2459  0.0517 -0.1338
 4182TIP3    H134181   3.200   2.660   1.612 -1.1439  0.8795  1.6885
 4182TIP3    H234182   3.149   2.797   1.651 -0.2004  2.2595 -1.5516
 4183TIP3   OH234183   5.611   4.217   8.500  0.0970  0.1463  0.7294
 4183TIP3    H134184   5.649   4.266   8.427  1.3093  0.3496  1.4678
 4183TIP3    H234185   5.557   4.150   8.458  1.0537  0.0367 -0.3809
 4184TIP3   OH234186   5.925   1.091   7.268  0.1828  0.1077  0.2078
 4184TIP3    H134187   5.999   1.136   7.227 -0.5876  1.3502  0.1194
 4184TIP3    H234188   5.870   1.062   7.196  0.7657 -1.1855  0.2576
 4185TIP3   OH234189   0.286   1.837   7.880 -0.4908 -0.3729 -0.5576
 4185TIP3    H134190   0.238   1.810   7.959  1.3045 -3.6796 -0.4039
 4185TIP3    H234191   0.341   1.909   7.909  0.1954 -1.5694  1.3427
 4186TIP3   OH234192   4.230   4.694   1.504 -0.0820  0.4009 -0.3237
 4186TIP3    H134193   4.148   4.741   1.518 -0.9639 -0.1623 -3.0329
 4186TIP3    H234194   4.246   4.648   1.586 -2.2274  0.8687  0.4085
 4187TIP3   OH234195   1.611   5.584   1.821  0.1008  0.3133 -0.2559
 4187TIP3    H134196   1.695   5.614   1.786  0.2801 -2.3414 -2.3949
 4187TIP3    H234197   1.551   5.656   1.806  1.0716  0.7099 -2.6684
 4188TIP3   OH234198   2.672   2.939   0.475 -0.0768  0.0767 -0.0335
 4188TIP3    H134199   2.678   2.856   0.428  0.0190 -0.7724  1.4242
 4188TIP3    H234200   2.652   3.004   0.407  1.3290 -0.8767 -1.4394
 4189TIP3   OH234201   5.537   5.209   0.341  0.1420  0.2409  0.1844
 4189TIP3    H134202   5.554   5.281   0.402 -0.0821  1.7134 -1.4032
 4189TIP3    H234203   5.458   5.235   0.294 -0.0028 -1.1027 -0.3652
 4190TIP3   OH234204   5.134   2.841   0.602 -0.3869  0.1068 -0.0468
 4190TIP3    H134205   5.216   2.793   0.586  0.9929  1.7190  1.6836
 4190TIP3    H234206   5.077   2.817   0.529  1.4487 -1.4564 -1.0526
 4191TIP3   OH234207   1.355   4.168   0.670  0.3110  0.2775 -0.8484
 4191TIP3    H134208   1.291   4.195   0.736  0.6151  0.4655 -0.6237
 4191TIP3    H234209   1.333   4.078   0.650 -0.0425  0.3517 -0.7952
 4192TIP3   OH234210   4.225   2.479   8.183  0.0619  0.3535 -0.0569
 4192TIP3    H134211   4.204   2.567   8.215 -1.5404 -0.0369  0.0447
 4192TIP3    H234212   4.229   2.488   8.088  0.0249  0.5565 -0.0388
 4193TIP3   OH234213   2.656   3.681   7.667 -0.0141  0.7636  0.4102
 4193TIP3    H134214   2.730   3.620   7.664 -1.0339 -0.5018  0.1399
 4193TIP3    H234215   2.625   3.685   7.576  0.5282  2.3529  0.2615
 4194TIP3   OH234216   6.205   2.775   2.270  0.3641  0.3186 -0.0739
 4194TIP3    H134217   6.225   2.865   2.292  0.4678  0.8473 -2.0885
 4194TIP3    H234218   6.272   2.723   2.314  1.6155  1.4244 -0.5963
 4195TIP3   OH234219   4.684   3.347   0.760  0.1280  0.2516 -0.1083
 4195TIP3    H134220   4.596   3.327   0.792 -0.0060  0.5573 -0.2841
 4195TIP3    H234221   4.734   3.266   0.776 -0.2621 -0.0326 -0.2936
 4196TIP3   OH234222   1.614   2.315   0.292  0.0227  0.8568 -0.4068
 4196TIP3    H134223   1.700   2.303   0.332  1.2563  1.9822 -2.5173
 4196TIP3    H234224   1.554   2.269   0.351  2.2347 -1.3928  0.3042
 4197TIP3   OH234225   0.892   2.673   1.727 -0.1963 -0.0923 -0.2974
 4197TIP3    H134226   0.820   2.626   1.770  0.6212 -2.9411 -1.7725
 4197TIP3    H234227   0.942   2.710   1.799 -1.8006 -0.1287  0.8863
 4198TIP3   OH234228   6.435   1.503   1.401 -0.0295 -0.3918 -0.0001
 4198TIP3    H134229   6.452   1.589   1.439  1.4630 -0.4539 -0.4713
 4198TIP3    H234230   6.340   1.494   1.405 -0.1074  0.6767  1.3286
 4199TIP3   OH234231   0.769   1.351   2.256  0.0439  0.4325 -0.4389
 4199TIP3    H134232   0.735   1.358   2.345  0.9503  2.0778 -0.1948
 4199TIP3    H234233   0.804   1.261   2.251 -1.2286 -0.1330  0.3945
 4200TIP3   OH234234   0.496   4.538   8.251 -0.2892  0.0579 -0.0718
 4200TIP3    H134235   0.491   4.625   8.211 -1.4332  0.4041  0.7654
 4200TIP3    H234236   0.424   4.489   8.210 -0.6560  0.0181  0.6127
 4201TIP3   OH234237   5.294   2.376   2.873  0.4069 -0.2393  0.0437
 4201TIP3    H134238   5.200   2.393   2.882  0.2621  1.7062 -3.5918
 4201TIP3    H234239   5.335   2.444   2.926 -0.2024 -0.2915  0.6011
 4202TIP3   OH234240   3.359   3.372   3.017 -0.1953 -0.0733 -0.7894
 4202TIP3    H134241   3.342   3.414   2.933 -2.0752  1.5659  0.3076
 4202TIP3    H234242   3.281   3.320   3.035  0.3913 -0.8050 -0.2722
 4203TIP3   OH234243   0.825   5.397   2.109  0.7660 -0.0503  0.1525
 4203TIP3    H134244   0.792   5.317   2.150  1.1244  0.5387  1.6449
 4203TIP3    H234245   0.853   5.452   2.182 -1.8943  2.5765 -0.6238
 4204TIP3   OH234246   4.936   5.276   0.939  0.1863 -0.5281  0.6356
 4204TIP3    H134247   4.857   5.252   0.987 -0.8363 -0.5890 -0.9962
 4204TIP3    H234248   4.960   5.196   0.892  0.6268 -0.2254  0.3394
 4205TIP3   OH234249   4.346   2.988   7.179  0.0542 -0.3564 -0.2357
 4205TIP3    H134250   4.291   3.065   7.163 -0.3701 -0.8237 -1.0918
 4205TIP3    H234251   4.286   2.924   7.217  0.3791 -0.3205  0.3558
 4206TIP3   OH234252   0.525   0.801   2.079  0.3474 -0.6216 -0.1864
 4206TIP3    H134253   0.480   0.730   2.034 -0.7650  0.9523 -1.6684
 4206TIP3    H234254   0.607   0.811   2.031  0.3853 -0.7133 -0.1419
 4207TIP3   OH234255   3.740   1.326   1.406 -0.2955 -0.0141 -0.1870
 4207TIP3    H134256   3.755   1.291   1.494 -0.5529  0.2863 -0.0205
 4207TIP3    H234257   3.666   1.276   1.373 -0.5071  0.1997 -0.0431
 4208TIP3   OH234258   5.308   6.506   1.514 -0.0558  0.3082 -0.0105
 4208TIP3    H134259   5.387   6.521   1.461 -0.0813 -2.2965 -0.9218
 4208TIP3    H234260   5.337   6.521   1.604  0.6777  2.2399 -0.5191
 4209TIP3   OH234261   2.782   5.665   0.857  0.7854  0.2176 -0.1357
 4209TIP3    H134262   2.756   5.575   0.879 -0.0963  0.5581  0.2419
 4209TIP3    H234263   2.734   5.720   0.918  0.7300  1.0032 -0.8670
 4210TIP3   OH234264   2.351   4.307   2.858 -0.4167 -0.5859  0.6635
 4210TIP3    H134265   2.338   4.240   2.925 -1.0142 -1.5640 -0.4048
 4210TIP3    H234266   2.294   4.281   2.785  0.7946 -0.0019 -0.5490
 4211TIP3   OH234267   3.763   3.143   2.689  0.3533  0.4455  0.2292
 4211TIP3    H134268   3.792   3.226   2.727  0.5278  0.9721 -1.0263
 4211TIP3    H234269   3.669   3.154   2.676  0.1126 -0.0911  1.3424
 4212TIP3   OH234270   6.525   5.329   1.705  0.0034  0.3114  0.5957
 4212TIP3    H134271   6.499   5.268   1.774  0.4735  0.1977  0.6737
 4212TIP3    H234272   6.444   5.374   1.682 -0.8546 -1.9477 -1.0983
 4213TIP3   OH234273   6.323   5.979   0.452 -0.0666 -0.0681  0.3147
 4213TIP3    H134274   6.369   6.057   0.424 -0.5105 -0.8207 -2.9108
 4213TIP3    H234275   6.381   5.937   0.515  2.8137  0.0359 -2.0783
 4214TIP3   OH234276   0.184   0.860   3.029  0.1485  0.0437  0.7178
 4214TIP3    H134277   0.101   0.897   3.000  0.9126  0.9115 -0.4729
 4214TIP3    H234278   0.221   0.928   3.086  0.7024  0.3347  0.0333
 4215TIP3   OH234279   1.477   5.110   8.637  0.1240 -0.3251  0.0297
 4215TIP3    H134280   1.448   5.177   8.699  0.4181  2.7851 -2.8856
 4215TIP3    H234281   1.544   5.061   8.684  0.0653  1.5689  2.2923
 4216TIP3   OH234282   1.719   3.557   1.767  0.0684  0.0840 -0.3376
 4216TIP3    H134283   1.761   3.632   1.808  0.6799 -1.0837  1.2510
 4216TIP3    H234284   1.790   3.495   1.750 -0.2005  0.3532 -2.9432
 4217TIP3   OH234285   3.221   2.457   1.753  0.2377  0.0243  0.3255
 4217TIP3    H134286   3.136   2.413   1.751 -0.2177  0.8507  0.7478
 4217TIP3    H234287   3.220   2.507   1.835  0.0347  2.1135 -0.8760
 4218TIP3   OH234288   2.191   3.878   1.179 -0.3538 -0.1740  0.3451
 4218TIP3    H134289   2.131   3.936   1.225 -2.2376  0.2205 -2.3231
 4218TIP3    H234290   2.171   3.892   1.086  1.5280 -2.5806 -0.5442
 4219TIP3   OH234291   1.038   2.364   7.713 -0.4276 -0.4493 -0.9211
 4219TIP3    H134292   1.002   2.391   7.797  1.7178 -3.1655  1.0272
 4219TIP3    H234293   0.967   2.316   7.670 -0.5315 -2.0810  0.9635
 4220TIP3   OH234294   6.173   6.823   0.859  0.0938  0.0851 -0.3847
 4220TIP3    H134295   6.077   6.822   0.860 -0.0073  1.8518  2.5178
 4220TIP3    H234296   6.195   6.916   0.850  1.4637 -0.1082  0.7424
 4221TIP3   OH234297   0.508   5.055   8.381  0.8483 -0.0933 -0.0284
 4221TIP3    H134298   0.527   5.052   8.287  0.7720  2.7626 -0.2253
 4221TIP3    H234299   0.495   5.148   8.400 -0.4916 -0.7105  2.5695
 4222TIP3   OH234300   1.946   3.411   0.869  0.1222  0.0551  0.5083
 4222TIP3    H134301   1.920   3.438   0.781  1.1890 -0.2015  0.1093
 4222TIP3    H234302   1.863   3.384   0.910 -0.3961  0.2372 -0.3813
 4223TIP3   OH234303   6.580   1.072   2.247  0.2535  0.5330 -0.5165
 4223TIP3    H134304   6.538   1.114   2.322 -0.0427 -0.3411 -0.1870
 4223TIP3    H234305   6.592   0.981   2.274 -0.6773 -0.0111 -1.8704
 4224TIP3   OH234306   5.724   3.282   2.671 -0.1244 -0.4080  0.3683
 4224TIP3    H134307   5.701   3.370   2.642 -0.9571 -0.1379  1.7620
 4224TIP3    H234308   5.714   3.227   2.593  0.0755  0.6587 -0.4318
 4225TIP3   OH234309   4.909   5.507   0.801  0.4475  0.0909  0.1984
 4225TIP3    H134310   4.909   5.422   0.845 -2.4626 -0.8786 -1.4433
 4225TIP3    H234311   4.830   5.550   0.832  0.1090  0.7600 -1.5099
 4226TIP3   OH234312   6.241   2.752   8.644  1.1632  0.1955  0.4532
 4226TIP3    H134313   6.272   2.707   8.723  1.0746  0.7914  0.8336
 4226TIP3    H234314   6.260   2.691   8.573 -1.7397 -1.8414  1.2563
 4227TIP3   OH234315   6.118   6.385   6.871  0.0274 -0.4318  0.1581
 4227TIP3    H134316   6.101   6.456   6.808  0.8358 -0.8783 -0.5760
 4227TIP3    H234317   6.091   6.422   6.955 -1.6040 -0.0198 -0.5111
 4228TIP3   OH234318   4.912   2.528   2.456 -0.3015 -0.3601 -0.2458
 4228TIP3    H134319   4.872   2.446   2.483  1.1430 -1.1348 -0.3936
 4228TIP3    H234320   4.983   2.543   2.518 -1.2154  1.3921  0.4802
 4229TIP3   OH234321   4.587   6.730   1.357  0.0026  0.2096 -0.2834
 4229TIP3    H134322   4.537   6.687   1.288  0.2542 -1.1098  0.3141
 4229TIP3    H234323   4.678   6.725   1.327 -0.0575  1.2998 -0.6945
 4230TIP3   OH234324   2.804   0.439   7.488  0.8085 -0.1253 -0.1297
 4230TIP3    H134325   2.762   0.353   7.493  1.1329 -0.2817 -0.0536
 4230TIP3    H234326   2.732   0.500   7.476  0.7167 -0.6368 -2.8246
 4231TIP3   OH234327   6.037   2.482   7.078  0.2717 -0.4490 -0.0570
 4231TIP3    H134328   5.983   2.410   7.111  1.5480 -1.6115 -0.4645
 4231TIP3    H234329   6.032   2.474   6.983  2.0981 -1.3162 -0.1104
 4232TIP3   OH234330   6.179   0.029   2.506  0.2083  0.0890 -0.2526
 4232TIP3    H134331   6.170  -0.061   2.475 -3.0458  0.0788  0.3779
 4232TIP3    H234332   6.204   0.079   2.428  1.3410 -1.2200 -0.7570
 4233TIP3   OH234333   4.878   4.110   7.743  0.6816  0.1992 -0.3702
 4233TIP3    H134334   4.971   4.131   7.741  0.7750 -0.2165 -0.3957
 4233TIP3    H234335   4.834   4.191   7.718  1.1128 -0.2015 -2.5563
 4234TIP3   OH234336   2.699   6.267   1.540  0.1134  0.4569 -0.4300
 4234TIP3    H134337   2.673   6.321   1.466  3.2885  1.0699 -1.2822
 4234TIP3    H234338   2.732   6.186   1.501 -1.5586 -0.7956  0.6282
 4235TIP3   OH234339   6.325   6.153   7.376  0.3988 -0.2664 -0.2871
 4235TIP3    H134340   6.332   6.243   7.406  0.3013 -1.2908  3.2692
 4235TIP3    H234341   6.232   6.131   7.388  0.4063 -0.8686 -1.1949
 4236TIP3   OH234342   5.934   1.126   1.559 -0.0286 -0.1211  0.2196
 4236TIP3    H134343   6.000   1.124   1.628  0.3092  1.1721 -0.0354
 4236TIP3    H234344   5.923   1.219   1.538 -0.3545 -0.4525 -1.2410
 4237TIP3   OH234345   4.923   6.635   0.022 -0.3328  0.4002  0.0831
 4237TIP3    H134346   4.863   6.574  -0.020  0.3593 -0.6126  0.5202
 4237TIP3    H234347   4.987   6.656  -0.046 -0.7406  0.8915 -0.1574
 4238TIP3   OH234348   5.023   5.180   1.990  0.3086 -0.1690 -0.1943
 4238TIP3    H134349   4.976   5.213   1.914  0.0547 -0.7879 -0.3083
 4238TIP3    H234350   5.109   5.155   1.956  0.2392 -0.3288 -0.2505
 4239TIP3   OH234351   1.707   3.125   1.106 -0.1285 -0.4773  0.2222
 4239TIP3    H134352   1.734   3.094   1.019  2.3520  0.9597  0.3804
 4239TIP3    H234353   1.616   3.151   1.094  0.3093  0.2368 -2.1386
 4240TIP3   OH234354   2.925   1.380   2.466  0.6179 -0.2728  0.1085
 4240TIP3    H134355   2.946   1.287   2.480 -2.0194 -0.7914  1.2090
 4240TIP3    H234356   2.841   1.393   2.511  1.0073  2.7238  0.1630
 4241TIP3   OH234357   4.061   5.702   2.530  0.0577 -0.1455  0.3542
 4241TIP3    H134358   4.138   5.668   2.575  1.0633  1.1887 -0.2863
 4241TIP3    H234359   4.073   5.797   2.530  0.1135 -0.0554 -2.6553
 4242TIP3   OH234360   5.114   6.204   0.270 -0.7445 -0.1686  0.6867
 4242TIP3    H134361   5.205   6.214   0.297 -1.1061 -1.6139  2.5977
 4242TIP3    H234362   5.087   6.292   0.245  0.9812  0.3927  0.6773
 4243TIP3   OH234363   5.257   2.261   0.451  0.3222  0.2672 -0.6646
 4243TIP3    H134364   5.312   2.213   0.389  0.6958  0.1107 -0.2245
 4243TIP3    H234365   5.305   2.256   0.534  0.0642  0.8819 -0.4717
 4244TIP3   OH234366   3.156   5.820   0.535  0.4097 -0.1661  0.5406
 4244TIP3    H134367   3.148   5.845   0.443  1.4750  1.4857  0.8496
 4244TIP3    H234368   3.146   5.725   0.535 -0.5629 -0.1069 -1.1453
 4245TIP3   OH234369   1.128   0.634   1.459 -0.1711  0.6171 -0.2122
 4245TIP3    H134370   1.049   0.618   1.408 -0.1329  1.6408 -0.6192
 4245TIP3    H234371   1.194   0.657   1.394  0.4604 -0.1753  0.1292
 4246TIP3   OH234372   6.297   0.096   8.684 -0.1394  0.0166  0.4537
 4246TIP3    H134373   6.341   0.011   8.684 -1.2082 -0.5709 -0.4879
 4246TIP3    H234374   6.205   0.075   8.665 -0.4255  1.3785  0.2212
 4247TIP3   OH234375   0.644   2.557   7.049 -0.0505  0.5544 -0.0614
 4247TIP3    H134376   0.661   2.638   7.097 -0.6976  0.8146 -0.2470
 4247TIP3    H234377   0.550   2.560   7.030  0.0546  0.1150 -0.7075
 4248TIP3   OH234378   1.976   0.667   8.238 -0.2198  0.8370 -0.5783
 4248TIP3    H134379   1.920   0.609   8.188 -0.1034  1.2856 -1.2401
 4248TIP3    H234380   1.946   0.657   8.329 -0.2131 -0.2235 -0.6831
 4249TIP3   OH234381   5.698   1.951   1.491  0.2323  0.3110  0.1782
 4249TIP3    H134382   5.704   2.045   1.476  1.0603  0.0945 -1.0178
 4249TIP3    H234383   5.758   1.913   1.426 -0.5981 -1.0756  0.1858
 4250TIP3   OH234384   3.978   5.166   8.289 -0.1846  0.2281  0.7005
 4250TIP3    H134385   3.950   5.238   8.346 -0.2763  0.0070  0.9334
 4250TIP3    H234386   3.998   5.208   8.206  1.9398  0.8920  1.4701
 4251TIP3   OH234387   5.579   1.945   0.009 -0.0887  0.7461  0.4399
 4251TIP3    H134388   5.509   1.901  -0.039  1.0700 -0.5786 -0.0661
 4251TIP3    H234389   5.553   2.038   0.007 -1.1505  0.4602 -0.8729
 4252TIP3   OH234390   0.984   6.229   2.123 -0.0104 -0.6270  0.0946
 4252TIP3    H134391   1.037   6.302   2.089  1.0786 -1.9847 -1.3153
 4252TIP3    H234392   0.898   6.267   2.140  0.1058  0.7213 -1.9475
 4253TIP3   OH234393   3.698   0.011   7.884 -0.5599 -0.0313 -0.5432
 4253TIP3    H134394   3.754  -0.064   7.905 -2.4968 -1.8042 -1.2963
 4253TIP3    H234395   3.739   0.085   7.928  0.7020 -1.7837  1.4097
 4254TIP3   OH234396   3.300   4.874   1.321  0.0003  0.3647  0.4858
 4254TIP3    H134397   3.353   4.933   1.268 -0.1807 -0.0638 -0.1883
 4254TIP3    H234398   3.356   4.797   1.334 -0.4172 -0.0624 -0.1750
 4255TIP3   OH234399   6.183   0.831   1.722  0.3997 -0.1883  0.0416
 4255TIP3    H134400   6.233   0.780   1.657  0.3870 -1.5627  1.0586
 4255TIP3    H234401   6.092   0.822   1.694  0.4507 -0.2699 -0.1017
 4256TIP3   OH234402   1.513   3.271   0.201  0.2062  0.0532 -0.1623
 4256TIP3    H134403   1.460   3.351   0.194  0.3917  0.1193 -0.9811
 4256TIP3    H234404   1.509   3.247   0.293 -1.2715  0.0421 -0.2074
 4257TIP3   OH234405   1.507   1.667   8.530  0.1494  0.2171  0.3518
 4257TIP3    H134406   1.456   1.691   8.607  1.3804  0.4695  1.1319
 4257TIP3    H234407   1.564   1.743   8.516 -0.5561  0.4809 -1.2664
 4258TIP3   OH234408   6.107   2.070   8.558  0.1598  0.2773  0.2573
 4258TIP3    H134409   6.150   1.984   8.555  0.4017  0.4283 -0.7693
 4258TIP3    H234410   6.025   2.054   8.605  1.9870  0.2976  3.8276
 4259TIP3   OH234411   0.154   0.481   8.628 -0.1269 -0.3845 -0.5219
 4259TIP3    H134412   0.116   0.543   8.565 -0.9294 -0.7593 -0.4284
 4259TIP3    H234413   0.078   0.445   8.674  0.5112  1.5458  2.2926
 4260TIP3   OH234414   5.483   2.282   2.676 -0.0410  0.2069  0.1337
 4260TIP3    H134415   5.416   2.315   2.735  0.5490  0.0075  0.9255
 4260TIP3    H234416   5.499   2.354   2.615  0.0872  0.7992  0.8556
 4261TIP3   OH234417   5.174   0.174   7.109  0.0721  0.6667  0.0448
 4261TIP3    H134418   5.244   0.226   7.071  1.9437 -0.6876  1.4869
 4261TIP3    H234419   5.116   0.239   7.150  0.3792  1.8132 -1.2648
 4262TIP3   OH234420   1.936   5.501   7.351 -0.2916  0.2706 -0.4788
 4262TIP3    H134421   1.939   5.596   7.350 -1.2036  0.4137  1.9039
 4262TIP3    H234422   1.858   5.478   7.301  0.2130  0.7200 -1.4893
 4263TIP3   OH234423   6.586   5.232   0.798 -0.4233  0.2046 -0.4717
 4263TIP3    H134424   6.527   5.293   0.752  1.8859  1.8229 -1.4882
 4263TIP3    H234425   6.669   5.239   0.750  1.1171 -0.6387  1.9322
 4264TIP3   OH234426   6.656   4.356   1.081 -0.5452  0.1727 -0.0689
 4264TIP3    H134427   6.642   4.401   1.164 -0.1414 -0.2634  0.2378
 4264TIP3    H234428   6.597   4.400   1.020 -2.6062 -1.0138  0.9716
 4265TIP3   OH234429   5.877   4.530   7.007  0.0006 -0.2959  0.3762
 4265TIP3    H134430   5.847   4.510   6.919 -2.3597  0.6368  0.9001
 4265TIP3    H234431   5.835   4.613   7.028  1.8041  0.3230  1.8077
 4266TIP3   OH234432   1.886   6.282   8.706 -0.0375 -0.0189  0.2108
 4266TIP3    H134433   1.875   6.191   8.679  0.4154  0.2673 -1.0366
 4266TIP3    H234434   1.804   6.305   8.749 -0.4653 -0.7757 -0.1804
 4267TIP3   OH234435   6.385   6.363   0.378 -0.2784  0.0807 -0.0670
 4267TIP3    H134436   6.419   6.294   0.435  0.3477 -0.0575 -0.5976
 4267TIP3    H234437   6.450   6.372   0.309 -0.7598  0.6289 -0.4635
 4268TIP3   OH234438   1.974   4.158   1.793 -0.4986 -0.0405 -0.1010
 4268TIP3    H134439   2.026   4.086   1.830 -1.1272 -0.0669  0.7831
 4268TIP3    H234440   1.883   4.127   1.800 -0.6727  0.2181 -1.1306
 4269TIP3   OH234441   3.198   4.946   7.504 -0.1815 -0.5521  0.2360
 4269TIP3    H134442   3.167   4.964   7.416  1.6177 -1.1973 -0.5957
 4269TIP3    H234443   3.292   4.932   7.493  0.1944 -0.0328  2.3600
 4270TIP3   OH234444   1.821   2.113   3.329  0.0949  0.1976  0.1310
 4270TIP3    H134445   1.861   2.188   3.372 -0.2887  1.0969 -1.0266
 4270TIP3    H234446   1.775   2.150   3.253 -2.5137 -0.8381  1.0952
 4271TIP3   OH234447   0.501   0.608   8.628 -0.0025  0.2813 -0.0499
 4271TIP3    H134448   0.542   0.524   8.650 -0.8745  0.1042  0.9615
 4271TIP3    H234449   0.571   0.659   8.587  0.1843 -1.4736 -2.1300
 4272TIP3   OH234450   5.249   6.411   8.613  0.6828  0.4279  0.2080
 4272TIP3    H134451   5.205   6.481   8.565  0.8413  0.5739  0.2755
 4272TIP3    H234452   5.307   6.370   8.549  0.6458  0.4070  0.1881
 4273TIP3   OH234453   4.575   1.967   2.210  0.3177  0.0132 -0.5072
 4273TIP3    H134454   4.618   1.979   2.294 -3.5003  3.5195  1.2892
 4273TIP3    H234455   4.618   2.029   2.152 -0.9944  2.3121  0.8144
 4274TIP3   OH234456   2.034   4.899   2.185 -0.0190  0.1770  0.7524
 4274TIP3    H134457   2.060   4.847   2.262  0.5839  0.1621  0.5441
 4274TIP3    H234458   2.094   4.973   2.185  0.7800 -0.4355 -0.3693
 4275TIP3   OH234459   4.755   2.123   0.523 -0.6253 -0.0350  0.1002
 4275TIP3    H134460   4.839   2.093   0.488 -0.4712 -3.1100  2.7157
 4275TIP3    H234461   4.777   2.198   0.578  0.1739  0.1452 -0.4451
 4276TIP3   OH234462   3.107   4.384   2.167  0.5920  0.2581  0.4927
 4276TIP3    H134463   3.171   4.397   2.096 -0.8597  2.2039 -0.5503
 4276TIP3    H234464   3.157   4.341   2.236  2.7096  0.5660 -0.7457
 4277TIP3   OH234465   4.468   5.129   1.807 -0.0630  0.3635  0.1714
 4277TIP3    H134466   4.443   5.053   1.755 -1.1787  1.6207 -1.2537
 4277TIP3    H234467   4.513   5.093   1.883  1.6884 -1.5791 -1.6546
 4278TIP3   OH234468   0.048   6.414   8.123 -0.3370 -0.2770  0.4651
 4278TIP3    H134469  -0.029   6.377   8.168  1.6496 -2.4760  2.3449
 4278TIP3    H234470   0.063   6.498   8.167 -1.1714 -0.2061  0.6382
 4279TIP3   OH234471   4.980   5.462   1.470  0.1822 -0.0709  0.1031
 4279TIP3    H134472   4.987   5.547   1.428 -0.1067  0.0996  0.3943
 4279TIP3    H234473   4.904   5.470   1.528 -0.2318 -0.7278 -0.3321
 4280TIP3   OH234474   0.514   0.257   0.722 -0.2712 -0.4812 -0.4036
 4280TIP3    H134475   0.478   0.314   0.654 -0.0880  0.4585  0.2685
 4280TIP3    H234476   0.600   0.294   0.742 -0.2411 -0.8599  0.2044
 4281TIP3   OH234477   2.793   6.065   0.984 -0.4651 -0.1405 -0.2818
 4281TIP3    H134478   2.771   6.024   0.900 -3.4581 -1.6395  1.0506
 4281TIP3    H234479   2.790   6.159   0.967  2.8779 -0.2864 -2.6124
 4282TIP3   OH234480   1.241   5.853   6.903 -0.2123  0.2061 -0.0622
 4282TIP3    H134481   1.240   5.806   6.820  0.5990  0.4242 -0.2054
 4282TIP3    H234482   1.189   5.932   6.887  1.3230  1.0976 -0.8971
 4283TIP3   OH234483   1.499   5.352   1.936 -0.4962 -0.3510  0.2080
 4283TIP3    H134484   1.562   5.291   1.898  0.3055  0.1745  0.6605
 4283TIP3    H234485   1.519   5.436   1.895 -0.5389 -0.0701  0.7461
 4284TIP3   OH234486   1.490   4.728   1.711 -0.0127 -0.1561  0.6314
 4284TIP3    H134487   1.577   4.767   1.722  0.0528  0.7285 -2.1201
 4284TIP3    H234488   1.438   4.764   1.783  1.3787  0.9208  1.1496
 4285TIP3   OH234489   5.232   3.779   0.280  0.2189 -0.1300  0.2773
 4285TIP3    H134490   5.278   3.792   0.363  0.7326  0.6898 -0.1214
 4285TIP3    H234491   5.251   3.859   0.230  0.5024 -0.9113 -0.8994
 4286TIP3   OH234492   0.826   0.630   0.031 -0.5726  0.0027 -0.1984
 4286TIP3    H134493   0.884   0.638   0.107 -1.6077  1.0150  0.5214
 4286TIP3    H234494   0.781   0.547   0.043  0.5939 -0.7255 -0.6915
 4287TIP3   OH234495   5.196   3.493   0.253  0.1413  0.2881 -0.3981
 4287TIP3    H134496   5.201   3.447   0.169  0.0346 -1.0806  0.3170
 4287TIP3    H234497   5.213   3.585   0.231  0.0878 -0.0386 -1.9125
 4288TIP3   OH234498   4.723   3.261   7.127  0.8728  0.6135 -0.4329
 4288TIP3    H134499   4.680   3.333   7.174  1.9496  0.0189  1.5605
 4288TIP3    H234500   4.650   3.208   7.093  0.0370  0.9580  0.7564
 4289TIP3   OH234501   0.594   2.668   0.052 -0.3919 -0.2385 -0.0971
 4289TIP3    H134502   0.536   2.661   0.128 -0.6916 -1.7908 -0.4367
 4289TIP3    H234503   0.658   2.735   0.077 -1.3713  0.3538  0.9129
 4290TIP3   OH234504   1.874   6.580   0.602 -0.3794  0.0000 -0.0924
 4290TIP3    H134505   1.895   6.511   0.664  0.5103 -0.4500 -0.8539
 4290TIP3    H234506   1.847   6.655   0.656  0.8368 -0.2147  0.8502
 4291TIP3   OH234507   2.197   1.450   0.674  0.0277  0.5281 -0.2383
 4291TIP3    H134508   2.217   1.543   0.667  0.2322  0.4409 -0.9127
 4291TIP3    H234509   2.283   1.407   0.670 -0.1097  0.2792 -0.5809
 4292TIP3   OH234510   6.413   4.087   6.922 -0.0700  0.0264 -0.2651
 4292TIP3    H134511   6.430   4.131   6.839 -2.9221 -0.5970 -1.3075
 4292TIP3    H234512   6.318   4.092   6.933  0.1114 -0.7762  2.5014
 4293TIP3   OH234513   6.214   3.807   1.227 -1.1847 -0.0104  0.6144
 4293TIP3    H134514   6.248   3.803   1.316  0.2102 -0.4019  0.1011
 4293TIP3    H234515   6.291   3.829   1.174 -2.1194  0.9025 -0.4157
 4294TIP3   OH234516   5.480   5.015   8.092 -0.3271  0.2775  0.8639
 4294TIP3    H134517   5.559   5.069   8.103  0.2628 -0.3200 -0.3570
 4294TIP3    H234518   5.408   5.077   8.107  0.3290  0.6936  2.6764
 4295TIP3   OH234519   2.869   4.494   0.561  0.1917  0.0178 -0.3565
 4295TIP3    H134520   2.943   4.544   0.594 -0.4403  0.8008 -0.0866
 4295TIP3    H234521   2.810   4.560   0.524 -0.2263 -0.6221 -0.8507
 4296TIP3   OH234522   4.985   0.676   8.626  0.0518  0.1713  0.3340
 4296TIP3    H134523   4.941   0.718   8.700  1.7629  0.2242  1.3494
 4296TIP3    H234524   4.991   0.584   8.651  1.2647  0.3087  0.6118
 4297TIP3   OH234525   6.326   2.825   1.994  0.0369  0.1575 -0.0214
 4297TIP3    H134526   6.384   2.879   1.940  1.5945 -1.2488  0.1454
 4297TIP3    H234527   6.374   2.815   2.076 -1.7280  1.2180  1.1984
 4298TIP3   OH234528   5.831   4.464   0.125 -0.2262 -0.5690  0.0858
 4298TIP3    H134529   5.836   4.431   0.035  1.0825  1.0768 -0.4881
 4298TIP3    H234530   5.889   4.407   0.175 -1.1668 -1.6589 -0.0165
 4299TIP3   OH234531   5.516   2.528   8.432 -0.5195 -0.7348 -0.2458
 4299TIP3    H134532   5.536   2.573   8.514 -1.4285  0.7727 -0.8050
 4299TIP3    H234533   5.439   2.474   8.453 -0.5096 -0.6584 -0.0055
 4300TIP3   OH234534   5.582   4.958   8.439  0.1459  0.6645 -0.3762
 4300TIP3    H134535   5.510   4.955   8.375  0.9943 -1.5498 -1.3223
 4300TIP3    H234536   5.546   4.914   8.516  0.2329  0.3008 -0.5456
 4301TIP3   OH234537   2.854   4.153   0.272 -0.1181 -0.3059  0.4744
 4301TIP3    H134538   2.930   4.105   0.243 -0.1689 -0.5292  0.7102
 4301TIP3    H234539   2.824   4.107   0.350 -1.6670 -1.4199 -0.6980
 4302TIP3   OH234540   1.283   6.863   8.195  0.2340  1.1378  0.6810
 4302TIP3    H134541   1.213   6.925   8.176 -0.3087  0.2627 -0.3485
 4302TIP3    H234542   1.278   6.849   8.289 -1.4078  0.6419  0.5607
 4303TIP3   OH234543   5.478   4.532   0.915  0.2146  0.7215 -0.5148
 4303TIP3    H134544   5.568   4.500   0.921  0.0361  0.4972  1.9594
 4303TIP3    H234545   5.429   4.459   0.877  1.1362  1.1174 -2.6199
 4304TIP3   OH234546   0.076   1.677   8.650  0.3660  0.6436  0.2200
 4304TIP3    H134547   0.075   1.636   8.737  3.5761  0.4771  0.2927
 4304TIP3    H234548   0.022   1.756   8.661 -3.1147 -1.6145  0.9981
 4305TIP3   OH234549   6.833   6.073   0.745  0.0866  0.3838  0.2641
 4305TIP3    H134550   6.904   6.133   0.724  0.5611 -0.8681 -2.0890
 4305TIP3    H234551   6.791   6.111   0.822  1.6180  2.5939  0.0986
 4306TIP3   OH234552   5.186   5.335   8.093 -0.8115 -0.1494  0.1926
 4306TIP3    H134553   5.099   5.295   8.103 -0.5794 -0.9754 -0.8317
 4306TIP3    H234554   5.170   5.429   8.098 -1.9430 -0.2406 -1.0490
 4307TIP3   OH234555   4.331   0.104   0.281 -0.4230 -0.6107 -0.4208
 4307TIP3    H134556   4.259   0.128   0.340 -0.5465 -1.4077 -0.2360
 4307TIP3    H234557   4.291   0.043   0.219 -0.3252  0.2959 -1.4173
 4308TIP3   OH234558   0.569   5.084   3.239 -0.7505 -0.3112  0.2009
 4308TIP3    H134559   0.662   5.065   3.254 -0.9132 -2.0331 -0.6947
 4308TIP3    H234560   0.569   5.163   3.185  0.0855  0.9384  1.9285
 4309TIP3   OH234561   1.530   2.956   0.564 -0.1618  0.7725 -0.3070
 4309TIP3    H134562   1.473   2.932   0.637  1.7793  0.9327  1.3746
 4309TIP3    H234563   1.618   2.935   0.595  1.1195  4.3407 -1.1021
 4310TIP3   OH234564   0.428   2.492   0.976  0.3296 -0.3930  0.3067
 4310TIP3    H134565   0.368   2.565   0.964 -0.9512 -1.5263 -0.5439
 4310TIP3    H234566   0.424   2.443   0.894 -0.1091 -2.2939  1.3856
 4311TIP3   OH234567   1.964   0.803   1.800 -0.5906 -0.4457  1.0598
 4311TIP3    H134568   1.874   0.832   1.785 -0.1467  1.0604  1.1967
 4311TIP3    H234569   1.972   0.795   1.895 -0.6689 -0.9046  1.0304
 4312TIP3   OH234570   4.081   1.761   2.806  0.0831  0.1276 -0.0745
 4312TIP3    H134571   3.986   1.775   2.816  0.5684  2.0974  2.8014
 4312TIP3    H234572   4.099   1.684   2.860  0.1211 -0.3749 -0.7914
 4313TIP3   OH234573   5.278   5.792   7.917 -0.4502  0.5696  0.0988
 4313TIP3    H134574   5.188   5.823   7.903 -0.3988  0.3876 -0.6569
 4313TIP3    H234575   5.328   5.872   7.932 -0.9629  0.5932  1.9114
 4314TIP3   OH234576   5.261   5.388   1.533  0.3632 -0.3541  0.0369
 4314TIP3    H134577   5.305   5.366   1.451  0.6094  0.7776 -0.1573
 4314TIP3    H234578   5.186   5.440   1.506 -0.4761 -1.3328  0.4433
 4315TIP3   OH234579   1.955   1.646   0.414  0.1041 -0.1173 -0.2019
 4315TIP3    H134580   2.023   1.704   0.448 -1.2098  2.0381 -1.0086
 4315TIP3    H234581   1.985   1.558   0.435  1.4139  0.8783  2.6515
 4316TIP3   OH234582   1.564   2.530   1.030  0.2080 -0.5047 -0.3242
 4316TIP3    H134583   1.580   2.562   1.119  2.9923 -0.5699 -0.7306
 4316TIP3    H234584   1.478   2.566   1.007 -0.2643  0.0843  2.1150
 4317TIP3   OH234585   1.556   1.125   0.535 -0.3171  0.0726 -0.3968
 4317TIP3    H134586   1.539   1.071   0.612  0.0674 -0.7807 -0.9006
 4317TIP3    H234587   1.582   1.063   0.467  3.5627  1.0759 -0.0824
 4318TIP3   OH234588   0.139   6.548   2.565  0.3101 -0.0691  0.6197
 4318TIP3    H134589   0.101   6.571   2.650 -0.5840  0.3706  0.1198
 4318TIP3    H234590   0.064   6.544   2.505  0.7644 -1.6226  0.0936
 4319TIP3   OH234591   4.748   3.572   1.230 -0.2205 -0.2042 -0.5783
 4319TIP3    H134592   4.755   3.497   1.171  2.4284 -0.1951 -0.3737
 4319TIP3    H234593   4.768   3.537   1.316 -1.8103  0.2374  0.0164
 4320TIP3   OH234594   4.490   6.613   0.874 -0.2450  0.3724  0.0940
 4320TIP3    H134595   4.401   6.608   0.907  0.0545 -0.3831  0.8226
 4320TIP3    H234596   4.489   6.687   0.813 -0.9194  1.5412  1.4670
 4321TIP3   OH234597   3.020   1.047   8.699 -0.0434  0.0029  0.2651
 4321TIP3    H134598   2.993   0.955   8.692 -0.9660  0.3636 -1.3930
 4321TIP3    H234599   2.951   1.087   8.751 -1.4561  0.3928 -1.8056
 4322TIP3   OH234600   1.713   4.008   7.113 -0.2376 -0.6329 -0.4002
 4322TIP3    H134601   1.722   3.919   7.078  0.4418 -0.6067 -0.3073
 4322TIP3    H234602   1.692   4.061   7.037  1.4762 -0.5361 -0.8502
 4323TIP3   OH234603   2.509   4.989   1.635 -0.4395  0.7259  0.0226
 4323TIP3    H134604   2.492   4.896   1.650 -3.3621  1.0806 -0.4242
 4323TIP3    H234605   2.579   5.011   1.696  0.8540 -1.8996 -0.3925
 4324TIP3   OH234606   2.445   4.375   7.882  0.4156 -0.3119  0.0153
 4324TIP3    H134607   2.416   4.347   7.796  2.6901  1.9937 -1.6316
 4324TIP3    H234608   2.376   4.434   7.913  0.0336 -0.4084 -0.6539
 4325TIP3   OH234609   5.851   0.134   8.415 -0.3800 -0.2903  0.0277
 4325TIP3    H134610   5.847   0.070   8.345  0.6129  0.5169 -0.7959
 4325TIP3    H234611   5.769   0.122   8.463 -0.2079 -2.1458 -0.1004
 4326TIP3   OH234612   1.704   3.211   1.706 -0.1243 -0.2524 -0.6923
 4326TIP3    H134613   1.669   3.131   1.668  1.0230 -1.0737 -0.1078
 4326TIP3    H234614   1.628   3.256   1.741 -0.7793 -1.1945 -0.8540
 4327TIP3   OH234615   3.217   5.272   7.643  0.6301  0.3335 -0.4740
 4327TIP3    H134616   3.288   5.327   7.675  1.5744 -1.4233  0.6518
 4327TIP3    H234617   3.261   5.193   7.610 -0.4445  1.1537 -4.4304
 4328TIP3   OH234618   1.064   2.398   7.345 -0.4102  0.4373  0.2639
 4328TIP3    H134619   1.002   2.332   7.377 -0.6140 -0.3633 -1.6573
 4328TIP3    H234620   1.047   2.405   7.251  3.2301 -0.8552 -0.6885
 4329TIP3   OH234621   3.390   2.899   0.617  0.4066 -0.8808  0.1834
 4329TIP3    H134622   3.387   2.828   0.681  1.8838 -0.5775  0.6389
 4329TIP3    H234623   3.344   2.972   0.659 -1.7674 -1.7297 -0.5798
 4330TIP3   OH234624   5.908   5.006   2.337 -0.1754  0.2976  0.4960
 4330TIP3    H134625   6.000   4.980   2.338 -0.5126 -1.0260 -0.8375
 4330TIP3    H234626   5.878   4.987   2.249 -1.7422  0.7287  0.9064
 4331TIP3   OH234627   3.554   4.065   8.585 -0.4378  0.0244  0.1989
 4331TIP3    H134628   3.628   4.045   8.642  0.8354  2.3572 -0.5075
 4331TIP3    H234629   3.522   3.980   8.556  1.7273 -1.0661  0.8211
 4332TIP3   OH234630   1.634   0.685   2.364 -0.0356 -0.2437 -0.2316
 4332TIP3    H134631   1.593   0.715   2.283  1.2483  0.8546 -0.5011
 4332TIP3    H234632   1.711   0.636   2.335 -0.5445 -1.3883  0.2977
 4333TIP3   OH234633   2.723   2.862   0.801 -0.9149 -0.1125  0.3565
 4333TIP3    H134634   2.746   2.893   0.713  0.8170 -2.1068 -0.0025
 4333TIP3    H234635   2.736   2.937   0.858 -1.4650  1.0500 -1.0033
 4334TIP3   OH234636   3.898   0.320   1.462  0.4417 -0.1327 -0.1025
 4334TIP3    H134637   3.894   0.330   1.558  0.7155 -1.6969  0.0894
 4334TIP3    H234638   3.858   0.401   1.429 -0.5584  0.0169  1.3409
 4335TIP3   OH234639   3.159   6.319   7.292  0.3019 -0.5273  0.0476
 4335TIP3    H134640   3.135   6.412   7.295 -0.3734 -0.6375 -1.3036
 4335TIP3    H234641   3.094   6.276   7.348  1.4872 -0.0458  1.8560
 4336TIP3   OH234642   4.791   1.813   1.712 -0.2021 -0.7057 -0.0359
 4336TIP3    H134643   4.822   1.898   1.745 -1.3096  0.5420 -2.0382
 4336TIP3    H234644   4.844   1.797   1.633 -0.5370 -1.5088 -0.1087
 4337TIP3   OH234645   3.528   0.670   8.504  0.2003 -0.7188  0.0562
 4337TIP3    H134646   3.518   0.575   8.490 -0.0316 -0.6234 -0.4659
 4337TIP3    H234647   3.592   0.697   8.439  0.8833 -0.6445  0.7463
 4338TIP3   OH234648   0.554   5.740   2.451  0.5590  0.2147  0.1399
 4338TIP3    H134649   0.506   5.664   2.418  3.2689 -0.8554 -1.7617
 4338TIP3    H234650   0.515   5.814   2.405  0.7766 -0.6329 -1.5051
 4339TIP3   OH234651   1.537   2.040   0.068  0.8099 -0.2062 -0.6162
 4339TIP3    H134652   1.470   2.019   0.132  2.2933  0.0199  1.0993
 4339TIP3    H234653   1.530   2.135   0.056  1.0910 -0.1173 -0.1028
 4340TIP3   OH234654   5.312   4.336   8.350  0.0835  0.4168 -0.4408
 4340TIP3    H134655   5.380   4.269   8.358  1.1415  1.3377 -1.2362
 4340TIP3    H234656   5.303   4.350   8.256  0.5743  2.0264 -0.2808
 4341TIP3   OH234657   4.489   1.611   7.943  0.2131 -0.8543  0.4758
 4341TIP3    H134658   4.544   1.568   7.877  0.5327 -1.2869  1.0132
 4341TIP3    H234659   4.552   1.642   8.009  0.0648  0.9632 -0.1556
 4342TIP3   OH234660   1.842   0.614   0.606 -0.5971 -0.2106  0.2540
 4342TIP3    H134661   1.896   0.631   0.529 -0.4658  1.1729  0.6215
 4342TIP3    H234662   1.813   0.524   0.596  0.8594 -0.6175 -0.5189
 4343TIP3   OH234663   0.163   6.405   0.961 -0.0668 -0.0898 -0.9383
 4343TIP3    H134664   0.219   6.334   0.994 -0.9586 -0.1950  0.4353
 4343TIP3    H234665   0.153   6.386   0.868  0.8883 -0.9543 -0.8887
 4344TIP3   OH234666   6.826   3.115   3.004  0.0238 -0.0275 -0.2359
 4344TIP3    H134667   6.760   3.070   3.057  0.7650 -0.5530  0.2724
 4344TIP3    H234668   6.856   3.187   3.060 -0.0788  0.1791 -0.4455
 4345TIP3   OH234669   0.553   0.807   8.383  0.1969 -0.4089  0.4470
 4345TIP3    H134670   0.601   0.809   8.466  0.4373 -0.1994  0.3072
 4345TIP3    H234671   0.613   0.847   8.320 -0.1984 -0.0605  0.2870
 4346TIP3   OH234672   3.155   1.912   8.189 -0.6203  0.3341 -0.3954
 4346TIP3    H134673   3.097   1.845   8.154  0.2886  0.3293 -1.9825
 4346TIP3    H234674   3.117   1.995   8.160  0.1138  0.3324 -1.4024
 4347TIP3   OH234675   4.275   5.655   8.547 -0.2928  0.9123 -0.0431
 4347TIP3    H134676   4.242   5.592   8.611  0.0948  0.1655 -0.5593
 4347TIP3    H234677   4.360   5.620   8.520 -0.7553  0.8172 -1.4810
 4348TIP3   OH234678   0.057   4.508   0.127 -0.0141 -0.1855 -0.3366
 4348TIP3    H134679   0.019   4.439   0.181  1.4970  0.4227  1.6249
 4348TIP3    H234680  -0.018   4.555   0.091 -1.0624 -1.8720 -0.4215
 4349TIP3   OH234681   5.710   5.431   1.755 -0.1793  0.1685 -0.4619
 4349TIP3    H134682   5.760   5.362   1.710 -0.9509 -2.0290  1.7813
 4349TIP3    H234683   5.771   5.463   1.822 -0.6239 -0.1002  0.0772
 4350TIP3   OH234684   4.428   4.036   1.009  0.2962 -0.2834  0.2992
 4350TIP3    H134685   4.490   4.109   0.997 -0.7457  0.5564 -0.1458
 4350TIP3    H234686   4.426   4.022   1.103  0.1518  0.6000  0.4377
 4351TIP3   OH234687   4.944   6.774   2.101  0.1810  0.8468 -0.3878
 4351TIP3    H134688   4.923   6.858   2.141  1.3134  0.4555  1.1180
 4351TIP3    H234689   5.040   6.772   2.098  0.4117 -1.8523  3.0672
 4352TIP3   OH234690   0.212   4.116   7.709  0.4288  0.3624  0.3503
 4352TIP3    H134691   0.140   4.110   7.646 -0.3705  1.8957  1.0882
 4352TIP3    H234692   0.241   4.207   7.704  1.4733  0.0765  0.9920
 4353TIP3   OH234693   3.291   3.544   7.895  0.6172  0.6018  0.1676
 4353TIP3    H134694   3.253   3.594   7.967 -1.2495 -3.0429  1.9853
 4353TIP3    H234695   3.218   3.529   7.835  1.3924  0.8167 -0.8612
 4354TIP3   OH234696   4.436   4.414   1.999  0.6506  0.2317 -0.8696
 4354TIP3    H134697   4.486   4.452   2.071  1.7493 -0.4554 -1.2352
 4354TIP3    H234698   4.484   4.440   1.920 -0.4584  0.8630 -1.3578
 4355TIP3   OH234699   4.921   5.137   0.329 -0.0008 -0.3333  0.4702
 4355TIP3    H134700   4.980   5.126   0.404  0.4799 -1.9998 -0.1211
 4355TIP3    H234701   4.895   5.049   0.305 -1.4963  0.2815 -0.2913
 4356TIP3   OH234702   4.554   4.256   8.461  0.4768  0.1784 -0.3489
 4356TIP3    H134703   4.581   4.257   8.369 -0.5048  0.4127 -0.6379
 4356TIP3    H234704   4.514   4.341   8.476  0.3928  0.0428  0.2301
 4357TIP3   OH234705   2.304   1.292   1.836  0.3743  0.2301 -0.3213
 4357TIP3    H134706   2.300   1.308   1.741  2.7088  0.5233 -0.4098
 4357TIP3    H234707   2.274   1.374   1.874  0.2634  0.4224 -0.8057
 4358TIP3   OH234708   1.688   5.427   7.253 -0.5966  0.3374 -0.2549
 4358TIP3    H134709   1.660   5.490   7.320 -0.3716 -0.3039  0.4655
 4358TIP3    H234710   1.699   5.479   7.174  1.4882  1.5680  0.7684
 4359TIP3   OH234711   1.870   4.952   8.619 -0.2101  0.0150  0.5454
 4359TIP3    H134712   1.930   4.929   8.690 -1.3970 -0.3809  1.4659
 4359TIP3    H234713   1.918   4.933   8.539  0.6412 -0.9378  1.2655
 4360TIP3   OH234714   5.360   3.104   8.598 -0.0982 -0.1411  0.6223
 4360TIP3    H134715   5.444   3.077   8.634  0.4582 -0.0359 -0.5416
 4360TIP3    H234716   5.341   3.038   8.531 -0.0487  0.8373 -0.3753
 4361TIP3   OH234717   4.633   4.206   2.449 -0.7659  0.0458 -0.4223
 4361TIP3    H134718   4.702   4.203   2.383  0.5427  0.3522  0.8800
 4361TIP3    H234719   4.552   4.206   2.399  0.1806  0.0880 -2.0165
 4362TIP3   OH234720   6.091   4.219   8.424  0.2779 -0.2730 -0.1531
 4362TIP3    H134721   6.047   4.261   8.350 -0.3828  1.2519  1.0282
 4362TIP3    H234722   6.177   4.195   8.391 -0.3167 -0.4872 -1.6562
 4363TIP3   OH234723   1.217   0.950   7.830  0.3456 -0.2524  0.6862
 4363TIP3    H134724   1.135   0.987   7.862  0.4926  1.2403 -0.5641
 4363TIP3    H234725   1.247   0.893   7.901  0.4793  2.6092  3.1208
 4364TIP3   OH234726   3.711   4.057   1.250  0.6368  0.1155  0.0454
 4364TIP3    H134727   3.678   3.987   1.306 -0.6855  1.5919  1.2022
 4364TIP3    H234728   3.769   4.012   1.188  0.0927 -1.9397  0.9205
 4365TIP3   OH234729   5.787   1.628   1.594  0.4795 -0.0158 -0.4909
 4365TIP3    H134730   5.861   1.676   1.632 -0.8559  0.9576  1.0244
 4365TIP3    H234731   5.757   1.685   1.523  1.0437 -0.3062 -0.9659
 4366TIP3   OH234732   4.292   6.378   1.722 -0.4417  0.4993  0.2917
 4366TIP3    H134733   4.272   6.395   1.814  1.6465  0.5771  0.7814
 4366TIP3    H234734   4.289   6.464   1.680 -1.1405  0.4987  0.3300
 4367TIP3   OH234735   2.745   0.770   1.449 -0.7375 -0.3381 -0.4066
 4367TIP3    H134736   2.786   0.856   1.463 -0.6283 -0.3748 -0.4951
 4367TIP3    H234737   2.663   0.774   1.498 -1.1875  0.1532 -1.1891
 4368TIP3   OH234738   5.001   1.533   8.217  0.2473  0.0580 -0.3359
 4368TIP3    H134739   5.020   1.444   8.248 -0.5424 -0.5119 -1.4482
 4368TIP3    H234740   5.062   1.547   8.145  0.5527  0.5365  0.0056
 4369TIP3   OH234741   2.589   5.800   1.962 -0.1310  0.1588  0.0145
 4369TIP3    H134742   2.597   5.797   2.057 -2.2814  0.9466  0.2625
 4369TIP3    H234743   2.679   5.811   1.931  0.8516 -1.9541  1.8290
 4370TIP3   OH234744   4.102   6.198   0.788  0.4738  0.0530 -0.3414
 4370TIP3    H134745   4.080   6.111   0.820 -1.6552  1.4704  2.3760
 4370TIP3    H234746   4.195   6.192   0.765  0.6781 -2.6093  0.8669
 4371TIP3   OH234747   6.655   3.968   1.659  0.3966 -0.7383 -0.0006
 4371TIP3    H134748   6.639   3.912   1.583  0.2635 -0.6579 -0.0302
 4371TIP3    H234749   6.746   3.948   1.684  0.4199 -0.8091 -0.1420
 4372TIP3   OH234750   3.429   6.048   0.319 -0.7257 -0.2049  0.3329
 4372TIP3    H134751   3.470   6.045   0.406 -0.4711 -0.8175  0.1972
 4372TIP3    H234752   3.412   5.956   0.298 -0.6274 -0.0698 -0.3434
 4373TIP3   OH234753   5.186   3.632   7.313  0.4338 -0.1569  0.2644
 4373TIP3    H134754   5.127   3.672   7.249  1.8703  2.7870  0.6175
 4373TIP3    H234755   5.272   3.633   7.270  0.8004 -1.5813  0.8985
 4374TIP3   OH234756   2.198   5.479   2.317 -0.6952 -0.0543 -0.3200
 4374TIP3    H134757   2.264   5.415   2.344 -1.5121 -1.4633 -1.5183
 4374TIP3    H234758   2.227   5.510   2.232  0.2798  2.0969  0.7186
 4375TIP3   OH234759   0.623   1.171   1.511  0.6995 -1.4296 -0.5952
 4375TIP3    H134760   0.657   1.082   1.504 -0.8339 -1.9531 -1.9500
 4375TIP3    H234761   0.529   1.163   1.492  0.6000  0.5226 -1.1736
 4376TIP3   OH234762   4.743   0.879   8.710  0.2967  0.3764  0.8858
 4376TIP3    H134763   4.682   0.933   8.761  0.5984 -0.2531  1.9519
 4376TIP3    H234764   4.761   0.804   8.767 -1.1325 -1.5561 -1.0354
 4377TIP3   OH234765   0.078   5.194   1.191  0.2660  0.0476 -0.1541
 4377TIP3    H134766  -0.001   5.238   1.159  0.0633 -0.5831 -0.5421
 4377TIP3    H234767   0.064   5.102   1.170  0.8657 -0.1470  0.2763
 4378TIP3   OH234768   3.472   2.148   1.182 -0.0648  0.1977 -0.4274
 4378TIP3    H134769   3.389   2.107   1.203  0.8801 -1.5726  0.0682
 4378TIP3    H234770   3.530   2.123   1.254  0.9552  1.2073 -0.8678
 4379TIP3   OH234771   3.720   0.242   1.905 -0.1472  0.0562 -0.4456
 4379TIP3    H134772   3.775   0.302   1.854  1.2771 -0.7108  0.1304
 4379TIP3    H234773   3.661   0.300   1.954  1.0873  0.9949 -0.0168
 4380TIP3   OH234774   3.130   4.156   8.498  0.6384  0.3134 -0.0416
 4380TIP3    H134775   3.131   4.229   8.560  2.2730  1.2938 -1.1237
 4380TIP3    H234776   3.222   4.147   8.471  0.3008 -1.4948 -0.6849
 4381TIP3   OH234777   6.406   4.363   1.538 -0.4143  0.2001  0.5805
 4381TIP3    H134778   6.369   4.365   1.626  0.7767 -0.2675  1.1248
 4381TIP3    H234779   6.339   4.403   1.482 -1.4583 -0.0818  1.5907
 4382TIP3   OH234780   0.853   4.473   7.408 -0.0654 -0.0920 -0.1596
 4382TIP3    H134781   0.821   4.447   7.322  0.0310  0.8525 -0.4857
 4382TIP3    H234782   0.943   4.440   7.411  0.1155  0.3475 -0.6391
 4383TIP3   OH234783   4.172   2.613   0.518 -1.0281  0.8625  0.1106
 4383TIP3    H134784   4.173   2.527   0.477  1.8608  0.7076  0.3087
 4383TIP3    H234785   4.221   2.669   0.457 -1.2317  1.8988  0.8757
 4384TIP3   OH234786   3.478   0.190   7.987  0.1559 -0.0129 -0.2926
 4384TIP3    H134787   3.523   0.129   7.927 -1.2106 -0.4895 -0.8708
 4384TIP3    H234788   3.491   0.151   8.074 -0.1437 -0.8035 -0.5851
 4385TIP3   OH234789   5.075   3.159   0.049 -0.2817  0.2921  0.1204
 4385TIP3    H134790   5.021   3.124  -0.021  1.1619 -0.0964 -0.8531
 4385TIP3    H234791   5.117   3.236   0.012  0.0954  0.3919  0.7290
 4386TIP3   OH234792   4.969   5.614   8.594 -0.4927 -0.4550 -0.0426
 4386TIP3    H134793   4.990   5.706   8.612  0.2964 -0.4917 -0.6997
 4386TIP3    H234794   5.051   5.568   8.614 -1.1114 -1.1235  1.0246
 4387TIP3   OH234795   6.706   0.658   0.496 -0.5868 -0.1782  0.3266
 4387TIP3    H134796   6.641   0.713   0.539 -0.0062  0.5678  0.2665
 4387TIP3    H234797   6.692   0.673   0.402 -1.2592 -1.1171  0.2607
 4388TIP3   OH234798   1.795   4.412   0.733 -0.0855 -0.5590  0.3287
 4388TIP3    H134799   1.771   4.482   0.672 -0.8292 -0.8304  0.3032
 4388TIP3    H234800   1.891   4.412   0.732 -0.0584  0.9436  0.8906
 4389TIP3   OH234801   1.652   3.694   7.376  0.0127 -0.3338 -0.0622
 4389TIP3    H134802   1.669   3.609   7.336  0.7168 -0.2730  0.0952
 4389TIP3    H234803   1.737   3.721   7.413 -0.1102  0.6013 -0.4319
 4390TIP3   OH234804   3.383   3.652   0.281 -0.3444 -0.3175  0.3052
 4390TIP3    H134805   3.375   3.571   0.332  0.5510  0.2102  1.3092
 4390TIP3    H234806   3.436   3.627   0.205  0.0404 -0.6520  0.6755
 4391TIP3   OH234807   4.593   0.818   7.788  0.2098  0.0177 -0.0805
 4391TIP3    H134808   4.527   0.854   7.728  0.9031 -0.1058 -0.9319
 4391TIP3    H234809   4.652   0.768   7.732  2.6393  2.3450  0.2423
 4392TIP3   OH234810   5.155   5.006   0.978  0.0933  0.4429 -0.0507
 4392TIP3    H134811   5.072   4.974   1.015  0.5730  0.1976  0.8513
 4392TIP3    H234812   5.217   5.000   1.051  2.3310 -4.4319 -1.8765
 4393TIP3   OH234813   2.368   2.972   0.012  0.2935  0.5693  0.3932
 4393TIP3    H134814   2.459   2.961  -0.014  0.4230 -2.1039  1.6909
 4393TIP3    H234815   2.325   2.890  -0.013 -2.0558  2.1093 -1.0714
 4394TIP3   OH234816   1.638   2.014   0.789  0.1769  0.2485 -0.5911
 4394TIP3    H134817   1.583   2.089   0.770 -0.8263 -0.1555  0.6052
 4394TIP3    H234818   1.679   1.993   0.705 -0.6519  1.2296 -1.2666
 4395TIP3   OH234819   3.281   1.808   7.166 -1.0510 -0.1526  0.2983
 4395TIP3    H134820   3.296   1.818   7.072 -1.5757  0.7838  0.2972
 4395TIP3    H234821   3.222   1.880   7.188  1.4170  1.5380  1.9285
 4396TIP3   OH234822   4.649   1.103   7.807 -0.2221 -0.4153  0.4716
 4396TIP3    H134823   4.622   1.011   7.810 -0.5041 -0.4325 -1.3367
 4396TIP3    H234824   4.567   1.152   7.804 -0.0658 -0.1295  0.7748
 4397TIP3   OH234825   1.955   1.841   7.746  0.1042  0.3998 -0.2936
 4397TIP3    H134826   1.908   1.757   7.756 -1.9232  1.4758 -0.1707
 4397TIP3    H234827   2.007   1.849   7.826  0.2638 -0.6928 -0.2685
 4398TIP3   OH234828   5.682   2.568   7.066  0.2221  0.2133  0.7693
 4398TIP3    H134829   5.611   2.601   7.122 -0.8400  1.3500 -1.1451
 4398TIP3    H234830   5.685   2.474   7.084 -2.4617 -0.0552  0.2295
 4399TIP3   OH234831   6.046   4.987   2.053 -0.6418  0.0515 -0.0594
 4399TIP3    H134832   6.117   5.030   2.006  0.1295  1.2494  2.0246
 4399TIP3    H234833   5.972   5.047   2.043 -0.5775  0.1320 -0.0619
 4400TIP3   OH234834   6.654   5.676   7.849  0.3145  0.0012 -0.4792
 4400TIP3    H134835   6.693   5.760   7.871 -1.2252  0.6688 -0.1467
 4400TIP3    H234836   6.719   5.611   7.877  1.2002  1.0455 -0.0406
 4401TIP3   OH234837   4.970   5.875   8.712  0.1539 -0.1444 -0.3277
 4401TIP3    H134838   5.012   5.926   8.643  0.9009  0.2225  0.3763
 4401TIP3    H234839   4.881   5.910   8.717  0.4886  0.7058 -0.2365
 4402TIP3   OH234840   3.087   2.148   8.003 -0.5019  0.0952 -0.1047
 4402TIP3    H134841   2.996   2.171   8.025 -1.2055 -1.1162 -1.5133
 4402TIP3    H234842   3.081   2.112   7.915  1.6737  1.8079 -1.0392
 4403TIP3   OH234843   4.948   3.907   0.841 -0.2519  0.0553  0.1350
 4403TIP3    H134844   5.013   3.856   0.889  0.6148 -0.4281 -1.4619
 4403TIP3    H234845   4.928   3.853   0.764 -2.2904  0.3635  0.3896
 4404TIP3   OH234846   5.296   3.708   2.331  0.3098 -0.6332 -0.1022
 4404TIP3    H134847   5.303   3.728   2.424 -0.5897  1.0757 -0.3571
 4404TIP3    H234848   5.345   3.627   2.320  1.0421 -0.4843  1.7232
 4405TIP3   OH234849   2.057   5.162   0.181  0.9379  0.3857 -0.0847
 4405TIP3    H134850   2.020   5.085   0.137 -0.4441 -0.6056  2.5480
 4405TIP3    H234851   2.132   5.128   0.230  0.0122  0.5094  1.5111
 4406TIP3   OH234852   6.546   4.277   2.115  0.1377  0.4327  0.1839
 4406TIP3    H134853   6.460   4.238   2.129 -0.2443  1.3564  0.4654
 4406TIP3    H234854   6.606   4.202   2.110 -0.7682 -0.2590 -0.7290
 4407TIP3   OH234855   6.191   2.557   1.984  0.5024  0.0143 -0.6308
 4407TIP3    H134856   6.268   2.522   1.940  0.1119 -1.3988 -0.2516
 4407TIP3    H234857   6.210   2.650   1.997  0.8366  0.3720 -3.2672
 4408TIP3   OH234858   1.338   4.343   1.892  0.0615  0.1183  0.1399
 4408TIP3    H134859   1.418   4.328   1.842 -0.6834 -0.4823 -0.9341
 4408TIP3    H234860   1.286   4.264   1.877 -0.6128  0.3710  1.0601
 4409TIP3   OH234861   3.111   5.190   1.370  0.6549  0.4901 -0.0020
 4409TIP3    H134862   3.076   5.274   1.339  0.2022  0.5359  0.6103
 4409TIP3    H234863   3.203   5.190   1.343  0.5119  0.9311 -0.5081
 4410TIP3   OH234864   0.293   2.641   7.228  0.0527 -0.0832  0.0036
 4410TIP3    H134865   0.246   2.712   7.271 -0.2444  0.4002 -1.1027
 4410TIP3    H234866   0.331   2.590   7.300 -2.0104 -0.3970  0.9290
 4411TIP3   OH234867   3.249   6.873   8.321  0.3960  0.1181  0.2042
 4411TIP3    H134868   3.332   6.904   8.286  1.0099 -0.3342  1.2020
 4411TIP3    H234869   3.191   6.948   8.316  0.7184  0.3028 -0.9436
 4412TIP3   OH234870   2.800   1.052   7.683 -0.3266 -0.2778  0.3499
 4412TIP3    H134871   2.772   0.991   7.614 -0.2583  0.4258 -0.3079
 4412TIP3    H234872   2.879   1.012   7.719 -0.3136 -0.6095 -0.0391
 4413TIP3   OH234873   3.509   1.619   1.150 -1.0237  0.1126 -0.6086
 4413TIP3    H134874   3.439   1.656   1.203 -0.3735  1.9266 -0.9327
 4413TIP3    H234875   3.568   1.692   1.134  0.2040 -1.0268 -1.5538
 4414TIP3   OH234876   3.712   3.918   8.291 -0.4146  0.0436  0.5313
 4414TIP3    H134877   3.657   3.993   8.268 -2.0901 -0.1548  3.3244
 4414TIP3    H234878   3.672   3.844   8.246 -0.3134  0.4269 -0.1992
 4415TIP3   OH234879   6.853   4.667   1.650  0.2818 -0.0751 -0.0831
 4415TIP3    H134880   6.930   4.723   1.655  0.9217 -0.9428 -0.0245
 4415TIP3    H234881   6.821   4.678   1.561  2.4669 -2.2437 -1.2534
 4416TIP3   OH234882   1.168   4.440   2.641 -0.1894 -0.3424 -0.7231
 4416TIP3    H134883   1.195   4.483   2.722  1.3279  0.0271 -1.3776
 4416TIP3    H234884   1.248   4.396   2.610 -0.3619  0.6238 -2.6860
 4417TIP3   OH234885   6.588   6.342   7.400  0.2787 -0.2519  0.1580
 4417TIP3    H134886   6.507   6.354   7.449  0.9325  0.7453  1.0362
 4417TIP3    H234887   6.605   6.427   7.359  1.1031 -0.3127  0.3491
 4418TIP3   OH234888   4.415   1.066   7.056 -0.2598  0.4419 -0.5353
 4418TIP3    H134889   4.465   1.054   6.975 -0.8698 -0.9491 -0.7346
 4418TIP3    H234890   4.395   0.977   7.085 -2.6347  0.9350 -0.4847
 4419TIP3   OH234891   1.693   6.837   0.105  0.3873 -0.1833  0.3275
 4419TIP3    H134892   1.618   6.793   0.145 -0.4296  0.6429 -0.2424
 4419TIP3    H234893   1.734   6.770   0.050 -0.4345 -0.4335 -0.0034
 4420TIP3   OH234894   3.654   4.960   3.102 -0.1695 -0.5228  0.0923
 4420TIP3    H134895   3.611   5.040   3.074 -1.1642 -0.9064  0.4632
 4420TIP3    H234896   3.611   4.937   3.185  2.1330  0.1627  1.5734
 4421TIP3   OH234897   1.091   4.536   8.004  0.7717 -0.5232 -0.3339
 4421TIP3    H134898   1.058   4.615   7.961 -0.3192 -1.1738 -0.7538
 4421TIP3    H234899   1.129   4.567   8.086  1.7697  0.5994 -1.1877
 4422TIP3   OH234900   5.715   6.525   1.629  0.1977 -0.6077  0.0247
 4422TIP3    H134901   5.659   6.455   1.664 -1.5611  0.6123 -0.2112
 4422TIP3    H234902   5.708   6.596   1.692 -0.1179  0.2773 -0.9683
 4423TIP3   OH234903   5.507   0.863   2.031 -0.2843 -0.4108  0.4356
 4423TIP3    H134904   5.483   0.785   2.081  1.1912 -0.8469  0.5364
 4423TIP3    H234905   5.524   0.830   1.943 -0.0734 -0.1357  0.3715
 4424TIP3   OH234906   5.129   3.915   2.571  0.0299  0.5191 -0.8813
 4424TIP3    H134907   5.084   3.881   2.648 -0.0356 -0.2704 -1.2698
 4424TIP3    H234908   5.219   3.930   2.601 -0.0019  0.2421 -0.6470
 4425TIP3   OH234909   4.127   6.345   8.531  0.2491  0.2005 -0.3674
 4425TIP3    H134910   4.185   6.281   8.572 -0.1314  0.2834  0.3117
 4425TIP3    H234911   4.044   6.299   8.520  0.7064 -0.2717 -2.3228
 4426TIP3   OH234912   1.784   4.670   8.151 -0.0060 -0.4940  0.2123
 4426TIP3    H134913   1.735   4.740   8.194  0.1228 -0.2227 -0.0697
 4426TIP3    H234914   1.802   4.607   8.219 -1.5172 -1.0283  0.1483
 4427TIP3   OH234915   5.134   6.536   0.577  0.2150  0.3180 -0.6151
 4427TIP3    H134916   5.214   6.522   0.525  0.8636 -0.2970  0.4964
 4427TIP3    H234917   5.109   6.626   0.560  0.8422  0.3535 -1.4017
 4428TIP3   OH234918   2.513   6.817   1.626  0.4733  0.0597 -0.1409
 4428TIP3    H134919   2.423   6.839   1.603 -0.1004 -1.9618 -0.0417
 4428TIP3    H234920   2.529   6.733   1.583  1.3112 -1.0045  2.0621
 4429TIP3   OH234921   3.625   5.093   0.270 -0.0466  0.0430  0.0875
 4429TIP3    H134922   3.667   5.168   0.228 -1.4644 -0.5165 -2.4928
 4429TIP3    H234923   3.698   5.033   0.287  1.0787  1.8002  1.9777
 4430TIP3   OH234924   0.103   3.872   1.919 -0.2956  0.6257  0.1965
 4430TIP3    H134925   0.110   3.916   1.834  0.1881 -1.2027 -0.7575
 4430TIP3    H234926   0.042   3.800   1.905 -3.3439  2.4835  2.4603
 4431TIP3   OH234927   0.395   4.050   0.705 -0.1760 -0.3373  0.2729
 4431TIP3    H134928   0.335   3.982   0.736  0.0430 -1.0052 -0.7352
 4431TIP3    H234929   0.412   4.028   0.614  0.6814  0.5151  0.2093
 4432TIP3   OH234930   0.474   3.111   8.704  0.0448 -0.1181  0.1492
 4432TIP3    H134931   0.422   3.186   8.676 -0.5855 -1.2172 -1.8602
 4432TIP3    H234932   0.423   3.071   8.775 -0.3796  0.4503  0.1658
 4433TIP3   OH234933   2.822   4.767   8.284  0.6811  0.2319  0.5088
 4433TIP3    H134934   2.775   4.843   8.249  0.6027 -0.9536 -2.1772
 4433TIP3    H234935   2.759   4.695   8.278  1.9801 -0.8581 -0.7793
 4434TIP3   OH234936   5.980   0.985   1.256  0.4274  0.0723 -0.5474
 4434TIP3    H134937   6.052   1.044   1.278 -0.9212  0.9369  1.8146
 4434TIP3    H234938   5.901   1.038   1.265 -0.6511 -1.2768 -1.5307
 4435TIP3   OH234939   6.573   3.259   1.851  0.0971 -0.6767  0.0244
 4435TIP3    H134940   6.491   3.249   1.803 -0.4884  0.4203  0.7535
 4435TIP3    H234941   6.597   3.351   1.839  0.5679 -0.6790  0.8320
 4436TIP3   OH234942   2.881   4.192   8.348  0.7720  0.0320 -0.1367
 4436TIP3    H134943   2.881   4.272   8.297 -0.2152 -0.4940 -0.9958
 4436TIP3    H234944   2.963   4.195   8.398  1.3021  1.0106 -1.0311
 4437TIP3   OH234945   6.105   6.691   2.274 -0.1860  0.0140 -0.3159
 4437TIP3    H134946   6.147   6.606   2.260  0.0299  0.0447  0.1466
 4437TIP3    H234947   6.124   6.741   2.194  0.3693 -0.0887 -0.2521
 4438TIP3   OH234948   0.927   5.594   0.619 -0.7685  0.4235 -0.0079
 4438TIP3    H134949   0.840   5.587   0.659 -0.7016  1.9575  0.4732
 4438TIP3    H234950   0.944   5.688   0.616  1.1732  0.1305  0.5505
 4439TIP3   OH234951   5.134   5.632   1.783  0.5308  0.8431  0.4767
 4439TIP3    H134952   5.066   5.582   1.829  1.4358 -1.5366 -0.6440
 4439TIP3    H234953   5.085   5.698   1.734 -1.0413 -0.8403 -0.3565
 4440TIP3   OH234954   5.240   4.256   7.258 -0.4027 -0.3750  0.1042
 4440TIP3    H134955   5.262   4.341   7.220  2.1022 -0.1656  1.7783
 4440TIP3    H234956   5.160   4.272   7.307 -1.6760  0.2070 -2.0475
 4441TIP3   OH234957   1.323   6.492   1.755  0.5638 -0.3105 -0.2683
 4441TIP3    H134958   1.385   6.420   1.765  1.1866  0.0624 -1.2401
 4441TIP3    H234959   1.293   6.485   1.665 -2.0874 -1.4472  0.6112
 4442TIP3   OH234960   6.545   0.770   0.724  0.2967  0.3145  0.1035
 4442TIP3    H134961   6.500   0.730   0.798 -1.0121  0.1957 -0.7348
 4442TIP3    H234962   6.626   0.806   0.762 -0.1382 -0.1159  1.4935
 4443TIP3   OH234963   2.157   0.435   0.987  0.4093  0.0154 -0.3330
 4443TIP3    H134964   2.162   0.429   1.083 -0.0093  0.9854 -0.2329
 4443TIP3    H234965   2.078   0.387   0.964  0.8419 -0.7458 -0.2585
 4444TIP3   OH234966   3.752   6.746   0.941  0.2818  0.0965  0.1867
 4444TIP3    H134967   3.806   6.683   0.893  1.4934  0.8438  0.5324
 4444TIP3    H234968   3.676   6.760   0.884  1.8414  1.2124 -1.7114
 4445TIP3   OH234969   5.827   4.807   0.878  0.2728 -0.0644 -0.5819
 4445TIP3    H134970   5.833   4.751   0.800  1.3054 -0.1170 -0.4655
 4445TIP3    H234971   5.733   4.823   0.888  0.0548 -0.8858 -1.2484
 4446TIP3   OH234972   2.988   3.610   8.445 -0.4412  0.1858  0.6391
 4446TIP3    H134973   3.011   3.703   8.444 -0.0606  0.1502 -2.5240
 4446TIP3    H234974   2.896   3.609   8.474  0.3048  1.1907  3.4419
 4447TIP3   OH234975   0.636   6.732   7.082 -0.4214 -0.2814 -0.0282
 4447TIP3    H134976   0.612   6.810   7.132  1.0750  0.7197 -0.8175
 4447TIP3    H234977   0.570   6.726   7.013 -0.8453 -0.0428  0.3494
 4448TIP3   OH234978   5.899   5.413   2.898  0.0195  0.4660 -0.4489
 4448TIP3    H134979   5.826   5.438   2.954 -0.2546 -0.2907 -0.4575
 4448TIP3    H234980   5.905   5.318   2.907  0.3873  0.4096 -1.1976
 4449TIP3   OH234981   0.333   6.604   2.815 -0.4400  0.2090  0.1413
 4449TIP3    H134982   0.339   6.572   2.725  1.9511  2.8031 -0.7906
 4449TIP3    H234983   0.262   6.554   2.855 -0.7034 -1.9525 -2.7758
 4450TIP3   OH234984   6.867   6.117   2.944  0.2633 -0.0389 -0.4075
 4450TIP3    H134985   6.893   6.062   2.870 -0.6091  1.6496 -2.0223
 4450TIP3    H234986   6.772   6.127   2.935  0.4570  2.1222 -0.4748
 4451TIP3   OH234987   0.663   2.218   0.738 -0.3935  0.5142  0.2261
 4451TIP3    H134988   0.570   2.240   0.730 -0.5615 -0.6401 -1.5457
 4451TIP3    H234989   0.663   2.134   0.784 -0.3514 -0.1054 -0.8548
 4452TIP3   OH234990   5.223   1.187   0.367 -0.3110 -0.0361 -0.0913
 4452TIP3    H134991   5.272   1.269   0.361  2.0894 -1.2786  0.8905
 4452TIP3    H234992   5.158   1.203   0.436  1.0276  0.6619  1.0724
 4453TIP3   OH234993   3.775   5.258   0.547 -0.3112  0.7318  0.3766
 4453TIP3    H134994   3.745   5.345   0.521 -0.6755  0.4266 -0.2499
 4453TIP3    H234995   3.829   5.228   0.473 -1.0245  0.0112  0.1340
 4454TIP3   OH234996   5.117   1.486   7.952 -0.2111  0.4838  0.3615
 4454TIP3    H134997   5.033   1.526   7.928 -0.2357 -0.2517 -0.9167
 4454TIP3    H234998   5.096   1.393   7.965 -0.0666  0.7443  2.7820
 4455TIP3   OH234999   1.202   3.271   1.044 -0.2420  0.8389 -0.1723
 4455TIP3    H135000   1.251   3.244   0.966 -0.1556 -0.2928  0.2578
 4455TIP3    H235001   1.113   3.283   1.012 -0.2788  0.0472 -0.3837
 4456TIP3   OH235002   0.104   1.079   2.276 -0.4181 -0.5379  0.0980
 4456TIP3    H135003   0.181   1.134   2.281 -1.2817  0.5801  2.2297
 4456TIP3    H235004   0.136   0.990   2.291  0.4479 -0.0675  1.1132
 4457TIP3   OH235005   5.890   0.881   1.970  0.3905 -0.2376 -0.0885
 4457TIP3    H135006   5.859   0.965   1.935 -0.5595 -0.0581  1.1213
 4457TIP3    H235007   5.831   0.862   2.042  1.9886 -0.8068  1.1414
 4458TIP3   OH235008   6.396   4.153   7.580  0.4017  0.0378  0.2146
 4458TIP3    H135009   6.371   4.105   7.502  0.6674  0.4554 -0.1305
 4458TIP3    H235010   6.478   4.197   7.557  0.2090  0.5907  0.5439
 4459TIP3   OH235011   6.439   6.293   2.414  1.2986  0.1362  0.1356
 4459TIP3    H135012   6.437   6.202   2.444  0.1472  0.1238  0.0690
 4459TIP3    H235013   6.517   6.330   2.454  0.6826 -0.3240  1.8329
 4460TIP3   OH235014   0.117   6.478   2.895  0.3429 -0.1979 -0.7104
 4460TIP3    H135015   0.064   6.528   2.958  0.5240 -0.8031 -0.0666
 4460TIP3    H235016   0.052   6.432   2.841  0.1922 -0.0568 -0.6523
 4461TIP3   OH235017   6.426   0.752   0.004  0.5447  0.1762 -0.3440
 4461TIP3    H135018   6.356   0.686  -0.000  1.2409 -0.7807  1.7954
 4461TIP3    H235019   6.504   0.705  -0.023  0.7451  0.6512 -0.6042
 4462TIP3   OH235020   2.377   6.860   2.061 -0.1499  0.7410  0.2590
 4462TIP3    H135021   2.325   6.869   2.140 -2.3922 -0.2967 -0.9937
 4462TIP3    H235022   2.359   6.940   2.011 -0.8910  0.2338 -0.3237
 4463TIP3   OH235023   6.782   1.915   1.576  0.1688  0.0259  0.2414
 4463TIP3    H135024   6.777   2.006   1.548  3.5412 -0.2584 -1.7868
 4463TIP3    H235025   6.776   1.865   1.495 -0.9750 -1.5831  1.2635
 4464TIP3   OH235026   2.177   4.895   7.782  0.5037  0.8073  0.5293
 4464TIP3    H135027   2.097   4.886   7.834 -0.2180  0.2681 -0.6372
 4464TIP3    H235028   2.146   4.904   7.692  1.7458  1.2326  0.1264
 4465TIP3   OH235029   0.975   1.123   1.396  0.4806 -0.3173  0.4489
 4465TIP3    H135030   0.982   1.030   1.375 -0.1013 -0.2342 -0.1395
 4465TIP3    H235031   0.881   1.142   1.389  0.6194  0.3552  0.3788
 4466TIP3   OH235032   2.448   6.092   1.459 -0.0861 -0.0164  0.0096
 4466TIP3    H135033   2.521   6.110   1.400  0.7825 -0.2750  0.9722
 4466TIP3    H235034   2.476   6.015   1.509 -0.0578  1.1713  1.9161
 4467TIP3   OH235035   2.371   1.159   7.853  0.6996  0.2230 -0.4666
 4467TIP3    H135036   2.405   1.230   7.799  0.3558  0.5345 -0.2730
 4467TIP3    H235037   2.447   1.127   7.901  1.4137 -1.2674 -2.4659
 4468TIP3   OH235038   0.453   2.459   7.724  0.2281 -0.2593  0.0329
 4468TIP3    H135039   0.373   2.511   7.738  1.3466  2.3713 -2.2546
 4468TIP3    H235040   0.484   2.438   7.811  0.5701  4.5441  1.3552
 4469TIP3   OH235041   3.262   0.483   1.877  0.3544  0.5626 -0.5101
 4469TIP3    H135042   3.259   0.565   1.828 -0.4954  1.1339  0.4714
 4469TIP3    H235043   3.217   0.420   1.821  1.4867  0.5927 -1.5206
 4470TIP3   OH235044   2.098   0.398   0.015  0.4271  1.0879  0.6515
 4470TIP3    H135045   2.035   0.446  -0.039  0.0864  1.3184  1.2434
 4470TIP3    H235046   2.054   0.387   0.099 -0.3719 -2.0954 -0.0518
 4471TIP3   OH235047   4.078   2.523   7.191 -0.3586 -0.4166  0.0966
 4471TIP3    H135048   3.990   2.510   7.227  0.1076 -0.4940  1.2478
 4471TIP3    H235049   4.094   2.617   7.200  0.0176 -0.5328  0.7471
 4472TIP3   OH235050   1.859   2.353   0.660  0.8118 -0.2311  0.3298
 4472TIP3    H135051   1.797   2.378   0.728  1.4565 -1.4690  1.4063
 4472TIP3    H235052   1.919   2.427   0.654 -0.3603  0.7200 -0.3031
 4473TIP3   OH235053   4.051   1.180   7.498  0.4997  0.0640  0.2158
 4473TIP3    H135054   4.028   1.270   7.520  2.2613  1.0544 -1.6624
 4473TIP3    H235055   3.967   1.136   7.482 -0.3227  2.0211 -1.1311
 4474TIP3   OH235056   3.705   6.475   8.365 -0.1433  0.0163  0.4160
 4474TIP3    H135057   3.647   6.402   8.385 -0.4446 -0.0171 -0.5215
 4474TIP3    H235058   3.749   6.494   8.447 -1.7075  0.2452  1.2355
 4475TIP3   OH235059   4.882   2.759   1.407 -0.2270 -1.0836  0.3469
 4475TIP3    H135060   4.832   2.723   1.334 -1.4437  1.2854 -0.1124
 4475TIP3    H235061   4.858   2.706   1.482  1.3683 -3.8517 -0.9509
 4476TIP3   OH235062   1.921   0.307   1.009 -0.1204  0.1686 -0.0802
 4476TIP3    H135063   1.899   0.377   1.070 -0.8895  0.1340 -0.3041
 4476TIP3    H235064   1.836   0.271   0.982  0.0506  1.4270 -2.6303
 4477TIP3   OH235065   6.065   2.135   0.110  0.7851 -1.2470  1.0942
 4477TIP3    H135066   6.146   2.089   0.131  2.4453  0.2275 -1.5046
 4477TIP3    H235067   6.093   2.224   0.090 -1.3357 -0.9162 -0.7733
 4478TIP3   OH235068   1.016   3.197   0.640 -0.3018  0.2171 -0.4712
 4478TIP3    H135069   1.104   3.229   0.663 -1.0974  2.6854 -0.5264
 4478TIP3    H235070   1.013   3.202   0.544  0.6694 -3.4684 -0.8431
 4479TIP3   OH235071   3.429   1.101   1.347 -0.3335 -0.6173 -0.4223
 4479TIP3    H135072   3.427   1.016   1.390 -0.5239 -0.4718 -0.1428
 4479TIP3    H235073   3.345   1.142   1.369  0.0521 -0.0585  0.0674
 4480TIP3   OH235074   4.021   4.268   3.036  0.7125  0.4669  0.3298
 4480TIP3    H135075   4.046   4.342   2.981  1.2729 -0.6885 -1.0182
 4480TIP3    H235076   4.089   4.265   3.103  1.2794  0.5354 -0.2342
 4481TIP3   OH235077   4.931   6.656   1.620  0.1173 -0.1818 -0.1037
 4481TIP3    H135078   4.876   6.657   1.542  0.9233 -2.5588 -0.7718
 4481TIP3    H235079   5.020   6.669   1.587  0.7841 -3.5398 -0.0208
 4482TIP3   OH235080   0.267   1.193   8.627 -0.2564 -0.3021  0.0376
 4482TIP3    H135081   0.287   1.110   8.584  0.2405 -0.9696  1.4900
 4482TIP3    H235082   0.325   1.257   8.584  1.4569 -1.2634  0.7995
 4483TIP3   OH235083   2.366   5.863   8.642 -0.0032 -0.1786  0.1351
 4483TIP3    H135084   2.363   5.768   8.639 -1.4809 -0.1566 -2.6744
 4483TIP3    H235085   2.440   5.887   8.586 -1.4278  0.2401 -1.7185
 4484TIP3   OH235086   0.019   3.607   2.383 -0.4592  0.3364  0.0083
 4484TIP3    H135087  -0.033   3.588   2.461  1.6127 -0.1582  1.3345
 4484TIP3    H235088   0.044   3.520   2.350 -0.9286  0.5563 -0.9631
 4485TIP3   OH235089   5.148   0.871   0.408  0.5596 -0.3118  0.2497
 4485TIP3    H135090   5.067   0.908   0.445  1.5065  2.1994  0.0381
 4485TIP3    H235091   5.146   0.897   0.316  0.4552 -2.4610 -0.4121
 4486TIP3   OH235092   0.194   4.312   1.968  0.3275  0.6982 -0.0878
 4486TIP3    H135093   0.139   4.364   1.909  0.7966 -0.5518 -1.7017
 4486TIP3    H235094   0.220   4.374   2.037 -2.2350  1.5761  0.2008
 4487TIP3   OH235095   1.091   4.556   0.077  0.3885  0.1663  0.4695
 4487TIP3    H135096   1.017   4.496   0.066  0.5196  0.0041  0.4752
 4487TIP3    H235097   1.050   4.641   0.094  0.1956 -0.1386  1.6391
 4488TIP3   OH235098   3.205   2.746   0.238 -0.4979 -0.4960 -0.5447
 4488TIP3    H135099   3.124   2.797   0.238 -0.3062  0.4256  4.6478
 4488TIP3    H235100   3.187   2.672   0.296  2.3533 -0.0039  1.2016
 4489TIP3   OH235101   5.197   3.587   7.825 -0.9511  0.1957 -0.7027
 4489TIP3    H135102   5.210   3.497   7.797 -0.2940 -0.6224  1.8867
 4489TIP3    H235103   5.273   3.635   7.790 -0.5166 -0.5938 -0.8613
 4490TIP3   OH235104   1.003   6.653   2.372 -0.1479 -0.4412  0.6846
 4490TIP3    H135105   0.934   6.716   2.354  0.2768 -0.1396  0.0465
 4490TIP3    H235106   1.084   6.703   2.362  0.2445 -1.3505 -1.0864
 4491TIP3   OH235107   1.833   6.317   7.999 -0.0466  0.0407  0.4260
 4491TIP3    H135108   1.907   6.290   8.054  0.0267  2.2555  1.5312
 4491TIP3    H235109   1.851   6.409   7.979 -2.2472  0.4801  0.2725
 4492TIP3   OH235110   1.395   6.862   0.507  0.0916  0.0405  0.0699
 4492TIP3    H135111   1.467   6.922   0.489  0.1288 -0.6083 -2.3326
 4492TIP3    H235112   1.329   6.884   0.442 -1.3853 -0.2222  1.4103
 4493TIP3   OH235113   2.745   5.111   7.504  0.9741  0.0685  0.1572
 4493TIP3    H135114   2.689   5.121   7.427  0.4547 -1.3736  0.3322
 4493TIP3    H235115   2.698   5.157   7.574  0.3333 -0.5403  0.1386
 4494TIP3   OH235116   4.601   2.091   1.367 -0.1557 -0.7079  0.2053
 4494TIP3    H135117   4.607   2.032   1.443  1.7971 -4.6490 -2.6407
 4494TIP3    H235118   4.509   2.085   1.341 -0.4175 -0.9093  1.1069
 4495TIP3   OH235119   2.681   0.646   7.738 -0.3784  0.2492  0.4205
 4495TIP3    H135120   2.651   0.568   7.784 -1.6317  0.2859 -0.2895
 4495TIP3    H235121   2.612   0.711   7.752 -0.6143  0.3730 -1.1677
 4496TIP3   OH235122   3.106   2.019   0.247 -0.2248 -0.4427 -0.3044
 4496TIP3    H135123   3.122   2.104   0.206 -0.1647  0.9131  2.2857
 4496TIP3    H235124   3.171   2.013   0.316 -0.8701 -2.1574  0.2196
 4497TIP3   OH235125   4.029   4.998   0.203 -0.3021  0.2339 -0.4425
 4497TIP3    H135126   4.022   5.046   0.120  2.1221 -1.3135 -1.6496
 4497TIP3    H235127   4.052   4.909   0.178  5.3486  0.6354  1.7916
 4498TIP3   OH235128   5.838   2.480   1.774 -0.7040  0.0930 -0.5036
 4498TIP3    H135129   5.779   2.555   1.782 -1.6616 -0.5177 -1.5532
 4498TIP3    H235130   5.879   2.491   1.689 -0.8140 -0.5495 -0.6431
 4499TIP3   OH235131   2.746   2.864   1.725  0.1740  0.0376  0.1641
 4499TIP3    H135132   2.780   2.821   1.646 -0.7036 -1.0330  0.3362
 4499TIP3    H235133   2.794   2.946   1.730  1.3539 -0.5671 -0.6301
 4500TIP3   OH235134   6.860   4.973   7.771 -0.0505 -0.1137  0.0344
 4500TIP3    H135135   6.946   5.008   7.746 -0.4182  0.3245 -0.6529
 4500TIP3    H235136   6.856   4.985   7.866 -0.5084  2.5761 -0.2451
 4501TIP3   OH235137   2.322   2.466   0.207  0.2170  0.6788 -0.2438
 4501TIP3    H135138   2.341   2.420   0.289 -1.6330 -0.4281 -0.3858
 4501TIP3    H235139   2.295   2.553   0.235  0.0188  0.4500  0.2941
 4502TIP3   OH235140   0.421   5.842   1.276 -0.1890  0.5343  0.3819
 4502TIP3    H135141   0.501   5.814   1.321 -1.8296 -0.1475  3.0359
 4502TIP3    H235142   0.416   5.936   1.295  0.7712  0.9517 -1.2030
 4503TIP3   OH235143   4.824   1.635   1.124  0.3161 -0.3856 -0.2276
 4503TIP3    H135144   4.777   1.552   1.119  1.7983 -1.3658  0.8964
 4503TIP3    H235145   4.817   1.661   1.216  1.8854 -0.5665 -0.0193
 4504TIP3   OH235146   4.116   2.898   7.487 -0.1581 -0.2820 -0.1587
 4504TIP3    H135147   4.143   2.989   7.480 -0.1091 -0.3847 -1.6172
 4504TIP3    H235148   4.066   2.881   7.407 -2.2422 -0.8824  1.1894
 4505TIP3   OH235149   4.288   5.225   0.124 -0.4589 -0.2901  0.5853
 4505TIP3    H135150   4.329   5.262   0.202  2.6220  1.4073 -1.5885
 4505TIP3    H235151   4.228   5.292   0.093  2.0993  1.4208 -1.1046
 4506TIP3   OH235152   4.789   5.464   0.126  0.3796 -0.2812  0.3656
 4506TIP3    H135153   4.790   5.556   0.152 -1.7851 -0.5111  1.5257
 4506TIP3    H235154   4.701   5.450   0.090  0.8880 -1.7635 -0.4125
 4507TIP3   OH235155   4.558   2.658   1.406  1.0461 -0.3876  1.3174
 4507TIP3    H135156   4.513   2.725   1.354  1.8618 -0.4180  0.5511
 4507TIP3    H235157   4.493   2.631   1.471  0.2495  0.1844  0.7856
 4508TIP3   OH235158   4.221   5.440   8.156  0.5786 -0.1006  0.1752
 4508TIP3    H135159   4.194   5.351   8.135 -0.6354  0.6282 -1.5780
 4508TIP3    H235160   4.302   5.454   8.106 -0.2446  0.3695 -1.0628
 4509TIP3   OH235161   0.574   5.730   0.407 -0.1070  0.3178 -0.4273
 4509TIP3    H135162   0.621   5.659   0.363  1.0222  0.6328  0.2137
 4509TIP3    H235163   0.593   5.807   0.353  1.1441  0.6728  0.4739
 4510TIP3   OH235164   3.604   6.729   8.719  0.1993 -0.3066  0.2519
 4510TIP3    H135165   3.541   6.717   8.790 -1.6686  1.1724 -1.0654
 4510TIP3    H235166   3.653   6.647   8.717 -1.8831 -1.6644  1.1506
 4511TIP3   OH235167   1.910   0.673   2.273  0.7114  0.5687  0.1317
 4511TIP3    H135168   1.932   0.702   2.184  1.3177 -0.1710  0.0335
 4511TIP3    H235169   1.902   0.755   2.323  1.2214  0.9597 -0.4079
 4512TIP3   OH235170   3.694   4.688   8.461  0.3563  0.1791  0.2440
 4512TIP3    H135171   3.753   4.640   8.518 -0.7599  0.2897  1.5519
 4512TIP3    H235172   3.725   4.778   8.464  1.0986 -0.0512 -0.4005
 4513TIP3   OH235173   4.443   3.773   1.728  0.0999  1.0207 -0.2509
 4513TIP3    H135174   4.369   3.830   1.749 -0.4522  0.4302 -0.5783
 4513TIP3    H235175   4.406   3.705   1.672  0.6267 -0.0039  0.6122
 4514TIP3   OH235176   3.392   0.742   8.095  0.2258 -0.1980 -0.3890
 4514TIP3    H135177   3.338   0.764   8.019 -0.2787 -0.5272 -0.1324
 4514TIP3    H235178   3.374   0.649   8.110  2.0713 -0.7476 -1.2760
 4515TIP3   OH235179   6.072   5.898   8.064  0.2711 -0.2426 -0.1872
 4515TIP3    H135180   6.156   5.877   8.022 -0.0603 -1.1526 -0.4216
 4515TIP3    H235181   6.006   5.867   8.002 -0.2989  2.4464 -1.0348
 4516TIP3   OH235182   6.861   4.884   2.306  0.3867 -0.4678 -0.0600
 4516TIP3    H135183   6.834   4.793   2.317  2.3487 -1.5442 -3.0985
 4516TIP3    H235184   6.954   4.884   2.332  0.3774  0.7275  0.0155
 4517TIP3   OH235185   5.153   4.716   2.677  0.2439 -0.0125 -0.2314
 4517TIP3    H135186   5.196   4.631   2.689  0.6273  0.2344  0.1653
 4517TIP3    H235187   5.128   4.743   2.765  2.3333  1.4359 -0.0137
 4518TIP3   OH235188   0.368   1.846   8.270  0.2805  0.2248 -0.2888
 4518TIP3    H135189   0.341   1.759   8.238 -0.1952  0.3582 -0.2618
 4518TIP3    H235190   0.442   1.870   8.214 -0.2132  0.2310 -0.9510
 4519TIP3   OH235191   6.863   5.574   1.490 -0.3112  0.1534 -0.2046
 4519TIP3    H135192   6.811   5.641   1.534 -0.1048  1.3411 -1.6577
 4519TIP3    H235193   6.849   5.591   1.396  0.0720 -1.5959 -0.6219
 4520TIP3   OH235194   4.318   1.177   7.499 -0.0615  0.1211 -0.0582
 4520TIP3    H135195   4.228   1.207   7.508  0.0763  0.7674 -0.7370
 4520TIP3    H235196   4.340   1.192   7.407  0.3009 -1.3001 -0.2218
 4521TIP3   OH235197   5.159   3.460   8.092  0.2313  0.2451  0.2183
 4521TIP3    H135198   5.122   3.462   8.004 -2.0371 -0.7657  1.0688
 4521TIP3    H235199   5.208   3.379   8.096  1.1778  0.7699 -0.3925
 4522TIP3   OH235200   6.360   1.238   2.341 -0.1542  0.4185  0.7980
 4522TIP3    H135201   6.301   1.226   2.266  1.4937 -1.0690 -0.3663
 4522TIP3    H235202   6.353   1.331   2.362 -0.3806  1.0061 -1.5112
 4523TIP3   OH235203   0.520   5.086   0.454  0.3173  0.6203  0.0176
 4523TIP3    H135204   0.474   5.006   0.430 -0.4263  0.4096  1.9184
 4523TIP3    H235205   0.580   5.059   0.523  0.9970  1.4719 -0.2189
 4524TIP3   OH235206   2.028   4.516   7.467  0.2584  0.1413  0.3542
 4524TIP3    H135207   2.000   4.574   7.537  2.1336 -1.8681  2.9976
 4524TIP3    H235208   1.948   4.471   7.439 -0.5177  0.8943  1.3050
 4525TIP3   OH235209   0.312   0.061   1.016  0.1558 -0.2697 -0.5344
 4525TIP3    H135210   0.307   0.000   0.942  1.4132  0.8532 -1.6030
 4525TIP3    H235211   0.226   0.057   1.056 -0.1088 -1.9807 -1.1803
 4526TIP3   OH235212   2.660   5.753   0.224  0.3448 -0.4857 -0.2730
 4526TIP3    H135213   2.596   5.718   0.287 -1.0858 -0.8393 -1.8549
 4526TIP3    H235214   2.742   5.754   0.273 -0.0926 -3.4039  0.7846
 4527TIP3   OH235215   3.671   1.408   1.111 -0.4627  0.0528 -0.2949
 4527TIP3    H135216   3.760   1.438   1.132  0.4054 -1.3169 -1.7551
 4527TIP3    H235217   3.617   1.487   1.116  1.1704  1.2895 -1.0918
 4528TIP3   OH235218   4.927   3.265   0.469  0.1422  0.2957 -0.5335
 4528TIP3    H135219   4.971   3.198   0.521 -1.3392 -0.5986 -0.3578
 4528TIP3    H235220   4.894   3.218   0.392 -1.4330  0.6571 -0.1240
 4529TIP3   OH235221   3.129   2.074   2.152 -0.5862  0.0558  0.7616
 4529TIP3    H135222   3.175   2.029   2.081 -1.4418  0.6274 -0.1890
 4529TIP3    H235223   3.151   2.025   2.230  1.1909 -0.0150  0.2576
 4530TIP3   OH235224   4.909   4.883   1.024  0.0450 -0.6135 -0.1901
 4530TIP3    H135225   4.845   4.929   0.968  0.1580  0.2635  0.3778
 4530TIP3    H235226   4.874   4.893   1.113  0.8460 -0.3340  0.0980
 4531TIP3   OH235227   5.611   3.846   8.441  0.1702 -0.1208 -0.3221
 4531TIP3    H135228   5.531   3.898   8.452 -0.7593 -1.5360 -0.0659
 4531TIP3    H235229   5.581   3.765   8.399  1.5651 -0.4526 -0.7170
 4532TIP3   OH235230   0.745   6.339   2.234 -0.1829 -0.0029  0.0467
 4532TIP3    H135231   0.765   6.271   2.298  0.6187 -0.7511 -0.9695
 4532TIP3    H235232   0.714   6.413   2.286 -0.3480 -0.8801  1.2272
 4533TIP3   OH235233   3.797   3.309   7.974  0.7289 -0.0268 -0.1895
 4533TIP3    H135234   3.715   3.292   7.928  0.5114  0.7561 -0.0997
 4533TIP3    H235235   3.773   3.369   8.044  1.0230 -1.3173  1.0633
 4534TIP3   OH235236   6.775   3.050   8.339 -0.3984  0.6343  0.2222
 4534TIP3    H135237   6.723   2.974   8.367  1.6613 -1.3116 -0.8578
 4534TIP3    H235238   6.838   3.062   8.411 -0.9071  1.5705  0.5288
 4535TIP3   OH235239   3.291   5.128   0.855 -0.4155  0.0332  0.5748
 4535TIP3    H135240   3.313   5.047   0.902  1.2133 -0.0126 -0.1865
 4535TIP3    H235241   3.376   5.169   0.838 -1.1580  1.3840  0.0378
 4536TIP3   OH235242   0.224   6.290   0.723 -0.8054 -0.0576 -0.0555
 4536TIP3    H135243   0.259   6.201   0.724  1.4800  0.7712 -0.6164
 4536TIP3    H235244   0.221   6.312   0.630 -1.5835  0.3853  0.0695
 4537TIP3   OH235245   3.925   6.839   7.637 -0.3727 -0.4646 -0.4399
 4537TIP3    H135246   3.957   6.758   7.598  0.0550 -0.3147 -0.4083
 4537TIP3    H235247   3.830   6.835   7.628 -0.3174 -0.7404 -0.8876
 4538TIP3   OH235248   6.767   6.183   0.971 -0.5106 -0.0792  0.0917
 4538TIP3    H135249   6.742   6.275   0.960 -0.3757 -0.1734 -1.0791
 4538TIP3    H235250   6.853   6.186   1.013  0.4192  0.3970 -1.7565
 4539TIP3   OH235251   1.039   4.734   7.457 -0.5017  0.1395 -0.5202
 4539TIP3    H135252   1.017   4.699   7.370 -1.6214  1.8309 -0.9570
 4539TIP3    H235253   1.053   4.656   7.511 -1.9290 -0.9871 -1.6828
 4540TIP3   OH235254   5.279   4.351   0.745 -0.4687  0.6185 -0.6839
 4540TIP3    H135255   5.217   4.394   0.686 -1.4364  0.1303 -0.0472
 4540TIP3    H235256   5.239   4.266   0.765  0.7299  0.0063 -0.7848
 4541TIP3   OH235257   5.956   2.074   8.266  0.0638 -0.2279  0.1415
 4541TIP3    H135258   6.046   2.059   8.235 -0.8718 -1.2723 -2.3425
 4541TIP3    H235259   5.950   2.169   8.277  1.1594 -0.0405 -0.7116
 4542TIP3   OH235260   1.453   3.442   6.844  0.0942  0.1427 -0.4175
 4542TIP3    H135261   1.460   3.519   6.786 -0.8983 -0.4330 -1.3285
 4542TIP3    H235262   1.463   3.478   6.932  0.0938  1.2607 -0.8542
 4543TIP3   OH235263   0.868   6.017   6.860  0.7250  0.2375 -0.6436
 4543TIP3    H135264   0.961   6.033   6.844  1.2392 -1.9363 -0.1801
 4543TIP3    H235265   0.866   5.961   6.938 -0.9425 -0.0832 -0.8782
 4544TIP3   OH235266   6.141   3.342   2.788  0.6594  0.5985 -0.0093
 4544TIP3    H135267   6.176   3.296   2.864 -1.2249  0.7933  1.0350
 4544TIP3    H235268   6.124   3.431   2.820 -1.3865  0.3243 -0.2364
 4545TIP3   OH235269   5.162   2.663   8.545 -0.3610  0.0453  0.4461
 4545TIP3    H135270   5.195   2.580   8.509 -1.8323  0.2986 -1.5863
 4545TIP3    H235271   5.103   2.636   8.616  0.6296 -0.5326  1.0928
 4546TIP3   OH235272   0.534   6.859   0.731  0.3252  0.8615 -0.1162
 4546TIP3    H135273   0.507   6.950   0.745 -1.5368  0.4560 -0.8387
 4546TIP3    H235274   0.458   6.807   0.755  1.3066 -0.5257  0.1355
 4547TIP3   OH235275   1.544   1.982   1.135 -0.5264  0.0891  0.2532
 4547TIP3    H135276   1.528   1.894   1.171 -1.0347  0.4240  0.8798
 4547TIP3    H235277   1.556   2.037   1.212 -0.5774  0.6380 -0.1257
 4548TIP3   OH235278   2.419   5.758   7.915 -0.1410  0.2664 -0.1276
 4548TIP3    H135279   2.431   5.801   7.831 -0.6442 -1.0931 -0.9362
 4548TIP3    H235280   2.499   5.778   7.964  0.2538  0.8979 -1.0081
 4549TIP3   OH235281   0.207   5.131   1.433 -0.5235  0.2624 -0.3400
 4549TIP3    H135282   0.120   5.134   1.473 -1.5981 -0.6986 -2.4215
 4549TIP3    H235283   0.196   5.174   1.348  1.2231  0.7240 -0.3726
 4550TIP3   OH235284   0.302   0.623   0.061  0.6685  0.1015  0.2933
 4550TIP3    H135285   0.343   0.656  -0.019  0.8247  0.2170  0.4184
 4550TIP3    H235286   0.230   0.569   0.031 -0.5402  1.7469  0.0927
 4551TIP3   OH235287   0.687   0.076   2.047  0.1480  0.0675  0.5013
 4551TIP3    H135288   0.754   0.049   2.110  0.0487 -0.3611  0.4262
 4551TIP3    H235289   0.674   0.169   2.065 -0.5115 -0.2325  1.7085
 4552TIP3   OH235290   2.149   3.660   2.355 -0.2411  0.7655 -0.0338
 4552TIP3    H135291   2.119   3.723   2.290 -1.3599 -0.6176 -0.9253
 4552TIP3    H235292   2.069   3.628   2.396  0.2132 -0.7465 -0.2677
 4553TIP3   OH235293   6.210   6.129   1.030  0.1015 -0.2658  0.7094
 4553TIP3    H135294   6.294   6.174   1.027  0.7080 -1.3853 -1.4366
 4553TIP3    H235295   6.162   6.164   0.955 -0.2547 -1.5705  0.2984
 4554TIP3   OH235296   6.206   6.405   2.502 -0.2803 -0.5526  0.3730
 4554TIP3    H135297   6.280   6.353   2.469 -0.6392 -1.0288  0.3095
 4554TIP3    H235298   6.185   6.367   2.587 -0.5087 -0.4775  0.3521
 4555TIP3   OH235299   4.749   1.624   8.140 -0.2756 -0.1697  0.0799
 4555TIP3    H135300   4.820   1.618   8.203  0.3002  2.7016 -0.1322
 4555TIP3    H235301   4.792   1.626   8.054 -0.6979  0.1337 -0.1350
 4556TIP3   OH235302   1.553   1.476   8.293  0.4845  0.1412 -0.4735
 4556TIP3    H135303   1.479   1.430   8.334  0.2313  1.3517  0.4709
 4556TIP3    H235304   1.584   1.536   8.361  2.0481 -0.0075 -1.0194
 4557TIP3   OH235305   6.848   0.924   7.936 -0.0780  0.8282 -0.0889
 4557TIP3    H135306   6.857   1.019   7.929 -0.2629  0.7694 -1.4329
 4557TIP3    H235307   6.759   0.907   7.904 -0.3218  0.2618  0.8627
 4558TIP3   OH235308   5.150   5.339   2.201  0.1471  0.1227  0.4747
 4558TIP3    H135309   5.231   5.298   2.233 -0.1475 -0.1620  0.8705
 4558TIP3    H235310   5.124   5.285   2.126 -0.2561 -0.4441  1.0128
 4559TIP3   OH235311   1.749   2.097   1.682 -0.3866 -0.0796 -0.1506
 4559TIP3    H135312   1.682   2.093   1.615 -0.0699  0.6329 -0.5255
 4559TIP3    H235313   1.802   2.019   1.669 -1.8210 -1.2687  0.8986
 4560TIP3   OH235314   2.371   5.222   0.081  0.0030  0.5356 -0.7382
 4560TIP3    H135315   2.405   5.254   0.165  1.8752 -0.0949 -1.2088
 4560TIP3    H235316   2.279   5.246   0.082  0.3804  2.1432  0.7367
 4561TIP3   OH235317   4.379   2.917   0.543 -0.3084 -0.3381 -0.3299
 4561TIP3    H135318   4.339   2.870   0.470  1.5932 -1.7847 -0.5343
 4561TIP3    H235319   4.460   2.869   0.560  1.3682  2.4046  0.0088
 4562TIP3   OH235320   3.028   3.263   0.419  0.3240 -0.0113  0.1036
 4562TIP3    H135321   3.040   3.341   0.474 -0.1680 -0.5798  1.0483
 4562TIP3    H235322   2.992   3.297   0.337 -0.9331  0.6612  0.8947
 4563TIP3   OH235323   3.154   5.770   2.588  0.0789  0.0240 -0.4047
 4563TIP3    H135324   3.110   5.754   2.672  1.9684  0.7655  0.8000
 4563TIP3    H235325   3.095   5.830   2.542  0.0688  1.5076  1.4239
 4564TIP3   OH235326   2.625   5.301   8.501  0.3049 -0.0892 -1.0553
 4564TIP3    H135327   2.703   5.310   8.445  0.9630  2.0427  0.0990
 4564TIP3    H235328   2.591   5.390   8.509 -1.1014 -0.6904  0.1087
 4565TIP3   OH235329   3.879   4.438   0.748 -0.0942 -0.7897  0.2683
 4565TIP3    H135330   3.906   4.368   0.689  0.2233 -0.5636  0.1469
 4565TIP3    H235331   3.870   4.395   0.834  0.0779 -0.9813  0.1893
 4566TIP3   OH235332   0.133   1.502   1.525 -0.6229 -0.7848  0.2661
 4566TIP3    H135333   0.206   1.563   1.526  0.0013 -1.5249  0.5390
 4566TIP3    H235334   0.055   1.558   1.517 -0.2488  0.2324  2.9490
 4567TIP3   OH235335   5.408   5.158   0.618 -0.3990  0.1697  0.7405
 4567TIP3    H135336   5.500   5.178   0.602 -0.5065  0.9452  1.0360
 4567TIP3    H235337   5.367   5.243   0.630 -1.3786 -0.0976 -0.5268
 4568TIP3   OH235338   3.215   5.479   1.511  0.5756 -0.0452 -0.0021
 4568TIP3    H135339   3.219   5.439   1.424  0.5752 -0.4200  0.1690
 4568TIP3    H235340   3.225   5.572   1.494 -1.4867  0.1308 -0.6155
 4569TIP3   OH235341   1.695   5.902   7.967 -0.5516 -0.2122  0.3903
 4569TIP3    H135342   1.697   5.976   7.905  1.7723 -0.4303  0.1189
 4569TIP3    H235343   1.758   5.926   8.035 -2.1148 -0.5688  2.0349
 4570TIP3   OH235344   1.611   5.381   0.903 -0.0853 -0.2058  0.3671
 4570TIP3    H135345   1.593   5.424   0.819  1.5721 -0.2039 -0.0033
 4570TIP3    H235346   1.558   5.302   0.901  0.3569 -0.4857 -0.9224
 4571TIP3   OH235347   2.279   3.682   8.319  0.2579 -0.1819  0.4079
 4571TIP3    H135348   2.277   3.668   8.414  0.6480  1.5036  0.7046
 4571TIP3    H235349   2.368   3.658   8.293  0.6097  0.7400  0.7312
 4572TIP3   OH235350   1.000   4.501   1.545 -0.7123 -0.2076 -0.5737
 4572TIP3    H135351   1.052   4.434   1.589  0.8375  0.8713 -0.6598
 4572TIP3    H235352   1.011   4.481   1.452 -0.9369 -0.3255 -0.5744
 4573TIP3   OH235353   0.738   6.624   1.690 -0.1913 -0.4526  0.1640
 4573TIP3    H135354   0.778   6.538   1.701 -3.1017 -1.8391  0.7627
 4573TIP3    H235355   0.733   6.637   1.595  0.2012 -0.9591  0.0714
 4574TIP3   OH235356   0.331   1.221   2.353  0.4920 -0.6251  0.2713
 4574TIP3    H135357   0.326   1.218   2.448  1.4338  0.7326  0.3916
 4574TIP3    H235358   0.337   1.314   2.332  1.7758 -0.9552 -1.0168
 4575TIP3   OH235359   5.937   4.670   0.667  0.7372 -0.0654 -0.2245
 4575TIP3    H135360   5.922   4.578   0.643 -0.3639 -0.3191  1.2629
 4575TIP3    H235361   5.906   4.720   0.591  0.5049 -0.8987 -0.6899
 4576TIP3   OH235362   2.442   3.122   3.148 -0.0426  0.2960 -0.2417
 4576TIP3    H135363   2.483   3.196   3.103 -0.8042  0.7934 -0.1467
 4576TIP3    H235364   2.389   3.079   3.081 -1.9492  1.6093  0.3431
 4577TIP3   OH235365   2.763   0.814   7.260  0.9353  0.4475 -0.0175
 4577TIP3    H135366   2.855   0.808   7.286  0.5543  0.0199  1.3229
 4577TIP3    H235367   2.735   0.723   7.252  0.2969  0.5446  0.9043
 4578TIP3   OH235368   5.119   4.028   2.048 -0.2258  0.0657 -0.4429
 4578TIP3    H135369   5.106   3.966   2.120 -2.3521  0.6403 -0.2745
 4578TIP3    H235370   5.141   3.973   1.973 -0.3743 -0.7416  0.0927
 4579TIP3   OH235371   2.831   3.736   0.689 -0.2474  0.3465  0.3169
 4579TIP3    H135372   2.796   3.647   0.693 -3.1253  1.1538 -2.6181
 4579TIP3    H235373   2.901   3.732   0.624 -0.0426  0.1407  0.5498
 4580TIP3   OH235374   0.752   0.393   0.810 -0.0896 -0.4531  0.3796
 4580TIP3    H135375   0.794   0.475   0.785  0.1064 -0.7652 -0.3192
 4580TIP3    H235376   0.811   0.354   0.874 -1.1198  0.8704  2.2445
 4581TIP3   OH235377   2.749   2.731   2.298  0.4064 -0.4356  0.0530
 4581TIP3    H135378   2.720   2.770   2.380  0.3401 -1.3195  0.4596
 4581TIP3    H235379   2.822   2.786   2.269 -0.9477  1.1900 -0.4317
 4582TIP3   OH235380   0.791   0.858   0.664  0.2440 -0.0254 -0.2601
 4582TIP3    H135381   0.709   0.827   0.703 -0.1989 -0.5134 -1.5218
 4582TIP3    H235382   0.844   0.887   0.738 -0.2630 -1.6129  0.7587
 4583TIP3   OH235383   4.193   5.843   0.382 -0.2182  0.3566 -0.2543
 4583TIP3    H135384   4.177   5.832   0.288  1.7973  1.5478 -0.7937
 4583TIP3    H235385   4.216   5.935   0.391  2.6152 -0.3655  0.8933
 4584TIP3   OH235386   1.968   6.079   0.914  0.4868 -0.2340 -0.3404
 4584TIP3    H135387   2.043   6.137   0.901  0.5789  0.2203  1.8166
 4584TIP3    H235388   1.892   6.135   0.898  0.5895  0.2857  0.8781
 4585TIP3   OH235389   4.226   2.927   7.794  0.0185  0.4184 -0.2142
 4585TIP3    H135390   4.156   2.870   7.825 -0.2731  0.7583 -0.2436
 4585TIP3    H235391   4.181   2.997   7.746  0.4765 -0.3244 -1.8048
 4586TIP3   OH235392   5.995   5.859   0.953  0.1713  0.0373 -0.0878
 4586TIP3    H135393   5.913   5.905   0.938  0.0581  0.3263  1.2817
 4586TIP3    H235394   6.029   5.896   1.035  1.6627 -0.0801 -0.6233
 4587TIP3   OH235395   0.159   1.595   0.705 -0.7363  0.0362  0.7049
 4587TIP3    H135396   0.158   1.660   0.776 -0.0843  1.4837 -0.5482
 4587TIP3    H235397   0.240   1.545   0.719  0.7903  2.0321 -0.4109
 4588TIP3   OH235398   6.217   5.906   0.060 -0.3827  0.1697  0.2704
 4588TIP3    H135399   6.295   5.859   0.029 -0.3023  0.3757  0.1607
 4588TIP3    H235400   6.144   5.850   0.034 -0.2404 -0.3197  0.8982
 4589TIP3   OH235401   1.775   5.605   8.566 -0.2202 -0.5142  0.6788
 4589TIP3    H135402   1.747   5.524   8.608 -1.9271 -0.9348 -1.1445
 4589TIP3    H235403   1.699   5.662   8.570  1.2013  1.4119  2.6698
 4590TIP3   OH235404   2.668   2.879   2.536 -0.3090 -0.1512  0.2649
 4590TIP3    H135405   2.604   2.825   2.583  0.0419  1.2141  2.4905
 4590TIP3    H235406   2.664   2.964   2.580  1.4077  0.6612 -1.0397
 4591TIP3   OH235407   5.822   5.073   1.280 -0.2210  0.0147  0.5068
 4591TIP3    H135408   5.832   5.097   1.188 -0.8501  1.4758  0.7985
 4591TIP3    H235409   5.900   5.020   1.299  0.9844  1.4119 -0.3185
 4592TIP3   OH235410   5.719   3.854   1.282 -0.3643 -0.2286 -1.0900
 4592TIP3    H135411   5.813   3.853   1.304 -0.6377  2.0775  0.5695
 4592TIP3    H235412   5.684   3.777   1.326  0.6810 -0.8657 -1.3414
 4593TIP3   OH235413   4.174   0.678   7.937 -0.0858 -0.0447 -0.3288
 4593TIP3    H135414   4.212   0.731   8.007  0.0876 -0.4287 -0.1293
 4593TIP3    H235415   4.210   0.590   7.951  0.1345 -0.0752 -1.0381
 4594TIP3   OH235416   6.325   0.757   7.758 -0.2361 -0.6139 -0.3459
 4594TIP3    H135417   6.329   0.763   7.662  1.5259  1.5008 -0.2124
 4594TIP3    H235418   6.234   0.735   7.777 -1.5024  2.2205 -2.4115
 4595TIP3   OH235419   4.809   1.503   0.617  0.0879  0.1108  0.5830
 4595TIP3    H135420   4.731   1.558   0.610 -0.4963 -0.6886  0.6558
 4595TIP3    H235421   4.832   1.506   0.710 -1.4731 -1.7807  1.1009
 4596TIP3   OH235422   6.307   4.293   0.785 -0.1427 -0.2538 -0.0543
 4596TIP3    H135423   6.316   4.239   0.707 -0.1072 -0.3543  0.0193
 4596TIP3    H235424   6.226   4.262   0.826  0.5566 -1.1406  0.6791
 4597TIP3   OH235425   2.492   2.128   0.572 -0.5687  0.2206  0.2546
 4597TIP3    H135426   2.434   2.198   0.543 -0.1329  0.5935  0.2819
 4597TIP3    H235427   2.522   2.086   0.491  1.4419  1.8923  0.0515
 4598TIP3   OH235428   1.471   6.554   0.073  0.6595  1.2806 -0.6095
 4598TIP3    H135429   1.477   6.555  -0.022  0.6003  1.2563 -0.6129
 4598TIP3    H235430   1.438   6.641   0.096 -1.1902  0.6711 -0.7331
 4599TIP3   OH235431   2.341   0.741   1.849  0.1112  0.1408 -0.5641
 4599TIP3    H135432   2.266   0.722   1.906  1.1485 -0.6483  0.5923
 4599TIP3    H235433   2.335   0.835   1.833 -1.4221  0.0025 -0.9562
 4600TIP3   OH235434   0.240   0.441   0.646 -0.3761 -0.1051  0.0247
 4600TIP3    H135435   0.225   0.392   0.564 -0.1438  1.7960 -1.2139
 4600TIP3    H235436   0.181   0.401   0.709  0.8424 -2.9606 -0.4693
 4601TIP3   OH235437   2.596   1.569   0.852  0.4307 -0.0303  0.1222
 4601TIP3    H135438   2.655   1.645   0.860 -0.1171  0.4281 -0.1054
 4601TIP3    H235439   2.652   1.494   0.870  0.8746  0.4593  0.8576
 4602TIP3   OH235440   4.752   3.125   8.166 -0.4002  0.3150  0.3323
 4602TIP3    H135441   4.674   3.155   8.120 -0.6542  0.5699  0.9244
 4602TIP3    H235442   4.819   3.190   8.144 -1.0827  1.6719  2.0256
 4603TIP3   OH235443   1.485   1.827   1.498 -0.1073 -0.2079 -0.3709
 4603TIP3    H135444   1.407   1.839   1.443 -2.2487 -2.0266  2.0274
 4603TIP3    H235445   1.460   1.759   1.561  3.2959 -0.5138  0.8478
 4604TIP3   OH235446   3.088   0.505   8.735 -1.1184  0.2817  0.1457
 4604TIP3    H135447   3.102   0.412   8.719 -1.0660  0.2312  0.4655
 4604TIP3    H235448   3.073   0.543   8.649  1.3058  0.4080 -0.2795
 4605TIP3   OH235449   5.372   3.810   2.604 -0.3030  0.3828  0.2864
 4605TIP3    H135450   5.425   3.872   2.654 -2.5527  1.6541  1.2313
 4605TIP3    H235451   5.359   3.736   2.662 -0.2638  0.4461  0.3758
 4606TIP3   OH235452   3.121   2.993   7.183  0.5828 -0.1072 -0.3004
 4606TIP3    H135453   3.033   2.956   7.180  0.3467  0.1130  2.2127
 4606TIP3    H235454   3.174   2.930   7.134 -0.4866 -1.7446  0.5383
 4607TIP3   OH235455   6.165   2.363   8.556  0.0803  0.3595 -0.1155
 4607TIP3    H135456   6.070   2.376   8.550  0.3078  1.7280 -1.3373
 4607TIP3    H235457   6.176   2.268   8.564 -1.3703  0.1518 -0.2939
 4608TIP3   OH235458   6.234   5.265   0.524  0.0497  0.0475  0.0326
 4608TIP3    H135459   6.271   5.319   0.594  0.6907  0.1897 -0.4090
 4608TIP3    H235460   6.278   5.294   0.445 -0.0385 -0.7108 -0.3053
 4609TIP3   OH235461   1.767   6.131   7.788 -0.7911  0.2489  0.1672
 4609TIP3    H135462   1.813   6.192   7.846  0.6342 -1.1705  0.6214
 4609TIP3    H235463   1.799   6.152   7.701  2.2017 -1.7972  0.6328
 4610TIP3   OH235464   3.881   5.038   2.720 -0.3408 -0.3757 -0.3497
 4610TIP3    H135465   3.806   5.097   2.712  0.2478  0.3717 -0.4782
 4610TIP3    H235466   3.891   5.023   2.814 -0.5620 -0.3569 -0.3242
 4611TIP3   OH235467   5.605   0.469   7.603  0.0599  0.1140  0.2675
 4611TIP3    H135468   5.599   0.378   7.631  0.8225  0.2374  0.8787
 4611TIP3    H235469   5.564   0.518   7.674  0.2860  0.2935  0.2745
 4612TIP3   OH235470   6.258   0.051   7.901  0.3462 -0.0831 -0.2811
 4612TIP3    H135471   6.281   0.123   7.959  2.0375  1.7964 -3.0365
 4612TIP3    H235472   6.311  -0.023   7.932  1.5117  0.9659  0.3298
 4613TIP3   OH235473   0.577   0.305   2.145 -0.0213  0.5182  0.0278
 4613TIP3    H135474   0.647   0.325   2.208 -0.0407 -1.7098  0.8449
 4613TIP3    H235475   0.502   0.284   2.200 -0.4373 -0.1153 -0.7729
 4614TIP3   OH235476   4.993   6.373   1.569  0.2276 -0.4807 -0.2689
 4614TIP3    H135477   4.960   6.430   1.499  0.0610  0.9596  0.9410
 4614TIP3    H235478   4.964   6.414   1.650 -1.1780 -3.1010  0.6643
 4615TIP3   OH235479   4.380   2.613   1.134 -0.1090  0.1777  0.4100
 4615TIP3    H135480   4.404   2.699   1.166  1.1844 -0.6123  1.6734
 4615TIP3    H235481   4.437   2.599   1.058  1.3046 -0.4416  1.5514
 4616TIP3   OH235482   3.268   0.499   7.896 -0.4034 -0.1270 -0.0002
 4616TIP3    H135483   3.302   0.481   7.984  3.2329  1.7293 -0.8441
 4616TIP3    H235484   3.270   0.415   7.851  0.6657 -0.5636  0.8150
 4617TIP3   OH235485   2.578   1.479   1.544  0.2355  0.0862 -0.1711
 4617TIP3    H135486   2.662   1.433   1.546 -0.7206 -1.7238 -0.0940
 4617TIP3    H235487   2.583   1.534   1.466  1.0537 -0.9058 -0.8378
 4618TIP3   OH235488   5.942   0.641   8.198 -0.4642  1.0795 -0.1183
 4618TIP3    H135489   5.970   0.568   8.253 -0.5821  0.6305 -0.6350
 4618TIP3    H235490   6.014   0.704   8.202  0.4439  0.1471 -1.0640
 4619TIP3   OH235491   3.980   4.745   0.798  0.1214  0.1428  0.8436
 4619TIP3    H135492   3.908   4.791   0.842 -0.6622 -0.1078 -0.1434
 4619TIP3    H235493   3.942   4.663   0.769  1.1179 -0.4854  1.2669
 4620TIP3   OH235494   1.638   6.204   7.327 -0.0967 -0.2970  0.8210
 4620TIP3    H135495   1.713   6.259   7.306  0.1215  0.3025  2.9475
 4620TIP3    H235496   1.569   6.265   7.352 -0.2435 -0.9358  2.0301
 4621TIP3   OH235497   0.597   2.841   1.964  0.3666  0.3191  0.0385
 4621TIP3    H135498   0.502   2.829   1.960  0.2702  0.9337  0.2768
 4621TIP3    H235499   0.634   2.757   1.938 -0.2380 -0.5061  1.7314
 4622TIP3   OH235500   0.270   5.076   2.609  0.0899 -0.2990 -0.0896
 4622TIP3    H135501   0.341   5.140   2.604 -0.6333  0.5101 -0.2460
 4622TIP3    H235502   0.279   5.038   2.697 -0.0018  0.6500  0.3426
 4623TIP3   OH235503   3.642   6.828   1.250 -0.0846  0.2481  0.0411
 4623TIP3    H135504   3.602   6.911   1.224 -3.9760 -1.5355 -0.4743
 4623TIP3    H235505   3.615   6.766   1.182  4.0662 -1.2851 -0.5145
 4624TIP3   OH235506   6.637   4.223   7.501  0.0025 -0.5782  0.5227
 4624TIP3    H135507   6.700   4.285   7.538 -0.3841  0.6037 -0.7297
 4624TIP3    H235508   6.656   4.222   7.408 -0.7093 -1.5439  0.3749
 4625TIP3   OH235509   5.031   3.588   2.234  1.0752 -0.3123 -0.3671
 4625TIP3    H135510   5.004   3.548   2.317  1.7826  0.9976  0.5332
 4625TIP3    H235511   5.125   3.601   2.243  0.9447  1.1436 -0.7798
 4626TIP3   OH235512   6.184   5.073   2.332  0.4598 -0.3252 -0.1913
 4626TIP3    H135513   6.185   5.152   2.279 -0.5308 -0.0074  0.2481
 4626TIP3    H235514   6.242   5.092   2.405 -1.9713  1.1453  1.4891
 4627TIP3   OH235515   6.580   2.502   2.168 -0.2581 -0.1912  0.0698
 4627TIP3    H135516   6.565   2.446   2.092  0.9309 -1.1944  0.5271
 4627TIP3    H235517   6.676   2.508   2.174 -0.3530  2.1710 -0.1349
 4628TIP3   OH235518   4.759   6.796   0.472  0.2413 -0.1110  0.1790
 4628TIP3    H135519   4.797   6.841   0.397 -0.1408 -2.2678 -1.4279
 4628TIP3    H235520   4.793   6.842   0.549  1.5462  1.4816 -1.2849
 4629TIP3   OH235521   4.302   6.519   2.794  0.3018  0.5015 -0.0001
 4629TIP3    H135522   4.351   6.455   2.743  0.6186  0.7111  0.0341
 4629TIP3    H235523   4.213   6.514   2.761  0.3308  0.0624 -0.0130
 4630TIP3   OH235524   0.367   2.402   2.192  0.1200  0.1833 -0.1986
 4630TIP3    H135525   0.406   2.319   2.163  0.2737  0.1775  0.0190
 4630TIP3    H235526   0.330   2.440   2.113 -0.8319 -0.5702 -0.1401
 4631TIP3   OH235527   6.060   0.255   0.338  0.2844  0.1266 -0.6049
 4631TIP3    H135528   6.002   0.200   0.390  2.3680 -1.7640 -0.1579
 4631TIP3    H235529   6.011   0.272   0.257 -0.3519 -2.6317 -0.8862
 4632TIP3   OH235530   4.681   0.310   0.767 -0.2562 -0.0508  0.4295
 4632TIP3    H135531   4.654   0.401   0.775  0.3607  0.1935 -0.1711
 4632TIP3    H235532   4.737   0.295   0.843 -0.2765  0.0987  0.4734
 4633TIP3   OH235533   2.291   5.098   6.989 -0.0727 -0.4277 -0.0793
 4633TIP3    H135534   2.308   5.185   6.952  3.0783 -0.8378  0.1951
 4633TIP3    H235535   2.276   5.115   7.083  0.1144 -0.1429 -0.0989
 4634TIP3   OH235536   5.275   3.231   8.102  0.1257  0.1507 -0.5895
 4634TIP3    H135537   5.217   3.159   8.127  1.3084 -1.2526 -1.6873
 4634TIP3    H235538   5.359   3.209   8.142  0.1310  1.7714  0.3742
 4635TIP3   OH235539   0.970   2.589   1.437 -0.4951 -0.2236  0.5551
 4635TIP3    H135540   0.995   2.595   1.530 -0.4487 -1.0475  0.5992
 4635TIP3    H235541   0.876   2.610   1.437  0.1363  3.2352  0.3438
 4636TIP3   OH235542   2.285   3.258   8.479  0.0588 -0.0347 -0.0692
 4636TIP3    H135543   2.240   3.185   8.521  0.1062  0.5920  1.1304
 4636TIP3    H235544   2.376   3.230   8.472 -0.7111 -2.2562 -4.6167
 4637TIP3   OH235545   4.703   5.556   2.841  0.2299  0.1017 -0.6455
 4637TIP3    H135546   4.639   5.574   2.772 -1.3185  1.0624  0.9522
 4637TIP3    H235547   4.747   5.639   2.855 -0.1257  0.1581  0.1554
 4638TIP3   OH235548   0.933   6.602   0.195 -0.5153 -0.4816  0.5102
 4638TIP3    H135549   0.959   6.690   0.219 -0.8903 -0.0313 -0.6307
 4638TIP3    H235550   0.996   6.575   0.128 -0.9834 -0.6786  0.1354
 4639TIP3   OH235551   0.464   4.738   2.141 -0.3116 -0.2249 -0.4211
 4639TIP3    H135552   0.401   4.676   2.179 -1.0130 -0.6610 -2.1726
 4639TIP3    H235553   0.458   4.722   2.046  0.2650  1.7959 -0.8418
 4640TIP3   OH235554   4.155   4.818   1.904 -0.7588 -0.0880 -0.1973
 4640TIP3    H135555   4.079   4.770   1.871 -0.9753  0.3496 -0.3427
 4640TIP3    H235556   4.178   4.773   1.985  1.9157 -3.4248 -2.5308
 4641TIP3   OH235557   3.616   1.974   2.223 -0.3361  0.0291  0.0543
 4641TIP3    H135558   3.599   2.053   2.173 -0.3352 -0.4481 -0.7237
 4641TIP3    H235559   3.543   1.969   2.285  0.0483  1.0075  0.6050
 4642TIP3   OH235560   4.763   4.710   0.747  0.1076 -0.3221 -0.3487
 4642TIP3    H135561   4.749   4.800   0.777 -0.7600 -1.1001  1.8112
 4642TIP3    H235562   4.755   4.714   0.652  0.6793  1.9655 -0.3465
 4643TIP3   OH235563   4.106   4.960   0.665 -0.3446 -0.0991  0.6384
 4643TIP3    H135564   4.054   4.909   0.728 -1.0346  0.0099  0.1727
 4643TIP3    H235565   4.109   4.904   0.587  0.1415 -0.0487  0.6188
 4644TIP3   OH235566   1.188   0.429   8.242 -0.3096  0.0446 -0.3826
 4644TIP3    H135567   1.274   0.458   8.211 -0.7789  0.4728 -1.3325
 4644TIP3    H235568   1.175   0.479   8.323 -0.1156  0.7926 -0.7960
 4645TIP3   OH235569   1.784   0.049   7.664  0.7245  0.7322 -0.1289
 4645TIP3    H135570   1.880   0.049   7.669  0.6744  0.4433  1.1856
 4645TIP3    H235571   1.758  -0.027   7.714 -0.1915  0.3702 -1.1116
 4646TIP3   OH235572   4.160   4.866   8.707 -0.3541  0.1771  0.0491
 4646TIP3    H135573   4.249   4.898   8.720 -0.0480 -0.1114 -1.2696
 4646TIP3    H235574   4.139   4.889   8.616 -1.5577  0.0748  0.2818
 4647TIP3   OH235575   2.498   3.671   7.975 -0.6640  0.5072 -0.0253
 4647TIP3    H135576   2.503   3.619   7.894 -0.2310  0.2721  0.1490
 4647TIP3    H235577   2.589   3.678   8.004 -0.8746  0.0378  0.7907
 4648TIP3   OH235578   0.241   5.570   1.342  0.2329 -0.4820  0.0036
 4648TIP3    H135579   0.191   5.586   1.421  0.4732  0.9582 -0.1171
 4648TIP3    H235580   0.332   5.584   1.367  0.1628  2.9845 -1.1186
 4649TIP3   OH235581   4.057   2.126   2.107  0.2803 -0.3304  0.3240
 4649TIP3    H135582   4.024   2.037   2.098  0.0457 -0.0913 -1.4543
 4649TIP3    H235583   4.123   2.135   2.039  0.6022  0.7276  0.7514
 4650TIP3   OH235584   0.452   6.795   2.520  0.5644  0.6238 -0.0814
 4650TIP3    H135585   0.434   6.879   2.478  0.9126  2.1952  2.6704
 4650TIP3    H235586   0.510   6.816   2.593 -2.1470 -1.3586  2.9243
 4651TIP3   OH235587   5.330   1.179   0.891 -0.1578 -0.1046 -0.3019
 4651TIP3    H135588   5.274   1.110   0.856 -2.4090  0.8350  1.2067
 4651TIP3    H235589   5.283   1.260   0.871 -0.4576  0.6033  2.8443
 4652TIP3   OH235590   3.879   0.207   8.306  0.3258 -0.1927  0.6283
 4652TIP3    H135591   3.966   0.170   8.293 -0.5519 -1.7787 -1.1532
 4652TIP3    H235592   3.827   0.135   8.340 -1.4654 -0.8776 -3.0554
 4653TIP3   OH235593   5.293   2.071   0.810 -0.3188 -0.1331 -0.3504
 4653TIP3    H135594   5.301   2.149   0.865  0.5702 -0.8852  0.6297
 4653TIP3    H235595   5.203   2.041   0.823 -1.5198  2.0693 -2.6647
 4654TIP3   OH235596   4.235   6.541   1.958  0.5306  0.4779 -0.6319
 4654TIP3    H135597   4.287   6.621   1.952  0.2848  0.9244  1.9887
 4654TIP3    H235598   4.144   6.572   1.956  0.4352  0.2987  0.2981
 4655TIP3   OH235599   1.772   1.666   8.340 -0.2996  0.7076  0.5940
 4655TIP3    H135600   1.811   1.729   8.401  2.2010 -0.2780  0.1599
 4655TIP3    H235601   1.760   1.717   8.259  0.2957  1.0248  0.6931
 4656TIP3   OH235602   0.845   4.126   0.993 -0.1253 -0.1979 -0.0489
 4656TIP3    H135603   0.814   4.041   0.963  1.3620 -0.7904 -0.0080
 4656TIP3    H235604   0.812   4.189   0.929  1.6070 -1.2267 -2.0486
 4657TIP3   OH235605   1.696   5.439   8.751 -0.2101 -0.1866  0.1516
 4657TIP3    H135606   1.677   5.505   8.817 -1.4116  0.5013 -0.8457
 4657TIP3    H235607   1.743   5.371   8.799 -0.7791  0.4214  1.6441
 4658TIP3   OH235608   3.291   0.558   2.420  0.0017 -0.2660  0.1672
 4658TIP3    H135609   3.334   0.578   2.337 -1.0112 -0.9474 -0.5491
 4658TIP3    H235610   3.216   0.503   2.395 -1.6091  1.3152  1.2943
 4659TIP3   OH235611   0.661   4.744   7.943 -0.0925  0.0823  0.5130
 4659TIP3    H135612   0.701   4.681   8.002  0.4551  1.3083  1.5012
 4659TIP3    H235613   0.567   4.725   7.947  0.0459 -0.5030  0.9942
 4660TIP3   OH235614   3.607   4.310   1.264  0.3410 -0.3788  0.3699
 4660TIP3    H135615   3.626   4.217   1.251  1.4353 -0.3974  1.8216
 4660TIP3    H235616   3.578   4.340   1.178  1.9787 -1.6105 -0.6978
 4661TIP3   OH235617   6.144   5.439   0.952 -0.4912  0.4070  0.5955
 4661TIP3    H135618   6.176   5.349   0.951 -0.4474  0.4096 -0.5574
 4661TIP3    H235619   6.078   5.440   0.882 -0.8102  1.1651  0.9006
 4662TIP3   OH235620   3.989   5.324   1.587  0.3097 -0.7626  0.1319
 4662TIP3    H135621   3.928   5.373   1.643 -0.8723  0.2361 -1.8970
 4662TIP3    H235622   3.935   5.291   1.516  2.1817  0.8287 -2.2047
 4663TIP3   OH235623   3.857   3.047   1.063  0.3760  0.0104 -0.5273
 4663TIP3    H135624   3.776   3.041   1.011 -0.7913 -0.7744  1.2704
 4663TIP3    H235625   3.844   2.984   1.134  2.0683  0.7508  0.4860
 4664TIP3   OH235626   0.055   5.973   2.723 -0.7293  0.4872 -0.2752
 4664TIP3    H135627   0.150   5.971   2.723 -0.5994  0.9981  2.9882
 4664TIP3    H235628   0.028   5.882   2.731 -0.4911  0.4258 -0.1895
 4665TIP3   OH235629   0.237   1.427   8.331 -0.2590 -0.2438 -0.2667
 4665TIP3    H135630   0.231   1.403   8.423 -1.0612 -0.0972 -0.2755
 4665TIP3    H235631   0.232   1.344   8.284  2.7707 -0.6207 -0.1304
 4666TIP3   OH235632   3.470   4.404   1.490 -0.5992  0.4425  0.6013
 4666TIP3    H135633   3.501   4.423   1.402 -1.8724 -0.7530 -0.1340
 4666TIP3    H235634   3.549   4.411   1.545  0.3691  0.3725 -0.7325
 4667TIP3   OH235635   5.972   6.205   1.541  0.2920  0.2559 -0.2203
 4667TIP3    H135636   5.912   6.159   1.599  0.9945 -0.2227  0.1272
 4667TIP3    H235637   6.057   6.198   1.583  0.4277  1.8744 -0.1482
 4668TIP3   OH235638   1.720   0.774   7.302 -0.3239  0.3076  0.7700
 4668TIP3    H135639   1.755   0.701   7.251 -0.3616 -0.4071  1.7256
 4668TIP3    H235640   1.746   0.853   7.254  1.0614 -0.2771  0.5243
 4669TIP3   OH235641   0.253   5.224   8.560  0.3274  0.1164 -0.3999
 4669TIP3    H135642   0.284   5.143   8.601  0.7230 -0.4956 -1.8360
 4669TIP3    H235643   0.239   5.200   8.468 -0.0209  1.5667 -0.7472
 4670TIP3   OH235644   4.155   4.071   1.564 -0.6794 -0.8569 -0.0423
 4670TIP3    H135645   4.111   4.043   1.484 -1.1320  0.2791 -0.2086
 4670TIP3    H235646   4.133   4.164   1.573  0.5007 -0.6159  0.6542
 4671TIP3   OH235647   2.002   2.690   2.160  0.5205  0.0175 -0.1931
 4671TIP3    H135648   2.066   2.619   2.170 -0.8861 -1.0317  2.5435
 4671TIP3    H235649   1.934   2.654   2.103 -0.1050 -0.8654  1.0536
 4672TIP3   OH235650   3.025   1.031   2.965 -0.2483 -0.0323 -0.0007
 4672TIP3    H135651   3.066   1.053   3.049 -0.8289 -0.8309  0.5136
 4672TIP3    H235652   3.072   1.083   2.900  1.1935 -0.4976  0.6366
 4673TIP3   OH235653   0.251   1.026   0.390 -0.3249  0.4952 -0.8228
 4673TIP3    H135654   0.221   1.056   0.304  0.2334 -1.1590 -1.6253
 4673TIP3    H235655   0.328   0.973   0.372 -0.4085 -0.1809  0.6785
 4674TIP3   OH235656   5.128   2.923   1.361  0.2964  0.2112 -0.1615
 4674TIP3    H135657   5.084   2.841   1.380  1.7629 -0.3519  1.0318
 4674TIP3    H235658   5.095   2.984   1.427  3.0072 -0.8917  2.4701
 4675TIP3   OH235659   0.726   4.680   8.719  0.3785 -0.3367 -0.0785
 4675TIP3    H135660   0.796   4.623   8.686  0.8198  0.5894 -0.7783
 4675TIP3    H235661   0.704   4.736   8.645 -0.7299 -0.2375  0.3041
 4676TIP3   OH235662   1.521   4.164   8.044 -0.1518 -0.0185  0.4491
 4676TIP3    H135663   1.610   4.190   8.068 -0.9707  0.4014  3.3506
 4676TIP3    H235664   1.469   4.244   8.050 -0.8626 -0.3779 -0.6104
 4677TIP3   OH235665   2.846   1.239   1.347 -0.0341 -0.6186 -0.3287
 4677TIP3    H135666   2.900   1.215   1.271 -0.8664 -1.6982 -0.6038
 4677TIP3    H235667   2.783   1.168   1.355 -0.8116  0.1447  0.5766
 4678TIP3   OH235668   1.096   0.760   1.080 -0.1745  0.3589  0.7447
 4678TIP3    H135669   1.087   0.664   1.080 -0.6907  0.4002  1.0934
 4678TIP3    H235670   1.189   0.776   1.063 -0.4646 -0.1583 -1.7066
 4679TIP3   OH235671   2.719   2.779   1.431  0.7172 -0.5821 -0.1439
 4679TIP3    H135672   2.717   2.806   1.339  3.3665  0.2846 -0.0410
 4679TIP3    H235673   2.742   2.686   1.428 -1.1410 -1.0721 -0.3467
 4680TIP3   OH235674   1.625   6.785   8.476 -0.3429  0.1805  0.1047
 4680TIP3    H135675   1.549   6.739   8.512 -0.8030  0.6733 -0.2196
 4680TIP3    H235676   1.679   6.716   8.438 -0.4248 -0.2182  0.7032
 4681TIP3   OH235677   5.785   1.196   8.089  0.1639  0.1282 -0.5446
 4681TIP3    H135678   5.757   1.108   8.065  0.0174  0.1278 -0.3705
 4681TIP3    H235679   5.860   1.182   8.147 -0.3758  0.0979  0.1584
 4682TIP3   OH235680   6.087   1.714   1.667  0.2178 -0.0736 -0.6505
 4682TIP3    H135681   6.110   1.805   1.686 -0.1676 -0.1913  0.4723
 4682TIP3    H235682   6.126   1.664   1.739 -0.7318 -0.6284 -0.5033
 4683TIP3   OH235683   4.848   2.783   7.390  0.0351 -0.1830 -0.6657
 4683TIP3    H135684   4.868   2.692   7.413  0.7015  0.2647  0.6425
 4683TIP3    H235685   4.929   2.817   7.353 -0.4251 -0.3123 -1.8094
 4684TIP3   OH235686   5.791   1.919   1.861  0.1906  0.0510 -0.2229
 4684TIP3    H135687   5.795   1.832   1.821  0.8164  0.3807 -0.9085
 4684TIP3    H235688   5.700   1.946   1.851 -0.1926 -0.8357  0.7018
 4685TIP3   OH235689   6.028   4.567   7.254 -0.7028  0.4653 -0.2806
 4685TIP3    H135690   6.112   4.542   7.293  0.4112  2.5431 -1.1677
 4685TIP3    H235691   6.040   4.556   7.160 -1.8227 -0.2594 -0.3543
 4686TIP3   OH235692   0.690   5.498   1.696  0.0041  0.3695 -0.1184
 4686TIP3    H135693   0.682   5.591   1.714 -0.2624  0.1909  0.7074
 4686TIP3    H235694   0.754   5.466   1.760 -0.9771 -0.2770  0.5709
 4687TIP3   OH235695   0.177   3.564   8.213 -0.2341 -0.2172 -0.5208
 4687TIP3    H135696   0.196   3.525   8.298 -0.2684  1.9755  0.5367
 4687TIP3    H235697   0.244   3.527   8.155  2.0033  0.8361  1.2401
 4688TIP3   OH235698   2.170   2.163   2.622  0.5499  0.2948  0.4780
 4688TIP3    H135699   2.226   2.240   2.627 -0.1483  0.9200 -0.8370
 4688TIP3    H235700   2.082   2.199   2.608  0.5355 -0.7131 -2.8610
 4689TIP3   OH235701   6.379   4.081   1.564  0.1507 -0.5806  0.7499
 4689TIP3    H135702   6.473   4.071   1.576  0.1486 -1.4020  0.1786
 4689TIP3    H235703   6.370   4.110   1.473 -0.2843 -3.7115 -0.3027
 4690TIP3   OH235704   6.504   1.945   1.215 -0.1129 -0.4701 -0.1527
 4690TIP3    H135705   6.553   1.882   1.163  0.6456 -0.1341  0.1493
 4690TIP3    H235706   6.503   2.024   1.162 -2.2148 -1.0838 -1.1423
 4691TIP3   OH235707   1.498   5.567   1.266  0.1607 -0.8774  0.6775
 4691TIP3    H135708   1.543   5.527   1.341  2.6201 -2.6517 -1.5067
 4691TIP3    H235709   1.448   5.495   1.228 -1.8117  0.2325  1.0649
 4692TIP3   OH235710   6.232   1.449   0.321 -0.4439 -0.5344 -0.5679
 4692TIP3    H135711   6.249   1.363   0.359  0.4641 -1.0362 -2.0090
 4692TIP3    H235712   6.318   1.481   0.295 -0.5418  1.6404  1.5322
 4693TIP3   OH235713   4.960   1.801   1.516  0.3779  0.0324 -0.1987
 4693TIP3    H135714   4.896   1.734   1.495  0.0131  0.5639 -0.8163
 4693TIP3    H235715   4.929   1.880   1.471  1.9153  0.0937 -1.2611
 4694TIP3   OH235716   5.887   2.823   7.734 -0.7760  0.0798 -0.1742
 4694TIP3    H135717   5.951   2.845   7.802 -0.0248 -1.7042 -0.2478
 4694TIP3    H235718   5.936   2.825   7.652 -0.4791 -2.2816 -0.1284
 4695TIP3   OH235719   0.329   5.477   7.979 -0.3603 -0.4051 -0.3541
 4695TIP3    H135720   0.329   5.464   7.884 -0.6590  1.6730 -0.7007
 4695TIP3    H235721   0.421   5.488   8.002 -0.2654 -1.1751 -0.3490
 4696TIP3   OH235722   4.031   3.416   0.494 -0.0687  0.0767  0.2782
 4696TIP3    H135723   4.069   3.385   0.576 -1.0499  0.0938  0.7500
 4696TIP3    H235724   4.023   3.338   0.440 -2.2172 -0.5166  1.3372
 4697TIP3   OH235725   5.357   1.463   7.766  0.1375  0.5243  0.1887
 4697TIP3    H135726   5.272   1.462   7.808  0.0871  3.1099  0.2995
 4697TIP3    H235727   5.342   1.424   7.680 -1.1046  0.7054  0.3047
 4698TIP3   OH235728   0.731   4.640   7.580 -0.0988  0.3750  0.2521
 4698TIP3    H135729   0.768   4.601   7.659 -0.6521  0.3036  0.4798
 4698TIP3    H235730   0.763   4.584   7.509  1.5790  1.2624  0.2576
 4699TIP3   OH235731   4.723   1.461   7.277  0.4614  0.3442  0.4709
 4699TIP3    H135732   4.754   1.482   7.365 -0.7379 -0.2231  1.0561
 4699TIP3    H235733   4.658   1.529   7.257  1.7355  1.2962 -0.5744
 4700TIP3   OH235734   6.598   4.478   1.365  0.2355  0.3388  0.0628
 4700TIP3    H135735   6.539   4.434   1.425 -0.4538 -0.3423 -1.0827
 4700TIP3    H235736   6.578   4.571   1.375 -2.0455  0.0545 -1.3008
 4701TIP3   OH235737   6.302   2.836   2.633  0.5089  0.2352  0.7658
 4701TIP3    H135738   6.215   2.801   2.612  1.0016 -0.4790 -0.2095
 4701TIP3    H235739   6.320   2.898   2.563  1.4816 -0.9167 -0.0565
 4702TIP3   OH235740   4.754   5.483   1.631  0.1556 -0.3350  0.8919
 4702TIP3    H135741   4.774   5.398   1.668 -0.0196 -0.0877  1.5593
 4702TIP3    H235742   4.659   5.493   1.641  0.2925  0.3296  1.6828
 4703TIP3   OH235743   5.976   1.361   7.971  0.8151 -0.1611  0.3335
 4703TIP3    H135744   5.906   1.328   8.028  1.7223 -2.4791  0.2129
 4703TIP3    H235745   5.961   1.317   7.887  1.3103  0.8332 -0.2888
 4704TIP3   OH235746   1.438   5.038   1.681 -0.0670 -0.3603 -0.8489
 4704TIP3    H135747   1.524   5.077   1.690 -0.5111  0.8481 -1.5951
 4704TIP3    H235748   1.416   5.005   1.768  0.2876  1.1585 -0.1678
 4705TIP3   OH235749   5.443   0.764   7.679  0.0434 -0.5299 -0.1279
 4705TIP3    H135750   5.486   0.712   7.747 -0.5685  0.5853  1.1483
 4705TIP3    H235751   5.350   0.754   7.697 -0.0837  1.0973  0.2422
 4706TIP3   OH235752   6.755   1.540   8.079  0.2885 -0.3631  0.9114
 4706TIP3    H135753   6.729   1.530   7.987 -1.1543  0.0373  1.2413
 4706TIP3    H235754   6.764   1.451   8.111  0.1722 -0.5127  0.5379
 4707TIP3   OH235755   4.586   6.005   2.411  0.3613  0.0846  0.4260
 4707TIP3    H135756   4.591   6.076   2.347 -1.1785  0.7316  0.9916
 4707TIP3    H235757   4.625   6.042   2.490  1.2809 -0.3560  0.1932
 4708TIP3   OH235758   3.138   3.066   0.909  0.3579  0.1830 -0.5926
 4708TIP3    H135759   3.222   3.098   0.875  0.6927  1.4191  1.2670
 4708TIP3    H235760   3.076   3.136   0.889  0.2292  0.2180 -0.0817
 4709TIP3   OH235761   4.995   5.717   7.835 -0.3498 -0.0520  0.0407
 4709TIP3    H135762   5.002   5.647   7.771  0.6496 -0.0403  0.1094
 4709TIP3    H235763   4.984   5.797   7.783  0.6986 -0.0131 -0.1465
 4710TIP3   OH235764   2.962   0.006   1.754 -0.3816 -0.1752 -0.8757
 4710TIP3    H135765   2.892  -0.041   1.798  1.7639 -0.7303  2.3112
 4710TIP3    H235766   2.998  -0.057   1.692 -0.1396 -1.3564  0.4108
 4711TIP3   OH235767   3.244   4.513   8.069 -1.1282 -0.2693  0.2693
 4711TIP3    H135768   3.180   4.523   7.998  0.1728  2.4109 -0.6511
 4711TIP3    H235769   3.205   4.561   8.142 -0.4959  0.9103 -0.1297
 4712TIP3   OH235770   1.282   4.011   7.980  0.7218  0.6834 -0.1756
 4712TIP3    H135771   1.236   4.054   8.053  0.5064 -0.4792  0.4004
 4712TIP3    H235772   1.373   4.037   7.990  0.9554 -0.5541  1.3774
 4713TIP3   OH235773   0.296   3.889   2.562  0.1378 -0.6151 -0.2114
 4713TIP3    H135774   0.203   3.884   2.538 -0.0860 -0.6503  0.6197
 4713TIP3    H235775   0.340   3.915   2.481 -0.6852  0.1154 -0.4453
 4714TIP3   OH235776   0.501   3.424   8.343  0.0604 -0.0215 -1.0569
 4714TIP3    H135777   0.491   3.474   8.262  0.1079  0.7713 -0.5954
 4714TIP3    H235778   0.550   3.346   8.319  0.7004  0.5568 -1.6541
 4715TIP3   OH235779   6.843   2.429   2.091 -0.2071 -0.3934  0.2767
 4715TIP3    H135780   6.885   2.512   2.072  0.6919 -0.7778  0.5167
 4715TIP3    H235781   6.830   2.388   2.006  0.0522 -0.3352  0.2091
 4716TIP3   OH235782   5.315   2.907   2.160  0.9754 -0.2667  0.3683
 4716TIP3    H135783   5.322   2.814   2.178  2.3057 -0.0891  0.8763
 4716TIP3    H235784   5.367   2.920   2.080 -0.5164 -0.1918 -0.6405
 4717TIP3   OH235785   5.672   2.694   1.526  0.2125 -0.7239  0.3939
 4717TIP3    H135786   5.762   2.711   1.553  1.9087  0.7737 -4.9490
 4717TIP3    H235787   5.636   2.780   1.507 -0.9469 -1.4938 -1.1479
 4718TIP3   OH235788   6.700   1.515   1.172 -0.1407 -0.0093 -0.0825
 4718TIP3    H135789   6.770   1.495   1.109  0.4450 -0.7706  0.7909
 4718TIP3    H235790   6.635   1.447   1.158 -0.3570  0.2574 -0.3753
 4719TIP3   OH235791   1.969   2.495   7.765  0.1469  0.2137  0.0037
 4719TIP3    H135792   2.018   2.576   7.749 -0.9246  1.1258  1.1824
 4719TIP3    H235793   2.016   2.453   7.836  1.2413 -0.7061 -1.2092
 4720TIP3   OH235794   3.202   4.446   1.122 -0.5893 -0.3097 -0.2806
 4720TIP3    H135795   3.175   4.366   1.078 -0.0287 -0.6100 -0.0897
 4720TIP3    H235796   3.298   4.447   1.114 -0.4717 -0.3500  0.8772
 4721TIP3   OH235797   5.980   2.887   0.474 -0.3913 -0.1231 -0.2547
 4721TIP3    H135798   6.060   2.835   0.466  0.3947  1.0535 -0.2762
 4721TIP3    H235799   5.941   2.857   0.556  0.1019 -0.6775 -0.2114
 4722TIP3   OH235800   0.169   5.072   7.529  0.4008 -0.2063 -0.0586
 4722TIP3    H135801   0.186   5.166   7.524 -4.6086  0.9784 -0.2838
 4722TIP3    H235802   0.171   5.042   7.438 -1.2500  0.5576 -0.3910
 4723TIP3   OH235803   1.414   0.564   7.819 -0.6559  0.1299  0.0244
 4723TIP3    H135804   1.339   0.505   7.818 -1.4491  1.1027  0.6222
 4723TIP3    H235805   1.465   0.537   7.895 -0.6573 -0.2113 -0.0946
 4724TIP3   OH235806   0.152   5.170   6.896  0.3246  0.3917 -0.0716
 4724TIP3    H135807   0.161   5.239   6.831 -3.2149  1.7405  0.6232
 4724TIP3    H235808   0.085   5.111   6.859  1.6677 -1.4798  0.3313
 4725TIP3   OH235809   2.701   3.145   2.106 -0.6135 -0.0387 -0.0311
 4725TIP3    H135810   2.638   3.117   2.173  0.3781 -1.3857  0.3691
 4725TIP3    H235811   2.716   3.067   2.053 -0.0168  0.5297 -0.7139
 4726TIP3   OH235812   3.845   3.501   7.764 -0.2555  0.0120  0.6870
 4726TIP3    H135813   3.849   3.441   7.838  1.4712  0.4211  0.9766
 4726TIP3    H235814   3.933   3.498   7.726 -0.4979  1.3751 -0.0647
 4727TIP3   OH235815   5.914   5.701   0.750  0.3188 -0.1453 -0.0080
 4727TIP3    H135816   5.950   5.746   0.826 -2.1745  1.5743  0.2800
 4727TIP3    H235817   5.856   5.634   0.787  1.3844 -1.3633 -0.4563
 4728TIP3   OH235818   3.574   2.508   0.629  0.1094 -0.6757 -0.8785
 4728TIP3    H135819   3.657   2.481   0.591  0.5636 -0.5921  0.0243
 4728TIP3    H235820   3.540   2.574   0.568  0.8991 -0.4072 -1.0476
 4729TIP3   OH235821   0.726   5.195   2.482 -0.1750  0.2994  0.1506
 4729TIP3    H135822   0.811   5.152   2.497 -1.1417 -1.7934 -0.0145
 4729TIP3    H235823   0.710   5.184   2.389 -1.0468 -0.1259  0.3499
 4730TIP3   OH235824   0.110   6.335   1.819 -0.5381  0.0422  0.1573
 4730TIP3    H135825   0.095   6.330   1.724 -1.6424  0.0331  0.3250
 4730TIP3    H235826   0.081   6.250   1.852 -1.2878  0.4837  0.6457
 4731TIP3   OH235827   5.146   1.208   7.634 -0.2680  0.7547 -0.2215
 4731TIP3    H135828   5.240   1.206   7.618 -0.6877  0.6075 -3.0978
 4731TIP3    H235829   5.130   1.133   7.692  1.3159  0.5884  0.0430
 4732TIP3   OH235830   3.538   1.530   7.961 -0.2788  0.0805  0.3093
 4732TIP3    H135831   3.629   1.524   7.933  0.4674  0.2551  2.5049
 4732TIP3    H235832   3.494   1.457   7.917  0.6956  0.5077 -1.4532
 4733TIP3   OH235833   3.516   3.486   2.143 -0.7769  0.1152 -0.0279
 4733TIP3    H135834   3.481   3.574   2.158  0.0521  0.4359  0.0971
 4733TIP3    H235835   3.610   3.496   2.156 -0.8778 -1.2388  2.1266
 4734TIP3   OH235836   0.167   0.815   1.981  0.2400  0.0193  0.2096
 4734TIP3    H135837   0.086   0.858   1.952  0.8824 -0.0234 -1.8203
 4734TIP3    H235838   0.208   0.786   1.900  2.5897  0.5581  1.1383
 4735TIP3   OH235839   5.078   5.514   1.085 -0.7672 -0.0613  0.0869
 4735TIP3    H135840   5.124   5.451   1.140 -0.4366  0.7213  0.7224
 4735TIP3    H235841   5.025   5.460   1.027  2.6946 -1.1800 -2.3861
 4736TIP3   OH235842   0.706   5.954   0.263 -0.7009 -0.6788  0.5449
 4736TIP3    H135843   0.785   5.942   0.210  0.5151 -0.1862  2.1943
 4736TIP3    H235844   0.641   5.986   0.201  0.5497 -0.5269 -0.7418
 4737TIP3   OH235845   1.591   6.700   7.660 -0.3683  0.5978 -0.8770
 4737TIP3    H135846   1.511   6.718   7.710 -0.3372 -2.3657  0.4151
 4737TIP3    H235847   1.571   6.730   7.571 -2.8213  0.1928 -0.5328
 4738TIP3   OH235848   1.419   2.683   8.599  0.2866  0.4688  0.5925
 4738TIP3    H135849   1.466   2.603   8.620 -0.6998 -0.2799  0.0016
 4738TIP3    H235850   1.340   2.654   8.555 -0.8959  1.6730  1.8347
 4739TIP3   OH235851   0.420   4.622   7.904 -0.4020  0.2590  0.2677
 4739TIP3    H135852   0.327   4.629   7.882 -0.5201 -0.1939  0.5995
 4739TIP3    H235853   0.427   4.540   7.953  0.0513  0.6589  0.8893
 4740TIP3   OH235854   6.149   6.504   0.423 -0.0587 -0.1773  0.0716
 4740TIP3    H135855   6.094   6.481   0.497 -1.3982 -0.8907 -1.0992
 4740TIP3    H235856   6.231   6.456   0.438  0.5808  1.4539  2.1925
 4741TIP3   OH235857   6.512   2.822   1.544 -0.6623 -0.4490 -0.5676
 4741TIP3    H135858   6.595   2.777   1.558  0.1493  1.4164  1.2361
 4741TIP3    H235859   6.520   2.863   1.458  0.8092  0.6128  0.0240
 4742TIP3   OH235860   0.211   2.597   7.744 -0.0991 -0.4718  0.2273
 4742TIP3    H135861   0.202   2.659   7.672  1.5705  1.0408  1.2493
 4742TIP3    H235862   0.156   2.634   7.814  1.6775  0.5106  1.1901
 4743TIP3   OH235863   5.586   5.630   2.899 -0.1569 -0.1347  0.5844
 4743TIP3    H135864   5.621   5.582   2.974 -1.7825  1.4473  2.4695
 4743TIP3    H235865   5.492   5.609   2.899 -0.1588 -0.2287 -1.1278
 4744TIP3   OH235866   2.940   3.682   0.309 -0.5240 -0.0831 -0.5793
 4744TIP3    H135867   2.986   3.612   0.356  0.0588  0.6010 -0.1020
 4744TIP3    H235868   3.010   3.738   0.276 -0.9174 -0.6613 -2.4675
 4745TIP3   OH235869   4.082   2.572   2.118 -0.0502 -0.0857  0.1980
 4745TIP3    H135870   4.019   2.633   2.156 -0.9634 -0.6419 -0.3711
 4745TIP3    H235871   4.059   2.568   2.026  1.2062  0.1339 -0.1434
 4746TIP3   OH235872   3.494   1.935   0.871 -0.3787  0.4527 -0.5179
 4746TIP3    H135873   3.505   1.900   0.783  1.2382 -0.9597  0.1971
 4746TIP3    H235874   3.562   2.002   0.879  2.3624 -2.2598  0.9534
 4747TIP3   OH235875   4.727   3.674   8.317 -0.3649  0.4334  0.1580
 4747TIP3    H135876   4.795   3.649   8.255  0.9981  2.6675  0.6435
 4747TIP3    H235877   4.731   3.770   8.320 -2.4968  0.5544  1.3831
 4748TIP3   OH235878   3.612   4.700   1.768  0.1004  0.6558 -0.1646
 4748TIP3    H135879   3.553   4.663   1.834  0.8190  1.2795  0.8581
 4748TIP3    H235880   3.694   4.652   1.779 -0.0796  0.0410 -1.3355
 4749TIP3   OH235881   2.440   6.186   2.066 -0.0813 -0.6484  0.0417
 4749TIP3    H135882   2.486   6.156   1.987  0.2503 -1.2870  0.4686
 4749TIP3    H235883   2.355   6.142   2.062 -0.6846  0.5220 -0.7406
 4750TIP3   OH235884   3.567   2.204   2.111 -0.0141  0.4361  0.1183
 4750TIP3    H135885   3.651   2.247   2.092 -0.5273  0.4121 -2.4891
 4750TIP3    H235886   3.520   2.266   2.166  1.0651  1.1403  0.2815
 4751TIP3   OH235887   3.936   1.310   0.782 -0.1064 -0.6323  0.4438
 4751TIP3    H135888   3.967   1.228   0.821 -1.4524 -0.6857  1.4655
 4751TIP3    H235889   3.887   1.284   0.704  0.8890 -0.6646 -0.1854
 4752TIP3   OH235890   3.898   3.427   0.080  0.3663 -0.4265 -0.0666
 4752TIP3    H135891   3.861   3.427   0.169 -1.3806 -0.1735 -0.7591
 4752TIP3    H235892   3.874   3.513   0.045 -0.5129 -1.1946 -1.3928
 4753TIP3   OH235893   5.913   0.506   2.047  0.5301 -0.1264  0.0008
 4753TIP3    H135894   5.911   0.577   2.111  1.6681 -0.4559  0.4188
 4753TIP3    H235895   5.911   0.426   2.100  0.3916 -0.4006 -0.4182
 4754TIP3   OH235896   4.149   3.621   8.571 -0.5030 -0.2945  0.5109
 4754TIP3    H135897   4.165   3.545   8.627  0.4380  0.2012  0.9234
 4754TIP3    H235898   4.235   3.645   8.537 -0.7050  0.9171  0.8226
 4755TIP3   OH235899   3.314   3.820   1.890 -0.8025  0.5569 -0.3913
 4755TIP3    H135900   3.388   3.763   1.874 -0.6833  0.7334 -0.4713
 4755TIP3    H235901   3.245   3.788   1.832 -1.2388 -0.4559  0.6500
 4756TIP3   OH235902   6.363   1.417   1.998 -0.2272  0.1189  0.4938
 4756TIP3    H135903   6.317   1.459   1.925  0.1421  0.4324  0.4422
 4756TIP3    H235904   6.293   1.381   2.053 -0.4773 -1.1350 -0.6091
 4757TIP3   OH235905   0.443   4.340   1.081 -0.1844 -0.0870  1.0072
 4757TIP3    H135906   0.485   4.390   1.011  2.4577 -1.9728  1.0956
 4757TIP3    H235907   0.432   4.252   1.044 -2.4107 -0.1653  1.6914
 4758TIP3   OH235908   0.445   0.439   7.555 -0.2187 -0.1829  0.6780
 4758TIP3    H135909   0.459   0.368   7.492 -1.3459 -0.2316  0.4487
 4758TIP3    H235910   0.529   0.451   7.597  0.5023 -0.3423 -0.6474
 4759TIP3   OH235911   3.840   4.935   7.857 -0.1659 -0.2173  0.4810
 4759TIP3    H135912   3.807   4.999   7.794  1.0187  0.0683  0.1327
 4759TIP3    H235913   3.933   4.954   7.865  0.2978 -2.1319  0.0814
 4760TIP3   OH235914   0.759   3.914   0.837  0.3799 -0.5404  0.1773
 4760TIP3    H135915   0.816   3.839   0.854  0.8352 -0.4256 -0.7501
 4760TIP3    H235916   0.742   3.909   0.743 -0.6484 -0.2167  0.3331
 4761TIP3   OH235917   1.113   5.826   0.613  0.0440 -0.0991  0.2699
 4761TIP3    H135918   1.074   5.820   0.526  1.0119 -0.3148 -0.1606
 4761TIP3    H235919   1.161   5.744   0.624  0.7421  0.3369  0.5924
 4762TIP3   OH235920   6.500   2.556   1.654  0.3471  0.7783 -0.1697
 4762TIP3    H135921   6.500   2.475   1.602 -1.3944  1.0402 -0.6525
 4762TIP3    H235922   6.462   2.621   1.596  0.5714  1.6569  0.6456
 4763TIP3   OH235923   5.266   1.369   1.233  0.4165  0.0651  0.4017
 4763TIP3    H135924   5.189   1.401   1.279 -0.4660 -0.2453 -0.8136
 4763TIP3    H235925   5.244   1.280   1.207  1.6486 -0.4603  1.0559
 4764TIP3   OH235926   2.155   3.595   7.474 -0.4582 -0.6455 -0.2823
 4764TIP3    H135927   2.191   3.665   7.420  0.5463 -0.5170  0.5280
 4764TIP3    H235928   2.121   3.531   7.411 -0.5797  0.1477 -1.0403
 4765TIP3   OH235929   2.146   1.843   8.682  0.2647 -0.0126 -0.0372
 4765TIP3    H135930   2.086   1.790   8.734  0.2752  0.3913  0.3929
 4765TIP3    H235931   2.207   1.780   8.643  0.4145 -0.2954  0.6454
 4766TIP3   OH235932   3.409   2.711   0.073 -0.1754 -0.2915  0.2638
 4766TIP3    H135933   3.447   2.792   0.039  1.2164 -0.8173  0.4745
 4766TIP3    H235934   3.361   2.738   0.151  2.6684  0.0642  2.0546
 4767TIP3   OH235935   5.031   6.331   8.267 -0.1406 -0.0080 -0.1082
 4767TIP3    H135936   5.024   6.366   8.178 -1.4884 -0.6369 -0.2719
 4767TIP3    H235937   5.061   6.241   8.256  2.3119  0.6624  0.2631
 4768TIP3   OH235938   0.181   2.233   0.738 -0.0519 -0.1022  0.1293
 4768TIP3    H135939   0.144   2.319   0.717 -0.3449 -0.0129  0.9948
 4768TIP3    H235940   0.107   2.173   0.728  0.1481 -0.2612 -0.4550
 4769TIP3   OH235941   0.124   4.561   0.904 -0.9663 -0.0104 -0.2692
 4769TIP3    H135942   0.140   4.605   0.821 -4.1093 -1.3303 -1.7419
 4769TIP3    H235943   0.157   4.472   0.892 -3.9751 -1.0969 -1.3327
 4770TIP3   OH235944   5.821   5.445   1.095  0.0655 -0.1449 -0.0166
 4770TIP3    H135945   5.873   5.365   1.086 -0.0220 -0.0492 -1.5526
 4770TIP3    H235946   5.870   5.498   1.158 -0.3002 -1.7144  1.6628
 4771TIP3   OH235947   1.834   5.985   2.479  0.1527 -0.0464 -0.3887
 4771TIP3    H135948   1.819   5.985   2.574  2.2010 -1.1510  0.0066
 4771TIP3    H235949   1.746   5.977   2.441 -0.6680 -0.3080  1.4303
 4772TIP3   OH235950   4.784   4.862   8.478  0.3778 -0.4472  0.0378
 4772TIP3    H135951   4.774   4.776   8.519  0.4482 -1.6619 -2.2649
 4772TIP3    H235952   4.695   4.897   8.474  0.1536 -1.0260 -0.1879
 4773TIP3   OH235953   3.451   6.575   7.838  0.4151  0.2582  0.1012
 4773TIP3    H135954   3.516   6.525   7.888  2.3417  0.2246 -2.2766
 4773TIP3    H235955   3.497   6.602   7.759 -1.3734  3.4669 -0.0225
 4774TIP3   OH235956   1.577   4.793   1.418 -0.0858  0.4202 -0.0602
 4774TIP3    H135957   1.552   4.762   1.505  0.1674  0.0384 -0.1209
 4774TIP3    H235958   1.498   4.780   1.365 -0.2538  0.6909  0.1175
 4775TIP3   OH235959   4.654   1.438   7.796 -0.1617 -0.6214 -0.3266
 4775TIP3    H135960   4.599   1.378   7.846  2.1471 -0.7849  2.1993
 4775TIP3    H235961   4.726   1.385   7.764 -0.8204 -0.1964 -2.7178
 4776TIP3   OH235962   1.325   5.373   1.174  0.0630 -0.1067  0.3738
 4776TIP3    H135963   1.256   5.392   1.110  0.0141  1.1784  0.7705
 4776TIP3    H235964   1.278   5.343   1.252  0.1284 -1.7796 -0.1880
 4777TIP3   OH235965   0.410   1.134   0.592 -0.5689 -0.2175 -0.0443
 4777TIP3    H135966   0.420   1.079   0.514  0.2949 -1.2753  0.7850
 4777TIP3    H235967   0.437   1.078   0.665 -1.5723  0.6732  1.0610
 4778TIP3   OH235968   0.771   2.899   0.156 -0.1057 -0.2677 -0.0808
 4778TIP3    H135969   0.815   2.983   0.173 -1.6971  0.2177  1.9806
 4778TIP3    H235970   0.748   2.903   0.063 -0.1331  1.6005 -0.0278
 4779TIP3   OH235971   3.747   1.127   2.000 -0.3580 -0.1684 -0.0844
 4779TIP3    H135972   3.678   1.118   2.066 -0.9865  1.1214 -0.5426
 4779TIP3    H235973   3.720   1.067   1.930 -1.9441  1.5183 -0.9963
 4780TIP3   OH235974   2.989   0.826   2.801 -0.4908  0.5111 -0.2968
 4780TIP3    H135975   3.014   0.891   2.866  1.4904  2.4132 -2.7226
 4780TIP3    H235976   2.913   0.864   2.756  1.6681  2.2269 -2.8403
 4781TIP3   OH235977   3.000   4.525   2.501  0.2316  0.1406 -0.0430
 4781TIP3    H135978   3.072   4.468   2.475 -0.2585 -0.4329 -0.1738
 4781TIP3    H235979   2.986   4.504   2.594 -0.9278 -1.0651 -0.4630
 4782TIP3   OH235980   5.849   1.095   8.470 -0.0177  0.1344 -0.7600
 4782TIP3    H135981   5.791   1.082   8.395 -0.2197 -0.1087 -0.5633
 4782TIP3    H235982   5.823   1.179   8.506 -0.0509  0.1607 -0.8435
 4783TIP3   OH235983   5.908   4.126   2.941 -0.3831 -0.7944  0.0244
 4783TIP3    H135984   5.885   4.212   2.975 -2.5292 -1.7014  1.0726
 4783TIP3    H235985   5.956   4.083   3.013  0.3656 -0.6274 -0.3624
 4784TIP3   OH235986   3.959   3.165   8.509 -0.5651  0.0670 -0.7374
 4784TIP3    H135987   3.877   3.171   8.559 -0.4053 -1.4702 -0.2443
 4784TIP3    H235988   3.957   3.077   8.471 -0.0156  0.7001 -2.2967
 4785TIP3   OH235989   3.742   2.007   0.069 -0.0710 -0.4227  0.0097
 4785TIP3    H135990   3.647   2.000   0.078  0.1821 -1.1883  2.8214
 4785TIP3    H235991   3.764   1.946  -0.002 -1.4503 -2.2118  1.0463
 4786TIP3   OH235992   6.682   1.719   6.794  0.3343  0.3015 -0.0803
 4786TIP3    H135993   6.758   1.675   6.831  1.8892  0.8587 -2.4161
 4786TIP3    H235994   6.704   1.812   6.796 -1.0937  0.6677  0.8271
 4787TIP3   OH235995   2.303   5.520   8.010  0.3965 -0.0465  0.3015
 4787TIP3    H135996   2.321   5.606   7.971  0.6958  0.2209  1.0147
 4787TIP3    H235997   2.235   5.538   8.074 -0.4802 -0.5792 -0.4524
 4788TIP3   OH235998   1.666   0.533   0.834 -0.0267 -0.0138 -0.6668
 4788TIP3    H135999   1.663   0.604   0.898 -2.1946  1.3778 -2.1404
 4788TIP3    H236000   1.722   0.566   0.764  2.0452 -1.3853  0.2335
 4789TIP3   OH236001   0.939   6.549   3.256  0.0834  0.0102  0.5223
 4789TIP3    H136002   0.860   6.512   3.216  0.1567 -0.3727  0.7323
 4789TIP3    H236003   0.929   6.644   3.243  0.3758 -0.1358 -0.8809
 4790TIP3   OH236004   2.623   1.428   2.428  0.3964 -0.1506  0.3190
 4790TIP3    H136005   2.659   1.343   2.401  0.6396  0.1155 -0.2220
 4790TIP3    H236006   2.589   1.413   2.516  2.4731 -0.2248  1.1513
 4791TIP3   OH236007   5.673   2.745   8.078 -0.1846  0.1034  0.7217
 4791TIP3    H136008   5.605   2.746   8.145 -0.1839  0.6092  0.7203
 4791TIP3    H236009   5.633   2.699   8.004 -1.3577  2.2706 -0.1066
 4792TIP3   OH236010   3.498   0.273   0.871 -0.1997  0.1569 -0.6531
 4792TIP3    H136011   3.587   0.307   0.866  0.0440 -0.3127  0.2758
 4792TIP3    H236012   3.454   0.311   0.795  0.6712  0.7336 -0.8897
 4793TIP3   OH236013   0.805   3.692   1.143  0.4172 -0.3824 -0.1276
 4793TIP3    H136014   0.724   3.641   1.146  0.2781 -0.4250 -2.8277
 4793TIP3    H236015   0.845   3.669   1.059  1.4822  2.2426 -0.4105
 4794TIP3   OH236016   1.438   1.096   1.960 -0.3633 -0.2183 -0.3967
 4794TIP3    H136017   1.531   1.117   1.947 -0.3387  2.1711  2.4730
 4794TIP3    H236018   1.392   1.152   1.898  0.0482 -0.0822 -0.5838
 4795TIP3   OH236019   0.549   6.397   2.038  0.3527  0.2254 -0.1933
 4795TIP3    H136020   0.616   6.381   2.104 -0.4321  1.8657  1.0909
 4795TIP3    H236021   0.578   6.476   1.993 -0.4604  0.6943  0.0764
 4796TIP3   OH236022   4.229   1.221   2.544 -0.2381 -0.4141 -0.3717
 4796TIP3    H136023   4.197   1.147   2.493 -1.0063 -0.5078  0.2272
 4796TIP3    H236024   4.216   1.194   2.635 -1.1729  0.7125 -0.1464
 4797TIP3   OH236025   4.986   3.210   2.174 -0.1668  0.4584 -0.3408
 4797TIP3    H136026   5.005   3.173   2.087 -0.7214  1.7018 -1.0166
 4797TIP3    H236027   5.064   3.260   2.197  0.1757 -0.2713  0.1114
 4798TIP3   OH236028   4.542   6.359   0.773  0.3834  0.1110  0.2367
 4798TIP3    H136029   4.629   6.364   0.732  0.0169  1.7583 -0.4286
 4798TIP3    H236030   4.528   6.447   0.808 -0.7751 -0.3130  0.8686
 4799TIP3   OH236031   6.798   5.709   0.277 -0.4808  0.0760  0.1894
 4799TIP3    H136032   6.840   5.751   0.353  0.6736  0.1417 -0.4611
 4799TIP3    H236033   6.847   5.628   0.264 -0.9850 -0.1733 -0.2016
 4800TIP3   OH236034   0.126   5.309   8.029 -0.3872  0.7751 -0.6010
 4800TIP3    H136035   0.203   5.365   8.027  0.2844  0.2481  3.1400
 4800TIP3    H236036   0.102   5.304   8.122 -1.7092 -3.3601 -0.9690
 4801TIP3   OH236037   5.669   0.084   0.185 -0.1589  0.2317  0.1206
 4801TIP3    H136038   5.750   0.135   0.177  0.5450 -0.9560 -0.5685
 4801TIP3    H236039   5.613   0.138   0.240  0.2730  2.1046 -1.1445
 4802TIP3   OH236040   4.473   4.313   1.380 -0.5360  0.0131  0.2797
 4802TIP3    H136041   4.492   4.329   1.472 -0.2550 -1.4088  0.5009
 4802TIP3    H236042   4.537   4.365   1.332  0.9971 -1.1610  0.9525
 4803TIP3   OH236043   5.407   4.460   2.139  0.0562  0.5779 -0.2976
 4803TIP3    H136044   5.375   4.378   2.176 -1.3886  0.9522 -0.6690
 4803TIP3    H236045   5.469   4.493   2.204 -1.9878  0.9522  1.5366
 4804TIP3   OH236046   6.447   1.157   3.075  0.0856  0.4564  0.0837
 4804TIP3    H136047   6.490   1.144   2.990  0.2099 -1.7841  0.4247
 4804TIP3    H236048   6.369   1.208   3.054  0.1155 -0.0431 -1.3931
 4805TIP3   OH236049   5.656   1.508   0.138  0.5085 -0.0715 -0.5537
 4805TIP3    H136050   5.706   1.559   0.202  1.6980  1.8263 -2.8249
 4805TIP3    H236051   5.717   1.440   0.109  0.8380  0.5525 -1.3557
 4806TIP3   OH236052   4.674   6.420   8.006 -0.2546 -0.0419  0.7211
 4806TIP3    H136053   4.767   6.437   7.993 -0.3458  0.7216  1.0406
 4806TIP3    H236054   4.633   6.506   8.003 -1.2921 -0.5239 -2.0555
 4807TIP3   OH236055   3.549   1.105   2.235  0.4277  0.0684  0.4000
 4807TIP3    H136056   3.578   1.149   2.315 -0.7230  1.9434 -0.1504
 4807TIP3    H236057   3.525   1.176   2.176 -0.5995 -1.3076 -0.9179
 4808TIP3   OH236058   0.693   2.734   3.295 -0.3848  0.4011  0.1958
 4808TIP3    H136059   0.769   2.769   3.248 -0.3078  0.1081  0.0998
 4808TIP3    H236060   0.620   2.745   3.234 -0.2820  0.0065 -0.0017
 4809TIP3   OH236061   4.206   5.887   1.800  1.2603 -0.4064  0.2012
 4809TIP3    H136062   4.114   5.906   1.819  1.4435 -1.2070  2.0859
 4809TIP3    H236063   4.247   5.973   1.791  0.4922 -0.0347  0.2050
 4810TIP3   OH236064   1.348   0.680   0.421 -0.5409  0.0783 -0.1513
 4810TIP3    H136065   1.378   0.658   0.333 -1.1407 -1.8962  0.0840
 4810TIP3    H236066   1.281   0.615   0.441 -0.7186  0.7311  1.6144
 4811TIP3   OH236067   1.988   1.356   2.380 -0.3613  0.1629 -0.5809
 4811TIP3    H136068   1.977   1.446   2.351  0.5338  0.0672 -1.2764
 4811TIP3    H236069   2.048   1.317   2.316  0.3171 -0.5468  0.4478
 4812TIP3   OH236070   0.345   0.243   1.481  0.1053  0.5682 -0.0986
 4812TIP3    H136071   0.351   0.149   1.462 -1.4934  0.7187 -1.5801
 4812TIP3    H236072   0.422   0.261   1.536  0.1665 -1.6902  0.6805
 4813TIP3   OH236073   5.522   2.858   7.142  0.3898 -0.2608  0.1961
 4813TIP3    H136074   5.470   2.924   7.189  0.5709 -0.4011  0.6001
 4813TIP3    H236075   5.477   2.847   7.058 -0.3080 -0.4701  0.5889
 4814TIP3   OH236076   3.990   2.670   3.069  0.0638 -0.6130  0.3109
 4814TIP3    H136077   3.941   2.702   3.144 -0.5729 -1.7708  0.4193
 4814TIP3    H236078   4.081   2.692   3.088 -0.2217  0.1270  0.8659
 4815TIP3   OH236079   2.745   5.995   0.711 -0.3330 -0.6869 -0.4759
 4815TIP3    H136080   2.749   6.073   0.657 -0.0060 -1.8885 -2.2612
 4815TIP3    H236081   2.836   5.971   0.726 -0.4270 -1.4739 -1.0965
 4816TIP3   OH236082   4.168   1.056   2.336  0.6728  0.0391  0.7680
 4816TIP3    H136083   4.090   1.049   2.281  1.5002 -0.5937 -0.3748
 4816TIP3    H236084   4.161   0.982   2.397  0.6576 -0.3765  0.2719
 4817TIP3   OH236085   4.109   2.769   1.213  0.1391  0.2188  0.5926
 4817TIP3    H136086   4.190   2.819   1.203  0.5183 -0.0413  2.0089
 4817TIP3    H236087   4.076   2.794   1.300 -1.3703  0.4011  0.0024
 4818TIP3   OH236088   3.722   2.808   2.905 -0.0506  0.4779  0.3699
 4818TIP3    H136089   3.798   2.849   2.864  1.0256 -1.9671 -0.3064
 4818TIP3    H236090   3.754   2.783   2.993  0.0456 -0.7095  0.0218
 4819TIP3   OH236091   5.059   5.005   1.358 -0.0938  0.0110  0.1455
 4819TIP3    H136092   5.074   4.984   1.450 -0.2440 -0.0105  0.1665
 4819TIP3    H236093   4.979   4.956   1.336 -0.9332  1.2162  0.4218
 4820TIP3   OH236094   6.557   0.416   2.244 -0.1246 -0.5211 -0.0833
 4820TIP3    H136095   6.589   0.417   2.334 -0.4019  0.2663  0.0158
 4820TIP3    H236096   6.634   0.390   2.192  0.2769 -0.1312  0.3000
 4821TIP3   OH236097   2.379   3.543   0.296 -0.2500 -0.2529 -0.1438
 4821TIP3    H136098   2.420   3.459   0.279  0.1170 -0.1857  0.3859
 4821TIP3    H236099   2.300   3.522   0.346  0.1939 -0.2510  0.5880
 4822TIP3   OH236100   2.683   3.397   2.265 -0.3025  0.6998 -0.5323
 4822TIP3    H136101   2.621   3.435   2.203  0.2104  2.3491 -0.0625
 4822TIP3    H236102   2.693   3.306   2.236 -0.9217  1.1309 -2.1895
 4823TIP3   OH236103   1.747   4.011   1.443 -0.3246 -0.2590 -0.1427
 4823TIP3    H136104   1.679   3.951   1.411  1.3345 -1.1695 -2.2373
 4823TIP3    H236105   1.702   4.095   1.452 -2.0096 -1.1085 -0.2025
 4824TIP3   OH236106   3.466   3.268   1.298  0.8521  0.4936 -0.5975
 4824TIP3    H136107   3.486   3.350   1.253  0.2740  1.2788  0.5224
 4824TIP3    H236108   3.377   3.279   1.329  1.2488  0.0117  0.7796
 4825TIP3   OH236109   4.422   2.285   2.047 -0.6110 -0.5270  0.3566
 4825TIP3    H136110   4.398   2.261   2.136  0.4498 -1.0665  0.5125
 4825TIP3    H236111   4.471   2.366   2.056 -2.5654  0.7513  0.0082
 4826TIP3   OH236112   3.861   4.532   0.260  0.4973  0.6836  0.1163
 4826TIP3    H136113   3.943   4.489   0.238  0.7343  1.9895 -1.7177
 4826TIP3    H236114   3.795   4.488   0.206  0.4218  1.3003 -0.3033
 4827TIP3   OH236115   4.116   6.869   7.395 -0.4690  0.1818 -0.7186
 4827TIP3    H136116   4.175   6.795   7.408 -0.9548 -0.2352 -0.8555
 4827TIP3    H236117   4.145   6.935   7.458  0.7431  0.3537 -1.4163
 4828TIP3   OH236118   1.624   4.293   8.592 -0.5235 -0.0858 -0.5598
 4828TIP3    H136119   1.551   4.327   8.540 -0.0736  0.2650 -0.9762
 4828TIP3    H236120   1.604   4.320   8.682 -0.7527  0.2761 -0.7144
 4829TIP3   OH236121   0.569   3.871   8.547  0.3890  0.0865 -0.0550
 4829TIP3    H136122   0.552   3.950   8.496  0.3726  0.6153  0.7556
 4829TIP3    H236123   0.603   3.808   8.483 -3.0443 -0.5341 -1.4917
 4830TIP3   OH236124   6.652   4.840   0.958 -0.7269 -0.2600 -0.3596
 4830TIP3    H136125   6.691   4.840   0.870  1.5659  0.7250  0.6053
 4830TIP3    H236126   6.718   4.800   1.014 -2.0243 -0.5831  1.0129
 4831TIP3   OH236127   3.656   3.218   1.868  0.1168  0.1132  0.5552
 4831TIP3    H136128   3.588   3.183   1.926  1.1814  0.0685  1.8108
 4831TIP3    H236129   3.617   3.298   1.832 -1.1106 -0.6343  0.1648
 4832TIP3   OH236130   5.784   0.741   2.273  0.5216 -0.3926  0.8065
 4832TIP3    H136131   5.697   0.716   2.303  0.6420 -1.6690  0.1444
 4832TIP3    H236132   5.840   0.728   2.350  0.1590  0.3824  1.2177
 4833TIP3   OH236133   0.903   0.033   2.219 -0.2474  0.1703  0.0055
 4833TIP3    H136134   0.991   0.017   2.183  0.3100  2.1509  0.3447
 4833TIP3    H236135   0.920   0.079   2.302 -1.6016 -0.7737  0.8530
 4834TIP3   OH236136   2.333   0.790   8.030 -0.3998 -0.7362  0.5330
 4834TIP3    H136137   2.300   0.729   8.096  1.2685 -1.4667  0.7453
 4834TIP3    H236138   2.365   0.865   8.080  0.4403 -1.0881  0.5391
 4835TIP3   OH236139   2.770   4.113   8.583  0.2656 -0.0217  0.3757
 4835TIP3    H136140   2.790   4.131   8.492  1.1796  2.4345  0.9870
 4835TIP3    H236141   2.679   4.083   8.582  0.6558 -1.3010 -1.4291
 4836TIP3   OH236142   2.214   2.237   0.650 -0.7895  0.2265 -0.1677
 4836TIP3    H136143   2.272   2.281   0.713  0.6046 -0.4314 -0.9446
 4836TIP3    H236144   2.163   2.176   0.702  2.3257 -2.3872  0.1022
 4837TIP3   OH236145   1.918   6.258   7.252 -0.0360  0.2690  0.0048
 4837TIP3    H136146   1.943   6.298   7.169 -0.7662 -1.4376 -1.0900
 4837TIP3    H236147   1.933   6.164   7.239 -0.8754 -0.1120  1.5415
 4838TIP3   OH236148   4.012   6.145   2.571 -0.2425 -0.1164  0.0951
 4838TIP3    H136149   3.929   6.098   2.572 -0.0392 -0.5512 -1.2467
 4838TIP3    H236150   4.079   6.077   2.579  0.0149  0.0893 -0.2531
 4839TIP3   OH236151   0.697   6.840   8.659  0.0060  0.2078  0.2693
 4839TIP3    H136152   0.660   6.792   8.732 -0.0406  0.7962  0.6415
 4839TIP3    H236153   0.651   6.924   8.659 -1.3948 -0.4857 -1.6353
 4840TIP3   OH236154   2.236   6.644   0.238 -0.4487 -0.4095  0.9080
 4840TIP3    H136155   2.140   6.645   0.231 -0.3903 -0.7369 -0.1235
 4840TIP3    H236156   2.265   6.609   0.154  0.6529  1.1305  0.6103
 4841TIP3   OH236157   4.172   3.112   2.426  0.6559  0.2830 -0.1639
 4841TIP3    H136158   4.082   3.105   2.395  0.5896  0.9165 -0.1298
 4841TIP3    H236159   4.186   3.206   2.439  0.3291  0.0073  2.7624
 4842TIP3   OH236160   2.840   0.542   2.060 -0.4399  0.4953 -0.4729
 4842TIP3    H136161   2.894   0.464   2.054 -2.8153 -1.4238  0.8841
 4842TIP3    H236162   2.828   0.570   1.970 -0.9281 -1.8145 -1.2020
 4843TIP3   OH236163   4.874   5.095   2.223 -0.1720 -0.8334  0.4606
 4843TIP3    H136164   4.868   5.004   2.196  2.2059 -1.5826  2.1052
 4843TIP3    H236165   4.908   5.141   2.146  1.2663 -1.8966  0.4117
 4844TIP3   OH236166   3.190   6.503   0.111 -0.1399  0.2166  0.1382
 4844TIP3    H136167   3.217   6.589   0.079 -0.0801  0.2078  0.1661
 4844TIP3    H236168   3.094   6.507   0.110 -0.1536 -0.0069 -0.6568
 4845TIP3   OH236169   3.137   5.744   1.203 -0.0760 -0.2034 -0.8257
 4845TIP3    H136170   3.157   5.789   1.285  0.5584 -0.2471 -0.9513
 4845TIP3    H236171   3.061   5.789   1.168  0.6307  0.8710 -1.0166
 4846TIP3   OH236172   6.258   3.876   2.541 -0.1132  0.3246 -0.1440
 4846TIP3    H136173   6.318   3.942   2.576  0.3587  0.5620 -1.3492
 4846TIP3    H236174   6.236   3.821   2.617  2.8224 -0.6910  0.0960
 4847TIP3   OH236175   2.659   1.086   0.511 -0.8081 -0.0474  0.6205
 4847TIP3    H136176   2.635   1.074   0.419 -1.0003  0.7725  0.5619
 4847TIP3    H236177   2.729   1.151   0.510  1.0695 -1.9631  0.8423
 4848TIP3   OH236178   1.413   5.247   7.471 -0.4811  0.0287 -0.4860
 4848TIP3    H136179   1.340   5.228   7.530  0.1321 -0.5285  0.1047
 4848TIP3    H236180   1.490   5.250   7.527  0.1495 -0.7222 -1.2714
 4849TIP3   OH236181   2.888   2.396   0.345 -0.4411 -0.0341  0.2442
 4849TIP3    H136182   2.839   2.370   0.266  1.2595 -1.8319 -0.3041
 4849TIP3    H236183   2.979   2.374   0.324  0.0862 -0.3260  2.6395
 4850TIP3   OH236184   2.610   2.322   0.857  0.8721  0.1060  0.0694
 4850TIP3    H136185   2.589   2.266   0.932 -0.3714 -1.3401 -1.2918
 4850TIP3    H236186   2.692   2.286   0.823  0.0716 -0.9691 -0.8089
 4851TIP3   OH236187   2.565   0.317   7.542 -0.1204  0.6410 -0.5085
 4851TIP3    H136188   2.558   0.312   7.637 -1.0680  2.3245 -0.4572
 4851TIP3    H236189   2.483   0.356   7.514 -0.3885 -0.9637 -2.1615
 4852TIP3   OH236190   0.048   0.050   1.384 -0.0399 -0.3724  0.4759
 4852TIP3    H136191   0.042  -0.045   1.376 -0.7180 -0.3283  0.4304
 4852TIP3    H236192   0.111   0.064   1.455  0.1450 -0.8522  0.4099
 4853TIP3   OH236193   5.507   2.189   7.518  0.4481 -0.2419  0.4350
 4853TIP3    H136194   5.581   2.196   7.579  1.5459 -1.6424 -0.6591
 4853TIP3    H236195   5.478   2.099   7.525 -0.4158 -0.0120  0.0030
 4854TIP3   OH236196   4.657   2.030   7.970 -0.3333  0.6527 -0.1898
 4854TIP3    H136197   4.659   2.123   7.993 -0.3654  0.8115 -0.8185
 4854TIP3    H236198   4.649   1.985   8.054  0.4951  1.1820  0.1874
 4855TIP3   OH236199   6.254   5.602   8.057  0.0863  0.2464 -0.0372
 4855TIP3    H136200   6.189   5.575   7.991 -0.0995 -1.3811  0.7648
 4855TIP3    H236201   6.327   5.637   8.005 -1.1582  1.5804 -0.9755
 4856TIP3   OH236202   0.712   3.632   0.535 -0.6780  0.5068 -0.3491
 4856TIP3    H136203   0.656   3.599   0.465  0.0722  1.1386 -1.2559
 4856TIP3    H236204   0.773   3.691   0.492  0.5291  0.0281  0.6578
 4857TIP3   OH236205   5.415   6.005   0.842  0.1409 -0.5219 -0.2949
 4857TIP3    H136206   5.437   5.914   0.818 -1.6084 -0.7738 -1.1010
 4857TIP3    H236207   5.331   5.998   0.887 -0.9406  0.8227 -1.9710
 4858TIP3   OH236208   4.683   1.066   3.182  0.2096  0.0650 -0.2300
 4858TIP3    H136209   4.684   0.976   3.217  0.4698  0.1053 -0.1356
 4858TIP3    H236210   4.644   1.057   3.095  1.0212 -0.2666 -0.5696
 4859TIP3   OH236211   3.193   1.825   0.822 -0.4799 -0.2747  0.6956
 4859TIP3    H136212   3.173   1.753   0.763  0.3039 -0.5029  0.7021
 4859TIP3    H236213   3.272   1.798   0.867 -0.2845  0.5051  0.8363
 4860TIP3   OH236214   5.838   2.715   1.973 -0.0337 -0.2513  0.2413
 4860TIP3    H136215   5.894   2.756   1.907 -1.0021 -1.7557 -1.5881
 4860TIP3    H236216   5.899   2.666   2.029  0.9014  1.8131  1.1410
 4861TIP3   OH236217   0.582   2.000   8.744 -0.3842  0.3590 -0.3625
 4861TIP3    H136218   0.549   2.006   8.655 -0.5210 -1.1508 -0.4382
 4861TIP3    H236219   0.505   2.018   8.799 -0.2777  1.3876 -0.5292
 4862TIP3   OH236220   5.154   5.019   7.140 -0.4251 -0.1733  0.1941
 4862TIP3    H136221   5.216   4.952   7.112  0.5152  0.9513 -0.5560
 4862TIP3    H236222   5.068   4.977   7.134  0.1100 -1.2081 -0.5368
 4863TIP3   OH236223   1.358   2.939   2.158  0.2078  1.2342 -0.1326
 4863TIP3    H136224   1.384   2.867   2.101  0.0788  1.4170 -0.4257
 4863TIP3    H236225   1.363   2.902   2.247 -3.7639 -0.5100 -0.3852
 4864TIP3   OH236226   6.390   4.475   2.533  0.0311  0.1931 -0.0416
 4864TIP3    H136227   6.483   4.456   2.535 -0.2027 -0.9673  1.5134
 4864TIP3    H236228   6.352   4.417   2.599 -1.9184 -0.0731 -1.3152
 4865TIP3   OH236229   2.354   0.073   0.967 -0.1221 -0.4771 -0.1901
 4865TIP3    H136230   2.412   0.131   1.018 -1.9480  0.6213  0.7431
 4865TIP3    H236231   2.328   0.126   0.891  0.1546 -0.9961 -0.6496
 4866TIP3   OH236232   0.858   4.690   6.558  0.1814 -0.2407  0.0241
 4866TIP3    H136233   0.945   4.659   6.533  0.1877  0.2079 -0.5404
 4866TIP3    H236234   0.820   4.618   6.609  0.6037 -0.7348 -0.3502
 4867TIP3   OH236235   0.871   2.744   0.807 -0.5817  0.0638 -0.4694
 4867TIP3    H136236   0.829   2.663   0.778 -2.0335  0.7237 -0.2660
 4867TIP3    H236237   0.852   2.750   0.900  1.7607 -0.6586  0.1162
 4868TIP3   OH236238   6.354   5.735   1.234  0.1861  0.8343  0.0534
 4868TIP3    H136239   6.340   5.774   1.148  0.4583 -0.1591 -0.4546
 4868TIP3    H236240   6.327   5.644   1.224  1.4520  0.3658  0.6499
 4869TIP3   OH236241   6.541   1.303   8.201  0.2584 -0.4488  0.0810
 4869TIP3    H136242   6.540   1.356   8.281 -0.0103 -1.0666  0.4985
 4869TIP3    H236243   6.632   1.274   8.193 -0.0526 -1.9057  1.2175
 4870TIP3   OH236244   2.328   6.850   8.395  0.1894 -0.9296 -0.5929
 4870TIP3    H136245   2.317   6.849   8.490  0.8519  1.3065 -0.4328
 4870TIP3    H236246   2.267   6.784   8.363 -3.3118  1.1969  1.1193
 4871TIP3   OH236247   2.934   2.981   0.593  0.4461  0.0504  0.2799
 4871TIP3    H136248   2.863   2.959   0.533  0.1296  0.3136  0.5491
 4871TIP3    H236249   2.934   3.076   0.597 -0.7843  0.0304  2.1220
 4872TIP3   OH236250   3.252   4.025   0.764 -0.0524  0.0422 -0.0592
 4872TIP3    H136251   3.292   4.077   0.693  0.7401 -1.1656 -0.5248
 4872TIP3    H236252   3.168   4.067   0.780  0.8147  1.8561  0.0054
 4873TIP3   OH236253   4.872   1.596   7.888 -0.1529 -0.3898 -0.2089
 4873TIP3    H136254   4.905   1.670   7.838 -0.2023 -0.3256 -0.1455
 4873TIP3    H236255   4.807   1.555   7.830  0.6091 -0.9911 -0.6649
 4874TIP3   OH236256   0.151   2.170   3.390  0.1797  0.4904 -0.4117
 4874TIP3    H136257   0.113   2.148   3.475  2.5122 -1.7696  0.1746
 4874TIP3    H236258   0.106   2.114   3.327  1.0991 -0.7265 -0.0218
 4875TIP3   OH236259   5.972   4.837   0.020 -0.3289 -0.3086 -0.7029
 4875TIP3    H136260   5.908   4.780  -0.022 -0.8759 -1.4114  1.5151
 4875TIP3    H236261   5.987   4.798   0.106  1.5220  1.2761 -0.2271
 4876TIP3   OH236262   4.494   2.942   7.673  1.0406  0.1379  0.0788
 4876TIP3    H136263   4.402   2.960   7.696  1.2066  1.4369 -0.1784
 4876TIP3    H236264   4.510   2.853   7.705 -0.1255  0.1256  0.6893
 4877TIP3   OH236265   4.784   6.773   2.786 -0.0785 -0.0331  0.0284
 4877TIP3    H136266   4.816   6.690   2.822 -0.2193 -0.1520 -0.1192
 4877TIP3    H236267   4.714   6.799   2.846  1.0176  0.7896  0.9925
 4878TIP3   OH236268   0.968   0.199   0.096  0.4660  0.3293  0.4563
 4878TIP3    H136269   0.985   0.130   0.032  2.7350 -0.8192  2.1377
 4878TIP3    H236270   1.024   0.271   0.069 -0.5782  0.8859 -0.2972
 4879TIP3   OH236271   1.672   0.644   8.684 -0.0108 -0.5828 -0.2040
 4879TIP3    H136272   1.719   0.624   8.764 -2.0770  0.5714  1.4240
 4879TIP3    H236273   1.737   0.636   8.614  2.0024 -1.0736  1.6313
 4880TIP3   OH236274   0.374   5.027   2.138 -0.3174 -0.6996  0.2455
 4880TIP3    H136275   0.311   5.020   2.210 -0.4528  0.5164  0.2659
 4880TIP3    H236276   0.426   4.947   2.143 -1.0802 -1.1550  0.9821
 4881TIP3   OH236277   3.718   5.722   1.864 -0.6386 -0.1222 -0.0561
 4881TIP3    H136278   3.701   5.795   1.805 -0.5659 -0.4249 -0.4553
 4881TIP3    H236279   3.634   5.677   1.872 -0.7700  0.2059  0.4728
 4882TIP3   OH236280   6.824   4.132   8.547  0.6043 -0.2381 -0.3314
 4882TIP3    H136281   6.888   4.188   8.591  0.2884 -0.1677  0.0493
 4882TIP3    H236282   6.752   4.191   8.524  0.0756 -0.5502  0.4607
 4883TIP3   OH236283   5.037   6.457   1.301  0.4060  0.4321 -0.3517
 4883TIP3    H136284   4.961   6.495   1.257 -0.1828  0.2659  0.4868
 4883TIP3    H236285   5.111   6.483   1.247 -0.4822 -2.2010 -3.1517
 4884TIP3   OH236286   2.685   6.532   2.992  0.3629 -0.0870  0.8998
 4884TIP3    H136287   2.671   6.443   2.959  1.4735  0.2710 -0.6468
 4884TIP3    H236288   2.728   6.519   3.077  0.0543 -1.0122  0.9347
 4885TIP3   OH236289   6.573   0.838   8.124  0.4037 -0.5778  0.1741
 4885TIP3    H136290   6.510   0.812   8.191  0.4867 -1.3399 -0.0347
 4885TIP3    H236291   6.519   0.876   8.055  0.3408  0.4628  0.7764
 4886TIP3   OH236292   1.780   2.065   2.073 -0.3144 -0.1763  0.1299
 4886TIP3    H136293   1.841   2.104   2.010  0.9803 -0.9379  0.8698
 4886TIP3    H236294   1.710   2.029   2.019  0.5245 -0.3915 -0.8569
 4887TIP3   OH236295   6.688   3.531   1.873  0.2934  0.6432 -0.2746
 4887TIP3    H136296   6.631   3.608   1.872 -0.6746  0.0238  1.5568
 4887TIP3    H236297   6.770   3.561   1.833  0.6148  3.1927  1.9914
 4888TIP3   OH236298   5.038   1.785   1.030 -0.2956 -0.3969  0.4315
 4888TIP3    H136299   5.114   1.772   1.088 -0.2431 -1.4302  0.1544
 4888TIP3    H236300   4.963   1.756   1.082 -0.7001  1.7832  1.1590
 4889TIP3   OH236301   4.828   6.692   0.901  0.2267  0.6638 -0.4191
 4889TIP3    H136302   4.804   6.677   0.809 -0.0584  0.1514 -0.2683
 4889TIP3    H236303   4.781   6.772   0.926 -0.6259  0.1714 -0.3920
 4890TIP3   OH236304   4.454   3.163   1.712  0.8410  0.3786  0.5403
 4890TIP3    H136305   4.446   3.257   1.694 -1.1029  0.4441  1.4651
 4890TIP3    H236306   4.512   3.159   1.788  0.2928  0.9034  0.9957
 4891TIP3   OH236307   3.106   1.694   7.890 -0.0086 -0.0576 -0.0227
 4891TIP3    H136308   3.029   1.649   7.855 -0.3902  0.1937  0.4804
 4891TIP3    H236309   3.137   1.637   7.960  0.7767 -0.5797 -0.7687
 4892TIP3   OH236310   1.881   2.523   1.770 -0.0501  0.7921  0.0438
 4892TIP3    H136311   1.809   2.461   1.759 -0.2629  0.9858  0.3210
 4892TIP3    H236312   1.956   2.468   1.793 -0.5433  0.7247  1.6243
 4893TIP3   OH236313   2.070   5.811   0.931 -0.1557  0.6483 -0.1952
 4893TIP3    H136314   2.069   5.907   0.938 -0.8872  0.6341  0.0154
 4893TIP3    H236315   2.125   5.792   0.855 -1.8425  1.3350 -1.6454
 4894TIP3   OH236316   2.620   4.131   8.010 -0.4644 -0.0949 -0.3697
 4894TIP3    H136317   2.614   4.226   7.996 -0.8256 -0.0797 -0.1218
 4894TIP3    H236318   2.531   4.099   7.997 -0.4760 -0.3079  0.2182
 4895TIP3   OH236319   3.207   0.774   1.806 -0.4590 -0.0943 -0.5362
 4895TIP3    H136320   3.141   0.765   1.739 -1.0270  0.4135 -0.0546
 4895TIP3    H236321   3.160   0.808   1.882  0.0094 -1.3986  0.3777
 4896TIP3   OH236322   1.693   4.084   1.018  0.0279 -0.0517 -0.0861
 4896TIP3    H136323   1.654   4.166   0.990  1.1413  0.6162  0.2344
 4896TIP3    H236324   1.649   4.017   0.966 -0.7356  0.7668 -0.5138
 4897TIP3   OH236325   3.450   2.693   0.432 -0.2004 -0.1482 -0.1100
 4897TIP3    H136326   3.361   2.661   0.417  0.4587 -2.2577  0.1630
 4897TIP3    H236327   3.438   2.780   0.470 -2.1423 -0.5140  0.2278
 4898TIP3   OH236328   4.807   2.659   2.212  0.3071 -0.1372  0.1720
 4898TIP3    H136329   4.870   2.600   2.253 -0.0965 -1.1412 -0.6346
 4898TIP3    H236330   4.816   2.644   2.118 -0.3701  0.5041 -0.0072
 4899TIP3   OH236331   2.181   1.505   7.671  0.2925  0.2409 -0.1591
 4899TIP3    H136332   2.199   1.537   7.583  1.0047 -1.7497 -0.7727
 4899TIP3    H236333   2.249   1.440   7.688 -0.6023 -0.3603  1.3392
 4900TIP3   OH236334   3.067   0.642   1.571  0.2977  0.2611 -0.0109
 4900TIP3    H136335   3.028   0.555   1.572 -1.6393  1.0299 -1.6525
 4900TIP3    H236336   3.109   0.649   1.485 -1.5110  1.6709 -0.8481
 4901TIP3   OH236337   1.855   3.449   0.613 -0.3316  0.1111  0.3068
 4901TIP3    H136338   1.880   3.367   0.570 -1.3804 -0.2566  0.3694
 4901TIP3    H236339   1.891   3.517   0.556 -1.1128 -0.3697 -0.8080
 4902TIP3   OH236340   5.311   3.286   7.059 -0.0235  0.7559 -0.2060
 4902TIP3    H136341   5.278   3.212   7.109  0.8056 -0.1121 -0.9170
 4902TIP3    H236342   5.232   3.333   7.033 -0.4676  1.8143  2.6795
 4903TIP3   OH236343   1.189   0.195   0.822 -0.0336 -0.5250 -0.1225
 4903TIP3    H136344   1.196   0.100   0.809  1.7912 -0.2221 -1.6386
 4903TIP3    H236345   1.249   0.214   0.894  0.4075 -0.3858 -0.5257
 4904TIP3   OH236346   2.921   5.329   1.558  0.6406 -0.3413 -0.0100
 4904TIP3    H136347   2.971   5.377   1.625  2.4715  0.0149 -1.5432
 4904TIP3    H236348   2.954   5.240   1.563 -0.3140 -0.6720  0.5539
 4905TIP3   OH236349   0.990   5.138   0.551 -0.5687  0.0486  0.4818
 4905TIP3    H136350   0.950   5.160   0.635 -1.5122 -0.8149  0.2696
 4905TIP3    H236351   0.998   5.222   0.506  0.1920  0.5619  1.5178
 4906TIP3   OH236352   4.028   5.268   0.640 -0.0901 -0.0045 -0.4820
 4906TIP3    H136353   3.951   5.217   0.668 -1.3136  2.2492  0.5485
 4906TIP3    H236354   3.997   5.319   0.565 -0.1502  2.0693  0.8711
 4907TIP3   OH236355   6.744   4.110   1.167  0.1691  0.2990  0.2922
 4907TIP3    H136356   6.719   4.190   1.121  2.4774  0.0609 -1.5630
 4907TIP3    H236357   6.692   4.041   1.127  2.3642  0.0385 -2.4192
 4908TIP3   OH236358   6.637   3.433   1.452  0.0861 -0.1476 -0.3654
 4908TIP3    H136359   6.621   3.498   1.383  2.9643 -1.3356 -2.3345
 4908TIP3    H236360   6.619   3.480   1.533 -0.0365  2.4296 -1.7665
 4909TIP3   OH236361   0.998   1.169   7.309 -0.1393  0.3779 -0.3312
 4909TIP3    H136362   0.970   1.225   7.237 -2.9772  0.1833  0.4691
 4909TIP3    H236363   0.981   1.080   7.279  0.6458  0.1633 -0.1649
 4910TIP3   OH236364   4.694   1.991   2.475  0.0348 -0.0901  0.0643
 4910TIP3    H136365   4.724   2.082   2.482  0.2021 -0.1740  0.4602
 4910TIP3    H236366   4.603   1.994   2.505  0.4578 -0.2826  1.4284
 4911TIP3   OH236367   5.144   6.731   1.063 -0.7463 -0.4988  0.2756
 4911TIP3    H136368   5.100   6.685   0.991  0.5172  0.7384 -1.3582
 4911TIP3    H236369   5.160   6.663   1.128 -0.9752 -1.9100 -1.0746
 4912TIP3   OH236370   0.704   5.207   8.114 -0.4983 -0.3749 -0.5378
 4912TIP3    H136371   0.692   5.113   8.123 -2.2218 -0.1894 -0.6607
 4912TIP3    H236372   0.739   5.235   8.199 -4.4368 -0.4966  1.3375
 4913TIP3   OH236373   0.213   5.696   1.736 -0.2804 -0.0708  0.2509
 4913TIP3    H136374   0.256   5.697   1.822  1.1449 -0.3367 -0.4171
 4913TIP3    H236375   0.168   5.612   1.733  0.8711 -0.7045  0.1979
 4914TIP3   OH236376   0.620   4.150   2.350  0.2990  0.2361  0.1708
 4914TIP3    H136377   0.605   4.146   2.256  1.2158 -0.4569  0.0437
 4914TIP3    H236378   0.598   4.062   2.382 -1.3009  0.8352  0.8255
 4915TIP3   OH236379   3.940   4.519   1.178  0.6398 -0.1626  0.1078
 4915TIP3    H136380   4.000   4.582   1.138  1.9341 -0.5858  1.2669
 4915TIP3    H236381   3.927   4.451   1.111  1.5368 -0.0966 -0.1489
 4916TIP3   OH236382   6.275   5.056   1.873  0.1997  0.1425 -0.0993
 4916TIP3    H136383   6.264   5.149   1.853 -0.2239  0.0973 -0.0774
 4916TIP3    H236384   6.310   5.018   1.792 -1.3855 -0.0167 -0.7418
 4917TIP3   OH236385   2.830   0.997   8.055 -0.2282  0.1422 -0.3411
 4917TIP3    H136386   2.786   0.913   8.042 -0.8601  0.6493 -1.6010
 4917TIP3    H236387   2.781   1.039   8.125  0.6445 -0.8870  0.9484
 4918TIP3   OH236388   6.220   6.451   1.174  0.0146  0.0938 -0.8263
 4918TIP3    H136389   6.273   6.375   1.149 -1.6225 -1.2574 -0.3563
 4918TIP3    H236390   6.256   6.523   1.122  1.0994 -1.1526 -1.8816
 4919TIP3   OH236391   0.740   4.893   7.657  0.2309  0.1708 -0.1596
 4919TIP3    H136392   0.740   4.799   7.640  0.4539  0.0096  0.7263
 4919TIP3    H236393   0.698   4.903   7.742 -1.4291  1.0308 -1.0106
 4920TIP3   OH236394   4.341   2.356   0.752  0.6755  0.7869  0.0144
 4920TIP3    H136395   4.408   2.348   0.820  0.6677  0.5352 -0.0048
 4920TIP3    H236396   4.311   2.447   0.759  0.4097  0.6642  0.5970
 4921TIP3   OH236397   5.135   4.171   7.764  0.1723  0.0755  0.3346
 4921TIP3    H136398   5.173   4.189   7.850 -0.7370  1.3130  0.5070
 4921TIP3    H236399   5.207   4.184   7.702  0.3022  1.4254  0.7309
 4922TIP3   OH236400   2.447   1.476   8.123  0.2827  0.2432  0.1616
 4922TIP3    H136401   2.389   1.516   8.187  0.0652 -0.6672  0.5578
 4922TIP3    H236402   2.462   1.544   8.057 -1.6472  0.3414 -0.2172
 4923TIP3   OH236403   1.614   3.911   0.550  0.1274  0.2752 -0.1972
 4923TIP3    H136404   1.564   3.842   0.505  0.3066  0.4594 -0.6851
 4923TIP3    H236405   1.591   3.991   0.504 -1.5940  0.8757  1.5831
 4924TIP3   OH236406   6.776   2.135   0.761 -0.1094 -0.6611  0.3462
 4924TIP3    H136407   6.775   2.064   0.826 -0.5625 -0.1336  0.9328
 4924TIP3    H236408   6.712   2.198   0.794  1.4208  0.7828  0.6955
 4925TIP3   OH236409   2.600   3.705   2.455  0.0564  0.3370 -0.1208
 4925TIP3    H136410   2.660   3.647   2.502 -0.6061 -2.3690 -2.3218
 4925TIP3    H236411   2.514   3.687   2.494  0.1386  1.6186  0.7053
 4926TIP3   OH236412   3.892   0.079   1.312  0.6638 -0.1622 -0.6056
 4926TIP3    H136413   3.806   0.040   1.296  0.0794  1.7364 -2.6527
 4926TIP3    H236414   3.873   0.157   1.364  1.3532 -0.5534  0.2456
 4927TIP3   OH236415   4.674   5.571   7.946  0.6133 -0.3594 -0.0954
 4927TIP3    H136416   4.664   5.572   7.851  0.4579 -0.7214 -0.0875
 4927TIP3    H236417   4.747   5.511   7.961  0.0051 -1.0944  0.0531
 4928TIP3   OH236418   2.244   1.608   7.426  0.1288 -0.2373 -0.0945
 4928TIP3    H136419   2.298   1.546   7.377  1.1352  0.5132  0.0079
 4928TIP3    H236420   2.250   1.689   7.375  4.7292  1.9242  3.1400
 4929TIP3   OH236421   2.931   3.275   2.059 -0.2591 -0.0850  0.7485
 4929TIP3    H136422   2.997   3.209   2.079  1.3875  1.6385  1.3294
 4929TIP3    H236423   2.849   3.236   2.087  0.6260 -1.9660  0.8534
 4930TIP3   OH236424   2.169   3.068   1.922  0.0221 -0.4567  0.4733
 4930TIP3    H136425   2.176   2.976   1.894 -0.2284 -0.5145  0.5997
 4930TIP3    H236426   2.076   3.081   1.938  0.0402 -0.1340  0.3059
 4931TIP3   OH236427   2.113   4.972   1.540  0.3561  0.2417  1.1584
 4931TIP3    H136428   2.146   4.894   1.584  0.0716 -0.2950  0.4490
 4931TIP3    H236429   2.167   4.981   1.462 -1.9287 -1.4593 -0.7741
 4932TIP3   OH236430   4.570   6.189   8.084  0.2892  0.2644 -0.2617
 4932TIP3    H136431   4.500   6.181   8.019  0.9038  0.0349 -0.9080
 4932TIP3    H236432   4.624   6.261   8.052  1.0520 -0.3736 -0.4515
 4933TIP3   OH236433   0.829   3.436   2.318  0.2179 -0.5366  0.0314
 4933TIP3    H136434   0.766   3.364   2.324  0.3233 -0.7976 -1.5916
 4933TIP3    H236435   0.804   3.483   2.239  0.0376  1.3581  1.1728
 4934TIP3   OH236436   4.874   2.562   1.948  0.3570  0.1666  0.7388
 4934TIP3    H136437   4.823   2.496   1.902  0.7166  1.4819 -1.6754
 4934TIP3    H236438   4.949   2.513   1.984  0.0313 -0.9147 -0.0122
 4935TIP3   OH236439   6.308   3.194   8.081  0.7744  0.3283 -0.5869
 4935TIP3    H136440   6.346   3.138   8.149 -0.8223  0.3904  0.4064
 4935TIP3    H236441   6.380   3.208   8.019  1.6288 -1.6034 -0.1034
 4936TIP3   OH236442   3.799   1.603   2.655  0.4105  0.0442 -0.0430
 4936TIP3    H136443   3.786   1.660   2.731 -0.4329 -0.6482  0.3393
 4936TIP3    H236444   3.724   1.620   2.599 -0.8871 -2.0464  0.9507
 4937TIP3   OH236445   6.221   1.754   7.093  0.0208 -0.1371  0.3862
 4937TIP3    H136446   6.267   1.838   7.084 -1.4503  0.5607 -1.4487
 4937TIP3    H236447   6.180   1.740   7.007 -3.4250 -0.4854  1.8945
 4938TIP3   OH236448   2.507   3.173   7.697 -0.3707  0.0188 -0.3232
 4938TIP3    H136449   2.567   3.240   7.667 -1.5527  0.4972 -1.7443
 4938TIP3    H236450   2.554   3.091   7.684  0.6780  0.4935  0.4067
 4939TIP3   OH236451   0.651   0.696   0.948 -0.6309  0.0774 -0.2864
 4939TIP3    H136452   0.620   0.635   1.015  0.2616 -1.2363 -1.0196
 4939TIP3    H236453   0.588   0.688   0.877 -1.8569  1.8396  0.5375
 4940TIP3   OH236454   0.403   5.045   1.073  0.0095  0.2338  0.2673
 4940TIP3    H136455   0.323   4.993   1.066  0.9065 -1.2737  0.8652
 4940TIP3    H236456   0.374   5.135   1.056 -1.9847 -0.1333  1.3474
 4941TIP3   OH236457   3.401   1.310   7.749  0.4194 -0.3925  0.9552
 4941TIP3    H136458   3.361   1.277   7.669 -0.3250 -0.7288  1.4478
 4941TIP3    H236459   3.395   1.405   7.742  0.3925 -0.4215  0.5911
 4942TIP3   OH236460   3.020   6.681   8.347  0.6974 -0.0648 -0.2143
 4942TIP3    H136461   3.111   6.708   8.338  0.4755  0.6381 -0.4560
 4942TIP3    H236462   2.979   6.752   8.396 -0.0574  0.4288 -1.4987
 4943TIP3   OH236463   3.811   4.914   1.219 -0.1180  0.2100  0.2169
 4943TIP3    H136464   3.831   4.890   1.129 -2.5171 -1.3730  0.0032
 4943TIP3    H236465   3.802   4.830   1.265 -1.5228  0.8720  1.2446
 4944TIP3   OH236466   5.749   6.830   2.063  0.2460 -0.5975 -0.3994
 4944TIP3    H136467   5.684   6.763   2.043 -1.2444  0.6014  0.2230
 4944TIP3    H236468   5.774   6.814   2.154 -2.3682  1.3665  0.8054
 4945TIP3   OH236469   0.291   5.646   7.093 -0.1756  0.4877 -0.5351
 4945TIP3    H136470   0.368   5.702   7.107 -0.0316  1.1249 -3.2195
 4945TIP3    H236471   0.326   5.557   7.097  0.1252  0.6498  1.0538
 4946TIP3   OH236472   2.956   6.290   8.222  0.3483 -0.0098  0.5880
 4946TIP3    H136473   2.980   6.197   8.218  0.1437 -0.0278 -1.6002
 4946TIP3    H236474   3.039   6.336   8.229  0.6567 -0.2959 -0.8630
 4947TIP3   OH236475   0.285   6.736   0.805 -0.1013 -0.2821 -0.9577
 4947TIP3    H136476   0.234   6.668   0.849 -0.3213  1.5504  1.8349
 4947TIP3    H236477   0.237   6.753   0.724 -0.5405 -2.7367 -1.2918
 4948TIP3   OH236478   5.745   2.970   7.480 -0.0667 -0.0691 -0.1673
 4948TIP3    H136479   5.651   2.988   7.489 -0.2237  2.2204 -4.0428
 4948TIP3    H236480   5.786   3.024   7.547 -1.4515 -0.2314  0.8607
 4949TIP3   OH236481   2.814   2.182   8.022  0.0846  0.0389 -0.2624
 4949TIP3    H136482   2.787   2.254   8.079  1.5072 -0.8687  1.6595
 4949TIP3    H236483   2.763   2.107   8.052  0.7015 -0.4090 -0.3224
 4950TIP3   OH236484   5.622   3.323   7.534 -0.7953  0.0501  0.4440
 4950TIP3    H136485   5.658   3.406   7.566 -0.6243  0.3026 -0.3646
 4950TIP3    H236486   5.637   3.261   7.605  0.2043  0.4197  0.5760
 4951TIP3   OH236487   4.883   2.439   0.598 -0.2831 -0.0587 -0.2656
 4951TIP3    H136488   4.885   2.441   0.693 -0.0586  0.8839 -0.2798
 4951TIP3    H236489   4.790   2.445   0.576 -0.3467 -0.4389 -0.1101
 4952TIP3   OH236490   4.407   5.286   2.023 -0.4352  0.0589  0.1581
 4952TIP3    H136491   4.379   5.225   1.955 -0.7395 -0.1795  0.4945
 4952TIP3    H236492   4.333   5.291   2.083  0.4648 -1.1124  1.4334
 4953TIP3   OH236493   0.236   5.863   2.407  0.2208 -0.7633  0.1031
 4953TIP3    H136494   0.284   5.807   2.347  0.3980 -1.3547  0.7796
 4953TIP3    H236495   0.279   5.948   2.401  1.7306 -1.4211  1.1019
 4954TIP3   OH236496   4.116   1.660   1.130 -0.0520  0.4815  0.6553
 4954TIP3    H136497   4.145   1.670   1.221 -0.5985  0.3553  0.8508
 4954TIP3    H236498   4.115   1.749   1.095  1.4925  0.3999  0.3368
 4955TIP3   OH236499   3.862   3.114   0.717 -0.0521  0.1971 -0.1144
 4955TIP3    H136500   3.867   3.025   0.684  0.4746 -0.1617  0.8982
 4955TIP3    H236501   3.933   3.161   0.673 -0.4072  0.1578 -0.7412
 4956TIP3   OH236502   6.394   4.438   0.997  0.8617 -0.2118 -0.1784
 4956TIP3    H136503   6.371   4.434   0.904  0.1038 -2.0858  0.0359
 4956TIP3    H236504   6.325   4.388   1.041  3.1804 -2.7171  0.9342
 4957TIP3   OH236505   4.813   4.130   3.279  0.5045  0.3704 -0.4933
 4957TIP3    H136506   4.798   4.089   3.364  0.5911  0.8952 -0.2210
 4957TIP3    H236507   4.733   4.111   3.230  0.0763  0.8118  0.0127
 4958TIP3   OH236508   4.893   0.174   7.536  0.4542  0.1715  0.2166
 4958TIP3    H136509   4.960   0.239   7.513 -0.0932  0.0769 -1.8540
 4958TIP3    H236510   4.866   0.137   7.452 -2.5159  0.5077  0.9230
 4959TIP3   OH236511   5.099   5.587   8.096 -0.3582  0.2641 -0.0902
 4959TIP3    H136512   5.052   5.636   8.164 -1.9659  1.0325 -1.6721
 4959TIP3    H236513   5.068   5.625   8.014  0.0714 -1.9034 -1.3146
 4960TIP3   OH236514   4.975   6.465   1.889  0.0142  0.0312  0.2681
 4960TIP3    H136515   5.042   6.420   1.941  1.3570  1.5630 -0.0615
 4960TIP3    H236516   4.934   6.525   1.951  2.6100  2.9332 -0.6064
 4961TIP3   OH236517   3.617   2.951   0.925  1.1366 -0.6069 -0.1804
 4961TIP3    H136518   3.605   2.882   0.991 -1.3347 -0.0473  0.0656
 4961TIP3    H236519   3.529   2.988   0.914  2.4686  2.9924  0.1871
 4962TIP3   OH236520   3.752   2.543   2.332  0.0838 -0.2241 -0.6619
 4962TIP3    H136521   3.784   2.498   2.253  1.5149  0.7471 -0.6522
 4962TIP3    H236522   3.699   2.615   2.298  0.4730  0.0285 -0.7393
 4963TIP3   OH236523   0.422   5.911   8.002 -0.4317  0.1226 -0.0346
 4963TIP3    H136524   0.445   5.935   7.913  0.0716 -0.5791 -0.1026
 4963TIP3    H236525   0.400   5.994   8.045 -0.5466  0.4764 -0.7651
 4964TIP3   OH236526   6.233   5.453   1.201  0.5546  0.3372  0.0793
 4964TIP3    H136527   6.214   5.452   1.107  0.6127  2.2606  0.0094
 4964TIP3    H236528   6.161   5.404   1.240 -1.8343  2.9476 -0.6559
 4965TIP3   OH236529   5.097   4.864   0.003 -0.0117 -0.1091 -0.2850
 4965TIP3    H136530   5.085   4.863  -0.092 -0.7557 -0.9473 -0.2041
 4965TIP3    H236531   5.157   4.791   0.020 -0.4489 -0.4216 -0.0558
 4966TIP3   OH236532   6.579   0.354   0.836  0.1776  0.0303  0.0461
 4966TIP3    H136533   6.509   0.353   0.771  0.3094  1.2474 -0.1371
 4966TIP3    H236534   6.658   0.373   0.786  0.6613 -1.3293  0.2505
 4967TIP3   OH236535   2.076   3.639   8.143 -0.6054 -0.0562  0.1169
 4967TIP3    H136536   2.126   3.698   8.200  0.0060 -0.5373  0.0931
 4967TIP3    H236537   2.102   3.551   8.172 -3.7481 -0.4328  2.2183
 4968TIP3   OH236538   3.120   6.851   1.297 -0.1322  0.2457  0.0082
 4968TIP3    H136539   3.155   6.879   1.213  0.1816  1.4233  0.5154
 4968TIP3    H236540   3.184   6.787   1.330  0.4791  0.8390 -0.0124
 4969TIP3   OH236541   5.619   1.781   2.971  0.1559  0.4918 -0.3437
 4969TIP3    H136542   5.564   1.710   3.002 -1.3932  0.8613 -2.0834
 4969TIP3    H236543   5.558   1.852   2.951  1.4156  1.4622 -0.8778
 4970TIP3   OH236544   2.352   6.190   8.671 -0.2943  0.1057 -0.1051
 4970TIP3    H136545   2.391   6.278   8.674  1.6197 -0.7340  1.7796
 4970TIP3    H236546   2.405   6.143   8.606  0.9561 -0.6044  1.3788
 4971TIP3   OH236547   0.422   2.347   0.747  0.0705  0.3554  0.1863
 4971TIP3    H136548   0.444   2.390   0.665 -2.0122  1.5614  0.1927
 4971TIP3    H236549   0.341   2.299   0.728 -0.5710  0.8407  1.5716
 4972TIP3   OH236550   0.072   4.670   0.412 -0.0281  0.1323 -0.2950
 4972TIP3    H136551  -0.008   4.650   0.363  0.3368 -0.6597 -0.5779
 4972TIP3    H236552   0.138   4.687   0.345  0.0165  0.9210 -0.0609
 4973TIP3   OH236553   1.197   2.503   8.030  0.4055  0.2926  0.2471
 4973TIP3    H136554   1.124   2.483   8.088  0.6549  0.3326  0.5727
 4973TIP3    H236555   1.157   2.552   7.958 -0.3109 -1.5932 -0.7452
 4974TIP3   OH236556   6.671   4.709   8.527 -0.5613 -0.2095  0.2622
 4974TIP3    H136557   6.725   4.724   8.449  1.2392 -0.0890  1.4700
 4974TIP3    H236558   6.677   4.791   8.576  0.1725 -1.0168  1.5736
 4975TIP3   OH236559   4.142   6.498   0.259  0.5075 -0.7624 -0.4130
 4975TIP3    H136560   4.142   6.593   0.252 -1.1217 -0.7045  0.0597
 4975TIP3    H236561   4.229   6.477   0.295  0.5219  0.6227  0.4237
 4976TIP3   OH236562   6.471   1.494   1.686  0.0641 -0.1886  0.4481
 4976TIP3    H136563   6.497   1.432   1.755 -0.5034  0.1507  0.9781
 4976TIP3    H236564   6.398   1.452   1.642  1.1199 -0.9040 -0.6975
 4977TIP3   OH236565   2.437   5.888   2.469 -0.0659  0.2519  0.0937
 4977TIP3    H136566   2.454   5.968   2.419  0.0760  0.2206  0.0930
 4977TIP3    H236567   2.341   5.880   2.469 -0.0873  0.5290  0.2661
 4978TIP3   OH236568   0.856   6.737   3.000  0.4488 -0.3011 -0.2553
 4978TIP3    H136569   0.890   6.747   3.089  2.5920 -0.1260 -1.0173
 4978TIP3    H236570   0.776   6.789   2.998  0.7812  0.3186  1.3616
 4979TIP3   OH236571   5.938   3.247   7.462  0.6849 -0.2528  0.0571
 4979TIP3    H136572   5.941   3.254   7.366 -1.3221 -1.4277 -0.1455
 4979TIP3    H236573   5.846   3.262   7.484  0.9559 -0.8753  1.7154
 4980TIP3   OH236574   5.954   0.813   8.689  0.1310  0.4378  0.3390
 4980TIP3    H136575   5.872   0.850   8.657 -0.4046 -0.6123  0.4619
 4980TIP3    H236576   5.930   0.728   8.725  1.1363  0.4804  1.1707
 4981TIP3   OH236577   4.594   4.528   7.647  0.5048 -0.0640 -0.2359
 4981TIP3    H136578   4.635   4.607   7.613 -1.3085  1.7733  1.5969
 4981TIP3    H236579   4.538   4.497   7.575  1.3749  0.1529 -1.0322
 4982TIP3   OH236580   0.689   2.183   2.570 -0.2847  0.1966 -0.2870
 4982TIP3    H136581   0.613   2.150   2.523  0.4634 -1.1986 -0.5801
 4982TIP3    H236582   0.670   2.165   2.662  0.6170 -2.3337 -0.5101
 4983TIP3   OH236583   6.504   6.545   2.155 -0.2472 -0.2823  0.1952
 4983TIP3    H136584   6.428   6.537   2.212  0.8466 -0.0248  1.7363
 4983TIP3    H236585   6.553   6.464   2.168 -0.0607 -0.2885 -0.5011
 4984TIP3   OH236586   1.088   0.105   6.973  0.1632  0.0676  0.4019
 4984TIP3    H136587   1.069   0.012   6.976 -0.6853  0.2080 -0.1374
 4984TIP3    H236588   1.165   0.113   6.917 -0.3190 -0.2392 -0.3231
 4985TIP3   OH236589   0.374   2.471   7.024  0.2871 -0.6704 -0.0933
 4985TIP3    H136590   0.350   2.382   7.050 -0.3107 -0.6047 -0.4004
 4985TIP3    H236591   0.321   2.527   7.082  0.6814 -0.5092  0.1187
 4986TIP3   OH236592   4.924   4.757   8.203 -0.3365 -0.1844 -0.4707
 4986TIP3    H136593   4.976   4.678   8.187 -0.9333 -0.7757  0.4738
 4986TIP3    H236594   4.833   4.729   8.190 -0.4675  0.9467 -2.5589
 4987TIP3   OH236595   0.544   2.888   0.333 -0.6647 -0.0636 -0.2193
 4987TIP3    H136596   0.594   2.889   0.251 -1.4083 -1.3933 -0.7057
 4987TIP3    H236597   0.551   2.798   0.365  0.7951  0.7236  1.9620
 4988TIP3   OH236598   2.678   1.831   1.215  0.6052  0.0478 -0.1707
 4988TIP3    H136599   2.637   1.762   1.268  1.3806 -0.5925 -0.3817
 4988TIP3    H236600   2.712   1.893   1.279 -1.8975  1.3643  0.0088
 4989TIP3   OH236601   2.377   3.042   0.349  0.4081 -0.5203 -0.5640
 4989TIP3    H136602   2.419   3.123   0.379 -0.7595  0.0652 -0.4138
 4989TIP3    H236603   2.362   3.057   0.256  1.9744 -1.3999 -0.9828
 4990TIP3   OH236604   1.281   3.177   7.448  0.1433 -0.1349 -0.1714
 4990TIP3    H136605   1.212   3.142   7.392 -0.4955  0.8374 -0.0262
 4990TIP3    H236606   1.234   3.216   7.522  0.9219 -0.5091  0.5258
 4991TIP3   OH236607   2.482   2.112   2.055  0.4690 -0.1729  0.4276
 4991TIP3    H136608   2.539   2.064   2.115  2.8616  1.0108 -0.7524
 4991TIP3    H236609   2.531   2.117   1.973 -0.9684  1.6508 -0.4144
 4992TIP3   OH236610   2.597   0.857   0.071 -0.1682  0.3219 -0.7704
 4992TIP3    H136611   2.674   0.853   0.015 -1.0454  2.5630 -2.2727
 4992TIP3    H236612   2.617   0.928   0.133 -0.9629  0.8855 -1.1402
 4993TIP3   OH236613   4.184   0.602   2.255  0.6126 -0.6055 -0.7172
 4993TIP3    H136614   4.131   0.601   2.175 -1.2981  0.6121  0.4382
 4993TIP3    H236615   4.223   0.689   2.258  1.0099 -0.7872 -0.5334
 4994TIP3   OH236616   4.940   3.994   8.007  0.4757 -0.0373  0.7510
 4994TIP3    H136617   4.963   4.072   8.057 -1.9903  0.6914  0.8944
 4994TIP3    H236618   4.937   4.024   7.916  2.0450 -0.6402  0.4697
 4995TIP3   OH236619   3.696   1.903   8.063  0.0664 -0.2374  0.4879
 4995TIP3    H136620   3.687   1.999   8.057 -3.4616 -0.5229 -1.4911
 4995TIP3    H236621   3.738   1.878   7.980 -0.3291 -0.5128  0.3715
 4996TIP3   OH236622   1.446   1.231   8.089 -0.0906  0.2835  0.1474
 4996TIP3    H136623   1.469   1.300   8.150  0.5471  0.4247 -0.2431
 4996TIP3    H236624   1.377   1.269   8.035  0.5245  0.7613 -0.3170
 4997TIP3   OH236625   2.911   3.574   2.059 -0.2028 -0.1955 -0.2331
 4997TIP3    H136626   2.856   3.617   2.125  1.8107  1.8360  0.2426
 4997TIP3    H236627   2.934   3.490   2.099 -2.0358 -0.6550 -0.0238
 4998TIP3   OH236628   0.444   2.367   2.665  0.4725 -0.3193  0.7298
 4998TIP3    H136629   0.405   2.450   2.693 -1.7386 -0.0051 -2.6760
 4998TIP3    H236630   0.432   2.308   2.740 -3.8947  0.6769  1.0556
 4999TIP3   OH236631   3.340   3.149   8.556  0.9158 -0.7638 -0.1579
 4999TIP3    H136632   3.320   3.167   8.647  0.3364 -0.1849 -0.3925
 4999TIP3    H236633   3.318   3.057   8.544  0.9116 -0.8169  0.2565
 5000TIP3   OH236634   0.673   4.166   0.687 -0.3595  0.9105 -0.0657
 5000TIP3    H136635   0.688   4.092   0.746  0.3752  1.5493  0.5933
 5000TIP3    H236636   0.578   4.175   0.683 -0.4390  0.3850  0.4325
 5001TIP3   OH236637   6.095   6.420   1.860 -0.8903  0.1194 -0.0833
 5001TIP3    H136638   6.009   6.384   1.837  0.4198 -0.8185 -4.3718
 5001TIP3    H236639   6.158   6.358   1.823  1.8403  0.3455  3.5437
 5002TIP3   OH236640   0.572   2.703   2.812 -0.4056  0.7139 -0.2317
 5002TIP3    H136641   0.501   2.639   2.805 -0.4403  0.8819 -1.8262
 5002TIP3    H236642   0.630   2.667   2.879 -0.4596 -0.9720 -1.0256
 5003TIP3   OH236643   0.928   6.619   0.511  0.1966  0.1321 -0.6783
 5003TIP3    H136644   0.926   6.549   0.445 -0.0387 -0.1039 -0.4231
 5003TIP3    H236645   0.846   6.666   0.498 -0.8426 -1.1709  0.7838
 5004TIP3   OH236646   4.882   0.675   8.358 -0.2164  0.1789  0.2154
 5004TIP3    H136647   4.802   0.627   8.339  0.0434  0.6137 -2.2575
 5004TIP3    H236648   4.890   0.671   8.453 -1.5098 -2.5102  0.3011
 5005TIP3   OH236649   5.378   4.803   8.233 -0.6731 -0.8309  0.2337
 5005TIP3    H136650   5.433   4.866   8.185 -1.4189  0.4040  0.9314
 5005TIP3    H236651   5.305   4.786   8.175 -0.9169 -0.3560  0.3992
 5006TIP3   OH236652   6.272   5.180   7.358 -0.4623  0.2912 -0.0800
 5006TIP3    H136653   6.191   5.165   7.309  0.4523 -0.0006 -1.5449
 5006TIP3    H236654   6.306   5.263   7.325  0.4431 -0.1705 -0.3283
 5007TIP3   OH236655   0.483   6.202   8.070  0.3842  1.0284  0.1310
 5007TIP3    H136656   0.578   6.206   8.085  0.8468 -0.5948 -1.9222
 5007TIP3    H236657   0.446   6.257   8.139  2.7123  0.6035  1.8561
 5008TIP3   OH236658   5.524   0.933   0.874  0.1021  0.1670 -0.3923
 5008TIP3    H136659   5.452   0.943   0.812 -1.0620 -2.8325  0.2728
 5008TIP3    H236660   5.522   0.840   0.898  0.9906  0.9599  3.5136
 5009TIP3   OH236661   0.438   5.851   2.206  0.4780  0.2132  0.0789
 5009TIP3    H136662   0.472   5.779   2.154 -2.4629 -0.9416 -0.3960
 5009TIP3    H236663   0.403   5.913   2.142 -1.9044 -0.5689  0.5225
 5010TIP3   OH236664   5.001   5.069   2.870  0.5514 -0.1377 -0.0741
 5010TIP3    H136665   4.971   5.105   2.953 -0.5502  2.8322 -1.5765
 5010TIP3    H236666   5.041   4.986   2.892 -0.2236  0.2485  3.3178
 5011TIP3   OH236667   3.085   3.529   0.477  0.1501 -0.3339  0.3683
 5011TIP3    H136668   3.169   3.487   0.490  1.6524  1.9163 -1.2763
 5011TIP3    H236669   3.092   3.613   0.522  0.0820  1.2625 -2.3357
 5012TIP3   OH236670   1.521   3.618   1.059 -0.0886  0.7612  0.2081
 5012TIP3    H136671   1.441   3.592   1.105 -0.4427  0.3482 -0.6152
 5012TIP3    H236672   1.578   3.653   1.127 -0.5648  0.0814  0.9690
 5013TIP3   OH236673   1.157   6.653   8.030  0.2446 -0.8331  0.4132
 5013TIP3    H136674   1.240   6.696   8.048  0.7963 -0.3991 -2.6514
 5013TIP3    H236675   1.091   6.717   8.055  0.9763  0.4524 -0.8045
 5014TIP3   OH236676   5.831   5.872   8.652  0.8471 -0.0097  0.1521
 5014TIP3    H136677   5.763   5.807   8.633  0.6134 -0.1540  1.4000
 5014TIP3    H236678   5.781   5.952   8.670  0.9900 -0.1583  1.2398
 5015TIP3   OH236679   2.623   5.894   7.475  0.1810 -0.2348  0.1996
 5015TIP3    H136680   2.674   5.819   7.446 -0.1735  0.0274 -1.1471
 5015TIP3    H236681   2.598   5.940   7.395 -0.0233  1.0568  0.9644
 5016TIP3   OH236682   2.147   2.569   7.025  0.4455  0.1418 -0.4573
 5016TIP3    H136683   2.148   2.660   6.997  0.7443  0.3848  0.3105
 5016TIP3    H236684   2.057   2.552   7.051  0.0839 -0.1887 -1.8422
 5017TIP3   OH236685   3.882   1.873   7.857  0.1031  0.2842 -0.5659
 5017TIP3    H136686   3.941   1.870   7.932 -0.3517  0.6792 -0.1823
 5017TIP3    H236687   3.938   1.891   7.782  0.6568 -0.7991 -0.4271
 5018TIP3   OH236688   4.841   2.790   7.110  0.0241  0.0511 -0.0561
 5018TIP3    H136689   4.840   2.698   7.133  0.0013 -0.0141 -0.3166
 5018TIP3    H236690   4.905   2.829   7.169 -1.1281  0.1634  1.1550
 5019TIP3   OH236691   6.067   6.662   8.233  0.0316  0.0136 -0.5436
 5019TIP3    H136692   6.071   6.567   8.227 -0.8516 -0.1676  1.0354
 5019TIP3    H236693   6.026   6.678   8.318  0.4776  1.8111 -0.6394
 5020TIP3   OH236694   3.076   4.611   0.665 -0.2271  0.0483  0.8333
 5020TIP3    H136695   3.050   4.664   0.741  2.2816  2.4984  0.1348
 5020TIP3    H236696   3.162   4.645   0.640 -1.1337 -0.2327 -3.4367
 5021TIP3   OH236697   2.805   5.500   8.014 -0.1335 -0.3427  0.3464
 5021TIP3    H136698   2.717   5.475   7.989  0.3412 -1.1106 -0.5854
 5021TIP3    H236699   2.858   5.489   7.935  0.8052  0.0858  0.8868
 5022TIP3   OH236700   6.510   2.384   1.920  0.5426  0.5417  0.9318
 5022TIP3    H136701   6.484   2.449   1.855  1.6469  0.8293  0.7465
 5022TIP3    H236702   6.597   2.355   1.891  0.1595 -0.8639  1.1361
 5023TIP3   OH236703   5.549   4.717   0.610 -0.0150  0.1718  0.2726
 5023TIP3    H136704   5.510   4.750   0.691  0.7695  0.5638  0.4989
 5023TIP3    H236705   5.506   4.632   0.595 -0.7025  0.4388  0.6884
 5024TIP3   OH236706   5.965   1.378   2.102  0.4079 -0.1751  0.2376
 5024TIP3    H136707   6.047   1.330   2.108  0.7298  0.0328 -1.7676
 5024TIP3    H236708   5.991   1.469   2.092 -0.1083  0.0066  0.5004
 5025TIP3   OH236709   6.773   0.388   0.344  0.1811  0.0287  0.7814
 5025TIP3    H136710   6.717   0.311   0.347 -0.3375  0.3479 -0.3331
 5025TIP3    H236711   6.714   0.460   0.324  0.4726  0.9243  2.8390
 5026TIP3   OH236712   1.689   2.872   1.283 -0.4931  0.5903 -0.5068
 5026TIP3    H136713   1.728   2.949   1.240  0.1100  0.1153 -0.8275
 5026TIP3    H236714   1.741   2.798   1.251 -0.7529  0.1036  0.1834
 5027TIP3   OH236715   0.041   6.769   2.224  0.0015  0.2343 -0.1952
 5027TIP3    H136716  -0.010   6.688   2.221 -0.9293  0.8063 -0.0621
 5027TIP3    H236717   0.132   6.740   2.215 -0.3314 -0.8081 -0.3267
 5028TIP3   OH236718   6.799   1.023   2.474 -0.3408  0.0334 -0.6312
 5028TIP3    H136719   6.823   0.990   2.388  1.5865 -0.7169  0.1410
 5028TIP3    H236720   6.787   0.944   2.527  0.8757  0.4945  0.3669
 5029TIP3   OH236721   2.208   2.358   8.254 -0.2979 -0.1164 -0.1411
 5029TIP3    H136722   2.157   2.363   8.173 -0.2816 -0.5253 -0.1756
 5029TIP3    H236723   2.281   2.419   8.239 -1.6034  1.7232  0.5285
 5030TIP3   OH236724   2.544   6.435   2.676  0.5033 -0.4270  0.0528
 5030TIP3    H136725   2.588   6.389   2.749 -1.4016 -0.9802  0.9097
 5030TIP3    H236726   2.567   6.383   2.599  0.3086 -1.4834  0.6746
 5031TIP3   OH236727   6.587   3.635   8.322  0.2543  0.2051 -0.0898
 5031TIP3    H136728   6.639   3.555   8.316  1.0160  0.5967  0.9810
 5031TIP3    H236729   6.497   3.604   8.336  0.5862 -0.4758  0.6011
 5032TIP3   OH236730   6.057   0.253   8.619  0.2648 -0.0668  0.4277
 5032TIP3    H136731   6.120   0.278   8.551  1.1405  1.5258  1.7398
 5032TIP3    H236732   5.991   0.201   8.573  0.6432  1.2124 -1.7116
 5033TIP3   OH236733   6.595   0.817   7.690 -0.4769 -0.6486  0.1751
 5033TIP3    H136734   6.565   0.903   7.661 -0.3472  0.0490  1.9980
 5033TIP3    H236735   6.515   0.765   7.699 -0.7012 -0.2445  0.5237
 5034TIP3   OH236736   6.608   4.813   7.983  0.0217 -0.5062  0.1023
 5034TIP3    H136737   6.666   4.746   7.946  0.4946  1.0136 -2.1070
 5034TIP3    H236738   6.585   4.869   7.908 -3.4343 -0.3682  1.1103
 5035TIP3   OH236739   3.184   1.211   2.819  0.2565  0.2373 -0.1142
 5035TIP3    H136740   3.116   1.208   2.751 -1.0715 -0.2661  1.1671
 5035TIP3    H236741   3.244   1.140   2.797 -1.8244 -1.9586  0.8347
 5036TIP3   OH236742   0.365   2.942   0.143 -0.4525 -0.4771 -0.1669
 5036TIP3    H136743   0.287   2.992   0.167  0.7117  2.5735 -2.1626
 5036TIP3    H236744   0.408   2.923   0.226 -1.8780  0.2649  0.7887
 5037TIP3   OH236745   3.847   0.333   2.683 -0.7410  0.0009  0.0105
 5037TIP3    H136746   3.908   0.406   2.678  0.8284 -1.1387  1.5426
 5037TIP3    H236747   3.763   0.374   2.706  0.3304  1.2659  1.9241
 5038TIP3   OH236748   4.372   2.184   2.333 -0.0456  0.0368 -0.0843
 5038TIP3    H136749   4.326   2.163   2.415 -1.3059  1.1522 -0.4809
 5038TIP3    H236750   4.461   2.152   2.347 -0.6231 -1.1072  1.1632
 5039TIP3   OH236751   5.732   5.888   0.245  0.1400  0.3097 -0.0194
 5039TIP3    H136752   5.790   5.820   0.281 -0.6692  0.8348  2.5430
 5039TIP3    H236753   5.791   5.959   0.220  1.0192 -1.2768 -2.9032
 5040TIP3   OH236754   0.556   0.525   2.461  0.2293 -0.1476  0.2105
 5040TIP3    H136755   0.543   0.449   2.518 -0.2056 -0.3660 -0.1721
 5040TIP3    H236756   0.527   0.495   2.375  0.4499  0.3253 -0.0315
 5041TIP3   OH236757   1.462   5.991   1.258  0.3859 -0.0292  0.4460
 5041TIP3    H136758   1.530   5.935   1.219 -0.3246 -0.7612  0.2237
 5041TIP3    H236759   1.404   6.011   1.185  0.6509  1.0508  0.5227
 5042TIP3   OH236760   0.078   5.842   3.151  0.4258 -0.4259 -0.5610
 5042TIP3    H136761   0.003   5.857   3.093  1.3398 -0.4047 -1.7794
 5042TIP3    H236762   0.094   5.926   3.193 -0.5091 -0.5478  0.0583
 5043TIP3   OH236763   6.116   4.076   0.026  0.0238 -0.5698  0.2118
 5043TIP3    H136764   6.179   4.149   0.025 -1.9681  1.3860 -3.5014
 5043TIP3    H236765   6.088   4.071   0.118  2.6998  1.0253  1.2505
 5044TIP3   OH236766   5.632   2.734   8.620 -0.2541 -0.1645 -1.0309
 5044TIP3    H136767   5.699   2.687   8.671 -1.0746  1.0717  1.3560
 5044TIP3    H236768   5.598   2.799   8.681 -3.2544 -0.3546 -2.3517
 5045TIP3   OH236769   5.531   4.502   1.569 -0.3585 -0.0068  0.1207
 5045TIP3    H136770   5.563   4.513   1.480 -0.1432 -0.4431  0.1433
 5045TIP3    H236771   5.518   4.407   1.578 -1.5842  0.1504  0.1322
 5046TIP3   OH236772   5.015   6.834   2.642  0.5255 -0.4164  0.0142
 5046TIP3    H136773   5.091   6.817   2.698  0.4191 -2.8824 -0.4644
 5046TIP3    H236774   4.939   6.817   2.698  0.3935 -0.9136 -0.3043
 5047TIP3   OH236775   0.797   2.451   1.043  0.1545  0.2310  0.0549
 5047TIP3    H136776   0.717   2.404   1.067 -1.2124  2.6055  0.5263
 5047TIP3    H236777   0.816   2.423   0.954  0.9794 -3.1147  1.1491
 5048TIP3   OH236778   0.365   6.420   8.211 -0.0639  0.0184  0.4179
 5048TIP3    H136779   0.333   6.481   8.144 -0.0844  0.1816  0.5737
 5048TIP3    H236780   0.379   6.475   8.288 -0.5320 -0.2500  0.7024
 5049TIP3   OH236781   1.322   6.802   7.372  0.0427  0.0105  0.8814
 5049TIP3    H136782   1.335   6.773   7.282  2.1204 -0.5652  1.3170
 5049TIP3    H236783   1.234   6.772   7.394 -0.6137  0.4024 -1.0119
 5050TIP3   OH236784   3.101   5.703   6.689 -0.1606 -0.2953  0.1680
 5050TIP3    H136785   3.137   5.615   6.693  1.3616  0.1937 -1.5276
 5050TIP3    H236786   3.060   5.709   6.603 -0.1687  0.6603  0.2258
 5051TIP3   OH236787   1.999   3.034   8.249 -0.3418  0.1227  0.2510
 5051TIP3    H136788   1.959   3.118   8.270  0.6161  0.3094  1.3852
 5051TIP3    H236789   1.937   2.993   8.189 -0.1703  2.1905 -1.4342
 5052TIP3   OH236790   2.143   2.456   1.733 -0.3388  0.1964 -0.7153
 5052TIP3    H136791   2.222   2.434   1.682  0.1390 -2.7238  1.0398
 5052TIP3    H236792   2.171   2.524   1.793  1.3580 -1.7043  0.7857
 5053TIP3   OH236793   4.599   1.149   0.678  0.1325  0.2135 -0.2412
 5053TIP3    H136794   4.600   1.128   0.771  0.1855  1.5483  0.0886
 5053TIP3    H236795   4.524   1.208   0.667 -2.8734 -3.5070 -1.9603
 5054TIP3   OH236796   0.824   6.356   0.551 -0.3662 -0.4223 -0.1896
 5054TIP3    H136797   0.895   6.310   0.505  0.2641  0.4308 -0.1015
 5054TIP3    H236798   0.867   6.395   0.627 -0.5430  1.5434 -1.0463
 5055TIP3   OH236799   0.563   2.033   7.686 -0.8166 -0.2350  0.1144
 5055TIP3    H136800   0.562   1.976   7.610 -0.4651  0.5984 -0.5339
 5055TIP3    H236801   0.603   1.981   7.756 -1.1262 -0.9953 -0.2670
 5056TIP3   OH236802   3.524   5.245   7.163 -0.4061 -0.0092  0.0478
 5056TIP3    H136803   3.462   5.172   7.160  1.3926 -1.6556  0.5645
 5056TIP3    H236804   3.573   5.231   7.244  0.1216  1.6837  0.0504
 5057TIP3   OH236805   1.348   3.230   8.712  0.1905 -0.0530 -0.6619
 5057TIP3    H136806   1.271   3.200   8.759 -0.3269  0.9232 -0.8606
 5057TIP3    H236807   1.422   3.210   8.770 -0.3026 -0.1126 -0.0489
 5058TIP3   OH236808   4.704   3.747   1.609 -0.3002  0.5600 -0.2656
 5058TIP3    H136809   4.707   3.796   1.527 -1.5448 -0.0647 -0.7078
 5058TIP3    H236810   4.618   3.767   1.646 -1.8583 -2.9918 -1.5748
 5059TIP3   OH236811   3.300   5.471   7.393 -0.4236  0.1263 -0.2880
 5059TIP3    H136812   3.357   5.433   7.459 -0.1030  1.9755  0.5546
 5059TIP3    H236813   3.359   5.499   7.323 -0.3335  1.5522  0.3420
 5060TIP3   OH236814   6.247   2.836   1.599  0.1670 -0.3767 -0.2569
 5060TIP3    H136815   6.342   2.836   1.587  0.1640  3.0173 -1.4808
 5060TIP3    H236816   6.212   2.792   1.522  0.7301 -0.4739 -0.4563
 5061TIP3   OH236817   5.717   3.443   0.319  0.7803 -0.1201 -0.3091
 5061TIP3    H136818   5.711   3.419   0.227 -2.0669 -0.3237 -0.1837
 5061TIP3    H236819   5.753   3.532   0.319 -1.4967  0.9275 -1.9169
 5062TIP3   OH236820   1.042   1.055   8.750  0.5222 -0.5658  0.3330
 5062TIP3    H136821   1.017   1.076   8.840  0.7788  2.9273 -0.2811
 5062TIP3    H236822   1.132   1.023   8.757  1.4260  1.9431  1.1974
 5063TIP3   OH236823   6.628   1.236   2.526 -0.3603  0.2107 -0.6062
 5063TIP3    H136824   6.662   1.151   2.498 -1.3973 -0.4096 -0.0312
 5063TIP3    H236825   6.699   1.276   2.575 -0.0751 -0.5871 -0.3627
 5064TIP3   OH236826   2.002   2.124   1.860 -0.3140 -0.2168 -0.4089
 5064TIP3    H136827   1.968   2.107   1.772  1.4037 -1.8574 -0.8298
 5064TIP3    H236828   2.096   2.131   1.848  0.0613 -1.4326  1.3939
 5065TIP3   OH236829   2.092   5.326   6.915  0.3624 -0.1305  0.2946
 5065TIP3    H136830   2.145   5.387   6.966 -0.3562  1.4208 -0.7211
 5065TIP3    H236831   2.006   5.367   6.911 -1.0773 -2.6493  2.0585
 5066TIP3   OH236832   0.899   5.074   1.876 -0.0720 -0.1834 -0.6154
 5066TIP3    H136833   0.976   5.116   1.838  0.3986 -0.1564  0.3409
 5066TIP3    H236834   0.828   5.136   1.860 -0.0235 -0.4304 -1.9549
 5067TIP3   OH236835   6.540   4.056   0.833 -0.1156 -0.0425  0.7463
 5067TIP3    H136836   6.506   4.006   0.907 -1.0052  1.8714  1.6844
 5067TIP3    H236837   6.598   4.121   0.872  0.7480 -0.0855 -0.4092
 5068TIP3   OH236838   4.680   3.474   8.571 -0.7380 -0.2670  0.5211
 5068TIP3    H136839   4.666   3.390   8.526 -0.8879  0.2278 -0.3877
 5068TIP3    H236840   4.694   3.537   8.500  1.3741  0.1449  1.2382
 5069TIP3   OH236841   0.208   2.784   8.696 -0.5719 -0.4157  0.0051
 5069TIP3    H136842   0.137   2.762   8.756  0.0935 -0.1639  0.9033
 5069TIP3    H236843   0.262   2.847   8.744  0.0592 -0.3292 -0.7949
 5070TIP3   OH236844   5.299   1.291   8.692 -0.3595 -0.0731  0.3585
 5070TIP3    H136845   5.301   1.281   8.597  0.9184  0.8534  0.2635
 5070TIP3    H236846   5.293   1.201   8.725  0.4281 -0.4957 -0.5819
 5071TIP3   OH236847   6.557   3.823   2.326  0.3130  0.1194  0.0842
 5071TIP3    H136848   6.575   3.731   2.307  1.6429  0.0440  1.5118
 5071TIP3    H236849   6.555   3.828   2.421 -2.2997  1.1374  0.0449
 5072TIP3   OH236850   6.188   6.073   6.965 -0.1498 -0.0787  0.5170
 5072TIP3    H136851   6.146   6.115   6.890 -2.5350  0.3314  1.9724
 5072TIP3    H236852   6.170   5.980   6.953  0.9932 -0.2085 -0.2822
 5073TIP3   OH236853   4.559   0.797   0.194  0.2276 -0.8294 -0.9157
 5073TIP3    H136854   4.643   0.823   0.232  0.4307 -2.3365 -0.2564
 5073TIP3    H236855   4.556   0.701   0.205 -2.2920 -0.6859  0.6417
 5074TIP3   OH236856   1.666   4.783   7.924 -0.1938  0.2003  0.2548
 5074TIP3    H136857   1.754   4.818   7.910  0.0327 -0.0809  0.9298
 5074TIP3    H236858   1.669   4.743   8.011 -1.4613  1.5938  0.9812
 5075TIP3   OH236859   2.901   5.800   7.504  0.5457 -0.0997 -0.4525
 5075TIP3    H136860   2.884   5.831   7.593 -2.8964  1.6130 -1.5051
 5075TIP3    H236861   2.967   5.859   7.470  0.9845  0.0208  0.5576
 5076TIP3   OH236862   2.513   2.766   3.178 -0.4495  0.1961 -0.3166
 5076TIP3    H136863   2.426   2.776   3.217 -0.6754 -0.5306 -0.6319
 5076TIP3    H236864   2.525   2.672   3.168  0.1594  0.3151 -0.7728
 5077TIP3   OH236865   5.108   0.337   7.745 -0.6721  0.0097 -0.2394
 5077TIP3    H136866   5.184   0.297   7.704 -1.0162 -0.9124  0.0059
 5077TIP3    H236867   5.099   0.421   7.701  0.5419  0.1852 -0.2031
 5078TIP3   OH236868   1.880   0.604   1.635 -0.2889 -0.2142 -0.0777
 5078TIP3    H136869   1.944   0.536   1.617 -1.2560 -0.9849 -0.6581
 5078TIP3    H236870   1.922   0.658   1.702  0.5947 -1.2313  0.2239
 5079TIP3   OH236871   6.867   0.711   8.171 -0.5540  0.7384  0.1813
 5079TIP3    H136872   6.793   0.742   8.119 -0.3334  1.2982  0.1948
 5079TIP3    H236873   6.921   0.662   8.109  0.2833  2.3431 -0.3936
 5080TIP3   OH236874   5.533   2.182   0.112  0.0866 -0.0413 -0.1208
 5080TIP3    H136875   5.559   2.272   0.126 -0.6378  0.1998 -0.2465
 5080TIP3    H236876   5.497   2.153   0.197  0.7573 -0.3692  0.0554
 5081TIP3   OH236877   1.369   6.023   7.254  0.2312 -0.7543 -0.1435
 5081TIP3    H136878   1.461   6.051   7.257 -0.8962  3.6798 -0.0385
 5081TIP3    H236879   1.352   5.989   7.341  1.3921 -0.2137  0.3193
 5082TIP3   OH236880   6.490   3.124   1.048 -0.3097  0.4533 -0.3259
 5082TIP3    H136881   6.464   3.216   1.041  1.4447  1.0030 -0.0272
 5082TIP3    H236882   6.583   3.123   1.028 -0.7854 -1.6748 -3.1326
 5083TIP3   OH236883   0.549   2.950   1.237 -0.1081 -0.6032 -0.0299
 5083TIP3    H136884   0.644   2.961   1.242 -0.2741  0.2229  2.7284
 5083TIP3    H236885   0.521   3.017   1.175  1.1815 -2.0085 -2.3013
 5084TIP3   OH236886   3.615   6.762   1.824  0.2491 -0.2666 -0.4722
 5084TIP3    H136887   3.643   6.769   1.733  1.9794 -4.1981 -0.4412
 5084TIP3    H236888   3.551   6.692   1.825 -1.1755  0.9663  1.1474
 5085TIP3   OH236889   4.276   0.172   7.874 -0.5897  0.4038  0.2343
 5085TIP3    H136890   4.294   0.088   7.832  2.1064  1.3108 -0.6341
 5085TIP3    H236891   4.186   0.193   7.850 -0.3277 -0.8263 -2.0877
 5086TIP3   OH236892   4.509   0.408   7.848 -0.1229  0.4590  0.9809
 5086TIP3    H136893   4.495   0.320   7.883  0.0689 -0.2988 -0.7094
 5086TIP3    H236894   4.598   0.406   7.813 -0.3077  1.1275  0.4416
 5087TIP3   OH236895   5.803   5.716   2.273 -0.7296  0.8237 -0.4028
 5087TIP3    H136896   5.739   5.669   2.219  0.9720 -0.1741 -1.6482
 5087TIP3    H236897   5.809   5.803   2.234 -2.1296  1.3260  0.4366
 5088TIP3   OH236898   6.767   5.830   6.739 -0.0868 -0.1411  0.8436
 5088TIP3    H136899   6.860   5.848   6.723 -0.5680  0.7042 -1.2530
 5088TIP3    H236900   6.761   5.735   6.742  0.4213 -0.3899 -2.4294
 5089TIP3   OH236901   1.755   6.700   1.709 -0.3172  0.1482  0.2106
 5089TIP3    H136902   1.725   6.639   1.641 -2.1769 -0.6783  1.6999
 5089TIP3    H236903   1.709   6.782   1.689  1.9464  1.0884 -1.6069
 5090TIP3   OH236904   6.810   5.110   1.577 -0.3227 -0.2072 -0.0389
 5090TIP3    H136905   6.839   5.190   1.621 -0.1969 -0.9905  1.3600
 5090TIP3    H236906   6.778   5.053   1.648 -0.2631 -1.4586 -0.9741
 5091TIP3   OH236907   0.623   2.501   2.481 -0.3069 -0.1965  0.8876
 5091TIP3    H136908   0.567   2.506   2.403  1.7997 -2.9147 -1.0226
 5091TIP3    H236909   0.569   2.459   2.547 -1.7254  0.8882  0.4562
 5092TIP3   OH236910   1.205   2.806   0.460  0.5073  0.0581  0.0581
 5092TIP3    H136911   1.169   2.798   0.549 -1.1268 -1.2733 -0.6756
 5092TIP3    H236912   1.130   2.794   0.403  1.0929  3.1384 -1.5575
 5093TIP3   OH236913   6.149   1.534   2.485  0.1252  0.4196  0.2696
 5093TIP3    H136914   6.198   1.586   2.422 -1.2548  0.7965 -0.5436
 5093TIP3    H236915   6.059   1.566   2.478 -0.7620 -1.9139 -0.1239
 5094TIP3   OH236916   5.259   2.915   7.688 -0.7675  0.1840  0.0596
 5094TIP3    H136917   5.212   2.986   7.732  0.0570  0.6078  0.2670
 5094TIP3    H236918   5.283   2.855   7.759 -0.8750  0.0315 -0.0314
 5095TIP3   OH236919   4.366   0.378   2.134  0.1919 -0.0684  0.1198
 5095TIP3    H136920   4.389   0.394   2.226  0.5666 -0.5363  0.1180
 5095TIP3    H236921   4.445   0.337   2.097 -1.1342 -3.3610  0.5348
 5096TIP3   OH236922   4.183   0.512   0.418 -0.2953  0.6185  0.1606
 5096TIP3    H136923   4.224   0.512   0.504 -1.0938  0.6015  0.5541
 5096TIP3    H236924   4.092   0.486   0.435 -0.8263  1.9437 -0.5129
 5097TIP3   OH236925   4.116   4.471   1.379  0.1278 -0.2509  0.0334
 5097TIP3    H136926   4.169   4.551   1.375  1.1236 -0.8942  0.1062
 5097TIP3    H236927   4.040   4.490   1.323  0.3022  0.7790  0.1307
 5098TIP3   OH236928   0.343   3.043   8.458  0.7986 -0.9422 -0.0037
 5098TIP3    H136929   0.421   3.033   8.405  1.3867  2.5211 -0.0514
 5098TIP3    H236930   0.375   3.066   8.546 -0.1405 -0.7149  0.3008
 5099TIP3   OH236931   6.310   5.655   8.603 -0.0724 -0.0081  0.0257
 5099TIP3    H136932   6.216   5.646   8.619 -0.0791  0.2942  0.1583
 5099TIP3    H236933   6.320   5.654   8.508 -0.2890  0.7514 -0.0106
 5100TIP3   OH236934   2.250   4.585   0.042 -0.0358 -0.6400  0.3905
 5100TIP3    H136935   2.163   4.619   0.061 -0.2528 -1.1436  0.2914
 5100TIP3    H236936   2.302   4.663   0.022 -0.7313 -0.4084 -0.6237
 5101TIP3   OH236937   6.235   6.446   2.231  0.1575 -0.0734  0.2544
 5101TIP3    H136938   6.230   6.409   2.319 -0.8495 -0.2115  0.1490
 5101TIP3    H236939   6.185   6.384   2.177  0.4854  0.1889 -0.3512
 5102TIP3   OH236940   0.608   1.742   7.953 -0.1087 -0.3986 -0.2654
 5102TIP3    H136941   0.651   1.657   7.948  0.6702  0.0485 -1.8886
 5102TIP3    H236942   0.524   1.730   7.910 -0.3814 -0.5445  0.2928
 5103TIP3   OH236943   2.780   0.254   7.788 -0.1891  0.7447 -0.2096
 5103TIP3    H136944   2.841   0.300   7.730  0.5416 -0.6868 -0.6461
 5103TIP3    H236945   2.762   0.172   7.742 -3.5360  1.6483 -0.7270
 5104TIP3   OH236946   0.748   4.518   1.724  0.0098 -0.8487 -0.5778
 5104TIP3    H136947   0.772   4.540   1.634  1.6906 -2.6817 -0.6436
 5104TIP3    H236948   0.832   4.507   1.769 -0.7961 -0.0868  1.2060
 5105TIP3   OH236949   0.888   2.282   6.939 -0.3477 -0.6635 -0.5794
 5105TIP3    H136950   0.859   2.201   6.979  0.3512 -0.6926 -0.1097
 5105TIP3    H236951   0.817   2.306   6.879 -0.8029 -1.3249 -0.3199
 5106TIP3   OH236952   2.964   3.049   1.243  0.2969  0.2720  0.1668
 5106TIP3    H136953   2.883   3.071   1.197 -0.2074 -0.3331  0.7407
 5106TIP3    H236954   2.952   3.088   1.330  1.3558  1.6550 -0.2603
 5107TIP3   OH236955   4.798   0.739   0.724  0.2123  0.3109  0.2373
 5107TIP3    H136956   4.741   0.738   0.801  0.2348  2.2154  0.3314
 5107TIP3    H236957   4.849   0.659   0.730 -0.8958 -0.3394  1.3483
 5108TIP3   OH236958   0.174   0.760   7.847  1.1528  0.7342  0.1093
 5108TIP3    H136959   0.143   0.684   7.798  0.6452  0.0727  1.4320
 5108TIP3    H236960   0.095   0.810   7.867  1.6225  2.6238 -2.2979
 5109TIP3   OH236961   6.502   2.180   1.088 -0.2195  0.4597 -0.1235
 5109TIP3    H136962   6.499   2.233   1.009 -1.7053 -0.8519 -1.0006
 5109TIP3    H236963   6.532   2.240   1.157  0.5932  1.7510 -1.5500
 5110TIP3   OH236964   4.327   1.423   0.462  0.2505  0.1088 -0.1617
 5110TIP3    H136965   4.325   1.514   0.432 -0.2499  0.6250  1.3703
 5110TIP3    H236966   4.242   1.388   0.435  0.1679  0.2949 -0.1443
 5111TIP3   OH236967   1.818   2.587   3.280 -0.0159 -0.6800 -0.4182
 5111TIP3    H136968   1.801   2.677   3.307 -0.1372 -0.8556  0.1047
 5111TIP3    H236969   1.732   2.552   3.256 -0.0646 -0.8616  0.0209
 5112TIP3   OH236970   3.141   1.016   8.444  0.4202 -0.5900  0.2544
 5112TIP3    H136971   3.129   0.921   8.442  2.9817 -1.0771  2.5845
 5112TIP3    H236972   3.135   1.039   8.536 -2.9074  2.0899 -0.3988
 5113TIP3   OH236973   0.773   2.975   0.712  0.1326 -0.0118 -0.2196
 5113TIP3    H136974   0.788   2.887   0.748  0.3399  1.3153  3.3235
 5113TIP3    H236975   0.860   3.009   0.694  0.0183 -0.8381 -2.7396
 5114TIP3   OH236976   6.156   2.395   7.675  0.1319  0.2919 -0.1415
 5114TIP3    H136977   6.132   2.447   7.598  0.5343 -0.6202 -0.9025
 5114TIP3    H236978   6.246   2.366   7.657 -0.3145 -1.2262 -0.0480
 5115TIP3   OH236979   2.946   1.372   0.942  0.5145  0.3897  0.3697
 5115TIP3    H136980   2.971   1.280   0.940 -0.7090  0.0171 -2.7100
 5115TIP3    H236981   2.876   1.376   1.007  0.7810 -0.7673  0.7602
 5116TIP3   OH236982   3.168   4.872   0.797 -0.7819  0.6590 -0.2783
 5116TIP3    H136983   3.114   4.951   0.787  1.1437  1.9285 -1.2404
 5116TIP3    H236984   3.157   4.847   0.888 -2.1434  1.4903 -0.1835
 5117TIP3   OH236985   4.302   1.553   7.688  0.4400 -1.3571 -0.0221
 5117TIP3    H136986   4.225   1.523   7.640  1.1531 -1.6765 -1.0094
 5117TIP3    H236987   4.369   1.565   7.620  1.1090 -0.5921  0.7513
 5118TIP3   OH236988   5.977   5.439   8.196  0.1631  0.2588  0.0055
 5118TIP3    H136989   5.986   5.526   8.233 -2.1930 -0.2144  1.9144
 5118TIP3    H236990   5.889   5.410   8.221  1.4571 -3.3870  1.0444
 5119TIP3   OH236991   4.711   5.927   8.733  0.4916 -0.4594  0.4906
 5119TIP3    H136992   4.653   5.898   8.804  1.3337 -0.6343  1.1279
 5119TIP3    H236993   4.654   5.979   8.676 -0.1935 -0.2117  1.3573
 5120TIP3   OH236994   0.730   2.487   0.735  0.1956  0.6842  0.6131
 5120TIP3    H136995   0.700   2.396   0.725  0.9962  0.3324  1.3257
 5120TIP3    H236996   0.650   2.536   0.753 -0.2103  0.0719  0.5248
 5121TIP3   OH236997   1.993   5.574   7.750 -0.8015 -0.0167  0.0200
 5121TIP3    H136998   1.976   5.594   7.842 -0.7809  1.2151 -0.2272
 5121TIP3    H236999   1.960   5.650   7.703  0.0160 -0.2330 -0.9246
 5122TIP3   OH237000   4.688   4.099   8.086 -0.1038  0.6223  0.0333
 5122TIP3    H137001   4.771   4.068   8.048 -0.7034 -1.4336  0.2981
 5122TIP3    H237002   4.627   4.027   8.072 -1.5283  1.6052  0.9784
 5123TIP3   OH237003   5.551   0.246   2.425  0.5044  0.6635  0.8371
 5123TIP3    H137004   5.561   0.341   2.438  0.9776  1.0641 -1.8299
 5123TIP3    H237005   5.639   0.216   2.402  0.3287 -0.4244  1.5386
 5124TIP3   OH237006   5.348   5.065   7.478  0.1566 -0.2716 -0.3534
 5124TIP3    H137007   5.413   5.103   7.537 -1.3639 -0.2557  1.3810
 5124TIP3    H237008   5.374   4.973   7.470  0.4777 -0.2360  0.2117
 5125TIP3   OH237009   6.029   5.176   7.236 -0.7435 -0.8643 -0.2089
 5125TIP3    H137010   6.040   5.143   7.147 -0.8473 -0.1714 -0.4886
 5125TIP3    H237011   5.935   5.174   7.251 -0.7776 -0.4291 -0.3406
 5126TIP3   OH237012   5.871   5.321   2.247  0.1000  0.1250  0.1447
 5126TIP3    H137013   5.865   5.226   2.237  0.7452  0.1755 -0.8461
 5126TIP3    H237014   5.965   5.339   2.254  0.0134  0.7222 -0.1088
 5127TIP3   OH237015   1.718   6.751   7.349  0.4417 -0.4780  0.0674
 5127TIP3    H137016   1.799   6.703   7.335  1.1136  0.8659 -0.9256
 5127TIP3    H237017   1.664   6.732   7.273  0.7952  0.4668 -0.4339
 5128TIP3   OH237018   1.933   1.067   8.606  0.1268  0.0700 -0.2851
 5128TIP3    H137019   2.026   1.085   8.592  0.2290  0.8029  1.1150
 5128TIP3    H237020   1.932   0.995   8.668 -0.2255  0.3287  0.0171
 5129TIP3   OH237021   4.914   4.958   1.780 -0.7906 -0.4424 -0.0771
 5129TIP3    H137022   4.878   4.878   1.820 -1.2636 -0.5669 -0.7318
 5129TIP3    H237023   5.006   4.937   1.765 -1.0788 -1.1496 -0.9271
 5130TIP3   OH237024   3.523   5.146   1.495  0.3632  0.8673 -0.4858
 5130TIP3    H137025   3.516   5.073   1.558 -0.7012  0.5751 -0.9153
 5130TIP3    H237026   3.611   5.138   1.459  0.0558 -0.6113 -0.9804
 5131TIP3   OH237027   0.900   3.210   1.434  0.2098 -0.5628 -0.2849
 5131TIP3    H137028   0.971   3.168   1.385 -0.0196 -1.8897  0.4695
 5131TIP3    H237029   0.823   3.158   1.412 -0.6066  0.9559 -1.2239
 5132TIP3   OH237030   6.251   5.947   8.459  0.3764 -0.4421 -0.2855
 5132TIP3    H137031   6.339   5.984   8.466  0.3533 -0.3290 -0.5614
 5132TIP3    H237032   6.265   5.855   8.439  0.4664  0.0444 -2.8623
 5133TIP3   OH237033   6.592   4.272   0.646  0.1383  0.5355  0.2253
 5133TIP3    H137034   6.512   4.238   0.687  0.3845  0.1657  0.4029
 5133TIP3    H237035   6.635   4.195   0.608  0.2463  0.7809 -0.1554
 5134TIP3   OH237036   6.809   4.320   7.114  0.3449  0.0618 -0.4975
 5134TIP3    H137037   6.754   4.250   7.147 -0.1657  0.3982 -0.6336
 5134TIP3    H237038   6.886   4.275   7.078  0.2335 -0.3916 -0.1725
 5135TIP3   OH237039   5.481   1.686   8.270  0.6214 -0.3254 -0.1820
 5135TIP3    H137040   5.490   1.781   8.265 -1.2021 -0.1185 -0.4479
 5135TIP3    H237041   5.571   1.652   8.270  1.2902  1.3794 -0.2465
 5136TIP3   OH237042   2.071   2.298   0.227 -0.0845  0.7100 -0.4579
 5136TIP3    H137043   2.149   2.287   0.172  1.0983  0.8871  1.1065
 5136TIP3    H237044   2.003   2.250   0.181  1.3074 -0.6943 -1.1695
 5137TIP3   OH237045   3.862   3.418   8.420  0.3674 -0.2270 -0.4202
 5137TIP3    H137046   3.888   3.327   8.432  0.8596 -0.0235  0.1057
 5137TIP3    H237047   3.944   3.464   8.404  0.2386  0.2838  0.3572
 5138TIP3   OH237048   4.117   0.975   7.932 -0.3652 -0.5824 -0.2165
 5138TIP3    H137049   4.117   1.070   7.944 -0.5666 -0.2301 -2.6133
 5138TIP3    H237050   4.192   0.945   7.984  1.5249  1.2524 -1.7116
 5139TIP3   OH237051   5.492   0.625   2.127 -0.0647  0.2644 -0.0714
 5139TIP3    H137052   5.556   0.567   2.084 -1.2418 -0.3242 -1.0786
 5139TIP3    H237053   5.505   0.609   2.220  0.3233 -0.8822 -0.3005
 5140TIP3   OH237054   3.639   4.076   0.643 -0.7632 -0.0056 -0.1117
 5140TIP3    H137055   3.683   3.994   0.619 -1.2833 -0.5192  0.6679
 5140TIP3    H237056   3.575   4.090   0.574 -0.0371  0.2514 -0.7526
 5141TIP3   OH237057   4.505   3.232   2.460  0.8713 -0.2882 -0.1777
 5141TIP3    H137058   4.434   3.283   2.499  1.6373 -0.1025  1.0199
 5141TIP3    H237059   4.582   3.288   2.467  1.2968 -0.7790 -0.7982
 5142TIP3   OH237060   0.207   4.272   7.255 -0.4879  0.4421  0.3236
 5142TIP3    H137061   0.268   4.342   7.277  0.0562  0.2840 -0.6247
 5142TIP3    H237062   0.194   4.280   7.160  1.3239 -2.0673 -0.2423
 5143TIP3   OH237063   2.770   0.500   2.997 -0.4903  0.0675  0.4018
 5143TIP3    H137064   2.861   0.523   3.012 -0.4506 -0.1798  0.5530
 5143TIP3    H237065   2.735   0.572   2.944  0.0105 -0.2387 -0.3706
 5144TIP3   OH237066   3.476   3.128   2.077  0.4013 -0.1380  0.2567
 5144TIP3    H137067   3.437   3.049   2.115  2.0451 -0.3715  1.6061
 5144TIP3    H237068   3.402   3.184   2.055 -0.7842 -1.8383 -0.2595
 5145TIP3   OH237069   3.905   2.346   0.318 -0.0163 -0.2664 -0.5366
 5145TIP3    H137070   3.915   2.253   0.335 -1.0243  0.0593  2.2971
 5145TIP3    H237071   3.851   2.379   0.390  0.9049  2.6444 -1.0207
 5146TIP3   OH237072   6.334   1.813   0.506  0.1939  0.4265 -0.2851
 5146TIP3    H137073   6.239   1.820   0.497  0.4661  3.2964 -2.1629
 5146TIP3    H237074   6.353   1.856   0.589 -0.0672  0.7965 -0.4145
 5147TIP3   OH237075   6.807   1.555   8.384  0.5418 -0.2719 -0.0427
 5147TIP3    H137076   6.868   1.509   8.327  0.4581 -0.8655  0.3328
 5147TIP3    H237077   6.862   1.593   8.452  0.4409 -1.4406  0.7204
 5148TIP3   OH237078   0.929   6.793   8.203  0.6846 -1.0017  0.5665
 5148TIP3    H137079   0.916   6.718   8.261  0.3254 -1.1539  0.2920
 5148TIP3    H237080   0.992   6.848   8.249  1.7630 -1.9687  0.3093
 5149TIP3   OH237081   6.421   6.692   2.795 -0.1454  0.0644 -0.7949
 5149TIP3    H137082   6.446   6.606   2.763 -0.5800 -0.6517  0.6916
 5149TIP3    H237083   6.414   6.681   2.890 -0.0026  1.7904 -0.5516
 5150TIP3   OH237084   1.315   6.056   0.619 -0.2027  0.5927  0.3998
 5150TIP3    H137085   1.376   6.009   0.676 -0.1288  0.1181 -0.0622
 5150TIP3    H237086   1.239   5.998   0.614  0.1165  0.2456 -0.6363
 5151TIP3   OH237087   0.003   4.610   1.380  0.0564 -0.6343  0.2937
 5151TIP3    H137088  -0.040   4.528   1.401 -0.6746 -1.0141 -2.2768
 5151TIP3    H237089   0.096   4.593   1.393  0.1379 -2.6359 -2.1345
 5152TIP3   OH237090   4.727   6.359   0.071 -0.7507  0.4704  0.4273
 5152TIP3    H137091   4.770   6.297   0.011  2.2470  2.1878  0.6070
 5152TIP3    H237092   4.695   6.429   0.013 -0.2003  0.8631  0.5949
 5153TIP3   OH237093   5.339   0.524   2.486 -0.4889 -0.2323  0.0990
 5153TIP3    H137094   5.399   0.590   2.520 -0.8121 -0.1968  0.6037
 5153TIP3    H237095   5.307   0.561   2.404 -0.5738  0.1812  0.3179
 5154TIP3   OH237096   2.235   1.676   1.415 -0.3858 -0.6914 -0.2280
 5154TIP3    H137097   2.315   1.704   1.459 -0.1648 -2.1110  0.3158
 5154TIP3    H237098   2.211   1.751   1.360  0.3120  0.4453  0.9494
 5155TIP3   OH237099   0.352   4.135   0.079  0.4983  0.0567 -0.6993
 5155TIP3    H137100   0.309   4.050   0.070  0.5501  0.1118 -1.5520
 5155TIP3    H237101   0.329   4.182  -0.001  0.2739  0.9406 -0.1282
 5156TIP3   OH237102   3.304   0.087   1.827 -0.2912  0.1439 -0.7776
 5156TIP3    H137103   3.381   0.126   1.785  0.6636 -0.5938  0.2169
 5156TIP3    H237104   3.299  -0.001   1.792  0.0237 -0.1981  0.0125
 5157TIP3   OH237105   5.737   4.836   2.530 -0.3279  0.2033 -0.1531
 5157TIP3    H137106   5.723   4.888   2.608 -0.3130 -0.5916  0.3946
 5157TIP3    H237107   5.801   4.886   2.479  1.1226 -0.1457  1.2323
 5158TIP3   OH237108   3.620   1.455   2.332 -0.2746  0.2108 -0.1254
 5158TIP3    H137109   3.530   1.479   2.312 -1.2390 -0.6143  2.7807
 5158TIP3    H237110   3.670   1.537   2.321 -1.7538  1.2072  0.3496
 5159TIP3   OH237111   6.567   3.886   8.097 -0.3647  0.1691 -0.3459
 5159TIP3    H137112   6.495   3.901   8.036 -1.3641  0.8194  0.9212
 5159TIP3    H237113   6.526   3.843   8.172  0.5206  0.7864  0.5151
 5160TIP3   OH237114   0.604   1.554   8.300 -1.0088  0.0192  0.1961
 5160TIP3    H137115   0.565   1.590   8.379 -0.2643 -0.3130  0.7298
 5160TIP3    H237116   0.547   1.584   8.229 -0.6041  1.9621  0.6416
 5161TIP3   OH237117   2.133   6.473   1.076  0.1605  0.5718 -0.0487
 5161TIP3    H137118   2.181   6.544   1.034  0.5009  0.9620  0.9625
 5161TIP3    H237119   2.044   6.506   1.084  0.1933  0.6664 -0.0739
 5162TIP3   OH237120   3.374   5.271   0.519  0.1502 -0.3200  0.1255
 5162TIP3    H137121   3.355   5.178   0.530 -1.3216 -0.1210 -0.4497
 5162TIP3    H237122   3.354   5.310   0.604  0.0681 -0.4301  0.1571
 5163TIP3   OH237123   5.545   4.812   0.942  0.6503 -0.4177  0.2055
 5163TIP3    H137124   5.476   4.863   0.898  1.1046  1.2133  1.2941
 5163TIP3    H237125   5.499   4.735   0.975 -0.3908 -0.0085 -0.2115
 5164TIP3   OH237126   2.682   3.310   1.478 -0.1938 -0.0789 -0.6402
 5164TIP3    H137127   2.592   3.278   1.469 -0.3997  0.8287 -2.2637
 5164TIP3    H237128   2.675   3.387   1.535 -0.0673 -1.3435  1.1570
 5165TIP3   OH237129   2.918   6.651   8.614  0.4229  0.2631 -0.3887
 5165TIP3    H137130   2.921   6.586   8.544  0.3953  0.1560 -0.2915
 5165TIP3    H237131   3.008   6.680   8.624  0.4737  0.0732 -0.2800
 5166TIP3   OH237132   0.530   3.226   7.906  0.3304 -0.0363 -0.1199
 5166TIP3    H137133   0.508   3.229   7.999  0.0881 -0.3750 -0.1666
 5166TIP3    H237134   0.479   3.153   7.871 -0.6672  0.9314 -0.7910
 5167TIP3   OH237135   2.252   6.347   8.456 -0.1280 -0.2235  0.4592
 5167TIP3    H137136   2.284   6.263   8.423 -0.7623  0.1604 -1.2548
 5167TIP3    H237137   2.318   6.375   8.519  0.6615 -1.4821  0.2270
 5168TIP3   OH237138   5.874   6.201   1.043 -0.3954 -0.1920  0.4869
 5168TIP3    H137139   5.905   6.206   1.133 -0.7854  1.1792  0.5741
 5168TIP3    H237140   5.825   6.119   1.038  0.7739 -0.9534  1.1334
 5169TIP3   OH237141   4.689   5.861   1.204 -0.3253 -0.1806  0.1547
 5169TIP3    H137142   4.666   5.792   1.266 -0.9011 -0.1455 -0.0096
 5169TIP3    H237143   4.610   5.871   1.150 -1.1365  2.2674  1.6670
 5170TIP3   OH237144   4.397   4.207   7.119  0.6272  0.0528  0.7837
 5170TIP3    H137145   4.442   4.224   7.036 -0.3222  0.6501  0.3776
 5170TIP3    H237146   4.459   4.237   7.186  0.7285  1.1603  0.2206
 5171TIP3   OH237147   3.202   0.214   0.874 -0.2249  0.1649 -0.0583
 5171TIP3    H137148   3.224   0.302   0.845 -1.9302  0.0606 -1.9073
 5171TIP3    H237149   3.200   0.220   0.970 -1.0703  2.3325 -0.1596
 5172TIP3   OH237150   3.102   6.677   1.026 -0.3504 -0.0654 -0.5913
 5172TIP3    H137151   3.133   6.600   0.978 -1.3753 -3.3322  3.4407
 5172TIP3    H237152   3.007   6.678   1.012 -0.1842  1.8244 -2.1373
 5173TIP3   OH237153   5.352   0.610   0.014 -0.2558  0.1061  0.1212
 5173TIP3    H137154   5.409   0.598  -0.062 -1.7543  0.7309 -1.1679
 5173TIP3    H237155   5.405   0.582   0.089  1.6057  0.3547 -1.0346
 5174TIP3   OH237156   3.615   0.405   7.769  0.6487 -0.4773  0.2862
 5174TIP3    H137157   3.588   0.364   7.687 -0.1477  4.0900 -2.0237
 5174TIP3    H237158   3.538   0.454   7.798  1.7205  0.0636  2.4321
 5175TIP3   OH237159   5.805   2.647   0.251 -0.2791 -0.0781 -0.0711
 5175TIP3    H137160   5.799   2.719   0.313 -0.1890 -1.9769  2.3227
 5175TIP3    H237161   5.898   2.623   0.251 -0.3765 -0.4824 -0.4928
 5176TIP3   OH237162   4.201   2.081   0.351  0.2429  0.1939 -0.0445
 5176TIP3    H137163   4.212   2.009   0.289  0.5932 -0.8880  1.2148
 5176TIP3    H237164   4.179   2.038   0.434 -0.1714  1.5843  0.5940
 5177TIP3   OH237165   1.544   4.933   7.741  0.3590 -0.2512  0.0496
 5177TIP3    H137166   1.528   5.014   7.790  0.4065  1.0097 -1.9070
 5177TIP3    H237167   1.581   4.873   7.806 -0.1468  1.1004  1.6787
 5178TIP3   OH237168   6.108   5.936   1.198  0.4476  0.3351  0.3994
 5178TIP3    H137169   6.149   5.943   1.284  0.5111  0.0463  0.3947
 5178TIP3    H237170   6.131   6.017   1.153  0.5637  0.4069  0.5894
 5179TIP3   OH237171   1.275   1.515   2.633  0.2647 -0.5231 -0.1864
 5179TIP3    H137172   1.345   1.458   2.601  0.1184  0.0089 -1.5312
 5179TIP3    H237173   1.244   1.472   2.713  1.0942 -1.5709 -0.3950
 5180TIP3   OH237174   1.996   3.217   0.460 -0.2674 -0.1866  0.1265
 5180TIP3    H137175   1.950   3.134   0.446 -1.8719  0.9784 -1.9847
 5180TIP3    H237176   2.064   3.218   0.392 -0.9200  0.6571 -0.5243
 5181TIP3   OH237177   6.408   6.866   0.457  0.2768  0.4286  0.0991
 5181TIP3    H137178   6.336   6.880   0.519  1.0045  1.1809  0.7950
 5181TIP3    H237179   6.456   6.792   0.494 -0.0808 -0.0244 -0.3254
 5182TIP3   OH237180   5.381   6.225   0.377 -0.1172 -0.3308 -0.5252
 5182TIP3    H137181   5.470   6.215   0.343  0.3524  2.5252 -0.4526
 5182TIP3    H237182   5.390   6.213   0.471  0.3726  0.6034 -0.4350
 5183TIP3   OH237183   3.899   2.975   1.384 -0.1095 -0.5228 -0.3868
 5183TIP3    H137184   3.854   2.901   1.344  1.4912 -1.1907 -1.0181
 5183TIP3    H237185   3.955   2.936   1.451  1.8975 -0.1241 -1.7313
 5184TIP3   OH237186   1.524   3.592   7.075 -0.4098 -0.2831  0.0763
 5184TIP3    H137187   1.434   3.584   7.107 -0.2079 -1.9016  0.3266
 5184TIP3    H237188   1.558   3.671   7.116 -1.3345 -0.3315  0.9613
 5185TIP3   OH237189   1.850   1.532   2.234  0.0396  0.0606  0.6829
 5185TIP3    H137190   1.921   1.531   2.169  0.4618  1.9966  1.0693
 5185TIP3    H237191   1.771   1.510   2.183  0.7673 -1.3900  0.1142
 5186TIP3   OH237192   2.073   3.438   0.219 -0.4157  0.4909 -0.3880
 5186TIP3    H137193   2.085   3.344   0.236  0.1543  0.6503  0.1464
 5186TIP3    H237194   2.114   3.452   0.134 -0.0548  0.3459 -0.2417
 5187TIP3   OH237195   6.844   6.034   7.495  0.5003 -0.3883 -0.2080
 5187TIP3    H137196   6.842   5.996   7.583 -0.3044 -0.1249 -0.1093
 5187TIP3    H237197   6.754   6.030   7.465  0.6851 -0.0157 -0.8257
 5188TIP3   OH237198   5.781   0.538   8.018 -0.2573  0.5721 -0.5854
 5188TIP3    H137199   5.849   0.504   7.961  0.0497  0.2779 -0.0553
 5188TIP3    H237200   5.829   0.587   8.085 -0.5562  0.2506 -0.1331
 5189TIP3   OH237201   4.925   0.404   7.948 -0.3305  0.2777  0.3935
 5189TIP3    H137202   4.971   0.477   7.989  0.0172  1.3399 -1.7325
 5189TIP3    H237203   4.976   0.384   7.870 -2.3030  0.1106 -0.9404
 5190TIP3   OH237204   1.702   4.707   7.439 -0.2744  0.1142 -0.3182
 5190TIP3    H137205   1.683   4.663   7.522 -1.0891 -1.5140 -1.3173
 5190TIP3    H237206   1.701   4.800   7.461 -2.4129 -0.1661  1.1297
 5191TIP3   OH237207   0.139   2.513   0.217 -0.4682 -0.1275 -0.2287
 5191TIP3    H137208   0.177   2.448   0.157  0.7408  0.5225 -0.2049
 5191TIP3    H237209   0.065   2.550   0.169  0.3168  0.1888 -1.2299
 5192TIP3   OH237210   3.340   0.886   0.297  0.3160  0.0472 -0.1080
 5192TIP3    H137211   3.291   0.821   0.247  0.9988  1.7494 -3.2518
 5192TIP3    H237212   3.277   0.918   0.363 -1.6486 -0.3241 -1.6983
 5193TIP3   OH237213   1.179   1.212   1.218  0.7460 -0.2375 -0.5435
 5193TIP3    H137214   1.138   1.169   1.293  1.8596  1.9802  1.4295
 5193TIP3    H237215   1.110   1.270   1.183  0.9157  0.4464  0.2314
 5194TIP3   OH237216   1.460   1.713   7.698  0.0859 -0.0578 -0.2706
 5194TIP3    H137217   1.443   1.729   7.791 -1.2706 -1.6265 -0.1919
 5194TIP3    H237218   1.533   1.770   7.677 -0.3835  1.2802  1.4445
 5195TIP3   OH237219   1.274   5.283   0.226 -0.3857 -0.1644 -0.0149
 5195TIP3    H137220   1.325   5.322   0.154 -1.0624  1.1195  0.1762
 5195TIP3    H237221   1.186   5.317   0.214 -0.7044 -0.6227  0.9411
 5196TIP3   OH237222   4.365   2.770   8.560 -0.0758 -0.3533  0.5490
 5196TIP3    H137223   4.411   2.688   8.544  0.1704 -0.0158 -0.5485
 5196TIP3    H237224   4.427   2.822   8.611  0.3941 -0.2586 -0.1112
 5197TIP3   OH237225   2.448   2.277   1.691  0.3024 -0.9566  0.3373
 5197TIP3    H137226   2.536   2.255   1.721  0.1361 -1.6331  0.3471
 5197TIP3    H237227   2.438   2.229   1.609 -0.4899 -1.8664  0.9481
 5198TIP3   OH237228   5.050   6.444   2.493  0.5201  0.3932  0.3110
 5198TIP3    H137229   5.115   6.471   2.429  1.7250  0.7234  1.6345
 5198TIP3    H237230   5.001   6.374   2.450  1.6145  0.2757 -0.7703
 5199TIP3   OH237231   3.811   0.492   1.753  0.1629  0.7321  0.1375
 5199TIP3    H137232   3.719   0.516   1.743 -0.2699  0.9031  3.3603
 5199TIP3    H237233   3.853   0.572   1.784  1.2006  0.3899 -0.3515
 5200TIP3   OH237234   0.734   1.947   0.209  0.2893  0.7332  0.1975
 5200TIP3    H137235   0.695   1.945   0.121 -2.6897 -1.4399  1.3722
 5200TIP3    H237236   0.678   2.007   0.258 -0.0744 -0.4726  1.3206
 5201TIP3   OH237237   6.127   2.400   2.330 -0.4413  0.0148  0.2048
 5201TIP3    H137238   6.113   2.422   2.422  1.6994  0.3546  0.5156
 5201TIP3    H237239   6.159   2.310   2.332  0.4336  0.3061 -0.0959
 5202TIP3   OH237240   2.712   6.838   1.175  0.4416  0.0067  0.3836
 5202TIP3    H137241   2.754   6.901   1.116  2.0723 -1.7277 -0.4446
 5202TIP3    H237242   2.674   6.772   1.116 -1.7880  0.5051  1.2061
 5203TIP3   OH237243   1.404   1.908   2.275 -0.5069 -0.1277  0.1433
 5203TIP3    H137244   1.341   1.894   2.346 -0.8838  0.0339 -0.1531
 5203TIP3    H237245   1.353   1.895   2.195  0.4870 -2.9977 -0.1300
 5204TIP3   OH237246   1.974   2.255   1.167  0.1795  0.4987 -0.0334
 5204TIP3    H137247   1.878   2.260   1.165  0.1613  0.0097 -0.7987
 5204TIP3    H237248   1.998   2.215   1.084  1.0758  0.8661  0.0359
 5205TIP3   OH237249   2.092   0.094   8.653  0.5032 -0.0730 -0.0615
 5205TIP3    H137250   2.132   0.181   8.658  0.3119  0.0088  0.0817
 5205TIP3    H237251   2.113   0.053   8.737 -0.2693  0.2205  0.2900
 5206TIP3   OH237252   6.708   3.964   7.873  0.3046  0.1364  1.1058
 5206TIP3    H137253   6.642   3.932   7.935 -1.5794  0.5950 -0.5750
 5206TIP3    H237254   6.717   3.893   7.810 -1.1343  1.3241 -0.5402
 5207TIP3   OH237255   5.878   4.822   0.380  0.5201  0.3024 -0.1808
 5207TIP3    H137256   5.848   4.888   0.318  0.4782  1.8148  1.3542
 5207TIP3    H237257   5.935   4.764   0.329 -0.2244  0.9472 -1.7917
 5208TIP3   OH237258   0.760   3.289   8.240  0.0537 -0.0567 -0.3266
 5208TIP3    H137259   0.798   3.361   8.289  0.4670 -0.0637 -0.6394
 5208TIP3    H237260   0.824   3.268   8.173  0.6353 -1.7066  0.6722
 5209TIP3   OH237261   0.078   0.878   0.177  1.1778  0.2610  0.0758
 5209TIP3    H137262   0.093   0.808   0.241 -0.3277 -0.1650 -0.0086
 5209TIP3    H237263   0.166   0.907   0.153  1.9018 -2.1499 -0.4776
 5210TIP3   OH237264   5.754   1.484   7.398 -0.2963  0.3976  0.2975
 5210TIP3    H137265   5.806   1.507   7.321 -1.1306 -2.0432 -1.1259
 5210TIP3    H237266   5.808   1.418   7.444 -1.3034 -0.8512 -0.2418
 5211TIP3   OH237267   4.149   5.972   7.605  0.0484  0.2642 -0.2167
 5211TIP3    H137268   4.169   5.923   7.684 -0.5470 -2.0462 -1.4133
 5211TIP3    H237269   4.231   5.972   7.556 -0.3771 -1.1395 -0.9898
 5212TIP3   OH237270   2.252   1.081   1.236 -0.2889 -0.0280 -0.4121
 5212TIP3    H137271   2.236   0.993   1.270  0.1374  0.4481  1.0717
 5212TIP3    H237272   2.183   1.135   1.274 -1.1953  0.1210 -2.1636
 5213TIP3   OH237273   6.001   0.617   0.652 -0.0344 -0.8230 -0.3157
 5213TIP3    H137274   6.054   0.697   0.655 -0.4852 -0.4322 -1.8999
 5213TIP3    H237275   6.031   0.571   0.574 -0.5179 -1.6863 -0.0032
 5214TIP3   OH237276   1.955   4.700   7.645  0.3846  0.3889 -0.6238
 5214TIP3    H137277   1.943   4.794   7.660  0.3295  0.3447 -0.3878
 5214TIP3    H237278   1.898   4.658   7.710  0.9175  0.1887 -0.2849
 5215TIP3   OH237279   5.873   2.346   2.538 -0.4057 -0.1043  0.0243
 5215TIP3    H137280   5.828   2.374   2.617  0.1798 -0.2296  0.4047
 5215TIP3    H237281   5.955   2.396   2.537 -0.4800  0.0206 -0.5876
 5216TIP3   OH237282   3.654   5.215   7.403 -0.0994 -0.2753 -0.9652
 5216TIP3    H137283   3.733   5.204   7.456  0.4832  2.1299 -1.2195
 5216TIP3    H237284   3.610   5.130   7.409 -0.0140 -0.2536  3.2370
 5217TIP3   OH237285   3.824   4.920   8.603  0.3007 -0.4195  0.2191
 5217TIP3    H137286   3.839   5.008   8.639 -1.8469  0.5364 -0.9777
 5217TIP3    H237287   3.866   4.861   8.665  0.0320  1.3487  2.2117
 5218TIP3   OH237288   0.454   6.458   0.842 -0.0305 -0.3651  0.0863
 5218TIP3    H137289   0.398   6.526   0.805 -0.1800 -1.4989 -1.8664
 5218TIP3    H237290   0.410   6.376   0.822  0.9921 -1.1485  0.9016
 5219TIP3   OH237291   2.968   5.614   2.207 -0.0264  0.2061 -0.3721
 5219TIP3    H137292   2.890   5.598   2.260  0.3919  1.8523  0.8203
 5219TIP3    H237293   2.962   5.550   2.136 -2.8359  0.7804 -0.7615
 5220TIP3   OH237294   3.727   5.635   0.997 -0.2148  0.5336 -0.2072
 5220TIP3    H137295   3.713   5.547   0.961  1.8784  0.2216 -0.3361
 5220TIP3    H237296   3.723   5.623   1.092 -0.1931  0.3579 -0.2287
 5221TIP3   OH237297   1.971   2.722   8.275 -0.1293  0.0957 -0.1504
 5221TIP3    H137298   1.957   2.806   8.231  0.1114  0.1817 -0.0635
 5221TIP3    H237299   1.883   2.691   8.296 -0.3751 -0.6717 -2.0317
 5222TIP3   OH237300   6.169   0.494   0.846  0.9577  0.3638  0.4414
 5222TIP3    H137301   6.105   0.518   0.778 -0.1908  0.1154  1.3919
 5222TIP3    H237302   6.115   0.471   0.922  2.1587 -0.8603  0.9634
 5223TIP3   OH237303   0.650   1.723   0.019 -0.0971  0.0562 -0.6359
 5223TIP3    H137304   0.633   1.816   0.011 -2.0880 -0.2501 -0.4060
 5223TIP3    H237305   0.646   1.706   0.113  1.3903 -0.1138 -0.5655
 5224TIP3   OH237306   1.809   5.988   0.224  0.0593 -0.2026  0.1896
 5224TIP3    H137307   1.860   5.909   0.246  1.2087  0.6927  0.8884
 5224TIP3    H237308   1.728   5.979   0.274 -0.8904 -2.0279 -1.5346
 5225TIP3   OH237309   1.078   5.752   0.344  0.4382  0.1400 -0.2610
 5225TIP3    H137310   1.165   5.714   0.330  0.0197 -1.1122  0.3769
 5225TIP3    H237311   1.024   5.715   0.275  0.2304  0.2826 -0.1775
 5226TIP3   OH237312   0.900   2.267   8.701 -0.0520  0.0065  0.0083
 5226TIP3    H137313   0.871   2.182   8.668 -0.8117  0.2633 -0.0266
 5226TIP3    H237314   0.933   2.249   8.789 -0.5319 -0.2819  0.1365
 5227TIP3   OH237315   3.600   3.655   7.617 -0.1805  0.0634 -0.0680
 5227TIP3    H137316   3.547   3.599   7.560  1.3979 -0.7751 -0.8118
 5227TIP3    H237317   3.558   3.650   7.702 -1.3494 -0.4606 -0.6496
 5228TIP3   OH237318   4.243   3.956   2.873  0.0401  0.3749 -0.2449
 5228TIP3    H137319   4.167   3.937   2.818  1.1323  1.3697 -2.1832
 5228TIP3    H237320   4.209   4.013   2.942 -1.1228  0.0962 -0.5603
 5229TIP3   OH237321   0.021   6.809   0.039 -0.1285 -0.2940 -0.1779
 5229TIP3    H137322  -0.047   6.743   0.030 -1.2219  0.7613  0.0336
 5229TIP3    H237323   0.103   6.760   0.041 -0.8664 -1.5811 -0.6150
 5230TIP3   OH237324   1.322   6.724   7.099 -0.1359 -0.4718  0.2855
 5230TIP3    H137325   1.227   6.728   7.084  0.1154  0.5685 -1.2090
 5230TIP3    H237326   1.360   6.774   7.028  1.5011  0.2828  1.6230
 5231TIP3   OH237327   4.997   1.213   1.065  0.0088 -0.2756  0.4881
 5231TIP3    H137328   5.032   1.218   1.154  0.8565  1.8456  0.0875
 5231TIP3    H237329   5.044   1.281   1.017 -1.2937 -0.5690 -1.2843
 5232TIP3   OH237330   2.808   6.480   3.244  0.0476  0.5867 -0.0677
 5232TIP3    H137331   2.785   6.568   3.273  2.2207  1.2291 -0.1469
 5232TIP3    H237332   2.900   6.469   3.268 -0.9391 -2.9478  2.9726
 5233TIP3   OH237333   2.830   3.060   7.835  0.5902 -0.1746 -0.1422
 5233TIP3    H137334   2.873   3.032   7.916  1.7987 -0.4713 -0.8622
 5233TIP3    H237335   2.883   3.132   7.803 -0.9162  1.1730  0.2320
 5234TIP3   OH237336   1.522   5.537   0.610 -0.7083 -0.0318 -0.1364
 5234TIP3    H137337   1.494   5.623   0.580  0.2242 -0.4725 -2.4395
 5234TIP3    H237338   1.473   5.475   0.556  0.2197 -0.8949 -0.0246
 5235TIP3   OH237339   2.825   0.257   1.741 -0.0642 -0.0029 -0.4233
 5235TIP3    H137340   2.854   0.171   1.770  1.8048  0.7471  0.0368
 5235TIP3    H237341   2.736   0.242   1.707  1.1561 -2.6277 -2.8465
 5236TIP3   OH237342   6.277   3.604   1.717  0.0714 -0.1758  0.2019
 5236TIP3    H137343   6.200   3.598   1.772 -1.6660 -0.3110 -2.1032
 5236TIP3    H237344   6.328   3.525   1.738 -1.2437 -0.9401  0.5971
 5237TIP3   OH237345   1.701   0.752   0.991 -0.1244 -0.0837  0.1481
 5237TIP3    H137346   1.794   0.739   1.007 -0.1099 -0.9595 -0.5581
 5237TIP3    H237347   1.667   0.789   1.073  0.5040 -1.5029  1.0926
 5238TIP3   OH237348   6.149   2.329   1.727 -0.5260 -0.0903 -0.2286
 5238TIP3    H137349   6.081   2.293   1.784 -1.4807 -0.2957 -1.4445
 5238TIP3    H237350   6.161   2.263   1.659  0.1188  0.4206 -0.6239
 5239TIP3   OH237351   4.654   3.899   1.382 -0.1898 -0.4048  0.5542
 5239TIP3    H137352   4.711   3.922   1.308 -0.4264 -0.6439  0.2959
 5239TIP3    H237353   4.568   3.934   1.358 -0.3475 -0.7839  0.5567
 5240TIP3   OH237354   1.296   1.540   2.063 -0.5802 -0.1659  0.1568
 5240TIP3    H137355   1.214   1.503   2.030 -0.2721 -0.7680  0.0574
 5240TIP3    H237356   1.271   1.582   2.145 -1.2868  1.0439 -0.6374
 5241TIP3   OH237357   1.223   3.488   7.693 -0.4229  0.2624 -0.2185
 5241TIP3    H137358   1.227   3.393   7.705 -0.2313 -0.0411 -2.3996
 5241TIP3    H237359   1.286   3.506   7.623 -1.8633  1.7346 -1.1919
 5242TIP3   OH237360   0.439   6.075   1.492 -0.1845 -0.1216 -0.3179
 5242TIP3    H137361   0.377   6.021   1.542 -0.4355 -0.4884 -1.0163
 5242TIP3    H237362   0.387   6.151   1.463 -0.1138 -0.0517 -0.2622
 5243TIP3   OH237363   4.995   6.068   8.488 -0.4953  0.3219 -0.5267
 5243TIP3    H137364   4.931   6.056   8.418  0.8446  2.7535 -2.3520
 5243TIP3    H237365   5.072   6.103   8.444  1.5513 -0.9348  1.8090
 5244TIP3   OH237366   2.427   6.860   8.671 -0.8115  0.5798 -0.2246
 5244TIP3    H137367   2.519   6.846   8.646 -0.8773 -0.2312 -0.0274
 5244TIP3    H237368   2.426   6.948   8.708  0.1558  0.0932  1.0230
 5245TIP3   OH237369   1.275   6.473   8.322  0.5767 -0.1956 -0.2325
 5245TIP3    H137370   1.285   6.379   8.311 -0.0991 -0.0252 -3.1815
 5245TIP3    H237371   1.204   6.497   8.262  1.8042  2.3665 -0.8027
 5246TIP3   OH237372   5.337   6.696   7.498 -0.0922 -0.2661  0.0360
 5246TIP3    H137373   5.260   6.685   7.441  0.0409 -1.0051 -0.0201
 5246TIP3    H237374   5.379   6.776   7.468 -1.9589  1.3253  1.3992
 5247TIP3   OH237375   1.326   3.450   1.947 -0.2169  0.4596 -0.6406
 5247TIP3    H137376   1.337   3.397   1.868  1.3492  0.9997 -0.8013
 5247TIP3    H237377   1.231   3.457   1.957 -0.4718 -2.0362 -0.8295
 5248TIP3   OH237378   1.437   6.759   7.930  0.5197 -0.3182  0.5300
 5248TIP3    H137379   1.473   6.847   7.943  0.2339 -0.3327  1.5234
 5248TIP3    H237380   1.490   6.702   7.986  1.1739 -0.9214 -0.6579
 5249TIP3   OH237381   0.376   1.854   0.936 -0.2216  0.2314  0.3106
 5249TIP3    H137382   0.428   1.814   1.005 -0.8973 -1.0012  0.1428
 5249TIP3    H237383   0.298   1.799   0.929 -0.8881  1.2149 -0.3974
 5250TIP3   OH237384   6.098   0.118   7.073  0.3000 -0.5326 -0.1048
 5250TIP3    H137385   6.165   0.064   7.033  1.3547  0.7884 -0.1975
 5250TIP3    H237386   6.029   0.125   7.007 -0.0571 -2.0765  0.0723
 5251TIP3   OH237387   3.877   2.322   1.668 -0.0469  0.4157  0.3404
 5251TIP3    H137388   3.869   2.359   1.580 -0.1930  1.9649  0.9724
 5251TIP3    H237389   3.959   2.272   1.667  1.2676  2.4841  0.0237
 5252TIP3   OH237390   4.367   3.428   2.990 -0.0200  0.0988 -0.4031
 5252TIP3    H137391   4.453   3.394   2.964  1.1238  0.4154  2.5779
 5252TIP3    H237392   4.376   3.445   3.083 -2.9347  1.4886 -0.2895
 5253TIP3   OH237393   5.854   2.991   0.168  0.3611 -0.4020  0.4051
 5253TIP3    H137394   5.799   2.917   0.142  0.5452  0.5010 -3.0099
 5253TIP3    H237395   5.794   3.048   0.217 -0.5359 -1.4871  0.6164
 5254TIP3   OH237396   2.291   2.607   7.729  0.0683 -0.2448  0.3551
 5254TIP3    H137397   2.225   2.619   7.797 -0.1482 -1.3679  0.3766
 5254TIP3    H237398   2.354   2.678   7.743 -0.6282  0.2757  0.9349
 5255TIP3   OH237399   1.105   1.630   0.464  0.6173 -0.2744  0.3044
 5255TIP3    H137400   1.035   1.676   0.418  1.9223 -0.8185 -2.4615
 5255TIP3    H237401   1.128   1.557   0.406  3.8074  0.2193  0.7362
 5256TIP3   OH237402   6.375   0.449   7.567  0.1601 -0.0767 -0.1877
 5256TIP3    H137403   6.435   0.465   7.640  1.9936 -0.5429 -1.5170
 5256TIP3    H237404   6.419   0.488   7.491 -0.5538 -1.6539 -1.4571
 5257TIP3   OH237405   1.936   3.096   2.118 -0.5453  0.4432 -0.9398
 5257TIP3    H137406   1.868   3.054   2.064 -1.8184 -2.6970  2.6433
 5257TIP3    H237407   1.887   3.139   2.188  1.0911  0.2636  0.3603
 5258TIP3   OH237408   2.800   5.593   0.568  0.3507 -0.1591  0.0538
 5258TIP3    H137409   2.840   5.662   0.514 -0.6153 -0.5915 -1.2804
 5258TIP3    H237410   2.799   5.630   0.656 -1.5089  2.2345 -0.8346
 5259TIP3   OH237411   1.119   6.239   8.041 -0.1375  0.0738 -0.2460
 5259TIP3    H137412   1.150   6.223   7.953 -0.4939 -1.5594 -0.1130
 5259TIP3    H237413   1.063   6.164   8.061 -1.2420  1.1243  0.8347
 5260TIP3   OH237414   5.993   5.949   0.594 -0.3057  0.5098 -0.4314
 5260TIP3    H137415   5.922   6.009   0.619 -0.7049  0.3900 -1.2311
 5260TIP3    H237416   5.977   5.870   0.644  0.6350  1.2910  1.1848
 5261TIP3   OH237417   1.850   4.066   0.621 -0.1408  0.0032  0.2812
 5261TIP3    H137418   1.870   3.972   0.621  0.0999  0.0419 -1.2817
 5261TIP3    H237419   1.933   4.109   0.603 -0.5834  0.4193 -0.8562
 5262TIP3   OH237420   6.532   5.031   1.135 -0.0642 -0.1480  1.0348
 5262TIP3    H137421   6.565   4.956   1.086 -1.4305  0.4699 -0.9587
 5262TIP3    H237422   6.596   5.044   1.205  1.2330 -1.9573  0.2591
 5263TIP3   OH237423   3.204   3.448   2.369  0.2904  0.0130 -0.0104
 5263TIP3    H137424   3.175   3.441   2.278 -1.8146  0.4066  0.5804
 5263TIP3    H237425   3.138   3.505   2.410 -0.4252 -2.3953  2.4029
 5264TIP3   OH237426   0.733   1.035   7.366  0.1490  0.2279 -0.1136
 5264TIP3    H137427   0.711   1.125   7.341  0.5184  1.0226  2.1262
 5264TIP3    H237428   0.801   1.009   7.304  0.7541  1.8811 -0.2020
 5265TIP3   OH237429   3.628   3.710   8.142  0.4770 -0.2665  0.1870
 5265TIP3    H137430   3.592   3.686   8.057 -0.7340 -0.6348  0.7758
 5265TIP3    H237431   3.668   3.629   8.175 -0.7207 -0.6473  0.7615
 5266TIP3   OH237432   4.049   5.068   1.011  0.4087  0.6169  0.1805
 5266TIP3    H137433   4.053   5.143   0.951 -0.3590  0.1008 -0.5475
 5266TIP3    H237434   4.140   5.050   1.033  0.7758  0.4201 -1.3660
 5267TIP3   OH237435   3.694   0.664   2.430  0.4671 -0.0623  0.2539
 5267TIP3    H137436   3.756   0.664   2.503  1.4128  2.1357 -0.4500
 5267TIP3    H237437   3.612   0.694   2.468  0.4605 -0.6869  0.7469
 5268TIP3   OH237438   5.289   4.576   1.101  0.5855  0.8090 -0.6174
 5268TIP3    H137439   5.207   4.590   1.053  0.5937 -0.8987 -1.1992
 5268TIP3    H237440   5.350   4.545   1.034  1.0588 -0.0825  0.2044
 5269TIP3   OH237441   6.402   5.410   0.668  0.6071 -0.2168 -0.1194
 5269TIP3    H137442   6.463   5.432   0.598  1.7846 -0.4827  0.7887
 5269TIP3    H237443   6.357   5.492   0.687  1.2997  0.2023 -0.2305
 5270TIP3   OH237444   0.597   1.551   0.809 -0.3188  0.0641 -0.1371
 5270TIP3    H137445   0.506   1.528   0.792 -0.8327  1.0706  1.0977
 5270TIP3    H237446   0.594   1.639   0.847  0.8946 -0.8023  2.2190
 5271TIP3   OH237447   5.243   0.344   2.651  0.4232  0.7481 -0.5215
 5271TIP3    H137448   5.320   0.310   2.697 -0.4731 -0.7532 -0.0483
 5271TIP3    H237449   5.279   0.399   2.582  1.9554 -0.3048 -0.6264
 5272TIP3   OH237450   5.693   6.349   0.868 -0.1222 -0.6403 -0.2849
 5272TIP3    H137451   5.647   6.402   0.933  0.4547  0.0009 -0.3765
 5272TIP3    H237452   5.735   6.279   0.918  0.0731 -0.3252 -0.0041
 5273TIP3   OH237453   5.275   2.737   0.079 -0.3374  0.5861  0.0070
 5273TIP3    H137454   5.328   2.674   0.127 -0.4326  1.0898  0.7941
 5273TIP3    H237455   5.292   2.718  -0.014  2.0331  1.3692  0.2068
 5274TIP3   OH237456   1.478   1.475   1.638 -0.3787  0.4621  0.8372
 5274TIP3    H137457   1.541   1.542   1.610  1.5621 -1.7599 -0.5065
 5274TIP3    H237458   1.476   1.413   1.565  0.0296 -2.3451  3.0663
 5275TIP3   OH237459   6.281   1.870   8.693  0.9355  0.3644  0.2793
 5275TIP3    H137460   6.288   1.914   8.777  3.5790 -0.3330  0.5092
 5275TIP3    H237461   6.240   1.786   8.714  0.0921  0.8312  0.5689
 5276TIP3   OH237462   3.465   0.792   1.748 -0.1611  0.5153 -0.0466
 5276TIP3    H137463   3.373   0.787   1.774  0.4995 -0.4544  2.3377
 5276TIP3    H237464   3.486   0.703   1.719  0.2307  0.5392  0.1662
 5277TIP3   OH237465   4.024   4.182   2.256  0.3461  0.5132  0.7916
 5277TIP3    H137466   4.077   4.246   2.209  1.5455 -0.6837  0.4438
 5277TIP3    H237467   4.002   4.117   2.189  0.8426 -0.4593  1.5547
 5278TIP3   OH237468   5.067   2.603   0.217  0.2639  0.0859  0.0517
 5278TIP3    H137469   5.152   2.636   0.188 -0.5332  0.6820 -1.7565
 5278TIP3    H237470   5.077   2.590   0.311  2.2769  0.3478 -0.0859
 5279TIP3   OH237471   2.642   2.118   1.833  0.5791  0.2937  0.4224
 5279TIP3    H137472   2.608   2.035   1.801  1.1581 -0.0792  0.7717
 5279TIP3    H237473   2.737   2.106   1.837  0.7246  1.1664 -0.0834
 5280TIP3   OH237474   0.577   4.343   8.446 -0.4263 -0.1120 -0.2659
 5280TIP3    H137475   0.534   4.387   8.372  0.9697 -0.7399 -1.4983
 5280TIP3    H237476   0.584   4.410   8.514  1.1919  1.4924 -1.9128
 5281TIP3   OH237477   6.208   1.392   1.504 -0.4243  0.0206  0.1752
 5281TIP3    H137478   6.229   1.308   1.546 -1.8142 -1.5690 -2.0484
 5281TIP3    H237479   6.120   1.413   1.536 -0.8507 -0.3984 -0.6773
 5282TIP3   OH237480   5.699   4.337   2.034  0.2309 -0.4064 -0.2151
 5282TIP3    H137481   5.649   4.259   2.056 -0.5467 -0.3139 -1.5783
 5282TIP3    H237482   5.633   4.404   2.019  0.8990  0.6296  1.2441
 5283TIP3   OH237483   2.171   0.700   2.453 -0.4475  0.1895 -0.6527
 5283TIP3    H137484   2.145   0.720   2.543  2.2687  0.6587  0.1007
 5283TIP3    H237485   2.136   0.612   2.437 -1.3002  0.2493  0.6875
 5284TIP3   OH237486   4.367   4.856   2.139  0.1791 -0.4919  0.7464
 5284TIP3    H137487   4.365   4.918   2.212 -1.1074  1.6841 -1.0096
 5284TIP3    H237488   4.283   4.810   2.143 -0.4755  0.5784 -0.0608
 5285TIP3   OH237489   4.199   4.725   0.498 -0.7044 -0.1928  0.4235
 5285TIP3    H137490   4.238   4.729   0.411 -1.4309  0.2481  0.1099
 5285TIP3    H237491   4.264   4.678   0.551 -0.2404 -0.4335 -0.3396
 5286TIP3   OH237492   2.997   3.996   1.165  0.0183  0.3808  0.4107
 5286TIP3    H137493   2.964   3.938   1.096 -0.2769 -1.9601  2.3496
 5286TIP3    H237494   3.059   4.053   1.121  0.7334 -1.7794 -1.6181
 5287TIP3   OH237495   3.974   5.624   7.638  0.0142 -0.3398 -0.1910
 5287TIP3    H137496   3.938   5.647   7.552  1.5520 -1.4953 -1.1803
 5287TIP3    H237497   3.995   5.531   7.632  1.6221 -0.0953  0.8905
 5288TIP3   OH237498   1.026   6.449   8.192 -0.3512 -0.0666  0.0683
 5288TIP3    H137499   1.064   6.366   8.165  0.8114  0.5170 -0.1626
 5288TIP3    H237500   1.026   6.503   8.113  1.2727  0.9910  0.7419
 5289TIP3   OH237501   0.115   1.682   8.079 -0.5041  0.0875 -0.1278
 5289TIP3    H137502   0.090   1.774   8.085  0.4948  0.5710 -2.3755
 5289TIP3    H237503   0.033   1.635   8.070 -1.0319  0.7376  1.0949
 5290TIP3   OH237504   4.588   3.050   0.467 -0.0259  0.2863  0.1194
 5290TIP3    H137505   4.506   3.041   0.516  0.3396  1.0401  0.9009
 5290TIP3    H237506   4.588   3.142   0.438 -0.5743 -0.3206 -1.9362
 5291TIP3   OH237507   4.641   1.661   2.007  0.1757 -0.3621 -0.2110
 5291TIP3    H137508   4.727   1.629   1.979  0.6634 -1.9391  2.6149
 5291TIP3    H237509   4.589   1.581   2.020 -0.7104  0.3739  0.9780
 5292TIP3   OH237510   1.735   6.006   0.591  0.2650  0.2722  0.2142
 5292TIP3    H137511   1.694   6.093   0.584  0.3060  0.1849 -1.7360
 5292TIP3    H237512   1.679   5.949   0.540  1.0639 -0.5389  0.2262
 5293TIP3   OH237513   4.864   0.865   1.680  0.3010  0.4428  0.1812
 5293TIP3    H137514   4.814   0.815   1.744 -0.9781 -0.7406 -1.6755
 5293TIP3    H237515   4.952   0.871   1.719 -0.0543 -1.4424  1.4106
 5294TIP3   OH237516   1.969   0.743   1.333 -0.1815 -0.4772 -0.1314
 5294TIP3    H137517   1.926   0.659   1.349 -1.1541 -0.1398 -0.8369
 5294TIP3    H237518   2.029   0.754   1.407 -1.9865 -0.5533  1.4470
 5295TIP3   OH237519   1.268   3.742   8.132 -0.4566 -0.0474 -0.2859
 5295TIP3    H137520   1.194   3.773   8.080 -1.7191 -1.8002  0.3864
 5295TIP3    H237521   1.287   3.814   8.192 -0.0830  1.3208 -1.9551
 5296TIP3   OH237522   4.229   6.827   0.062  0.4467 -0.6735  0.2571
 5296TIP3    H137523   4.211   6.874  -0.020  1.5557 -1.0059 -0.1948
 5296TIP3    H237524   4.145   6.826   0.108  0.2212  1.1158 -0.0430
 5297TIP3   OH237525   5.608   1.354   7.840  0.3567  0.3533  0.1853
 5297TIP3    H137526   5.518   1.341   7.808  0.7073  2.5002 -1.9628
 5297TIP3    H237527   5.597   1.401   7.923 -0.5781  2.5113 -1.0561
 5298TIP3   OH237528   1.732   0.038   1.020  0.3589 -0.4172  0.1795
 5298TIP3    H137529   1.696   0.111   0.970  1.1207 -0.6932 -0.8124
 5298TIP3    H237530   1.803   0.077   1.071  1.7193 -0.6376 -1.4151
 5299TIP3   OH237531   3.965   0.961   0.534  0.0423 -0.3090 -0.1535
 5299TIP3    H137532   3.916   0.889   0.574 -0.4122  0.4027  0.5809
 5299TIP3    H237533   3.982   0.931   0.444 -0.5399 -1.1380  0.0030
 5300TIP3   OH237534   5.300   2.880   8.426  0.0678  0.6686  0.4256
 5300TIP3    H137535   5.380   2.835   8.401  0.2406 -0.1076  2.2233
 5300TIP3    H237536   5.247   2.813   8.469 -1.0122  1.4664  0.3940
 5301TIP3   OH237537   2.129   6.002   8.530  0.6173  0.2703 -0.2107
 5301TIP3    H137538   2.219   5.974   8.543  0.7629  0.4327 -0.8673
 5301TIP3    H237539   2.112   6.061   8.604  0.8504 -0.2221  0.2433
 5302TIP3   OH237540   4.332   4.110   0.682  0.9385  0.0589  0.2790
 5302TIP3    H137541   4.336   4.135   0.775  0.4344 -2.9299  1.1880
 5302TIP3    H237542   4.310   4.017   0.682  0.0183  0.1466 -2.9026
 5303TIP3   OH237543   0.523   2.540   1.224 -0.2982  0.3988  0.2613
 5303TIP3    H137544   0.493   2.527   1.134  0.9657 -0.9078  0.0037
 5303TIP3    H237545   0.467   2.483   1.276 -1.3375  1.4992  0.3917
 5304TIP3   OH237546   3.069   3.811   0.559 -0.2062  0.1862  0.1881
 5304TIP3    H137547   3.129   3.847   0.624  0.3107 -2.8941  1.6193
 5304TIP3    H237548   3.116   3.820   0.476  1.3643 -0.2170  0.9766
 5305TIP3   OH237549   6.669   3.346   2.463 -0.0429 -0.2103  0.7223
 5305TIP3    H137550   6.730   3.364   2.392  0.5758 -3.4582  0.2594
 5305TIP3    H237551   6.702   3.396   2.537 -0.1000  2.4388 -0.9126
 5306TIP3   OH237552   3.443   1.065   8.580 -0.2852  0.8058 -0.0772
 5306TIP3    H137553   3.488   1.038   8.660  0.3988 -0.4262 -0.8404
 5306TIP3    H237554   3.514   1.075   8.516 -0.9980 -0.4273 -1.1068
 5307TIP3   OH237555   1.623   6.420   2.190 -0.5482 -0.4108  0.0478
 5307TIP3    H137556   1.642   6.327   2.175  1.2736 -0.1152  0.3074
 5307TIP3    H237557   1.638   6.461   2.104  1.0018 -0.0427  0.4604
 5308TIP3   OH237558   2.243   1.959   0.324  0.6159  0.7292  0.4689
 5308TIP3    H137559   2.150   1.958   0.303  0.3262  1.2563  1.6491
 5308TIP3    H237560   2.274   2.043   0.288  0.5486  0.7493  0.4569
 5309TIP3   OH237561   3.879   0.910   1.607 -0.3633  0.3914 -0.4421
 5309TIP3    H137562   3.836   0.960   1.538 -0.7081 -0.0342 -0.5389
 5309TIP3    H237563   3.810   0.895   1.672 -0.2936 -0.0667 -0.4730
 5310TIP3   OH237564   5.842   1.832   7.830 -0.0951 -0.6569  0.7758
 5310TIP3    H137565   5.911   1.879   7.878  0.1223  1.2949 -1.3071
 5310TIP3    H237566   5.882   1.748   7.808  1.0033 -0.2191  1.0382
 5311TIP3   OH237567   0.350   3.015   2.804 -0.0837  0.0021  0.2251
 5311TIP3    H137568   0.326   2.935   2.850  0.8592 -0.4465 -0.0509
 5311TIP3    H237569   0.366   3.079   2.873  1.9613 -0.8392  0.6033
 5312TIP3   OH237570   3.876   1.804   0.944  0.0299 -0.9853 -0.0074
 5312TIP3    H137571   3.859   1.725   0.894 -0.5362 -0.2387 -1.0445
 5312TIP3    H237572   3.927   1.860   0.884 -0.4789 -0.1524  0.3172
 5313TIP3   OH237573   2.824   5.576   1.454  0.4207 -0.0266  0.6108
 5313TIP3    H137574   2.816   5.654   1.509 -4.3629 -0.7362  1.3272
 5313TIP3    H237575   2.854   5.508   1.513 -0.3413  0.1851  1.2541
 5314TIP3   OH237576   3.363   5.699   2.844  0.3215 -0.3926  0.8471
 5314TIP3    H137577   3.330   5.788   2.830 -0.5806 -0.8136  0.2468
 5314TIP3    H237578   3.431   5.709   2.911  2.5773  1.2283 -1.5261
 5315TIP3   OH237579   1.534   2.524   7.367 -0.2741  0.1391 -0.6120
 5315TIP3    H137580   1.453   2.472   7.374 -0.4318  0.5600  0.8877
 5315TIP3    H237581   1.504   2.614   7.360  0.0293  0.5889  2.6056
 5316TIP3   OH237582   4.348   1.524   1.938  0.3752 -0.3964 -0.1988
 5316TIP3    H137583   4.269   1.475   1.917  1.2592 -1.4319 -1.2975
 5316TIP3    H237584   4.397   1.466   1.996 -0.6788  1.2179  2.5054
 5317TIP3   OH237585   5.308   0.882   1.115 -0.2471  0.3136 -0.2215
 5317TIP3    H137586   5.239   0.827   1.078  0.6461 -1.9114  1.2339
 5317TIP3    H237587   5.350   0.921   1.038 -1.0353 -0.8956 -1.3153
 5318TIP3   OH237588   6.819   6.760   0.370  1.0364 -0.5098 -0.2109
 5318TIP3    H137589   6.763   6.683   0.378  0.2528  0.2205  2.3354
 5318TIP3    H237590   6.876   6.740   0.296 -1.4202 -2.0157 -1.8615
 5319TIP3   OH237591   5.957   3.833   2.025  0.0276 -0.1040  0.5820
 5319TIP3    H137592   5.907   3.833   2.107  0.6339 -0.7155  0.9592
 5319TIP3    H237593   5.896   3.798   1.960 -1.0346  1.9697  0.3843
 5320TIP3   OH237594   0.338   6.624   0.350 -0.1159  0.2076  0.0798
 5320TIP3    H137595   0.359   6.697   0.292  1.0435  0.3034  0.5932
 5320TIP3    H237596   0.403   6.557   0.328  1.0280  0.6297  1.9554
 5321TIP3   OH237597   2.897   6.313   2.516 -0.0223  0.0661  1.1204
 5321TIP3    H137598   2.980   6.312   2.467 -0.3540  0.6875  0.5327
 5321TIP3    H237599   2.922   6.338   2.605  0.3758  0.6690  0.8446
 5322TIP3   OH237600   4.011   1.677   8.067  0.1204 -0.5276 -0.2671
 5322TIP3    H137601   4.086   1.647   8.016 -0.5534  0.3616 -1.8606
 5322TIP3    H237602   4.050   1.722   8.143  1.3206  1.5835 -2.0021
 5323TIP3   OH237603   5.381   6.515   0.451 -0.2454 -0.1451 -0.0212
 5323TIP3    H137604   5.460   6.513   0.505 -0.5489 -0.8081  0.4199
 5323TIP3    H237605   5.372   6.426   0.418 -0.1906  0.1985 -1.0015
 5324TIP3   OH237606   6.291   4.244   2.243 -0.3734  0.5672 -0.4976
 5324TIP3    H137607   6.241   4.266   2.165 -0.0179  0.6949 -0.6896
 5324TIP3    H237608   6.274   4.151   2.257 -2.0713  0.9849  0.4518
 5325TIP3   OH237609   3.636   6.189   0.520  0.6911 -0.0084  0.3406
 5325TIP3    H137610   3.563   6.221   0.573  1.2985  0.2880  1.0014
 5325TIP3    H237611   3.654   6.101   0.554  1.4116  0.3802  0.9643
 5326TIP3   OH237612   1.198   2.561   8.457  0.3089  0.3361 -0.2002
 5326TIP3    H137613   1.160   2.648   8.465  2.0997  1.0976  0.5298
 5326TIP3    H237614   1.128   2.501   8.483 -0.4219  1.6489  0.9717
 5327TIP3   OH237615   2.029   1.841   8.023  0.2717 -0.2088  0.1009
 5327TIP3    H137616   2.045   1.749   8.045 -0.9056 -0.2629  0.7937
 5327TIP3    H237617   1.945   1.861   8.064  1.0484  1.5064  0.9493
 5328TIP3   OH237618   3.329   3.222   0.211  0.1367 -0.0377  0.1525
 5328TIP3    H137619   3.292   3.290   0.154 -0.8467 -0.5606  0.1429
 5328TIP3    H237620   3.253   3.184   0.255  0.8621  0.3525  1.8477
 5329TIP3   OH237621   6.273   5.298   7.979 -0.5139  0.2751 -0.5863
 5329TIP3    H137622   6.236   5.324   7.895 -1.4629 -1.4330 -0.7469
 5329TIP3    H237623   6.198   5.294   8.038 -0.2444 -0.8773 -0.2933
 5330TIP3   OH237624   4.269   6.128   8.600  0.1704 -0.0315 -0.0207
 5330TIP3    H137625   4.303   6.045   8.568  2.2389  1.1884 -1.1984
 5330TIP3    H237626   4.344   6.172   8.639 -0.8569  1.3250  0.5161
 5331TIP3   OH237627   4.082   2.098   8.083 -0.3222  0.5343 -0.0418
 5331TIP3    H137628   4.122   2.034   8.142 -2.3789 -0.1628  0.6457
 5331TIP3    H237629   4.065   2.174   8.138 -0.0397  0.8076 -0.3229
 5332TIP3   OH237630   6.024   0.824   1.025  0.3430 -0.0531 -0.5714
 5332TIP3    H137631   6.007   0.907   1.070  1.7039  0.2870 -0.6136
 5332TIP3    H237632   6.118   0.827   1.006  0.4391 -1.6716 -0.4596
 5333TIP3   OH237633   0.383   2.417   1.699 -0.2568  0.0390 -0.5562
 5333TIP3    H137634   0.422   2.333   1.676 -0.4202 -0.6201  1.3619
 5333TIP3    H237635   0.433   2.481   1.648  0.6465 -1.1129 -1.1757
 5334TIP3   OH237636   6.423   1.032   8.439  0.1976 -0.0709 -0.5115
 5334TIP3    H137637   6.382   1.064   8.359 -0.3987  0.1843 -0.1115
 5334TIP3    H237638   6.418   0.936   8.432 -3.2146 -0.1194  0.8538
 5335TIP3   OH237639   1.806   4.537   8.538  0.2360 -0.2992 -0.4930
 5335TIP3    H137640   1.856   4.583   8.605 -0.1057  2.0524 -1.7428
 5335TIP3    H237641   1.827   4.445   8.552  1.3406  0.2290  1.8561
 5336TIP3   OH237642   5.289   1.487   7.470 -0.4234 -0.0535  0.0303
 5336TIP3    H137643   5.245   1.571   7.460  0.3053  0.3403  0.0914
 5336TIP3    H237644   5.376   1.509   7.502 -1.0661 -0.9550  2.6673
 5337TIP3   OH237645   0.344   0.408   1.265 -0.8766 -0.4553  0.1083
 5337TIP3    H137646   0.355   0.347   1.338  0.9462 -0.8013 -0.4206
 5337TIP3    H237647   0.279   0.365   1.209  0.8179 -2.2772 -0.5669
 5338TIP3   OH237648   3.256   6.622   1.410 -0.0835 -0.6676 -0.1514
 5338TIP3    H137649   3.307   6.602   1.332  2.1758  0.4511  0.9608
 5338TIP3    H237650   3.246   6.538   1.455  5.0474 -0.4373  2.0040
 5339TIP3   OH237651   2.439   6.125   2.345 -0.8830  0.0321  0.3662
 5339TIP3    H137652   2.516   6.182   2.348 -1.6786  1.5219 -2.6640
 5339TIP3    H237653   2.410   6.130   2.253 -3.2530 -2.2828  0.8762
 5340TIP3   OH237654   4.348   6.567   8.618 -0.0172  0.3677  0.1729
 5340TIP3    H137655   4.260   6.566   8.656 -0.1277  0.4633 -0.0817
 5340TIP3    H237656   4.406   6.572   8.694 -0.1080 -2.5949  0.5687
 5341TIP3   OH237657   0.442   0.155   7.792 -0.2100  0.0113  0.0559
 5341TIP3    H137658   0.511   0.178   7.730 -0.1082  0.3066  0.2718
 5341TIP3    H237659   0.361   0.180   7.748 -0.0773  1.3411  0.4908
 5342TIP3   OH237660   4.316   5.657   0.695  0.0861  0.0150 -0.3629
 5342TIP3    H137661   4.373   5.583   0.676  1.5344  0.2692  2.4773
 5342TIP3    H237662   4.363   5.733   0.661  1.3339  0.1705  1.5679
 5343TIP3   OH237663   6.548   4.789   6.998 -0.3351  0.5331 -0.4341
 5343TIP3    H137664   6.570   4.707   7.041  1.0390  1.1968  0.1978
 5343TIP3    H237665   6.606   4.794   6.923 -1.5799  0.1632 -1.4515
 5344TIP3   OH237666   5.420   4.162   1.790 -0.6608 -0.0092 -0.1192
 5344TIP3    H137667   5.429   4.253   1.818  0.2509 -0.0031 -0.3852
 5344TIP3    H237668   5.338   4.160   1.741 -2.2378  0.0164  2.3146
 5345TIP3   OH237669   0.565   2.323   0.115 -0.2175 -0.5362 -0.0030
 5345TIP3    H137670   0.590   2.232   0.099  0.7264 -0.2395 -0.2594
 5345TIP3    H237671   0.637   2.360   0.165 -1.3489 -0.3691  1.5888
 5346TIP3   OH237672   4.800   6.052   8.310 -0.1116 -0.4737 -0.0122
 5346TIP3    H137673   4.724   6.019   8.262  0.5859 -1.5508 -0.4119
 5346TIP3    H237674   4.781   6.144   8.326 -0.2006  0.0444 -2.7409
 5347TIP3   OH237675   4.459   5.665   0.936  0.0447 -0.2446 -0.3433
 5347TIP3    H137676   4.397   5.649   0.866 -0.7195  1.9155 -0.2325
 5347TIP3    H237677   4.410   5.714   1.002  1.6134  0.7912  0.1303
 5348TIP3   OH237678   4.343   3.850   7.385 -0.1702 -0.2646  0.1131
 5348TIP3    H137679   4.418   3.903   7.412  0.0110 -0.6714  0.4184
 5348TIP3    H237680   4.274   3.913   7.367 -0.4159  0.0150  1.8693
 5349TIP3   OH237681   4.266   1.441   1.528 -0.3900  0.5662 -0.3791
 5349TIP3    H137682   4.295   1.351   1.543  0.0795  0.4817 -1.6197
 5349TIP3    H237683   4.172   1.434   1.515 -0.3176  0.2096 -0.7331
 5350TIP3   OH237684   1.873   3.678   1.955 -0.2895 -0.1121 -0.6853
 5350TIP3    H137685   1.826   3.694   2.036 -0.8405 -0.7442 -0.8691
 5350TIP3    H237686   1.898   3.585   1.959 -0.4412 -0.1852 -1.2934
 5351TIP3   OH237687   2.543   6.179   7.825  0.5425  0.3749  0.4349
 5351TIP3    H137688   2.610   6.218   7.769  2.0317 -1.3089  0.9303
 5351TIP3    H237689   2.539   6.087   7.797 -2.6070  0.6848 -0.5225
 5352TIP3   OH237690   1.379   0.015   6.887  0.2143  0.2888 -0.5641
 5352TIP3    H137691   1.388   0.108   6.867 -1.2203  0.7384  0.6540
 5352TIP3    H237692   1.374  -0.028   6.801 -1.9439  1.6835 -1.2271
 5353TIP3   OH237693   0.910   5.911   2.451  0.5854 -0.3486 -0.4709
 5353TIP3    H137694   0.955   5.933   2.533  1.3304  0.4459 -1.0746
 5353TIP3    H237695   0.966   5.845   2.410  1.2569  0.6788 -1.2485
 5354TIP3   OH237696   0.546   5.362   0.451 -0.5166 -0.5437  0.6657
 5354TIP3    H137697   0.548   5.267   0.443  0.7395 -0.5207  0.5491
 5354TIP3    H237698   0.468   5.380   0.504 -1.2900 -1.5639 -0.0854
 5355TIP3   OH237699   2.299   1.127   0.113  0.2899  0.1777  0.1939
 5355TIP3    H137700   2.211   1.106   0.147 -0.2952  1.1608 -0.6657
 5355TIP3    H237701   2.310   1.220   0.130  1.5503 -0.1152  1.0892
 5356TIP3   OH237702   2.172   5.074   8.593  0.6979 -0.4549 -0.1175
 5356TIP3    H137703   2.151   5.012   8.662  0.4431 -0.4502 -0.1883
 5356TIP3    H237704   2.127   5.155   8.618 -0.3030 -0.7660 -0.8288
 5357TIP3   OH237705   6.321   1.912   2.805 -0.0814  0.0718 -0.6771
 5357TIP3    H137706   6.370   1.836   2.774  0.0269 -0.3545  0.4558
 5357TIP3    H237707   6.381   1.955   2.866 -0.2669  0.8822 -1.0604
 5358TIP3   OH237708   3.893   3.363   2.840  0.5021 -0.7241  0.0496
 5358TIP3    H137709   3.985   3.351   2.863  0.3338  0.2973  1.3787
 5358TIP3    H237710   3.845   3.341   2.919 -0.3539 -0.4926 -0.3915
 5359TIP3   OH237711   1.835   2.899   8.102  0.5896 -0.1288  0.1104
 5359TIP3    H137712   1.757   2.934   8.146  0.4798  0.8628 -0.8269
 5359TIP3    H237713   1.812   2.898   8.009  1.6971  0.2096 -0.1838
 5360TIP3   OH237714   1.102   0.857   1.907  0.1792 -0.4797 -0.4543
 5360TIP3    H137715   1.048   0.878   1.983  0.7850 -0.5657  0.0049
 5360TIP3    H237716   1.053   0.892   1.832 -0.8675 -1.1815 -0.1288
 5361TIP3   OH237717   0.876   0.006   1.395 -0.1881  0.3186  0.6758
 5361TIP3    H137718   0.908  -0.077   1.430  1.2432  0.8721  0.7535
 5361TIP3    H237719   0.904   0.007   1.304  2.4058  1.9036  1.3884
 5362TIP3   OH237720   5.200   1.905   8.267  0.4410 -0.3986 -0.1751
 5362TIP3    H137721   5.280   1.936   8.310 -0.6418  0.5556  1.2339
 5362TIP3    H237722   5.230   1.875   8.181  1.8095  3.4942 -1.2747
 5363TIP3   OH237723   4.269   0.590   1.312 -0.1342 -0.1663  0.0760
 5363TIP3    H137724   4.189   0.609   1.265 -1.1833 -1.3397  1.2924
 5363TIP3    H237725   4.289   0.670   1.360 -1.0262 -0.0995  0.3544
 5364TIP3   OH237726   5.063   6.778   0.510 -0.1968  0.4132 -0.1125
 5364TIP3    H137727   5.032   6.778   0.600 -0.5188 -2.5319 -0.1047
 5364TIP3    H237728   4.990   6.813   0.459 -0.7276  0.3900  0.6146
 5365TIP3   OH237729   1.247   6.178   1.727 -0.3869  0.2606 -0.1610
 5365TIP3    H137730   1.287   6.238   1.665 -0.7217  0.5731 -0.0786
 5365TIP3    H237731   1.304   6.181   1.804  0.2076 -0.3717 -0.5597
 5366TIP3   OH237732   5.286   0.006   2.719  0.1652  0.2848  0.5132
 5366TIP3    H137733   5.370  -0.039   2.730  0.7659  1.3444  0.4094
 5366TIP3    H237734   5.291   0.045   2.632 -0.9933 -0.7479 -0.0306
 5367TIP3   OH237735   5.979   1.736   2.721  0.1278  0.5102 -0.4424
 5367TIP3    H137736   5.886   1.716   2.715 -0.2739  2.0882  0.0112
 5367TIP3    H237737   6.017   1.661   2.767 -1.0831  0.2895  0.2373
 5368TIP3   OH237738   6.096   2.590   7.863 -0.2409 -0.0547 -1.0418
 5368TIP3    H137739   6.112   2.675   7.823 -0.0173  0.0276 -0.7726
 5368TIP3    H237740   6.130   2.527   7.799 -0.4548  0.0519 -1.2649
 5369TIP3   OH237741   5.640   1.278   2.945 -0.5301  0.4032 -0.7479
 5369TIP3    H137742   5.640   1.194   2.900  0.0109  0.0286 -0.0722
 5369TIP3    H237743   5.550   1.290   2.975 -0.6479  0.1476 -0.9975
 5370TIP3   OH237744   6.727   6.126   0.234  0.2451 -0.0502  0.4707
 5370TIP3    H137745   6.758   6.035   0.228 -0.4396 -0.2469 -0.1036
 5370TIP3    H237746   6.632   6.120   0.226  0.2320  0.7647 -0.1151
 5371TIP3   OH237747   2.276   6.443   6.955  0.0014 -0.3647  0.7331
 5371TIP3    H137748   2.360   6.487   6.970  0.5644 -1.5469  1.1191
 5371TIP3    H237749   2.298   6.363   6.908 -1.1507  0.3463 -1.1234
 5372TIP3   OH237750   3.700   1.450   8.469  0.0467  0.0096  0.1514
 5372TIP3    H137751   3.774   1.507   8.491 -0.2481  0.2576  0.5186
 5372TIP3    H237752   3.652   1.499   8.402  1.3089 -1.0302 -1.6410
 5373TIP3   OH237753   2.530   4.558   0.301  0.1019 -0.6027  0.5079
 5373TIP3    H137754   2.439   4.562   0.331  0.6628  0.1083  2.2178
 5373TIP3    H237755   2.551   4.465   0.302 -0.1554 -0.6591  1.5601
 5374TIP3   OH237756   0.919   4.169   0.231 -0.3562 -0.1001 -0.0223
 5374TIP3    H137757   0.921   4.090   0.177  0.9983 -0.6580  0.7996
 5374TIP3    H237758   0.874   4.143   0.311  0.5671 -0.2264  0.4779
 5375TIP3   OH237759   0.062   1.396   1.776  0.2311  0.3386  0.5862
 5375TIP3    H137760   0.153   1.378   1.800  0.2397  1.2527  1.3069
 5375TIP3    H237761   0.067   1.439   1.691  0.3452 -1.0897 -0.1538
 5376TIP3   OH237762   2.560   1.982   8.552 -0.2923 -0.1397 -0.0529
 5376TIP3    H137763   2.571   1.977   8.647  1.6616  2.3233 -0.0311
 5376TIP3    H237764   2.469   2.006   8.540 -0.4148  0.1472  1.2451
 5377TIP3   OH237765   5.565   4.890   1.299 -0.0776  0.2282  0.4936
 5377TIP3    H137766   5.496   4.958   1.296  0.0841  0.4206  1.0479
 5377TIP3    H237767   5.645   4.937   1.277  0.1709  0.4024  1.7382
 5378TIP3   OH237768   4.169   5.663   1.628  0.4156  0.9129 -0.0117
 5378TIP3    H137769   4.189   5.594   1.690 -0.3969  1.1586  0.5388
 5378TIP3    H237770   4.188   5.744   1.675 -0.1085  1.0973 -0.1144
 5379TIP3   OH237771   5.784   1.156   7.474  0.4393 -0.1552  0.0985
 5379TIP3    H137772   5.698   1.116   7.471  0.3065  0.1050  0.3976
 5379TIP3    H237773   5.829   1.123   7.396  0.3410 -0.8943  0.3521
 5380TIP3   OH237774   4.284   1.855   8.610 -0.2072 -0.0238  0.1107
 5380TIP3    H137775   4.253   1.938   8.573 -0.0335 -0.5803 -1.3705
 5380TIP3    H237776   4.206   1.815   8.646 -0.7074 -0.1280 -1.0313
 5381TIP3   OH237777   3.888   3.712   1.844  0.2797  0.5356  0.1400
 5381TIP3    H137778   3.824   3.779   1.867  0.9501  0.7065  1.6165
 5381TIP3    H237779   3.931   3.690   1.926 -1.0512 -2.9704  0.0860
 5382TIP3   OH237780   0.326   6.093   2.679 -0.5304  0.5229 -0.1466
 5382TIP3    H137781   0.378   6.167   2.649 -1.9221  1.0343 -1.4078
 5382TIP3    H237782   0.390   6.024   2.698  0.7287  1.7992  0.3846
 5383TIP3   OH237783   5.923   3.937   8.100  0.1971  0.6055 -0.3153
 5383TIP3    H137784   5.861   4.008   8.112  0.9195  1.2223 -0.1247
 5383TIP3    H237785   5.887   3.864   8.152 -0.2951  0.9909 -0.1112
 5384TIP3   OH237786   3.383   4.920   1.052  0.5600  0.0365 -0.7678
 5384TIP3    H137787   3.461   4.961   1.089  0.2272  0.3287 -0.3955
 5384TIP3    H237788   3.417   4.846   1.001  0.9117 -1.6922  1.7838
 5385TIP3   OH237789   1.342   2.960   0.769 -0.0745  0.0099  0.0009
 5385TIP3    H137790   1.372   2.943   0.858  1.5666 -1.2042 -0.7360
 5385TIP3    H237791   1.277   2.891   0.752  0.4858 -0.4928 -0.1330
 5386TIP3   OH237792   0.023   5.862   1.999  0.1005  0.3631 -0.2870
 5386TIP3    H137793   0.042   5.798   2.067  1.3609 -0.6979 -1.5979
 5386TIP3    H237794  -0.058   5.830   1.958  0.6802 -0.3719 -0.8837
 5387TIP3   OH237795   4.059   6.320   1.237  0.1175  0.1108  0.0040
 5387TIP3    H137796   3.996   6.333   1.167 -1.4591  3.0437  1.7731
 5387TIP3    H237797   4.084   6.228   1.231 -3.5795 -0.9667 -1.4101
 5388TIP3   OH237798   2.951   3.379   0.164 -0.4958  0.1688 -0.1309
 5388TIP3    H137799   2.901   3.354   0.087  0.3563  1.0181 -0.9973
 5388TIP3    H237800   2.989   3.464   0.141  1.2740 -0.3968  0.5024
 5389TIP3   OH237801   2.701   2.108   8.351  0.2287 -0.1770 -0.0287
 5389TIP3    H137802   2.699   2.055   8.271  0.1488  0.2593 -0.3185
 5389TIP3    H237803   2.660   2.052   8.417  1.3520 -1.0038 -0.0017
 5390TIP3   OH237804   0.703   2.898   2.204 -0.3785  0.0759 -0.1350
 5390TIP3    H137805   0.645   2.862   2.137 -1.8869  0.4484  0.9422
 5390TIP3    H237806   0.686   2.846   2.282  0.8898  0.0737  0.1712
 5391TIP3   OH237807   2.046   0.063   1.035  0.5436 -0.3335  0.5160
 5391TIP3    H137808   2.083   0.067   0.946 -0.5869 -0.0786  0.0480
 5391TIP3    H237809   2.040   0.155   1.062 -0.6142 -0.3106  0.2150
 5392TIP3   OH237810   2.537   2.801   0.154 -0.2750 -0.0221  0.0203
 5392TIP3    H137811   2.541   2.811   0.059 -1.3694 -2.5587 -0.3958
 5392TIP3    H237812   2.444   2.807   0.176 -0.2682 -1.4781  0.5956
 5393TIP3   OH237813   4.279   4.645   3.225 -0.7002 -0.1731  0.1010
 5393TIP3    H137814   4.192   4.678   3.204 -0.6844 -0.2473 -0.0874
 5393TIP3    H237815   4.274   4.621   3.318 -1.8004 -3.0028 -0.5794
 5394TIP3   OH237816   1.853   2.012   1.021  0.0482  1.0522 -0.7183
 5394TIP3    H137817   1.796   2.020   0.944  0.2026 -2.0076 -1.2530
 5394TIP3    H237818   1.813   1.943   1.074  1.7419  0.8013  0.2972
 5395TIP3   OH237819   3.174   4.913   8.613  0.1128  0.5528  0.1231
 5395TIP3    H137820   3.122   4.973   8.559 -1.2054 -0.1910  0.5053
 5395TIP3    H237821   3.239   4.968   8.656 -1.3025  1.7894  0.7675
 5396TIP3   OH237822   0.062   0.359   2.325  0.3696  0.0756  0.2914
 5396TIP3    H137823  -0.013   0.393   2.373 -0.4753 -1.0337 -0.1918
 5396TIP3    H237824   0.075   0.271   2.360  1.9461  0.5098  0.8984
 5397TIP3   OH237825   0.560   6.487   7.842 -0.0417 -0.5112 -0.2660
 5397TIP3    H137826   0.545   6.575   7.877  0.7054 -0.5084  0.0635
 5397TIP3    H237827   0.590   6.501   7.752  3.1252 -0.2172  0.7014
 5398TIP3   OH237828   1.846   0.165   1.342  0.3878  0.0874 -0.5607
 5398TIP3    H137829   1.842   0.074   1.313  1.5161 -0.7747  1.7239
 5398TIP3    H237830   1.887   0.161   1.429 -1.2176  2.5947  0.4369
 5399TIP3   OH237831   5.724   0.838   7.357  0.4903  0.4741  0.0665
 5399TIP3    H137832   5.796   0.823   7.296  0.3332  2.0089 -0.5652
 5399TIP3    H237833   5.758   0.813   7.443 -0.1141 -4.3115 -0.8356
 5400TIP3   OH237834   1.920   1.963   2.747 -0.2420 -0.3858 -0.4145
 5400TIP3    H137835   1.955   1.992   2.832 -0.0543  3.2567 -1.5500
 5400TIP3    H237836   1.991   1.914   2.706  0.3067 -0.6390  0.7925
 5401TIP3   OH237837   0.384   3.702   7.268 -0.3469 -0.2359 -0.1844
 5401TIP3    H137838   0.392   3.769   7.200  0.8955 -0.8108 -0.6431
 5401TIP3    H237839   0.292   3.705   7.293 -0.5910  0.7808 -1.0717
 5402TIP3   OH237840   1.972   1.405   0.815 -0.3941 -0.0040  0.1113
 5402TIP3    H137841   2.035   1.432   0.748 -0.4036 -0.2936 -0.0180
 5402TIP3    H237842   1.915   1.481   0.826  0.1848  0.3895  0.4839
 5403TIP3   OH237843   6.375   5.930   0.790  0.1120  0.3306  0.3648
 5403TIP3    H137844   6.343   5.857   0.843  2.2743 -0.1740  1.0493
 5403TIP3    H237845   6.415   5.888   0.713  0.2249  0.8631  0.1292
 5404TIP3   OH237846   6.446   6.165   8.217  0.0494  0.1491  0.5796
 5404TIP3    H137847   6.463   6.096   8.281  1.0348  0.4392  0.6485
 5404TIP3    H237848   6.385   6.224   8.260 -1.1551 -0.8923  0.3595
 5405TIP3   OH237849   6.561   0.048   0.127 -0.1530  0.3868  0.4001
 5405TIP3    H137850   6.585   0.071   0.217  0.7973  1.2272 -0.0455
 5405TIP3    H237851   6.465   0.056   0.125 -0.1877  0.3087  1.3409
 5406TIP3   OH237852   1.371   2.792   2.394  0.1576  0.0095 -0.0997
 5406TIP3    H137853   1.312   2.720   2.370  1.7286 -0.7429 -1.9608
 5406TIP3    H237854   1.387   2.778   2.488 -2.4503  0.1864  0.4509
 5407TIP3   OH237855   4.952   1.445   6.802  0.2067 -0.4769 -0.2421
 5407TIP3    H137856   4.931   1.538   6.808  0.8873 -0.4070  1.5532
 5407TIP3    H237857   4.873   1.401   6.832  0.1905 -0.4475 -0.2412
 5408TIP3   OH237858   2.207   6.079   1.968  0.7669  0.1675  0.2201
 5408TIP3    H137859   2.135   6.025   1.999 -0.7594  2.7101  1.3615
 5408TIP3    H237860   2.226   6.045   1.880  0.5663 -2.7555  1.1979
 5409TIP3   OH237861   6.158   1.519   7.782  0.2917 -0.4975  0.4346
 5409TIP3    H137862   6.100   1.592   7.805 -0.2963 -0.4101 -1.1560
 5409TIP3    H237863   6.146   1.455   7.852 -0.3655  0.2840  1.0502
 5410TIP3   OH237864   5.459   6.211   8.193  0.8702 -0.1694 -0.1600
 5410TIP3    H137865   5.397   6.147   8.229  1.6627 -0.4785  0.7173
 5410TIP3    H237866   5.530   6.157   8.158  1.3327  0.2231  0.1766
 5411TIP3   OH237867   4.197   4.631   2.093  0.2057 -0.2924 -0.1757
 5411TIP3    H137868   4.130   4.567   2.066  0.1751 -0.8038  1.0340
 5411TIP3    H237869   4.247   4.585   2.160  0.3304  0.8775  0.5534
 5412TIP3   OH237870   4.582   5.445   8.200 -0.0522 -0.6474 -0.2419
 5412TIP3    H137871   4.570   5.416   8.110 -0.6281  0.2182 -0.4506
 5412TIP3    H237872   4.623   5.531   8.192 -2.7322  0.7598  0.2107
 5413TIP3   OH237873   1.481   5.740   0.461  0.2079  0.0578 -0.3900
 5413TIP3    H137874   1.506   5.814   0.408 -1.2541  0.9722  0.1177
 5413TIP3    H237875   1.418   5.691   0.407  1.7058 -1.2720 -1.0139
 5414TIP3   OH237876   1.774   4.862   1.745  0.0143  0.9041 -0.7065
 5414TIP3    H137877   1.786   4.784   1.691 -0.6975  0.8184 -0.7542
 5414TIP3    H237878   1.837   4.925   1.711 -1.5451  1.4534 -2.7810
 5415TIP3   OH237879   3.518   5.710   6.822  0.1145 -0.0206  0.1410
 5415TIP3    H137880   3.548   5.691   6.733 -0.5787  0.6473 -0.2497
 5415TIP3    H237881   3.457   5.638   6.842  0.1001 -0.0526 -0.0152
 5416TIP3   OH237882   2.220   6.022   7.834 -0.4741  0.2818 -0.2487
 5416TIP3    H137883   2.279   6.017   7.758 -1.3135 -0.4070 -0.8719
 5416TIP3    H237884   2.179   5.936   7.837  0.7402 -0.3035  1.9875
 5417TIP3   OH237885   5.075   4.465   0.589 -0.2443  0.0928 -0.6505
 5417TIP3    H137886   5.139   4.503   0.528  0.7764 -1.3135 -0.4956
 5417TIP3    H237887   5.001   4.440   0.535  0.7003 -1.2498 -1.3787
 5418TIP3   OH237888   2.104   5.612   1.613 -0.3920 -0.2064  0.7322
 5418TIP3    H137889   2.133   5.663   1.689 -0.6543  0.9950  0.0477
 5418TIP3    H237890   2.182   5.606   1.558 -0.5307 -0.0097  0.5171
 5419TIP3   OH237891   3.620   4.705   7.597  0.1374 -0.2207 -0.0821
 5419TIP3    H137892   3.560   4.678   7.527  1.2259 -0.2759 -1.0300
 5419TIP3    H237893   3.579   4.782   7.635 -0.7707 -0.5386 -0.3781
 5420TIP3   OH237894   1.130   5.875   1.200 -0.0422 -0.2752 -0.4909
 5420TIP3    H137895   1.126   5.955   1.252 -0.0933 -1.7200  1.8772
 5420TIP3    H237896   1.133   5.906   1.109 -1.5501  2.3604  0.2339
 5421TIP3   OH237897   4.393   4.235   2.318 -0.0331 -0.1231  0.5468
 5421TIP3    H137898   4.353   4.302   2.375 -0.5615 -1.0021  1.2433
 5421TIP3    H237899   4.329   4.222   2.248 -1.0426 -1.5444  1.6732
 5422TIP3   OH237900   3.251   0.375   2.835  0.2848 -0.5301  0.1128
 5422TIP3    H137901   3.251   0.318   2.911  0.5803  0.1480  0.6332
 5422TIP3    H237902   3.325   0.434   2.849 -0.9259  1.0191  0.4025
 5423TIP3   OH237903   0.651   1.452   2.483  0.7709 -0.2562  0.0738
 5423TIP3    H137904   0.738   1.455   2.523  0.0843 -2.8459  2.0315
 5423TIP3    H237905   0.607   1.379   2.526 -1.9695  0.1556 -1.7532
 5424TIP3   OH237906   4.130   6.757   8.174  0.1836  0.0980  0.3795
 5424TIP3    H137907   4.182   6.676   8.168  1.4015  0.9609 -2.2166
 5424TIP3    H237908   4.044   6.733   8.140  0.1310 -0.3954  0.8491
 5425TIP3   OH237909   3.194   4.423   1.423 -0.1919  0.2418  1.0298
 5425TIP3    H137910   3.173   4.479   1.348 -1.3019  0.8758  1.7804
 5425TIP3    H237911   3.290   4.416   1.421  0.2782  4.0961  2.1934
 5426TIP3   OH237912   6.120   6.234   2.712  0.3475  0.3715 -0.2197
 5426TIP3    H137913   6.125   6.163   2.648  1.3975  0.5622 -0.3720
 5426TIP3    H237914   6.027   6.254   2.719  0.2160  0.3858 -1.7379
 5427TIP3   OH237915   6.678   0.728   1.372  0.1256  0.1384 -0.0779
 5427TIP3    H137916   6.592   0.693   1.392  0.1457  0.8935  1.4861
 5427TIP3    H237917   6.732   0.703   1.448  0.9767  0.6842 -0.4913
 5428TIP3   OH237918   3.796   5.118   1.469 -0.0134 -0.0219 -0.0931
 5428TIP3    H137919   3.845   5.120   1.387 -2.4558 -0.0514 -1.6532
 5428TIP3    H237920   3.799   5.026   1.496  1.5335  0.1369  0.3678
 5429TIP3   OH237921   2.932   5.297   0.245  0.1838  0.6327  0.0482
 5429TIP3    H137922   2.952   5.367   0.183 -0.0511  1.0094  0.3963
 5429TIP3    H237923   2.982   5.222   0.213  2.0449  1.4919  0.7996
 5430TIP3   OH237924   6.815   0.414   0.030  0.0475  0.5798 -0.0426
 5430TIP3    H137925   6.839   0.448   0.116 -0.0693  0.3276  0.0926
 5430TIP3    H237926   6.800   0.321   0.045  1.3652  0.2561 -0.6043
 5431TIP3   OH237927   6.775   2.897   1.820  1.0421 -0.2021 -0.0339
 5431TIP3    H137928   6.797   2.948   1.899  1.2872  0.8388 -0.7472
 5431TIP3    H237929   6.727   2.821   1.853  1.4438  0.0313  1.1493
 5432TIP3   OH237930   4.176   2.771   6.974 -0.5290  0.3891  0.2722
 5432TIP3    H137931   4.188   2.860   6.941  0.9517 -0.1024 -0.6002
 5432TIP3    H237932   4.081   2.756   6.969 -0.5840  1.0809 -1.8578
 5433TIP3   OH237933   6.281   0.817   7.509 -0.4229 -0.4202  0.4878
 5433TIP3    H137934   6.303   0.893   7.455 -0.4975 -0.0971  0.9103
 5433TIP3    H237935   6.234   0.759   7.450  2.5141 -1.6950 -0.8156
 5434TIP3   OH237936   4.829   6.305   2.388 -0.6428 -0.0122  0.3679
 5434TIP3    H137937   4.768   6.342   2.453 -0.0996 -0.8836  1.4032
 5434TIP3    H237938   4.777   6.238   2.343 -0.0539 -1.8711  2.3338
 5435TIP3   OH237939   2.817   3.401   1.831  0.3254  0.3479  0.0128
 5435TIP3    H137940   2.870   3.401   1.910  0.3483  1.1466  0.0089
 5435TIP3    H237941   2.770   3.485   1.834  1.7778  1.3058 -1.7590
 5436TIP3   OH237942   4.934   4.562   2.042 -0.6632  0.1512  0.2161
 5436TIP3    H137943   4.979   4.486   2.005  1.1888  0.2612  2.0763
 5436TIP3    H237944   4.883   4.527   2.115  0.1122  0.6493  1.0133
 5437TIP3   OH237945   5.821   6.539   0.709  0.5245 -0.4690  0.0353
 5437TIP3    H137946   5.851   6.591   0.783 -0.4445 -0.3313  0.3444
 5437TIP3    H237947   5.754   6.481   0.746  0.1250 -0.4896 -0.6988
 5438TIP3   OH237948   5.378   2.510   1.653  0.0120  0.1526 -0.1935
 5438TIP3    H137949   5.348   2.493   1.743 -0.9562 -3.1567 -0.9919
 5438TIP3    H237950   5.473   2.496   1.658  0.4289  2.7815  0.7738
 5439TIP3   OH237951   2.534   0.714   8.308  0.2122 -0.0870 -0.0066
 5439TIP3    H137952   2.569   0.751   8.226  1.6193  3.1753  1.8754
 5439TIP3    H237953   2.440   0.709   8.293  0.1796  2.5096 -1.1511
 5440TIP3   OH237954   1.159   0.889   1.589 -0.0198  0.3893 -0.0427
 5440TIP3    H137955   1.119   0.803   1.598  2.3017 -0.7247  0.3117
 5440TIP3    H237956   1.253   0.873   1.594  0.5577  2.7811 -1.3604
 5441TIP3   OH237957   2.455   6.332   8.240 -0.2685 -0.1797 -0.2061
 5441TIP3    H137958   2.465   6.347   8.146  0.8183 -1.9767 -0.4342
 5441TIP3    H237959   2.500   6.405   8.281 -1.2307  0.9270 -1.0552
 5442TIP3   OH237960   5.894   4.409   0.607  0.2119  0.2910  0.0769
 5442TIP3    H137961   5.976   4.393   0.561  0.3204 -1.3434  0.7638
 5442TIP3    H237962   5.826   4.394   0.541  0.4467  0.8680 -0.2940
 5443TIP3   OH237963   4.599   2.443   0.561 -0.1720  0.0865 -0.3122
 5443TIP3    H137964   4.589   2.535   0.535  2.8703  0.2420 -1.4449
 5443TIP3    H237965   4.546   2.395   0.498 -0.2024  0.9923 -1.0124
 5444TIP3   OH237966   0.353   0.317   0.087 -0.2871 -0.2588  0.1939
 5444TIP3    H137967   0.326   0.349   0.001  0.2931 -1.5257 -0.4886
 5444TIP3    H237968   0.274   0.282   0.126 -0.3665 -0.5468 -0.2224
 5445TIP3   OH237969   2.609   6.088   0.084 -0.0760  0.0453 -0.0656
 5445TIP3    H137970   2.628   6.142   0.007  1.4273 -0.9658 -0.4444
 5445TIP3    H237971   2.654   6.005   0.067 -0.4389 -0.5105  1.5249
 5446TIP3   OH237972   4.543   5.619   0.293 -1.0698 -0.3641 -0.1103
 5446TIP3    H137973   4.582   5.532   0.285  0.3715  0.2661 -0.2252
 5446TIP3    H237974   4.574   5.652   0.377 -3.1563 -0.6603  0.8560
 5447TIP3   OH237975   2.084   2.026   8.403 -0.0391 -0.3258  0.6810
 5447TIP3    H137976   2.025   2.087   8.448  0.5275  0.8894 -0.1711
 5447TIP3    H237977   2.136   1.987   8.473 -1.4378 -0.9817  1.3886
 5448TIP3   OH237978   3.357   6.814   1.108 -0.2280  0.3326  0.5627
 5448TIP3    H137979   3.269   6.784   1.083  0.8623 -1.5103 -1.4534
 5448TIP3    H237980   3.411   6.735   1.102  1.6017  1.4309  1.6870
 5449TIP3   OH237981   1.426   1.099   0.941  0.6606 -0.0864  0.5481
 5449TIP3    H137982   1.414   1.189   0.972 -1.8199  1.0709 -3.0001
 5449TIP3    H237983   1.491   1.107   0.871 -1.3372 -0.3872 -1.4960
 5450TIP3   OH237984   0.515   5.230   7.540  0.3176  1.0243 -0.0080
 5450TIP3    H137985   0.566   5.298   7.496  0.5946  0.0620 -1.2157
 5450TIP3    H237986   0.430   5.271   7.557  0.9956  2.1804  0.7585
 5451TIP3   OH237987   1.256   5.278   7.947 -0.0880  0.4988  0.2875
 5451TIP3    H137988   1.323   5.323   7.997 -0.0262  1.7896 -0.9025
 5451TIP3    H237989   1.174   5.298   7.993 -0.0311  1.6491 -0.0820
 5452TIP3   OH237990   0.735   0.344   0.522  0.5948 -0.2875 -0.3650
 5452TIP3    H137991   0.653   0.363   0.569 -0.4522  1.1610 -2.6431
 5452TIP3    H237992   0.799   0.329   0.592 -0.7125  2.4032  1.5931
 5453TIP3   OH237993   6.309   6.758   0.227  0.5381 -0.5520 -0.2085
 5453TIP3    H137994   6.326   6.774   0.320 -0.4044  1.2173 -0.3095
 5453TIP3    H237995   6.216   6.733   0.223  0.4548 -0.1821 -0.7199
 5454TIP3   OH237996   1.951   4.605   7.942  0.1125 -0.7573 -0.0804
 5454TIP3    H137997   1.874   4.564   7.982 -0.3173 -0.2542 -0.3773
 5454TIP3    H237998   1.949   4.696   7.974 -0.0972 -0.4166 -1.0239
 5455TIP3   OH237999   3.808   2.381   7.679  0.1650 -0.2465  0.1359
 5455TIP3    H138000   3.787   2.464   7.637  1.4201  0.4093  0.7513
 5455TIP3    H238001   3.892   2.355   7.641  0.2648 -0.7160  0.6577
 5456TIP3   OH238002   0.977   6.824   7.554 -0.0831  0.1239 -0.5623
 5456TIP3    H138003   0.881   6.821   7.559 -0.2161 -0.0914 -2.5319
 5456TIP3    H238004   0.998   6.917   7.546 -0.1862  0.1169 -0.9277
 5457TIP3   OH238005   1.060   4.871   1.949 -0.6888  0.0994  0.2439
 5457TIP3    H138006   1.001   4.946   1.948  1.7034  2.1273  0.2382
 5457TIP3    H238007   1.045   4.828   1.865 -1.9042  0.7399  0.1075
 5458TIP3   OH238008   2.794   6.516   1.788 -0.8394 -0.5974  0.0479
 5458TIP3    H138009   2.765   6.514   1.696 -1.7878 -3.3540  0.3175
 5458TIP3    H238010   2.862   6.448   1.793 -1.5836 -1.2870  1.5777
 5459TIP3   OH238011   2.948   2.547   2.116 -0.2199  0.4002  0.1954
 5459TIP3    H138012   3.013   2.593   2.064  2.4091 -0.6325  2.3244
 5459TIP3    H238013   2.864   2.569   2.075  1.3859  2.1281 -2.4510
 5460TIP3   OH238014   5.247   0.084   7.380  0.1902 -0.1225 -0.1642
 5460TIP3    H138015   5.333   0.070   7.341 -0.4073 -3.7559 -0.5638
 5460TIP3    H238016   5.190   0.105   7.305 -0.1020 -2.7336 -0.8039
 5461TIP3   OH238017   6.245   0.440   1.291  0.1658 -0.1741 -0.3955
 5461TIP3    H138018   6.286   0.353   1.287 -0.5696 -0.5403 -0.0861
 5461TIP3    H238019   6.183   0.434   1.363  1.3400  1.1558  0.7890
 5462TIP3   OH238020   6.167   3.766   8.021 -0.3440  0.0348  0.5130
 5462TIP3    H138021   6.097   3.831   8.028 -0.4408  0.1530 -1.0409
 5462TIP3    H238022   6.130   3.687   8.059 -0.6356  0.5776  1.3956
 5463TIP3   OH238023   4.052   4.059   8.364  0.4707 -0.4392  0.2081
 5463TIP3    H138024   4.028   4.131   8.422  0.0324 -2.2603  2.4005
 5463TIP3    H238025   4.143   4.039   8.387  0.6455 -0.5113 -0.5089
 5464TIP3   OH238026   4.994   3.790   8.466  0.4453 -1.0019 -0.5149
 5464TIP3    H138027   4.904   3.818   8.449  0.2552 -1.9089 -1.0426
 5464TIP3    H238028   5.006   3.712   8.412  0.9500 -1.9864  0.9800
 5465TIP3   OH238029   3.197   5.171   1.802 -0.3742  0.7388  0.4534
 5465TIP3    H138030   3.172   5.213   1.884 -0.2795  1.8861 -0.0878
 5465TIP3    H238031   3.250   5.237   1.757 -0.9106  0.3488 -0.7820
 5466TIP3   OH238032   0.892   6.846   3.246 -0.4614 -0.0074  0.0508
 5466TIP3    H138033   0.974   6.896   3.246 -0.0389 -0.6578  1.0529
 5466TIP3    H238034   0.826   6.909   3.275 -0.1238  0.2578  0.2713
 5467TIP3   OH238035   4.566   5.480   1.913 -0.6587 -0.1760  0.0971
 5467TIP3    H138036   4.513   5.481   1.833 -1.0746  1.0839  0.3597
 5467TIP3    H238037   4.527   5.411   1.967 -1.3950  0.0456 -0.1374
 5468TIP3   OH238038   3.612   1.736   7.138  0.0049  0.1012 -0.6038
 5468TIP3    H138039   3.571   1.803   7.083  0.0858  0.2746 -0.4557
 5468TIP3    H238040   3.607   1.656   7.086  0.3721  0.3307 -1.0003
 5469TIP3   OH238041   4.757   4.223   1.885 -0.1935  0.0236  0.2492
 5469TIP3    H138042   4.799   4.137   1.895 -0.9725 -0.3944  0.0359
 5469TIP3    H238043   4.743   4.253   1.974 -2.4388 -1.3550  0.4465
 5470TIP3   OH238044   0.720   6.166   2.488  1.0119 -0.4655  0.0633
 5470TIP3    H138045   0.683   6.196   2.571  1.2177 -2.3253  0.8848
 5470TIP3    H238046   0.811   6.146   2.508  1.3875  0.1769 -0.9254
 5471TIP3   OH238047   5.501   0.972   7.921  0.1206 -0.4163  0.2355
 5471TIP3    H138048   5.543   0.979   7.836 -0.3608 -1.4689 -0.1106
 5471TIP3    H238049   5.465   1.059   7.938 -0.0016 -0.2684 -0.7520
 5472TIP3   OH238050   4.059   1.830   0.291 -0.0538  0.0361 -0.3869
 5472TIP3    H138051   4.032   1.740   0.311  0.5027  0.4412  2.6051
 5472TIP3    H238052   4.126   1.820   0.224  0.9074 -1.9258  0.7712
 5473TIP3   OH238053   6.069   1.120   0.755  0.4652  0.0204 -0.2169
 5473TIP3    H138054   5.981   1.089   0.778  0.4126 -0.4089 -0.9462
 5473TIP3    H238055   6.088   1.188   0.819 -1.2459  1.5972 -1.2901
 5474TIP3   OH238056   0.056   5.453   2.443 -0.1011 -0.1661 -0.0308
 5474TIP3    H138057   0.119   5.470   2.513  1.1339  2.4257 -1.6239
 5474TIP3    H238058  -0.028   5.444   2.488  0.4281  2.6597  1.8085
 5475TIP3   OH238059   2.886   4.343   0.885  0.2227 -0.3120 -0.1119
 5475TIP3    H138060   2.828   4.366   0.813  1.5387  0.9468 -0.8095
 5475TIP3    H238061   2.905   4.426   0.928  0.0670 -0.9558  1.2345
 5476TIP3   OH238062   0.573   4.385   1.370 -0.0243  0.3056  0.1818
 5476TIP3    H138063   0.549   4.292   1.370  2.8024 -0.5317 -1.6576
 5476TIP3    H238064   0.657   4.388   1.415 -0.3485  2.1228  0.7551
 5477TIP3   OH238065   6.358   4.719   8.580 -0.3308 -0.0796  0.4655
 5477TIP3    H138066   6.448   4.688   8.573 -0.2855 -0.3812  2.0709
 5477TIP3    H238067   6.348   4.780   8.507  1.5522  0.8623  0.9390
 5478TIP3   OH238068   2.345   2.582   7.193  0.6719  0.2823 -0.5497
 5478TIP3    H138069   2.396   2.502   7.201 -0.5823 -0.3708  1.6732
 5478TIP3    H238070   2.285   2.566   7.120 -1.0844 -1.7761  1.2092
 5479TIP3   OH238071   6.659   0.518   8.248  0.1721  0.0259 -0.3634
 5479TIP3    H138072   6.694   0.588   8.192 -0.9506  0.8503 -0.0667
 5479TIP3    H238073   6.727   0.451   8.247  0.5564  0.3764 -2.0454
 5480TIP3   OH238074   5.758   5.786   1.187 -0.3246  0.2309  0.1301
 5480TIP3    H138075   5.782   5.827   1.103 -0.3580  0.2083  0.1094
 5480TIP3    H238076   5.837   5.739   1.214 -0.8548 -1.2400 -0.7654
 5481TIP3   OH238077   3.173   4.722   1.023 -0.3657 -0.4440  0.0855
 5481TIP3    H138078   3.237   4.773   1.072  0.6104 -0.3818 -1.1905
 5481TIP3    H238079   3.159   4.643   1.076  0.8325 -0.4948  0.3589
 5482TIP3   OH238080   4.079   0.840   1.303 -0.3539 -0.2522 -0.3511
 5482TIP3    H138081   4.109   0.802   1.220  0.1957 -0.2245 -0.1693
 5482TIP3    H238082   4.017   0.908   1.276 -0.6258 -0.6343 -0.7133
 5483TIP3   OH238083   0.393   1.752   2.605 -0.0712 -0.8113 -0.2626
 5483TIP3    H138084   0.352   1.838   2.613 -0.3208 -0.6707 -2.3419
 5483TIP3    H238085   0.410   1.724   2.695 -1.7652  0.5522  0.5274
 5484TIP3   OH238086   5.115   1.530   1.460 -0.2738  0.0551  0.5291
 5484TIP3    H138087   5.163   1.513   1.541 -1.2917  1.1902  1.4071
 5484TIP3    H238088   5.031   1.487   1.472  0.3750 -1.7270 -0.9090
 5485TIP3   OH238089   2.047   3.004   7.891 -0.9505  0.0878 -0.2443
 5485TIP3    H138090   2.124   2.960   7.856  0.2152  2.1322 -0.3649
 5485TIP3    H238091   2.016   2.946   7.961 -0.7406 -1.9173 -1.7270
 5486TIP3   OH238092   1.753   1.145   1.943 -0.3591  0.2599  0.9534
 5486TIP3    H138093   1.848   1.147   1.952 -0.3561 -0.3716  1.0814
 5486TIP3    H238094   1.728   1.237   1.935  0.3982  0.3591 -0.6839
 5487TIP3   OH238095   5.873   6.490   0.146 -0.4682 -0.2161 -0.1112
 5487TIP3    H138096   5.880   6.411   0.200  0.0774  0.1067  0.2980
 5487TIP3    H238097   5.780   6.493   0.120 -0.0546 -2.3376 -2.2190
 5488TIP3   OH238098   1.748   0.890   0.608  0.7447  0.7157 -0.3465
 5488TIP3    H138099   1.791   0.805   0.604  0.3147  0.5340 -1.3530
 5488TIP3    H238100   1.782   0.930   0.688  0.2592 -0.7526  0.6298
 5489TIP3   OH238101   6.784   2.719   1.543  0.4604 -0.1863  0.0273
 5489TIP3    H138102   6.818   2.744   1.629  0.7621  0.2231 -0.2085
 5489TIP3    H238103   6.862   2.704   1.489  0.3165  1.4565 -0.7178
 5490TIP3   OH238104   4.418   1.939   1.102 -0.2186  0.2298  0.6885
 5490TIP3    H138105   4.324   1.932   1.082 -0.5373 -0.2395  2.2340
 5490TIP3    H238106   4.456   1.975   1.022 -1.4773 -1.0670 -0.5724
 5491TIP3   OH238107   2.111   0.452   1.266 -0.5519 -0.4584 -0.0565
 5491TIP3    H138108   2.019   0.426   1.257 -1.4606  2.6922 -1.0299
 5491TIP3    H238109   2.113   0.504   1.347  1.2586 -3.4494  2.0049
 5492TIP3   OH238110   2.946   3.240   7.250  0.6114 -0.3133  0.4947
 5492TIP3    H138111   2.980   3.306   7.190 -1.1669 -0.7129 -1.0674
 5492TIP3    H238112   2.981   3.157   7.217 -1.4621 -0.6994 -0.9779
 5493TIP3   OH238113   3.120   6.634   7.597 -0.4344 -0.2813 -0.0777
 5493TIP3    H138114   3.083   6.682   7.523 -0.8906  0.5281  0.6620
 5493TIP3    H238115   3.045   6.589   7.636 -0.3973  0.1868  0.5508
 5494TIP3   OH238116   5.024   1.981   0.830  0.5754 -0.0477  0.7489
 5494TIP3    H138117   4.989   1.939   0.752  1.3567  2.0419 -0.8096
 5494TIP3    H238118   5.015   1.914   0.899 -1.9770 -1.2720 -0.6024
 5495TIP3   OH238119   2.466   3.628   0.050  0.0307  0.2570  0.7055
 5495TIP3    H138120   2.429   3.577   0.122 -0.3439  0.4667  0.6657
 5495TIP3    H238121   2.548   3.662   0.085  0.9284 -1.4292  0.2925
 5496TIP3   OH238122   4.605   2.466   2.128 -0.8706  0.1271  0.1500
 5496TIP3    H138123   4.631   2.544   2.178  1.2832  0.5182 -1.4547
 5496TIP3    H238124   4.616   2.394   2.190 -1.2324  0.8879  1.1425
 5497TIP3   OH238125   4.697   2.876   8.306  0.2903 -0.1945  0.2606
 5497TIP3    H138126   4.628   2.914   8.361  0.5857  0.2407  0.3314
 5497TIP3    H238127   4.736   2.951   8.261 -0.1993 -0.5803 -0.8422
 5498TIP3   OH238128   3.691   6.463   1.203  0.1917 -0.0779  0.2067
 5498TIP3    H138129   3.641   6.534   1.163 -0.3571 -0.1345  0.7815
 5498TIP3    H238130   3.745   6.429   1.132 -0.8775 -0.2827 -0.5295
 5499TIP3   OH238131   2.399   2.174   8.324 -0.4708  0.2818  0.0266
 5499TIP3    H138132   2.368   2.089   8.356 -0.7649  0.4451  0.1820
 5499TIP3    H238133   2.319   2.225   8.314 -0.2190  0.8627  0.8743
 5500TIP3   OH238134   0.353   3.408   1.220  0.0594  0.3566  0.3283
 5500TIP3    H138135   0.311   3.476   1.168  2.0776  0.7199 -0.8922
 5500TIP3    H238136   0.303   3.407   1.302 -0.1325  3.2100  0.3456
 5501TIP3   OH238137   3.731   3.982   2.125 -0.0277  0.7440 -0.5268
 5501TIP3    H138138   3.701   3.952   2.039  1.2132 -1.6675 -0.1843
 5501TIP3    H238139   3.818   4.019   2.109 -0.3996  1.6750 -0.4951
 5502TIP3   OH238140   0.387   0.516   2.075 -0.1344 -0.1299  0.2237
 5502TIP3    H138141   0.338   0.483   2.000 -0.4355 -2.1180  1.2122
 5502TIP3    H238142   0.464   0.459   2.079  0.4120  0.6378  0.8012
 5503TIP3   OH238143   2.407   4.680   8.144  0.3151  0.0938 -0.4514
 5503TIP3    H138144   2.396   4.766   8.103 -1.3842  1.2562  2.1766
 5503TIP3    H238145   2.353   4.621   8.091  0.4183  0.9165 -1.5023
 5504TIP3   OH238146   6.290   4.427   1.773 -0.2175  0.3578  0.1708
 5504TIP3    H138147   6.195   4.429   1.779 -0.1906 -0.9206  1.3499
 5504TIP3    H238148   6.317   4.356   1.831  1.2688 -1.4697 -2.5195
 5505TIP3   OH238149   6.731   2.751   7.709  0.5985 -0.6029 -0.0322
 5505TIP3    H138150   6.771   2.777   7.626  1.5022  1.8120  1.0486
 5505TIP3    H238151   6.805   2.736   7.768  0.0746  1.7607  1.3866
 5506TIP3   OH238152   6.735   2.115   7.834 -0.1831 -0.3230  0.2115
 5506TIP3    H138153   6.756   2.057   7.907 -0.3467 -0.9737 -0.2493
 5506TIP3    H238154   6.803   2.098   7.770  1.5870  2.2104  1.2381
 5507TIP3   OH238155   4.910   4.148   2.317 -0.4430 -0.1564 -0.4400
 5507TIP3    H138156   4.988   4.108   2.279  0.3337 -0.0921  1.0330
 5507TIP3    H238157   4.939   4.233   2.349 -1.5261  0.5991 -1.3637
 5508TIP3   OH238158   4.474   3.863   3.200 -0.1941  0.0225  0.3447
 5508TIP3    H138159   4.386   3.886   3.170 -1.7239 -2.9036  2.1212
 5508TIP3    H238160   4.499   3.934   3.259 -0.7272  1.5613 -1.1863
 5509TIP3   OH238161   3.458   6.524   1.872  0.4775  0.9700 -0.0049
 5509TIP3    H138162   3.421   6.535   1.959 -0.5823 -0.2960 -0.2576
 5509TIP3    H238163   3.396   6.567   1.813  0.0296 -0.0711 -0.3160
 5510TIP3   OH238164   0.999   5.279   1.498 -0.2189  0.0984  0.3110
 5510TIP3    H138165   0.984   5.254   1.589  1.2014 -0.5045  0.4117
 5510TIP3    H238166   0.976   5.372   1.494 -1.4954 -0.1732  0.9695
 5511TIP3   OH238167   1.748   4.891   7.091  0.9244  0.1785 -0.1442
 5511TIP3    H138168   1.791   4.970   7.122 -0.3480  1.1765 -0.8412
 5511TIP3    H238169   1.721   4.912   7.002  1.9156 -1.5978 -0.9268
 5512TIP3   OH238170   6.368   2.644   1.030 -0.3804  0.2418 -0.1975
 5512TIP3    H138171   6.286   2.606   0.998 -0.3559  0.0656 -0.0572
 5512TIP3    H238172   6.422   2.568   1.051  0.2754  0.3481 -1.4386
 5513TIP3   OH238173   3.523   3.682   7.900 -0.0272 -0.5588 -0.6089
 5513TIP3    H138174   3.477   3.601   7.921 -1.3894  0.1969 -0.5476
 5513TIP3    H238175   3.459   3.734   7.850 -0.1028  1.4759  1.4271
 5514TIP3   OH238176   4.924   3.046   1.028 -0.0828  0.3763 -0.0652
 5514TIP3    H138177   4.971   2.969   0.999 -1.3245  0.2399 -1.9319
 5514TIP3    H238178   4.989   3.098   1.075  0.8337 -1.6532  1.0133
 5515TIP3   OH238179   5.199   1.498   2.133 -0.0132 -0.0600  0.0355
 5515TIP3    H138180   5.285   1.466   2.105  0.4261 -0.3352  1.6054
 5515TIP3    H238181   5.191   1.584   2.092  0.9024 -0.1495 -0.3479
 5516TIP3   OH238182   6.005   2.490   6.813 -0.6004 -0.3070 -0.1092
 5516TIP3    H138183   5.923   2.535   6.792 -0.1143  0.4677 -0.3486
 5516TIP3    H238184   5.996   2.405   6.769 -0.6400  0.3542 -1.4115
 5517TIP3   OH238185   5.738   4.665   8.707  0.3987  0.1827  0.2325
 5517TIP3    H138186   5.737   4.574   8.736  2.4297 -0.0756 -0.2855
 5517TIP3    H238187   5.672   4.709   8.759 -0.2576 -1.4873  0.8589
 5518TIP3   OH238188   2.012   1.121   8.093  0.0557 -0.0657 -0.0424
 5518TIP3    H138189   1.991   1.096   8.003 -0.1341 -1.2891  0.3218
 5518TIP3    H238190   2.086   1.181   8.085  0.1188 -0.2630 -1.0026
 5519TIP3   OH238191   0.521   1.644   8.541  0.2111 -0.4146 -0.0969
 5519TIP3    H138192   0.433   1.682   8.544  0.4332  0.1264 -0.2492
 5519TIP3    H238193   0.562   1.671   8.623  0.6106  0.2956 -0.5140
 5520TIP3   OH238194   5.489   5.864   2.731 -0.1059  0.2695  0.4060
 5520TIP3    H138195   5.430   5.791   2.708  1.4925 -0.1568 -2.8767
 5520TIP3    H238196   5.438   5.942   2.711 -0.2874 -0.0403 -0.3654
 5521TIP3   OH238197   5.736   5.953   0.948 -0.1562  0.9163 -0.9574
 5521TIP3    H138198   5.733   5.993   0.862  1.3863 -1.8364 -2.4415
 5521TIP3    H238199   5.666   5.888   0.947 -0.9078  1.6655  0.3713
 5522TIP3   OH238200   4.106   2.043   8.707 -0.6225  0.0835  1.0202
 5522TIP3    H138201   4.047   1.998   8.647  1.6523 -1.4558 -0.1893
 5522TIP3    H238202   4.048   2.080   8.774 -2.9705 -0.8632 -0.3754
 5523TIP3   OH238203   4.254   0.317   1.411  0.1980 -0.3668  0.1598
 5523TIP3    H138204   4.219   0.349   1.494  0.9215 -0.7415  0.6254
 5523TIP3    H238205   4.333   0.369   1.397  0.2190 -0.4828 -0.1559
 5524TIP3   OH238206   4.892   1.474   0.888  0.0835  0.0661  0.2083
 5524TIP3    H138207   4.800   1.456   0.872  0.0490  1.4726 -1.3721
 5524TIP3    H238208   4.892   1.537   0.960 -0.1560 -0.0657  0.3256
 5525TIP3   OH238209   3.172   0.287   0.479  0.9322  0.3788 -0.1213
 5525TIP3    H138210   3.130   0.322   0.400  2.9562  3.0828 -0.1433
 5525TIP3    H238211   3.253   0.246   0.447  0.2770 -1.3545  0.3032
 5526TIP3   OH238212   2.598   0.453   1.562  0.6825  0.2934  0.1374
 5526TIP3    H138213   2.575   0.378   1.616  0.3480 -0.0502 -0.4820
 5526TIP3    H238214   2.520   0.508   1.562  1.0158  0.7933  0.8176
 5527TIP3   OH238215   1.196   3.170   1.513  0.5561  0.4437  0.4432
 5527TIP3    H138216   1.121   3.207   1.559  0.3127  1.1007 -0.4566
 5527TIP3    H238217   1.255   3.244   1.499 -0.3841  0.8155 -2.2783
 5528TIP3   OH238218   0.532   2.878   8.181 -0.3552  0.3762 -0.3853
 5528TIP3    H138219   0.510   2.805   8.239 -1.7608  0.7358 -0.4276
 5528TIP3    H238220   0.553   2.836   8.097 -2.4040  0.0396 -0.7768
 5529TIP3   OH238221   3.233   5.808   0.926  0.1313  0.3892 -0.0029
 5529TIP3    H138222   3.195   5.782   1.010  0.7993  0.5375  0.3524
 5529TIP3    H238223   3.196   5.747   0.863  0.2921 -0.2779  0.5396
 5530TIP3   OH238224   5.543   4.096   1.267  0.6888  0.4686  0.3421
 5530TIP3    H138225   5.613   4.161   1.260  1.1670  0.2104  2.2738
 5530TIP3    H238226   5.589   4.012   1.267  0.2060  0.1957 -0.3293
 5531TIP3   OH238227   4.175   3.663   7.235 -0.3976  0.0361  0.1488
 5531TIP3    H138228   4.218   3.724   7.295 -0.5188  0.6305 -0.3652
 5531TIP3    H238229   4.224   3.581   7.246  1.0529  0.7579 -0.5882
 5532TIP3   OH238230   2.728   5.335   2.278  0.4137 -0.3082  0.0784
 5532TIP3    H138231   2.710   5.349   2.185 -0.5084 -1.1780  0.1157
 5532TIP3    H238232   2.733   5.423   2.315  3.1793  0.1875 -1.1911
 5533TIP3   OH238233   1.039   5.387   0.443  0.2232 -0.2565  0.5180
 5533TIP3    H138234   1.125   5.352   0.466  1.4291  2.5701  0.7147
 5533TIP3    H238235   1.031   5.467   0.495 -1.6175  0.6568 -1.0570
 5534TIP3   OH238236   6.235   2.739   3.127  0.0420  0.6401  0.8104
 5534TIP3    H138237   6.202   2.828   3.133 -2.3288 -0.1312  0.2046
 5534TIP3    H238238   6.277   2.734   3.041 -1.7931  0.6016 -0.1189
 5535TIP3   OH238239   3.363   5.347   2.044  0.3088  0.0537  0.3058
 5535TIP3    H138240   3.304   5.288   2.090  0.7652 -1.3459 -0.8111
 5535TIP3    H238241   3.428   5.373   2.109 -0.6649  0.4205  1.1566
 5536TIP3   OH238242   3.393   0.172   0.400 -0.5234 -0.5710 -0.0516
 5536TIP3    H138243   3.473   0.219   0.375 -0.8168  0.1410  0.2978
 5536TIP3    H238244   3.422   0.104   0.460  0.0320 -1.4950 -1.3329
 5537TIP3   OH238245   2.596   2.506   2.346 -0.2068 -0.5477 -0.6646
 5537TIP3    H138246   2.616   2.461   2.264 -0.7476 -1.9629 -0.0382
 5537TIP3    H238247   2.656   2.581   2.346  2.0589 -2.2386 -0.8918
 5538TIP3   OH238248   5.954   3.120   0.649 -0.1350  0.2000 -0.4785
 5538TIP3    H138249   5.901   3.187   0.606  0.1484  0.3313 -0.6247
 5538TIP3    H238250   5.946   3.043   0.591 -0.9607 -0.0928  0.0075
 5539TIP3   OH238251   2.596   1.371   0.189  0.0639  0.0415  0.1128
 5539TIP3    H138252   2.658   1.421   0.136  0.4197 -1.4562 -0.9325
 5539TIP3    H238253   2.510   1.399   0.157  0.2149  0.8669  0.3903
 5540TIP3   OH238254   4.328   2.119   1.311  0.5364 -0.3744 -0.1122
 5540TIP3    H138255   4.309   2.042   1.258  1.2796 -0.2732 -0.5333
 5540TIP3    H238256   4.247   2.170   1.308  0.3095 -0.7481 -0.4959
 5541TIP3   OH238257   4.817   1.551   1.821  0.2886 -0.3011  0.4987
 5541TIP3    H138258   4.821   1.635   1.776  0.5040  0.1841  1.3970
 5541TIP3    H238259   4.905   1.515   1.812 -0.5987 -2.0285 -2.7726
 5542TIP3   OH238260   5.680   5.467   0.263  0.1972 -0.2548 -0.2357
 5542TIP3    H138261   5.714   5.455   0.174  2.1023  1.8678  0.1055
 5542TIP3    H238262   5.616   5.537   0.255 -1.5284 -1.7533 -0.2624
 5543TIP3   OH238263   2.983   2.498   8.253  0.0387 -0.2479 -0.1164
 5543TIP3    H138264   2.907   2.504   8.195  1.3860 -1.9263 -2.1661
 5543TIP3    H238265   2.976   2.412   8.293  0.9539 -0.4916 -0.4621
 5544TIP3   OH238266   4.901   4.239   8.468  0.0833 -0.2812  0.1501
 5544TIP3    H138267   4.848   4.316   8.451 -0.0059 -0.6526 -1.3727
 5544TIP3    H238268   4.930   4.209   8.382 -0.9173 -2.6655  0.5480
 5545TIP3   OH238269   0.897   1.936   8.290 -0.0846  0.3168 -0.3786
 5545TIP3    H138270   0.891   2.020   8.244 -0.4149  0.1256 -0.6943
 5545TIP3    H238271   0.934   1.876   8.225  1.8500  0.6155  0.3897
 5546TIP3   OH238272   5.842   2.937   8.325 -0.3235 -0.4656 -0.2481
 5546TIP3    H138273   5.887   3.016   8.354  0.9338 -1.5937  1.0100
 5546TIP3    H238274   5.911   2.874   8.307 -1.3312 -1.7578  0.2060
 5547TIP3   OH238275   6.513   4.027   1.881  0.1852  0.3177  0.7080
 5547TIP3    H138276   6.575   4.038   1.953  1.0794 -0.5156  0.0954
 5547TIP3    H238277   6.568   4.016   1.804 -0.6601 -1.6951  0.3144
 5548TIP3   OH238278   5.964   5.322   1.682 -0.2306  0.6172  0.3962
 5548TIP3    H138279   5.991   5.230   1.682  2.5852  1.3421 -0.8980
 5548TIP3    H238280   5.999   5.357   1.763  0.4104  0.9744 -0.0312
 5549TIP3   OH238281   0.538   0.030   1.480 -0.1900 -1.0339  0.2958
 5549TIP3    H138282   0.548   0.031   1.576  0.9772  0.4893  0.1789
 5549TIP3    H238283   0.627   0.031   1.446 -0.5558 -2.8254 -0.8500
 5550TIP3   OH238284   5.161   0.718   0.660  0.1996  0.1765 -0.0163
 5550TIP3    H138285   5.098   0.650   0.639  1.1327 -0.8299  0.3554
 5550TIP3    H238286   5.161   0.776   0.584 -0.1030 -0.6265 -0.6348
 5551TIP3   OH238287   0.394   3.419   7.276 -0.3690  1.0052  0.0621
 5551TIP3    H138288   0.331   3.398   7.345 -0.1509 -0.2533 -0.0905
 5551TIP3    H238289   0.412   3.512   7.286 -2.2375  1.3848  0.1274
 5552TIP3   OH238290   6.667   3.988   2.110  0.3283  0.1346  0.1874
 5552TIP3    H138291   6.744   3.939   2.079 -0.0130 -0.1758 -0.1809
 5552TIP3    H238292   6.625   3.930   2.173  0.7674  0.5838  0.9184
 5553TIP3   OH238293   6.358   4.986   7.545  1.0857 -0.2625  0.2279
 5553TIP3    H138294   6.334   5.058   7.486  1.0085  0.7381  1.4288
 5553TIP3    H238295   6.306   4.912   7.515  2.0620 -0.1983 -1.8083
 5554TIP3   OH238296   4.648   5.912   0.412 -0.1869  0.2017 -0.4307
 5554TIP3    H138297   4.698   5.985   0.375  0.4624  0.2308  0.4759
 5554TIP3    H238298   4.714   5.855   0.450 -0.8066 -0.0364  0.3030
 5555TIP3   OH238299   2.621   4.144   8.335 -0.1545  0.0673  0.0848
 5555TIP3    H138300   2.570   4.202   8.278  0.3954 -0.1899 -0.6852
 5555TIP3    H238301   2.711   4.174   8.326  0.0451 -0.4804  0.2043
 5556TIP3   OH238302   4.970   6.457   0.991  0.0107  0.5380  0.1680
 5556TIP3    H138303   4.916   6.535   0.978 -0.3303  0.9191  3.1432
 5556TIP3    H238304   4.914   6.384   0.967 -1.0903  1.0566  1.0599
 5557TIP3   OH238305   6.556   1.975   2.090 -0.0861 -0.7527 -0.0178
 5557TIP3    H138306   6.542   2.031   2.167  0.3603  0.9216 -1.1052
 5557TIP3    H238307   6.601   1.898   2.125  0.0641 -0.0599  1.4033
 5558TIP3   OH238308   1.350   4.737   1.252  0.4477 -0.5041 -0.2793
 5558TIP3    H138309   1.282   4.805   1.252  0.1475 -0.7523 -2.0524
 5558TIP3    H238310   1.323   4.677   1.183  1.7701 -1.3404 -0.0921
 5559TIP3   OH238311   6.842   1.321   7.027  0.4393  0.1282  0.3008
 5559TIP3    H138312   6.830   1.227   7.021 -0.6840  0.3443 -2.4570
 5559TIP3    H238313   6.933   1.336   6.999  0.1408 -0.0603 -0.8092
 5560TIP3   OH238314   6.509   0.832   2.713 -0.2240  0.3275  0.1082
 5560TIP3    H138315   6.453   0.883   2.655 -0.9971  2.4536  2.5567
 5560TIP3    H238316   6.533   0.755   2.661 -2.1250  1.2992 -2.4225
 5561TIP3   OH238317   1.553   0.005   2.435 -0.1129 -0.1319  0.3754
 5561TIP3    H138318   1.649   0.005   2.442 -0.0016  0.6858 -0.7558
 5561TIP3    H238319   1.533  -0.072   2.382  0.1214  0.8151 -1.1591
 5562TIP3   OH238320   5.620   1.150   0.301  0.3998  0.4209  0.5574
 5562TIP3    H138321   5.692   1.092   0.279 -0.4499  0.1284 -1.6256
 5562TIP3    H238322   5.618   1.150   0.397  2.4508 -0.5712  0.6443
 5563TIP3   OH238323   0.471   4.517   0.013  0.5247 -0.4754 -0.2869
 5563TIP3    H138324   0.439   4.476   0.094 -1.8050 -1.0050 -1.3980
 5563TIP3    H238325   0.529   4.587   0.043 -1.0987  0.0483  1.9047
 5564TIP3   OH238326   0.732   6.285   8.103  0.4790  0.7532  0.5349
 5564TIP3    H138327   0.741   6.254   8.013  1.0867 -0.8089  1.0945
 5564TIP3    H238328   0.719   6.379   8.095  2.4203  0.9538 -1.1029
 5565TIP3   OH238329   6.800   1.918   0.897  0.8097  0.3455  0.3979
 5565TIP3    H138330   6.873   1.857   0.905 -0.6954 -1.6674 -0.3044
 5565TIP3    H238331   6.728   1.876   0.945 -0.6681  0.8797 -1.2298
 5566TIP3   OH238332   6.136   2.090   0.437  0.0017 -1.0256  0.0847
 5566TIP3    H138333   6.109   2.023   0.499 -0.2666 -1.4456 -0.4821
 5566TIP3    H238334   6.056   2.111   0.387 -0.2425  0.6093  1.0686
 5567TIP3   OH238335   0.191   6.515   8.700 -0.4887 -0.0313  0.1370
 5567TIP3    H138336   0.174   6.538   8.792  0.6328 -0.0514  0.3613
 5567TIP3    H238337   0.246   6.437   8.704 -1.6658 -0.9302 -0.5893
 5568TIP3   OH238338   5.181   4.843   1.562  0.5504 -0.5738  0.0133
 5568TIP3    H138339   5.225   4.807   1.485 -1.6493  0.1268 -1.6716
 5568TIP3    H238340   5.253   4.868   1.621  2.4012 -0.0686 -2.2875
 5569TIP3   OH238341   4.421   3.280   0.377 -0.2712 -0.1070  0.4685
 5569TIP3    H138342   4.425   3.321   0.464 -1.6885 -1.2100  1.0878
 5569TIP3    H238343   4.392   3.350   0.319  1.3602  0.8353  0.7037
 5570TIP3   OH238344   0.756   6.171   0.781 -0.2253  0.3854 -0.1613
 5570TIP3    H138345   0.801   6.255   0.788 -0.8816  0.7539 -0.2604
 5570TIP3    H238346   0.679   6.190   0.727 -0.6162 -0.1844  0.1899
 5571TIP3   OH238347   1.153   2.427   3.421  0.3006  0.0790 -0.3145
 5571TIP3    H138348   1.218   2.433   3.491  0.1566  1.0737 -0.2470
 5571TIP3    H238349   1.156   2.513   3.378 -1.1190  0.2301 -0.1734
 5572TIP3   OH238350   1.035   4.736   7.825 -0.3217 -0.2572 -0.6537
 5572TIP3    H138351   1.063   4.745   7.734  1.5616 -0.3197 -0.1259
 5572TIP3    H238352   1.002   4.823   7.849  2.8113  0.9707 -0.3045
 5573TIP3   OH238353   4.353   3.483   0.887 -0.1992 -0.1159 -0.2212
 5573TIP3    H138354   4.279   3.474   0.947 -0.3707  1.1020 -0.2118
 5573TIP3    H238355   4.366   3.578   0.879  0.9812 -0.2942 -0.6938
 5574TIP3   OH238356   1.918   1.544   1.166 -0.0854  0.1409  0.2961
 5574TIP3    H138357   2.013   1.538   1.172 -0.0218 -0.1315 -0.7882
 5574TIP3    H238358   1.893   1.604   1.237  0.9879  1.0201 -0.0343
 5575TIP3   OH238359   0.501   6.300   1.273  0.5143 -0.0680  0.0994
 5575TIP3    H138360   0.413   6.287   1.309  0.0509  0.5241 -0.7871
 5575TIP3    H238361   0.550   6.339   1.345 -0.0443 -0.0990  0.5071
 5576TIP3   OH238362   5.745   3.845   1.673  0.4054 -0.1560 -0.3225
 5576TIP3    H138363   5.669   3.872   1.725 -0.4444  0.2225 -1.7254
 5576TIP3    H238364   5.712   3.773   1.619  0.7300  0.7090 -1.7221
 5577TIP3   OH238365   0.085   1.433   2.074  0.3886  0.2871 -0.1020
 5577TIP3    H138366   0.029   1.375   2.126  0.3402 -0.8642 -1.4018
 5577TIP3    H238367   0.076   1.402   1.984  0.7655  2.0069 -0.7746
 5578TIP3   OH238368   1.650   6.280   0.568  0.3662  0.0931 -0.3111
 5578TIP3    H138369   1.647   6.360   0.516  0.7646  0.3343  0.0379
 5578TIP3    H238370   1.574   6.287   0.626  0.3970  0.2127 -0.2853
 5579TIP3   OH238371   4.891   2.715   0.968  0.1792 -0.5013 -0.7282
 5579TIP3    H138372   4.828   2.748   0.904 -0.3928 -1.7066 -0.8221
 5579TIP3    H238373   4.972   2.762   0.949 -0.8612  1.6341 -0.1261
 5580TIP3   OH238374   3.559   3.619   1.843 -0.4281  0.4716  0.6484
 5580TIP3    H138375   3.648   3.585   1.832 -0.6702  0.2689 -0.8427
 5580TIP3    H238376   3.519   3.560   1.907 -0.2893 -1.0542 -0.6133
 5581TIP3   OH238377   6.120   3.442   1.528 -0.4962  0.4509  0.1944
 5581TIP3    H138378   6.191   3.381   1.512 -1.3596 -0.3814 -0.6005
 5581TIP3    H238379   6.163   3.527   1.536  0.5162  0.1204 -1.2592
 5582TIP3   OH238380   3.017   5.696   7.869 -0.0223 -0.0749 -0.3553
 5582TIP3    H138381   2.979   5.756   7.933  0.5143  0.4229 -0.4914
 5582TIP3    H238382   3.030   5.748   7.790 -1.9526 -1.0338 -1.3570
 5583TIP3   OH238383   2.955   5.864   8.539 -0.1779 -1.0023 -0.6171
 5583TIP3    H138384   3.045   5.857   8.508  0.3310 -0.1530  0.5977
 5583TIP3    H238385   2.963   5.894   8.630 -1.6750 -1.2695 -0.3712
 5584TIP3   OH238386   6.816   3.714   1.409  0.0824 -0.5406 -0.2285
 5584TIP3    H138387   6.816   3.649   1.339 -0.7044 -2.0036  1.0743
 5584TIP3    H238388   6.725   3.743   1.414 -0.1694 -1.5008  1.1018
 5585TIP3   OH238389   4.086   0.852   2.557  0.0251 -0.4605 -0.0546
 5585TIP3    H138390   4.092   0.821   2.647 -0.6243  0.2162  0.2260
 5585TIP3    H238391   4.054   0.777   2.507 -0.2629 -0.6352  0.3921
 5586TIP3   OH238392   1.693   0.929   1.512  0.1181 -0.2743  0.2474
 5586TIP3    H138393   1.683   1.024   1.526 -0.1351 -0.2441 -0.1270
 5586TIP3    H238394   1.733   0.922   1.425  0.9581 -0.4874  0.6398
 5587TIP3   OH238395   1.557   1.865   0.437  0.3301 -0.1647  0.3334
 5587TIP3    H138396   1.648   1.893   0.429  0.6621 -1.6095 -2.4202
 5587TIP3    H238397   1.557   1.803   0.510  1.3316  0.5961  1.0006
 5588TIP3   OH238398   5.148   0.224   1.914 -0.5812 -0.3437 -0.0084
 5588TIP3    H138399   5.179   0.315   1.920  1.4193 -0.8609 -1.4262
 5588TIP3    H238400   5.101   0.221   1.831 -1.9836 -0.2639  0.7667
 5589TIP3   OH238401   2.728   5.193   0.031  0.1893  0.3443  0.5277
 5589TIP3    H138402   2.804   5.243   0.058  0.9688 -0.0496 -0.8276
 5589TIP3    H238403   2.686   5.247  -0.036  0.1316 -0.1096  0.1925
 5590TIP3   OH238404   3.434   3.057   0.411  0.0817  0.1916 -0.0135
 5590TIP3    H138405   3.438   2.991   0.481 -2.2331 -0.4441 -0.3666
 5590TIP3    H238406   3.346   3.046   0.374  0.4017  2.0965 -1.4862
 5591TIP3   OH238407   5.775   3.192   8.148  0.2907  0.5371 -0.0677
 5591TIP3    H138408   5.767   3.116   8.090  0.9655  0.6938 -0.3698
 5591TIP3    H238409   5.869   3.204   8.160  0.1531  0.4653  1.1264
 5592TIP3   OH238410   2.431   5.236   2.056 -0.0541 -0.1298 -0.0972
 5592TIP3    H138411   2.454   5.301   2.123  1.6194  0.5304 -1.2523
 5592TIP3    H238412   2.391   5.287   1.985 -0.4673 -0.6332 -0.2347
 5593TIP3   OH238413   5.168   1.677   0.814  0.0039 -0.0497 -0.3922
 5593TIP3    H138414   5.111   1.723   0.876  1.1929  1.8016 -0.6163
 5593TIP3    H238415   5.107   1.637   0.752 -1.1115  0.4950  0.3076
 5594TIP3   OH238416   2.881   0.392   8.299 -0.5527  0.5878 -0.2892
 5594TIP3    H138417   2.914   0.395   8.209  0.4204  1.8074  0.0738
 5594TIP3    H238418   2.793   0.354   8.292  0.2430 -1.1530 -1.5045
 5595TIP3   OH238419   1.128   6.101   6.875 -0.0903  0.1826 -0.5916
 5595TIP3    H138420   1.150   6.194   6.885  2.4997 -0.2901 -1.2018
 5595TIP3    H238421   1.133   6.065   6.963 -0.9615  0.5487 -0.3745
 5596TIP3   OH238422   6.608   6.537   8.600 -0.5107 -0.2388  0.3499
 5596TIP3    H138423   6.532   6.577   8.557  0.2728  1.0389  0.1229
 5596TIP3    H238424   6.607   6.571   8.689  0.3905  0.6329  0.0392
 5597TIP3   OH238425   5.423   2.506   6.962  0.2632 -0.8797  0.1355
 5597TIP3    H138426   5.454   2.597   6.966 -0.9589 -0.4533  0.1812
 5597TIP3    H238427   5.330   2.513   6.940 -0.5643 -1.9604  2.8021
 5598TIP3   OH238428   6.795   3.695   7.656  0.4173 -0.0772 -0.3481
 5598TIP3    H138429   6.810   3.786   7.628  2.0364  0.1411  1.1048
 5598TIP3    H238430   6.750   3.655   7.581  1.9863  1.2206 -2.0916
 5599TIP3   OH238431   1.784   2.614   0.466  0.3271  0.5546  0.2476
 5599TIP3    H138432   1.854   2.582   0.409  0.5780  0.2912  0.6877
 5599TIP3    H238433   1.732   2.536   0.486 -0.0720  0.7431 -0.0457
 5600TIP3   OH238434   5.405   1.776   0.918 -0.4361  0.2281 -0.2033
 5600TIP3    H138435   5.316   1.745   0.906 -0.1172 -0.3197 -1.2335
 5600TIP3    H238436   5.432   1.807   0.831  0.8015 -0.7658 -0.1992
 5601TIP3   OH238437   1.555   6.762   2.015 -0.4533 -0.1395 -0.7186
 5601TIP3    H138438   1.572   6.854   2.036 -1.6113 -0.3167  1.2594
 5601TIP3    H238439   1.630   6.715   2.052 -0.1317 -0.0337 -1.2386
 5602TIP3   OH238440   5.086   5.830   1.245  0.0059  0.1357 -0.0446
 5602TIP3    H138441   5.084   5.739   1.276  0.2167  0.1955  0.1436
 5602TIP3    H238442   5.020   5.832   1.176 -1.1930  0.2298  1.0470
 5603TIP3   OH238443   0.205   6.394   3.203  0.4202  0.0680 -0.3240
 5603TIP3    H138444   0.163   6.308   3.202 -1.3802  0.7772  3.0873
 5603TIP3    H238445   0.135   6.455   3.180  1.0073  0.8590 -0.0246
 5604TIP3   OH238446   1.071   6.324   8.639 -0.3951 -0.1965  0.3117
 5604TIP3    H138447   1.138   6.271   8.682  0.9524  0.1416 -1.2476
 5604TIP3    H238448   1.061   6.283   8.553 -1.6131  0.2553  0.2265
 5605TIP3   OH238449   1.120   0.048   0.487 -1.2122  0.0114 -0.2383
 5605TIP3    H138450   1.152  -0.014   0.554 -0.8985 -0.6555 -0.9922
 5605TIP3    H238451   1.071   0.113   0.537  1.3353  1.1177  1.0191
 5606TIP3   OH238452   2.669   2.772   1.134 -0.1519 -0.3130 -0.0344
 5606TIP3    H138453   2.612   2.814   1.070  2.1338  2.4549 -0.4639
 5606TIP3    H238454   2.747   2.747   1.085  0.5686 -0.5375  1.1727
 5607TIP3   OH238455   6.124   2.546   7.426  0.0319 -0.2256  0.3670
 5607TIP3    H138456   6.066   2.569   7.353  0.6067 -2.2165 -0.7995
 5607TIP3    H238457   6.211   2.575   7.398  0.1906 -0.6172  0.4480
 5608TIP3   OH238458   6.872   3.195   2.733  0.0246 -1.2443  0.7878
 5608TIP3    H138459   6.907   3.282   2.752 -1.6129 -0.4339  0.3092
 5608TIP3    H238460   6.853   3.157   2.819 -0.1505 -0.7228  0.9829
 5609TIP3   OH238461   4.260   1.423   8.513 -0.7217  0.2815  0.2674
 5609TIP3    H138462   4.344   1.378   8.524 -0.5216  0.7133  0.5515
 5609TIP3    H238463   4.217   1.416   8.598 -2.0387 -2.0032 -0.5132
 5610TIP3   OH238464   5.839   0.163   0.486 -0.4376  0.3521  0.2814
 5610TIP3    H138465   5.810   0.251   0.508  1.5305  1.4707 -1.1971
 5610TIP3    H238466   5.762   0.108   0.496 -1.7728  2.2822  1.0472
 5611TIP3   OH238467   1.773   4.380   7.467 -0.5127 -0.3764  0.2952
 5611TIP3    H138468   1.693   4.341   7.432 -0.3084 -0.5151 -0.0309
 5611TIP3    H238469   1.765   4.373   7.562 -0.8651 -0.4326  0.2607
 5612TIP3   OH238470   6.010   6.251   1.282 -0.1062  0.1109 -0.0475
 5612TIP3    H138471   6.106   6.245   1.279 -0.1533 -0.5366 -1.7500
 5612TIP3    H238472   5.988   6.235   1.373  1.3466 -1.0230  0.1549
 5613TIP3   OH238473   3.595   0.653   0.696 -0.8172 -0.3915  0.2728
 5613TIP3    H138474   3.525   0.697   0.649 -0.3701  0.2707  0.2165
 5613TIP3    H238475   3.575   0.666   0.789 -0.2679  0.6238  0.2584
 5614TIP3   OH238476   6.073   4.960   8.450 -0.0062 -0.1991  0.3081
 5614TIP3    H138477   6.047   4.978   8.540 -0.1248  0.3762  0.1638
 5614TIP3    H238478   6.001   4.995   8.397 -0.2282 -1.0920  0.0145
 5615TIP3   OH238479   3.549   4.915   0.570  0.7144 -0.4009  0.7306
 5615TIP3    H138480   3.462   4.931   0.534  0.3574 -1.0347  1.2745
 5615TIP3    H238481   3.605   4.980   0.529 -0.1272  0.3793  0.7830
 5616TIP3   OH238482   2.816   0.840   1.148 -0.1596  0.4443 -0.3083
 5616TIP3    H138483   2.763   0.782   1.203 -4.6280  2.6768 -1.8425
 5616TIP3    H238484   2.889   0.866   1.206 -0.6709 -2.6727  2.0427
 5617TIP3   OH238485   5.761   2.247   1.495  0.5192  0.2337 -0.2535
 5617TIP3    H138486   5.736   2.295   1.416 -0.1048 -0.0544 -0.2373
 5617TIP3    H238487   5.705   2.283   1.564  0.8885  0.3124  0.0093
 5618TIP3   OH238488   2.899   2.726   6.748 -0.3858 -0.9602 -0.1174
 5618TIP3    H138489   2.851   2.805   6.724  1.4774  0.0250 -0.8604
 5618TIP3    H238490   2.931   2.743   6.836  1.1959 -0.2260 -0.7955
 5619TIP3   OH238491   0.273   5.060   2.889 -0.7941 -0.5661 -0.1164
 5619TIP3    H138492   0.314   5.146   2.895 -0.2851 -0.5276 -2.7937
 5619TIP3    H238493   0.317   5.007   2.956 -0.6360  1.0353  1.0986
 5620TIP3   OH238494   0.538   1.621   7.666 -0.1712  0.0101  0.2608
 5620TIP3    H138495   0.575   1.548   7.617  1.3111 -0.5164  2.0325
 5620TIP3    H238496   0.573   1.699   7.623 -0.3952 -0.3549 -0.6063
 5621TIP3   OH238497   5.845   1.858   1.295 -0.1736 -0.3248 -0.2866
 5621TIP3    H138498   5.921   1.800   1.282 -0.2973 -0.2354 -1.5332
 5621TIP3    H238499   5.813   1.876   1.206 -1.7794 -0.5105  0.2280
 5622TIP3   OH238500   3.427   4.812   0.800 -0.3223 -0.5081 -0.2537
 5622TIP3    H138501   3.335   4.827   0.776 -0.4980 -1.5173 -0.2822
 5622TIP3    H238502   3.476   4.878   0.751 -0.9196 -0.8022 -1.2893
 5623TIP3   OH238503   0.702   6.425   0.930 -0.1258 -0.3289  0.4339
 5623TIP3    H138504   0.749   6.457   0.853 -0.4333 -0.5009  0.1703
 5623TIP3    H238505   0.612   6.454   0.917  0.0193  0.5232  1.2316
 5624TIP3   OH238506   2.620   1.666   8.541  0.2472 -0.1761  0.2129
 5624TIP3    H138507   2.687   1.729   8.566  1.0226 -0.2525 -1.5203
 5624TIP3    H238508   2.563   1.714   8.481  1.0041 -1.1351 -1.3490
 5625TIP3   OH238509   2.321   4.225   1.060 -0.6383 -0.0409 -0.0181
 5625TIP3    H138510   2.293   4.216   1.151 -0.6171 -1.1878 -0.1147
 5625TIP3    H238511   2.400   4.170   1.054  0.9930  2.1684 -0.0480
 5626TIP3   OH238512   1.429   3.558   0.791 -0.0584  0.0056 -0.2533
 5626TIP3    H138513   1.455   3.573   0.882 -0.4882 -1.4561  0.1312
 5626TIP3    H238514   1.493   3.606   0.740 -2.0220  4.3134  0.8185
 5627TIP3   OH238515   1.601   2.176   2.384  0.0090 -0.2620  0.1023
 5627TIP3    H138516   1.657   2.182   2.461 -0.2770  2.4551  0.1842
 5627TIP3    H238517   1.617   2.088   2.350  1.9497 -0.6797  1.8724
 5628TIP3   OH238518   4.806   6.531   2.129 -0.1735  0.1741 -0.0392
 5628TIP3    H138519   4.852   6.615   2.136 -0.0503  0.0937  0.1189
 5628TIP3    H238520   4.719   6.548   2.164 -0.1509  0.2370 -0.0134
 5629TIP3   OH238521   0.201   5.520   8.333  0.1961  0.0938 -0.3460
 5629TIP3    H138522   0.251   5.500   8.254 -1.6401 -0.5397 -1.3871
 5629TIP3    H238523   0.129   5.457   8.333 -0.7359  1.0992  0.9988
 5630TIP3   OH238524   3.234   3.869   0.354 -0.5640 -0.1123 -0.2830
 5630TIP3    H138525   3.180   3.912   0.288 -0.0280  1.1975  0.1099
 5630TIP3    H238526   3.278   3.798   0.306 -0.8663  0.2533 -1.1234
 5631TIP3   OH238527   6.364   1.760   7.936 -0.0018 -0.1567 -0.0536
 5631TIP3    H138528   6.394   1.790   7.850 -1.1876 -1.0546 -0.8146
 5631TIP3    H238529   6.440   1.718   7.975  0.4205 -0.1596 -0.8628
 5632TIP3   OH238530   4.696   1.796   0.909  0.0270  0.6451  0.2420
 5632TIP3    H138531   4.735   1.736   0.973  0.3892  2.0090  1.3400
 5632TIP3    H238532   4.763   1.805   0.840  0.0091 -0.1084  0.1180
 5633TIP3   OH238533   6.576   5.245   2.044 -0.5248  0.6672  0.3213
 5633TIP3    H138534   6.597   5.260   2.137  2.0553 -0.1183 -0.0701
 5633TIP3    H238535   6.597   5.153   2.029 -0.0047  1.0231 -1.2675
 5634TIP3   OH238536   6.026   2.937   7.379  0.3928 -0.3240 -0.4369
 5634TIP3    H138537   6.045   2.955   7.287  0.4744  0.1682 -0.3243
 5634TIP3    H238538   5.963   3.004   7.405 -1.9122 -2.1899 -0.9264
 5635TIP3   OH238539   0.591   3.657   0.205 -0.0939  0.4913 -0.4565
 5635TIP3    H138540   0.531   3.585   0.185 -1.0112  1.4547 -1.3092
 5635TIP3    H238541   0.534   3.730   0.227  0.8208  0.9796  0.3571
 5636TIP3   OH238542   3.357   1.333   1.158  0.0422  0.1381 -0.3871
 5636TIP3    H138543   3.430   1.341   1.097  0.0381 -0.0771 -0.4236
 5636TIP3    H238544   3.294   1.399   1.130  0.7355  1.1586  0.3728
 5637TIP3   OH238545   1.775   1.701   8.046  0.2026 -0.4400 -0.0795
 5637TIP3    H138546   1.791   1.702   7.951 -2.6338 -1.9272 -0.6920
 5637TIP3    H238547   1.796   1.611   8.072 -0.0035 -0.3182  0.5066
 5638TIP3   OH238548   2.641   2.952   7.623 -0.1396 -0.1704  0.0003
 5638TIP3    H138549   2.684   2.987   7.544 -0.8650  0.4711 -0.1151
 5638TIP3    H238550   2.699   2.978   7.695  0.2205 -0.2423 -0.2580
 5639TIP3   OH238551   2.020   2.768   0.589  0.1834  0.5427 -0.4348
 5639TIP3    H138552   2.105   2.812   0.595 -0.4258  1.8525 -0.8053
 5639TIP3    H238553   2.038   2.677   0.611  1.9744  0.4264 -2.1131
 5640TIP3   OH238554   1.391   1.817   7.412 -0.2275  0.5022 -0.0589
 5640TIP3    H138555   1.425   1.900   7.379 -0.7301 -0.0445 -2.1225
 5640TIP3    H238556   1.452   1.791   7.481  1.1537  1.5523 -0.8445
 5641TIP3   OH238557   3.335   4.671   0.548 -0.0765  0.2236 -0.3257
 5641TIP3    H138558   3.311   4.758   0.516  0.7725  0.3100 -0.7605
 5641TIP3    H238559   3.414   4.685   0.601  1.4199 -0.5227 -2.2326
 5642TIP3   OH238560   5.093   2.669   7.530  0.2668  0.5847 -0.2556
 5642TIP3    H138561   5.070   2.579   7.506 -1.5803  1.4027 -1.7970
 5642TIP3    H238562   5.066   2.677   7.621 -0.4774 -0.1265 -0.4055
 5643TIP3   OH238563   3.231   1.605   8.677 -0.5624  0.1465  0.0645
 5643TIP3    H138564   3.188   1.590   8.592 -0.3212  0.0297 -0.0376
 5643TIP3    H238565   3.301   1.668   8.658  0.3225 -0.8600 -0.0757
 5644TIP3   OH238566   3.535   1.482   3.257 -0.1579  0.0294  0.3331
 5644TIP3    H138567   3.607   1.431   3.220 -0.2768 -0.2575  0.4972
 5644TIP3    H238568   3.456   1.446   3.215 -0.3605 -0.7501  1.3585
 5645TIP3   OH238569   3.023   6.856   2.210 -0.6337 -0.0510 -0.5480
 5645TIP3    H138570   3.063   6.915   2.146 -1.4967 -0.5973 -1.6325
 5645TIP3    H238571   2.935   6.890   2.223 -0.7600 -0.4509 -0.3311
 5646TIP3   OH238572   0.738   1.303   1.219  0.4312 -0.0224  0.5695
 5646TIP3    H138573   0.749   1.230   1.157  0.2048 -0.7221  1.3402
 5646TIP3    H238574   0.645   1.302   1.241  0.1296  1.3928 -0.4671
 5647TIP3   OH238575   5.808   5.103   0.799 -0.2093 -0.0463 -0.0357
 5647TIP3    H138576   5.810   5.079   0.707 -1.0247  1.7227 -0.5668
 5647TIP3    H238577   5.843   5.027   0.845  2.8309 -0.0211 -1.9882
 5648TIP3   OH238578   2.181   6.207   1.444  0.2213 -0.3607  0.0529
 5648TIP3    H138579   2.155   6.239   1.357 -0.8710  1.1260  0.8856
 5648TIP3    H238580   2.258   6.154   1.427 -0.9304 -1.5104 -2.0357
 5649TIP3   OH238581   3.548   5.588   1.462  0.3151  0.4747  0.5774
 5649TIP3    H138582   3.543   5.592   1.367 -0.0656 -1.2419  0.4993
 5649TIP3    H238583   3.461   5.612   1.492 -0.1097 -0.8138  0.4045
 5650TIP3   OH238584   3.805   5.764   7.812 -0.3983  0.0128 -0.5363
 5650TIP3    H138585   3.876   5.751   7.748 -0.1031 -1.6137  0.0724
 5650TIP3    H238586   3.745   5.691   7.796 -1.0190  0.3712  0.1361
 5651TIP3   OH238587   2.370   1.083   2.201  0.1819 -0.1352  0.2633
 5651TIP3    H138588   2.455   1.057   2.166 -0.9580 -0.7947 -2.3089
 5651TIP3    H238589   2.322   1.000   2.208 -1.5580  0.5008 -2.4104
 5652TIP3   OH238590   3.542   2.415   1.784  0.2520  0.1044  0.4113
 5652TIP3    H138591   3.550   2.320   1.779  0.6097  0.0759  1.3811
 5652TIP3    H238592   3.462   2.435   1.733  0.4975 -0.6404 -0.2879
 5653TIP3   OH238593   5.305   5.923   8.714 -0.0770 -0.5625  0.0213
 5653TIP3    H138594   5.365   5.939   8.786  0.8841 -2.1492 -0.3883
 5653TIP3    H238595   5.251   6.002   8.710  2.1429  1.0461  0.2338
 5654TIP3   OH238596   5.357   3.201   1.691 -0.4595  0.3272 -0.4051
 5654TIP3    H138597   5.304   3.203   1.611 -2.4230 -0.9274  0.7740
 5654TIP3    H238598   5.308   3.254   1.754  0.2310  0.0185  0.4135
 5655TIP3   OH238599   2.775   4.585   8.010  0.6306  0.5321  0.4154
 5655TIP3    H138600   2.718   4.662   8.009  1.7223  1.3977  1.3541
 5655TIP3    H238601   2.842   4.604   7.945  0.6429  0.1558  0.3142
 5656TIP3   OH238602   5.114   0.195   6.760 -0.2972 -0.7059 -0.1247
 5656TIP3    H138603   5.113   0.202   6.855 -1.9583 -0.5202 -0.1190
 5656TIP3    H238604   5.205   0.208   6.735  0.4993 -2.5359  1.5601
 5657TIP3   OH238605   2.564   6.566   8.363  0.3202 -0.2007  0.2542
 5657TIP3    H138606   2.574   6.653   8.401 -0.6378  0.0804 -0.0999
 5657TIP3    H238607   2.590   6.577   8.271 -0.1934 -0.1913  0.1093
 5658TIP3   OH238608   2.698   4.115   1.893  0.3309  0.2767 -0.1581
 5658TIP3    H138609   2.790   4.098   1.874  0.8318  1.4152  1.0853
 5658TIP3    H238610   2.678   4.058   1.968 -0.1352 -0.3553 -0.7564
 5659TIP3   OH238611   4.575   3.189   0.154  0.0396 -0.0964  0.1308
 5659TIP3    H138612   4.621   3.266   0.119 -0.9541  0.6115  0.3489
 5659TIP3    H238613   4.539   3.219   0.237  0.2377 -1.0193  0.5571
 5660TIP3   OH238614   0.958   0.623   1.902 -0.2019 -0.0947  0.3918
 5660TIP3    H138615   1.009   0.698   1.933  0.4471 -0.4696  0.2568
 5660TIP3    H238616   1.023   0.563   1.866 -0.6361 -1.0210  1.0916
 5661TIP3   OH238617   6.804   2.762   8.168  0.0779 -0.4687 -0.1626
 5661TIP3    H138618   6.848   2.705   8.230 -0.3534  2.1764  2.8266
 5661TIP3    H238619   6.727   2.713   8.140 -0.9334 -1.0077  3.1884
 5662TIP3   OH238620   3.876   4.192   0.257  0.3952 -0.0511 -0.4454
 5662TIP3    H138621   3.907   4.113   0.301  0.6866  1.0897  1.5071
 5662TIP3    H238622   3.956   4.234   0.225  0.2740 -0.3136 -1.1150
 5663TIP3   OH238623   1.381   0.355   8.718  0.1459 -0.3189  0.1669
 5663TIP3    H138624   1.476   0.348   8.715  0.3333  1.2669  1.2647
 5663TIP3    H238625   1.359   0.354   8.811 -0.3823  4.1062  0.3170
 5664TIP3   OH238626   3.103   6.093   0.339 -0.0232 -0.1331 -0.1085
 5664TIP3    H138627   3.101   6.043   0.258 -2.2598 -2.7653  1.4226
 5664TIP3    H238628   3.034   6.159   0.329 -1.3187 -1.4180  0.1757
 5665TIP3   OH238629   2.299   5.104   2.441  0.3507 -0.0265 -0.1553
 5665TIP3    H138630   2.209   5.101   2.474  0.4256  0.1792  0.0665
 5665TIP3    H238631   2.348   5.046   2.499  0.7840  1.4625  1.0253
 5666TIP3   OH238632   6.125   5.109   8.748 -0.0181 -0.4183 -0.0219
 5666TIP3    H138633   6.048   5.051   8.744 -0.6763  0.4679 -0.4108
 5666TIP3    H238634   6.199   5.049   8.751 -0.7696 -1.3375  2.2214
 5667TIP3   OH238635   5.330   2.295   8.666 -0.2146 -0.1091  0.0556
 5667TIP3    H138636   5.249   2.314   8.714  0.1331 -1.7369  1.4108
 5667TIP3    H238637   5.400   2.310   8.730  0.4850  0.3188 -0.7981
 5668TIP3   OH238638   0.567   5.293   8.514  0.0202 -1.0032 -0.2555
 5668TIP3    H138639   0.509   5.359   8.554 -0.1411 -0.7898 -0.8407
 5668TIP3    H238640   0.608   5.250   8.589  0.8256  0.3733  0.1213
 5669TIP3   OH238641   4.174   5.629   1.177  0.2407  0.2482 -0.0297
 5669TIP3    H138642   4.195   5.536   1.165  0.2112  0.3168 -0.6453
 5669TIP3    H238643   4.080   5.629   1.199 -0.2196  0.2309 -1.8205
 5670TIP3   OH238644   4.665   5.870   8.020  0.1341  0.4859 -0.1564
 5670TIP3    H138645   4.684   5.777   8.032 -1.5027  0.0645 -0.5484
 5670TIP3    H238646   4.610   5.894   8.095 -1.4559  0.4892 -1.2711
 5671TIP3   OH238647   1.160   3.898   0.274  0.6520  0.4574  0.3992
 5671TIP3    H138648   1.066   3.888   0.284  0.9171 -2.9495  0.4388
 5671TIP3    H238649   1.180   3.982   0.317 -2.2136  0.8574  1.1105
 5672TIP3   OH238650   6.393   2.584   2.347  0.3415 -0.0463 -0.5621
 5672TIP3    H138651   6.460   2.517   2.330 -0.2394 -0.9914  0.6832
 5672TIP3    H238652   6.312   2.534   2.359 -0.0113  0.8277  0.8846
 5673TIP3   OH238653   5.255   5.978   0.443 -0.1678 -0.1672 -0.1369
 5673TIP3    H138654   5.229   6.014   0.528  2.6417  0.9648  0.3624
 5673TIP3    H238655   5.302   5.897   0.464  2.4209  1.1737 -0.2850
 5674TIP3   OH238656   1.184   6.815   2.629 -0.3023 -0.4288 -0.3088
 5674TIP3    H138657   1.224   6.771   2.555 -1.3955 -0.5652 -0.8397
 5674TIP3    H238658   1.103   6.853   2.594  0.1748  1.2829  0.3217
 5675TIP3   OH238659   5.111   0.546   1.705  0.5789 -0.1385 -0.0967
 5675TIP3    H138660   5.168   0.475   1.673  0.2776  0.3392 -1.7574
 5675TIP3    H238661   5.161   0.585   1.777  1.8012 -0.5359 -0.6948
 5676TIP3   OH238662   5.665   3.720   7.924  0.1723  0.6014  0.2850
 5676TIP3    H138663   5.584   3.746   7.882 -0.8242 -1.1173  1.0357
 5676TIP3    H238664   5.662   3.759   8.010 -0.1968  0.0012  0.5522
 5677TIP3   OH238665   3.891   4.286   1.007 -0.1010 -0.0724 -0.0980
 5677TIP3    H138666   3.818   4.237   0.970  1.5640 -0.6525 -2.8918
 5677TIP3    H238667   3.967   4.228   0.999  1.2817  1.6481 -0.2707
 5678TIP3   OH238668   5.963   5.391   0.717 -0.8925 -0.2368 -0.2934
 5678TIP3    H138669   5.926   5.303   0.718  0.4520 -0.8121  0.3492
 5678TIP3    H238670   5.978   5.409   0.624 -1.7009 -0.4361 -0.4752
 5679TIP3   OH238671   0.368   1.597   8.140 -0.1204  0.4606  0.6347
 5679TIP3    H138672   0.343   1.517   8.186 -0.5560 -0.0698 -0.4826
 5679TIP3    H238673   0.287   1.626   8.098  0.0100  1.5571  1.1057
 5680TIP3   OH238674   0.573   4.404   7.674 -0.1149  0.0870 -0.0253
 5680TIP3    H138675   0.605   4.493   7.657 -1.3405  0.7848  1.0533
 5680TIP3    H238676   0.643   4.361   7.723  0.1942  0.7289  0.1077
 5681TIP3   OH238677   1.328   4.601   1.533 -0.0251 -0.3609  0.3419
 5681TIP3    H138678   1.260   4.655   1.491  0.1193 -0.5888 -0.1836
 5681TIP3    H238679   1.380   4.663   1.583  0.3052  0.0329 -0.4788
 5682TIP3   OH238680   4.873   1.775   2.105  0.0661 -0.1561 -0.5363
 5682TIP3    H138681   4.898   1.707   2.167  0.1086  0.0263 -0.3533
 5682TIP3    H238682   4.779   1.762   2.091  0.0902 -0.3007 -0.5607
 5683TIP3   OH238683   0.185   3.901   0.061  0.1909  0.0629 -0.4589
 5683TIP3    H138684   0.225   3.846  -0.005  0.9740 -0.9180  0.7833
 5683TIP3    H238685   0.100   3.861   0.078  1.2200 -1.5741  1.2853
 5684TIP3   OH238686   4.237   6.551   0.988 -0.1862 -0.4522  0.0217
 5684TIP3    H138687   4.197   6.466   0.966  1.6802 -1.1335 -1.0303
 5684TIP3    H238688   4.185   6.584   1.061 -1.9979 -1.7212 -0.6101
 5685TIP3   OH238689   2.711   3.434   0.813  0.8624  0.3036 -0.0085
 5685TIP3    H138690   2.650   3.363   0.833  1.2846  0.2113  0.9911
 5685TIP3    H238691   2.713   3.437   0.717  0.3191 -0.5760 -0.0613
 5686TIP3   OH238692   1.912   2.335   1.517  0.1522 -0.6431  0.1670
 5686TIP3    H138693   1.971   2.399   1.558 -0.2901 -1.4978  2.2406
 5686TIP3    H238694   1.825   2.360   1.549 -0.2847 -1.0336 -0.7004
 5687TIP3   OH238695   6.127   1.300   6.987  0.1346 -0.0839  0.3852
 5687TIP3    H138696   6.144   1.265   7.075 -0.8974 -0.6197  0.3901
 5687TIP3    H238697   6.067   1.373   7.003  1.6608  1.2305  0.3043
 5688TIP3   OH238698   0.420   0.124   2.344 -0.6073 -0.2638 -0.2233
 5688TIP3    H138699   0.352   0.178   2.385 -0.4074  0.3881 -0.7343
 5688TIP3    H238700   0.382   0.098   2.260 -0.7522 -1.0448  0.0706
 5689TIP3   OH238701   6.129   4.096   1.657  0.1245  0.0457  0.5073
 5689TIP3    H138702   6.140   4.168   1.719  0.3574  0.6276 -0.1849
 5689TIP3    H238703   6.215   4.086   1.616  0.1793 -0.8443  0.8144
 5690TIP3   OH238704   2.541   5.410   7.943  0.1029  0.1986 -0.1499
 5690TIP3    H138705   2.455   5.442   7.970 -0.4438  0.4390 -2.0159
 5690TIP3    H238706   2.557   5.334   7.999 -2.2536 -1.0800 -1.0584
 5691TIP3   OH238707   6.381   2.943   8.475  0.4032 -0.0987 -0.0229
 5691TIP3    H138708   6.424   2.858   8.465 -1.5311 -1.3139  1.3177
 5691TIP3    H238709   6.290   2.921   8.494 -0.0461  2.2778  0.8281
 5692TIP3   OH238710   6.472   6.092   0.171  0.0051 -0.1940 -0.2804
 5692TIP3    H138711   6.466   6.185   0.146 -0.4856 -0.0621  0.3018
 5692TIP3    H238712   6.392   6.053   0.136  0.4134 -0.4983 -0.8973
 5693TIP3   OH238713   5.947   3.183   8.573  0.3549 -0.0476 -0.3145
 5693TIP3    H138714   5.981   3.095   8.590 -0.1294 -0.0398  0.7943
 5693TIP3    H238715   5.932   3.220   8.660 -2.7442 -0.1611 -0.6841
 5694TIP3   OH238716   3.709   6.562   0.430  0.3635  0.8413  0.4489
 5694TIP3    H138717   3.636   6.605   0.385  0.1358 -0.1296 -0.1305
 5694TIP3    H238718   3.744   6.630   0.489  1.0389  2.3564 -1.5746
 5695TIP3   OH238719   2.293   0.770   7.184  0.1742 -0.2381 -0.0314
 5695TIP3    H138720   2.320   0.691   7.231 -0.4923  0.7995  2.2073
 5695TIP3    H238721   2.368   0.829   7.192  0.1620 -0.1471 -0.5494
 5696TIP3   OH238722   2.890   6.677   1.306  0.2054 -0.5495 -0.0523
 5696TIP3    H138723   2.975   6.721   1.314  0.1104 -0.3043 -0.3880
 5696TIP3    H238724   2.831   6.745   1.274 -0.3470 -0.4544  1.1105
 5697TIP3   OH238725   3.577   6.078   6.923  0.4317 -0.3553  0.2587
 5697TIP3    H138726   3.590   5.996   6.969  0.6970 -0.9728 -0.8867
 5697TIP3    H238727   3.569   6.144   6.993 -0.4438 -1.4248  1.1986
 5698TIP3   OH238728   2.105   5.166   8.032  0.0589  0.3970  0.0375
 5698TIP3    H138729   2.193   5.148   8.066 -0.4326 -1.9498  0.1889
 5698TIP3    H238730   2.051   5.178   8.110  0.1033  1.3312 -0.0542
 5699TIP3   OH238731   1.311   4.818   0.880 -0.8961  0.5135 -0.0625
 5699TIP3    H138732   1.385   4.800   0.821 -1.8695  0.7957 -1.4309
 5699TIP3    H238733   1.327   4.906   0.913 -0.4826  0.4665 -0.1340
 5700TIP3   OH238734   4.522   1.715   8.545 -0.3669 -0.1384  0.2101
 5700TIP3    H138735   4.523   1.689   8.452  1.1932  1.1732 -0.1890
 5700TIP3    H238736   4.437   1.757   8.557 -0.3484  0.2144 -0.7969
 5701TIP3   OH238737   5.908   5.019   7.899 -0.0519 -0.5591 -0.2604
 5701TIP3    H138738   5.981   5.022   7.838 -1.5177 -0.3158 -2.0829
 5701TIP3    H238739   5.852   4.948   7.866 -1.2164  0.0269  0.3996
 5702TIP3   OH238740   0.749   0.603   0.364 -0.2938 -0.1519 -0.0577
 5702TIP3    H138741   0.683   0.562   0.309  0.7326 -0.4407 -1.1339
 5702TIP3    H238742   0.779   0.533   0.422 -0.4617 -0.1989 -0.0286
 5703TIP3   OH238743   2.634   2.857   8.287  0.2065 -0.6354 -0.0626
 5703TIP3    H138744   2.641   2.945   8.250  0.3621 -0.5093  0.2692
 5703TIP3    H238745   2.724   2.826   8.293  0.1027 -1.2345 -1.1664
 5704TIP3   OH238746   6.510   1.478   0.282  0.0869 -0.5507 -0.3374
 5704TIP3    H138747   6.496   1.390   0.318 -0.5585 -0.4256 -0.2789
 5704TIP3    H238748   6.564   1.522   0.348 -2.0572  0.0591  1.0868
 5705TIP3   OH238749   0.403   3.452   0.914  0.1733 -0.8327 -1.2709
 5705TIP3    H138750   0.316   3.451   0.874 -0.7090  2.2994  0.2493
 5705TIP3    H238751   0.450   3.521   0.867 -0.1414  1.3643  1.3720
 5706TIP3   OH238752   4.738   0.187   8.399  0.1236 -0.0590 -0.8045
 5706TIP3    H138753   4.797   0.234   8.458 -0.3564 -1.2941  0.7457
 5706TIP3    H238754   4.775   0.200   8.312  3.1175 -1.3848  0.1599
 5707TIP3   OH238755   5.660   5.201   2.688 -0.0617 -0.0308 -0.0178
 5707TIP3    H138756   5.688   5.118   2.727  0.2713  0.0977  0.0250
 5707TIP3    H238757   5.565   5.195   2.683 -0.2205  0.4072  1.8745
 5708TIP3   OH238758   1.353   4.312   6.918 -0.1603  0.1278 -0.2620
 5708TIP3    H138759   1.271   4.282   6.878 -1.2060  2.0172  0.3045
 5708TIP3    H238760   1.368   4.398   6.880 -0.5506  1.4773  2.4023
 5709TIP3   OH238761   4.003   0.726   1.780  0.1723 -0.0083 -0.3936
 5709TIP3    H138762   3.961   0.797   1.732 -0.8466 -0.9268 -0.9094
 5709TIP3    H238763   4.031   0.766   1.863 -0.6798  0.9108 -0.5314
 5710TIP3   OH238764   0.445   5.863   0.752  0.2849 -0.1593  0.1583
 5710TIP3    H138765   0.426   5.810   0.830  0.4357 -0.5586 -0.0692
 5710TIP3    H238766   0.479   5.945   0.786 -0.9447  0.2024  0.5425
 5711TIP3   OH238767   2.659   1.088   0.867 -0.9158 -0.4484  0.4655
 5711TIP3    H138768   2.608   1.045   0.935 -0.1957 -0.9288  0.7202
 5711TIP3    H238769   2.611   1.169   0.848 -1.3176 -0.4860  1.2879
 5712TIP3   OH238770   2.956   2.268   1.667  0.1618  0.1717  0.5623
 5712TIP3    H138771   2.923   2.270   1.577  0.8610 -3.0069  0.1425
 5712TIP3    H238772   2.892   2.319   1.717 -0.3756  1.8239 -1.6483
 5713TIP3   OH238773   3.078   2.082   7.742 -0.3099 -0.2206 -0.5233
 5713TIP3    H138774   3.027   2.005   7.718  1.5510 -0.8812 -2.7468
 5713TIP3    H238775   3.028   2.156   7.708 -2.2358 -0.2835  1.8439
 5714TIP3   OH238776   2.981   2.435   2.945 -0.0600  0.0090  0.5698
 5714TIP3    H138777   3.027   2.450   2.863 -0.5004  1.9871  0.6331
 5714TIP3    H238778   3.034   2.369   2.991  0.7036 -0.4166 -0.8776
 5715TIP3   OH238779   3.589   6.814   2.385 -0.2987  0.4021  0.1743
 5715TIP3    H138780   3.639   6.875   2.438  0.3341 -0.0182  0.0694
 5715TIP3    H238781   3.581   6.857   2.300  0.0161  0.4110  0.1472
 5716TIP3   OH238782   6.676   6.550   0.375 -0.7391 -0.7446 -0.0845
 5716TIP3    H138783   6.708   6.461   0.389  1.7619  0.1612  0.5813
 5716TIP3    H238784   6.642   6.576   0.461 -0.6315 -0.7520 -0.0394
 5717TIP3   OH238785   2.063   6.427   2.330  0.2822  0.4257 -0.3739
 5717TIP3    H138786   2.140   6.477   2.302  0.6940  0.2590  0.4153
 5717TIP3    H238787   1.992   6.491   2.331  0.6180  0.8037 -0.2218
 5718TIP3   OH238788   1.423   0.715   7.579  0.3422  0.1628 -0.8391
 5718TIP3    H138789   1.436   0.788   7.639 -1.6040  0.2031 -0.4200
 5718TIP3    H238790   1.419   0.638   7.635 -2.0796  0.2637 -0.7615
 5719TIP3   OH238791   4.996   2.937   7.576  0.2955 -0.0448  0.4127
 5719TIP3    H138792   5.076   2.974   7.538 -0.6352  0.4726 -1.1358
 5719TIP3    H238793   4.951   2.896   7.502 -0.7622 -0.5220  1.3009
 5720TIP3   OH238794   4.359   0.855   8.390 -0.2418 -0.0390  0.0199
 5720TIP3    H138795   4.450   0.868   8.417 -0.4755  3.5721 -0.4028
 5720TIP3    H238796   4.314   0.934   8.420 -3.0843 -1.3153 -0.5502
 5721TIP3   OH238797   4.459   1.855   8.116 -0.2756  0.2421  0.7591
 5721TIP3    H138798   4.454   1.846   8.021 -0.5776 -1.5723  0.9011
 5721TIP3    H238799   4.437   1.946   8.133 -0.6912  0.4834 -0.8699
 5722TIP3   OH238800   2.849   3.273   8.673 -0.0108  0.2026 -0.6851
 5722TIP3    H138801   2.919   3.210   8.653  0.2415  0.1383  0.3232
 5722TIP3    H238802   2.852   3.336   8.602  1.7641  0.7804 -0.1637
 5723TIP3   OH238803   3.390   4.453   2.530  0.0415 -0.1819  0.3225
 5723TIP3    H138804   3.399   4.492   2.443 -0.0091 -0.4443  0.1966
 5723TIP3    H238805   3.449   4.504   2.586  1.1104 -0.8629 -0.1530
 5724TIP3   OH238806   3.393   5.935   2.453  0.9794 -0.4325 -0.2712
 5724TIP3    H138807   3.397   5.845   2.484 -0.6917 -0.0135  1.2850
 5724TIP3    H238808   3.451   5.983   2.511 -0.8537  0.0567  1.2544
 5725TIP3   OH238809   0.365   2.033   0.150  0.5267  0.0405 -0.2919
 5725TIP3    H138810   0.314   2.113   0.136  0.6738  0.0332 -0.8753
 5725TIP3    H238811   0.300   1.967   0.174  0.1193 -0.2141 -1.9773
 5726TIP3   OH238812   4.179   3.595   2.615  0.3443 -0.0002  0.1552
 5726TIP3    H138813   4.214   3.618   2.701  0.1892  0.2463  0.1523
 5726TIP3    H238814   4.085   3.609   2.622  0.5955  3.0144 -0.9416
 5727TIP3   OH238815   6.161   0.696   8.549  0.0816  0.4137 -0.3132
 5727TIP3    H138816   6.082   0.715   8.599  0.8066 -1.0676  1.5057
 5727TIP3    H238817   6.182   0.778   8.505 -1.5663  1.2724  0.4238
 5728TIP3   OH238818   5.774   4.137   0.276 -0.4028 -0.2162 -0.5185
 5728TIP3    H138819   5.757   4.231   0.270  3.3233  0.7407  0.9624
 5728TIP3    H238820   5.800   4.111   0.187 -0.6696  0.3570 -0.7627
 5729TIP3   OH238821   6.752   5.162   8.491 -0.2533  0.1668  0.2786
 5729TIP3    H138822   6.715   5.230   8.548  1.1670  0.8475  0.4497
 5729TIP3    H238823   6.726   5.080   8.532  0.2076  0.6456  1.5892
 5730TIP3   OH238824   4.160   5.288   3.290 -0.0446 -0.0663  0.2389
 5730TIP3    H138825   4.209   5.220   3.242 -2.1872 -1.6825  0.2079
 5730TIP3    H238826   4.112   5.335   3.223  0.0752  0.3450  0.4379
 5731TIP3   OH238827   0.249   1.298   0.454  0.7378  0.4207  0.0835
 5731TIP3    H138828   0.276   1.279   0.364 -0.2873  0.2023 -0.1836
 5731TIP3    H238829   0.258   1.215   0.499  2.2911  0.7636  0.4734
 5732TIP3   OH238830   5.804   2.902   1.134 -0.5353  0.5429 -0.0416
 5732TIP3    H138831   5.789   2.961   1.060 -1.3954  1.0223  0.4938
 5732TIP3    H238832   5.831   2.959   1.206  2.4957 -0.1282 -0.5193
 5733TIP3   OH238833   3.390   4.917   0.266 -0.0696 -0.6992 -0.3187
 5733TIP3    H138834   3.439   4.855   0.213  1.7494 -0.2553  0.7671
 5733TIP3    H238835   3.455   4.980   0.296 -1.4514  0.3848  0.5450
 5734TIP3   OH238836   3.898   1.550   1.644 -0.1815 -0.1544 -0.0760
 5734TIP3    H138837   3.952   1.628   1.655  1.4095 -1.4301  1.9602
 5734TIP3    H238838   3.925   1.513   1.560  2.7376 -1.0799  1.1310
 5735TIP3   OH238839   2.751   2.386   1.811 -0.6293 -0.1615  0.3579
 5735TIP3    H138840   2.735   2.452   1.877  0.6793  1.5587 -0.9469
 5735TIP3    H238841   2.743   2.302   1.857 -2.7409  0.8512  1.9608
 5736TIP3   OH238842   1.773   2.774   0.261 -0.3400 -0.4052 -0.0999
 5736TIP3    H138843   1.759   2.706   0.327  0.2236 -0.0185  0.4405
 5736TIP3    H238844   1.694   2.827   0.264  0.4071  0.6892  1.6011
 5737TIP3   OH238845   6.016   1.520   2.876  0.1699 -0.3821  0.4623
 5737TIP3    H138846   6.064   1.450   2.920 -1.1299 -0.2160  2.2569
 5737TIP3    H238847   5.955   1.552   2.942 -1.2308  0.5450 -1.1983
 5738TIP3   OH238848   0.658   6.593   0.091 -0.3012  0.4678  0.1845
 5738TIP3    H138849   0.728   6.528   0.095  1.3332  1.9141 -2.0561
 5738TIP3    H238850   0.585   6.553   0.138  1.2917 -2.0642  0.7102
 5739TIP3   OH238851   0.863   5.441   1.221  0.2359 -0.7082 -0.0062
 5739TIP3    H138852   0.954   5.464   1.238  0.0466  2.6194 -2.5080
 5739TIP3    H238853   0.814   5.479   1.294  0.6779 -0.7858  0.3291
 5740TIP3   OH238854   0.448   4.192   2.106 -0.6861  0.6280 -0.3071
 5740TIP3    H138855   0.369   4.146   2.076 -0.7741  0.3593  0.3158
 5740TIP3    H238856   0.512   4.180   2.036 -0.8866  0.0246 -0.3856
 5741TIP3   OH238857   1.320   5.237   2.411  0.2004  0.3923  0.9240
 5741TIP3    H138858   1.288   5.154   2.448 -0.1389 -0.4270 -1.0733
 5741TIP3    H238859   1.245   5.296   2.416  0.4083  0.5708  2.2543
 5742TIP3   OH238860   5.384   4.717   2.032  0.4893 -0.7829 -0.1385
 5742TIP3    H138861   5.339   4.705   1.948 -0.6359 -0.2696  0.3683
 5742TIP3    H238862   5.407   4.629   2.060 -1.6768 -1.2450  0.3551
 5743TIP3   OH238863   3.957   3.637   0.664 -0.1395 -0.1115  0.0167
 5743TIP3    H138864   3.879   3.596   0.701 -0.8502  1.5002  0.4179
 5743TIP3    H238865   3.973   3.591   0.582 -2.7051  0.7478 -1.0672
 5744TIP3   OH238866   5.500   3.802   0.034 -0.2223  0.4128 -0.4237
 5744TIP3    H138867   5.467   3.876   0.084 -0.1089 -0.3118  0.7572
 5744TIP3    H238868   5.493   3.727   0.094  1.2904 -0.2111 -0.9862
 5745TIP3   OH238869   3.838   3.934   1.040 -0.5019 -0.5979 -0.1309
 5745TIP3    H138870   3.795   3.983   0.970  0.6127 -0.6142 -0.8530
 5745TIP3    H238871   3.877   3.859   0.997 -0.6280 -1.1467  0.6807
 5746TIP3   OH238872   2.913   4.754   0.200  0.0735 -0.2559  0.5121
 5746TIP3    H138873   2.851   4.826   0.210  0.7153  0.6952 -1.7619
 5746TIP3    H238874   2.998   4.791   0.224  0.3636 -0.3076 -0.3843
 5747TIP3   OH238875   3.861   0.552   0.977 -0.4005 -0.3316  0.7009
 5747TIP3    H138876   3.831   0.473   1.021 -1.5858  0.4378  1.3393
 5747TIP3    H238877   3.936   0.524   0.924 -0.4650 -1.7539  1.3313
 5748TIP3   OH238878   0.004   4.421   8.586 -0.2112  0.2035  0.6759
 5748TIP3    H138879   0.095   4.452   8.587 -0.2000  0.2908 -0.8450
 5748TIP3    H238880  -0.025   4.429   8.677  0.6437  2.1879  0.8276
 5749TIP3   OH238881   4.569   0.968   8.060 -0.7431 -0.2275  0.6555
 5749TIP3    H138882   4.556   0.874   8.069  0.8345 -0.6190 -0.7542
 5749TIP3    H238883   4.623   0.993   8.136  0.8753 -0.9329 -0.2283
 5750TIP3   OH238884   2.290   2.611   1.465  0.6414  0.0003  0.1550
 5750TIP3    H138885   2.262   2.535   1.415  1.9747 -0.9373  0.7785
 5750TIP3    H238886   2.383   2.596   1.483  0.5521  0.9883  1.6601
 5751TIP3   OH238887   4.808   4.292   0.482 -0.0872 -0.5892  0.2877
 5751TIP3    H138888   4.828   4.252   0.566 -0.3778  1.4978  1.4149
 5751TIP3    H238889   4.728   4.343   0.498  0.3708  0.5920 -0.9781
 5752TIP3   OH238890   5.586   6.531   0.073 -0.1283  0.3936 -0.4115
 5752TIP3    H138891   5.551   6.581  -0.001 -2.3457 -0.9232 -0.3333
 5752TIP3    H238892   5.592   6.594   0.145  1.2262  1.4859 -1.4319
 5753TIP3   OH238893   3.333   4.088   2.572  0.1485  0.3060  0.1863
 5753TIP3    H138894   3.328   4.018   2.636  0.5393  0.2173  0.1204
 5753TIP3    H238895   3.372   4.048   2.494  0.1341  0.5309  0.0602
 5754TIP3   OH238896   3.125   2.946   8.344 -0.5091 -0.0763 -0.0790
 5754TIP3    H138897   3.159   2.873   8.293  0.4399 -0.4156  1.0061
 5754TIP3    H238898   3.162   3.024   8.301 -0.4778 -0.2961 -0.4549
 5755TIP3   OH238899   1.391   3.490   2.243 -0.4840  0.0186 -0.2378
 5755TIP3    H138900   1.426   3.515   2.158  0.8511 -2.7141 -0.5940
 5755TIP3    H238901   1.296   3.488   2.231 -0.2498 -2.3236 -2.3344
 5756TIP3   OH238902   3.314   6.414   6.796  0.3583  0.1219 -0.1148
 5756TIP3    H138903   3.388   6.408   6.735 -0.6174  0.2429 -1.3335
 5756TIP3    H238904   3.340   6.483   6.857  1.7330 -0.6040  0.1758
 5757TIP3   OH238905   3.019   5.259   2.292  0.1030  0.0416 -0.1318
 5757TIP3    H138906   2.938   5.291   2.254 -0.6320 -0.9982  0.5026
 5757TIP3    H238907   3.035   5.316   2.367 -0.7483 -0.5353  0.5033
 5758TIP3   OH238908   6.785   2.239   2.301  0.3475  0.2182 -0.0341
 5758TIP3    H138909   6.779   2.297   2.225  0.5534  0.4227  0.1068
 5758TIP3    H238910   6.879   2.229   2.317  0.3024  0.3348  0.3148
 5759TIP3   OH238911   4.698   2.382   1.467  0.0216  0.1340 -0.3030
 5759TIP3    H138912   4.683   2.463   1.418  0.0482  0.0563 -0.4391
 5759TIP3    H238913   4.784   2.353   1.439  0.5005  0.6519  0.5749
 5760TIP3   OH238914   0.951   1.480   2.569 -0.3785  0.5022 -0.1319
 5760TIP3    H138915   0.960   1.398   2.617 -1.9375  0.3225 -0.0814
 5760TIP3    H238916   1.041   1.509   2.552  0.2050 -1.4252 -0.5408
 5761TIP3   OH238917   3.366   5.306   1.665  0.4215 -0.8605 -0.6821
 5761TIP3    H138918   3.322   5.364   1.603  2.8515  1.7561 -0.1388
 5761TIP3    H238919   3.435   5.264   1.613  1.5578  0.2568 -0.1080
 5762TIP3   OH238920   6.252   4.130   0.561  0.3788 -0.8704 -0.4183
 5762TIP3    H138921   6.296   4.069   0.502  1.0913 -1.1374  0.3678
 5762TIP3    H238922   6.177   4.081   0.595  1.0499 -1.3970  0.3490
 5763TIP3   OH238923   1.523   4.085   0.306 -0.4492  0.2737 -0.1305
 5763TIP3    H138924   1.516   4.136   0.225 -2.7211  0.1525 -0.0668
 5763TIP3    H238925   1.569   4.144   0.366  0.8135  0.5606 -1.3312
 5764TIP3   OH238926   1.382   5.590   8.637  0.2827 -0.0857  0.1160
 5764TIP3    H138927   1.417   5.666   8.683 -1.3649  0.2590  0.9002
 5764TIP3    H238928   1.395   5.609   8.544  2.0107  0.0511  0.3581
 5765TIP3   OH238929   6.529   0.872   2.984 -0.2239  0.2124  0.2988
 5765TIP3    H138930   6.525   0.847   2.891  0.7415 -0.9726  0.5565
 5765TIP3    H238931   6.604   0.931   2.989 -0.1990  0.1755  0.3525
 5766TIP3   OH238932   1.969   1.360   8.372  0.8232  0.1590  0.3271
 5766TIP3    H138933   1.951   1.267   8.356 -0.0868  0.3891 -0.0166
 5766TIP3    H238934   2.027   1.360   8.448  0.8851 -0.6981  0.2849
 5767TIP3   OH238935   2.806   5.771   1.646  0.5898 -0.3565 -0.2475
 5767TIP3    H138936   2.861   5.834   1.599  1.3426 -1.1899 -0.5247
 5767TIP3    H238937   2.843   5.769   1.735  0.2567 -0.0612 -0.0971
 5768TIP3   OH238938   6.357   4.115   1.288 -0.5600 -0.6486  0.5615
 5768TIP3    H138939   6.398   4.064   1.218 -3.4650 -0.0732 -1.7635
 5768TIP3    H238940   6.284   4.160   1.245 -2.1528  0.2345  3.8682
 5769TIP3   OH238941   1.270   5.014   1.230  0.0358 -0.2278 -0.2871
 5769TIP3    H138942   1.256   5.098   1.274 -0.0565  0.2040 -1.1062
 5769TIP3    H238943   1.253   5.033   1.137  0.2630 -1.0943 -0.5162
 5770TIP3   OH238944   0.436   3.148   8.139 -0.7048 -0.8128 -0.5172
 5770TIP3    H138945   0.462   3.057   8.130  0.0138 -0.7169  0.3459
 5770TIP3    H238946   0.357   3.145   8.193 -0.9979 -0.9525 -0.9498
 5771TIP3   OH238947   6.486   5.544   0.361  0.1467  0.2756 -0.1329
 5771TIP3    H138948   6.543   5.549   0.438 -0.8474  2.4422  0.5510
 5771TIP3    H238949   6.504   5.625   0.314 -0.7001 -0.0983 -1.1220
 5772TIP3   OH238950   4.982   6.843   0.167 -0.1582 -0.2262  0.1173
 5772TIP3    H138951   4.991   6.866   0.075  1.9665  0.9637  0.5634
 5772TIP3    H238952   4.948   6.753   0.166  0.2625 -0.3972 -1.8131
 5773TIP3   OH238953   3.316   6.431   7.627 -0.5602  0.2451  0.1125
 5773TIP3    H138954   3.357   6.471   7.704  0.1348 -0.6760  0.2385
 5773TIP3    H238955   3.270   6.503   7.584  0.4000  1.1139  0.5080
 5774TIP3   OH238956   1.657   4.185   1.810  0.0652  0.0287  0.1659
 5774TIP3    H138957   1.634   4.095   1.833 -0.5042  0.0507 -0.2851
 5774TIP3    H238958   1.617   4.199   1.724  0.0369  0.7549  0.2882
 5775TIP3   OH238959   4.827   2.382   1.727 -0.0272  0.1533 -0.1954
 5775TIP3    H138960   4.873   2.463   1.708 -0.2308  0.2412 -0.3168
 5775TIP3    H238961   4.765   2.372   1.655 -0.6252  0.3539  0.2790
 5776TIP3   OH238962   1.644   6.571   8.053  0.6127  0.1589  0.2805
 5776TIP3    H138963   1.658   6.492   8.000  0.2490  0.2856 -0.0167
 5776TIP3    H238964   1.650   6.541   8.143  2.5291  0.1724  0.1916
 5777TIP3   OH238965   5.368   3.472   8.468  0.0652 -0.2001  0.5808
 5777TIP3    H138966   5.448   3.510   8.432  0.3830 -0.7307  0.7037
 5777TIP3    H238967   5.328   3.424   8.395  1.1673 -2.0119  1.1040
 5778TIP3   OH238968   2.528   2.533   1.234  0.1486  0.5227 -0.4008
 5778TIP3    H138969   2.577   2.498   1.309  1.1311  0.0744 -1.2373
 5778TIP3    H238970   2.572   2.616   1.214 -1.7269  1.9792  1.1197
 5779TIP3   OH238971   4.967   0.832   2.139  0.2442 -0.3517 -0.1446
 5779TIP3    H138972   4.881   0.874   2.138  1.0653  1.4344 -0.1034
 5779TIP3    H238973   4.948   0.738   2.145 -1.6924 -0.0496 -0.7880
 5780TIP3   OH238974   5.118   4.144   0.921  0.4136  0.1699  0.8902
 5780TIP3    H138975   5.160   4.123   1.004 -0.9940 -1.3241  1.2913
 5780TIP3    H238976   5.061   4.069   0.903  0.1426  0.7723 -1.0804
 5781TIP3   OH238977   4.687   2.655   0.361  0.4687  0.1276 -0.4354
 5781TIP3    H138978   4.721   2.741   0.386 -0.3868  0.1060  0.8490
 5781TIP3    H238979   4.756   2.618   0.304  2.1157  0.5410  1.1924
 5782TIP3   OH238980   2.726   3.800   1.829 -0.2324 -0.6297 -0.5004
 5782TIP3    H138981   2.717   3.894   1.815  0.0201 -0.6665 -0.9433
 5782TIP3    H238982   2.733   3.790   1.924 -0.3412 -0.2123 -0.4457
 5783TIP3   OH238983   6.207   4.723   2.035  0.1651  0.2688 -0.3750
 5783TIP3    H138984   6.167   4.660   2.095  1.1611  0.6021  0.6872
 5783TIP3    H238985   6.232   4.796   2.091  0.4189  0.9451 -1.3415
 5784TIP3   OH238986   5.816   1.790   8.177  0.7698 -0.5417 -0.3635
 5784TIP3    H138987   5.811   1.729   8.250 -1.7532  0.8783  0.7949
 5784TIP3    H238988   5.895   1.841   8.193  0.7973 -0.9373  0.8084
 5785TIP3   OH238989   6.524   4.712   8.244  0.4363  0.3075 -0.3865
 5785TIP3    H138990   6.612   4.724   8.279 -0.3715  1.0892  1.5021
 5785TIP3    H238991   6.527   4.755   8.158  1.7158  0.9241 -0.0644
 5786TIP3   OH238992   6.517   1.441   0.808 -0.0257 -0.2858 -0.6144
 5786TIP3    H138993   6.499   1.349   0.827  0.2706 -0.1285  0.5019
 5786TIP3    H238994   6.474   1.457   0.724  0.1407 -1.5051 -0.9412
 5787TIP3   OH238995   2.582   5.819   7.064  0.1103 -0.7056 -0.5376
 5787TIP3    H138996   2.653   5.856   7.012 -0.0468 -0.5900 -0.6685
 5787TIP3    H238997   2.572   5.880   7.138  0.4017 -0.9242 -0.3151
 5788TIP3   OH238998   3.249   6.266   1.790  0.3648  0.3861 -0.1839
 5788TIP3    H138999   3.283   6.231   1.873 -0.6235 -1.0171 -0.3283
 5788TIP3    H239000   3.187   6.334   1.815 -1.7938 -1.6762  0.4094
 5789TIP3   OH239001   0.834   4.088   1.400  0.1312 -0.3748 -0.2242
 5789TIP3    H139002   0.902   4.141   1.357  0.7903 -0.4575  0.6985
 5789TIP3    H239003   0.859   3.998   1.381 -0.6353 -0.3969 -1.2475
 5790TIP3   OH239004   5.999   1.088   2.251  0.0543 -0.2477  0.3738
 5790TIP3    H139005   6.010   1.042   2.334 -3.5340 -1.0674  0.5663
 5790TIP3    H239006   5.911   1.065   2.223  1.3408 -0.5215 -4.0620
 5791TIP3   OH239007   4.227   5.833   7.271  0.0242 -0.5720  0.2963
 5791TIP3    H139008   4.261   5.745   7.251 -0.7150 -1.1674  1.5582
 5791TIP3    H239009   4.267   5.855   7.355 -0.5079 -0.0845  0.4222
 5792TIP3   OH239010   2.258   0.634   8.251 -0.8368  0.2141  0.6745
 5792TIP3    H139011   2.164   0.647   8.264 -1.1582  0.5784 -1.6419
 5792TIP3    H239012   2.268   0.539   8.243 -0.9915  0.1769  0.8908
 5793TIP3   OH239013   2.772   3.118   8.216 -0.4557  0.1568  0.5175
 5793TIP3    H139014   2.818   3.199   8.195 -0.8534  0.0044 -1.0492
 5793TIP3    H239015   2.825   3.049   8.176 -1.6101 -0.0865 -0.6598
 5794TIP3   OH239016   3.447   4.304   8.132  0.3639  0.4437  0.3610
 5794TIP3    H139017   3.446   4.271   8.222 -2.2274 -0.9508 -0.0730
 5794TIP3    H239018   3.377   4.369   8.130  0.2915  0.3456 -0.6788
 5795TIP3   OH239019   4.327   3.202   2.082 -0.5105 -0.0979 -0.2564
 5795TIP3    H139020   4.274   3.145   2.027 -0.0418  0.5787 -1.4597
 5795TIP3    H239021   4.267   3.274   2.106 -0.7998 -0.5445  0.3761
 5796TIP3   OH239022   6.385   3.805   3.146 -0.2631 -0.2579  0.0020
 5796TIP3    H139023   6.320   3.806   3.076 -0.5729  0.9436  0.2806
 5796TIP3    H239024   6.334   3.808   3.227  0.1249  0.4815  0.2256
 5797TIP3   OH239025   0.695   2.499   0.338  0.3708  0.3175  0.0856
 5797TIP3    H139026   0.776   2.532   0.299  0.1896 -0.4350 -0.9414
 5797TIP3    H239027   0.653   2.578   0.375  1.0357  0.8783 -0.3288
 5798TIP3   OH239028   6.589   5.551   2.243  0.2100 -0.9570 -0.1121
 5798TIP3    H139029   6.631   5.633   2.216 -1.9415  0.5715  0.8768
 5798TIP3    H239030   6.517   5.540   2.182  0.4650 -2.1678 -0.2310
 5799TIP3   OH239031   4.064   6.071   1.351  0.0537  0.1556  0.1938
 5799TIP3    H139032   3.974   6.041   1.358  0.0129  0.5165  1.4300
 5799TIP3    H239033   4.082   6.115   1.434  0.9747  1.1665 -0.4931
 5800TIP3   OH239034   3.003   4.605   1.893  1.0342 -0.5188  0.4354
 5800TIP3    H139035   3.090   4.623   1.929  2.8431 -2.4209 -2.5336
 5800TIP3    H239036   2.996   4.662   1.816  0.2668 -1.3511 -0.1426
 5801TIP3   OH239037   5.690   2.094   2.725 -0.2945  0.3337  0.0761
 5801TIP3    H139038   5.724   2.139   2.802 -0.6207 -0.8164  0.9292
 5801TIP3    H239039   5.633   2.158   2.682 -0.9988  0.6525  1.4285
 5802TIP3   OH239040   2.451   1.070   1.560 -0.1444 -0.2267 -0.1425
 5802TIP3    H139041   2.460   1.061   1.465  0.4363  0.7933 -0.1924
 5802TIP3    H239042   2.527   1.121   1.587 -2.0407  2.5794  0.3751
 5803TIP3   OH239043   2.985   3.765   7.882 -0.6406 -0.1077  0.0512
 5803TIP3    H139044   2.908   3.815   7.856  1.8523  3.8445 -0.6217
 5803TIP3    H239045   2.981   3.685   7.828 -4.5071 -0.4972  0.6430
 5804TIP3   OH239046   3.495   5.406   8.077 -0.0791  0.5528 -0.4126
 5804TIP3    H139047   3.553   5.481   8.070  3.2819 -1.7435  0.6598
 5804TIP3    H239048   3.487   5.391   8.171  1.4707 -1.8636 -0.5911
 5805TIP3   OH239049   0.699   4.464   0.292  0.5811 -0.2037  0.5699
 5805TIP3    H139050   0.605   4.456   0.272  0.7734 -0.2028 -0.3980
 5805TIP3    H239051   0.707   4.433   0.382 -0.1866 -1.3034  0.2845
 5806TIP3   OH239052   2.416   1.376   7.649 -0.3308  0.0710 -0.2310
 5806TIP3    H139053   2.489   1.437   7.639 -1.5775  1.4375 -1.6164
 5806TIP3    H239054   2.417   1.325   7.568  0.1967 -1.2305  0.5644
 5807TIP3   OH239055   5.079   4.360   1.708  0.0712 -0.3084 -0.0605
 5807TIP3    H139056   5.000   4.394   1.666  0.4924  1.6319  0.6143
 5807TIP3    H239057   5.149   4.418   1.677  1.3386 -2.1646 -0.8876
 5808TIP3   OH239058   5.794   5.937   2.096 -0.1357  0.0431 -0.0996
 5808TIP3    H139059   5.716   5.896   2.059  0.3163 -2.1733  1.1842
 5808TIP3    H239060   5.839   5.977   2.022 -2.7999  2.0435 -0.7712
 5809TIP3   OH239061   3.666   2.940   2.239  0.2136  0.0046 -0.7816
 5809TIP3    H139062   3.580   2.925   2.279  0.7081  1.0930  0.8115
 5809TIP3    H239063   3.647   2.964   2.149 -1.0215 -1.5564 -0.9903
 5810TIP3   OH239064   5.417   1.134   1.984  0.1801  0.0549 -0.2736
 5810TIP3    H139065   5.334   1.147   1.938 -1.4146  0.8925  2.5648
 5810TIP3    H239066   5.420   1.040   2.002  0.0485 -0.0383 -0.7312
 5811TIP3   OH239067   1.652   3.254   2.535 -0.2541  0.5954 -0.5054
 5811TIP3    H139068   1.665   3.238   2.629 -0.6685  0.1574 -0.5190
 5811TIP3    H239069   1.579   3.316   2.532 -0.9816 -0.2611 -0.5763
 5812TIP3   OH239070   2.388   3.362   8.192  0.0369 -0.2390  0.5299
 5812TIP3    H139071   2.442   3.435   8.221  0.8915 -0.6499 -0.0069
 5812TIP3    H239072   2.376   3.376   8.098 -0.3323 -0.4390  0.5439
 5813TIP3   OH239073   1.700   6.453   1.193 -0.5062 -0.0535 -0.0722
 5813TIP3    H139074   1.752   6.507   1.134 -0.0413 -1.1141 -0.6670
 5813TIP3    H239075   1.616   6.444   1.149 -1.2572  1.7102  0.9176
 5814TIP3   OH239076   1.144   4.454   7.514  0.2309 -0.2653 -0.3622
 5814TIP3    H139077   1.176   4.425   7.600  0.5190 -1.4583 -0.8496
 5814TIP3    H239078   1.129   4.373   7.465  2.0766  0.3737 -2.1557
 5815TIP3   OH239079   4.617   5.428   1.264 -0.1282  0.2204 -0.2461
 5815TIP3    H139080   4.605   5.515   1.302  1.9881  1.1650 -1.5249
 5815TIP3    H239081   4.650   5.375   1.337 -0.2446  0.8192  0.2518
 5816TIP3   OH239082   3.687   3.451   8.188 -0.2351  0.0310 -0.5909
 5816TIP3    H139083   3.753   3.439   8.256 -0.8209  1.5422  0.2899
 5816TIP3    H239084   3.610   3.405   8.220 -0.3760  0.3767 -0.4282
 5817TIP3   OH239085   0.382   0.752   7.139 -0.7226  0.1430  0.2897
 5817TIP3    H139086   0.474   0.728   7.139 -1.0403 -1.2449  1.5282
 5817TIP3    H239087   0.353   0.738   7.049  0.4283  1.3088 -0.2794
 5818TIP3   OH239088   2.365   0.283   8.725  0.0494  0.0828 -0.3251
 5818TIP3    H139089   2.396   0.310   8.639 -0.0617  0.0268 -0.3840
 5818TIP3    H239090   2.291   0.342   8.743  0.0898  0.1119 -0.2567
 5819TIP3   OH239091   5.424   6.543   7.816  0.3207  0.4275 -0.7850
 5819TIP3    H139092   5.414   6.482   7.743  2.8207 -1.6504  0.4431
 5819TIP3    H239093   5.384   6.499   7.891 -1.1265  1.9974 -0.5671
 5820TIP3   OH239094   3.886   5.113   3.057  0.1069 -0.3220  0.0334
 5820TIP3    H139095   3.944   5.039   3.076  0.8381  0.4558  0.9342
 5820TIP3    H239096   3.799   5.074   3.050  0.5775 -1.3610 -0.1959
 5821TIP3   OH239097   2.369   5.079   6.681 -0.4301 -0.3269  0.6095
 5821TIP3    H139098   2.413   5.075   6.596 -1.4404 -2.9601  0.0934
 5821TIP3    H239099   2.383   5.168   6.712  2.5303 -0.1296 -0.9278
 5822TIP3   OH239100   2.344   3.030   2.663 -0.0803 -0.3677  0.3930
 5822TIP3    H139101   2.426   3.079   2.676  0.0499 -0.1533 -1.0553
 5822TIP3    H239102   2.279   3.096   2.640 -0.0321 -0.7721 -1.0317
 5823TIP3   OH239103   6.447   0.952   7.911  0.0009 -0.1910 -0.2001
 5823TIP3    H139104   6.471   1.029   7.859  0.3895  0.7131  1.2723
 5823TIP3    H239105   6.389   0.902   7.854  0.6388  0.6189 -1.6055
 5824TIP3   OH239106   4.223   5.482   1.824 -0.9279 -0.9629  0.2073
 5824TIP3    H139107   4.214   5.495   1.918 -0.4904 -0.7332  0.2203
 5824TIP3    H239108   4.188   5.394   1.808  1.3897 -2.0976  0.9665
 5825TIP3   OH239109   3.490   5.567   0.139  0.4762  0.2106  0.2382
 5825TIP3    H139110   3.459   5.639   0.195 -0.9764  0.1028 -0.3847
 5825TIP3    H239111   3.488   5.491   0.197  1.1523  0.5033  0.6559
 5826TIP3   OH239112   0.248   6.248   1.406  0.2895  0.1093 -0.5079
 5826TIP3    H139113   0.169   6.219   1.361 -0.3281 -0.4103  0.8377
 5826TIP3    H239114   0.218   6.311   1.471  0.6321 -1.5081  1.3615
 5827TIP3   OH239115   4.690   0.039   2.297 -0.7144  0.0071 -0.0791
 5827TIP3    H139116   4.784   0.056   2.287 -1.0274  1.1757 -1.1960
 5827TIP3    H239117   4.663   0.098   2.367 -0.8896  0.7317 -0.7504
 5828TIP3   OH239118   4.304   6.370   0.459  0.2219  0.2766  0.1049
 5828TIP3    H139119   4.291   6.325   0.543 -0.4546  0.9976  0.3932
 5828TIP3    H239120   4.398   6.360   0.442  0.3326 -0.0590  0.8386
 5829TIP3   OH239121   0.760   4.762   2.860 -0.3020 -0.2150 -0.1249
 5829TIP3    H139122   0.735   4.852   2.877  0.2374 -0.2021  0.6657
 5829TIP3    H239123   0.848   4.768   2.822 -0.1309 -0.4127  0.2269
 5830TIP3   OH239124   3.973   6.305   1.849  0.6744  0.3192  0.1757
 5830TIP3    H139125   3.892   6.353   1.835 -0.9626 -1.6314  2.2427
 5830TIP3    H239126   4.034   6.341   1.785 -1.5554  2.4134 -0.9101
 5831TIP3   OH239127   6.660   4.345   1.665 -0.3400 -0.1819 -0.2191
 5831TIP3    H139128   6.693   4.294   1.591  1.1523 -1.5851  1.3198
 5831TIP3    H239129   6.576   4.380   1.635 -0.0434 -1.1495 -2.3599
 5832TIP3   OH239130   3.385   4.133   1.456 -0.2747  0.4655  0.1679
 5832TIP3    H139131   3.410   4.223   1.478 -0.6104  0.6492 -0.1779
 5832TIP3    H239132   3.457   4.101   1.401  0.3472  0.1554  1.1413
 5833TIP3   OH239133   0.732   3.612   1.518 -0.1265 -0.2641  0.2873
 5833TIP3    H139134   0.792   3.548   1.480 -1.7027 -1.9514  0.5390
 5833TIP3    H239135   0.650   3.600   1.472  0.2898  3.9793 -2.1230
 5834TIP3   OH239136   3.215   1.039   0.496 -0.4556  0.0856  0.2172
 5834TIP3    H139137   3.227   1.122   0.542 -0.3534 -0.5432  1.3730
 5834TIP3    H239138   3.121   1.024   0.497 -0.7677  1.3755 -2.2285
 5835TIP3   OH239139   5.089   1.943   0.010  0.4274 -0.0304 -0.2282
 5835TIP3    H139140   5.168   1.978   0.050 -0.2192  0.3064  0.7807
 5835TIP3    H239141   5.044   2.019  -0.026 -0.5686  0.1210  1.2423
 5836TIP3   OH239142   2.396   0.175   0.230 -0.2014  0.4572  0.4572
 5836TIP3    H139143   2.409   0.215   0.144 -0.5960  0.1387  0.2477
 5836TIP3    H239144   2.301   0.165   0.238 -0.1329 -0.0370  0.6872
 5837TIP3   OH239145   2.751   2.046   0.608 -0.6976 -0.5499  0.5636
 5837TIP3    H139146   2.665   2.079   0.584  0.4473  1.2552 -1.4848
 5837TIP3    H239147   2.743   1.951   0.607 -2.9322 -0.4223  1.6809
 5838TIP3   OH239148   0.842   0.886   0.390 -0.6059  0.7959 -0.3263
 5838TIP3    H139149   0.830   0.805   0.341 -0.8918  1.8856 -2.1251
 5838TIP3    H239150   0.808   0.866   0.478  2.6377 -2.1294  0.4906
 5839TIP3   OH239151   0.228   4.885   8.006 -0.2609  0.3971  0.2593
 5839TIP3    H139152   0.261   4.913   7.920  0.7804  0.1835  0.5787
 5839TIP3    H239153   0.146   4.932   8.016  0.4496  1.7707 -0.1140
 5840TIP3   OH239154   1.217   1.919   2.487  0.0019 -0.1373  0.1006
 5840TIP3    H139155   1.241   1.992   2.543  0.0665  0.4802 -0.7233
 5840TIP3    H239156   1.154   1.955   2.424 -0.8715 -1.0570  0.4126
 5841TIP3   OH239157   6.469   2.896   3.290  0.5873 -0.2730 -0.2601
 5841TIP3    H139158   6.476   2.801   3.297  0.5919 -0.2305  0.3960
 5841TIP3    H239159   6.375   2.913   3.288  0.5868 -0.2894 -0.4365
 5842TIP3   OH239160   5.673   2.407   0.219  0.5655  0.0888 -0.4329
 5842TIP3    H139161   5.669   2.380   0.311 -2.2684 -0.2384 -0.5789
 5842TIP3    H239162   5.694   2.501   0.223 -2.5802  0.8625  0.7971
 5843TIP3   OH239163   2.723   5.836   8.006  0.0869  0.4664  0.1796
 5843TIP3    H139164   2.726   5.800   8.095  2.9462  1.1509  0.4529
 5843TIP3    H239165   2.745   5.929   8.017  0.5100  0.5564 -1.2511
 5844TIP3   OH239166   4.855   0.557   1.575 -0.2378 -0.3032 -0.8462
 5844TIP3    H139167   4.786   0.503   1.613 -2.2955  1.0749 -2.4082
 5844TIP3    H239168   4.926   0.554   1.639 -2.0858 -1.0409  1.2893
 5845TIP3   OH239169   1.984   3.035   0.685  0.2499 -0.3681 -0.3379
 5845TIP3    H139170   2.053   3.050   0.620  0.2356 -0.5015 -0.3852
 5845TIP3    H239171   1.934   2.961   0.649 -0.0587 -0.1208 -0.4184
 5846TIP3   OH239172   3.049   5.060   8.413  0.2316 -0.1835 -0.0346
 5846TIP3    H139173   3.032   4.999   8.342 -1.3976  1.3582 -1.0676
 5846TIP3    H239174   3.124   5.112   8.382  0.0418 -0.0447 -0.2626
 5847TIP3   OH239175   0.133   1.908   0.185 -0.0397  0.4526 -0.0499
 5847TIP3    H139176   0.123   1.853   0.263  0.4499  0.5702  0.1022
 5847TIP3    H239177   0.052   1.960   0.181 -0.4508 -0.1884 -0.1297
 5848TIP3   OH239178   3.000   1.838   1.835  0.2856 -0.0050  0.0129
 5848TIP3    H139179   3.007   1.873   1.924  0.8638 -0.9781  0.3574
 5848TIP3    H239180   3.035   1.909   1.780  0.8898  0.2129  0.6488
 5849TIP3   OH239181   1.666   3.436   7.510 -0.1998 -0.3047  0.6894
 5849TIP3    H139182   1.730   3.447   7.439  0.0863 -0.3967  0.9293
 5849TIP3    H239183   1.592   3.490   7.483  0.9448  1.8190  1.5660
 5850TIP3   OH239184   5.085   5.304   1.728 -0.5997 -0.2009 -0.6001
 5850TIP3    H139185   5.007   5.359   1.739 -0.3465 -0.2480  1.9416
 5850TIP3    H239186   5.129   5.340   1.651 -1.5182  1.8389 -0.2457
 5851TIP3   OH239187   2.504   2.951   1.428 -0.3017  0.2530  0.2949
 5851TIP3    H139188   2.570   2.884   1.411  1.3663  1.5854  1.1668
 5851TIP3    H239189   2.487   2.945   1.522 -0.9626  0.3358  0.1867
 5852TIP3   OH239190   1.143   5.333   2.757  0.1599  0.0905 -0.1060
 5852TIP3    H139191   1.227   5.372   2.781  0.1475  0.0259  0.0418
 5852TIP3    H239192   1.166   5.247   2.724  0.0116 -0.6241  1.5650
 5853TIP3   OH239193   5.498   6.811   8.267  0.0368  0.0792 -0.8853
 5853TIP3    H139194   5.439   6.747   8.308 -1.4344  1.2225 -1.1156
 5853TIP3    H239195   5.510   6.778   8.178 -0.3471 -0.1178 -0.8676
 5854TIP3   OH239196   1.688   3.419   1.007  0.9245 -0.0530  0.2723
 5854TIP3    H139197   1.633   3.341   1.018  1.1591  0.1291  4.4996
 5854TIP3    H239198   1.637   3.490   1.046  2.2657  1.1098 -0.0125
 5855TIP3   OH239199   0.956   4.645   6.889 -0.2006 -0.2493  0.3534
 5855TIP3    H139200   1.034   4.636   6.833  0.5393 -0.8064  1.4290
 5855TIP3    H239201   0.894   4.581   6.855  0.5040 -1.0698  0.5652
 5856TIP3   OH239202   5.615   2.908   2.780  0.3914 -0.2829  0.4057
 5856TIP3    H139203   5.668   2.947   2.850 -0.7358  0.5252  0.8463
 5856TIP3    H239204   5.609   2.816   2.802 -0.2796  0.0342  1.6157
 5857TIP3   OH239205   0.582   4.137   1.529  0.1086 -0.2291  0.5502
 5857TIP3    H139206   0.549   4.053   1.560  2.7369 -1.0443  1.4054
 5857TIP3    H239207   0.654   4.115   1.470 -1.7045  1.4146 -2.5764
 5858TIP3   OH239208   2.602   1.107   1.314 -0.2310 -0.0643 -0.2345
 5858TIP3    H139209   2.554   1.190   1.311  0.0846  0.1019 -0.7150
 5858TIP3    H239210   2.594   1.071   1.226  0.6347  0.0329 -0.3600
 5859TIP3   OH239211   1.266   2.119   1.589  0.5843  0.3547 -0.4528
 5859TIP3    H139212   1.269   2.195   1.531  1.3662 -1.0420 -2.3678
 5859TIP3    H239213   1.203   2.060   1.548 -1.4088  0.6528  1.9851
 5860TIP3   OH239214   2.269   3.280   7.256  0.0633  0.3349  0.1697
 5860TIP3    H139215   2.181   3.317   7.256 -0.1507 -0.1622 -0.0700
 5860TIP3    H239216   2.297   3.284   7.164 -0.1055 -0.4113  0.0769
 5861TIP3   OH239217   3.593   1.171   0.275 -0.0747  0.0273 -0.1374
 5861TIP3    H139218   3.513   1.222   0.288 -0.3004 -0.3040 -0.2138
 5861TIP3    H239219   3.580   1.126   0.192 -0.0820 -0.5257  0.1567
 5862TIP3   OH239220   2.589   0.568   0.054 -0.0616  0.4996 -0.2394
 5862TIP3    H139221   2.642   0.643   0.079 -0.3489  1.1394 -1.4431
 5862TIP3    H239222   2.556   0.590  -0.034 -0.2900 -0.9579 -0.5529
 5863TIP3   OH239223   0.809   6.682   6.696  0.4226  0.2319  0.4597
 5863TIP3    H139224   0.721   6.694   6.660  0.3610 -0.0411  0.5176
 5863TIP3    H239225   0.817   6.588   6.710  0.9026  0.1981  0.0034
 5864TIP3   OH239226   1.900   3.433   8.433  0.0472  0.3250  0.3843
 5864TIP3    H139227   1.815   3.433   8.389  0.0792  1.0440  0.3184
 5864TIP3    H239228   1.964   3.422   8.362  0.0558  0.6941  0.3333
 5865TIP3   OH239229   2.684   1.170   2.312 -0.0796  0.6503 -0.3340
 5865TIP3    H139230   2.728   1.116   2.377 -0.8028  1.0245  0.4833
 5865TIP3    H239231   2.685   1.117   2.232 -1.0934 -0.7271  0.5338
 5866TIP3   OH239232   1.085   6.016   1.550 -0.3256 -0.2187  0.0662
 5866TIP3    H139233   1.146   6.055   1.613 -1.4071  0.7115  0.5858
 5866TIP3    H239234   1.096   6.069   1.471 -1.9214  1.3440  0.8284
 5867TIP3   OH239235   3.841   2.520   1.888  0.1376  0.0610  0.4884
 5867TIP3    H139236   3.753   2.509   1.924  0.2315  0.6636  0.9016
 5867TIP3    H239237   3.839   2.470   1.806 -0.9788  1.0952 -0.1455
 5868TIP3   OH239238   2.538   3.248   0.659  0.1578  0.2590 -0.2403
 5868TIP3    H139239   2.595   3.299   0.602  0.5384 -0.5897 -0.6462
 5868TIP3    H239240   2.449   3.274   0.635  0.3509  1.2553  0.0749
 5869TIP3   OH239241   2.500   3.422   1.673  0.0621 -0.1183 -0.3312
 5869TIP3    H139242   2.450   3.363   1.729 -0.1858 -0.2836 -0.7234
 5869TIP3    H239243   2.436   3.457   1.611  0.3934 -0.1785 -0.7101
 5870TIP3   OH239244   3.507   3.890   1.375  0.0786  0.3529 -0.3745
 5870TIP3    H139245   3.470   3.846   1.451 -0.0004 -0.2464 -0.7491
 5870TIP3    H239246   3.585   3.840   1.354 -0.2050  0.1711 -1.0218
 5871TIP3   OH239247   3.982   3.174   0.346  0.2940 -0.0372 -0.0420
 5871TIP3    H139248   3.911   3.112   0.331 -0.7061  1.2973 -1.0947
 5871TIP3    H239249   4.061   3.119   0.351 -0.6702 -1.4566  0.1197
 5872TIP3   OH239250   3.970   0.531   2.048  0.1079  0.0141  0.7908
 5872TIP3    H139251   3.918   0.589   1.992 -0.0935 -0.7084  0.2110
 5872TIP3    H239252   3.909   0.499   2.113 -0.0881 -0.5440  0.3349
 5873TIP3   OH239253   3.196   1.435   2.480 -0.1505 -0.5129 -0.8733
 5873TIP3    H139254   3.102   1.416   2.484 -0.3935  0.7522  1.6350
 5873TIP3    H239255   3.235   1.353   2.449 -1.8502 -2.2183  1.1322
 5874TIP3   OH239256   3.360   6.677   1.684  0.2045  0.2735 -0.2014
 5874TIP3    H139257   3.300   6.653   1.613  1.8054  0.1913 -1.5739
 5874TIP3    H239258   3.432   6.723   1.640  0.4316  1.7302  1.5851
 5875TIP3   OH239259   2.465   3.925   8.383  0.0621  0.3511 -0.0067
 5875TIP3    H139260   2.500   4.006   8.346 -0.2532 -0.3461 -1.9356
 5875TIP3    H239261   2.432   3.877   8.308 -1.6233 -0.6904  1.3436
 5876TIP3   OH239262   0.567   0.446   0.207  0.0762 -0.3847  0.3039
 5876TIP3    H139263   0.485   0.468   0.163 -1.7014 -1.5213  2.8160
 5876TIP3    H239264   0.618   0.398   0.141 -2.0124 -1.1628 -0.8423
 5877TIP3   OH239265   2.451   4.511   2.210 -0.2338  0.3387 -0.9421
 5877TIP3    H139266   2.368   4.464   2.219 -0.4235  0.6847 -0.8622
 5877TIP3    H239267   2.493   4.473   2.134  0.2037 -0.8600 -0.1274
 5878TIP3   OH239268   4.792   3.722   2.199  1.0978  0.5912 -0.2084
 5878TIP3    H139269   4.879   3.705   2.235  0.4695 -0.5865  0.8248
 5878TIP3    H239270   4.734   3.661   2.244 -0.3868  1.7680 -0.4117
 5879TIP3   OH239271   3.494   0.011   7.692  0.9302 -0.9992 -0.1347
 5879TIP3    H139272   3.559  -0.036   7.745 -0.1691 -1.4563  0.8399
 5879TIP3    H239273   3.410  -0.012   7.731  0.2787  1.0245 -0.2279
 5880TIP3   OH239274   3.093   6.425   2.208 -0.4087 -0.0014 -0.3231
 5880TIP3    H139275   3.090   6.331   2.188  0.7301  0.3097 -2.2299
 5880TIP3    H239276   3.183   6.451   2.189 -0.1728  1.1518  2.0102
 5881TIP3   OH239277   2.256   3.047   8.137  0.7145 -0.2065 -0.0954
 5881TIP3    H139278   2.173   3.064   8.181  0.5892  0.4595 -0.5865
 5881TIP3    H239279   2.315   3.117   8.168  1.0638 -0.6001  0.1529
 5882TIP3   OH239280   0.174   2.742   7.511 -0.3058 -0.2112  0.1834
 5882TIP3    H139281   0.218   2.827   7.500 -0.4593 -0.2544 -0.8939
 5882TIP3    H239282   0.081   2.764   7.516 -0.2601 -0.2187  1.2463
 5883TIP3   OH239283   5.993   0.244   2.449 -0.5809  0.5180  0.1926
 5883TIP3    H139284   6.045   0.324   2.446  2.7401 -1.4473  0.3280
 5883TIP3    H239285   5.967   0.228   2.358 -0.7214  1.3659  0.0781
 5884TIP3   OH239286   4.752   5.520   7.312 -0.2663 -0.8428 -0.0583
 5884TIP3    H139287   4.840   5.533   7.348 -0.1661 -0.1446 -0.5340
 5884TIP3    H239288   4.757   5.556   7.224 -1.1740 -0.3021  0.0968
 5885TIP3   OH239289   6.093   0.966   8.479  0.4199  0.2343 -0.6581
 5885TIP3    H139290   6.070   0.953   8.571 -0.8107 -1.2730 -1.1329
 5885TIP3    H239291   6.017   1.010   8.441  1.7946  2.8967 -0.5581
 5886TIP3   OH239292   6.024   4.482   8.283 -0.1242  0.1609  0.2187
 5886TIP3    H139293   6.004   4.521   8.368  0.6694 -0.2888  0.6138
 5886TIP3    H239294   6.112   4.514   8.262 -0.9906  1.7505 -1.2914
 5887TIP3   OH239295   4.756   5.806   1.875 -0.3380 -0.2740 -0.0233
 5887TIP3    H139296   4.775   5.898   1.893 -0.6201 -0.3090  0.4438
 5887TIP3    H239297   4.730   5.805   1.782 -2.3207  0.4335  0.4727
 5888TIP3   OH239298   3.482   1.535   6.972  0.1269  0.8422  0.1967
 5888TIP3    H139299   3.390   1.519   6.951 -0.0355  0.7118  0.9817
 5888TIP3    H239300   3.518   1.448   6.990 -0.3727  1.1055  2.9122
 5889TIP3   OH239301   5.161   0.885   2.311  0.0370  0.0419  0.0104
 5889TIP3    H139302   5.087   0.867   2.253  0.4105 -0.6911 -0.2567
 5889TIP3    H239303   5.169   0.980   2.313 -0.7008  0.1083 -0.2253
 5890TIP3   OH239304   3.511   3.350   1.637  0.2051 -0.0337  0.0399
 5890TIP3    H139305   3.592   3.340   1.588 -1.0466 -1.5537 -1.9073
 5890TIP3    H239306   3.472   3.262   1.638 -1.2038  0.5450  1.3178
 5891TIP3   OH239307   4.604   1.479   1.571 -0.2913  0.1330 -0.0026
 5891TIP3    H139308   4.573   1.539   1.639 -0.3943 -0.1499  0.2012
 5891TIP3    H239309   4.526   1.434   1.540  0.0463 -1.6228  1.5123
 5892TIP3   OH239310   1.555   5.874   1.798 -0.0062 -0.2653 -0.0548
 5892TIP3    H139311   1.520   5.936   1.734 -0.1942 -1.0012 -0.6750
 5892TIP3    H239312   1.638   5.913   1.826 -0.3207  0.4699 -0.1215
 5893TIP3   OH239313   1.085   1.149   1.670  0.4448  0.4108 -0.4130
 5893TIP3    H139314   1.120   1.061   1.683 -0.2432  0.1557 -0.2431
 5893TIP3    H239315   1.035   1.143   1.589  0.5220  0.6848 -0.4808
 5894TIP3   OH239316   4.765   6.836   8.572  0.6189 -0.4549 -0.1829
 5894TIP3    H139317   4.696   6.884   8.620  2.2035  1.3224  0.4384
 5894TIP3    H239318   4.767   6.877   8.486  0.8312 -0.5693 -0.2327
 5895TIP3   OH239319   6.129   0.602   7.359  0.3836 -0.4209 -0.5051
 5895TIP3    H139320   6.041   0.566   7.363 -0.2047  0.8559 -1.4413
 5895TIP3    H239321   6.165   0.570   7.277  1.2480 -1.8701  0.3945
 5896TIP3   OH239322   4.606   5.352   2.239 -0.4543 -0.5071 -0.6948
 5896TIP3    H139323   4.587   5.309   2.323  0.1872 -0.0915 -0.3196
 5896TIP3    H239324   4.529   5.336   2.186  0.0151 -2.6993 -0.8249
 5897TIP3   OH239325   2.010   3.107   7.070  0.4074 -0.6298  0.6726
 5897TIP3    H139326   1.954   3.183   7.085  0.8983  0.0988 -0.9341
 5897TIP3    H239327   2.031   3.075   7.158  1.2063  1.8528  1.4656
 5898TIP3   OH239328   2.487   2.048   2.472 -0.2520  0.0509 -0.3237
 5898TIP3    H139329   2.418   2.003   2.520  0.0099  1.8938  1.9677
 5898TIP3    H239330   2.446   2.127   2.438  0.6803  1.2100  1.1336
 5899TIP3   OH239331   0.716   2.604   2.107  0.1870 -0.1749  0.5971
 5899TIP3    H139332   0.681   2.563   2.029 -1.0630 -1.3640  1.7219
 5899TIP3    H239333   0.639   2.621   2.162  1.0473  0.4111  1.6662
 5900TIP3   OH239334   4.613   3.413   1.745  0.5855  0.0336  0.3291
 5900TIP3    H139335   4.624   3.473   1.818 -0.0511 -0.9289  1.2497
 5900TIP3    H239336   4.694   3.362   1.743 -0.3540 -1.6248  1.9911
 5901TIP3   OH239337   0.307   5.853   0.166  0.6230 -0.2820  0.2089
 5901TIP3    H139338   0.335   5.762   0.173  0.3659 -0.5302 -1.5283
 5901TIP3    H239339   0.288   5.866   0.073 -0.4826  1.2092  0.5855
 5902TIP3   OH239340   6.068   3.560   0.806 -0.1310 -0.8612 -0.2541
 5902TIP3    H139341   6.143   3.607   0.843 -0.6531  0.2030 -0.5291
 5902TIP3    H239342   6.017   3.535   0.883  0.1401 -0.9803 -0.1079
 5903TIP3   OH239343   5.152   6.037   7.849  0.1263  0.0678 -0.2272
 5903TIP3    H139344   5.101   6.089   7.911  0.3878  0.2037 -0.1254
 5903TIP3    H239345   5.086   6.000   7.789 -0.0179  0.9502 -0.6315
 5904TIP3   OH239346   2.531   0.254   1.049 -0.2497 -0.1853 -0.1728
 5904TIP3    H139347   2.623   0.251   1.023  0.0567  1.1864  0.6869
 5904TIP3    H239348   2.507   0.346   1.042 -1.3746 -0.4324  0.2661
 5905TIP3   OH239349   3.561   1.355   8.190 -0.6058 -0.3839  0.5614
 5905TIP3    H139350   3.514   1.393   8.263  0.3803 -0.6988  1.3891
 5905TIP3    H239351   3.592   1.430   8.139 -1.0376 -0.1589  0.6268
 5906TIP3   OH239352   0.104   5.796   0.454  0.3559  0.0052 -0.4514
 5906TIP3    H139353   0.184   5.751   0.482 -0.0588  0.2891  1.3165
 5906TIP3    H239354   0.130   5.887   0.445 -0.0635  0.3860  1.6782
 5907TIP3   OH239355   5.555   5.495   1.500  0.3632 -0.0799 -0.3956
 5907TIP3    H139356   5.614   5.425   1.473  1.2477  0.3869  0.3121
 5907TIP3    H239357   5.531   5.539   1.418  2.8341  1.1719 -0.5413
 5908TIP3   OH239358   1.325   0.062   1.304 -0.4757 -0.0325  0.2272
 5908TIP3    H139359   1.316   0.148   1.262  0.4285 -0.6112 -1.2376
 5908TIP3    H239360   1.382   0.078   1.379  0.1520  0.5674 -0.3608
 5909TIP3   OH239361   4.363   1.176   8.064 -0.7051  0.0883 -0.4536
 5909TIP3    H139362   4.409   1.256   8.088  0.0907  0.1794 -2.1291
 5909TIP3    H239363   4.433   1.116   8.037 -1.2898 -1.1687  0.7157
 5910TIP3   OH239364   6.097   1.075   7.510  0.1432 -0.1722 -0.0614
 5910TIP3    H139365   6.165   1.045   7.449 -1.1832  0.3901 -1.8987
 5910TIP3    H239366   6.015   1.050   7.467 -0.8756  1.9052  0.6029
 5911TIP3   OH239367   4.097   5.412   2.066 -0.0678 -0.6566 -0.2441
 5911TIP3    H139368   4.088   5.481   2.131 -1.4823  1.4485 -2.5181
 5911TIP3    H239369   4.009   5.398   2.032  0.8258 -0.2039 -3.0449
 5912TIP3   OH239370   2.319   1.529   0.975  0.0471  0.0097  0.0916
 5912TIP3    H139371   2.317   1.625   0.972 -1.7448 -0.0091 -0.1758
 5912TIP3    H239372   2.405   1.506   0.940  1.1194  1.5401  1.5517
 5913TIP3   OH239373   0.944   4.667   0.472  0.4882 -0.4016 -0.4119
 5913TIP3    H139374   0.972   4.665   0.563 -1.3473  0.3656  0.2272
 5913TIP3    H239375   0.931   4.574   0.449  1.7744 -0.6535 -0.2031
 5914TIP3   OH239376   2.312   2.905   3.020 -0.1182  0.3870  0.1938
 5914TIP3    H139377   2.394   2.865   3.048 -0.6662  0.0550  1.3333
 5914TIP3    H239378   2.308   2.886   2.926  0.0754 -1.4454  0.5216
 5915TIP3   OH239379   1.575   6.347   1.748 -0.3470  0.2367  0.2444
 5915TIP3    H139380   1.594   6.399   1.670 -0.6378  3.8204  2.3574
 5915TIP3    H239381   1.649   6.286   1.755  0.5480  0.9887 -1.8387
 5916TIP3   OH239382   5.203   0.073   1.202 -0.0330 -0.6384  0.1548
 5916TIP3    H139383   5.287   0.084   1.158 -0.0591 -0.8241  0.0550
 5916TIP3    H239384   5.165  -0.005   1.162 -1.0999  0.4852 -1.1392
 5917TIP3   OH239385   2.287   5.306   7.814 -0.3448  0.2452 -0.1175
 5917TIP3    H139386   2.265   5.378   7.873 -0.3838 -1.5838  2.2281
 5917TIP3    H239387   2.231   5.234   7.841  0.4100 -1.0124 -1.7195
 5918TIP3   OH239388   1.133   3.658   1.446 -0.5870  0.2743  0.4382
 5918TIP3    H139389   1.045   3.654   1.408 -0.3392 -0.3933 -0.0755
 5918TIP3    H239390   1.171   3.738   1.409 -0.5166 -0.1235 -0.3761
 5919TIP3   OH239391   0.045   6.465   7.853  0.2369  0.1179  0.0160
 5919TIP3    H139392   0.026   6.452   7.946 -2.9041 -1.8235 -0.7060
 5919TIP3    H239393   0.135   6.434   7.842 -0.0322 -1.6720  2.0928
 5920TIP3   OH239394   2.454   2.402   0.507  0.1285  1.1274  0.1955
 5920TIP3    H139395   2.397   2.394   0.584  0.5631  0.3244  0.4536
 5920TIP3    H239396   2.500   2.485   0.520 -0.0298  1.1501  0.6478
 5921TIP3   OH239397   6.051   6.269   2.136  0.2041  0.3523  0.1336
 5921TIP3    H139398   6.022   6.293   2.049  0.6669  1.2748  0.2231
 5921TIP3    H239399   5.972   6.239   2.180  0.1367 -1.0711 -0.9008
 5922TIP3   OH239400   3.047   1.533   1.661 -0.3511  0.1321  0.7664
 5922TIP3    H139401   2.987   1.556   1.590 -1.6405 -1.4071  1.3066
 5922TIP3    H239402   3.019   1.587   1.734  0.9859  1.7284  0.1554
 5923TIP3   OH239403   1.735   1.461   7.905  0.4032  0.5658  0.0756
 5923TIP3    H139404   1.738   1.421   7.992  2.0577  1.2538  0.3731
 5923TIP3    H239405   1.827   1.465   7.878 -0.0378  0.9745 -1.4287
 5924TIP3   OH239406   1.448   2.446   1.367  0.0605  0.6336 -0.7740
 5924TIP3    H139407   1.399   2.525   1.391 -1.2283 -1.1634  3.4938
 5924TIP3    H239408   1.524   2.447   1.425 -0.0111 -1.2479 -0.6007
 5925TIP3   OH239409   3.703   3.245   2.275 -0.1584  0.9943 -0.2769
 5925TIP3    H139410   3.612   3.240   2.247 -0.2068 -0.8006  0.0693
 5925TIP3    H239411   3.744   3.166   2.238  1.1995  1.6352 -0.2215
 5926TIP3   OH239412   5.716   5.685   8.122  0.5129  0.0703 -0.0413
 5926TIP3    H139413   5.741   5.732   8.201  1.1826 -0.5857  0.1495
 5926TIP3    H239414   5.620   5.690   8.120  0.4822  0.0149  0.8562
 5927TIP3   OH239415   4.756   1.391   2.269  0.2106 -0.1855  0.4215
 5927TIP3    H139416   4.730   1.395   2.177 -1.3657  2.4338  0.8647
 5927TIP3    H239417   4.840   1.436   2.272  0.3485 -0.4317  0.2305
 5928TIP3   OH239418   3.087   0.591   7.586  0.7233  0.0898 -0.4445
 5928TIP3    H139419   3.178   0.562   7.575  0.7937  0.1936 -0.1432
 5928TIP3    H239420   3.044   0.518   7.631  0.9272  0.4849  0.4148
 5929TIP3   OH239421   4.507   4.923   0.582 -0.2161 -0.1198 -0.1964
 5929TIP3    H139422   4.545   4.987   0.523  0.1693 -0.5391 -0.4080
 5929TIP3    H239423   4.539   4.947   0.668  0.3196 -0.3153 -0.3396
 5930TIP3   OH239424   5.542   1.577   7.546  0.0173 -0.1077  0.2532
 5930TIP3    H139425   5.628   1.556   7.509 -0.5539 -2.8722  0.3125
 5930TIP3    H239426   5.535   1.522   7.624 -1.6984  0.2579  0.3917
 5931TIP3   OH239427   1.918   1.320   7.630  0.2426 -0.0809 -0.5025
 5931TIP3    H139428   1.900   1.381   7.559  1.4386  0.8039 -0.0909
 5931TIP3    H239429   1.998   1.354   7.671 -0.0530 -0.9275  0.8568
 5932TIP3   OH239430   0.357   3.733   1.816  0.1580  0.9416 -0.2575
 5932TIP3    H139431   0.268   3.758   1.842  0.2142  0.1930  0.7181
 5932TIP3    H239432   0.411   3.749   1.893  0.6230  0.1331 -0.4022
 5933TIP3   OH239433   5.900   3.330   1.333 -0.3034  0.2652  0.7308
 5933TIP3    H139434   5.988   3.363   1.313 -1.2612  2.5571 -0.0289
 5933TIP3    H239435   5.877   3.373   1.415 -0.4436 -0.9470  1.3490
 5934TIP3   OH239436   6.830   4.385   7.594  0.1697 -0.6145  0.3827
 5934TIP3    H139437   6.851   4.449   7.527  2.1352 -1.2539  0.3240
 5934TIP3    H239438   6.893   4.314   7.580 -1.0809 -1.9647  1.2669
 5935TIP3   OH239439   0.795   2.283   7.291 -0.3843  0.1603 -0.6067
 5935TIP3    H139440   0.755   2.207   7.332 -0.8946 -0.2379 -1.8087
 5935TIP3    H239441   0.791   2.265   7.197  2.5365  0.1399 -0.8145
 5936TIP3   OH239442   6.079   3.253   0.438 -0.5368 -0.1367  0.3382
 5936TIP3    H139443   6.039   3.242   0.525 -0.8045 -0.4790  0.1732
 5936TIP3    H239444   6.012   3.222   0.377  0.2282 -1.3905  0.0919
 5937TIP3   OH239445   0.197   3.410   0.743 -0.3480 -0.5433  0.0382
 5937TIP3    H139446   0.117   3.461   0.731  0.0222  0.9720  3.0877
 5937TIP3    H239447   0.167   3.320   0.754 -1.6309 -0.0483  0.8347
 5938TIP3   OH239448   4.079   2.650   0.189 -0.1790 -0.3553  0.1421
 5938TIP3    H139449   4.103   2.733   0.148  0.5421 -0.9621 -0.7141
 5938TIP3    H239450   4.021   2.674   0.262  0.1325  0.8958 -0.0075
 5939TIP3   OH239451   0.571   4.964   1.290 -0.0546  0.0519  0.1008
 5939TIP3    H139452   0.527   5.005   1.215 -0.6623  1.0380  0.9555
 5939TIP3    H239453   0.662   4.994   1.283 -0.0757  0.0319 -0.3108
 5940TIP3   OH239454   1.877   4.679   1.573 -0.6224  0.1872 -0.1982
 5940TIP3    H139455   1.919   4.763   1.554 -1.2151  0.1681 -1.7732
 5940TIP3    H239456   1.832   4.656   1.491  0.8847 -2.4662 -0.4120
 5941TIP3   OH239457   0.308   3.857   7.773  0.3159 -0.4771 -0.8073
 5941TIP3    H139458   0.318   3.850   7.868  2.2053  1.9958 -0.7292
 5941TIP3    H239459   0.268   3.943   7.759  2.3857  0.3301 -2.2753
 5942TIP3   OH239460   1.985   2.541   0.296  0.3690 -0.0221  0.0418
 5942TIP3    H139461   2.002   2.576   0.208 -2.4364 -0.3893 -0.7533
 5942TIP3    H239462   2.019   2.452   0.293 -2.2424 -1.0845 -1.7944
 5943TIP3   OH239463   6.366   0.503   8.280  0.1645 -0.1687  0.3757
 5943TIP3    H139464   6.446   0.535   8.238 -1.2105  0.6475 -1.7357
 5943TIP3    H239465   6.304   0.491   8.209 -1.2065 -2.1394  1.7932
 5944TIP3   OH239466   2.916   1.559   2.743  0.0536 -0.5232  0.2207
 5944TIP3    H139467   2.903   1.619   2.670 -0.2734 -1.2929 -0.3737
 5944TIP3    H239468   2.915   1.614   2.821 -0.6511  0.1851 -0.2766
 5945TIP3   OH239469   0.635   5.449   7.347  0.0615 -0.1792  0.5757
 5945TIP3    H139470   0.677   5.383   7.292 -2.5501  0.2560 -2.2197
 5945TIP3    H239471   0.675   5.532   7.318  1.7119 -0.2400  2.4787
 5946TIP3   OH239472   5.106   3.027   1.968  0.4353  0.2637 -0.2278
 5946TIP3    H139473   5.199   3.034   1.988 -0.0306 -0.0907  2.5957
 5946TIP3    H239474   5.091   2.933   1.953  0.3374  0.0825  0.8674
 5947TIP3   OH239475   1.599   4.261   0.493 -0.1088  0.2164 -0.0744
 5947TIP3    H139476   1.536   4.296   0.556  0.0748  1.2740 -0.4607
 5947TIP3    H239477   1.658   4.208   0.546  0.9434  2.2776  0.9273
 5948TIP3   OH239478   2.238   5.060   0.343 -0.5431  0.3895  0.3874
 5948TIP3    H139479   2.307   5.125   0.359  0.1406 -0.1271 -0.3823
 5948TIP3    H239480   2.248   4.998   0.416  0.1000  0.0841  0.0494
 5949TIP3   OH239481   0.706   6.806   7.616 -0.3629  0.5176 -0.1890
 5949TIP3    H139482   0.662   6.887   7.592  1.2203  1.1827 -1.0602
 5949TIP3    H239483   0.726   6.815   7.709 -1.8559  0.2803  0.1671
 5950TIP3   OH239484   6.181   6.517   0.722 -0.2235  0.0428 -0.2212
 5950TIP3    H139485   6.125   6.454   0.767 -0.6973 -0.3860 -1.3671
 5950TIP3    H239486   6.208   6.578   0.790 -1.8375  0.0910  0.4257
 5951TIP3   OH239487   1.067   5.430   6.882 -0.0189  0.0032 -0.2382
 5951TIP3    H139488   1.048   5.433   6.976 -0.6053 -0.3115 -0.3368
 5951TIP3    H239489   1.006   5.364   6.848 -0.7277  1.0508 -1.0509
 5952TIP3   OH239490   3.448   1.600   7.701  0.0184  0.7112 -1.1738
 5952TIP3    H139491   3.539   1.620   7.725 -0.0928 -1.4391  1.5217
 5952TIP3    H239492   3.396   1.663   7.750 -0.0292 -0.8388  0.8894
 5953TIP3   OH239493   1.947   6.173   2.252  0.5912 -0.3270  0.0478
 5953TIP3    H139494   1.892   6.148   2.327 -0.0423  0.7616 -0.0271
 5953TIP3    H239495   1.974   6.262   2.272  0.6103 -0.1076 -0.9098
 5954TIP3   OH239496   3.241   1.724   2.099  0.1105 -0.4442  0.3798
 5954TIP3    H139497   3.296   1.775   2.040 -1.4513  0.7035 -0.1370
 5954TIP3    H239498   3.187   1.671   2.041 -0.8423  0.0619  0.7821
 5955TIP3   OH239499   3.033   4.978   2.403  0.1176 -0.5495 -0.0864
 5955TIP3    H139500   3.030   5.066   2.365  0.6212 -0.1679  0.7314
 5955TIP3    H239501   2.996   4.922   2.335 -0.0385  0.2644 -0.6961
 5956TIP3   OH239502   4.027   3.011   2.029 -0.1053 -0.0702  0.5980
 5956TIP3    H139503   4.039   3.007   2.124 -0.2829  0.1243  0.6296
 5956TIP3    H239504   3.975   2.933   2.009 -2.1491  1.1187  0.9907
 5957TIP3   OH239505   2.960   1.376   8.294 -0.0077  0.8705  0.4897
 5957TIP3    H139506   2.994   1.326   8.219  0.6912  2.0251  0.0176
 5957TIP3    H239507   2.941   1.309   8.360 -0.5290 -0.1586 -0.6696
 5958TIP3   OH239508   4.684   4.450   1.235 -0.4519  0.2879  0.3300
 5958TIP3    H139509   4.693   4.530   1.287  1.0036  1.0191 -0.9928
 5958TIP3    H239510   4.675   4.480   1.145 -0.3663 -1.0285 -0.1400
 5959TIP3   OH239511   1.241   2.665   1.394  0.1235  0.6725 -0.1003
 5959TIP3    H139512   1.230   2.739   1.454 -0.2346  0.8072 -0.3299
 5959TIP3    H239513   1.152   2.637   1.374  0.2569 -0.8773  1.2595
 5960TIP3   OH239514   6.751   5.288   0.018 -0.4144 -0.1058  0.5507
 5960TIP3    H139515   6.805   5.216   0.051  0.2595  0.4155  0.6142
 5960TIP3    H239516   6.664   5.272   0.055 -0.2278 -0.7860  0.7040
 5961TIP3   OH239517   2.656   2.012   2.219 -0.4424 -0.2427 -0.0345
 5961TIP3    H139518   2.735   2.067   2.211 -1.2405  1.0047  0.4639
 5961TIP3    H239519   2.617   2.038   2.302 -0.6134 -1.9221  0.4447
 5962TIP3   OH239520   1.607   3.230   0.464 -0.3775  0.0183  0.3105
 5962TIP3    H139521   1.589   3.144   0.503  1.4555 -0.1334  0.9005
 5962TIP3    H239522   1.687   3.217   0.413 -0.6001  1.1548 -0.3659
 5963TIP3   OH239523   2.024   4.753   8.390 -0.1388  0.3193 -0.1000
 5963TIP3    H139524   2.119   4.764   8.381 -0.1298 -0.2077 -0.7611
 5963TIP3    H239525   2.014   4.661   8.416 -0.4659  0.3931  0.0331
 5964TIP3   OH239526   0.066   0.395   7.483 -0.5565  0.1049 -0.0574
 5964TIP3    H139527   0.075   0.457   7.411  0.3618 -1.4876 -1.4141
 5964TIP3    H239528  -0.028   0.382   7.493 -0.6877 -0.0140 -1.3259
 5965TIP3   OH239529   2.734   1.192   7.439  0.5426 -0.0519  0.0571
 5965TIP3    H139530   2.657   1.145   7.469  1.0422 -0.4008  0.8330
 5965TIP3    H239531   2.704   1.283   7.428 -0.9075 -0.7765 -3.2393
 5966TIP3   OH239532   0.251   4.764   7.638 -0.3588 -0.1845 -0.0138
 5966TIP3    H139533   0.222   4.779   7.548 -1.3888 -1.4595  0.0767
 5966TIP3    H239534   0.237   4.848   7.682 -3.0487 -0.4115 -0.2443
 5967TIP3   OH239535   3.147   3.050   0.336 -0.2024  0.4555 -0.2352
 5967TIP3    H139536   3.075   2.989   0.323  0.4212 -0.9146  2.1683
 5967TIP3    H239537   3.108   3.124   0.382 -0.4699  0.7710 -0.9471
 5968TIP3   OH239538   4.675   2.165   1.998  0.0483  0.0039  0.2489
 5968TIP3    H139539   4.583   2.187   1.982 -0.4089 -0.2448  2.2163
 5968TIP3    H239540   4.713   2.155   1.911 -1.2719  2.1332 -0.6434
 5969TIP3   OH239541   2.482   5.806   0.678  0.1926 -0.2354 -0.2674
 5969TIP3    H139542   2.516   5.744   0.743 -2.3141 -1.4235  0.0148
 5969TIP3    H239543   2.517   5.891   0.706  1.5298 -1.1107  0.9108
 5970TIP3   OH239544   2.423   1.034   0.644 -0.2585  0.0317  0.3281
 5970TIP3    H139545   2.461   1.002   0.562  0.0189 -1.1447  0.8966
 5970TIP3    H239546   2.497   1.037   0.705 -0.9185 -1.7473  1.2918
 5971TIP3   OH239547   3.446   1.912   1.495 -0.2195  0.2472  0.3104
 5971TIP3    H139548   3.385   1.904   1.421  0.1134  0.1320  0.0428
 5971TIP3    H239549   3.436   1.831   1.544 -0.3303  0.2573  0.3049
 5972TIP3   OH239550   1.193   4.178   8.183  0.7562  0.1746  0.2333
 5972TIP3    H139551   1.221   4.267   8.160  0.6566  0.5952  1.6673
 5972TIP3    H239552   1.105   4.189   8.219 -0.2717 -0.8201 -1.7597
 5973TIP3   OH239553   4.597   3.603   1.943 -0.4422  0.3824 -0.2611
 5973TIP3    H139554   4.635   3.637   2.023  0.9111  0.2339 -0.8086
 5973TIP3    H239555   4.532   3.668   1.917 -0.0825  0.9925  0.3471
 5974TIP3   OH239556   5.911   5.378   0.426 -0.4417  0.4913  0.2690
 5974TIP3    H139557   5.960   5.356   0.346  0.3465  0.7183  0.6800
 5974TIP3    H239558   5.828   5.415   0.394 -0.8457 -0.9609 -0.4319
 5975TIP3   OH239559   4.122   3.000   0.566  0.7597  0.0624 -0.0953
 5975TIP3    H139560   4.207   2.961   0.586  0.3306 -0.7327  0.1822
 5975TIP3    H239561   4.127   3.088   0.604  0.6417 -0.7528  1.8703
 5976TIP3   OH239562   5.707   4.322   1.235 -0.4199 -0.1107  0.1626
 5976TIP3    H139563   5.737   4.303   1.146  0.5999 -0.8002  0.6388
 5976TIP3    H239564   5.675   4.412   1.230  1.4463  0.5657 -0.4705
 5977TIP3   OH239565   1.431   4.458   0.649  0.1482 -0.4777 -0.0239
 5977TIP3    H139566   1.386   4.464   0.564 -0.3484 -1.3957  0.1532
 5977TIP3    H239567   1.370   4.408   0.704 -0.5035  1.9104  1.5553
 5978TIP3   OH239568   4.768   2.035   7.727 -0.1293 -0.0782  0.6656
 5978TIP3    H139569   4.748   2.000   7.815  0.0194  1.1954  1.2283
 5978TIP3    H239570   4.690   2.086   7.704 -0.0797 -0.2360  0.1437
 5979TIP3   OH239571   3.173   6.022   7.656  0.2904 -0.4249  0.4037
 5979TIP3    H139572   3.216   6.016   7.571  1.4562  0.6602  0.8935
 5979TIP3    H239573   3.218   5.956   7.710 -1.2443 -1.9709 -0.0968
 5980TIP3   OH239574   4.088   2.574   7.745  0.0328 -0.5669  0.0843
 5980TIP3    H139575   4.163   2.545   7.797  0.5557  1.0058  0.2520
 5980TIP3    H239576   4.087   2.514   7.670  1.2658 -0.8144  0.2401
 5981TIP3   OH239577   1.102   4.238   6.831  0.1165 -0.5550 -0.0206
 5981TIP3    H139578   1.040   4.176   6.794  0.0002  0.2928 -1.3009
 5981TIP3    H239579   1.055   4.278   6.904  0.4363 -2.4107  1.2799
 5982TIP3   OH239580   6.188   6.612   1.436  0.5329  0.0638 -0.1509
 5982TIP3    H139581   6.197   6.530   1.389  1.9218  0.0945  0.0264
 5982TIP3    H239582   6.278   6.637   1.460  0.0531  1.1089  0.6823
 5983TIP3   OH239583   1.807   1.999   0.530 -0.4316  0.4490  0.1330
 5983TIP3    H139584   1.823   2.093   0.523  0.0685  0.2499 -2.5627
 5983TIP3    H239585   1.865   1.970   0.601  1.0146  1.8608 -0.4001
 5984TIP3   OH239586   1.667   0.888   8.119  0.4080 -0.4388 -0.4844
 5984TIP3    H139587   1.697   0.861   8.206  2.0336  0.9486 -0.5568
 5984TIP3    H239588   1.573   0.904   8.129  0.6434  0.0723  1.1231
 5985TIP3   OH239589   0.430   5.410   7.122 -0.3861  0.0591 -0.1564
 5985TIP3    H139590   0.479   5.384   7.200 -0.1004  0.4865 -0.1885
 5985TIP3    H239591   0.352   5.355   7.123  0.0254 -0.5338 -0.0295
 5986TIP3   OH239592   5.764   2.020   0.451  0.7811  0.2858  0.2280
 5986TIP3    H139593   5.695   2.056   0.395  0.3611  1.8605  1.6782
 5986TIP3    H239594   5.738   1.928   0.465 -1.5196  1.0429  1.3933
 5987TIP3   OH239595   0.370   6.579   8.479  0.0475  0.4718  0.7221
 5987TIP3    H139596   0.454   6.551   8.514 -0.5639 -0.3559  1.5740
 5987TIP3    H239597   0.307   6.561   8.549 -1.2655 -1.4671 -0.8308
 5988TIP3   OH239598   5.450   1.541   8.708 -0.9187 -0.2111 -0.1083
 5988TIP3    H139599   5.422   1.453   8.685 -1.0355 -0.3370  0.5062
 5988TIP3    H239600   5.541   1.531   8.734 -0.0354  0.2872 -2.6815
 5989TIP3   OH239601   2.888   2.225   0.741  0.0648  0.0933  0.0542
 5989TIP3    H139602   2.836   2.152   0.707  0.3676 -1.4141  2.5055
 5989TIP3    H239603   2.942   2.185   0.810  1.0130  2.4787  0.7917
 5990TIP3   OH239604   1.758   0.955   8.405  0.0556  0.2027  0.2638
 5990TIP3    H139605   1.852   0.975   8.410  0.3370 -0.7813 -0.8527
 5990TIP3    H239606   1.716   1.040   8.419  1.0996  0.6690  0.7529
 5991TIP3   OH239607   5.209   4.962   7.704  0.8976 -0.0691  0.4885
 5991TIP3    H139608   5.240   5.029   7.765  1.6263 -0.2306  0.3130
 5991TIP3    H239609   5.257   4.979   7.623  1.2677 -0.9362  0.5136
 5992TIP3   OH239610   4.494   5.245   2.480 -0.2228  0.2653  0.2138
 5992TIP3    H139611   4.425   5.311   2.484  1.5930  2.2310  0.6606
 5992TIP3    H239612   4.521   5.234   2.572 -1.6649 -2.5125  0.4210
 5993TIP3   OH239613   2.561   5.393   0.709 -0.3990 -0.3745 -0.3078
 5993TIP3    H139614   2.539   5.449   0.635 -1.6865 -0.6486 -0.1527
 5993TIP3    H239615   2.499   5.419   0.778  0.4348 -0.4787  0.5068
 5994TIP3   OH239616   6.088   1.495   8.747 -0.2415  0.3217  0.1002
 5994TIP3    H139617   6.176   1.511   8.780 -0.1227 -1.6258  0.8961
 5994TIP3    H239618   6.030   1.519   8.820 -0.2025 -0.4253  0.3955
 5995TIP3   OH239619   4.233   5.333   2.351  0.3853 -0.1709 -0.3166
 5995TIP3    H139620   4.145   5.306   2.325 -0.0436  0.4913  0.4061
 5995TIP3    H239621   4.233   5.428   2.340  0.3031  0.0968  1.6880
 5996TIP3   OH239622   0.507   0.312   2.618  0.3445  0.2364 -0.4299
 5996TIP3    H139623   0.500   0.388   2.676  0.7756  0.2515 -0.3874
 5996TIP3    H239624   0.417   0.283   2.604  0.3017 -0.7876  1.5669
 5997TIP3   OH239625   0.788   3.234   2.767 -0.3487  0.2761  0.0173
 5997TIP3    H139626   0.782   3.271   2.855 -0.0592 -0.4291  0.3410
 5997TIP3    H239627   0.834   3.151   2.779 -2.9092 -1.3224 -0.3195
 5998TIP3   OH239628   1.933   5.655   8.003  0.5496 -0.0508 -0.2078
 5998TIP3    H139629   1.990   5.640   8.078 -0.0725  0.2023  0.3318
 5998TIP3    H239630   1.891   5.739   8.020  0.0463 -0.2072 -0.6042
 5999TIP3   OH239631   0.693   5.243   1.109 -0.0216  0.0268  0.2656
 5999TIP3    H139632   0.762   5.307   1.125 -1.3539  1.4666  0.4448
 5999TIP3    H239633   0.612   5.285   1.138 -1.1144 -1.2813 -0.6853
 6000TIP3   OH239634   4.544   2.935   2.107  0.0972 -0.2515 -0.9374
 6000TIP3    H139635   4.451   2.926   2.087 -0.3277  0.2943  0.5787
 6000TIP3    H239636   4.563   2.861   2.165  0.5135 -0.1743 -0.9747
 6001TIP3   OH239637   3.480   5.927   1.501 -0.8112 -0.1133 -0.0953
 6001TIP3    H139638   3.459   5.904   1.591 -0.0175  0.0364  0.1277
 6001TIP3    H239639   3.564   5.972   1.505 -1.3653  1.0392 -0.7702
 6002TIP3   OH239640   1.145   5.905   8.362 -0.0213 -0.3960 -0.4264
 6002TIP3    H139641   1.153   5.824   8.313  2.4759  0.0685 -0.8980
 6002TIP3    H239642   1.148   5.878   8.454 -0.7215 -0.9285 -0.5476
 6003TIP3   OH239643   6.795   4.820   8.297  0.0933 -0.0504 -0.0947
 6003TIP3    H139644   6.871   4.815   8.240  1.4220 -0.8087  1.6628
 6003TIP3    H239645   6.761   4.909   8.285 -1.2249 -0.8422 -3.8509
 6004TIP3   OH239646   2.915   2.739   2.638  0.0808 -0.0053 -0.0674
 6004TIP3    H139647   2.975   2.780   2.701 -0.2025  0.0443  0.1710
 6004TIP3    H239648   2.851   2.807   2.618 -0.2474 -0.2507  0.1394
 6005TIP3   OH239649   0.962   4.995   7.553  0.0093 -0.2790  0.2708
 6005TIP3    H139650   0.991   4.912   7.513  1.1955 -0.4257  1.3644
 6005TIP3    H239651   0.884   4.972   7.603  1.0768 -1.0752  1.6609
 6006TIP3   OH239652   6.292   0.113   2.261 -0.3290 -0.7235 -0.0754
 6006TIP3    H139653   6.246   0.079   2.184 -0.3913  0.7800 -0.7292
 6006TIP3    H239654   6.373   0.062   2.264  0.2660  0.0026 -1.9029
 6007TIP3   OH239655   5.977   4.311   2.112  0.1435  0.2779 -0.1658
 6007TIP3    H139656   6.008   4.221   2.114  1.6784  0.7213 -1.6675
 6007TIP3    H239657   5.881   4.303   2.108  0.2773 -1.4222 -3.1434
 6008TIP3   OH239658   4.268   3.847   0.649 -0.7439  0.0853  0.0999
 6008TIP3    H139659   4.237   3.785   0.715  3.0137 -0.7846  1.2932
 6008TIP3    H239660   4.278   3.795   0.569 -0.3774 -0.1710  0.3074
 6009TIP3   OH239661   1.624   4.448   1.885 -0.0518  0.2646  0.9203
 6009TIP3    H139662   1.667   4.498   1.814  1.2560 -0.4373  1.1778
 6009TIP3    H239663   1.648   4.357   1.868 -3.9177 -0.6676 -0.6227
 6010TIP3   OH239664   3.834   5.423   2.031 -0.2014  0.0082 -0.2711
 6010TIP3    H139665   3.763   5.365   2.004  0.7984 -2.0462  1.2237
 6010TIP3    H239666   3.791   5.496   2.075 -1.4977  0.4128 -2.1268
 6011TIP3   OH239667   6.147   4.748   7.870  0.4295  0.4379  0.3426
 6011TIP3    H139668   6.152   4.827   7.817 -1.0176  0.1252 -0.3225
 6011TIP3    H239669   6.155   4.779   7.960  0.1228  1.3126  0.0789
 6012TIP3   OH239670   1.845   2.026   3.042  0.1101  0.7733  0.3342
 6012TIP3    H139671   1.752   2.025   3.063  0.3111  1.8156  1.3748
 6012TIP3    H239672   1.884   1.963   3.103  0.0369 -0.1201 -0.5057
 6013TIP3   OH239673   3.480   4.573   8.372 -0.2410  0.4907  0.6610
 6013TIP3    H139674   3.560   4.599   8.418  1.1478  1.4694 -2.1455
 6013TIP3    H239675   3.439   4.655   8.346 -1.1945 -0.0319  0.4697
 6014TIP3   OH239676   1.961   5.884   7.682  0.2048 -0.5364  0.2541
 6014TIP3    H139677   1.934   5.974   7.664  0.1247 -0.3767  1.1043
 6014TIP3    H239678   1.913   5.860   7.762  1.3437 -0.8074  0.8860
 6015TIP3   OH239679   0.374   0.956   8.573 -1.5566 -0.2210 -0.2594
 6015TIP3    H139680   0.375   0.931   8.481 -2.9869  1.4876 -0.7782
 6015TIP3    H239681   0.465   0.943   8.602 -0.7982  0.3343 -2.2321
 6016TIP3   OH239682   3.706   3.548   0.737 -0.3220 -0.1453  0.2197
 6016TIP3    H139683   3.638   3.583   0.795 -0.3905 -2.4510  1.6138
 6016TIP3    H239684   3.710   3.455   0.757  0.1754 -0.9430 -2.9887
 6017TIP3   OH239685   0.628   6.553   2.406 -0.2845  0.3599  0.0864
 6017TIP3    H139686   0.632   6.649   2.410  0.7209  0.3019  2.1747
 6017TIP3    H239687   0.554   6.530   2.461 -0.6762 -0.0718 -0.6085
 6018TIP3   OH239688   0.812   5.269   8.371  0.3100 -0.0405 -0.1264
 6018TIP3    H139689   0.843   5.188   8.411  0.8315 -0.6983 -1.7619
 6018TIP3    H239690   0.723   5.280   8.404  0.6834 -0.5769  1.1081
 6019TIP3   OH239691   5.535   0.056   7.918  0.2322  0.0726  0.0447
 6019TIP3    H139692   5.564  -0.019   7.971  0.2170 -1.4629 -2.0186
 6019TIP3    H239693   5.580   0.131   7.958  0.3523 -1.0111  2.1077
 6020TIP3   OH239694   5.659   4.151   7.303 -0.3553 -0.4673 -0.3101
 6020TIP3    H139695   5.708   4.228   7.333 -0.9148 -0.4117  0.4779
 6020TIP3    H239696   5.677   4.147   7.209  0.3106  0.1680 -0.2213
 6021TIP3   OH239697   2.690   2.555   8.639 -0.3195 -0.1115  0.4630
 6021TIP3    H139698   2.621   2.592   8.585 -0.2546 -1.2890 -0.4613
 6021TIP3    H239699   2.644   2.508   8.709 -0.4084  0.8797  1.0881
 6022TIP3   OH239700   0.140   1.832   1.256  0.1844  0.0927 -0.1820
 6022TIP3    H139701   0.165   1.795   1.341 -0.3258  0.3775  0.0969
 6022TIP3    H239702   0.079   1.902   1.278 -1.6807 -1.2469 -0.8852
 6023TIP3   OH239703   2.016   0.914   8.312  0.1557  0.4310 -0.3724
 6023TIP3    H139704   1.982   0.830   8.280  2.2871 -0.4825 -0.3791
 6023TIP3    H239705   2.009   0.973   8.237  0.4938 -0.3078 -1.0016
 6024TIP3   OH239706   1.675   2.295   1.257 -0.1341 -0.0573  0.6849
 6024TIP3    H139707   1.588   2.279   1.294  0.1173 -0.5945  1.0591
 6024TIP3    H239708   1.694   2.387   1.278 -1.8210  1.0287 -1.9491
 6025TIP3   OH239709   2.601   5.819   3.049  0.4780 -0.2112  0.2222
 6025TIP3    H139710   2.656   5.897   3.037  0.7758 -0.6273 -1.4129
 6025TIP3    H239711   2.512   5.854   3.056  0.5382  0.2820 -1.1106
 6026TIP3   OH239712   5.065   3.078   1.620 -0.4356  0.2481 -0.0514
 6026TIP3    H139713   5.056   3.166   1.659 -0.1863  0.4641 -0.4752
 6026TIP3    H239714   5.118   3.030   1.684 -0.6707  0.3705  0.2396
 6027TIP3   OH239715   5.773   0.085   2.376 -0.1443  0.3821 -0.4342
 6027TIP3    H139716   5.832   0.111   2.447  1.4827  1.2165 -2.0359
 6027TIP3    H239717   5.786  -0.010   2.368 -0.1996  0.3135  0.2435
 6028TIP3   OH239718   6.641   6.795   7.410  0.3419  0.0834 -0.2348
 6028TIP3    H139719   6.636   6.796   7.506  3.4724  0.9683  0.0213
 6028TIP3    H239720   6.593   6.873   7.382  0.7413  0.6877  0.7344
 6029TIP3   OH239721   6.755   4.103   0.352  0.4032 -0.2757 -0.3676
 6029TIP3    H139722   6.681   4.090   0.293 -0.0206  0.5894 -0.0403
 6029TIP3    H239723   6.813   4.029   0.333 -0.1409 -0.5080 -1.2267
 6030TIP3   OH239724   0.065   4.900   1.209 -0.3699  0.0946 -0.1164
 6030TIP3    H139725   0.043   4.828   1.151  0.6241  0.1517 -0.5892
 6030TIP3    H239726   0.138   4.867   1.261 -1.9922 -0.3967  1.9831
 6031TIP3   OH239727   0.279   4.908   8.451  0.7164 -0.1704  0.3987
 6031TIP3    H139728   0.364   4.926   8.410  0.2766 -1.9029 -1.4395
 6031TIP3    H239729   0.262   4.816   8.429 -1.4973  0.0703  0.9753
 6032TIP3   OH239730   5.657   4.404   2.397  0.5368  0.3133  0.3357
 6032TIP3    H139731   5.611   4.359   2.468 -0.7503 -0.1594 -0.7467
 6032TIP3    H239732   5.654   4.497   2.422 -2.1496  0.4626 -0.2425
 6033TIP3   OH239733   4.863   6.215   0.909 -0.3505 -0.2631  0.1311
 6033TIP3    H139734   4.923   6.141   0.910 -1.1012 -0.9804 -2.2890
 6033TIP3    H239735   4.776   6.175   0.919 -1.0469 -0.1919 -3.9404
 6034TIP3   OH239736   0.450   3.530   8.081  0.4301 -0.0282  0.4959
 6034TIP3    H139737   0.492   3.614   8.101 -0.9119  0.9143 -0.4176
 6034TIP3    H239738   0.408   3.544   7.996 -0.1029 -1.5312  0.4751
 6035TIP3   OH239739   5.524   6.578   1.336  0.2259 -0.1167 -0.1239
 6035TIP3    H139740   5.574   6.517   1.281 -0.1505 -1.8298  1.3025
 6035TIP3    H239741   5.581   6.655   1.344  2.2512 -1.5804  0.5937
 6036TIP3   OH239742   0.372   5.009   8.745 -0.1664  0.0926  0.1152
 6036TIP3    H139743   0.379   4.932   8.801 -0.6979 -0.3843 -0.4603
 6036TIP3    H239744   0.395   4.977   8.657 -1.3196  0.3600 -0.3044
 6037TIP3   OH239745   1.009   0.833   8.149 -0.2885 -0.4213 -0.1464
 6037TIP3    H139746   0.982   0.908   8.096 -1.1781 -0.9624 -0.4907
 6037TIP3    H239747   1.085   0.798   8.103 -1.2339 -1.0672 -1.2940
 6038TIP3   OH239748   3.207   1.470   2.826 -0.2369 -0.2592  0.2165
 6038TIP3    H139749   3.128   1.501   2.782 -0.3053 -0.6672  0.0495
 6038TIP3    H239750   3.197   1.375   2.830  0.6352 -0.3958 -0.5803
 6039TIP3   OH239751   4.211   2.269   1.105  0.3511  0.6231  0.3669
 6039TIP3    H139752   4.201   2.338   1.170 -1.5129 -1.2957  2.3067
 6039TIP3    H239753   4.303   2.273   1.078  0.6209  2.8886  1.4485
 6040TIP3   OH239754   4.294   0.703   8.189 -0.3843  0.0128  0.6388
 6040TIP3    H139755   4.359   0.633   8.186  0.1166  0.4957 -0.0999
 6040TIP3    H239756   4.326   0.763   8.256 -0.9323 -0.5517  1.4373
 6041TIP3   OH239757   1.730   5.250   0.196  0.1597  0.0003  0.3225
 6041TIP3    H139758   1.675   5.249   0.274 -1.4975  1.5339 -0.7581
 6041TIP3    H239759   1.716   5.165   0.156 -0.4006 -0.1202  0.7597
 6042TIP3   OH239760   6.809   3.372   0.030 -0.5343 -0.1195 -0.0654
 6042TIP3    H139761   6.811   3.313  -0.046  0.9088  0.0530 -0.1936
 6042TIP3    H239762   6.887   3.349   0.080 -1.4209 -0.1737  1.3510
 6043TIP3   OH239763   3.655   5.912   0.608  0.2510  0.3468 -0.0019
 6043TIP3    H139764   3.573   5.875   0.640  0.0449  1.5745  0.9288
 6043TIP3    H239765   3.719   5.894   0.677  0.8081 -0.5858 -0.7108
 6044TIP3   OH239766   4.575   6.102   8.561  0.2105 -0.4171  0.6723
 6044TIP3    H139767   4.581   6.074   8.469  0.5282  0.8085  0.2997
 6044TIP3    H239768   4.602   6.194   8.560  2.9953 -1.0755  2.3834
 6045TIP3   OH239769   6.252   3.597   7.469 -0.0407  0.2169  0.1404
 6045TIP3    H139770   6.332   3.544   7.463 -1.1663 -1.5524  0.0564
 6045TIP3    H239771   6.223   3.585   7.560 -0.0566  1.1220  0.2651
 6046TIP3   OH239772   3.028   0.604   0.551 -0.1989  0.0442 -0.0782
 6046TIP3    H139773   2.945   0.591   0.506  0.3901  1.3626 -1.6284
 6046TIP3    H239774   3.008   0.586   0.643 -2.0830 -0.0849 -0.4717
 6047TIP3   OH239775   4.775   4.166   1.365  0.4835  0.4938 -0.9651
 6047TIP3    H139776   4.725   4.131   1.292  1.6497 -3.6747 -0.0417
 6047TIP3    H239777   4.867   4.155   1.339  0.9040 -0.1957  0.6567
 6048TIP3   OH239778   3.750   4.014   0.064  0.5169 -0.4553 -0.5338
 6048TIP3    H139779   3.744   3.934   0.116 -1.0328 -0.4166 -0.5931
 6048TIP3    H239780   3.793   4.077   0.122 -1.3862 -0.3359  0.8469
 6049TIP3   OH239781   0.711   5.053   0.247 -0.2067  0.2310  0.2386
 6049TIP3    H139782   0.651   5.079   0.317 -0.1599  1.2463 -0.0785
 6049TIP3    H239783   0.721   4.959   0.258 -0.2926  0.3511  1.5294
 6050TIP3   OH239784   3.200   6.370   2.462  0.7973  0.2172  0.0492
 6050TIP3    H139785   3.172   6.383   2.371 -3.2821 -0.2190  1.0592
 6050TIP3    H239786   3.197   6.276   2.475  3.0292  0.1231  0.2782
 6051TIP3   OH239787   2.621   3.082   8.641 -0.3121  0.0786 -0.2042
 6051TIP3    H139788   2.588   3.150   8.583  2.5385 -0.0560 -2.2303
 6051TIP3    H239789   2.699   3.121   8.681 -0.7799 -0.7397  1.5950
 6052TIP3   OH239790   3.967   4.036   2.006 -0.2767 -0.5412 -0.1500
 6052TIP3    H139791   4.026   4.042   1.931 -0.2130 -0.8406 -0.1232
 6052TIP3    H239792   3.965   3.943   2.028 -0.3091 -0.4549  0.2122
 6053TIP3   OH239793   6.781   5.693   8.542 -0.1055  0.3171 -0.1635
 6053TIP3    H139794   6.854   5.631   8.537 -0.2338  0.2562 -1.7235
 6053TIP3    H239795   6.813   5.763   8.599  0.3455 -0.7432  0.9612
 6054TIP3   OH239796   4.885   5.735   1.415 -0.0099 -0.0772  0.1933
 6054TIP3    H139797   4.811   5.737   1.475 -0.4322 -1.2615 -0.2472
 6054TIP3    H239798   4.851   5.770   1.333 -0.6283 -2.2109 -0.5271
 6055TIP3   OH239799   3.482   1.957   8.562  0.5889  0.2752  0.1293
 6055TIP3    H139800   3.426   1.985   8.489  1.6076 -1.3263 -1.3406
 6055TIP3    H239801   3.565   2.002   8.547  0.9050 -0.3060  0.1314
 6056TIP3   OH239802   4.248   2.755   8.289  0.1246 -0.6907  0.1870
 6056TIP3    H139803   4.267   2.786   8.377 -1.6704 -0.5904  0.5684
 6056TIP3    H239804   4.271   2.828   8.232  0.6262 -0.5052  0.6228
 6057TIP3   OH239805   2.837   0.799   8.708 -0.2409 -0.1156  0.1084
 6057TIP3    H139806   2.855   0.738   8.636  1.8349  0.3515  0.1614
 6057TIP3    H239807   2.855   0.749   8.787  1.7415  0.5361  0.1486
 6058TIP3   OH239808   6.555   2.941   0.403  0.2265 -0.0003 -0.2650
 6058TIP3    H139809   6.631   2.989   0.370  1.6488 -1.4962  0.6448
 6058TIP3    H239810   6.498   2.931   0.327 -0.8786  4.2326 -0.2218
 6059TIP3   OH239811   3.093   1.641   0.584  0.1196  0.1170  0.0814
 6059TIP3    H139812   3.056   1.676   0.503  1.1484 -1.0665 -0.9359
 6059TIP3    H239813   3.025   1.657   0.650  0.1133  3.0850 -0.4858
 6060TIP3   OH239814   4.990   0.321   8.496 -0.4326 -0.2899 -0.4082
 6060TIP3    H139815   5.059   0.361   8.550 -1.2132 -1.2475  1.3949
 6060TIP3    H239816   5.003   0.358   8.409  3.9986 -2.2997 -0.8645
 6061TIP3   OH239817   5.305   0.168   7.625  0.2429 -0.4943  0.4445
 6061TIP3    H139818   5.280   0.145   7.535 -2.2278  1.7576  0.4367
 6061TIP3    H239819   5.319   0.084   7.668  0.7015 -1.6541 -1.8040
 6062TIP3   OH239820   2.801   1.330   0.358  0.3553 -0.1786  0.2665
 6062TIP3    H139821   2.843   1.413   0.337  1.0789 -0.4911  0.4389
 6062TIP3    H239822   2.728   1.323   0.296  1.5181 -0.3804 -1.1098
 6063TIP3   OH239823   1.656   2.726   2.504  0.2075 -0.5246  0.1285
 6063TIP3    H139824   1.585   2.754   2.561 -0.5318  0.2023 -1.1139
 6063TIP3    H239825   1.662   2.795   2.438  1.0007 -1.3726 -0.7123
 6064TIP3   OH239826   6.123   1.939   7.796 -0.2663 -0.1693 -0.1205
 6064TIP3    H139827   6.110   2.021   7.844 -1.9176 -0.9707  0.9223
 6064TIP3    H239828   6.204   1.902   7.831  0.2825  0.8270 -0.3256
 6065TIP3   OH239829   1.159   4.133   0.893  0.4023 -0.0680  0.5389
 6065TIP3    H139830   1.068   4.106   0.886 -0.0404  1.4559  0.0002
 6065TIP3    H239831   1.208   4.051   0.902 -0.9960 -0.9150  0.7131
 6066TIP3   OH239832   1.155   2.882   1.583  0.4102 -0.8242  0.0559
 6066TIP3    H139833   1.171   2.976   1.573  0.5786 -0.3599  3.4452
 6066TIP3    H239834   1.064   2.870   1.558  0.0391  0.5115  0.6840
 6067TIP3   OH239835   2.449   2.753   2.656 -0.0531  0.3611 -0.4526
 6067TIP3    H139836   2.397   2.831   2.675  1.3029  1.0017  0.8266
 6067TIP3    H239837   2.444   2.701   2.736 -0.3540 -0.5198 -1.0386
 6068TIP3   OH239838   1.605   1.473   2.133  0.2718  0.8482  0.8937
 6068TIP3    H139839   1.590   1.459   2.040  1.2034  0.2500  0.8153
 6068TIP3    H239840   1.518   1.473   2.172 -0.1596  1.5957 -0.0341
 6069TIP3   OH239841   0.594   4.973   0.738  0.8554 -0.4708  0.2299
 6069TIP3    H139842   0.665   4.946   0.680  0.0647  0.1701 -1.0670
 6069TIP3    H239843   0.639   5.003   0.817  2.0596  0.2151 -0.6769
 6070TIP3   OH239844   0.686   4.544   1.139 -0.0968 -0.1315  0.1798
 6070TIP3    H139845   0.768   4.508   1.172  0.5646  0.9269 -0.2522
 6070TIP3    H239846   0.706   4.573   1.050 -0.7736  0.6596  0.2695
 6071TIP3   OH239847   4.789   0.005   7.745 -0.4042  0.0168  0.4467
 6071TIP3    H139848   4.704  -0.035   7.730 -0.6758  0.7812 -0.0798
 6071TIP3    H239849   4.805   0.059   7.668  0.0936  0.6808  0.9979
 6072TIP3   OH239850   6.652   4.740   7.596 -0.1470 -0.2784 -0.1007
 6072TIP3    H139851   6.605   4.659   7.615  0.2546 -0.5482 -0.2257
 6072TIP3    H239852   6.669   4.736   7.502  1.2994 -0.8491  0.1484
 6073TIP3   OH239853   2.959   6.237   7.485  0.2415  0.0633  0.5560
 6073TIP3    H139854   2.995   6.155   7.449 -0.5104  0.4420 -1.1607
 6073TIP3    H239855   2.870   6.215   7.510  0.0308  0.3594  0.0694
 6074TIP3   OH239856   3.487   5.489   8.337 -0.0412  0.3220 -0.2502
 6074TIP3    H139857   3.470   5.503   8.430 -2.0955  0.3101 -0.5796
 6074TIP3    H239858   3.511   5.576   8.304  0.1265  0.4462  0.1891
 6075TIP3   OH239859   0.978   0.142   7.775  0.4771 -0.3770  0.2618
 6075TIP3    H139860   0.983   0.173   7.685  1.9569 -0.2087  0.3656
 6075TIP3    H239861   1.067   0.154   7.809 -0.5005  1.4774  2.3886
 6076TIP3   OH239862   1.107   0.186   3.269 -0.3233 -0.1479 -0.2756
 6076TIP3    H139863   1.150   0.240   3.335  0.7417  0.0031 -1.0721
 6076TIP3    H239864   1.179   0.145   3.220 -1.0732 -2.7688  0.6555
 6077TIP3   OH239865   6.826   4.374   0.345  0.0519 -0.3486 -0.5167
 6077TIP3    H139866   6.823   4.279   0.361  0.2109 -0.2265  0.2613
 6077TIP3    H239867   6.753   4.410   0.395 -1.4849 -0.2925 -2.6942
 6078TIP3   OH239868   2.857   2.235   2.676  0.0183  0.0275 -0.1857
 6078TIP3    H139869   2.779   2.290   2.687  0.8999  1.3548 -0.3077
 6078TIP3    H239870   2.915   2.287   2.620  0.9073 -1.0288 -0.2781
 6079TIP3   OH239871   3.936   2.639   1.551  0.1967 -0.0555  0.5391
 6079TIP3    H139872   3.851   2.656   1.592 -0.3540 -0.1094 -0.5256
 6079TIP3    H239873   3.921   2.559   1.500  0.6648  0.3733 -0.2768
 6080TIP3   OH239874   2.908   4.909   7.568  0.2117 -0.1827 -0.1804
 6080TIP3    H139875   2.861   4.991   7.552  0.9045  0.4471  0.8333
 6080TIP3    H239876   2.986   4.915   7.513 -0.6264 -1.0004 -1.4833
 6081TIP3   OH239877   6.007   1.483   1.167 -0.2650  0.0535  0.0541
 6081TIP3    H139878   5.921   1.447   1.188  0.1622 -1.5573 -0.7889
 6081TIP3    H239879   6.040   1.516   1.251 -1.7934  0.9526  0.3390
 6082TIP3   OH239880   6.217   4.769   7.431  0.0851 -0.3601 -0.4317
 6082TIP3    H139881   6.290   4.753   7.372  0.8606 -0.6816  0.5882
 6082TIP3    H239882   6.141   4.777   7.373  0.9179  0.0362 -1.5145
 6083TIP3   OH239883   1.799   1.452   8.568 -0.1087  0.6687  0.2605
 6083TIP3    H139884   1.729   1.503   8.527 -0.7494 -2.0358 -2.3427
 6083TIP3    H239885   1.875   1.465   8.512 -0.2191 -0.9210 -0.3142
 6084TIP3   OH239886   3.486   5.735   2.167 -0.1479  0.4706 -0.3475
 6084TIP3    H139887   3.541   5.814   2.166  0.7978 -0.1714 -0.3500
 6084TIP3    H239888   3.542   5.668   2.205 -1.5036  0.1853  1.2272
 6085TIP3   OH239889   3.202   4.712   2.461 -0.2348 -0.1632  0.0282
 6085TIP3    H139890   3.275   4.693   2.520 -0.3231  1.3530  0.6627
 6085TIP3    H239891   3.132   4.654   2.492 -0.3298  0.7011  1.5615
 6086TIP3   OH239892   6.277   0.877   0.935  0.6622 -0.3022  0.2951
 6086TIP3    H139893   6.338   0.914   0.872  1.3166 -0.9653  0.5241
 6086TIP3    H239894   6.309   0.788   0.951 -1.1950 -1.2379 -0.7088
 6087TIP3   OH239895   5.517   0.234   0.387  0.2832  0.0613  0.0257
 6087TIP3    H139896   5.580   0.299   0.418  0.6985 -0.7832  1.0069
 6087TIP3    H239897   5.521   0.164   0.452 -1.5612 -0.0945  0.0242
 6088TIP3   OH239898   2.900   5.295   8.350  0.6405  0.2607  0.1033
 6088TIP3    H139899   2.954   5.287   8.428 -1.7100 -3.4981  1.6228
 6088TIP3    H239900   2.957   5.268   8.278  1.0224 -3.4680  1.6071
 6089TIP3   OH239901   5.142   3.977   7.317  0.3402  0.0316  0.0746
 6089TIP3    H139902   5.172   4.018   7.236 -0.0483 -0.4002 -0.2998
 6089TIP3    H239903   5.220   3.972   7.372  0.8255 -0.4901 -0.6295
 6090TIP3   OH239904   2.980   1.862   1.500 -0.0376  0.3587 -0.0124
 6090TIP3    H139905   2.902   1.830   1.544 -0.5417 -0.0127 -1.1379
 6090TIP3    H239906   2.947   1.917   1.429  0.6586 -0.6792 -1.1937
 6091TIP3   OH239907   3.581   5.999   1.806 -0.1212  0.6857  0.2174
 6091TIP3    H139908   3.580   6.093   1.788  0.8589  0.6857  0.0755
 6091TIP3    H239909   3.620   5.992   1.894  1.4516  0.3469 -0.4623
 6092TIP3   OH239910   6.342   6.399   8.299  0.3206 -0.2596  0.1292
 6092TIP3    H139911   6.267   6.412   8.241  0.6010  0.2956 -0.1196
 6092TIP3    H239912   6.307   6.418   8.386 -0.0495 -0.8913  0.1214
 6093TIP3   OH239913   5.561   2.288   1.236 -0.7970 -0.3531 -0.0727
 6093TIP3    H139914   5.610   2.368   1.214 -0.8120 -0.2223  0.3578
 6093TIP3    H239915   5.537   2.251   1.151 -1.5977  0.6049 -0.2980
 6094TIP3   OH239916   1.458   0.072   0.836  0.3343  0.5608 -0.0180
 6094TIP3    H139917   1.442   0.126   0.914 -1.4233 -0.6576  0.5242
 6094TIP3    H239918   1.456  -0.018   0.868  2.1179  0.0943 -1.0893
 6095TIP3   OH239919   2.016   6.402   7.038 -0.0344  0.0207 -0.0207
 6095TIP3    H139920   1.986   6.344   6.968  0.5461 -2.1605  1.4465
 6095TIP3    H239921   2.103   6.430   7.009 -0.5420  0.6380 -0.9947
 6096TIP3   OH239922   3.565   0.783   1.494  0.5722  0.9554 -0.2097
 6096TIP3    H139923   3.555   0.689   1.506  2.0323  0.7496 -0.4757
 6096TIP3    H239924   3.508   0.822   1.561  1.0039 -0.1219  0.8081
 6097TIP3   OH239925   0.971   5.985   0.093 -0.4646  0.2751  0.0984
 6097TIP3    H139926   1.001   5.909   0.043  0.5321  1.0048 -0.4399
 6097TIP3    H239927   1.045   6.045   0.093 -1.5465  1.6765 -0.3204
 6098TIP3   OH239928   6.866   5.961   1.471  0.1051 -0.4357  0.1706
 6098TIP3    H139929   6.824   5.980   1.388  0.5945  1.7698  0.3599
 6098TIP3    H239930   6.800   5.914   1.522 -0.5285 -0.9669 -1.1066
 6099TIP3   OH239931   4.893   1.997   2.752  0.0835  0.0462 -0.5561
 6099TIP3    H139932   4.838   1.959   2.683  0.3160 -0.1986 -0.6076
 6099TIP3    H239933   4.861   2.087   2.761 -1.6660 -0.6618  0.8196
 6100TIP3   OH239934   2.241   4.315   2.264  0.3335 -0.3405  0.9183
 6100TIP3    H139935   2.311   4.265   2.222 -1.8716 -3.9468  1.1486
 6100TIP3    H239936   2.243   4.285   2.355 -0.9031  0.2100  1.1386
 6101TIP3   OH239937   2.617   4.587   8.311 -0.0946  0.0478  0.0604
 6101TIP3    H139938   2.563   4.614   8.237  0.7631  2.2475  0.1486
 6101TIP3    H239939   2.575   4.627   8.387 -0.1918 -1.0386  0.5947
 6102TIP3   OH239940   1.187   6.380   1.165  0.1086 -0.2812  0.3897
 6102TIP3    H139941   1.272   6.363   1.206 -0.8719  0.0303  2.7106
 6102TIP3    H239942   1.166   6.469   1.190 -0.0604  0.3979 -1.8878
 6103TIP3   OH239943   5.303   4.060   0.172 -0.0170  0.2843  0.1249
 6103TIP3    H139944   5.247   4.121   0.220 -0.4148  0.8343 -0.9977
 6103TIP3    H239945   5.335   4.111   0.098 -1.0804 -1.1157 -1.3603
 6104TIP3   OH239946   0.719   6.344   1.752 -0.1351 -0.2974 -0.0304
 6104TIP3    H139947   0.674   6.263   1.777 -0.3748 -0.0052  0.4984
 6104TIP3    H239948   0.809   6.333   1.783 -0.4274  0.0625  0.9969
 6105TIP3   OH239949   1.558   2.090   1.501  0.2952 -0.5232  0.2440
 6105TIP3    H139950   1.544   1.999   1.526  1.1805 -1.1347 -1.3617
 6105TIP3    H239951   1.482   2.111   1.446 -0.0890 -0.1594  0.8994
 6106TIP3   OH239952   2.265   6.863   1.201 -0.1684  0.5438 -0.3674
 6106TIP3    H139953   2.170   6.855   1.205 -0.2506  0.9419 -1.2686
 6106TIP3    H239954   2.283   6.885   1.110  0.5708  3.1698  0.3259
 6107TIP3   OH239955   5.501   4.700   0.106 -0.0088 -0.6836  0.0613
 6107TIP3    H139956   5.516   4.739   0.192 -0.4545  1.5358 -0.7987
 6107TIP3    H239957   5.407   4.684   0.103  0.0389 -0.9761  0.0548
 6108TIP3   OH239958   3.495   0.134   2.806 -0.2909  0.2414  0.3758
 6108TIP3    H139959   3.559   0.205   2.798 -0.0205  0.1032  1.2165
 6108TIP3    H239960   3.416   0.176   2.841 -0.6319  0.3890 -0.5437
 6109TIP3   OH239961   6.552   5.172   0.181  0.5808 -0.1291  0.1046
 6109TIP3    H139962   6.522   5.081   0.173 -0.8233  0.4184 -1.3487
 6109TIP3    H239963   6.583   5.179   0.272 -3.3234 -0.9255  1.7019
 6110TIP3   OH239964   1.066   2.794   8.406  0.1315 -0.1894 -0.0790
 6110TIP3    H139965   1.060   2.880   8.448 -0.6267  0.6123 -1.7315
 6110TIP3    H239966   0.982   2.753   8.424 -0.0480 -0.0015 -0.4847
 6111TIP3   OH239967   2.902   4.591   1.016 -0.5691  0.0053  0.5950
 6111TIP3    H139968   2.965   4.653   0.980 -1.5793  0.5432 -0.3057
 6111TIP3    H239969   2.922   4.588   1.110  1.4189 -0.6034  0.2021
 6112TIP3   OH239970   1.408   2.350   2.287 -0.0901 -0.0441 -0.2216
 6112TIP3    H139971   1.482   2.291   2.300 -0.4813 -0.4329  0.2890
 6112TIP3    H239972   1.447   2.437   2.279  0.4814 -0.3468 -0.8318
 6113TIP3   OH239973   4.584   4.721   8.223 -0.4887  0.4331 -0.2428
 6113TIP3    H139974   4.586   4.796   8.282  0.3160  0.5783 -0.4442
 6113TIP3    H239975   4.536   4.653   8.272 -0.7463  0.8898  0.1511
 6114TIP3   OH239976   5.093   1.488   0.279  0.5272  0.1923 -1.2073
 6114TIP3    H139977   5.082   1.493   0.184 -0.3269  1.1414 -1.0874
 6114TIP3    H239978   5.026   1.425   0.307  1.6037 -1.0388 -1.3365
 6115TIP3   OH239979   3.048   6.062   1.789  0.3380 -0.1643  0.2416
 6115TIP3    H139980   2.994   6.125   1.837 -0.1217 -0.8795  0.6815
 6115TIP3    H239981   3.137   6.098   1.795 -0.1957  1.7213 -1.6056
 6116TIP3   OH239982   6.304   2.632   8.382 -0.4690  0.0416 -0.4077
 6116TIP3    H139983   6.398   2.653   8.381  0.0273 -1.7919  1.1914
 6116TIP3    H239984   6.290   2.581   8.303  0.2164 -0.7859 -0.0182
 6117TIP3   OH239985   2.759   2.585   2.845  0.3022  0.9302 -0.0008
 6117TIP3    H139986   2.824   2.520   2.872  0.9242  1.2677 -0.6545
 6117TIP3    H239987   2.787   2.612   2.758 -3.4551 -2.5800 -2.6680
 6118TIP3   OH239988   4.414   0.471   0.954  0.2635 -0.3975 -0.2788
 6118TIP3    H139989   4.509   0.467   0.942  0.2952  1.3090 -0.7943
 6118TIP3    H239990   4.403   0.522   1.034 -0.2285  0.6901 -1.0231
 6119TIP3   OH239991   2.204   3.858   7.620  0.5716 -0.1359 -0.2008
 6119TIP3    H139992   2.250   3.865   7.537  1.1683 -0.9368  0.0555
 6119TIP3    H239993   2.169   3.769   7.621  1.8325 -0.6570  1.0344
 6120TIP3   OH239994   5.779   0.670   0.327  0.3656  0.0801  0.4708
 6120TIP3    H139995   5.846   0.636   0.267  0.4564 -2.1591  1.7455
 6120TIP3    H239996   5.828   0.715   0.395  0.3624  1.0440 -0.1434
 6121TIP3   OH239997   4.417   5.946   1.515  0.6089 -0.3173  0.2307
 6121TIP3    H139998   4.384   5.979   1.599 -1.7258 -0.9050 -0.3728
 6121TIP3    H239999   4.458   6.023   1.474 -0.8744  0.7757  0.6822
 6122TIP3   OH240000   5.204   1.419   0.938  0.4545  0.4443  0.6898
 6122TIP3    H140001   5.196   1.508   0.902  2.3934  0.0294 -0.9917
 6122TIP3    H240002   5.255   1.431   1.018  0.8155  0.8571  0.4072
 6123TIP3   OH240003   6.112   2.025   3.135  0.1667 -0.4868 -0.0611
 6123TIP3    H140004   6.070   2.076   3.204  1.0823  1.4129 -0.8437
 6123TIP3    H240005   6.047   1.958   3.113 -0.1214 -1.2251  2.6334
 6124TIP3   OH240006   4.255   2.368   8.480  0.1801 -0.1054 -0.2263
 6124TIP3    H140007   4.327   2.430   8.493 -0.9784  0.9740  1.4017
 6124TIP3    H240008   4.237   2.372   8.386  0.6239  1.4616 -0.2779
 6125TIP3   OH240009   2.764   6.836   8.344  0.4498 -0.2661 -0.4482
 6125TIP3    H140010   2.825   6.866   8.278 -0.9341  0.9798 -1.2169
 6125TIP3    H240011   2.762   6.905   8.410 -0.9235  0.2321 -0.9852
 6126TIP3   OH240012   4.535   2.979   8.690 -0.7108 -0.1869 -0.1707
 6126TIP3    H140013   4.556   2.929   8.768  0.3542 -0.3534 -0.5459
 6126TIP3    H240014   4.605   3.044   8.684  0.7191 -1.7699 -2.3306
 6127TIP3   OH240015   3.043   4.858   8.198 -0.0282 -0.0523 -0.0646
 6127TIP3    H140016   3.053   4.910   8.118  0.0063  0.4714  0.2768
 6127TIP3    H240017   2.948   4.852   8.209 -0.0364 -0.3700 -0.3034
 6128TIP3   OH240018   2.216   1.975   1.664  0.0554  0.2156  0.4778
 6128TIP3    H140019   2.260   2.017   1.590  0.2220 -0.6589  0.0789
 6128TIP3    H240020   2.259   2.013   1.741  1.3798 -0.4570  0.0962
 6129TIP3   OH240021   1.729   4.579   1.332 -0.0038  0.2850  0.5075
 6129TIP3    H140022   1.657   4.518   1.319 -0.6811  0.4885  2.9005
 6129TIP3    H240023   1.689   4.666   1.329  0.0189  0.3874  2.1981
 6130TIP3   OH240024   0.010   5.512   7.839 -0.2695 -0.0779 -0.0057
 6130TIP3    H140025   0.054   5.433   7.873  0.3404 -0.1982 -1.0359
 6130TIP3    H240026   0.060   5.584   7.877 -0.9091 -0.1659  1.0476
 6131TIP3   OH240027   2.477   6.453   8.589  0.5682  0.0518 -0.1800
 6131TIP3    H140028   2.546   6.470   8.653  1.5467 -0.8478 -0.9645
 6131TIP3    H240029   2.511   6.488   8.507 -0.1757  0.1561 -0.4474
 6132TIP3   OH240030   1.095   2.336   1.473  0.3352  0.5103  0.0049
 6132TIP3    H140031   1.009   2.319   1.511  0.2704  1.4497  0.2825
 6132TIP3    H240032   1.080   2.409   1.412  0.6295 -0.3249 -1.1083
 6133TIP3   OH240033   4.824   3.393   6.917 -0.4785 -0.0750  0.4736
 6133TIP3    H140034   4.802   3.324   6.980 -0.9006  0.6433  1.1301
 6133TIP3    H240035   4.766   3.466   6.939  0.3078  0.6831  0.1145
 6134TIP3   OH240036   1.380   0.457   1.406 -0.1105 -0.2545 -0.7005
 6134TIP3    H140037   1.401   0.547   1.381  1.6371 -0.7238 -1.0634
 6134TIP3    H240038   1.342   0.465   1.493  1.5093  0.7166 -0.0503
 6135TIP3   OH240039   4.537   4.744   7.959  0.0074  0.3050  0.3437
 6135TIP3    H140040   4.564   4.749   8.051  0.0741  0.7485  0.2998
 6135TIP3    H240041   4.617   4.716   7.913  0.2942  1.2216  0.2692
 6136TIP3   OH240042   0.406   2.101   7.995 -0.8774  0.0730 -0.3996
 6136TIP3    H140043   0.486   2.062   8.029 -1.3464  0.0031  0.6487
 6136TIP3    H240044   0.355   2.124   8.072 -0.8642  2.2813 -0.9974
 6137TIP3   OH240045   4.677   2.312   0.052 -0.1031  0.2211 -0.2195
 6137TIP3    H140046   4.613   2.315   0.123  1.5213  0.0059  1.3256
 6137TIP3    H240047   4.726   2.394   0.060 -0.9921  1.0188 -2.2366
 6138TIP3   OH240048   5.131   3.737   0.968  0.3211  0.6630  0.1989
 6138TIP3    H140049   5.185   3.751   1.046  0.7187  0.1099  0.0309
 6138TIP3    H240050   5.107   3.645   0.972 -0.1058  0.7606 -0.0553
 6139TIP3   OH240051   2.398   5.735   1.765 -0.5127 -0.0743 -0.3766
 6139TIP3    H140052   2.459   5.760   1.834 -0.0091 -1.0097 -0.4706
 6139TIP3    H240053   2.440   5.763   1.684  1.1749 -3.1025 -0.7104
 6140TIP3   OH240054   5.452   6.703   7.221 -0.6105  0.6727  0.3797
 6140TIP3    H140055   5.447   6.797   7.240 -0.7340  0.7965 -0.2453
 6140TIP3    H240056   5.442   6.697   7.126  1.6688  0.2077  0.1044
 6141TIP3   OH240057   4.948   2.847   8.424  0.3518 -0.0875  0.1043
 6141TIP3    H140058   4.855   2.836   8.404  0.3436  0.5520 -0.2352
 6141TIP3    H240059   4.994   2.807   8.351  0.3721 -1.4293  0.8119
 6142TIP3   OH240060   0.437   2.031   0.432  0.5975  0.1080 -0.7309
 6142TIP3    H140061   0.356   2.080   0.437  0.0027 -0.6993 -1.9522
 6142TIP3    H240062   0.449   2.013   0.338  0.5499 -2.3847 -0.3426
 6143TIP3   OH240063   2.617   5.530   2.020 -0.3100  0.6330 -0.2199
 6143TIP3    H140064   2.612   5.625   2.010  1.4651  0.8776  0.8881
 6143TIP3    H240065   2.625   5.498   1.930 -1.4415  1.4543 -0.6497
 6144TIP3   OH240066   0.234   2.467   8.348 -0.4459 -0.3627 -0.1639
 6144TIP3    H140067   0.275   2.554   8.345 -0.2740 -0.3922  1.0595
 6144TIP3    H240068   0.140   2.485   8.350 -0.5246 -0.2795 -2.1350
 6145TIP3   OH240069   5.036   5.315   0.137  0.4183 -0.1103  0.0755
 6145TIP3    H140070   4.971   5.385   0.145  1.3506  0.5852  2.2202
 6145TIP3    H240071   4.994   5.240   0.178  0.2870 -0.1872 -0.1939
 6146TIP3   OH240072   6.502   2.028   8.671 -0.1638  0.0034 -0.6438
 6146TIP3    H140073   6.420   1.980   8.658  0.1507 -0.3502 -1.3780
 6146TIP3    H240074   6.478   2.120   8.658 -0.3897 -0.1250 -1.1921
 6147TIP3   OH240075   2.998   3.656   2.471 -0.1581  0.1425  0.4403
 6147TIP3    H140076   3.010   3.691   2.559 -0.4843 -0.2502  0.6465
 6147TIP3    H240077   2.938   3.582   2.482  1.0121 -0.8816  0.1059
 6148TIP3   OH240078   0.864   5.239   0.785 -0.4401 -0.0582  0.4690
 6148TIP3    H140079   0.778   5.251   0.825 -0.2353  0.8714  0.6686
 6148TIP3    H240080   0.917   5.311   0.820  0.1748 -0.1229 -0.2934
 6149TIP3   OH240081   4.377   4.372   0.901 -0.0054 -0.1432  0.1240
 6149TIP3    H140082   4.309   4.376   0.968  1.0054  1.2738  1.1157
 6149TIP3    H240083   4.451   4.330   0.945  1.0117  1.7085  0.2633
 6150TIP3   OH240084   2.569   1.966   0.078 -0.3429 -0.1822 -0.3793
 6150TIP3    H140085   2.552   1.873   0.090  0.9352 -0.2659  1.1265
 6150TIP3    H240086   2.640   1.986   0.140 -0.1261  1.6436 -1.1436
 6151TIP3   OH240087   2.209   0.009   1.727 -0.2967  0.3501 -0.0340
 6151TIP3    H140088   2.207  -0.053   1.800 -2.3739 -0.4137 -0.6469
 6151TIP3    H240089   2.241   0.090   1.765  0.7105 -0.5877  1.2280
 6152TIP3   OH240090   5.540   1.622   1.101 -0.0287 -0.2330  1.1185
 6152TIP3    H140091   5.476   1.656   1.039  0.6482 -1.4079 -0.2818
 6152TIP3    H240092   5.606   1.691   1.108  1.0403 -0.9254 -1.2471
 6153TIP3   OH240093   5.030   1.692   7.657 -0.2889 -0.0012 -0.1336
 6153TIP3    H140094   5.073   1.753   7.717 -0.4643  1.4010 -1.3820
 6153TIP3    H240095   5.086   1.692   7.579 -0.4263 -1.2810 -0.2626
 6154TIP3   OH240096   5.775   4.586   1.035  0.4696  0.1473 -0.0012
 6154TIP3    H140097   5.708   4.607   1.099  0.5199 -0.6212  0.3121
 6154TIP3    H240098   5.764   4.652   0.966 -1.0244 -0.3418 -0.2678
 6155TIP3   OH240099   2.362   5.048   0.861  0.3757 -0.2649  0.6502
 6155TIP3    H140100   2.381   5.090   0.945  0.2305  0.6855  0.2155
 6155TIP3    H240101   2.283   4.995   0.877  0.4581 -0.2352  1.1531
 6156TIP3   OH240102   4.924   5.499   1.910  0.4170 -0.0487  0.1745
 6156TIP3    H140103   4.896   5.507   2.001 -0.9392 -1.4857 -0.0716
 6156TIP3    H240104   4.842   5.496   1.860  1.1243 -0.1704 -1.0098
 6157TIP3   OH240105   0.880   2.458   3.170  0.0835  0.7780 -0.2823
 6157TIP3    H140106   0.817   2.462   3.241  0.0493 -2.2175 -0.0336
 6157TIP3    H240107   0.866   2.373   3.129  1.7996  1.3612 -2.2919
 6158TIP3   OH240108   3.906   2.061   0.295 -0.2560  0.3441 -0.6454
 6158TIP3    H140109   3.841   2.031   0.232 -1.1940 -0.6102  0.7183
 6158TIP3    H240110   3.979   2.001   0.284 -1.0581 -0.8359  0.2351
 6159TIP3   OH240111   1.037   4.385   0.391  0.1097  0.4254  0.0350
 6159TIP3    H140112   1.093   4.322   0.347 -0.3937  0.8533 -1.2658
 6159TIP3    H240113   0.952   4.341   0.398 -0.3902  1.1274 -1.3584
 6160TIP3   OH240114   1.856   0.408   8.138  0.2371  0.7728  0.2553
 6160TIP3    H140115   1.937   0.365   8.164  1.5609  2.1807 -1.3158
 6160TIP3    H240116   1.805   0.340   8.094  0.6689 -0.0629  1.0221
 6161TIP3   OH240117   2.990   5.932   0.059 -0.1484 -0.2535  0.1961
 6161TIP3    H140118   2.897   5.913   0.046 -0.0592 -0.6167  0.0494
 6161TIP3    H240119   3.027   5.849   0.088 -0.1668  0.3120  1.9261
 6162TIP3   OH240120   3.927   1.154   7.825 -0.3247 -0.5718  0.3556
 6162TIP3    H140121   3.919   1.083   7.763 -0.3318  0.7594 -1.2369
 6162TIP3    H240122   3.847   1.150   7.878 -1.0201 -0.8445 -0.6969
 6163TIP3   OH240123   3.525   4.150   1.976  0.4349 -0.3143  0.1663
 6163TIP3    H140124   3.443   4.195   1.993  1.4511  1.8473 -0.3035
 6163TIP3    H240125   3.516   4.116   1.887  0.5233  1.0810 -0.3890
 6164TIP3   OH240126   3.476   6.444   0.253 -0.1510  0.1168 -0.3683
 6164TIP3    H140127   3.410   6.437   0.184 -0.3844 -0.1686 -0.1211
 6164TIP3    H240128   3.443   6.511   0.312 -0.8462 -0.8647  0.4110
 6165TIP3   OH240129   1.872   1.067   2.304  0.5315 -0.8525  0.1434
 6165TIP3    H140130   1.912   1.144   2.345 -0.2684 -0.6302  0.5213
 6165TIP3    H240131   1.841   1.014   2.378 -1.0593 -0.3750 -0.1642
 6166TIP3   OH240132   6.852   2.118   0.486 -0.7658 -0.5098  0.1797
 6166TIP3    H140133   6.826   2.131   0.577 -3.8350 -0.7422 -0.5517
 6166TIP3    H240134   6.835   2.025   0.469 -0.5975 -0.3818 -0.7464
 6167TIP3   OH240135   4.981   1.165   2.558  0.0472 -0.2165 -0.0010
 6167TIP3    H140136   5.046   1.112   2.603  1.6046  0.5265 -1.2865
 6167TIP3    H240137   5.029   1.243   2.530 -1.5993  0.7365 -0.2820
 6168TIP3   OH240138   4.473   0.951   2.403 -0.0537  0.2065 -0.2867
 6168TIP3    H140139   4.548   1.009   2.384 -0.7454  0.9871 -0.6948
 6168TIP3    H240140   4.432   0.937   2.318 -0.3936 -0.1942 -0.0562
 6169TIP3   OH240141   2.943   2.449   8.708  0.3082  0.1425  0.0284
 6169TIP3    H140142   3.011   2.514   8.688  1.8057 -1.5303 -0.6548
 6169TIP3    H240143   2.864   2.483   8.668  0.6429  2.3094  1.0747
 6170TIP3   OH240144   1.958   0.373   0.245  0.5177 -0.0978  0.0925
 6170TIP3    H140145   1.902   0.449   0.259  0.9732 -0.2452  3.3544
 6170TIP3    H240146   1.903   0.310   0.198 -2.2626 -0.3047  3.2733
 6171TIP3   OH240147   6.049   4.000   0.300 -0.4234 -0.1951 -0.0856
 6171TIP3    H140148   6.051   3.918   0.251  1.4136 -0.2344 -0.0300
 6171TIP3    H240149   5.993   3.982   0.375  0.6310 -1.7047  0.3883
 6172TIP3   OH240150   6.691   4.519   2.565  0.0579  0.3114 -0.0055
 6172TIP3    H140151   6.764   4.490   2.620 -1.1116  0.3658  1.6604
 6172TIP3    H240152   6.723   4.598   2.522  0.8895  0.4955  0.9095
 6173TIP3   OH240153   1.111   1.508   1.836 -0.2841 -0.0520  0.0248
 6173TIP3    H140154   1.073   1.563   1.767  2.2055 -0.7274 -2.0496
 6173TIP3    H240155   1.054   1.431   1.838 -1.9836  1.1689  0.7529
 6174TIP3   OH240156   4.094   3.632   6.917 -0.0199  0.7665 -0.5391
 6174TIP3    H140157   4.109   3.548   6.874 -0.9845 -0.0351  0.5988
 6174TIP3    H240158   4.083   3.609   7.010  1.4694  2.3527  0.0845
 6175TIP3   OH240159   3.878   4.665   8.733 -0.0123 -0.5261  0.2278
 6175TIP3    H140160   3.940   4.646   8.803 -0.2500  1.3043  0.9932
 6175TIP3    H240161   3.793   4.669   8.777 -0.5432 -1.8888 -0.6201
 6176TIP3   OH240162   1.737   5.609   1.491  0.0135 -0.2663  0.2114
 6176TIP3    H140163   1.749   5.643   1.580  0.7874  1.1381 -0.3860
 6176TIP3    H240164   1.797   5.662   1.438  1.2414 -2.5627 -0.8207
 6177TIP3   OH240165   1.781   5.888   0.824 -0.1782 -0.5062  0.4179
 6177TIP3    H140166   1.770   5.931   0.739  0.2529  0.1623  0.6892
 6177TIP3    H240167   1.862   5.926   0.859 -0.8243 -0.0987  1.5178
 6178TIP3   OH240168   2.789   5.388   7.296 -0.0222  0.5499  0.0993
 6178TIP3    H140169   2.863   5.374   7.356 -0.8745 -0.7324  0.8807
 6178TIP3    H240170   2.733   5.312   7.309 -0.4258  0.4247 -2.0785
 6179TIP3   OH240171   3.884   2.255   3.196  0.9771 -0.0100  0.1297
 6179TIP3    H140172   3.978   2.240   3.183  0.8981 -1.0735  0.6876
 6179TIP3    H240173   3.846   2.167   3.204 -0.2083  0.3704 -0.9539
 6180TIP3   OH240174   3.073   5.621   0.834  0.1787  0.4359  0.0656
 6180TIP3    H140175   3.105   5.530   0.827  0.6935  0.5798  0.4488
 6180TIP3    H240176   2.978   5.613   0.835  0.2211 -0.1103  0.1777
 6181TIP3   OH240177   1.534   3.510   0.453 -0.4062  0.1877 -0.1328
 6181TIP3    H140178   1.544   3.414   0.454 -0.9321  0.0495 -2.6275
 6181TIP3    H240179   1.619   3.542   0.423 -0.3306  0.5021  0.4079
 6182TIP3   OH240180   0.357   4.808   2.589  0.2742  0.5455  0.4545
 6182TIP3    H140181   0.428   4.872   2.588  1.5582 -0.7868 -1.7404
 6182TIP3    H240182   0.362   4.767   2.675  0.3652  2.3097  1.3478
 6183TIP3   OH240183   6.320   3.811   1.504 -0.6651  0.0442  0.1436
 6183TIP3    H140184   6.340   3.896   1.543 -0.5383  0.4077 -0.7011
 6183TIP3    H240185   6.299   3.755   1.579  1.0347  0.3066  0.8612
 6184TIP3   OH240186   1.741   2.767   1.775 -0.6165  0.0476 -0.0606
 6184TIP3    H140187   1.698   2.781   1.691 -0.4674  0.6922 -0.0365
 6184TIP3    H240188   1.808   2.700   1.758  0.7864  1.5970 -0.9428
 6185TIP3   OH240189   2.103   1.277   1.012 -0.5444  0.4225  0.0592
 6185TIP3    H140190   2.127   1.369   1.019  0.7344  0.0642  0.5777
 6185TIP3    H240191   2.030   1.276   0.949 -1.7515  1.9590  1.3692
 6186TIP3   OH240192   0.745   5.160   1.420 -0.7832 -0.6077  0.2197
 6186TIP3    H140193   0.706   5.195   1.340 -1.0242 -2.5215 -0.5557
 6186TIP3    H240194   0.839   5.175   1.410 -0.6988 -1.7918 -0.9590
 6187TIP3   OH240195   2.660   0.905   7.502 -0.0988  0.2240 -0.6329
 6187TIP3    H140196   2.584   0.847   7.500  1.7194 -2.3955  0.5959
 6187TIP3    H240197   2.724   0.863   7.445  1.3213  0.9614  0.3547
 6188TIP3   OH240198   2.584   5.031   1.952  0.4237 -0.2002  0.4950
 6188TIP3    H140199   2.528   4.958   1.978 -0.4223 -0.0140 -0.7017
 6188TIP3    H240200   2.538   5.109   1.984  0.1996 -0.0721 -0.1232
 6189TIP3   OH240201   1.137   0.456   7.863 -0.4167  0.3799  0.0161
 6189TIP3    H140202   1.155   0.362   7.870 -2.3173 -0.1654 -1.4803
 6189TIP3    H240203   1.050   0.466   7.901  0.6958  1.9988  2.3485
 6190TIP3   OH240204   3.377   5.389   2.401 -0.0936  0.3349 -0.2733
 6190TIP3    H140205   3.413   5.364   2.486  1.5954  2.2765 -0.3332
 6190TIP3    H240206   3.436   5.348   2.338 -0.4453  0.1368 -0.4711
 6191TIP3   OH240207   5.484   2.310   7.170 -0.4153 -0.4049  0.1678
 6191TIP3    H140208   5.564   2.305   7.117 -0.0010 -0.5085  0.7882
 6191TIP3    H240209   5.445   2.394   7.147 -0.0663 -0.3026 -0.0577
 6192TIP3   OH240210   1.837   4.952   6.755  0.0848 -0.0598 -0.6658
 6192TIP3    H140211   1.919   4.999   6.765  1.4852 -2.3020 -0.8152
 6192TIP3    H240212   1.863   4.861   6.742 -2.4277 -0.8087 -1.0617
 6193TIP3   OH240213   4.977   4.928   2.562 -0.3912  0.0204 -0.2596
 6193TIP3    H140214   5.024   4.975   2.494 -1.6806  2.1021  0.1940
 6193TIP3    H240215   5.042   4.871   2.603  1.1113  1.0006 -1.2283
 6194TIP3   OH240216   0.164   6.298   8.414  0.2780 -0.2937 -0.2497
 6194TIP3    H140217   0.099   6.361   8.445 -0.3515 -1.3056  0.5527
 6194TIP3    H240218   0.167   6.312   8.319 -0.7619  0.0931 -0.2426
 6195TIP3   OH240219   6.389   5.149   2.467 -0.8473  0.4940 -0.5509
 6195TIP3    H140220   6.446   5.108   2.402 -1.5076  0.1237 -0.9066
 6195TIP3    H240221   6.449   5.185   2.533 -0.2301 -0.6887 -0.4388
 6196TIP3   OH240222   6.682   1.590   0.472  0.3256  0.3808  0.0680
 6196TIP3    H140223   6.741   1.515   0.462  1.7823  1.3633  0.9171
 6196TIP3    H240224   6.671   1.601   0.566 -4.0356 -1.7939  0.0762
 6197TIP3   OH240225   5.389   1.726   0.494 -0.2419 -0.4560 -0.1668
 6197TIP3    H140226   5.413   1.702   0.405 -0.2203 -0.2998 -0.2036
 6197TIP3    H240227   5.299   1.696   0.504  0.2799 -1.9491  0.3062
 6198TIP3   OH240228   3.069   5.393   6.506  0.4539  0.2601  0.1297
 6198TIP3    H140229   3.116   5.422   6.585 -0.1505  2.9510 -0.4082
 6198TIP3    H240230   3.138   5.363   6.447  1.2044  0.9604  0.6256
 6199TIP3   OH240231   5.960   0.866   7.946 -0.1563 -0.3228 -0.5721
 6199TIP3    H140232   5.898   0.859   8.018 -0.9507 -0.3115 -1.2447
 6199TIP3    H240233   6.011   0.785   7.949  0.9655  0.3912  1.0219
 6200TIP3   OH240234   1.890   4.668   6.765  1.0483 -0.3729  0.4334
 6200TIP3    H140235   1.941   4.590   6.749  1.2043 -0.2025  0.1021
 6200TIP3    H240236   1.808   4.636   6.804  1.4890 -0.6290  1.1695
 6201TIP3   OH240237   0.614   2.735   7.936  0.1096 -0.3979 -0.0511
 6201TIP3    H140238   0.602   2.759   7.844  2.3452 -1.5463 -0.6987
 6201TIP3    H240239   0.563   2.655   7.947 -0.2270 -0.2155 -0.2551
 6202TIP3   OH240240   0.919   2.494   7.120  0.3504 -0.0609 -0.5172
 6202TIP3    H140241   0.952   2.443   7.046 -0.6822 -1.2848 -0.1691
 6202TIP3    H240242   0.824   2.487   7.114  0.2462 -0.5528  1.1620
 6203TIP3   OH240243   2.907   3.367   8.150 -0.3774 -0.5356 -0.1560
 6203TIP3    H140244   2.883   3.429   8.082 -0.9868  0.5118  0.9769
 6203TIP3    H240245   3.003   3.367   8.149 -0.3504 -1.7390 -2.0379
 6204TIP3   OH240246   4.682   4.653   0.259  0.3049  0.2768 -0.4271
 6204TIP3    H140247   4.721   4.728   0.213  0.8522  0.0838 -0.2808
 6204TIP3    H240248   4.750   4.586   0.257  0.1038  0.0546  0.1297
 6205TIP3   OH240249   1.379   2.260   8.492 -0.0368 -0.0679 -0.2307
 6205TIP3    H140250   1.312   2.292   8.551 -0.1629  1.6870 -1.2508
 6205TIP3    H240251   1.334   2.196   8.437 -0.6922  0.4809 -0.3546
 6206TIP3   OH240252   5.568   4.006   7.520 -0.2375  0.2455 -0.6220
 6206TIP3    H140253   5.641   4.039   7.572 -0.9883  1.4104 -0.2685
 6206TIP3    H240254   5.586   4.037   7.431  1.5719 -2.5942 -1.3771
 6207TIP3   OH240255   0.034   0.385   8.303 -0.3844  0.4358  0.1967
 6207TIP3    H140256   0.093   0.360   8.231 -0.9388 -2.8011  0.7193
 6207TIP3    H240257   0.086   0.445   8.356  1.4705 -0.1503 -0.8501
 6208TIP3   OH240258   4.931   3.749   0.331  0.0831  0.4135 -0.3121
 6208TIP3    H140259   5.023   3.770   0.317  0.3052 -0.7988 -0.8249
 6208TIP3    H240260   4.882   3.821   0.292  0.8052  0.5217 -1.0263
 6209TIP3   OH240261   2.944   3.624   2.860  0.0510 -0.3835  0.1591
 6209TIP3    H140262   3.014   3.683   2.833 -1.8156  1.9609  0.0624
 6209TIP3    H240263   2.923   3.652   2.950 -1.6072 -0.0592 -0.2837
 6210TIP3   OH240264   5.413   3.383   0.449 -0.0736  0.1935  0.1122
 6210TIP3    H140265   5.361   3.420   0.378 -0.3941 -1.5711 -0.6323
 6210TIP3    H240266   5.488   3.342   0.405 -1.0322 -2.2317  0.5583
 6211TIP3   OH240267   5.303   0.867   1.388  0.6395 -0.1311 -0.3823
 6211TIP3    H140268   5.304   0.893   1.296  0.2777 -1.3376 -0.7476
 6211TIP3    H240269   5.354   0.786   1.390  1.5443  0.4349  0.6696
 6212TIP3   OH240270   4.192   6.357   2.325  0.0424  0.3750  0.7627
 6212TIP3    H140271   4.098   6.368   2.342  0.3323  0.5472  2.3721
 6212TIP3    H240272   4.197   6.347   2.230 -1.5505  0.9097  0.5812
 6213TIP3   OH240273   4.904   0.911   0.535 -0.0068 -0.2284 -0.3674
 6213TIP3    H140274   4.886   0.832   0.586 -0.3438 -0.7515 -1.2904
 6213TIP3    H240275   4.899   0.982   0.599 -0.1307 -0.9017  0.3866
 6214TIP3   OH240276   3.939   6.607   1.955 -0.1154 -0.5284  0.2118
 6214TIP3    H140277   3.899   6.687   1.989 -0.9459 -0.9147  0.1530
 6214TIP3    H240278   3.896   6.593   1.871  3.6600  1.8691 -2.4631
 6215TIP3   OH240279   6.829   6.390   1.299 -0.0433 -0.3407 -0.1894
 6215TIP3    H140280   6.875   6.316   1.260  0.5120 -0.5632  0.8467
 6215TIP3    H240281   6.738   6.362   1.307  0.3718 -1.3890  1.2822
 6216TIP3   OH240282   2.113   6.732   0.490 -0.2531 -0.2970 -0.3991
 6216TIP3    H140283   2.061   6.689   0.558  0.8624  0.9371  1.3006
 6216TIP3    H240284   2.064   6.717   0.409 -2.3578 -0.5921  0.8721
 6217TIP3   OH240285   4.048   5.824   8.507 -0.1282 -0.0337  0.1267
 6217TIP3    H140286   3.974   5.773   8.540 -1.6558  2.4829  0.8712
 6217TIP3    H240287   4.119   5.760   8.498 -1.3303 -1.9468  2.7690
 6218TIP3   OH240288   2.567   5.270   7.679  0.0760  0.2074  0.3399
 6218TIP3    H140289   2.518   5.293   7.757 -1.2776  0.5376 -0.5777
 6218TIP3    H240290   2.508   5.213   7.629  1.1061 -0.4228 -0.2044
 6219TIP3   OH240291   5.681   6.353   1.227  0.2003 -0.2421 -0.5255
 6219TIP3    H140292   5.681   6.262   1.196 -1.6278 -0.8642  1.0774
 6219TIP3    H240293   5.770   6.368   1.257  0.5459 -1.5004 -0.8487
 6220TIP3   OH240294   6.159   1.723   0.245  0.3014 -0.0802  0.2335
 6220TIP3    H140295   6.230   1.658   0.240  1.1527  0.6498  1.9063
 6220TIP3    H240296   6.121   1.710   0.332 -3.0783 -1.8305 -1.3026
 6221TIP3   OH240297   1.523   6.236   3.044  0.5914 -0.0610  0.1838
 6221TIP3    H140298   1.600   6.181   3.057  1.9297  1.2938 -1.5126
 6221TIP3    H240299   1.537   6.311   3.102 -0.3941 -0.6470  1.2255
 6222TIP3   OH240300   0.659   5.635   0.697  0.4716  0.6060  0.1329
 6222TIP3    H140301   0.685   5.723   0.727 -1.7713  1.0743  0.9194
 6222TIP3    H240302   0.620   5.650   0.611 -2.2041  0.8442  1.3081
 6223TIP3   OH240303   3.326   2.119   1.946 -0.3723 -0.3153 -0.6378
 6223TIP3    H140304   3.405   2.171   1.963 -1.6599  1.9049 -1.0322
 6223TIP3    H240305   3.259   2.184   1.923 -2.1765 -2.1632 -0.8975
 6224TIP3   OH240306   5.440   2.133   6.836 -0.5784 -0.6312  0.2221
 6224TIP3    H140307   5.514   2.176   6.880  0.1748  2.2584 -3.3509
 6224TIP3    H240308   5.480   2.063   6.784 -0.0556  1.3075 -2.1770
 6225TIP3   OH240309   3.065   3.880   8.286 -0.3608 -0.5024 -0.2369
 6225TIP3    H140310   2.994   3.910   8.230 -2.4904 -0.4689  2.3069
 6225TIP3    H240311   3.136   3.943   8.273 -1.8323  1.0775 -0.8109
 6226TIP3   OH240312   6.713   4.064   0.054  0.2566  0.4333  0.0722
 6226TIP3    H140313   6.759   3.993   0.098  1.7531  1.5192  0.3607
 6226TIP3    H240314   6.749   4.064  -0.035 -1.0668 -0.2870 -0.4962
 6227TIP3   OH240315   1.022   2.452   0.754  0.0738 -0.0837 -0.0518
 6227TIP3    H140316   0.939   2.457   0.708 -0.0241 -0.3882  0.0911
 6227TIP3    H240317   1.069   2.380   0.712  0.6507  0.6764 -0.7511
 6228TIP3   OH240318   3.382   2.745   0.845 -0.1672 -0.2410  0.2033
 6228TIP3    H140319   3.290   2.765   0.859  0.1880  0.9666  0.9346
 6228TIP3    H240320   3.418   2.729   0.932  0.6568  0.9324  0.1059
 6229TIP3   OH240321   2.967   2.215   8.361  0.1869  0.2384 -0.0897
 6229TIP3    H140322   2.976   2.199   8.455 -0.9424  2.0179  0.3615
 6229TIP3    H240323   2.883   2.176   8.338  1.8362 -3.1426 -1.1614
 6230TIP3   OH240324   3.580   5.721   8.243 -1.2198 -0.2306 -0.6299
 6230TIP3    H140325   3.503   5.772   8.220 -1.4976 -0.0391  0.6761
 6230TIP3    H240326   3.624   5.705   8.159 -0.7116  2.7915 -1.0661
 6231TIP3   OH240327   2.362   6.418   2.990 -0.0160 -0.1313 -0.6013
 6231TIP3    H140328   2.421   6.343   2.995  0.0027 -0.1108 -0.5267
 6231TIP3    H240329   2.394   6.479   3.056 -0.2235 -0.1921 -0.4417
 6232TIP3   OH240330   4.845   3.116   0.767  0.0163 -0.0008 -0.3952
 6232TIP3    H140331   4.924   3.115   0.712  0.6068 -1.9845  0.3736
 6232TIP3    H240332   4.877   3.135   0.855 -0.3066 -0.9943 -0.0464
 6233TIP3   OH240333   0.767   3.696   1.771  0.2439 -0.3245  0.3598
 6233TIP3    H140334   0.734   3.696   1.681 -0.7767 -0.7663  0.7059
 6233TIP3    H240335   0.858   3.668   1.764  0.3801  0.3322 -0.5937
 6234TIP3   OH240336   5.488   3.588   0.255 -0.0618  0.0850 -0.7823
 6234TIP3    H140337   5.576   3.557   0.275 -0.0575 -0.6591 -1.8991
 6234TIP3    H240338   5.454   3.619   0.339  0.2522 -2.1782  0.2477
 6235TIP3   OH240339   5.764   1.712   2.141 -0.4856 -0.6593  0.2047
 6235TIP3    H140340   5.690   1.664   2.178 -1.2695  0.2342 -0.1830
 6235TIP3    H240341   5.742   1.723   2.049 -0.8756  1.4401  0.5048
 6236TIP3   OH240342   0.636   3.345   1.627 -0.3491  0.4718 -0.1768
 6236TIP3    H140343   0.649   3.374   1.537 -1.3621  2.2013  0.1926
 6236TIP3    H240344   0.575   3.409   1.664 -1.3352 -1.1900  1.2241
 6237TIP3   OH240345   1.348   2.204   1.307  0.1695 -0.7883  0.3871
 6237TIP3    H140346   1.361   2.284   1.358  2.5589  0.9867 -2.6096
 6237TIP3    H240347   1.315   2.235   1.222 -0.7700 -3.2056 -0.2078
 6238TIP3   OH240348   5.624   4.592   1.860  0.2879  0.4487 -0.2170
 6238TIP3    H140349   5.683   4.570   1.788  0.3019  0.5864 -0.2480
 6238TIP3    H240350   5.546   4.539   1.845 -0.0906  1.1595 -0.8546
 6239TIP3   OH240351   2.229   5.801   8.384 -0.3202  0.2176 -0.1491
 6239TIP3    H140352   2.272   5.874   8.339 -2.5375  1.9384  0.3423
 6239TIP3    H240353   2.204   5.837   8.469  0.4413 -1.8404  1.0240
 6240TIP3   OH240354   6.758   6.295   7.641  0.2043  0.4204  0.2399
 6240TIP3    H140355   6.740   6.296   7.547  2.2504  2.4417 -0.2265
 6240TIP3    H240356   6.837   6.349   7.651 -0.3708  0.9006  3.2091
 6241TIP3   OH240357   5.234   0.632   2.811 -0.7583 -0.5285  0.0884
 6241TIP3    H140358   5.251   0.550   2.765  2.4012 -0.0287  0.1038
 6241TIP3    H240359   5.235   0.699   2.742  0.7430 -0.1308  0.4547
 6242TIP3   OH240360   3.378   2.435   1.339 -0.0290  0.4017 -0.6188
 6242TIP3    H140361   3.285   2.451   1.321 -0.4502  0.0838  1.1127
 6242TIP3    H240362   3.381   2.342   1.365  0.1931  1.1726  2.5118
 6243TIP3   OH240363   0.988   6.195   2.566  0.3945 -0.0578  0.3129
 6243TIP3    H140364   1.046   6.191   2.642  0.7138  1.3252  0.1597
 6243TIP3    H240365   1.043   6.230   2.496 -0.7831  2.0035  0.3563
 6244TIP3   OH240366   2.748   1.443   8.119 -0.2606 -0.0791  0.0930
 6244TIP3    H140367   2.663   1.432   8.161 -0.2941  1.3953  0.4810
 6244TIP3    H240368   2.812   1.418   8.185 -0.3691 -0.6741 -0.0195
 6245TIP3   OH240369   0.157   2.381   1.534  0.5224 -0.7093 -0.3320
 6245TIP3    H140370   0.148   2.473   1.509 -1.2362 -1.0677 -1.1973
 6245TIP3    H240371   0.247   2.373   1.564  0.8591  1.1839 -0.7011
 6246TIP3   OH240372   5.568   4.779   1.576  0.5625 -0.3426  0.0631
 6246TIP3    H140373   5.571   4.689   1.608 -0.1787 -0.4367 -0.1292
 6246TIP3    H240374   5.551   4.771   1.482  0.7123 -0.0107  0.0071
 6247TIP3   OH240375   6.358   1.578   0.063 -0.0188 -0.3868 -0.4694
 6247TIP3    H140376   6.369   1.618  -0.023  1.1303 -0.0596 -0.1786
 6247TIP3    H240377   6.422   1.507   0.065 -0.7988 -1.1166 -0.2864
 6248TIP3   OH240378   6.727   5.836   2.978  0.6819  0.3209  0.0283
 6248TIP3    H140379   6.701   5.754   2.936  2.0737 -0.0549 -0.1498
 6248TIP3    H240380   6.667   5.845   3.052 -0.7287  0.1346 -1.0397
 6249TIP3   OH240381   5.743   4.120   2.301  0.2368  0.2208  0.0603
 6249TIP3    H140382   5.670   4.072   2.342 -0.0492 -0.6639 -1.4298
 6249TIP3    H240383   5.722   4.212   2.318  0.2778 -0.0875  2.1060
 6250TIP3   OH240384   0.925   4.181   2.317 -0.4287 -0.4668  0.0772
 6250TIP3    H140385   0.960   4.096   2.342  1.3668 -0.2812 -1.5755
 6250TIP3    H240386   0.840   4.161   2.277  0.0557 -1.5073 -0.4535
 6251TIP3   OH240387   6.552   5.975   2.005 -0.1611  0.4025 -0.2661
 6251TIP3    H140388   6.522   5.886   1.986  2.1295 -0.5061  0.0456
 6251TIP3    H240389   6.591   5.968   2.092  2.1414  1.0997 -1.1689
 6252TIP3   OH240390   6.702   2.866   8.671  0.1057  0.7257  0.5774
 6252TIP3    H140391   6.721   2.778   8.702  0.1728  0.5879  0.1450
 6252TIP3    H240392   6.776   2.889   8.616  0.1798  1.1277  0.8410
 6253TIP3   OH240393   3.948   2.911   8.386  0.2167  0.6035  1.0745
 6253TIP3    H140394   3.881   2.946   8.327 -0.8707  0.2346  2.0356
 6253TIP3    H240395   4.031   2.931   8.343 -0.5244  0.4902 -0.4840
 6254TIP3   OH240396   6.865   4.856   0.724  0.2353  0.6602  0.7542
 6254TIP3    H140397   6.833   4.802   0.651 -1.8316  1.3614  1.0843
 6254TIP3    H240398   6.951   4.819   0.744 -0.0151 -0.8725 -0.6846
 6255TIP3   OH240399   6.567   0.043   8.552  0.2837 -0.1860  0.2324
 6255TIP3    H140400   6.630   0.111   8.527 -2.5971  2.1292 -1.3615
 6255TIP3    H240401   6.583   0.030   8.646  2.1584  1.3324  0.2017
 6256TIP3   OH240402   1.953   6.717   0.274  0.7424 -0.3920  0.5039
 6256TIP3    H140403   1.907   6.674   0.202 -0.7807  0.0652  1.1676
 6256TIP3    H240404   1.884   6.738   0.337  2.0389 -0.8421  2.1378
 6257TIP3   OH240405   1.763   3.839   1.663 -0.0916  0.3104 -0.5675
 6257TIP3    H140406   1.841   3.791   1.636 -0.7105  0.0170 -1.8868
 6257TIP3    H240407   1.741   3.895   1.589 -2.3689 -1.1794 -1.1201
 6258TIP3   OH240408   1.120   3.268   0.383 -0.2484 -0.3325  0.3880
 6258TIP3    H140409   1.165   3.339   0.429 -0.6197  1.4215 -1.7861
 6258TIP3    H240410   1.191   3.212   0.350  0.4031  1.7400 -1.9791
 6259TIP3   OH240411   3.613   3.217   0.573  0.4661  0.2579  0.2424
 6259TIP3    H140412   3.689   3.161   0.581  0.6446  0.4766  0.1034
 6259TIP3    H240413   3.570   3.188   0.492  0.7027  0.4913  0.0304
 6260TIP3   OH240414   0.840   2.044   7.823  0.3748 -0.8334 -0.4041
 6260TIP3    H140415   0.835   2.120   7.764  1.6125 -0.8337 -0.5342
 6260TIP3    H240416   0.849   2.082   7.910  1.2499 -0.8126 -0.4938
 6261TIP3   OH240417   3.728   2.067   0.628  0.2429 -0.1108 -0.4811
 6261TIP3    H140418   3.799   2.004   0.618  1.0849  1.0098 -1.7802
 6261TIP3    H240419   3.703   2.060   0.721  1.7893 -0.7887 -0.0893
 6262TIP3   OH240420   6.830   0.784   0.806 -0.3666 -0.3595  0.0190
 6262TIP3    H140421   6.887   0.759   0.733  0.9846 -0.5254  1.0981
 6262TIP3    H240422   6.831   0.880   0.805 -0.7164 -0.3522 -0.4273
 6263TIP3   OH240423   4.018   3.797   7.787  0.5080 -0.2514 -0.4551
 6263TIP3    H140424   3.988   3.826   7.874 -0.0381  0.7619 -0.9605
 6263TIP3    H240425   4.110   3.774   7.800 -0.1462 -2.4641  0.9180
 6264TIP3   OH240426   4.217   6.113   0.348  0.0789 -0.3766 -0.0330
 6264TIP3    H140427   4.235   6.149   0.261 -0.3353  1.0760  0.4647
 6264TIP3    H240428   4.259   6.174   0.409 -1.1137 -0.4261  0.8671
 6265TIP3   OH240429   2.665   1.446   7.849 -0.2363  0.4122  0.2717
 6265TIP3    H140430   2.599   1.514   7.839  2.7260  3.5198  0.1011
 6265TIP3    H240431   2.684   1.444   7.943 -0.5702 -0.5124  0.3299
 6266TIP3   OH240432   0.639   2.413   8.194  0.0684 -0.3053 -0.5826
 6266TIP3    H140433   0.695   2.346   8.155  1.4766  0.1455  0.5500
 6266TIP3    H240434   0.673   2.422   8.284 -3.2101 -1.5608  0.9297
 6267TIP3   OH240435   4.700   3.419   7.693  0.2803  0.1634 -0.0409
 6267TIP3    H140436   4.631   3.434   7.628 -0.2969 -0.1671  0.4873
 6267TIP3    H240437   4.711   3.324   7.694 -0.5156  0.0644  1.1494
 6268TIP3   OH240438   2.824   1.397   1.560  0.3790  0.1265 -0.3025
 6268TIP3    H140439   2.893   1.377   1.624 -0.6201 -1.9827  0.2347
 6268TIP3    H240440   2.849   1.347   1.482 -0.5520 -0.7648 -0.0575
 6269TIP3   OH240441   2.328   4.719   0.618 -0.4018  0.0075 -0.4405
 6269TIP3    H140442   2.339   4.688   0.708  0.5586  1.5739  0.0193
 6269TIP3    H240443   2.389   4.792   0.610  0.7634 -1.1260 -2.8963
 6270TIP3   OH240444   0.118   6.584   0.192 -0.1017 -0.1882 -0.1080
 6270TIP3    H140445   0.080   6.516   0.247  0.9169 -0.2786  0.5220
 6270TIP3    H240446   0.189   6.620   0.245 -0.1694  0.8789 -0.7142
 6271TIP3   OH240447   0.886   2.153   0.579 -0.3539  0.5403  0.1700
 6271TIP3    H140448   0.824   2.201   0.633 -1.6286 -2.1665  1.3014
 6271TIP3    H240449   0.831   2.101   0.520  0.8912 -0.3196 -0.2655
 6272TIP3   OH240450   0.495   6.415   0.264  0.0051  0.3460 -0.0020
 6272TIP3    H140451   0.581   6.377   0.284  0.3251  0.3064 -1.3908
 6272TIP3    H240452   0.443   6.342   0.231 -0.9005  0.1673  1.6773
 6273TIP3   OH240453   2.999   6.393   1.557 -0.6416 -0.5422 -0.2106
 6273TIP3    H140454   2.946   6.337   1.500 -0.1984  0.0255 -1.2153
 6273TIP3    H240455   3.090   6.372   1.534 -0.4644  0.9433 -1.0028
 6274TIP3   OH240456   5.415   1.786   8.578 -0.0902 -0.1216 -0.2347
 6274TIP3    H140457   5.396   1.708   8.630  0.1445  0.5040  0.8021
 6274TIP3    H240458   5.410   1.756   8.487 -1.0390 -1.1022  0.1310
 6275TIP3   OH240459   0.318   1.269   0.187 -0.1235 -0.2241  0.3406
 6275TIP3    H140460   0.271   1.242   0.108 -0.4407  0.5434  0.2598
 6275TIP3    H240461   0.403   1.300   0.155 -1.3983  3.2700 -0.1829
 6276TIP3   OH240462   0.593   1.358   0.473  0.0746 -0.0891  0.3068
 6276TIP3    H140463   0.619   1.445   0.502 -2.4063  0.5646  0.8141
 6276TIP3    H240464   0.532   1.327   0.540 -0.8820 -1.2359 -1.0087
 6277TIP3   OH240465   4.503   0.458   1.331  0.2332 -0.2936 -0.2618
 6277TIP3    H140466   4.430   0.514   1.303  0.5630  0.0292 -0.4802
 6277TIP3    H240467   4.580   0.497   1.292  0.4617 -0.9550 -0.4950
 6278TIP3   OH240468   0.440   3.300   7.671 -0.2909  0.5932 -0.0639
 6278TIP3    H140469   0.502   3.306   7.599  0.9456 -1.0514  0.8227
 6278TIP3    H240470   0.494   3.290   7.749 -1.6342  1.2552  1.0000
 6279TIP3   OH240471   6.281   3.551   8.344  0.2576  0.0075  0.1759
 6279TIP3    H140472   6.228   3.551   8.423  0.1531  0.1747  0.1046
 6279TIP3    H240473   6.219   3.532   8.273  0.4095 -0.5058  0.1745
 6280TIP3   OH240474   2.078   5.092   6.734  0.1369  0.8695  0.1120
 6280TIP3    H140475   2.080   5.174   6.783  0.2414  2.0045 -1.6873
 6280TIP3    H240476   2.070   5.119   6.643  2.0467 -1.0545 -0.7229
 6281TIP3   OH240477   2.411   6.427   0.255  0.2229 -0.3078  0.4068
 6281TIP3    H140478   2.347   6.495   0.274  0.6260  0.3077 -0.4038
 6281TIP3    H240479   2.360   6.346   0.250 -0.4625  0.1507 -0.0934
 6282TIP3   OH240480   5.506   3.093   2.608  0.0371 -0.3542 -0.8843
 6282TIP3    H140481   5.564   3.165   2.633  1.4952 -1.0221 -2.1937
 6282TIP3    H240482   5.533   3.020   2.663 -0.7431 -0.2200 -0.2979
 6283TIP3   OH240483   1.316   3.877   0.876 -0.5556 -0.2834 -0.3695
 6283TIP3    H140484   1.405   3.897   0.846 -0.2868  0.9092  1.1357
 6283TIP3    H240485   1.270   3.851   0.796  0.7933  0.3060 -1.3884
 6284TIP3   OH240486   2.029   0.300   8.375 -0.4373  0.3418  0.6799
 6284TIP3    H140487   1.990   0.237   8.435 -0.7424 -0.3222 -0.1987
 6284TIP3    H240488   2.003   0.386   8.410 -1.5037 -0.0561  0.8893
 6285TIP3   OH240489   3.395   4.156   0.999 -0.4075  0.3299  0.0994
 6285TIP3    H140490   3.407   4.212   0.923  1.3178 -0.1371 -0.0302
 6285TIP3    H240491   3.304   4.127   0.994 -0.7014  1.3731 -1.0232
 6286TIP3   OH240492   0.304   3.054   2.525 -0.4925 -0.3096 -0.1411
 6286TIP3    H140493   0.332   3.056   2.616  1.0994  1.1445 -0.6202
 6286TIP3    H240494   0.348   2.977   2.488  0.0895 -0.0227 -0.0473
 6287TIP3   OH240495   5.555   3.948   0.274 -0.0708 -0.1230 -0.4797
 6287TIP3    H140496   5.634   4.002   0.277  0.5000 -0.8189 -1.8286
 6287TIP3    H240497   5.491   4.001   0.226  0.1358 -0.2058 -0.8523
 6288TIP3   OH240498   0.325   4.134   1.363 -0.0904 -0.3579  0.1729
 6288TIP3    H140499   0.320   4.044   1.331  1.3935 -0.4812  0.2206
 6288TIP3    H240500   0.408   4.138   1.410 -0.7091  0.7073  1.2390
 6289TIP3   OH240501   0.843   0.202   1.559 -0.2895 -0.1961 -0.3538
 6289TIP3    H140502   0.857   0.149   1.480  0.8948  2.9488 -2.4655
 6289TIP3    H240503   0.907   0.168   1.622  1.2771 -0.5304 -2.0387
 6290TIP3   OH240504   4.063   4.056   0.427 -0.0614 -0.0418 -0.4390
 6290TIP3    H140505   4.105   3.984   0.474 -2.4902 -1.5736 -0.4037
 6290TIP3    H240506   4.129   4.126   0.425  1.3399 -1.1458  2.1851
 6291TIP3   OH240507   0.721   6.604   1.970  0.0510 -0.1851 -0.5977
 6291TIP3    H140508   0.715   6.620   1.876  0.5682  0.7266 -0.4842
 6291TIP3    H240509   0.812   6.625   1.992  0.2678 -1.5559 -0.1019
 6292TIP3   OH240510   5.282   5.728   0.161 -0.1051  0.5427 -0.0275
 6292TIP3    H140511   5.266   5.804   0.106 -0.9170  0.0828 -0.4317
 6292TIP3    H240512   5.378   5.724   0.168  0.0849 -0.0704 -2.3603
 6293TIP3   OH240513   3.439   2.795   2.014  0.1853  0.1437  0.2914
 6293TIP3    H140514   3.469   2.705   2.027  0.6605  0.3621  0.7353
 6293TIP3    H240515   3.391   2.815   2.095 -0.1124  0.2142  0.0982
 6294TIP3   OH240516   1.023   6.372   1.548 -0.2512  0.1211 -0.6242
 6294TIP3    H140517   0.995   6.302   1.488  0.3644 -1.1294  0.4831
 6294TIP3    H240518   0.974   6.355   1.628  1.0625 -0.0133  0.1810
 6295TIP3   OH240519   4.287   2.322   0.476  0.3342 -0.1527 -0.0191
 6295TIP3    H140520   4.292   2.308   0.571  0.0759  0.1088  0.0339
 6295TIP3    H240521   4.239   2.246   0.443  0.7251 -0.4198  0.0142
 6296TIP3   OH240522   6.301   4.096   8.329 -0.4529 -0.5971  0.2132
 6296TIP3    H140523   6.314   4.115   8.236 -2.4156 -2.2744 -0.5003
 6296TIP3    H240524   6.336   4.007   8.340 -0.5359 -0.5351  0.9846
 6297TIP3   OH240525   3.485   4.520   1.958 -0.9480 -0.2521 -0.5939
 6297TIP3    H140526   3.444   4.439   1.989  0.5991 -0.9206 -0.1880
 6297TIP3    H240527   3.562   4.490   1.909 -0.5121  0.9638 -0.6709
 6298TIP3   OH240528   6.611   2.436   6.906 -0.2851 -0.0595 -0.1918
 6298TIP3    H140529   6.637   2.524   6.878  1.1104 -0.4824 -0.2969
 6298TIP3    H240530   6.549   2.451   6.977  0.9159  1.0210  0.6748
 6299TIP3   OH240531   0.904   3.274   2.051 -0.1142  0.1030 -0.4275
 6299TIP3    H140532   0.914   3.233   2.137  0.5243 -0.0356 -0.5657
 6299TIP3    H240533   0.877   3.202   1.993  0.0528  0.0756 -0.4704
 6300TIP3   OH240534   2.452   4.229   0.456  0.0286 -0.2159 -0.3767
 6300TIP3    H140535   2.469   4.246   0.363  0.9164  0.6716 -0.0620
 6300TIP3    H240536   2.408   4.308   0.487  0.1067 -0.3396  0.0480
 6301TIP3   OH240537   1.017   5.542   1.530 -0.3519  0.3592  0.5771
 6301TIP3    H140538   1.027   5.616   1.589  2.1044  0.5107  0.0593
 6301TIP3    H240539   1.053   5.572   1.446 -0.5912 -0.9532 -0.0368
 6302TIP3   OH240540   2.530   0.531   2.101 -0.0380 -0.0320  0.4329
 6302TIP3    H140541   2.588   0.482   2.159  1.3982 -0.1395 -1.0188
 6302TIP3    H240542   2.477   0.464   2.058 -1.9761  0.1198  2.4168
 6303TIP3   OH240543   4.337   1.841   2.735 -0.4213  0.3383  0.0695
 6303TIP3    H140544   4.405   1.788   2.778  0.2758 -0.1508 -1.5694
 6303TIP3    H240545   4.256   1.792   2.749 -0.1795  0.1058  0.6822
 6304TIP3   OH240546   3.987   5.709   1.908  0.0057 -0.2341  0.8120
 6304TIP3    H140547   3.894   5.712   1.888  0.2621  1.1742 -0.3124
 6304TIP3    H240548   4.024   5.650   1.841 -0.1779 -1.5903  1.8549
 6305TIP3   OH240549   3.394   5.885   8.197  0.0279 -0.1240 -0.1553
 6305TIP3    H140550   3.312   5.841   8.219  0.4822 -0.8138  0.2102
 6305TIP3    H240551   3.368   5.972   8.166 -0.8033 -0.1427  0.4640
 6306TIP3   OH240552   1.686   5.880   8.611  0.4334  0.2138  0.0168
 6306TIP3    H140553   1.605   5.868   8.660  1.5160 -0.9694  1.6555
 6306TIP3    H240554   1.744   5.926   8.672  0.9482  1.2844 -1.2155
 6307TIP3   OH240555   0.070   0.649   8.442 -0.0253  0.9277 -0.1496
 6307TIP3    H140556   0.011   0.681   8.374 -0.1042 -0.5857 -0.8316
 6307TIP3    H240557   0.048   0.701   8.519 -1.5982  1.0557 -0.6470
 6308TIP3   OH240558   5.976   2.404   2.001  0.1763 -1.1431 -0.5717
 6308TIP3    H140559   6.054   2.460   2.004 -0.6703  0.0806 -0.7849
 6308TIP3    H240560   5.937   2.422   1.916 -0.8629 -0.9998 -0.0829
 6309TIP3   OH240561   1.650   1.923   3.437  0.2475  0.0436 -0.0563
 6309TIP3    H140562   1.711   1.976   3.385 -0.3856  0.4291 -0.4254
 6309TIP3    H240563   1.684   1.834   3.429  1.7232  0.4657  1.1451
 6310TIP3   OH240564   1.604   2.703   8.181 -0.4277 -0.1460  0.0505
 6310TIP3    H140565   1.588   2.693   8.087  0.9764 -0.6952 -0.1499
 6310TIP3    H240566   1.531   2.655   8.222 -0.0723 -1.4531 -0.7931
 6311TIP3   OH240567   3.316   0.416   0.698 -0.2034 -0.2264  0.0828
 6311TIP3    H140568   3.262   0.368   0.635 -4.0055  2.0190  1.2560
 6311TIP3    H240569   3.323   0.504   0.661  1.8050 -0.1311  0.5644
 6312TIP3   OH240570   6.495   5.432   1.198 -1.1452 -0.2670 -0.0237
 6312TIP3    H140571   6.404   5.443   1.225 -0.6701  0.1075  1.5799
 6312TIP3    H240572   6.531   5.370   1.262 -0.2674 -0.3711 -0.6102
 6313TIP3   OH240573   2.957   6.668   8.055 -0.1350 -0.0712  0.2537
 6313TIP3    H140574   2.945   6.658   8.149 -1.5629 -0.9241  0.0074
 6313TIP3    H240575   3.038   6.620   8.036  0.3109  0.3440  1.0804
 6314TIP3   OH240576   1.434   1.004   2.443 -0.3216  0.2218  0.5424
 6314TIP3    H140577   1.487   1.068   2.394 -0.6538  1.4154  1.6703
 6314TIP3    H240578   1.350   1.003   2.396  0.9391 -2.5523 -1.9589
 6315TIP3   OH240579   3.502   3.338   8.413 -0.0883 -0.4630  0.3201
 6315TIP3    H140580   3.454   3.274   8.464  2.0267 -1.2162  1.4786
 6315TIP3    H240581   3.494   3.420   8.462 -1.2460 -0.2502 -0.1949
 6316TIP3   OH240582   4.381   1.683   2.293 -0.2138 -0.6983  0.1687
 6316TIP3    H140583   4.402   1.770   2.260  0.6820 -1.6552 -1.9382
 6316TIP3    H240584   4.338   1.639   2.220  1.2811 -2.7078  0.4174
 6317TIP3   OH240585   0.498   6.721   7.960  0.2872 -0.3449  0.3696
 6317TIP3    H140586   0.438   6.716   8.034  0.5013  1.5444  0.7197
 6317TIP3    H240587   0.469   6.799   7.911  0.5305 -1.1942 -1.1956
 6318TIP3   OH240588   2.007   3.592   1.072 -0.0185  0.7570  0.4356
 6318TIP3    H140589   1.982   3.684   1.079 -1.0002  0.5851 -0.5620
 6318TIP3    H240590   1.989   3.570   0.981 -1.6370 -0.9534  1.1173
 6319TIP3   OH240591   5.524   6.095   1.150 -0.3719 -0.6199  0.1346
 6319TIP3    H140592   5.569   6.080   1.067  0.0092 -1.0036  0.4032
 6319TIP3    H240593   5.459   6.024   1.155 -1.0370 -0.0559 -0.2616
 6320TIP3   OH240594   4.752   3.145   8.670  0.0823 -0.4616  0.2162
 6320TIP3    H140595   4.825   3.149   8.608 -1.2421  0.5847 -1.3523
 6320TIP3    H240596   4.752   3.230   8.714 -1.2156  0.2268 -1.0561
 6321TIP3   OH240597   6.527   2.654   8.096  0.2219  0.4115  0.2215
 6321TIP3    H140598   6.533   2.731   8.040 -1.1397 -0.3685 -1.0698
 6321TIP3    H240599   6.447   2.610   8.068  1.4505 -2.0094  0.1684
 6322TIP3   OH240600   5.259   4.810   7.946  0.4296  0.0504  0.0027
 6322TIP3    H140601   5.288   4.860   7.869  1.0299 -1.0462 -0.5025
 6322TIP3    H240602   5.208   4.873   7.997 -0.7796  0.5792 -1.7460
 6323TIP3   OH240603   3.434   0.578   2.659  0.6929  0.7757 -0.1228
 6323TIP3    H140604   3.392   0.654   2.699 -2.8542 -1.3145  0.5096
 6323TIP3    H240605   3.395   0.571   2.572  1.8471  0.2818 -0.6298
 6324TIP3   OH240606   2.048   3.688   7.873 -0.7235  0.3486  0.0630
 6324TIP3    H140607   2.100   3.621   7.828  3.2521  4.5524 -2.4084
 6324TIP3    H240608   2.073   3.680   7.965  3.4493  1.1380 -0.7886
 6325TIP3   OH240609   6.227   1.945   1.749  0.7873 -0.8023 -0.0388
 6325TIP3    H140610   6.239   1.951   1.844  0.5145 -1.1036  0.0197
 6325TIP3    H240611   6.158   2.009   1.729  1.4069 -0.1613 -0.1543
 6326TIP3   OH240612   0.930   3.056   8.345 -0.0919 -0.2656  0.1269
 6326TIP3    H140613   0.982   3.074   8.267 -0.2089  0.2207  0.1588
 6326TIP3    H240614   0.976   3.103   8.415 -1.8511  2.1526 -0.2478
 6327TIP3   OH240615   1.373   5.135   0.585 -0.6682 -0.4748 -0.1377
 6327TIP3    H140616   1.467   5.152   0.577 -0.7519 -0.4884 -1.5274
 6327TIP3    H240617   1.364   5.041   0.568 -0.8296 -0.6968  1.1235
 6328TIP3   OH240618   2.626   4.179   1.234  0.0144 -0.0575  0.0163
 6328TIP3    H140619   2.586   4.113   1.177 -1.9947 -0.0312  1.2975
 6328TIP3    H240620   2.715   4.189   1.200  0.1874 -2.9288 -0.6494
 6329TIP3   OH240621   5.919   1.096   0.303 -0.5278  0.4012 -0.2656
 6329TIP3    H140622   6.002   1.108   0.257  1.5604 -1.6767  2.5793
 6329TIP3    H240623   5.900   1.182   0.341  1.4011  0.5195  0.5579
 6330TIP3   OH240624   6.794   2.099   0.086  0.4677  0.0445 -0.6115
 6330TIP3    H140625   6.714   2.118   0.135 -0.0841 -1.2489 -0.9826
 6330TIP3    H240626   6.770   2.030   0.025  1.1849  1.4653 -2.6418
 6331TIP3   OH240627   4.189   5.544   7.825 -0.8519 -0.3311  0.2390
 6331TIP3    H140628   4.132   5.566   7.751  1.6304 -2.4522 -2.5613
 6331TIP3    H240629   4.225   5.458   7.802  1.3882 -0.3094  3.1517
 6332TIP3   OH240630   3.415   5.061   2.409  0.2873 -0.0108  0.4368
 6332TIP3    H140631   3.494   5.023   2.447  0.4939  0.6362  0.6562
 6332TIP3    H240632   3.438   5.077   2.317  2.4617  5.3583  1.5508
 6333TIP3   OH240633   3.611   5.805   3.024  0.0553  0.0828  0.0955
 6333TIP3    H140634   3.641   5.852   2.946  1.3435  0.3706  0.7504
 6333TIP3    H240635   3.684   5.750   3.050 -1.7305 -3.2263 -1.2549
 6334TIP3   OH240636   4.023   5.144   8.686  0.2855  0.4443 -0.0349
 6334TIP3    H140637   4.102   5.095   8.666  0.4235  0.2505  0.9134
 6334TIP3    H240638   4.019   5.212   8.620 -0.3046 -1.2718 -1.8547
 6335TIP3   OH240639   2.550   3.388   1.164  0.0461 -0.0520  0.0597
 6335TIP3    H140640   2.595   3.470   1.185  1.6824 -0.5312 -1.3214
 6335TIP3    H240641   2.540   3.343   1.248  0.3740  0.9427  0.6499
 6336TIP3   OH240642   5.158   6.717   1.444  0.1506  0.1325  0.0783
 6336TIP3    H140643   5.227   6.653   1.464 -0.8061 -0.5269  1.4621
 6336TIP3    H240644   5.205   6.794   1.411  1.4770 -0.5999  0.2007
 6337TIP3   OH240645   3.757   5.358   8.320 -0.2279 -0.2072  0.0970
 6337TIP3    H140646   3.747   5.284   8.261 -0.3241  0.7381 -1.1012
 6337TIP3    H240647   3.748   5.435   8.264  1.9159  0.7297  0.9516
 6338TIP3   OH240648   5.863   6.057   7.674 -0.0243 -0.0026 -0.2053
 6338TIP3    H140649   5.947   6.063   7.719 -0.6320 -0.5190  1.0525
 6338TIP3    H240650   5.858   5.966   7.644 -0.3371 -0.1039  0.1483
 6339TIP3   OH240651   3.379   3.157   0.760  0.8477 -0.1919 -0.4752
 6339TIP3    H140652   3.442   3.151   0.688  1.0214  0.2255 -0.3590
 6339TIP3    H240653   3.346   3.246   0.755  0.6101 -0.2671 -0.2433
 6340TIP3   OH240654   0.721   0.382   8.726  0.1460 -0.1437  0.4053
 6340TIP3    H140655   0.673   0.327   8.664 -0.6150  0.4887  0.4202
 6340TIP3    H240656   0.807   0.342   8.731  0.3215 -0.0652 -1.2782
 6341TIP3   OH240657   3.417   3.107   1.591 -0.1841  0.0847  0.2014
 6341TIP3    H140658   3.330   3.145   1.581 -0.5306 -0.7357  0.0458
 6341TIP3    H240659   3.434   3.063   1.508  0.4474  0.3742  0.1736
 6342TIP3   OH240660   6.145   6.874   8.457 -0.6738 -0.2327 -0.6625
 6342TIP3    H140661   6.200   6.951   8.446  2.3602 -2.1010  0.0837
 6342TIP3    H240662   6.137   6.837   8.369  1.8501 -1.4448 -0.4877
 6343TIP3   OH240663   5.667   6.110   8.681 -0.2675  0.1507  0.1842
 6343TIP3    H140664   5.702   6.168   8.614 -1.1539 -0.5430 -0.9061
 6343TIP3    H240665   5.603   6.164   8.729 -1.3877 -0.0103 -1.0832
 6344TIP3   OH240666   4.387   6.369   8.258 -0.1234  0.1671  0.4494
 6344TIP3    H140667   4.305   6.416   8.269 -0.8401 -1.1295  0.7800
 6344TIP3    H240668   4.405   6.374   8.164 -2.3044 -2.2319 -0.2339
 6345TIP3   OH240669   3.875   1.203   8.135  0.1482  0.0243 -0.5115
 6345TIP3    H140670   3.959   1.240   8.105 -0.1988  0.2282 -1.2602
 6345TIP3    H240671   3.823   1.280   8.158  0.7300 -0.1531  1.5697
 6346TIP3   OH240672   5.783   1.582   8.022 -0.1081  0.4730 -0.3579
 6346TIP3    H140673   5.813   1.669   8.047  0.7969  0.1083 -0.1557
 6346TIP3    H240674   5.861   1.527   8.025 -0.7448 -0.4444 -0.0610
 6347TIP3   OH240675   3.523   1.685   8.595 -0.2815  0.0932 -0.0398
 6347TIP3    H140676   3.473   1.761   8.564  2.4962  1.7174 -0.8505
 6347TIP3    H240677   3.543   1.636   8.515 -0.9131 -0.8076  0.3349
 6348TIP3   OH240678   5.425   4.890   2.252 -0.2840  0.2073  0.1993
 6348TIP3    H140679   5.510   4.934   2.249 -0.4958  0.5894 -1.0610
 6348TIP3    H240680   5.431   4.823   2.183 -1.1730  0.5782 -0.2505
 6349TIP3   OH240681   4.012   6.108   8.396 -0.5809 -0.0463  0.0695
 6349TIP3    H140682   4.023   6.015   8.380  0.1817 -0.0998  0.8217
 6349TIP3    H240683   4.095   6.147   8.369 -1.3771  0.6044 -1.5203
 6350TIP3   OH240684   4.024   3.256   0.977 -0.0478 -0.3180  0.5199
 6350TIP3    H140685   3.948   3.308   1.003  0.1148 -0.4210  1.2191
 6350TIP3    H240686   3.996   3.165   0.990 -0.2219 -0.4025 -0.3936
 6351TIP3   OH240687   3.857   2.429   1.404  0.1429  0.0971 -0.5046
 6351TIP3    H140688   3.784   2.484   1.377  0.8594  0.7993 -1.0518
 6351TIP3    H240689   3.888   2.388   1.324  0.7884  0.3515 -0.3931
 6352TIP3   OH240690   2.105   2.504   0.616 -0.4047  0.0089  0.2852
 6352TIP3    H140691   2.139   2.414   0.620 -1.8993 -0.5607  2.9227
 6352TIP3    H240692   2.181   2.558   0.594  1.0397 -1.6859  0.8764
 6353TIP3   OH240693   3.943   6.023   1.822 -0.0487  0.5094  0.0065
 6353TIP3    H140694   3.893   5.976   1.890 -0.5638  0.5681 -0.3262
 6353TIP3    H240695   3.941   6.114   1.851 -0.6128  0.5969 -0.2854
 6354TIP3   OH240696   6.618   4.495   0.490  0.4438  0.2591 -0.1237
 6354TIP3    H140697   6.615   4.571   0.549  0.6722  0.4765 -0.3952
 6354TIP3    H240698   6.613   4.419   0.549  0.4266  0.4797  0.1607
 6355TIP3   OH240699   1.621   0.185   0.349  0.3750  0.3519  0.1408
 6355TIP3    H140700   1.660   0.141   0.273 -0.2391 -1.7317  0.9809
 6355TIP3    H240701   1.612   0.276   0.321  4.6645  0.7969 -0.5687
 6356TIP3   OH240702   1.580   1.622   0.193  0.0234  0.0332  0.3453
 6356TIP3    H140703   1.635   1.550   0.160 -0.3407 -0.3774  0.6265
 6356TIP3    H240704   1.592   1.619   0.288 -0.9588 -0.4471  0.4599
 6357TIP3   OH240705   0.984   5.091   2.392  0.3650  0.0993 -0.5925
 6357TIP3    H140706   0.972   5.122   2.302 -1.1240  1.2615 -0.0494
 6357TIP3    H240707   0.946   5.004   2.394 -1.6540  0.9168 -0.6385
 6358TIP3   OH240708   2.721   3.118   0.940  0.2696  0.1374 -0.1455
 6358TIP3    H140709   2.722   3.103   1.034 -0.4901 -2.7351 -0.5098
 6358TIP3    H240710   2.633   3.152   0.922 -0.3768 -1.3822 -0.0229
 6359TIP3   OH240711   6.300   2.866   8.081  0.5376  0.5796  0.2090
 6359TIP3    H140712   6.371   2.875   8.017  0.8020  0.4492  0.4774
 6359TIP3    H240713   6.310   2.777   8.115  0.2258  0.5507  0.2279
 6360TIP3   OH240714   3.913   6.368   0.181 -0.2291  0.1898  0.2256
 6360TIP3    H140715   3.967   6.439   0.216  0.5287  0.9367 -2.2521
 6360TIP3    H240716   3.973   6.295   0.168  0.0029  0.6427 -1.4604
 6361TIP3   OH240717   3.938   6.428   2.158  0.3026  0.3117  0.2924
 6361TIP3    H140718   3.857   6.377   2.149  1.5700 -1.5837 -0.8692
 6361TIP3    H240719   3.940   6.485   2.081 -0.1603  0.7767  0.6103
 6362TIP3   OH240720   4.510   1.604   7.535  0.1075 -0.2249  0.0955
 6362TIP3    H140721   4.575   1.564   7.593  0.7175  1.1065  0.3757
 6362TIP3    H240722   4.534   1.696   7.533 -1.5710  0.2432 -0.0799
 6363TIP3   OH240723   3.160   3.690   8.099 -0.7323  0.2889  0.3097
 6363TIP3    H140724   3.091   3.696   8.165 -0.2621  0.2425  0.8115
 6363TIP3    H240725   3.121   3.729   8.020 -0.7352  1.9012  1.0784
 6364TIP3   OH240726   1.587   1.194   2.293  0.3211  0.0750 -0.3515
 6364TIP3    H140727   1.616   1.251   2.222  1.1650  1.4483  1.0294
 6364TIP3    H240728   1.664   1.140   2.314  0.3530  0.2687  0.0545
 6365TIP3   OH240729   0.352   4.371   1.653  0.1363 -0.3011 -0.3578
 6365TIP3    H140730   0.431   4.361   1.708 -0.3626  0.4774  0.5257
 6365TIP3    H240731   0.311   4.451   1.685 -2.3329 -1.9516  0.9244
 6366TIP3   OH240732   2.691   6.359   2.035  0.0422 -0.0394  0.5403
 6366TIP3    H140733   2.648   6.364   1.950 -1.3881  0.5129  1.2664
 6366TIP3    H240734   2.649   6.284   2.078  1.7186 -1.1981  0.2847
 6367TIP3   OH240735   3.646   2.140   8.454  0.7312 -0.3117  0.0940
 6367TIP3    H140736   3.566   2.151   8.403  0.9539  1.7419  0.1004
 6367TIP3    H240737   3.670   2.229   8.481  3.1983 -0.8017 -0.2091
 6368TIP3   OH240738   2.342   4.711   7.192  0.4840  0.5990 -0.5943
 6368TIP3    H140739   2.288   4.633   7.206  0.5820  0.5583 -0.4344
 6368TIP3    H240740   2.424   4.677   7.156 -0.0353  0.7669 -1.9942
 6369TIP3   OH240741   6.408   2.325   0.866  0.0776 -0.7315 -0.3583
 6369TIP3    H140742   6.490   2.375   0.861 -1.2734  1.8354  1.0413
 6369TIP3    H240743   6.384   2.310   0.775  1.0926  0.2952 -0.8250
 6370TIP3   OH240744   5.671   5.401   7.336  0.3380 -0.1684  0.1373
 6370TIP3    H140745   5.727   5.478   7.347  0.9919 -0.6313  0.1153
 6370TIP3    H240746   5.724   5.328   7.370 -0.2243 -0.6226  0.0491
 6371TIP3   OH240747   3.502   2.735   8.218  0.6139  0.1084  0.4725
 6371TIP3    H140748   3.478   2.827   8.210 -2.0266 -0.5750 -0.4260
 6371TIP3    H240749   3.520   2.723   8.311 -1.1579  1.1024  0.9857
 6372TIP3   OH240750   2.926   3.194   1.495 -0.1488  0.1140 -0.1663
 6372TIP3    H140751   2.901   3.136   1.567 -0.3851 -0.7968 -0.9507
 6372TIP3    H240752   2.850   3.250   1.480 -0.6233 -0.6296 -0.5958
 6373TIP3   OH240753   1.694   0.994   8.709 -0.4269  0.3064  0.3738
 6373TIP3    H140754   1.727   1.042   8.633  2.9490  1.7229  2.5042
 6373TIP3    H240755   1.730   0.906   8.700 -1.0018  0.1145 -0.1708
 6374TIP3   OH240756   2.775   4.368   1.434 -0.4252 -0.1867  0.8315
 6374TIP3    H140757   2.716   4.295   1.414  0.1640 -0.4446 -0.0087
 6374TIP3    H240758   2.857   4.346   1.390 -0.3475  1.1645  0.2400
 6375TIP3   OH240759   4.682   5.706   0.757 -0.3311 -0.2300 -0.2854
 6375TIP3    H140760   4.642   5.732   0.840  0.3483 -0.0878  0.0064
 6375TIP3    H240761   4.754   5.767   0.745  2.3347 -2.8221  1.2156
 6376TIP3   OH240762   6.841   3.031   2.158 -0.0157 -0.1622  0.4510
 6376TIP3    H140763   6.850   3.109   2.104  1.3115 -0.1782  0.6188
 6376TIP3    H240764   6.852   3.062   2.248 -3.7382  0.1280  0.9738
 6377TIP3   OH240765   5.319   2.349   6.708  0.6078  0.0220 -0.4099
 6377TIP3    H140766   5.361   2.268   6.735 -0.2414  0.0030  0.9477
 6377TIP3    H240767   5.275   2.381   6.787 -1.5213  0.2904 -1.6335
 6378TIP3   OH240768   4.325   0.875   0.821 -0.3795  0.3785  0.1392
 6378TIP3    H140769   4.332   0.869   0.725 -0.0007  0.1179  0.1787
 6378TIP3    H240770   4.370   0.958   0.842 -1.0172  0.7551  0.0403
 6379TIP3   OH240771   6.828   5.852   2.446 -0.4355 -0.0631  0.4105
 6379TIP3    H140772   6.920   5.851   2.420 -0.1633 -0.8001  1.3397
 6379TIP3    H240773   6.828   5.817   2.535 -1.3289  2.2642  1.4128
 6380TIP3   OH240774   0.986   3.725   8.509 -0.0716  0.0744  0.0270
 6380TIP3    H140775   1.019   3.680   8.587 -0.0556  0.5417  0.2875
 6380TIP3    H240776   1.061   3.776   8.478  0.0829 -0.5237 -0.5983
 6381TIP3   OH240777   4.051   0.658   8.338  0.3231 -0.0543  0.3799
 6381TIP3    H140778   4.007   0.708   8.269 -0.3401  0.7641  1.3749
 6381TIP3    H240779   4.138   0.696   8.343  0.3509 -0.0684  0.0513
 6382TIP3   OH240780   5.334   3.127   1.403 -0.1805 -0.6121 -0.2920
 6382TIP3    H140781   5.330   3.195   1.336  0.6997  0.6396  0.8774
 6382TIP3    H240782   5.308   3.047   1.357 -0.6907  0.3940 -1.8416
 6383TIP3   OH240783   2.733   2.074   0.273 -0.4818  0.0680 -0.0274
 6383TIP3    H140784   2.774   2.154   0.241  1.4398 -0.8499 -0.0027
 6383TIP3    H240785   2.758   2.070   0.366 -0.1745 -0.7557 -0.1352
 6384TIP3   OH240786   6.442   1.215   7.809 -0.6537  0.3426 -0.6086
 6384TIP3    H140787   6.362   1.167   7.788 -0.8398 -0.1661  1.1021
 6384TIP3    H240788   6.412   1.295   7.851 -0.2865  0.1334  0.0773
 6385TIP3   OH240789   3.913   4.680   0.500 -0.1617 -0.1229 -0.3038
 6385TIP3    H140790   4.007   4.678   0.518 -0.3488  1.6526  1.1589
 6385TIP3    H240791   3.903   4.632   0.417  1.8964 -1.0712 -0.0615
 6386TIP3   OH240792   5.504   3.545   1.933  0.3606 -0.2310 -0.1832
 6386TIP3    H140793   5.445   3.617   1.954  0.6082  0.1951 -0.8840
 6386TIP3    H240794   5.554   3.529   2.013 -0.0707  0.0094  0.1367
 6387TIP3   OH240795   3.855   6.735   0.604 -0.0838 -0.4866  0.2823
 6387TIP3    H140796   3.949   6.724   0.613 -0.1530 -0.6935  0.7791
 6387TIP3    H240797   3.841   6.829   0.616  0.3924  0.1173 -2.9511
 6388TIP3   OH240798   6.587   0.954   8.667 -1.1567 -0.0719 -0.2162
 6388TIP3    H140799   6.557   1.017   8.601 -1.1874 -0.9216 -1.0366
 6388TIP3    H240800   6.511   0.899   8.684 -1.0307 -0.1118  0.2354
 6389TIP3   OH240801   3.299   6.181   7.846 -0.1239 -0.2739  0.2457
 6389TIP3    H140802   3.262   6.269   7.838 -0.5824 -0.1019  3.2179
 6389TIP3    H240803   3.262   6.133   7.773 -0.5734  1.7490 -0.9389
 6390TIP3   OH240804   2.428   0.304   1.968 -0.3205  0.1539 -0.2633
 6390TIP3    H140805   2.333   0.307   1.956 -0.3649 -1.0785 -0.3206
 6390TIP3    H240806   2.464   0.318   1.880 -0.3801  2.0902 -0.0350
 6391TIP3   OH240807   1.915   6.575   7.272  0.1473 -0.5529  0.4245
 6391TIP3    H140808   1.908   6.485   7.303  0.2225 -1.2993 -1.5359
 6391TIP3    H240809   1.895   6.569   7.178 -1.7615  1.7812  0.6089
 6392TIP3   OH240810   0.140   1.072   1.875 -0.6024 -0.0489 -0.0206
 6392TIP3    H140811   0.153   1.039   1.786 -0.1713  1.4981 -0.5734
 6392TIP3    H240812   0.052   1.108   1.875 -0.1949  1.0117 -0.2197
 6393TIP3   OH240813   1.675   2.863   6.922  0.1892  0.3116 -0.3191
 6393TIP3    H140814   1.746   2.813   6.883  0.9240 -0.4749  1.8344
 6393TIP3    H240815   1.686   2.849   7.017 -2.9044  0.0571  0.0998
 6394TIP3   OH240816   0.967   1.636   1.324 -0.0545 -0.1990  0.3806
 6394TIP3    H140817   0.974   1.555   1.274  1.9090  0.6282 -0.8228
 6394TIP3    H240818   1.011   1.702   1.270 -0.4596  1.4063  1.8889
 6395TIP3   OH240819   6.521   3.090   8.201 -0.4146  0.0609  0.2277
 6395TIP3    H140820   6.596   3.117   8.253 -0.4203  0.6512 -0.0597
 6395TIP3    H240821   6.519   2.994   8.209  0.7552 -0.0291 -0.2818
 6396TIP3   OH240822   3.513   3.213   2.628 -0.1110  0.2039 -0.2229
 6396TIP3    H140823   3.426   3.230   2.663 -1.4415 -3.0383 -1.4861
 6396TIP3    H240824   3.499   3.203   2.534  1.3681 -1.3889 -0.3331
 6397TIP3   OH240825   1.777   2.563   1.305  0.1308 -0.6047  0.2342
 6397TIP3    H140826   1.852   2.558   1.364 -0.1130  0.5883  0.6742
 6397TIP3    H240827   1.815   2.580   1.219  0.3610  0.2531  0.4981
 6398TIP3   OH240828   2.331   6.631   1.440 -0.0749 -0.1656 -0.6149
 6398TIP3    H140829   2.292   6.696   1.498 -0.4490  0.2307 -1.2945
 6398TIP3    H240830   2.275   6.631   1.363  1.2440  0.3999 -1.6154
 6399TIP3   OH240831   6.633   1.757   8.420 -0.1840  1.0502 -0.5556
 6399TIP3    H140832   6.692   1.698   8.372 -1.3901 -0.0936 -0.6739
 6399TIP3    H240833   6.677   1.771   8.504  0.2338  0.1456 -0.6091
 6400TIP3   OH240834   0.284   6.313   7.870  0.0296  0.1624 -0.5831
 6400TIP3    H140835   0.353   6.374   7.893  0.4636 -0.1987 -0.9205
 6400TIP3    H240836   0.309   6.230   7.910 -0.3153  0.0841 -0.5213
 6401TIP3   OH240837   6.701   4.231   1.437 -0.1049 -0.6484  0.6882
 6401TIP3    H140838   6.718   4.154   1.383 -0.7496 -0.6172  0.4404
 6401TIP3    H240839   6.667   4.296   1.376 -0.5472 -0.5104  1.0812
 6402TIP3   OH240840   2.653   4.880   7.177  0.5074 -0.0977 -0.2050
 6402TIP3    H140841   2.643   4.965   7.135  0.3518 -0.1370 -0.2504
 6402TIP3    H240842   2.643   4.817   7.105  1.0779 -0.1428 -0.2497
 6403TIP3   OH240843   6.814   0.830   2.674  0.1334 -0.0135 -0.3641
 6403TIP3    H140844   6.859   0.757   2.718  0.8492  0.8715  0.3975
 6403TIP3    H240845   6.723   0.801   2.668  0.4869 -1.1619 -0.4828
 6404TIP3   OH240846   2.315   6.363   0.709  0.3432 -0.5493  0.1456
 6404TIP3    H140847   2.387   6.321   0.661 -1.2697 -1.2614 -1.7884
 6404TIP3    H240848   2.342   6.455   0.715  0.9906 -0.5869 -1.4650
 6405TIP3   OH240849   1.454   2.832   0.343  0.1261 -0.7935 -0.0175
 6405TIP3    H140850   1.527   2.875   0.388  1.5317 -3.7510  0.7554
 6405TIP3    H240851   1.381   2.837   0.405  0.1567  0.5970 -0.0536
 6406TIP3   OH240852   2.278   0.234   1.455  0.2656  0.2305  0.0485
 6406TIP3    H140853   2.257   0.280   1.374 -0.1861  0.2452  0.1732
 6406TIP3    H240854   2.329   0.157   1.426  2.5334  1.6702 -0.0406
 6407TIP3   OH240855   3.249   6.164   0.570  0.6008 -0.2155 -0.7166
 6407TIP3    H140856   3.210   6.148   0.484  1.3815 -0.6646 -0.9903
 6407TIP3    H240857   3.267   6.077   0.606 -1.7217 -0.1305  0.8672
 6408TIP3   OH240858   1.477   4.057   1.217  0.3155  0.1357 -0.7226
 6408TIP3    H140859   1.548   4.036   1.157  0.1081  1.0132 -1.2848
 6408TIP3    H240860   1.444   4.142   1.188 -1.2387 -0.4287 -0.7523
 6409TIP3   OH240861   0.810   6.245   8.366  0.1157  0.7973 -0.1346
 6409TIP3    H140862   0.785   6.266   8.276 -1.2058 -0.7267 -0.1656
 6409TIP3    H240863   0.893   6.198   8.358  0.3901  1.3403 -0.4910
 6410TIP3   OH240864   6.806   5.567   6.739  0.3701 -0.8835  0.0811
 6410TIP3    H140865   6.746   5.493   6.738 -1.6629  0.5061 -3.8718
 6410TIP3    H240866   6.893   5.528   6.736 -0.5511 -3.0603  0.0487
 6411TIP3   OH240867   5.465   2.508   7.565 -0.0759  0.0382 -0.0991
 6411TIP3    H140868   5.436   2.595   7.540  1.3523  1.0616  1.5867
 6411TIP3    H240869   5.410   2.484   7.639  0.4675  0.1078  0.3292
 6412TIP3   OH240870   2.788   5.067   1.461  0.5614  0.1406  0.0323
 6412TIP3    H140871   2.781   4.972   1.470  2.4639 -0.0087  0.3801
 6412TIP3    H240872   2.775   5.101   1.549 -0.0111  0.2030 -0.0734
 6413TIP3   OH240873   3.128   4.216   0.967  0.4133  0.1084 -0.0135
 6413TIP3    H140874   3.037   4.190   0.974 -0.1941  2.2831  1.3043
 6413TIP3    H240875   3.128   4.288   0.904  0.9621  0.9321  0.8796
 6414TIP3   OH240876   3.219   1.355   1.398 -0.0895  0.4659  0.3349
 6414TIP3    H140877   3.269   1.324   1.323 -0.2831  1.6387 -0.3028
 6414TIP3    H240878   3.180   1.437   1.369  1.0452  1.7533  2.1818
 6415TIP3   OH240879   6.535   0.229   1.952  0.1316 -0.1083  0.2127
 6415TIP3    H140880   6.622   0.263   1.976 -0.2117  0.0388  1.3267
 6415TIP3    H240881   6.527   0.147   2.001 -0.4101 -0.0424  0.2398
 6416TIP3   OH240882   4.111   5.143   7.800  0.3794 -0.4146 -0.2018
 6416TIP3    H140883   4.111   5.085   7.724 -1.0896 -1.0490  0.2540
 6416TIP3    H240884   4.166   5.217   7.774  1.1992 -1.3671 -1.2800
 6417TIP3   OH240885   0.172   0.119   8.497  0.3724  0.5673  0.2479
 6417TIP3    H140886   0.181   0.114   8.401  1.7894  0.5838  0.3602
 6417TIP3    H240887   0.080   0.143   8.511 -0.4935 -1.6406 -1.0344
 6418TIP3   OH240888   4.780   5.547   2.143 -0.0768 -0.2772 -0.6602
 6418TIP3    H140889   4.778   5.454   2.164  0.5333 -0.1854 -0.1731
 6418TIP3    H240890   4.771   5.591   2.228  0.0773  0.1064 -0.8429
 6419TIP3   OH240891   2.134   4.469   7.749 -0.7107 -0.4949  0.4203
 6419TIP3    H140892   2.171   4.548   7.710 -0.5256 -0.6395  0.3005
 6419TIP3    H240893   2.059   4.500   7.800 -1.4418 -0.3834 -0.6770
 6420TIP3   OH240894   2.712   3.544   8.556  0.5672 -0.3329  0.3614
 6420TIP3    H140895   2.623   3.525   8.585  0.3017  0.4587  0.0887
 6420TIP3    H240896   2.736   3.469   8.501 -0.9795  0.6945 -1.8714
 6421TIP3   OH240897   6.515   6.036   8.445 -0.9874  0.4045  0.3744
 6421TIP3    H140898   6.593   5.992   8.411 -0.3243 -0.2942  2.6498
 6421TIP3    H240899   6.545   6.125   8.465 -0.9601  0.3374  0.6270
 6422TIP3   OH240900   2.807   1.890   8.603 -0.2272 -0.0580  0.3132
 6422TIP3    H140901   2.730   1.929   8.561  0.4215  0.5321 -0.3382
 6422TIP3    H240902   2.865   1.963   8.621  0.1725 -0.4953  0.8592
 6423TIP3   OH240903   4.423   6.008   1.112 -0.4938  0.5340 -0.0567
 6423TIP3    H140904   4.435   6.083   1.171  1.7662  0.1815  0.0299
 6423TIP3    H240905   4.405   5.934   1.170  2.0211  0.1260  0.3536
 6424TIP3   OH240906   3.505   5.634   0.580 -0.1695  0.2117  0.6480
 6424TIP3    H140907   3.514   5.680   0.664  1.9790  0.1915  0.4725
 6424TIP3    H240908   3.586   5.583   0.571 -0.0143  0.7580 -1.7596
 6425TIP3   OH240909   1.268   3.048   0.312 -0.2215  0.5845 -0.5949
 6425TIP3    H140910   1.205   2.995   0.361 -0.5457  1.0537 -0.4959
 6425TIP3    H240911   1.337   2.987   0.286  0.4025  0.4807  1.1891
 6426TIP3   OH240912   1.342   2.725   1.142 -0.6615  0.2923  0.0753
 6426TIP3    H140913   1.339   2.694   1.233 -0.8598 -2.5931 -0.7894
 6426TIP3    H240914   1.250   2.741   1.120 -0.5081  2.3651  0.7204
 6427TIP3   OH240915   4.212   2.708   2.550  0.2585  0.0638  0.7104
 6427TIP3    H140916   4.152   2.774   2.584 -0.8292 -0.7596  0.4623
 6427TIP3    H240917   4.298   2.748   2.556 -0.1678  0.8491  2.1881
 6428TIP3   OH240918   2.021   0.641   0.415 -0.1773 -0.4886  0.6468
 6428TIP3    H140919   2.103   0.618   0.460  0.4009  0.7775  0.2997
 6428TIP3    H240920   2.021   0.586   0.336  0.3726 -0.4643  0.6231
 6429TIP3   OH240921   4.455   0.964   7.626 -0.3486 -0.4196  0.0603
 6429TIP3    H140922   4.373   0.967   7.675 -1.6012  1.8574 -1.9521
 6429TIP3    H240923   4.447   1.034   7.561  3.1926 -0.1097 -0.2716
 6430TIP3   OH240924   0.128   4.716   2.512 -0.1137  0.4088 -0.3047
 6430TIP3    H140925   0.135   4.626   2.483 -0.4631  1.2198 -3.2171
 6430TIP3    H240926   0.218   4.743   2.530  0.3030  0.1844 -1.9003
 6431TIP3   OH240927   4.872   5.837   7.493  0.2414 -0.3745  0.6677
 6431TIP3    H140928   4.879   5.884   7.576 -0.6036  2.3503 -0.7051
 6431TIP3    H240929   4.779   5.840   7.471  0.7318  1.2743 -1.5504
 6432TIP3   OH240930   0.024   1.923   8.101 -0.4289  0.6511  0.0083
 6432TIP3    H140931   0.061   2.006   8.131 -0.0997  1.0642 -1.4427
 6432TIP3    H240932  -0.062   1.919   8.142 -0.0884  1.2839  0.8097
 6433TIP3   OH240933   5.107   3.044   8.228  0.3050  0.1546  0.3949
 6433TIP3    H140934   5.168   3.009   8.293 -0.0304 -0.8167  0.2036
 6433TIP3    H240935   5.058   2.967   8.197  1.3216  0.3781 -1.9386
 6434TIP3   OH240936   4.444   0.162   1.770  0.0607  0.5257  0.2715
 6434TIP3    H140937   4.441   0.114   1.687  1.5027  0.1083  0.4175
 6434TIP3    H240938   4.383   0.234   1.759  1.2448  1.3227 -1.7215
 6435TIP3   OH240939   5.069   1.329   7.397  0.5681  0.0245 -0.5699
 6435TIP3    H140940   5.115   1.413   7.397 -0.9621  0.8882  0.4169
 6435TIP3    H240941   5.091   1.289   7.481 -0.5311  0.4890 -0.0467
 6436TIP3   OH240942   6.542   1.726   2.227 -0.3855  0.3310  0.4101
 6436TIP3    H140943   6.514   1.686   2.309 -0.3169 -1.2834 -0.3317
 6436TIP3    H240944   6.594   1.659   2.183 -0.1631  1.2702 -0.8224
 6437TIP3   OH240945   2.943   3.729   1.653  0.3161  0.2165 -0.6315
 6437TIP3    H140946   2.852   3.739   1.681  0.2575  1.5377 -1.2221
 6437TIP3    H240947   2.948   3.776   1.570  1.2699 -0.8336 -1.2094
 6438TIP3   OH240948   3.053   4.693   7.375  0.2550 -0.1660  0.5586
 6438TIP3    H140949   3.144   4.663   7.380  0.1264 -0.4276  1.3572
 6438TIP3    H240950   3.009   4.652   7.449 -0.7109 -0.6927 -0.2783
 6439TIP3   OH240951   2.945   6.626   2.442 -0.3553  0.0890  0.0576
 6439TIP3    H140952   2.986   6.707   2.412 -0.1424  0.4092  1.1873
 6439TIP3    H240953   2.990   6.605   2.524 -1.3250 -0.4502  0.4672
 6440TIP3   OH240954   2.382   5.338   6.834 -0.5925  0.0040 -0.4483
 6440TIP3    H140955   2.438   5.349   6.757 -1.8177  1.1334 -1.2130
 6440TIP3    H240956   2.409   5.408   6.893 -0.9552  0.3085 -0.6501
 6441TIP3   OH240957   0.443   3.674   1.427 -0.0332 -0.1450  0.0831
 6441TIP3    H140958   0.454   3.627   1.345  0.4101 -1.1159  0.6836
 6441TIP3    H240959   0.358   3.717   1.418 -0.3062 -0.7961 -0.6132
 6442TIP3   OH240960   4.804   3.326   1.979  0.3028 -0.5318  0.0921
 6442TIP3    H140961   4.842   3.414   1.989  0.9816 -0.7203 -0.7354
 6442TIP3    H240962   4.837   3.277   2.054 -0.5837  0.0848  0.9032
 6443TIP3   OH240963   3.797   0.468   2.289 -0.1503  0.1301 -0.3694
 6443TIP3    H140964   3.712   0.434   2.260 -0.1609 -0.1552 -0.0003
 6443TIP3    H240965   3.776   0.551   2.332 -0.2579 -0.0029 -0.1634
 6444TIP3   OH240966   0.953   1.927   0.017  0.0963  0.1220 -0.3088
 6444TIP3    H140967   0.901   1.924  -0.063 -0.5769 -1.0250  0.1538
 6444TIP3    H240968   0.890   1.947   0.086  0.4066 -0.4405  0.1468
 6445TIP3   OH240969   4.109   0.144   0.485 -0.5485  0.2225  0.6537
 6445TIP3    H140970   4.161   0.132   0.565 -1.5614  0.1374  1.3128
 6445TIP3    H240971   4.052   0.218   0.505 -1.0878 -0.0574  0.1513
 6446TIP3   OH240972   6.119   5.702   2.637 -0.8716 -0.3071 -0.3663
 6446TIP3    H140973   6.204   5.715   2.679 -0.9272 -1.4216  0.1261
 6446TIP3    H240974   6.135   5.638   2.568 -0.8560  1.2610 -1.8656
 6447TIP3   OH240975   3.914   0.947   8.207  1.2115 -0.6412 -0.5232
 6447TIP3    H140976   3.999   0.971   8.243 -0.0084  2.9993  0.3677
 6447TIP3    H240977   3.883   1.027   8.165 -1.6398 -1.9363 -1.0928
 6448TIP3   OH240978   6.160   6.169   1.737 -0.4236 -0.2127  0.0317
 6448TIP3    H140979   6.145   6.077   1.716  1.2986 -0.3596 -0.6669
 6448TIP3    H240980   6.241   6.170   1.788  0.9378  1.0747 -1.9913
 6449TIP3   OH240981   3.257   1.107   7.889  0.2011  0.0409  0.5910
 6449TIP3    H140982   3.323   1.080   7.954 -0.0909  1.5823  1.5937
 6449TIP3    H240983   3.300   1.177   7.840 -0.2293  0.1501  0.3689
 6450TIP3   OH240984   5.470   1.898   7.412 -0.3324 -0.0465 -0.5191
 6450TIP3    H140985   5.439   1.866   7.496 -0.5220 -2.6006 -1.4727
 6450TIP3    H240986   5.493   1.819   7.363  2.6108  1.4532 -1.8347
 6451TIP3   OH240987   3.698   5.172   8.122 -0.5015  0.7607  0.1676
 6451TIP3    H140988   3.713   5.097   8.179 -0.8426  1.8179  1.7131
 6451TIP3    H240989   3.772   5.171   8.062  0.0554 -0.2031  0.8332
 6452TIP3   OH240990   2.661   2.626   0.645  0.5340  0.3910 -0.2166
 6452TIP3    H140991   2.650   2.693   0.712  0.7542  1.6327 -1.3856
 6452TIP3    H240992   2.718   2.561   0.685 -1.2445 -0.1260  1.6397
 6453TIP3   OH240993   2.827   5.445   8.738 -0.3064 -0.3783 -0.1331
 6453TIP3    H140994   2.761   5.513   8.730  0.2608  0.2498  0.3613
 6453TIP3    H240995   2.902   5.478   8.689 -0.1819 -0.8471 -0.2590
 6454TIP3   OH240996   5.978   3.773   8.409 -0.2134  0.3854  0.3630
 6454TIP3    H140997   5.999   3.867   8.404  0.3744  0.2868  0.8170
 6454TIP3    H240998   5.961   3.758   8.502 -1.7098  0.3188  0.1102
 6455TIP3   OH240999   4.029   6.141   2.094 -0.0435 -0.3331 -1.1765
 6455TIP3    H141000   4.083   6.065   2.072  1.0511 -0.0968  0.5015
 6455TIP3    H241001   4.064   6.212   2.040  1.5689 -0.1239  0.0638
 6456TIP3   OH241002   1.155   0.457   6.898  0.7406  0.1048  0.5938
 6456TIP3    H141003   1.082   0.505   6.860 -0.4540 -2.1596 -0.1450
 6456TIP3    H241004   1.152   0.479   6.991 -0.7151  0.2978  0.5195
 6457TIP3   OH241005   2.028   5.031   2.557  0.4948  0.1442 -0.5431
 6457TIP3    H141006   2.047   4.938   2.571 -2.2686 -0.4715 -0.2057
 6457TIP3    H241007   1.943   5.044   2.599 -0.1509  2.3435 -2.3386
 6458TIP3   OH241008   2.769   5.620   2.898  0.1124  0.6255 -0.1238
 6458TIP3    H141009   2.732   5.551   2.843  0.6958  0.7657 -0.7027
 6458TIP3    H241010   2.694   5.653   2.948 -0.6153  1.0938 -1.4743
 6459TIP3   OH241011   1.868   5.220   0.936  0.0034  0.5000 -0.2271
 6459TIP3    H141012   1.805   5.292   0.937  0.2611  0.8260 -2.1023
 6459TIP3    H241013   1.922   5.234   1.014  0.4174  2.7400 -0.8397
 6460TIP3   OH241014   3.881   4.732   2.487 -0.6190  0.3900  0.0231
 6460TIP3    H141015   3.952   4.711   2.548 -1.8110 -1.8463  0.7575
 6460TIP3    H241016   3.923   4.783   2.418  1.7025 -0.7861  0.4618
 6461TIP3   OH241017   5.724   3.427   0.049  0.0141  0.3437  0.0181
 6461TIP3    H141018   5.745   3.511   0.008  0.8322  0.4730  0.6615
 6461TIP3    H241019   5.764   3.362  -0.008  1.4522  0.5406  0.7481
 6462TIP3   OH241020   3.145   0.903   0.850  0.4911  0.7722  0.2843
 6462TIP3    H141021   3.158   0.836   0.917 -0.8391 -0.6375 -0.7872
 6462TIP3    H241022   3.212   0.884   0.784  0.1973  0.5504  0.0437
 6463TIP3   OH241023   0.214   5.340   7.566 -0.3639 -0.4105  0.8829
 6463TIP3    H141024   0.216   5.406   7.497  2.2912  0.9178  2.0940
 6463TIP3    H241025   0.121   5.333   7.589 -0.8018  2.8630  0.6214
 6464TIP3   OH241026   0.067   5.357   1.638  0.4122  0.2691 -0.3239
 6464TIP3    H141027   0.161   5.369   1.647  0.2740  0.2001  1.5941
 6464TIP3    H241028   0.039   5.429   1.582  1.7875 -0.6435 -2.3242
 6465TIP3   OH241029   4.140   3.425   8.742  0.6709 -0.1554 -0.4459
 6465TIP3    H141030   4.046   3.434   8.758  0.7580 -0.2799  0.1349
 6465TIP3    H241031   4.155   3.331   8.738  0.8157 -0.1391 -0.2789
 6466TIP3   OH241032   5.634   1.317   0.925 -0.0452 -0.1834  0.3097
 6466TIP3    H141033   5.626   1.339   1.018  0.7702  0.9719  0.1177
 6466TIP3    H241034   5.547   1.334   0.889  0.2564  1.7394  0.3927
 6467TIP3   OH241035   3.515   0.032   8.233  0.3013  0.7857 -0.5057
 6467TIP3    H141036   3.572   0.046   8.308  0.7007  1.0560 -0.8561
 6467TIP3    H241037   3.525  -0.061   8.212 -0.0845  0.6272 -0.0091
 6468TIP3   OH241038   2.662   4.290   7.355 -0.2379 -0.4002 -0.0059
 6468TIP3    H141039   2.629   4.357   7.414  0.8482  0.7028 -0.6011
 6468TIP3    H241040   2.644   4.324   7.267 -0.0932 -1.1036 -0.3170
 6469TIP3   OH241041   4.777   6.184   0.307 -0.3776  0.2253  0.4129
 6469TIP3    H141042   4.868   6.158   0.292 -0.5994 -0.6487  0.5510
 6469TIP3    H241043   4.766   6.264   0.255  0.2764 -0.0322 -0.1380
 6470TIP3   OH241044   4.148   0.225   8.262 -0.1628 -0.4816 -0.3093
 6470TIP3    H141045   4.202   0.154   8.227 -0.7629 -3.0910  3.3574
 6470TIP3    H241046   4.206   0.272   8.321 -0.0780  1.5071 -1.8880
 6471TIP3   OH241047   1.294   0.104   8.661 -0.0839  0.3909  0.8685
 6471TIP3    H141048   1.314   0.193   8.689  1.6127  0.0252  0.9105
 6471TIP3    H241049   1.340   0.095   8.577 -1.6001  0.0753  0.0346
 6472TIP3   OH241050   6.626   0.657   2.127 -0.1920 -0.2495 -0.5222
 6472TIP3    H141051   6.601   0.577   2.175 -0.2214  0.9934  1.6741
 6472TIP3    H241052   6.713   0.637   2.093 -0.0663 -1.1390  0.2474
 6473TIP3   OH241053   2.146   1.728   1.740 -0.2769  0.0899  0.9831
 6473TIP3    H141054   2.201   1.724   1.818 -0.1707 -1.6615  0.8572
 6473TIP3    H241055   2.171   1.810   1.697  0.5886  0.4373  2.1044
 6474TIP3   OH241056   6.686   0.127   0.385  0.4248  0.1535  0.7015
 6474TIP3    H141057   6.602   0.095   0.418  0.5075 -1.8716 -0.9097
 6474TIP3    H241058   6.743   0.051   0.384  1.4535  0.8859 -0.7812
 6475TIP3   OH241059   1.404   5.620   2.455 -0.5561 -0.1558  0.1388
 6475TIP3    H141060   1.405   5.712   2.428  2.8823 -0.3845 -0.9590
 6475TIP3    H241061   1.474   5.613   2.520 -1.0832 -1.9222  0.5777
 6476TIP3   OH241062   2.389   5.560   1.544  0.0211  0.2644  0.1006
 6476TIP3    H141063   2.385   5.602   1.630  0.0908 -1.3814  0.9603
 6476TIP3    H241064   2.458   5.494   1.554  0.9969  0.9659 -1.6717
 6477TIP3   OH241065   3.763   3.592   2.921 -0.7225  0.3427  0.4523
 6477TIP3    H141066   3.831   3.659   2.926  0.0488 -0.4449  0.7301
 6477TIP3    H241067   3.798   3.526   2.862 -0.4891 -0.8878  1.8982
 6478TIP3   OH241068   0.195   3.652   1.185 -0.0648  0.8479 -0.0841
 6478TIP3    H141069   0.156   3.678   1.101 -1.6032  2.0501  0.9450
 6478TIP3    H241070   0.192   3.732   1.238  0.6363  0.0329  1.2161
 6479TIP3   OH241071   2.885   1.747   2.558  0.5692  0.0227 -0.0074
 6479TIP3    H141072   2.824   1.746   2.485  0.3394  0.1967  0.1807
 6479TIP3    H241073   2.915   1.838   2.563  0.8222 -0.0573 -0.0831
 6480TIP3   OH241074   1.562   4.194   7.460 -0.1097 -0.1902 -0.1459
 6480TIP3    H141075   1.579   4.108   7.498 -0.0634 -0.4269 -0.7061
 6480TIP3    H241076   1.489   4.229   7.512  1.3640  0.4324  1.6499
 6481TIP3   OH241077   6.403   3.225   7.206  0.1527 -0.0535 -0.0803
 6481TIP3    H141078   6.324   3.238   7.154  0.1973 -1.3968 -0.4999
 6481TIP3    H241079   6.424   3.313   7.238 -1.5687  0.3023  0.1527
 6482TIP3   OH241080   4.953   0.141   2.220  0.5391 -0.1570  0.5635
 6482TIP3    H141081   4.995   0.194   2.152 -0.3642  0.0028  0.1077
 6482TIP3    H241082   4.981   0.181   2.303 -0.5961  1.4596  0.2287
 6483TIP3   OH241083   3.504   4.040   2.282  0.0793  0.2258 -0.0039
 6483TIP3    H141084   3.571   4.043   2.214 -0.0877  0.4398 -0.1602
 6483TIP3    H241085   3.552   4.014   2.361  0.3811  0.5561 -0.0735
 6484TIP3   OH241086   1.174   1.881   8.571 -0.2275  0.6168 -0.0400
 6484TIP3    H141087   1.224   1.923   8.642  1.4628 -2.5422  0.8339
 6484TIP3    H241088   1.087   1.870   8.607  0.4349 -0.3346  1.3579
 6485TIP3   OH241089   4.844   5.363   7.962  0.1495 -0.1379  0.1037
 6485TIP3    H141090   4.853   5.312   8.043 -1.9437 -0.3440  0.2628
 6485TIP3    H241091   4.903   5.320   7.901 -0.4339 -1.8631  0.6807
 6486TIP3   OH241092   2.324   2.407   1.100 -0.2155 -0.2836  0.7177
 6486TIP3    H141093   2.287   2.477   1.046 -0.9768 -0.2654  1.2504
 6486TIP3    H241094   2.400   2.448   1.143 -0.1120 -0.0552  0.3299
 6487TIP3   OH241095   4.652   4.449   1.769 -0.3028  0.1342  0.0748
 6487TIP3    H141096   4.690   4.370   1.809  1.1032  0.3197 -0.8316
 6487TIP3    H241097   4.720   4.481   1.710 -1.7413  0.7252 -1.3230
 6488TIP3   OH241098   0.625   0.962   1.811  0.0442  0.0272  0.3352
 6488TIP3    H141099   0.592   1.040   1.765  1.1129  1.0304  1.2122
 6488TIP3    H241100   0.579   0.962   1.895  0.8814  0.3993  0.8130
 6489TIP3   OH241101   0.654   3.076   1.622 -0.3235  0.4161  0.2985
 6489TIP3    H141102   0.646   3.171   1.621 -0.5774  0.4004 -1.4755
 6489TIP3    H241103   0.603   3.046   1.547  1.5897 -0.9516 -0.5363
 6490TIP3   OH241104   0.896   5.302   0.233 -0.1324 -0.0383 -0.0807
 6490TIP3    H141105   0.908   5.207   0.244 -1.2460 -0.1418  0.4376
 6490TIP3    H241106   0.946   5.341   0.305 -0.5842 -0.3040  0.3872
 6491TIP3   OH241107   3.187   3.959   7.547 -0.7714 -0.4155  0.0151
 6491TIP3    H141108   3.182   3.915   7.463  0.3781 -0.3105 -0.1175
 6491TIP3    H241109   3.276   3.993   7.552 -1.3881  1.2375  0.4517
 6492TIP3   OH241110   2.240   1.348   7.983  0.3692  0.3002 -0.0678
 6492TIP3    H141111   2.319   1.391   8.016  0.4211  0.8237 -0.8539
 6492TIP3    H241112   2.272   1.266   7.944  0.2182 -0.7247  1.8349
 6493TIP3   OH241113   4.772   2.742   7.961  0.9624  0.1880  0.1471
 6493TIP3    H141114   4.813   2.739   8.047 -1.6845  0.1281  1.5281
 6493TIP3    H241115   4.810   2.820   7.919  2.2206  0.2924  1.4055
 6494TIP3   OH241116   5.788   4.066   7.649 -0.5839  0.1736  0.1828
 6494TIP3    H141117   5.819   4.003   7.714 -1.1047 -0.8763 -0.5603
 6494TIP3    H241118   5.867   4.114   7.622  0.2702 -1.7066 -0.8876
 6495TIP3   OH241119   2.506   3.317   0.178 -0.3674 -0.1755 -0.0714
 6495TIP3    H141120   2.569   3.245   0.169 -0.8583 -0.5020 -1.0546
 6495TIP3    H241121   2.437   3.296   0.115  0.1430  1.8808 -1.4034
 6496TIP3   OH241122   1.550   5.191   7.882  0.2985  0.1232 -0.1464
 6496TIP3    H141123   1.506   5.261   7.835 -0.9272 -0.0242  0.7231
 6496TIP3    H241124   1.576   5.231   7.965  1.2584  0.0394 -0.4019
 6497TIP3   OH241125   0.588   3.995   0.166 -0.2200  0.1023 -0.3364
 6497TIP3    H141126   0.639   4.012   0.086 -1.2696 -1.1565 -1.3150
 6497TIP3    H241127   0.522   4.065   0.168 -0.8788 -0.4863 -1.1761
 6498TIP3   OH241128   1.984   2.595   1.107  0.2322 -0.5194 -0.1441
 6498TIP3    H141129   2.039   2.674   1.104 -0.4118 -0.0392 -3.4945
 6498TIP3    H241130   2.018   2.546   1.182  2.5409  1.6080  0.3747
 6499TIP3   OH241131   4.027   3.642   2.349 -0.1115  0.1212  0.5485
 6499TIP3    H141132   3.969   3.567   2.360 -1.4701  1.0897  0.1539
 6499TIP3    H241133   4.007   3.699   2.423  1.0016  0.0692  0.9182
 6500TIP3   OH241134   4.024   5.376   7.599  0.3801  0.2775  0.3294
 6500TIP3    H141135   4.011   5.318   7.524  1.2604  0.2775  0.1584
 6500TIP3    H241136   4.102   5.341   7.643  0.1650  0.5738  0.9550
 6501TIP3   OH241137   1.634   6.040   7.097 -0.3239  0.3584 -0.5035
 6501TIP3    H141138   1.660   6.104   7.163 -0.5919  0.2482 -0.2917
 6501TIP3    H241139   1.688   6.062   7.020  0.6264 -0.0599  0.0271
 6502TIP3   OH241140   1.773   5.627   0.745 -0.0410 -0.1745 -0.3987
 6502TIP3    H141141   1.689   5.626   0.699 -0.5000 -1.2222  0.4326
 6502TIP3    H241142   1.786   5.719   0.769 -1.3841 -0.1192  0.2114
 6503TIP3   OH241143   1.426   0.925   7.412 -0.0665  0.0987 -0.2743
 6503TIP3    H141144   1.513   0.925   7.371 -0.0805  0.9706 -0.3274
 6503TIP3    H241145   1.427   0.848   7.469  1.5217  1.2580  1.3703
 6504TIP3   OH241146   6.019   2.500   1.525 -0.1436 -0.1347  0.4328
 6504TIP3    H141147   5.993   2.437   1.459  0.4509  0.5873 -0.5272
 6504TIP3    H241148   6.078   2.452   1.583  0.6313 -0.3707 -0.5245
 6505TIP3   OH241149   6.180   2.333   8.219 -0.1069 -0.3437  0.0580
 6505TIP3    H141150   6.094   2.334   8.262 -0.3959 -2.4156 -0.3502
 6505TIP3    H241151   6.221   2.252   8.249  0.6219 -0.7074 -1.7484
 6506TIP3   OH241152   5.398   6.725   0.631 -0.3508  0.0125 -0.1396
 6506TIP3    H141153   5.461   6.653   0.637  0.6546  0.5907 -2.3494
 6506TIP3    H241154   5.316   6.683   0.605 -0.0748 -0.4457 -0.2898
 6507TIP3   OH241155   6.801   3.534   1.206 -0.7681 -0.0066  0.0509
 6507TIP3    H141156   6.772   3.469   1.142 -2.3912  0.1320  0.5879
 6507TIP3    H241157   6.874   3.579   1.164 -2.5141  0.8701 -2.2123
 6508TIP3   OH241158   6.477   1.123   1.966  0.0723 -0.5740  0.3835
 6508TIP3    H141159   6.437   1.209   1.983 -0.0300 -0.6793  0.6799
 6508TIP3    H241160   6.498   1.089   2.053  0.4759 -0.6797  0.2485
 6509TIP3   OH241161   2.420   5.123   1.108 -0.0172  0.2884 -0.6039
 6509TIP3    H141162   2.442   5.116   1.200  0.0262  0.0168 -0.6326
 6509TIP3    H241163   2.441   5.213   1.084 -0.7803  0.5958 -0.1529
 6510TIP3   OH241164   4.516   6.384   0.252  0.0191  0.1073  0.2353
 6510TIP3    H141165   4.495   6.470   0.216  1.6309  0.5133  0.1774
 6510TIP3    H241166   4.600   6.361   0.211 -0.1498 -1.2880  0.6071
 6511TIP3   OH241167   1.681   6.458   7.749 -0.0064 -0.2427  0.4352
 6511TIP3    H141168   1.641   6.545   7.743 -1.7112 -1.0302 -0.5345
 6511TIP3    H241169   1.616   6.406   7.796  0.7611 -1.1172  0.5444
 6512TIP3   OH241170   0.010   5.062   8.034 -0.3789 -0.4075  0.0349
 6512TIP3    H141171  -0.065   5.062   8.093  0.0059 -0.0319  0.5332
 6512TIP3    H241172   0.044   5.152   8.038  0.7771 -0.8463  0.7008
 6513TIP3   OH241173   2.890   1.612   7.336  0.1660  0.2774  0.4833
 6513TIP3    H141174   2.918   1.668   7.408 -0.8667  1.8675 -0.2889
 6513TIP3    H241175   2.970   1.591   7.288  0.5819  1.0794  0.8185
 6514TIP3   OH241176   6.507   5.590   0.983  0.5275  0.8377  0.1859
 6514TIP3    H141177   6.490   5.535   1.060  1.1247 -0.5604 -0.6432
 6514TIP3    H241178   6.428   5.642   0.973 -1.3061 -1.8882 -0.6285
 6515TIP3   OH241179   6.662   6.568   7.248 -0.0092  0.0384  0.0461
 6515TIP3    H141180   6.728   6.587   7.180  0.8392  0.5776  0.9887
 6515TIP3    H241181   6.665   6.644   7.305 -1.8282  0.2794 -0.1482
 6516TIP3   OH241182   4.963   3.587   1.960 -0.6398  0.0964 -0.1799
 6516TIP3    H141183   4.915   3.669   1.969  1.1876  1.1140  0.7615
 6516TIP3    H241184   4.987   3.563   2.049  0.5622 -0.3861 -0.6118
 6517TIP3   OH241185   3.287   3.340   2.705  0.8166 -0.8193 -0.1089
 6517TIP3    H141186   3.258   3.412   2.650  0.7284  0.3547  1.3970
 6517TIP3    H241187   3.215   3.277   2.703  1.0074 -1.0276 -1.6625
 6518TIP3   OH241188   6.864   6.529   1.997  0.1047  0.2561 -0.8122
 6518TIP3    H141189   6.860   6.596   1.930 -0.2184 -0.1935 -1.2558
 6518TIP3    H241190   6.918   6.459   1.959  0.4694  0.2749 -0.3449
 6519TIP3   OH241191   3.453   4.277   8.728  1.0571 -0.2585  0.3188
 6519TIP3    H141192   3.371   4.267   8.777 -1.5733  0.1323 -3.5836
 6519TIP3    H241193   3.467   4.192   8.688  2.4960 -0.2339  0.7185
 6520TIP3   OH241194   0.644   1.166   0.285  0.6552 -0.1539 -0.2578
 6520TIP3    H141195   0.611   1.205   0.366 -0.2376  0.4529 -0.9062
 6520TIP3    H241196   0.704   1.232   0.249  0.5238 -0.1365 -0.4439
 6521TIP3   OH241197   0.939   0.298   3.101 -0.1258  0.1441  0.3023
 6521TIP3    H141198   0.998   0.225   3.118 -0.7198 -0.3885  0.1122
 6521TIP3    H241199   0.862   0.280   3.155  0.3032  1.3861  1.3814
 6522TIP3   OH241200   1.929   4.880   7.954  0.4835  0.0458  0.4224
 6522TIP3    H141201   1.933   4.960   7.901 -1.3592 -0.7119 -0.9840
 6522TIP3    H241202   1.917   4.910   8.044  0.3029  1.3601 -0.0290
 6523TIP3   OH241203   3.283   3.342   2.105 -0.3848  0.3398  1.0500
 6523TIP3    H141204   3.257   3.355   2.014 -0.6570 -0.3356  1.0251
 6523TIP3    H241205   3.363   3.393   2.115 -0.2725  0.3028  0.3930
 6524TIP3   OH241206   6.555   2.675   8.511  0.1104  0.2080 -0.3589
 6524TIP3    H141207   6.590   2.699   8.597  1.3724  0.1368 -0.8278
 6524TIP3    H241208   6.611   2.604   8.481 -1.6710 -1.2784 -0.3311
 6525TIP3   OH241209   4.638   1.282   1.832 -0.0830  0.4983 -0.1939
 6525TIP3    H141210   4.646   1.345   1.760  1.6038  0.9232  0.3138
 6525TIP3    H241211   4.724   1.285   1.875 -0.0145 -1.9795 -0.0173
 6526TIP3   OH241212   2.677   2.384   8.315 -0.5479  0.5446 -0.5981
 6526TIP3    H141213   2.628   2.413   8.392 -1.3883 -0.0509 -0.8935
 6526TIP3    H241214   2.683   2.289   8.325  0.1285  0.5566 -0.8195
 6527TIP3   OH241215   0.252   4.521   7.448 -0.0986  0.0832 -0.0747
 6527TIP3    H141216   0.262   4.616   7.454  0.8183 -0.0172  0.1746
 6527TIP3    H241217   0.333   4.491   7.407  0.8714 -0.8375  2.3203
 6528TIP3   OH241218   0.223   0.517   7.700  0.2918  0.2475  0.0625
 6528TIP3    H141219   0.155   0.468   7.654  0.0007  0.2269  0.5115
 6528TIP3    H241220   0.305   0.482   7.665  0.1586 -2.0377  1.8201
 6529TIP3   OH241221   5.123   5.029   2.344 -0.2945 -0.6954  0.0220
 6529TIP3    H141222   5.190   4.998   2.284  0.7613  0.0292  0.7772
 6529TIP3    H241223   5.050   5.054   2.288  0.4882 -0.4484 -0.9175
 6530TIP3   OH241224   5.262   4.495   1.567 -0.2234  0.3922 -0.8600
 6530TIP3    H141225   5.236   4.451   1.486 -1.3479  0.9395 -0.8290
 6530TIP3    H241226   5.357   4.493   1.567 -0.2332 -0.5221 -1.6886
 6531TIP3   OH241227   4.591   0.632   8.031  0.1764 -0.2129 -0.2156
 6531TIP3    H141228   4.603   0.699   7.964 -0.4446  0.0264 -0.1041
 6531TIP3    H241229   4.552   0.558   7.984  0.7653 -0.4621 -0.3194
 6532TIP3   OH241230   6.393   4.961   0.447 -0.1863  0.0611  0.1322
 6532TIP3    H141231   6.373   5.042   0.400  0.5457  1.2142  1.7335
 6532TIP3    H241232   6.489   4.958   0.449 -0.2130 -0.5471  0.5797
 6533TIP3   OH241233   4.503   6.501   1.916  0.0200  0.3512  0.2305
 6533TIP3    H141234   4.589   6.525   1.883  0.5469 -0.3846  1.0034
 6533TIP3    H241235   4.457   6.463   1.841  1.3299 -1.6730  0.3569
 6534TIP3   OH241236   1.750   3.522   0.020  0.4042 -0.4450  0.4413
 6534TIP3    H141237   1.831   3.549  -0.023 -0.0010 -4.3476 -3.4257
 6534TIP3    H241238   1.681   3.570  -0.026  0.2701 -0.0279  1.0649
 6535TIP3   OH241239   5.029   3.320   1.754  0.7285 -0.6643 -0.3366
 6535TIP3    H141240   5.116   3.341   1.788  0.7036 -1.3057  0.1330
 6535TIP3    H241241   4.970   3.381   1.798  1.3335  2.5737 -3.5296
 6536TIP3   OH241242   0.386   0.699   7.973 -0.4106  0.0733 -0.0614
 6536TIP3    H141243   0.314   0.725   7.916 -0.1181  2.9140  0.7192
 6536TIP3    H241244   0.363   0.735   8.059  1.9151  1.0757  0.2095
 6537TIP3   OH241245   1.827   3.179   8.506 -0.2774  0.6626 -0.2174
 6537TIP3    H141246   1.802   3.194   8.597 -0.3418  0.5009 -0.2100
 6537TIP3    H241247   1.863   3.264   8.478  1.2800  0.2578  0.4538
 6538TIP3   OH241248   6.860   0.592   1.986  0.0406 -0.1866 -0.2598
 6538TIP3    H141249   6.887   0.684   1.990 -0.3537 -0.1038  1.5449
 6538TIP3    H241250   6.908   0.555   1.913  1.4300  1.0809 -0.0184
 6539TIP3   OH241251   0.844   3.104   7.716  0.3294 -0.0597 -0.0855
 6539TIP3    H141252   0.753   3.099   7.687  0.5510 -0.6000 -0.7155
 6539TIP3    H241253   0.843   3.069   7.805 -0.2112  0.7290  0.2217
 6540TIP3   OH241254   2.426   5.462   7.209  0.0953  0.2667  0.7410
 6540TIP3    H141255   2.434   5.521   7.134 -1.1603 -0.5073 -0.0373
 6540TIP3    H241256   2.333   5.441   7.213  0.3125 -0.5717  1.8525
 6541TIP3   OH241257   3.371   1.962   2.793  0.2621 -0.6029 -0.1820
 6541TIP3    H141258   3.305   2.028   2.814  0.0962 -0.2879 -1.6104
 6541TIP3    H241259   3.454   2.001   2.820  0.3025  0.7246 -2.0748
 6542TIP3   OH241260   2.397   2.538   8.162  0.6475 -0.2728 -0.3446
 6542TIP3    H141261   2.458   2.554   8.090 -0.2285  0.6229 -0.9157
 6542TIP3    H241262   2.343   2.618   8.166  0.5180 -0.4085  1.1477
 6543TIP3   OH241263   4.085   2.409   7.493  0.2279 -0.0440 -0.8150
 6543TIP3    H141264   4.046   2.393   7.406 -1.0467 -0.9840 -0.1165
 6543TIP3    H241265   4.115   2.323   7.521 -0.1439  0.0887  0.0200
 6544TIP3   OH241266   5.306   1.700   6.936  0.8244  0.2010  0.3679
 6544TIP3    H141267   5.250   1.724   7.010  0.9916 -2.1822  1.3586
 6544TIP3    H241268   5.375   1.766   6.937 -0.3512  1.4783  0.9601
 6545TIP3   OH241269   3.279   4.769   8.394  0.3986  0.0689  0.3133
 6545TIP3    H141270   3.206   4.719   8.355  0.6685  1.0183 -1.5388
 6545TIP3    H241271   3.239   4.818   8.465 -0.6779  0.1868 -0.3480
 6546TIP3   OH241272   4.085   1.620   2.154  0.3409  0.2277 -0.6063
 6546TIP3    H141273   4.102   1.610   2.248 -1.1768 -0.2048 -0.3518
 6546TIP3    H241274   4.097   1.533   2.118 -0.0665  0.1737 -0.6237
 6547TIP3   OH241275   1.844   2.160   7.817 -0.0424  0.5421  0.6701
 6547TIP3    H141276   1.787   2.169   7.740  1.8651 -0.0226 -0.9170
 6547TIP3    H241277   1.933   2.159   7.780  1.1438  2.9397  3.1284
 6548TIP3   OH241278   1.691   5.563   8.096 -0.0226  0.2016  0.2540
 6548TIP3    H141279   1.768   5.577   8.042 -0.4335 -1.3468 -0.8029
 6548TIP3    H241280   1.722   5.512   8.171  0.0259 -0.2683 -0.0825
 6549TIP3   OH241281   1.723   2.867   8.655  0.1167 -0.2016 -0.1358
 6549TIP3    H141282   1.737   2.961   8.670  0.5871 -0.5539  2.0671
 6549TIP3    H241283   1.652   2.845   8.715  1.5751 -1.6714  1.1384
 6550TIP3   OH241284   4.243   4.387   3.149 -0.3222 -0.4447  0.0593
 6550TIP3    H141285   4.271   4.386   3.057  0.5302  0.2859  0.2961
 6550TIP3    H241286   4.254   4.478   3.177  0.7409 -0.9218  1.2760
 6551TIP3   OH241287   2.150   4.007   0.352  0.2291 -0.2756 -0.3502
 6551TIP3    H141288   2.141   4.073   0.421  0.8529 -0.7948  0.2238
 6551TIP3    H241289   2.217   4.042   0.294  1.5913 -1.0369  0.7116
 6552TIP3   OH241290   5.279   0.098   8.522 -0.3069 -0.4628 -0.3400
 6552TIP3    H141291   5.304   0.017   8.476  0.5583 -0.1818 -0.3768
 6552TIP3    H241292   5.299   0.168   8.460  0.7805 -0.0842  0.4007
 6553TIP3   OH241293   4.112   2.187   1.642 -0.4465 -0.1480 -0.0068
 6553TIP3    H141294   4.129   2.098   1.674 -1.6227  0.7238  3.6065
 6553TIP3    H241295   4.154   2.244   1.707 -3.0703  1.8949  0.0704
 6554TIP3   OH241296   4.843   3.455   6.645 -0.0859 -0.1452  0.4265
 6554TIP3    H141297   4.837   3.479   6.738  0.1591  1.3130  0.0895
 6554TIP3    H241298   4.851   3.360   6.646 -1.3113 -0.2799  1.8382
 6555TIP3   OH241299   5.681   0.403   0.061 -0.2424 -0.6085  0.0271
 6555TIP3    H141300   5.607   0.418   0.119  0.9336 -1.2011  1.7641
 6555TIP3    H241301   5.650   0.429  -0.026 -2.6290 -1.3008  0.6054
 6556TIP3   OH241302   6.748   2.538   1.088 -0.2409  0.0251 -0.1815
 6556TIP3    H141303   6.820   2.521   1.149 -2.5093  0.2185  2.7680
 6556TIP3    H241304   6.753   2.632   1.070 -1.0795  0.5374  1.9666
 6557TIP3   OH241305   0.147   5.717   0.812 -0.1186  0.0724 -0.2826
 6557TIP3    H141306   0.133   5.715   0.717  0.1314 -0.6555 -0.3102
 6557TIP3    H241307   0.184   5.631   0.833 -0.8555 -0.0486  0.5815
 6558TIP3   OH241308   6.777   0.216   8.492  0.0141  0.1588 -0.1437
 6558TIP3    H141309   6.812   0.249   8.409 -1.4869  0.3040 -0.7506
 6558TIP3    H241310   6.708   0.278   8.516 -2.4067 -2.0333 -0.9666
 6559TIP3   OH241311   5.533   3.991   2.408  0.5427  0.4334 -0.5270
 6559TIP3    H141312   5.456   3.977   2.463  0.9520 -0.5086 -0.1659
 6559TIP3    H241313   5.499   4.029   2.327 -0.4562 -1.0135 -0.8223
 6560TIP3   OH241314   0.985   4.699   7.177  0.0695 -0.1254  0.5191
 6560TIP3    H141315   0.961   4.699   7.084  0.4443 -1.1676  0.4086
 6560TIP3    H241316   1.026   4.784   7.191  0.0721  0.0126 -0.2920
 6561TIP3   OH241317   2.307   4.207   7.694 -0.3859 -0.0577 -0.2103
 6561TIP3    H141318   2.244   4.167   7.754  0.6704 -1.5353 -0.0511
 6561TIP3    H241319   2.382   4.148   7.694  0.2586  0.7051 -1.8316
 6562TIP3   OH241320   2.638   6.680   0.973  0.3295  0.2785 -0.5895
 6562TIP3    H141321   2.545   6.681   0.951  0.2035 -1.2665 -0.1820
 6562TIP3    H241322   2.682   6.687   0.889 -0.1465  0.8620 -0.7979
 6563TIP3   OH241323   0.278   6.553   1.516 -0.2271 -0.6282 -0.7339
 6563TIP3    H141324   0.294   6.625   1.454 -2.4352  0.8070  0.2214
 6563TIP3    H241325   0.349   6.561   1.580  0.8382 -0.7593 -1.8500
 6564TIP3   OH241326   6.027   3.186   1.050  0.2805 -0.3347 -0.5485
 6564TIP3    H141327   6.055   3.191   0.959  2.3623 -1.2908 -0.0076
 6564TIP3    H241328   5.949   3.131   1.048 -0.2342  0.4058 -1.8451
 6565TIP3   OH241329   1.669   2.371   1.707  0.4819  0.4149 -0.2416
 6565TIP3    H141330   1.705   2.282   1.700 -0.3861 -0.0730  1.1799
 6565TIP3    H241331   1.626   2.373   1.792 -0.5424  1.8302 -0.7570
 6566TIP3   OH241332   1.293   2.322   1.885  0.2226  0.5524  0.1472
 6566TIP3    H141333   1.271   2.312   1.977 -1.0556  1.2044 -0.0632
 6566TIP3    H241334   1.322   2.235   1.858 -2.6125 -0.5759  0.3782
 6567TIP3   OH241335   4.850   0.395   1.847 -0.2684  0.6321  0.6542
 6567TIP3    H141336   4.759   0.369   1.831  0.3097 -0.2903 -1.4568
 6567TIP3    H241337   4.900   0.353   1.777  1.8148  1.0543  1.8050
 6568TIP3   OH241338   4.799   6.570   1.199 -0.4400  0.0609  0.1303
 6568TIP3    H141339   4.711   6.550   1.165  0.0217 -0.9719 -0.5087
 6568TIP3    H241340   4.814   6.661   1.172 -1.4290  0.3558  0.5183
 6569TIP3   OH241341   3.708   2.997   0.356  0.2323 -0.4363 -0.3857
 6569TIP3    H141342   3.713   2.937   0.282 -1.6020  0.5427 -1.3770
 6569TIP3    H241343   3.628   3.047   0.341  1.5201  2.0671  0.5732
 6570TIP3   OH241344   6.479   1.097   1.572 -0.1192  0.2214 -0.0505
 6570TIP3    H141345   6.449   1.092   1.481  2.2997  0.5735 -0.9377
 6570TIP3    H241346   6.503   1.008   1.595 -0.8878  0.1031  0.3330
 6571TIP3   OH241347   6.424   0.978   0.259 -0.1749 -0.3654  0.0006
 6571TIP3    H141348   6.515   0.975   0.228  0.8175 -0.5786  2.6693
 6571TIP3    H241349   6.431   0.986   0.354 -2.9839  1.2600  0.1811
 6572TIP3   OH241350   5.091   3.888   2.299 -0.5906 -0.0953  0.0205
 6572TIP3    H141351   5.073   3.920   2.387 -0.0772 -1.2226  0.5712
 6572TIP3    H241352   5.156   3.818   2.312 -1.9447 -1.6294 -1.0366
 6573TIP3   OH241353   3.199   0.021   2.625  0.2174  0.2302  0.2454
 6573TIP3    H141354   3.142   0.025   2.702 -3.8697 -1.9476 -2.3018
 6573TIP3    H241355   3.169   0.092   2.569  1.1934  0.0890 -0.4806
 6574TIP3   OH241356   3.506   3.102   7.222 -0.3770 -0.1068 -0.1898
 6574TIP3    H141357   3.551   3.138   7.145 -0.1748  0.0615  0.0056
 6574TIP3    H241358   3.439   3.168   7.243  0.7415  0.7465  0.8681
 6575TIP3   OH241359   6.724   6.457   1.005  0.1109  0.6662  0.2786
 6575TIP3    H141360   6.651   6.517   1.023  0.6685  1.5651 -0.3797
 6575TIP3    H241361   6.802   6.503   1.035  0.4271 -0.2867  0.9737
 6576TIP3   OH241362   0.414   1.061   2.082  0.2595  0.3806 -0.3774
 6576TIP3    H141363   0.436   0.997   2.149  1.3244  0.4487 -0.6401
 6576TIP3    H241364   0.337   1.026   2.038  0.5770 -0.5131 -0.2381
 6577TIP3   OH241365   6.077   4.230   0.930 -0.3826 -0.7506 -0.8292
 6577TIP3    H141366   6.103   4.250   1.020  1.8379  2.2120 -1.9479
 6577TIP3    H241367   6.004   4.289   0.912  1.6744  1.6344 -2.0114
 6578TIP3   OH241368   0.238   2.133   2.109 -0.0400  0.3918  0.2372
 6578TIP3    H141369   0.177   2.065   2.079  1.0626 -0.1983 -0.7580
 6578TIP3    H241370   0.218   2.208   2.054  0.1473  0.1801 -0.1294
 6579TIP3   OH241371   4.293   2.851   2.091  0.5467  0.0342 -0.0191
 6579TIP3    H141372   4.279   2.916   2.022  0.4865  0.3293  0.2675
 6579TIP3    H241373   4.209   2.847   2.137  0.3689 -0.6714 -0.3897
 6580TIP3   OH241374   4.254   4.436   0.643 -0.3032 -0.4598 -0.0513
 6580TIP3    H141375   4.279   4.390   0.722  0.7970  0.1090 -0.0530
 6580TIP3    H241376   4.226   4.368   0.583  1.2088 -1.1383 -0.0290
 6581TIP3   OH241377   1.010   2.895   6.961 -0.0216  0.6437  0.1538
 6581TIP3    H141378   1.065   2.970   6.939 -0.1327  0.4449 -0.8543
 6581TIP3    H241379   0.921   2.924   6.942  0.0271 -0.0957 -1.3485
 6582TIP3   OH241380   0.942   2.035   1.992 -0.1231  0.2368  0.2238
 6582TIP3    H141381   0.942   2.067   1.901 -0.6953 -1.6190 -0.4672
 6582TIP3    H241382   0.984   1.950   1.988 -1.3378 -0.4691  1.4738
 6583TIP3   OH241383   0.523   5.117   7.009 -0.9902 -0.6869 -0.4032
 6583TIP3    H141384   0.468   5.196   7.009 -0.4530 -0.2316  2.1522
 6583TIP3    H241385   0.557   5.112   6.920 -1.1518  1.9111 -0.6923
 6584TIP3   OH241386   3.256   3.411   1.802  0.1862 -0.3336  0.2467
 6584TIP3    H141387   3.172   3.454   1.819 -0.1063 -1.5326  2.0911
 6584TIP3    H241388   3.274   3.429   1.710 -1.9790  0.1617 -0.1290
 6585TIP3   OH241389   4.272   3.029   0.935  0.3861  0.3883  0.3593
 6585TIP3    H141390   4.185   2.993   0.919  0.3200  0.8272 -0.3717
 6585TIP3    H241391   4.268   3.065   1.023 -0.0613  0.0945  0.4620
 6586TIP3   OH241392   1.404   6.445   3.326  0.5676 -0.6336  0.0014
 6586TIP3    H141393   1.499   6.439   3.329  0.5793 -0.1835  2.6221
 6586TIP3    H241394   1.386   6.538   3.340 -0.2875 -0.3352 -2.5237
 6587TIP3   OH241395   0.543   1.234   1.804  0.0170 -0.1285 -0.0313
 6587TIP3    H141396   0.526   1.227   1.710  0.4633  0.7476 -0.1899
 6587TIP3    H241397   0.463   1.272   1.840  0.1920  0.4188 -0.2064
 6588TIP3   OH241398   4.991   0.733   1.260  0.9083  0.0194  0.2565
 6588TIP3    H141399   5.022   0.738   1.350  0.4202 -1.4951  0.5455
 6588TIP3    H241400   4.927   0.804   1.252  0.5309 -0.1961  1.2859
 6589TIP3   OH241401   6.632   1.477   6.695  0.1321 -0.1161  0.3098
 6589TIP3    H141402   6.649   1.572   6.695  0.2971 -0.1392  1.0136
 6589TIP3    H241403   6.719   1.437   6.695  0.0644 -0.2634  0.5719
 6590TIP3   OH241404   4.798   2.244   2.754  0.6478 -0.6345  0.2088
 6590TIP3    H141405   4.709   2.224   2.784  1.1311  0.1312  2.3683
 6590TIP3    H241406   4.787   2.271   2.663 -1.5401  0.7277  0.7978
 6591TIP3   OH241407   4.549   0.957   6.842  0.1394  0.4570  0.2511
 6591TIP3    H141408   4.587   0.871   6.828  0.2608  0.7727 -1.6566
 6591TIP3    H241409   4.622   1.018   6.830 -0.4652  0.9442 -1.2362
 6592TIP3   OH241410   1.452   6.552   8.525  0.4931  0.2073 -0.0948
 6592TIP3    H141411   1.526   6.531   8.468 -0.6473  0.6956 -1.8512
 6592TIP3    H241412   1.376   6.515   8.481 -0.8112  3.0056 -0.4057
 6593TIP3   OH241413   5.018   5.089   0.749  0.5506 -0.3270 -0.4329
 6593TIP3    H141414   4.923   5.083   0.762  0.0489  4.4770  0.0354
 6593TIP3    H241415   5.055   5.032   0.816 -2.0032 -1.1723  0.3931
 6594TIP3   OH241416   6.763   5.852   0.065 -0.2260 -0.2573  0.3501
 6594TIP3    H141417   6.792   5.795   0.137 -0.8684 -1.8248 -0.5792
 6594TIP3    H241418   6.678   5.817   0.039 -0.1444  0.4518 -0.9707
 6595TIP3   OH241419   6.749   1.707   1.897 -0.0279  0.2160  0.4215
 6595TIP3    H141420   6.740   1.642   1.967  0.6137 -1.0141 -0.6006
 6595TIP3    H241421   6.660   1.715   1.861  0.0924 -0.9472 -0.1679
 6596TIP3   OH241422   6.307   3.877   7.560  0.2471 -0.2128  0.4523
 6596TIP3    H141423   6.324   3.784   7.574  0.9878 -0.0240  0.8391
 6596TIP3    H241424   6.317   3.890   7.466 -0.0983 -0.5656  0.3646
 6597TIP3   OH241425   1.845   5.489   8.309  0.7228 -0.0198  0.5064
 6597TIP3    H141426   1.932   5.520   8.286 -0.4392  2.9263 -0.3781
 6597TIP3    H241427   1.838   5.505   8.403  1.2036 -0.4497  0.6161
 6598TIP3   OH241428   6.423   2.621   3.275 -0.0363  0.0123  0.2939
 6598TIP3    H141429   6.356   2.662   3.221  0.9746  1.4953  0.1167
 6598TIP3    H241430   6.406   2.527   3.266 -0.4717  0.2526 -1.8563
 6599TIP3   OH241431   4.092   3.539   8.145  0.3328  0.3709  0.1652
 6599TIP3    H141432   4.076   3.445   8.152 -0.7601  0.5271 -0.1623
 6599TIP3    H241433   4.028   3.579   8.204  1.1467  0.8925  0.7217
 6600TIP3   OH241434   1.207   1.270   2.274  0.2133 -0.3822  0.2515
 6600TIP3    H141435   1.159   1.318   2.207  1.1475  0.1123 -0.0763
 6600TIP3    H241436   1.275   1.330   2.303  0.3718 -0.9142  1.0198
 6601TIP3   OH241437   0.571   3.741   2.981 -0.3006  0.4274  0.3048
 6601TIP3    H141438   0.660   3.765   2.954 -0.0367 -0.3202  0.4841
 6601TIP3    H241439   0.514   3.801   2.932  0.3151  1.2208  0.5342
 6602TIP3   OH241440   4.407   4.895   3.188 -0.1996 -0.5242 -0.1155
 6602TIP3    H141441   4.365   4.809   3.180 -0.6844 -0.4349  1.1899
 6602TIP3    H241442   4.495   4.881   3.154 -0.5921 -1.2729 -0.8789
 6603TIP3   OH241443   5.626   6.577   7.394 -0.3103  0.1353 -0.4182
 6603TIP3    H141444   5.696   6.573   7.330  0.3069 -2.8090  0.2659
 6603TIP3    H241445   5.545   6.575   7.342  0.1762 -0.9941 -1.1826
 6604TIP3   OH241446   4.845   3.377   8.111 -0.5320  0.2317 -0.1762
 6604TIP3    H141447   4.764   3.423   8.091  1.1894  3.2043 -0.9085
 6604TIP3    H241448   4.897   3.440   8.161  1.0698 -1.8384  0.9520
 6605TIP3   OH241449   3.213   6.413   8.214  0.6660 -0.2982 -0.0543
 6605TIP3    H141450   3.233   6.462   8.294 -0.8722  0.2298  0.0410
 6605TIP3    H241451   3.237   6.473   8.143  1.8091 -0.6752  0.0003
 6606TIP3   OH241452   0.139   4.164   0.539 -1.0756 -0.1987  0.0952
 6606TIP3    H141453   0.139   4.091   0.477 -1.4263  0.0669 -0.2225
 6606TIP3    H241454   0.107   4.126   0.621 -1.5087 -0.3477 -0.1386
 6607TIP3   OH241455   6.451   3.591   2.627  0.1896  0.1692 -0.6959
 6607TIP3    H141456   6.489   3.674   2.598 -1.2603  1.3856  0.7072
 6607TIP3    H241457   6.439   3.601   2.721  0.5124 -1.8881 -0.3827
 6608TIP3   OH241458   3.477   0.990   0.925 -0.2238 -0.9908 -0.1854
 6608TIP3    H141459   3.573   0.984   0.928 -0.1781 -0.6242 -0.7722
 6608TIP3    H241460   3.454   0.956   0.839 -0.4451  0.9581 -0.9535
 6609TIP3   OH241461   3.920   1.100   0.079  0.0012  0.0851  0.0821
 6609TIP3    H141462   3.846   1.063   0.031 -0.6483 -0.0460  1.1496
 6609TIP3    H241463   3.910   1.195   0.069 -1.5068  0.1714  1.8766
 6610TIP3   OH241464   0.612   0.693   7.783  0.2016  0.2746 -0.2893
 6610TIP3    H141465   0.684   0.709   7.843  0.4022  0.0750 -0.4745
 6610TIP3    H241466   0.533   0.703   7.837  0.3792  0.1138  0.0021
 6611TIP3   OH241467   4.771   6.295   1.973  0.0277  0.7021  0.8537
 6611TIP3    H141468   4.773   6.370   1.914  0.5023 -1.4796 -2.1330
 6611TIP3    H241469   4.849   6.306   2.028  1.6182  1.1512 -1.3248
 6612TIP3   OH241470   4.742   4.876   1.554 -0.2228 -0.0903 -0.0084
 6612TIP3    H141471   4.822   4.889   1.605 -0.2408  0.2741 -0.0697
 6612TIP3    H241472   4.671   4.906   1.611 -0.1003  2.1316 -0.8917
 6613TIP3   OH241473   2.345   2.673   0.535 -0.2826  0.1841  0.5127
 6613TIP3    H141474   2.332   2.697   0.443 -0.4889 -0.9864  0.2260
 6613TIP3    H241475   2.439   2.684   0.550 -0.0589 -0.7386 -0.1682
 6614TIP3   OH241476   1.094   5.352   2.485 -0.1527 -0.2384  0.1554
 6614TIP3    H141477   1.102   5.365   2.579 -0.6658 -0.3966  0.2211
 6614TIP3    H241478   1.068   5.261   2.475 -1.4446  0.1405 -0.0648
 6615TIP3   OH241479   4.440   5.827   1.965  0.2640  0.3604  0.9665
 6615TIP3    H141480   4.414   5.876   2.044  1.1980  0.7284  1.0609
 6615TIP3    H241481   4.359   5.819   1.915 -0.4607 -0.3362  2.1990
 6616TIP3   OH241482   6.040   1.424   8.244  0.3505  0.0195  0.1995
 6616TIP3    H141483   6.058   1.408   8.152 -0.3864 -0.9950  0.2114
 6616TIP3    H241484   6.040   1.336   8.284 -1.5343  0.2201  0.7364
 6617TIP3   OH241485   6.316   6.221   8.681 -0.5274 -0.4518  0.6545
 6617TIP3    H141486   6.305   6.133   8.646  0.5128 -1.0333  1.7454
 6617TIP3    H241487   6.403   6.248   8.652 -1.4235  0.8675 -0.9920
 6618TIP3   OH241488   4.429   5.334   3.048  0.4201 -0.3683  0.1701
 6618TIP3    H141489   4.356   5.312   3.106 -0.4974 -0.8812 -1.1000
 6618TIP3    H241490   4.436   5.429   3.053  0.4026 -0.4130  1.1560
 6619TIP3   OH241491   6.567   0.397   8.477  0.0483  0.2410  0.0984
 6619TIP3    H141492   6.584   0.450   8.399 -1.0005  0.2319 -0.1528
 6619TIP3    H241493   6.503   0.448   8.527 -0.1245 -0.2710  0.4069
 6620TIP3   OH241494   3.485   1.797   0.611 -0.3933  0.2091 -0.1213
 6620TIP3    H141495   3.478   1.806   0.516  0.9609  0.1762 -0.2402
 6620TIP3    H241496   3.455   1.707   0.628  1.0443 -0.4277 -0.7500
 6621TIP3   OH241497   2.525   3.985   2.600  0.7705  0.5828  0.0077
 6621TIP3    H141498   2.448   4.017   2.647  1.6219  2.5543  0.1510
 6621TIP3    H241499   2.506   3.893   2.584 -1.5879  0.9741  0.1166
 6622TIP3   OH241500   5.429   5.421   8.241  0.7029 -0.1513 -0.4196
 6622TIP3    H141501   5.381   5.448   8.320  0.7183  0.4768 -0.6214
 6622TIP3    H241502   5.380   5.346   8.208  0.1744  0.1363 -0.3026
 6623TIP3   OH241503   5.335   6.212   2.943 -0.4794  0.3498 -0.3809
 6623TIP3    H141504   5.297   6.140   2.893  0.7180  0.3359 -1.3372
 6623TIP3    H241505   5.264   6.244   2.998 -1.3228 -0.8661 -0.7258
 6624TIP3   OH241506   2.584   3.409   2.711 -0.3644  0.4661 -0.4118
 6624TIP3    H141507   2.491   3.426   2.698 -0.0140  1.3319 -1.9739
 6624TIP3    H241508   2.590   3.378   2.802 -2.0400  1.3277  0.0377
 6625TIP3   OH241509   0.783   2.267   1.517  0.1477 -0.1232  1.2256
 6625TIP3    H141510   0.739   2.352   1.517 -0.9765 -0.4839 -3.0100
 6625TIP3    H241511   0.714   2.204   1.540 -0.3593 -0.2171 -0.3852
 6626TIP3   OH241512   0.019   6.356   1.576 -0.4346 -0.2944 -0.6599
 6626TIP3    H141513  -0.049   6.398   1.628  0.0842  0.1637 -0.3363
 6626TIP3    H241514  -0.021   6.342   1.490 -0.8958  0.0788 -0.5082
 6627TIP3   OH241515   0.989   4.549   1.146 -0.1804 -0.0001 -0.6190
 6627TIP3    H141516   1.037   4.490   1.204  1.1021  1.6762  0.1432
 6627TIP3    H241517   1.057   4.593   1.096 -1.0899  0.7905 -1.1891
 6628TIP3   OH241518   1.541   4.587   1.073 -0.4625  0.1436  0.3177
 6628TIP3    H141519   1.565   4.680   1.075 -0.4099  0.1281  0.4145
 6628TIP3    H241520   1.622   4.543   1.047 -0.4318  0.1068  0.4755
 6629TIP3   OH241521   1.498   6.412   1.011 -0.0012  0.5755  0.1239
 6629TIP3    H141522   1.556   6.439   0.940 -0.1351 -0.0712 -0.2387
 6629TIP3    H241523   1.409   6.427   0.977 -0.0736 -0.0942  0.0020
 6630TIP3   OH241524   0.873   1.344   0.319 -0.2777  0.2554 -0.0004
 6630TIP3    H141525   0.866   1.439   0.324  1.4943  0.4554 -0.5989
 6630TIP3    H241526   0.861   1.314   0.409  0.7396  1.2025  0.4853
 6631TIP3   OH241527   1.129   5.270   1.009  0.0579 -0.1795 -0.5698
 6631TIP3    H141528   1.171   5.241   0.927 -0.0423  1.7237 -1.3451
 6631TIP3    H241529   1.113   5.363   0.996  0.3504  0.2500  1.7926
 6632TIP3   OH241530   0.363   6.221   1.031  0.2136 -0.1344 -0.1482
 6632TIP3    H141531   0.416   6.239   1.109 -0.3869 -1.5840  0.6493
 6632TIP3    H241532   0.418   6.161   0.979 -1.1417 -2.9894  1.4637
 6633TIP3   OH241533   6.459   2.220   1.659  0.4145 -0.5261 -0.5214
 6633TIP3    H141534   6.488   2.141   1.704  1.7942  0.2161 -0.0314
 6633TIP3    H241535   6.402   2.265   1.721  0.0168 -0.8937 -0.6186
 6634TIP3   OH241536   3.064   6.369   0.646 -0.1695  0.1658  0.1563
 6634TIP3    H141537   3.102   6.286   0.616 -3.1347 -1.2723 -0.0234
 6634TIP3    H241538   3.083   6.431   0.576  1.8645 -0.4006  0.1542
 6635TIP3   OH241539   6.603   0.819   2.351  0.1365  0.1020  0.2583
 6635TIP3    H141540   6.599   0.761   2.427  1.7192  1.3184  1.3488
 6635TIP3    H241541   6.654   0.769   2.286 -1.1523 -0.9060 -0.0334
 6636TIP3   OH241542   1.499   3.646   1.961 -0.1715  0.2447 -0.5777
 6636TIP3    H141543   1.579   3.621   1.914 -0.0608  2.7728 -1.9471
 6636TIP3    H241544   1.445   3.568   1.959  1.3801 -0.8717 -1.6112
 6637TIP3   OH241545   0.994   5.550   2.309  0.2161  0.1812 -0.2961
 6637TIP3    H141546   1.058   5.490   2.348 -1.4439 -0.3062  1.9211
 6637TIP3    H241547   1.016   5.635   2.346  0.5267  0.3138 -0.7804
 6638TIP3   OH241548   1.080   3.081   1.219  0.2770 -0.2122 -0.1403
 6638TIP3    H141549   1.117   3.153   1.167  0.5985  0.1211  0.5260
 6638TIP3    H241550   1.155   3.046   1.268 -0.3122  0.7410  1.5527
 6639TIP3   OH241551   2.996   5.417   1.235  0.2690 -0.1189  0.1962
 6639TIP3    H141552   2.910   5.395   1.198  0.4189 -0.2027 -0.0957
 6639TIP3    H241553   2.983   5.505   1.272  0.0831 -0.0921  0.0714
 6640TIP3   OH241554   5.918   6.265   7.480 -0.1291 -0.4479 -0.6050
 6640TIP3    H141555   5.924   6.289   7.388  1.8116 -0.5169 -0.5404
 6640TIP3    H241556   5.976   6.188   7.488  0.2045 -0.0809  0.7639
 6641TIP3   OH241557   2.453   1.220   7.385 -0.4298  0.2964 -0.0218
 6641TIP3    H141558   2.368   1.185   7.412  0.8589 -1.3466  2.2450
 6641TIP3    H241559   2.499   1.146   7.346  0.7682  0.5308  0.8772
 6642TIP3   OH241560   2.832   3.985   0.518 -0.4546  0.2657 -0.2996
 6642TIP3    H141561   2.870   3.897   0.515  0.7144  0.5375  2.4562
 6642TIP3    H241562   2.738   3.971   0.527 -0.3337 -0.7025 -0.4606
 6643TIP3   OH241563   1.134   4.311   1.687  0.3294 -0.1805 -0.1145
 6643TIP3    H141564   1.114   4.217   1.685  0.1314 -0.1999  1.5646
 6643TIP3    H241565   1.132   4.334   1.780  1.3378  1.2864 -0.4236
 6644TIP3   OH241566   4.311   5.837   7.789 -0.2037  0.1816 -0.0328
 6644TIP3    H141567   4.393   5.829   7.740  0.3499 -0.0293  0.9143
 6644TIP3    H241568   4.338   5.851   7.880 -1.2090 -0.8669  0.4531
 6645TIP3   OH241569   3.716   3.251   8.635 -0.2909 -0.0974  0.1915
 6645TIP3    H141570   3.765   3.316   8.684  0.8324 -1.1305  0.4951
 6645TIP3    H241571   3.646   3.224   8.695 -1.1363  1.2313 -0.1658
 6646TIP3   OH241572   1.063   3.459   1.935 -0.1139  0.5736 -0.2147
 6646TIP3    H141573   1.014   3.402   1.994  0.3586  1.3709  0.9831
 6646TIP3    H241574   1.029   3.439   1.848 -1.3252 -0.1266  0.4017
 6647TIP3   OH241575   5.992   5.644   1.238 -0.1599 -0.1118 -0.5074
 6647TIP3    H141576   6.026   5.596   1.313 -1.1839 -0.9840 -0.5809
 6647TIP3    H241577   6.016   5.735   1.256 -3.0527  0.2853  2.5616
 6648TIP3   OH241578   4.420   5.224   7.293 -0.3051  0.0831 -0.3770
 6648TIP3    H141579   4.477   5.170   7.239  0.8720 -0.6657  1.4887
 6648TIP3    H241580   4.346   5.167   7.314  1.1531 -1.1420  1.9668
 6649TIP3   OH241581   4.762   5.642   0.498 -0.0083  0.3795 -0.0264
 6649TIP3    H141582   4.735   5.666   0.587 -0.4509 -1.2978  0.3144
 6649TIP3    H241583   4.843   5.594   0.510 -0.4552 -0.4924 -0.4582
 6650TIP3   OH241584   2.751   5.009   8.164  0.1043  0.0101 -0.5285
 6650TIP3    H141585   2.691   5.030   8.235  0.4729 -1.9756  0.4403
 6650TIP3    H241586   2.695   4.973   8.095 -0.0480  0.1783 -0.4938
 6651TIP3   OH241587   4.090   2.223   1.362  0.1734 -0.0131 -0.1342
 6651TIP3    H141588   4.107   2.317   1.355  1.8153 -0.0906  1.7644
 6651TIP3    H241589   4.078   2.208   1.456 -0.3459 -1.6825 -0.4298
 6652TIP3   OH241590   0.128   3.796   7.248  0.1392  0.0261  0.0228
 6652TIP3    H141591   0.135   3.775   7.155  0.3011 -0.8466  0.2273
 6652TIP3    H241592   0.065   3.868   7.252 -0.1098 -0.1451 -0.7252
 6653TIP3   OH241593   1.137   2.870   0.095 -0.1512 -0.4035 -0.2387
 6653TIP3    H141594   1.200   2.799   0.082  0.2718 -0.2415  0.8498
 6653TIP3    H241595   1.089   2.845   0.174 -0.2982  0.2962 -0.1007
 6654TIP3   OH241596   3.395   1.852   1.896 -0.3165  0.1142 -0.2255
 6654TIP3    H141597   3.392   1.947   1.908  2.3119  0.8396 -3.5023
 6654TIP3    H241598   3.349   1.837   1.814  0.5447 -1.1975 -0.5037
 6655TIP3   OH241599   2.698   3.324   7.613  0.4013  0.3144  0.7629
 6655TIP3    H141600   2.734   3.298   7.529  0.2771 -0.5258  0.9508
 6655TIP3    H241601   2.774   3.345   7.667  0.4591  1.3450  0.3023
 6656TIP3   OH241602   5.301   5.502   8.487  0.6286 -0.4354 -0.1233
 6656TIP3    H141603   5.284   5.468   8.574 -0.5496 -0.1924 -0.2488
 6656TIP3    H241604   5.279   5.595   8.493 -2.5903 -0.9842 -1.4558
 6657TIP3   OH241605   5.376   6.656   6.950  0.0419  0.3993  0.2699
 6657TIP3    H141606   5.422   6.684   6.871  0.5118 -0.9156  0.0392
 6657TIP3    H241607   5.285   6.684   6.937  0.4913  1.8515  0.1254
 6658TIP3   OH241608   3.269   0.328   1.433 -0.0053 -0.4209 -0.7892
 6658TIP3    H141609   3.238   0.285   1.513  0.7811 -1.1737 -0.8607
 6658TIP3    H241610   3.266   0.421   1.453 -3.9718 -0.2561 -1.4155
 6659TIP3   OH241611   4.956   2.298   0.829  0.1386 -0.1635 -0.6368
 6659TIP3    H141612   4.863   2.276   0.821  0.3506 -1.3617 -0.0433
 6659TIP3    H241613   5.001   2.228   0.782  0.9041 -1.7175  2.2184
 6660TIP3   OH241614   2.704   0.867   0.685 -0.0885 -0.1924 -0.0281
 6660TIP3    H141615   2.732   0.945   0.637  1.3485 -0.1857  0.7668
 6660TIP3    H241616   2.669   0.901   0.767 -1.9194 -0.2490 -0.7351
 6661TIP3   OH241617   6.600   6.043   7.402  0.1710 -0.6665 -0.0324
 6661TIP3    H141618   6.563   6.131   7.391  1.1692 -0.2748 -0.3403
 6661TIP3    H241619   6.531   5.994   7.447 -0.6534  0.0908 -0.4312
 6662TIP3   OH241620   5.426   1.339   0.283 -0.2426 -0.0623 -0.6447
 6662TIP3    H141621   5.490   1.267   0.284  0.2802  0.3767  0.7653
 6662TIP3    H241622   5.459   1.399   0.217  1.1161  0.3770  0.3677
 6663TIP3   OH241623   3.423   2.840   7.231 -0.5588  0.1079  0.5620
 6663TIP3    H141624   3.463   2.927   7.225 -0.8935  0.2329  0.0742
 6663TIP3    H241625   3.379   2.828   7.147  2.4920 -2.0473 -0.8742
 6664TIP3   OH241626   1.272   1.018   2.190  0.1382  0.2588  0.1039
 6664TIP3    H141627   1.315   1.025   2.104 -0.6226 -1.4143 -0.4646
 6664TIP3    H241628   1.256   1.108   2.217  0.8770  0.8270 -1.2713
 6665TIP3   OH241629   6.042   4.443   8.010 -0.2275 -0.0452  0.4142
 6665TIP3    H141630   5.965   4.394   7.979 -1.9353  2.9395 -0.4219
 6665TIP3    H241631   6.026   4.453   8.104 -1.4995  1.4629  0.0809
 6666TIP3   OH241632   2.257   0.573   8.580 -0.1182 -0.1684  0.3755
 6666TIP3    H141633   2.242   0.600   8.670 -1.2976  0.6245 -0.0403
 6666TIP3    H241634   2.174   0.533   8.553 -0.1770  0.6486 -0.7109
 6667TIP3   OH241635   5.969   2.197   7.764 -0.0971 -0.0293 -0.3278
 6667TIP3    H141636   6.008   2.242   7.689  0.4873  1.7455  0.9689
 6667TIP3    H241637   6.037   2.199   7.831 -0.5466 -1.7278  0.2439
 6668TIP3   OH241638   6.164   1.189   7.727  0.0105 -0.2361  0.0797
 6668TIP3    H141639   6.154   1.284   7.714 -0.0831 -0.1500  0.7710
 6668TIP3    H241640   6.132   1.151   7.645  1.2058  0.3755 -0.7155
 6669TIP3   OH241641   4.646   1.428   8.599 -0.4201 -0.1882  0.2536
 6669TIP3    H141642   4.720   1.389   8.554 -1.2914 -1.7767  0.1271
 6669TIP3    H241643   4.627   1.508   8.549  0.5559 -0.2888 -0.3049
 6670TIP3   OH241644   3.590   5.619   7.822  0.1534  0.2851 -0.0749
 6670TIP3    H141645   3.501   5.585   7.813  1.0830 -1.7510 -3.4799
 6670TIP3    H241646   3.589   5.702   7.775 -0.2470  1.0701  1.2670
 6671TIP3   OH241647   1.955   6.212   1.967  0.3614  0.0823 -0.3089
 6671TIP3    H141648   1.918   6.207   2.056 -1.3686  0.8534 -0.9540
 6671TIP3    H241649   2.046   6.186   1.979  0.2672  0.4707  1.7541
 6672TIP3   OH241650   3.289   6.614   2.623  0.6451 -1.0675  0.8261
 6672TIP3    H141651   3.198   6.623   2.652  0.5553 -0.4267  0.3723
 6672TIP3    H241652   3.291   6.529   2.579  1.0376 -2.5733  3.5369
 6673TIP3   OH241653   1.636   5.295   7.605  0.5409  0.4846 -0.1625
 6673TIP3    H141654   1.599   5.354   7.671 -0.2451 -1.2185  0.9895
 6673TIP3    H241655   1.716   5.261   7.646 -0.9479 -2.1050  0.8971
 6674TIP3   OH241656   5.859   1.558   7.729  0.1999 -0.3224  0.2942
 6674TIP3    H141657   5.934   1.499   7.720 -0.7346 -1.7976  1.5728
 6674TIP3    H241658   5.791   1.504   7.769 -1.3013  1.1837 -0.1053
 6675TIP3   OH241659   4.165   1.354   2.099  0.1527  0.4317  0.7537
 6675TIP3    H141660   4.231   1.365   2.167 -0.9766 -0.2688  1.9973
 6675TIP3    H241661   4.089   1.315   2.144 -0.4480 -0.5306 -0.9930
 6676TIP3   OH241662   3.219   0.894   1.529  0.5305  0.1874 -0.6729
 6676TIP3    H141663   3.176   0.819   1.569  1.6832  0.2454  0.7408
 6676TIP3    H241664   3.174   0.970   1.565  1.6624  0.2445  0.7239
 6677TIP3   OH241665   1.487   0.319   2.654 -0.2067  0.0514 -0.3117
 6677TIP3    H141666   1.579   0.346   2.653 -0.4685  0.9682 -0.9040
 6677TIP3    H241667   1.448   0.365   2.580 -1.7046  1.7852  1.4268
 6678TIP3   OH241668   0.801   4.384   0.867 -0.3446  0.2359  0.7197
 6678TIP3    H141669   0.721   4.432   0.844 -0.4586 -0.8482 -1.3710
 6678TIP3    H241670   0.842   4.437   0.935 -0.9096  2.8562 -0.8320
 6679TIP3   OH241671   6.389   1.456   7.906 -0.4950  0.0812  0.2674
 6679TIP3    H141672   6.414   1.483   7.995 -1.5425  0.9046  0.3261
 6679TIP3    H241673   6.332   1.526   7.875  0.4372  0.1592 -1.3485
 6680TIP3   OH241674   3.517   2.247   0.174 -0.1993 -0.4694 -0.6752
 6680TIP3    H141675   3.557   2.247   0.261 -1.2053 -0.2467 -0.2005
 6680TIP3    H241676   3.448   2.180   0.179  0.0104 -0.7543 -1.4384
 6681TIP3   OH241677   4.228   1.690   1.380  0.4332 -0.4790 -0.4099
 6681TIP3    H141678   4.254   1.763   1.436  0.9486  2.1913 -3.7795
 6681TIP3    H241679   4.243   1.612   1.434 -0.6110  1.8003  3.5933
 6682TIP3   OH241680   1.338   5.938   2.015  0.4257 -0.0664  0.2058
 6682TIP3    H141681   1.306   5.848   2.019  0.5911 -0.1022  0.8869
 6682TIP3    H241682   1.410   5.935   1.951 -1.4874  0.2244 -2.1042
 6683TIP3   OH241683   2.416   0.120   3.122 -0.3744 -0.0725 -0.0020
 6683TIP3    H141684   2.388   0.176   3.050  1.0388  0.7282  0.0363
 6683TIP3    H241685   2.511   0.114   3.112 -0.2382 -0.5570  1.3777
 6684TIP3   OH241686   5.875   1.872   3.010 -0.0886 -0.3647  0.5056
 6684TIP3    H141687   5.899   1.852   2.920 -0.1834  0.2918  0.3287
 6684TIP3    H241688   5.785   1.841   3.018 -0.6592  1.0178 -0.1331
 6685TIP3   OH241689   3.998   6.415   2.534 -0.2068 -0.4080  0.0840
 6685TIP3    H141690   4.016   6.323   2.552  0.5467 -0.1330  0.8251
 6685TIP3    H241691   4.014   6.459   2.617  3.4422  0.9300 -1.1018
 6686TIP3   OH241692   2.521   0.601   8.559 -0.1122  0.6857 -0.1692
 6686TIP3    H141693   2.426   0.593   8.557  0.0330 -1.4038 -1.2327
 6686TIP3    H241694   2.545   0.626   8.469  0.4639 -1.0294 -0.5183
 6687TIP3   OH241695   1.027   3.475   2.832 -0.5792 -0.2495 -0.4738
 6687TIP3    H141696   0.964   3.452   2.900 -0.1240 -0.4166 -0.0953
 6687TIP3    H241697   0.979   3.468   2.750 -0.9471 -0.7447 -0.2180
 6688TIP3   OH241698   3.352   4.406   0.375  0.1216 -0.4180 -0.1160
 6688TIP3    H141699   3.372   4.473   0.440 -0.9548 -1.6348  1.5583
 6688TIP3    H241700   3.437   4.369   0.351  0.6301  0.8007 -0.2707
 6689TIP3   OH241701   2.784   2.245   7.764 -0.4782  0.9341 -0.0979
 6689TIP3    H141702   2.729   2.177   7.725  0.7741  0.0435 -0.3649
 6689TIP3    H241703   2.808   2.210   7.850 -2.0571  2.2698  0.9577
 6690TIP3   OH241704   3.357   6.848   2.078  0.6455 -0.3395  0.2989
 6690TIP3    H141705   3.351   6.871   1.985 -1.5864  2.9029  1.0606
 6690TIP3    H241706   3.429   6.903   2.111  0.1483  0.0098  0.8190
 6691TIP3   OH241707   5.524   5.130   2.083  0.2205 -0.1052  0.0974
 6691TIP3    H141708   5.516   5.177   2.166 -1.0472  0.1564 -0.1369
 6691TIP3    H241709   5.487   5.191   2.018 -0.1308 -0.8667 -0.4311
 6692TIP3   OH241710   1.133   2.766   0.734  0.3463  0.0811  0.3929
 6692TIP3    H141711   1.037   2.770   0.729  0.3885 -0.1072 -1.4155
 6692TIP3    H241712   1.151   2.684   0.779 -0.3598 -0.2427  0.1060
 6693TIP3   OH241713   4.415   2.851   1.246  0.1082  0.3123  0.1920
 6693TIP3    H141714   4.488   2.904   1.213 -0.3608 -0.6690 -2.7846
 6693TIP3    H241715   4.352   2.915   1.278  0.8220  1.4093 -0.5054
 6694TIP3   OH241716   6.729   0.018   2.049 -0.5633 -0.4287 -0.1999
 6694TIP3    H141717   6.782  -0.040   2.105 -0.6011 -1.1134 -0.8461
 6694TIP3    H241718   6.793   0.074   2.006 -0.5440  0.1828  0.6074
 6695TIP3   OH241719   4.039   6.214   1.575  0.2360 -0.9671 -0.4411
 6695TIP3    H141720   4.025   6.139   1.633 -0.6640 -0.0045  0.6374
 6695TIP3    H241721   3.955   6.260   1.575  1.3907  1.3104  0.7996
 6696TIP3   OH241722   5.048   0.979   7.770  0.0097 -0.0880  0.1991
 6696TIP3    H141723   5.092   0.907   7.725  0.7413  1.0338 -0.9327
 6696TIP3    H241724   4.999   0.937   7.841  1.0990 -1.6039  0.0920
 6697TIP3   OH241725   0.509   1.658   1.137 -0.0793  0.0618 -0.1180
 6697TIP3    H141726   0.470   1.584   1.090 -0.3023  0.1995 -0.1500
 6697TIP3    H241727   0.517   1.627   1.227  0.2731 -0.1736 -0.2259
 6698TIP3   OH241728   3.734   6.013   1.486  0.4077  0.3068 -0.1355
 6698TIP3    H141729   3.745   5.918   1.495 -2.1008  0.0919  1.5564
 6698TIP3    H241730   3.788   6.050   1.555 -0.4271 -0.0580  0.7327
 6699TIP3   OH241731   5.591   3.740   7.452  0.4348  0.5852  0.0419
 6699TIP3    H141732   5.569   3.833   7.460 -0.2723  0.4632 -0.4534
 6699TIP3    H241733   5.540   3.709   7.378 -0.2012 -0.4612  0.8826
 6700TIP3   OH241734   1.788   2.869   7.241 -0.2175 -0.1972 -0.1394
 6700TIP3    H141735   1.817   2.778   7.241  2.0621  0.4566  1.0335
 6700TIP3    H241736   1.867   2.919   7.261 -1.2204  2.1374 -1.6383
 6701TIP3   OH241737   0.076   2.809   8.446 -0.2616  0.3958  0.1186
 6701TIP3    H141738   0.136   2.812   8.520  1.4615 -2.4896 -0.9789
 6701TIP3    H241739   0.132   2.792   8.370 -2.1706  0.9292 -1.5126
 6702TIP3   OH241740   3.666   6.391   7.558  0.2895 -0.1425  0.1756
 6702TIP3    H141741   3.576   6.365   7.580  0.4627 -0.9166  0.0018
 6702TIP3    H241742   3.663   6.408   7.464  0.5348 -1.1615 -0.0368
 6703TIP3   OH241743   5.511   4.205   8.751  0.0090  0.1721 -0.0557
 6703TIP3    H141744   5.536   4.290   8.786  1.9852 -0.5532  0.3791
 6703TIP3    H241745   5.544   4.205   8.661  0.1166 -0.1803 -0.0184
 6704TIP3   OH241746   5.224   4.658   1.807  0.1253  0.1537 -0.7427
 6704TIP3    H141747   5.238   4.603   1.729  1.5376 -1.1298  0.3791
 6704TIP3    H241748   5.157   4.720   1.779 -0.1312 -0.8994 -2.6840
 6705TIP3   OH241749   2.801   4.140   7.732  0.3297  0.7695 -0.0819
 6705TIP3    H141750   2.892   4.147   7.703  0.2416 -2.5100 -1.6016
 6705TIP3    H241751   2.800   4.063   7.788 -1.7925 -0.3891 -1.5908
 6706TIP3   OH241752   3.088   3.630   1.841  0.1070  0.2843 -0.0708
 6706TIP3    H141753   3.039   3.666   1.767  0.2622 -1.2181 -0.9476
 6706TIP3    H241754   3.022   3.584   1.893  0.5220 -1.7831 -1.2782
 6707TIP3   OH241755   0.194   2.226   0.374  0.4845  0.6022  0.4206
 6707TIP3    H141756   0.179   2.251   0.283  0.9913  0.5404  0.3154
 6707TIP3    H241757   0.109   2.199   0.407 -0.0878  2.3667  0.5043
 6708TIP3   OH241758   2.429   3.912   2.271  0.5503  0.2272  0.1676
 6708TIP3    H141759   2.441   3.875   2.358  0.5149  0.2563  0.1850
 6708TIP3    H241760   2.334   3.922   2.262  0.6438  2.2029  0.9619
 6709TIP3   OH241761   2.332   4.676   0.894  0.3933 -0.3125 -0.0432
 6709TIP3    H141762   2.384   4.724   0.959  1.8386 -1.7177 -0.0967
 6709TIP3    H241763   2.287   4.608   0.945 -0.4219  0.1157 -0.1804
 6710TIP3   OH241764   4.940   6.522   8.461 -0.5027 -0.0296  0.6318
 6710TIP3    H141765   4.934   6.614   8.436 -1.9191  0.1382  1.5148
 6710TIP3    H241766   4.970   6.478   8.381 -0.5623  1.0816 -0.0310
 6711TIP3   OH241767   5.519   1.170   2.350  0.2021 -0.1780 -0.6109
 6711TIP3    H141768   5.585   1.201   2.288  1.8076 -1.3030  0.4401
 6711TIP3    H241769   5.562   1.097   2.395 -2.0959 -1.5199 -0.4671
 6712TIP3   OH241770   6.625   6.802   1.729  0.0917 -0.0263  0.0069
 6712TIP3    H141771   6.565   6.731   1.750 -0.0033  0.4406  1.4545
 6712TIP3    H241772   6.576   6.882   1.751  0.6749  0.4286 -0.3030
 6713TIP3   OH241773   1.943   0.168   7.891  0.1832 -0.0755  0.3791
 6713TIP3    H141774   2.035   0.153   7.910  0.3170  1.2117  0.8260
 6713TIP3    H241775   1.897   0.095   7.932  0.6941  1.1473  3.3264
 6714TIP3   OH241776   2.773   3.595   2.649  0.5987 -0.3040 -0.0312
 6714TIP3    H141777   2.807   3.630   2.731 -2.7422  3.2421  0.1244
 6714TIP3    H241778   2.712   3.526   2.676  0.2263  0.1926  0.4033
 6715TIP3   OH241779   6.758   4.932   1.770  0.1730 -0.2509 -0.0276
 6715TIP3    H141780   6.716   4.966   1.850 -0.0014  0.3195 -0.3527
 6715TIP3    H241781   6.754   4.837   1.780  1.9234 -0.2123  1.5619
 6716TIP3   OH241782   3.862   2.333   8.501  0.1069  0.0797 -0.3742
 6716TIP3    H141783   3.861   2.331   8.597 -2.7245 -1.0855 -0.3351
 6716TIP3    H241784   3.886   2.423   8.479 -2.5494  1.3935  1.5585
 6717TIP3   OH241785   5.520   6.638   8.588 -0.5908 -0.9829  0.2608
 6717TIP3    H141786   5.590   6.624   8.524  0.4587  3.3400  0.1000
 6717TIP3    H241787   5.439   6.623   8.539  0.2091  1.2186 -1.9758
 6718TIP3   OH241788   3.581   0.129   2.138 -0.1931  0.1665 -0.1697
 6718TIP3    H141789   3.593   0.218   2.171  1.9134  0.2849 -1.0643
 6718TIP3    H241790   3.640   0.124   2.062 -0.6003 -1.8585 -0.4044
 6719TIP3   OH241791   3.204   1.816   7.529 -0.2677  0.3688 -0.4918
 6719TIP3    H141792   3.213   1.878   7.602 -0.4815 -2.2613  1.9342
 6719TIP3    H241793   3.145   1.748   7.562 -0.3722 -0.9550 -3.1574
 6720TIP3   OH241794   6.816   3.816   0.119  0.7209 -0.1227 -0.1330
 6720TIP3    H141795   6.798   3.755   0.191  0.1877  1.6000  1.2387
 6720TIP3    H241796   6.801   3.764   0.040 -0.7288 -1.4856  0.9791
 6721TIP3   OH241797   4.595   2.555   6.978  0.1309 -0.2853 -0.3336
 6721TIP3    H141798   4.621   2.506   6.900 -1.4369 -0.7691 -0.5831
 6721TIP3    H241799   4.644   2.514   7.049  0.9917 -0.3447 -0.9487
 6722TIP3   OH241800   2.466   4.983   2.645 -0.3252 -0.3101  0.0016
 6722TIP3    H141801   2.530   5.027   2.590 -0.4160 -1.5145 -1.1080
 6722TIP3    H241802   2.515   4.957   2.723 -0.1480  1.2192  0.4469
 6723TIP3   OH241803   6.661   3.158   7.917 -0.4349  0.4018  0.0125
 6723TIP3    H141804   6.652   3.253   7.908 -3.5848  0.1972 -0.2031
 6723TIP3    H241805   6.651   3.141   8.011 -0.4779  0.2565 -0.0170
 6724TIP3   OH241806   1.781   3.755   7.096  0.3774 -0.0107 -0.2428
 6724TIP3    H141807   1.783   3.671   7.051 -2.2533  0.1861 -0.9204
 6724TIP3    H241808   1.812   3.736   7.185 -0.9919 -1.9067 -0.1061
 6725TIP3   OH241809   3.144   5.656   7.553 -0.1997 -0.1262  0.5273
 6725TIP3    H141810   3.194   5.621   7.479  0.0543  2.0498 -0.4157
 6725TIP3    H241811   3.059   5.679   7.514  0.4067  2.3364  0.5017
 6726TIP3   OH241812   5.336   6.261   0.673 -0.7606 -0.4702 -0.3369
 6726TIP3    H141813   5.240   6.255   0.664 -0.7313 -0.1666 -0.9074
 6726TIP3    H241814   5.358   6.192   0.735 -1.5609  0.7322  1.3445
 6727TIP3   OH241815   3.229   4.111   2.277 -0.8132 -0.6049  0.5254
 6727TIP3    H141816   3.202   4.083   2.190  1.1735  2.1935 -1.1596
 6727TIP3    H241817   3.322   4.087   2.282  0.7006  3.9646 -0.5777
 6728TIP3   OH241818   3.140   4.100   0.185 -0.2056  0.8160 -0.1379
 6728TIP3    H141819   3.225   4.060   0.167 -0.6554 -0.9446  1.3494
 6728TIP3    H241820   3.088   4.082   0.106 -0.0739 -0.7028  0.0983
 6729TIP3   OH241821   4.387   6.186   2.966 -0.2369  0.2497  0.2316
 6729TIP3    H141822   4.310   6.175   3.021  0.1650  0.5837  0.8792
 6729TIP3    H241823   4.366   6.259   2.909 -0.7091 -0.1838 -0.1606
 6730TIP3   OH241824   4.015   4.250   8.574  0.9439 -0.3700  0.0695
 6730TIP3    H141825   3.957   4.325   8.589  1.4820  0.1759 -0.5194
 6730TIP3    H241826   4.039   4.221   8.662 -1.6768 -1.8043  0.4118
 6731TIP3   OH241827   1.128   3.816   1.050 -0.2960 -0.5449 -0.3208
 6731TIP3    H141828   1.076   3.744   1.013 -1.0019  1.1229 -2.8703
 6731TIP3    H241829   1.204   3.823   0.992  1.1870 -0.8785  1.4824
 6732TIP3   OH241830   2.985   4.254   1.306  0.1235 -0.0982 -0.0746
 6732TIP3    H141831   3.066   4.298   1.334 -1.1655  3.3340 -1.1384
 6732TIP3    H241832   3.014   4.170   1.271  3.4617  1.5537 -1.7247
 6733TIP3   OH241833   3.056   2.496   0.929  0.4186  1.0603 -0.5111
 6733TIP3    H141834   3.147   2.521   0.910  0.8208 -0.3382 -0.4785
 6733TIP3    H241835   3.023   2.462   0.846  0.8620 -1.1476  0.1724
 6734TIP3   OH241836   5.090   3.440   6.992  0.0653 -0.3066  0.6551
 6734TIP3    H141837   5.058   3.523   7.028  1.0759  0.7311 -0.7278
 6734TIP3    H241838   5.026   3.417   6.925  0.6800  0.3004 -0.1660
 6735TIP3   OH241839   0.604   2.265   1.096  0.7735  0.9774  1.0287
 6735TIP3    H141840   0.567   2.198   1.038  2.8031  0.4215  0.2701
 6735TIP3    H241841   0.529   2.319   1.122 -0.5891 -0.3052 -0.0525
 6736TIP3   OH241842   1.370   0.097   1.613  0.7567  0.4753 -0.7050
 6736TIP3    H141843   1.317   0.157   1.665  1.6465  1.5944 -1.0547
 6736TIP3    H241844   1.370   0.016   1.663 -0.6407  0.6805 -0.3243
 6737TIP3   OH241845   4.312   6.398   1.335  0.2448  0.2223 -0.0425
 6737TIP3    H141846   4.231   6.354   1.310  0.2901  1.2602 -2.2535
 6737TIP3    H241847   4.287   6.491   1.341  0.9169  0.3535  1.0363
 6738TIP3   OH241848   4.860   1.891   7.453 -0.3327 -0.3494 -0.0582
 6738TIP3    H141849   4.901   1.860   7.534 -0.5888  0.4176  0.3799
 6738TIP3    H241850   4.890   1.830   7.386 -0.6028 -1.3525  0.7176
 6739TIP3   OH241851   6.045   2.834   0.945 -0.3920 -0.1760 -0.0562
 6739TIP3    H141852   6.041   2.808   1.038 -0.6117 -1.4189 -0.3895
 6739TIP3    H241853   6.127   2.883   0.938 -0.6863  0.4967  0.9229
 6740TIP3   OH241854   2.829   6.407   8.445 -0.3717 -0.0055  0.4393
 6740TIP3    H141855   2.782   6.485   8.417 -0.1436  0.2725  0.8183
 6740TIP3    H241856   2.866   6.371   8.365  0.8772  1.1803  0.4398
 6741TIP3   OH241857   0.992   6.318   1.829 -0.0822 -0.3075 -0.0984
 6741TIP3    H141858   1.024   6.379   1.896  0.3863 -1.5748  0.8520
 6741TIP3    H241859   1.056   6.248   1.827 -1.6651 -1.8279  0.3025
 6742TIP3   OH241860   5.736   4.120   0.556  0.1842 -0.6542  0.2221
 6742TIP3    H141861   5.820   4.130   0.600 -0.3682 -0.7143  1.3305
 6742TIP3    H241862   5.747   4.162   0.471  1.2607 -0.4727  0.4473
 6743TIP3   OH241863   5.652   5.049   1.807  0.0205 -0.4185 -0.1474
 6743TIP3    H141864   5.706   5.092   1.873 -2.0187  0.9013  0.7771
 6743TIP3    H241865   5.712   4.990   1.761  2.5277  1.9453 -0.1662
 6744TIP3   OH241866   4.466   2.051   2.619  0.1041  0.4787  0.4835
 6744TIP3    H141867   4.391   2.110   2.620 -0.8273 -0.6597  1.0311
 6744TIP3    H241868   4.430   1.966   2.646  1.5034 -0.2060  0.3046
 6745TIP3   OH241869   2.671   0.196   2.017 -0.5855 -0.3195 -0.6146
 6745TIP3    H141870   2.744   0.249   2.049  0.4535 -1.3149 -1.2242
 6745TIP3    H241871   2.593   0.247   2.036  0.3208  1.0756 -0.5232
 6746TIP3   OH241872   6.859   1.459   0.952 -0.1048  0.0428 -0.5377
 6746TIP3    H141873   6.912   1.383   0.975  0.4480  0.8609  1.0793
 6746TIP3    H241874   6.820   1.437   0.868  1.5822 -1.2185 -1.0437
 6747TIP3   OH241875   0.040   0.619   2.812  0.5935 -0.5451  0.3209
 6747TIP3    H141876   0.132   0.607   2.787  1.0620  1.8754  0.6805
 6747TIP3    H241877   0.042   0.621   2.908  0.4664  1.2528  0.3134
 6748TIP3   OH241878   4.103   0.900   2.024  0.2554 -0.1284 -0.5573
 6748TIP3    H141879   4.039   0.896   2.095 -1.3417  0.5270 -1.9020
 6748TIP3    H241880   4.086   0.984   1.981  0.6991 -0.8340 -2.1578
 6749TIP3   OH241881   6.131   1.144   6.756 -0.6873  0.3046 -0.2930
 6749TIP3    H141882   6.151   1.165   6.848  0.7004  0.3299 -0.5772
 6749TIP3    H241883   6.036   1.149   6.751 -0.7744  0.5847  1.0833
 6750TIP3   OH241884   5.890   4.385   3.021 -0.3250  0.1997 -0.1706
 6750TIP3    H141885   5.948   4.379   3.097 -0.5994 -1.7411 -0.0495
 6750TIP3    H241886   5.886   4.478   3.000  2.2768  0.4501  0.2195
 6751TIP3   OH241887   5.230   6.453   0.879  0.3387  0.0048  0.2012
 6751TIP3    H141888   5.138   6.434   0.893 -0.1037  1.5136 -0.4841
 6751TIP3    H241889   5.242   6.444   0.784  0.4935  1.4025  0.0719
 6752TIP3   OH241890   6.788   3.634   8.660  0.1499  0.4765  0.3411
 6752TIP3    H141891   6.797   3.551   8.708  1.6534  0.6838  0.4677
 6752TIP3    H241892   6.700   3.629   8.621 -0.0756 -0.8542  0.9351
 6753TIP3   OH241893   3.472   1.118   8.084  0.4198  0.3218  0.4633
 6753TIP3    H141894   3.484   1.211   8.105 -1.6230  0.6767  0.2723
 6753TIP3    H241895   3.452   1.077   8.168  1.1175  0.0735  0.5149
 6754TIP3   OH241896   2.639   1.096   0.234  0.1915  0.1744 -0.0003
 6754TIP3    H141897   2.643   1.168   0.172 -0.4252 -0.1606 -0.4469
 6754TIP3    H241898   2.730   1.070   0.248  0.4096  0.9979  0.1231
 6755TIP3   OH241899   1.128   0.476   2.229 -0.2500 -1.2401 -0.2251
 6755TIP3    H141900   1.112   0.570   2.238 -0.7655 -1.3396 -0.0486
 6755TIP3    H241901   1.052   0.435   2.270 -0.5741 -1.7349 -1.2894
 6756TIP3   OH241902   6.313   6.654   1.036  0.5511 -0.2627 -0.4815
 6756TIP3    H141903   6.408   6.661   1.047  0.4597  2.5243 -0.8933
 6756TIP3    H241904   6.294   6.702   0.956 -1.2838 -0.1104 -0.0079
 6757TIP3   OH241905   1.621   3.884   0.826  0.2886 -0.2977 -0.4909
 6757TIP3    H141906   1.628   3.790   0.812  0.6254 -0.2293 -0.7785
 6757TIP3    H241907   1.629   3.923   0.739 -0.1924 -0.0193 -0.4168
 6758TIP3   OH241908   4.200   0.161   7.193 -0.0463 -0.1796 -0.0790
 6758TIP3    H141909   4.133   0.130   7.254 -1.9296  1.5083 -1.1616
 6758TIP3    H241910   4.280   0.117   7.221 -1.0456 -0.3567  2.8725
 6759TIP3   OH241911   5.601   0.970   6.860 -0.3460 -0.0259 -0.4150
 6759TIP3    H141912   5.621   1.017   6.779 -0.5201  2.0286  0.6669
 6759TIP3    H241913   5.506   0.964   6.862 -0.3879  0.6311 -0.0190
 6760TIP3   OH241914   4.233   3.072   0.297 -0.9720 -0.5448  0.9779
 6760TIP3    H141915   4.287   2.994   0.312 -0.6145 -0.3374  0.7984
 6760TIP3    H241916   4.290   3.145   0.321 -0.3226 -0.1818 -1.3481
 6761TIP3   OH241917   5.104   4.346   1.980 -0.6797  0.3539 -0.3496
 6761TIP3    H141918   5.098   4.338   1.885 -4.0000  0.1596 -0.2441
 6761TIP3    H241919   5.079   4.260   2.013  2.0340 -0.1108  0.8147
 6762TIP3   OH241920   2.145   3.087   8.684 -0.2824  0.1659  0.5825
 6762TIP3    H141921   2.114   3.017   8.627 -0.6502  0.1257  0.8301
 6762TIP3    H241922   2.225   3.052   8.724 -0.6188 -0.2246  0.9207
 6763TIP3   OH241923   3.225   3.876   1.553 -0.2056 -0.2765  0.1362
 6763TIP3    H141924   3.130   3.879   1.546 -0.1703  1.4296 -0.2525
 6763TIP3    H241925   3.254   3.963   1.523  1.3651 -0.1653  1.7702
 6764TIP3   OH241926   5.327   0.108   1.483 -0.2133 -0.9551 -0.0253
 6764TIP3    H141927   5.411   0.065   1.496  0.5286  0.8103  1.6587
 6764TIP3    H241928   5.334   0.149   1.397  1.3126  0.4007  0.6832
 6765TIP3   OH241929   5.274   1.439   0.640 -0.7292 -0.2612  0.4565
 6765TIP3    H141930   5.241   1.439   0.730  0.2360 -3.4444  0.9232
 6765TIP3    H241931   5.231   1.364   0.598  0.8806 -0.4929 -0.8889
 6766TIP3   OH241932   2.667   0.517   1.003 -0.3337 -0.1099  0.5462
 6766TIP3    H141933   2.713   0.591   0.963  1.6770 -1.5997 -0.0222
 6766TIP3    H241934   2.699   0.514   1.093 -1.3338  0.4009  0.9389
 6767TIP3   OH241935   0.027   0.948   0.544 -0.0166  0.0050 -0.4712
 6767TIP3    H141936   0.069   0.862   0.536 -0.5773 -0.3990  0.7578
 6767TIP3    H241937   0.095   1.010   0.518  0.3878 -0.7976 -1.4075
 6768TIP3   OH241938   2.023   1.499   7.904  0.3313  0.2472 -0.0951
 6768TIP3    H141939   2.067   1.529   7.824  0.0430  1.1260  0.0552
 6768TIP3    H241940   2.090   1.450   7.951  0.5374 -0.1881 -0.8244
 6769TIP3   OH241941   2.470   3.472   7.255  1.1742 -0.3770 -0.1058
 6769TIP3    H141942   2.551   3.421   7.257 -0.0025 -2.3242  0.6647
 6769TIP3    H241943   2.400   3.407   7.267 -0.4197  1.4214  0.9550
 6770TIP3   OH241944   3.735   5.927   8.751 -0.3403 -0.0867  0.3672
 6770TIP3    H141945   3.756   5.980   8.674  0.0064 -2.0717 -0.9514
 6770TIP3    H241946   3.819   5.916   8.796 -0.0996 -0.8376 -0.2438
 6771TIP3   OH241947   2.811   0.775   2.259  0.3742  0.1270  0.2226
 6771TIP3    H141948   2.851   0.742   2.339  0.2657  0.8090  0.5678
 6771TIP3    H241949   2.812   0.701   2.199  0.3959 -0.4075  0.8762
 6772TIP3   OH241950   5.985   4.738   1.538  0.3784 -0.0109 -0.6945
 6772TIP3    H141951   5.963   4.823   1.500 -0.9527  0.6591  1.3579
 6772TIP3    H241952   6.070   4.715   1.500  0.7502  2.2072 -1.3507
 6773TIP3   OH241953   0.532   1.320   2.106  0.1938  0.2027  0.4081
 6773TIP3    H141954   0.501   1.229   2.111 -0.7454  0.4959  0.0452
 6773TIP3    H241955   0.600   1.325   2.173  0.1888 -0.7442  0.5016
 6774TIP3   OH241956   2.286   3.028   1.637 -0.7257  0.6144  0.0197
 6774TIP3    H141957   2.237   3.110   1.646  1.1569  2.0790 -2.1424
 6774TIP3    H241958   2.352   3.032   1.707 -1.2613  0.4518  0.5399
 6775TIP3   OH241959   1.468   4.329   1.113 -0.3227 -0.0920  0.0891
 6775TIP3    H141960   1.442   4.421   1.115 -2.0165 -0.4919 -1.2310
 6775TIP3    H241961   1.556   4.330   1.075 -0.0821  1.0155  0.6437
 6776TIP3   OH241962   1.886   6.732   2.213 -0.3940 -0.0559  0.3323
 6776TIP3    H141963   1.869   6.673   2.286  1.1234 -0.2639  0.5381
 6776TIP3    H241964   1.901   6.674   2.139  1.5254  0.0172  0.6244
 6777TIP3   OH241965   1.995   2.874   1.586 -0.8032 -0.2201  0.6695
 6777TIP3    H141966   1.939   2.951   1.598 -1.7550 -1.0920  2.1583
 6777TIP3    H241967   2.071   2.907   1.537 -1.9581  1.2912 -0.2257
 6778TIP3   OH241968   1.022   5.387   7.997 -0.2861 -0.6968  0.0543
 6778TIP3    H141969   1.042   5.372   7.905 -0.8165 -1.2831  0.0363
 6778TIP3    H241970   0.986   5.476   7.999  1.1453 -0.0788 -0.0797
 6779TIP3   OH241971   0.826   5.886   0.656 -0.6635  0.0347  0.3564
 6779TIP3    H141972   0.921   5.899   0.662 -0.6115 -0.6495  1.3855
 6779TIP3    H241973   0.789   5.974   0.664 -0.1748  0.1052  2.5415
 6780TIP3   OH241974   3.327   6.163   8.170 -0.5129  0.3582 -0.2759
 6780TIP3    H141975   3.277   6.236   8.206  0.0386  0.5635  0.0853
 6780TIP3    H241976   3.399   6.205   8.121 -0.0244  0.0575  0.1780
 6781TIP3   OH241977   3.711   2.822   0.713 -0.0104 -0.1283 -0.1846
 6781TIP3    H141978   3.641   2.759   0.730 -0.7343  0.5619 -0.5231
 6781TIP3    H241979   3.697   2.891   0.778  1.0842 -0.5454  0.5167
 6782TIP3   OH241980   2.635   3.766   1.252 -0.5156 -0.4086 -0.3578
 6782TIP3    H141981   2.679   3.708   1.191  0.4271 -1.4950  1.2788
 6782TIP3    H241982   2.664   3.737   1.339 -1.9579  0.9184  0.6376
 6783TIP3   OH241983   3.369   5.938   0.652 -0.2257  0.1178 -0.5679
 6783TIP3    H141984   3.317   5.881   0.595  2.0858 -1.8275 -0.9037
 6783TIP3    H241985   3.392   5.882   0.727 -0.9174  1.7858  0.9528
 6784TIP3   OH241986   1.969   5.824   0.418 -0.1288 -0.6247 -0.2743
 6784TIP3    H141987   1.968   5.865   0.505 -1.8694 -1.0294 -0.0614
 6784TIP3    H241988   2.051   5.854   0.378  0.3443  0.1696  1.2173
 6785TIP3   OH241989   2.707   6.140   7.536  0.1487  0.0818 -0.0748
 6785TIP3    H141990   2.663   6.055   7.528 -0.8371  0.5778 -0.0210
 6785TIP3    H241991   2.662   6.196   7.473  0.0846  0.8584  0.6512
 6786TIP3   OH241992   3.342   5.872   1.747 -0.3109  0.2175  0.2784
 6786TIP3    H141993   3.302   5.840   1.828  1.2139 -1.2109  0.5237
 6786TIP3    H241994   3.427   5.908   1.774 -0.4692  1.2080 -0.4832
 6787TIP3   OH241995   1.780   3.081   0.284 -0.2861 -0.2305 -0.2576
 6787TIP3    H141996   1.751   3.108   0.197 -1.1760 -1.7941 -0.4795
 6787TIP3    H241997   1.812   2.991   0.272  1.4750  0.2283  0.6604
 6788TIP3   OH241998   1.218   2.801   7.147  0.3260  0.0879 -0.4627
 6788TIP3    H141999   1.253   2.716   7.122  2.5263  0.6527  0.4585
 6788TIP3    H242000   1.155   2.822   7.077  2.2925 -0.7548 -2.6320
 6789TIP3   OH242001   4.987   0.186   1.358 -0.3486  0.0519 -0.5337
 6789TIP3    H142002   4.971   0.280   1.369 -0.1248 -0.0988  1.3493
 6789TIP3    H242003   5.070   0.182   1.310  2.1503  0.9485  3.2459
 6790TIP3   OH242004   6.595   0.580   0.222  0.8935 -0.4776 -0.1066
 6790TIP3    H142005   6.509   0.601   0.258 -0.5513 -1.8166 -2.5162
 6790TIP3    H242006   6.615   0.654   0.164  1.1361 -0.4047  0.0695
 6791TIP3   OH242007   0.468   4.430   2.278  0.3349  0.4296  0.0867
 6791TIP3    H142008   0.431   4.349   2.244 -0.0026  0.4581  0.3838
 6791TIP3    H242009   0.394   4.476   2.319  0.9218 -0.1089  1.8270
 6792TIP3   OH242010   0.498   4.932   1.763  0.2990  0.0253  0.8634
 6792TIP3    H142011   0.463   4.998   1.703  1.0665 -0.3555 -0.0157
 6792TIP3    H242012   0.506   4.853   1.710  0.4075 -0.4890  1.6302
 6793TIP3   OH242013   0.437   2.891   1.482 -0.2645  0.5743 -0.3663
 6793TIP3    H142014   0.462   2.925   1.396 -1.4189  0.5070 -0.7541
 6793TIP3    H242015   0.359   2.838   1.465  0.9608 -1.6000  0.3342
 6794TIP3   OH242016   1.712   2.570   7.740  0.4797 -0.0457 -0.0598
 6794TIP3    H142017   1.696   2.663   7.754  0.5442 -0.0555  0.0866
 6794TIP3    H242018   1.776   2.546   7.808 -0.2000 -0.3900  0.4705
 6795TIP3   OH242019   5.758   3.148   7.709  0.0617 -0.8453  0.6968
 6795TIP3    H142020   5.764   3.101   7.792  0.0001  0.4465  1.4479
 6795TIP3    H242021   5.829   3.212   7.712 -0.0892 -0.6278 -0.1415
 6796TIP3   OH242022   5.480   3.666   7.698  0.0605  0.1228 -0.0301
 6796TIP3    H142023   5.530   3.685   7.619 -0.6248  2.8769  0.1263
 6796TIP3    H242024   5.509   3.578   7.723  3.3278  0.7646 -1.0506
 6797TIP3   OH242025   5.957   1.898   2.113 -0.0971 -0.4320  0.2515
 6797TIP3    H142026   5.951   1.965   2.044 -0.4896 -1.0540 -0.3270
 6797TIP3    H242027   5.866   1.877   2.134  0.0207 -0.1294  1.0852
 6798TIP3   OH242028   1.341   0.499   0.838 -0.5879 -0.3087  0.2953
 6798TIP3    H142029   1.356   0.594   0.840 -1.4397 -0.1592  0.1142
 6798TIP3    H242030   1.264   0.486   0.894 -0.1866 -0.9571  0.7107
 6799TIP3   OH242031   3.466   6.607   7.432  0.0401 -0.3561  0.0456
 6799TIP3    H142032   3.535   6.673   7.432 -1.2612  1.0848 -1.3326
 6799TIP3    H242033   3.510   6.526   7.405  1.0583  0.7177 -1.6751
 6800TIP3   OH242034   4.218   2.358   1.827 -0.3051  0.2744 -0.2855
 6800TIP3    H142035   4.232   2.439   1.876 -1.8281 -0.1978  0.9984
 6800TIP3    H242036   4.226   2.289   1.892 -0.9664 -0.4735 -0.9758
 6801TIP3   OH242037   5.272   1.125   1.483  0.1527  0.2643  0.3890
 6801TIP3    H142038   5.242   1.118   1.574  1.2814  1.3050  0.8607
 6801TIP3    H242039   5.301   1.036   1.461 -0.9087 -0.1889  0.7496
 6802TIP3   OH242040   5.270   1.526   1.707 -0.0582 -0.4262  0.4110
 6802TIP3    H142041   5.351   1.475   1.706 -0.3644 -0.9135 -0.1667
 6802TIP3    H242042   5.297   1.616   1.690  0.5217 -0.3249  1.7391
 6803TIP3   OH242043   5.278   4.200   0.471  0.1172  0.0092 -0.0758
 6803TIP3    H142044   5.340   4.136   0.505 -1.1586 -0.2851  1.8583
 6803TIP3    H242045   5.196   4.151   0.461 -0.8848  1.2729  1.4421
 6804TIP3   OH242046   0.994   3.515   8.242 -0.2160 -0.1475 -0.0071
 6804TIP3    H142047   0.980   3.600   8.284  1.7962  0.4183 -0.3562
 6804TIP3    H242048   1.058   3.472   8.298 -1.9447 -1.9025  0.7206
 6805TIP3   OH242049   0.522   2.170   2.021  0.9040  0.2103 -0.2697
 6805TIP3    H142050   0.567   2.247   1.986 -1.2411  1.5719 -0.2562
 6805TIP3    H242051   0.470   2.137   1.948  0.4787 -0.1612  0.1928
 6806TIP3   OH242052   1.268   0.733   8.027 -0.3064 -0.0128  0.4514
 6806TIP3    H142053   1.265   0.683   8.109  0.1143 -1.6019 -0.4622
 6806TIP3    H242054   1.323   0.680   7.969  0.6308  1.8157 -0.3988
 6807TIP3   OH242055   2.594   4.356   2.055  0.3048 -0.1802 -0.0473
 6807TIP3    H142056   2.548   4.282   2.095 -2.1275  0.3478 -1.6580
 6807TIP3    H242057   2.680   4.322   2.033 -0.5970 -2.4348 -0.3802
 6808TIP3   OH242058   4.122   0.234   7.547 -0.5266 -0.0840  0.0159
 6808TIP3    H142059   4.217   0.234   7.557 -0.3985 -1.6142 -1.0155
 6808TIP3    H242060   4.089   0.229   7.637  0.3274  1.0081  0.4229
 6809TIP3   OH242061   4.643   5.063   0.116 -0.1154  0.2949  0.1060
 6809TIP3    H142062   4.549   5.074   0.103 -0.1062  2.6137  1.4644
 6809TIP3    H242063   4.683   5.122   0.052  0.5216 -1.4299 -1.1744
 6810TIP3   OH242064   4.502   1.786   1.302 -0.1932  0.1164 -0.1126
 6810TIP3    H142065   4.497   1.837   1.221 -0.5552  0.1779 -0.0531
 6810TIP3    H242066   4.415   1.748   1.312  0.6832 -2.3767 -1.3431
 6811TIP3   OH242067   6.761   5.401   7.060 -0.2122 -0.4155 -0.0115
 6811TIP3    H142068   6.775   5.493   7.037  0.5095 -1.4080 -4.5165
 6811TIP3    H242069   6.667   5.394   7.073 -0.8170  0.5204 -2.9637
 6812TIP3   OH242070   5.611   0.396   8.307 -0.1157 -0.1811 -0.2978
 6812TIP3    H142071   5.686   0.366   8.256  0.3909  0.7228 -0.0995
 6812TIP3    H242072   5.545   0.327   8.296  0.7883 -1.0552 -0.3613
 6813TIP3   OH242073   3.830   3.903   8.567 -0.8932  0.3016  0.5486
 6813TIP3    H142074   3.819   3.954   8.486 -2.6755 -0.3615  0.3127
 6813TIP3    H242075   3.821   3.968   8.637 -1.5045  0.5804  0.2279
 6814TIP3   OH242076   4.999   2.503   8.132  0.3006  0.3439 -0.1973
 6814TIP3    H142077   4.969   2.430   8.078 -0.3750  1.1218 -0.9142
 6814TIP3    H242078   4.961   2.486   8.218  0.6334 -0.4399 -0.1979
 6815TIP3   OH242079   3.760   4.676   1.324  0.0641  0.1240 -0.0476
 6815TIP3    H142080   3.782   4.653   1.415 -0.4812 -1.7526 -0.3356
 6815TIP3    H242081   3.810   4.613   1.272 -0.8235  0.1682 -0.9723
 6816TIP3   OH242082   0.956   3.587   7.795  0.1263  0.0321  0.2169
 6816TIP3    H142083   0.919   3.558   7.878 -0.5819 -0.9683 -0.4241
 6816TIP3    H242084   1.044   3.549   7.793 -0.8931 -2.5304 -0.7582
 6817TIP3   OH242085   1.754   3.873   0.270 -0.1256  0.0785  0.3988
 6817TIP3    H142086   1.798   3.921   0.340  1.8793  0.1237 -0.8053
 6817TIP3    H242087   1.733   3.939   0.204  1.2374 -0.4070 -0.5751
 6818TIP3   OH242088   2.306   6.472   2.153 -0.4625  0.1367  0.4261
 6818TIP3    H142089   2.316   6.378   2.166 -0.4563 -0.3396 -2.3559
 6818TIP3    H242090   2.374   6.494   2.089  0.4007  2.3363  1.9917
 6819TIP3   OH242091   4.655   0.395   1.646 -0.1386 -0.3644 -0.9046
 6819TIP3    H142092   4.639   0.304   1.621  0.9660 -0.3723 -1.6595
 6819TIP3    H242093   4.576   0.442   1.619 -0.6265 -1.0578 -0.7063
 6820TIP3   OH242094   6.514   5.486   7.982 -0.1213  0.1169 -0.2016
 6820TIP3    H142095   6.510   5.535   7.900  3.0731 -0.3064 -0.7797
 6820TIP3    H242096   6.459   5.410   7.967 -0.7192  0.7570 -1.4131
 6821TIP3   OH242097   3.854   4.606   1.591 -0.3847 -0.0150 -0.4462
 6821TIP3    H142098   3.804   4.525   1.603  1.0773 -0.7094  1.3810
 6821TIP3    H242099   3.902   4.618   1.673 -0.5445  2.7398 -0.6542
 6822TIP3   OH242100   3.760   3.765   1.312  0.2987 -0.7162  0.6174
 6822TIP3    H142101   3.739   3.679   1.274  1.2848 -0.2750 -1.0162
 6822TIP3    H242102   3.826   3.746   1.379  1.3948 -1.1309 -0.5537
 6823TIP3   OH242103   1.343   5.396   8.360  0.3965  0.0893  0.2585
 6823TIP3    H142104   1.247   5.401   8.354  0.2323 -1.4181  1.1097
 6823TIP3    H242105   1.370   5.486   8.378 -1.1016  0.1708  2.6506
 6824TIP3   OH242106   2.676   1.944   8.113  0.2446  0.2268 -0.5192
 6824TIP3    H142107   2.701   1.860   8.075 -0.1661  0.2498 -0.8433
 6824TIP3    H242108   2.581   1.948   8.103  0.1440  0.2987  0.3752
 6825TIP3   OH242109   4.237   0.348   6.987 -0.0761 -0.1452 -0.0604
 6825TIP3    H142110   4.218   0.291   7.061  0.0051  1.5432  1.3310
 6825TIP3    H242111   4.299   0.298   6.933 -0.2721 -1.4827  0.9069
 6826TIP3   OH242112   4.694   0.143   1.876  0.3991  0.5101  0.1480
 6826TIP3    H142113   4.777   0.108   1.843 -0.1905 -1.9728  1.0824
 6826TIP3    H242114   4.629   0.117   1.810  0.0048  0.1868  0.6567
 6827TIP3   OH242115   0.401   2.642   0.243 -0.1478 -0.1456  0.0533
 6827TIP3    H142116   0.332   2.579   0.225 -1.0422  0.6069  0.7601
 6827TIP3    H242117   0.357   2.727   0.241  0.7189  0.3350  0.6909
 6828TIP3   OH242118   4.988   2.032   2.078 -0.1975 -0.2775  0.1391
 6828TIP3    H142119   4.942   2.104   2.121 -2.0673 -1.0808 -0.4355
 6828TIP3    H242120   4.957   1.953   2.122  0.3770 -0.8793 -0.5000
 6829TIP3   OH242121   6.345   5.336   0.257  0.1402  0.0995 -0.4802
 6829TIP3    H142122   6.405   5.274   0.216  1.3917  0.8357  0.1716
 6829TIP3    H242123   6.401   5.405   0.291 -1.0698  0.7459  0.2939
 6830TIP3   OH242124   6.686   4.964   8.658  0.4820 -0.7249 -0.2688
 6830TIP3    H142125   6.622   4.948   8.728  0.9202  1.3980  0.7165
 6830TIP3    H242126   6.768   4.980   8.704  0.7687  0.7683 -1.2415
 6831TIP3   OH242127   3.247   5.945   2.811 -0.4809  0.4247  0.5306
 6831TIP3    H142128   3.254   6.014   2.746  0.0607 -1.4344 -1.4852
 6831TIP3    H242129   3.153   5.939   2.830 -0.6969  0.6668 -0.4326
 6832TIP3   OH242130   6.296   5.472   1.632  0.3813  0.2556 -0.1729
 6832TIP3    H142131   6.256   5.495   1.716  1.7168  2.9208 -0.1447
 6832TIP3    H242132   6.223   5.468   1.570 -0.7920 -2.9978  1.2179
 6833TIP3   OH242133   0.870   5.665   0.156 -0.4837  0.0824 -0.3609
 6833TIP3    H142134   0.821   5.647   0.236 -0.6382  0.7861 -0.2895
 6833TIP3    H242135   0.805   5.659   0.086 -0.3933 -0.3159 -0.4120
 6834TIP3   OH242136   6.631   2.193   7.087 -0.4637 -0.1894 -0.3239
 6834TIP3    H142137   6.708   2.224   7.135 -1.4209 -1.8904  2.5315
 6834TIP3    H242138   6.655   2.104   7.059 -0.3347  0.3817 -2.1112
 6835TIP3   OH242139   2.530   4.041   7.707  0.4047 -1.0176  0.2803
 6835TIP3    H142140   2.546   3.995   7.625 -0.8859 -0.6112 -0.2335
 6835TIP3    H242141   2.608   4.094   7.722  1.0478 -1.8199 -0.1843
 6836TIP3   OH242142   1.979   1.595   1.537 -0.6308  0.6226 -0.4673
 6836TIP3    H142143   2.042   1.607   1.466  0.0910 -0.8047 -0.1126
 6836TIP3    H242144   2.020   1.637   1.613  1.4564 -2.8239  0.5436
 6837TIP3   OH242145   3.171   2.619   1.304  0.1466 -0.2077  0.2064
 6837TIP3    H142146   3.172   2.693   1.243 -0.0293  0.5396  1.0950
 6837TIP3    H242147   3.196   2.657   1.388  1.2878 -1.3911  0.4353
 6838TIP3   OH242148   2.913   4.653   1.275 -0.4306 -0.0405  0.6255
 6838TIP3    H142149   2.832   4.628   1.320 -1.2341  0.6206 -0.3798
 6838TIP3    H242150   2.946   4.728   1.323 -1.7253  1.1778 -0.3050
 6839TIP3   OH242151   6.012   2.409   1.273 -0.0481 -0.5685 -0.1481
 6839TIP3    H142152   6.094   2.423   1.227 -0.8393  0.9729 -1.1817
 6839TIP3    H242153   5.988   2.318   1.254  1.7533 -1.2790  0.8005
 6840TIP3   OH242154   5.303   3.881   7.522  0.2615  0.3180  0.2617
 6840TIP3    H142155   5.240   3.809   7.511  1.0053  0.0188 -2.9042
 6840TIP3    H242156   5.377   3.841   7.567  0.8554 -1.1438 -1.8462
 6841TIP3   OH242157   4.514   1.012   0.440 -0.1255 -0.1991 -0.2331
 6841TIP3    H142158   4.567   1.031   0.363 -0.6156  0.0893 -0.5010
 6841TIP3    H242159   4.568   1.041   0.514 -0.2241  0.8301 -0.5463
 6842TIP3   OH242160   1.478   5.440   7.788 -0.3894  0.2679 -0.0235
 6842TIP3    H142161   1.410   5.487   7.837  0.5166  1.4044  0.1745
 6842TIP3    H242162   1.491   5.492   7.710  2.3958  1.8297  1.3495
 6843TIP3   OH242163   1.378   4.904   1.903 -0.0995  0.5538  0.0853
 6843TIP3    H142164   1.284   4.906   1.921 -0.1423  0.7964 -0.1587
 6843TIP3    H242165   1.419   4.922   1.987 -0.2853  1.1162  0.0569
 6844TIP3   OH242166   1.572   3.698   8.595  0.2474 -0.0225 -0.0640
 6844TIP3    H142167   1.590   3.721   8.504  0.4821  2.6231  0.5689
 6844TIP3    H242168   1.494   3.643   8.591 -1.3768  2.2338 -1.7168
 6845TIP3   OH242169   3.689   3.202   1.432 -0.4450  0.2395  0.1783
 6845TIP3    H142170   3.720   3.118   1.400 -1.9354 -0.1215 -0.3732
 6845TIP3    H242171   3.603   3.213   1.393 -0.4185  1.8856  0.4888
 6846TIP3   OH242172   6.050   3.559   8.188  0.0865 -0.4626 -0.3327
 6846TIP3    H142173   6.018   3.476   8.222 -2.5356  0.2726 -0.7697
 6846TIP3    H242174   6.012   3.625   8.247  1.6576  0.4687 -0.3148
 6847TIP3   OH242175   2.021   5.582   0.664  0.0162 -0.2105 -0.8085
 6847TIP3    H142176   1.926   5.591   0.667 -0.0819 -1.3287 -0.0814
 6847TIP3    H242177   2.054   5.672   0.668 -0.9656  0.1123  1.3511
 6848TIP3   OH242178   0.260   2.107   8.257 -0.0304 -0.5660 -0.6656
 6848TIP3    H142179   0.301   2.021   8.272 -2.2110 -1.6285 -0.3448
 6848TIP3    H242180   0.277   2.156   8.338  0.3189 -1.1078 -0.4031
 6849TIP3   OH242181   4.407   6.129   7.864  0.6530  0.6590 -0.0896
 6849TIP3    H142182   4.401   6.188   7.789 -0.7964  1.0875  0.3307
 6849TIP3    H242183   4.316   6.108   7.885  0.9489  1.5947  2.3617
 6850TIP3   OH242184   3.979   6.581   7.533  0.0859  0.3802  0.1820
 6850TIP3    H142185   4.058   6.529   7.550 -0.6985 -1.8231 -2.1927
 6850TIP3    H242186   3.967   6.577   7.438 -2.0142  2.0034  0.2897
 6851TIP3   OH242187   1.948   1.912   1.638  0.0469 -0.5014  0.0507
 6851TIP3    H142188   1.942   1.943   1.547 -1.1218 -2.8115 -0.7258
 6851TIP3    H242189   2.042   1.903   1.653  0.3266  1.3173 -0.3858
 6852TIP3   OH242190   5.921   4.058   1.855  0.3329  0.3580 -0.3057
 6852TIP3    H142191   5.882   4.139   1.822 -1.3809 -0.5761 -0.6596
 6852TIP3    H242192   5.888   4.049   1.944  0.8704  0.2562 -0.1098
 6853TIP3   OH242193   5.415   6.092   2.602  0.1384  0.1083 -0.1378
 6853TIP3    H142194   5.387   6.120   2.515  0.2736  0.7447  0.0160
 6853TIP3    H242195   5.333   6.088   2.653  0.0766 -0.1214 -0.2557
 6854TIP3   OH242196   3.429   5.469   8.639  0.5262  0.2118 -0.6061
 6854TIP3    H142197   3.517   5.432   8.634  0.3452 -0.1347 -1.3959
 6854TIP3    H242198   3.419   5.495   8.730  1.3069 -0.0876 -0.4253
 6855TIP3   OH242199   4.837   0.222   8.144  0.0939 -0.0700 -0.4521
 6855TIP3    H142200   4.865   0.302   8.099  0.3567  1.0109  1.5075
 6855TIP3    H242201   4.911   0.163   8.135  0.2898  0.2584 -1.0840
 6856TIP3   OH242202   1.430   0.896   8.245  0.2919 -0.2923 -0.1910
 6856TIP3    H142203   1.442   0.925   8.335  0.2856 -1.1887  0.1130
 6856TIP3    H242204   1.369   0.959   8.207  0.0389 -0.0886  0.5311
 6857TIP3   OH242205   2.211   2.983   7.617  0.2985 -0.2367  0.5062
 6857TIP3    H142206   2.264   2.976   7.696  1.5132  0.9821 -0.1411
 6857TIP3    H242207   2.210   3.077   7.597 -0.6224 -0.4382 -0.4934
 6858TIP3   OH242208   5.997   5.686   8.297 -0.0682 -0.2363  0.0572
 6858TIP3    H142209   5.916   5.728   8.326 -0.7257 -0.6797 -1.0547
 6858TIP3    H242210   6.019   5.731   8.216  0.9534  0.0491  0.4779
 6859TIP3   OH242211   3.567   3.118   0.109  0.0922  0.5086  0.0986
 6859TIP3    H142212   3.547   3.035   0.065 -0.2057 -0.5175  2.0479
 6859TIP3    H242213   3.503   3.124   0.179  0.8823  1.7981  0.7524
 6860TIP3   OH242214   4.255   3.040   1.891 -0.0353  0.1381  0.1156
 6860TIP3    H142215   4.166   3.039   1.858 -0.8590  2.7121  1.9200
 6860TIP3    H242216   4.304   3.090   1.826 -0.2576  0.0051 -0.1544
 6861TIP3   OH242217   3.028   5.687   2.849  0.0555  0.5345 -0.6680
 6861TIP3    H142218   3.067   5.671   2.935  1.1075  1.4177 -0.9560
 6861TIP3    H242219   2.937   5.661   2.859  0.5739 -1.1590  0.1769
 6862TIP3   OH242220   3.065   1.155   1.180 -0.1923  0.1620  1.0152
 6862TIP3    H142221   3.153   1.133   1.150  0.2272  0.6883  1.8194
 6862TIP3    H242222   3.007   1.121   1.112  0.5312 -1.6531  1.2500
 6863TIP3   OH242223   2.030   4.078   7.449 -0.1419 -0.1477 -0.0548
 6863TIP3    H142224   2.000   4.149   7.507 -0.1822 -1.7173  1.9485
 6863TIP3    H242225   2.096   4.031   7.500  1.6240 -0.2181 -2.2304
 6864TIP3   OH242226   4.420   2.567   0.308  0.3028  0.1485 -0.0357
 6864TIP3    H142227   4.421   2.478   0.341  0.4645 -0.3424 -1.2932
 6864TIP3    H242228   4.510   2.598   0.318  0.5358 -0.2809 -0.7154
 6865TIP3   OH242229   4.156   0.741   1.056  0.0658  0.2639 -0.2208
 6865TIP3    H142230   4.233   0.782   1.018  1.6445 -3.6216 -1.7951
 6865TIP3    H242231   4.084   0.764   0.997  0.9860  0.3164 -1.3437
 6866TIP3   OH242232   3.633   2.646   1.656 -0.1560  0.3995 -0.0084
 6866TIP3    H142233   3.595   2.578   1.711  1.5328 -1.1782 -0.7157
 6866TIP3    H242234   3.643   2.721   1.716 -0.9895 -0.3125  1.0741
 6867TIP3   OH242235   6.247   1.177   0.518 -0.4620  0.6503  0.2788
 6867TIP3    H142236   6.205   1.175   0.604  0.3501  1.5186  0.7188
 6867TIP3    H242237   6.246   1.086   0.489 -1.1343  0.4119  1.0106
 6868TIP3   OH242238   3.212   2.712   8.227  0.5663 -0.7861  0.1760
 6868TIP3    H142239   3.304   2.685   8.224  0.7917 -0.2030  1.2818
 6868TIP3    H242240   3.163   2.634   8.200  1.4180 -0.7429 -1.6562
 6869TIP3   OH242241   4.522   4.090   3.369  0.1851 -0.1199  0.1064
 6869TIP3    H142242   4.452   4.153   3.384 -1.0725 -0.7572 -2.5079
 6869TIP3    H242243   4.557   4.113   3.284 -1.3198 -3.6848 -1.6869
 6870TIP3   OH242244   1.582   6.485   7.372 -0.1982 -0.1868 -0.1572
 6870TIP3    H142245   1.581   6.547   7.299 -0.9914  1.0068  0.8262
 6870TIP3    H242246   1.667   6.497   7.414 -0.6059  0.7376  0.4263
 6871TIP3   OH242247   5.805   5.689   1.620 -0.1324  0.0589  0.5199
 6871TIP3    H142248   5.872   5.668   1.555 -0.5986 -2.2878  0.6932
 6871TIP3    H242249   5.851   5.685   1.704  0.2252  1.9626  0.4465
 6872TIP3   OH242250   3.565   4.846   7.833  0.0357 -0.7853 -0.2293
 6872TIP3    H142251   3.568   4.775   7.898  1.3692 -1.3039 -0.8169
 6872TIP3    H242252   3.657   4.872   7.822 -0.3784  0.6870 -0.4216
 6873TIP3   OH242253   6.039   4.507   1.032  0.3366  0.1414  0.1847
 6873TIP3    H142254   5.970   4.558   1.074 -0.9564 -1.7128  0.4117
 6873TIP3    H242255   6.073   4.564   0.963 -1.4329  1.0968  0.0540
 6874TIP3   OH242256   4.820   2.560   0.131 -0.0202  0.3867  0.5588
 6874TIP3    H142257   4.906   2.596   0.155  0.2351  0.0948  0.0952
 6874TIP3    H242258   4.787   2.621   0.065 -0.0177  0.3064  0.4839
 6875TIP3   OH242259   6.054   5.075   1.659 -0.3512  0.3938 -0.1803
 6875TIP3    H142260   5.984   5.012   1.678  0.8013 -1.1286 -0.7221
 6875TIP3    H242261   6.130   5.041   1.706  0.4927  0.9604 -1.0807
 6876TIP3   OH242262   0.699   1.170   8.641  0.9091  0.5324 -0.0488
 6876TIP3    H142263   0.670   1.254   8.677  3.4294  2.5526 -2.3231
 6876TIP3    H242264   0.735   1.123   8.717 -0.6257  1.4039  1.2833
 6877TIP3   OH242265   2.296   5.996   1.045  0.0002  0.5241  0.1214
 6877TIP3    H142266   2.294   6.055   0.970 -0.0398 -0.0049 -0.2958
 6877TIP3    H242267   2.304   6.054   1.121 -0.7553  1.1084 -0.2318
 6878TIP3   OH242268   1.586   2.334   8.031  0.3448 -0.0668 -0.0963
 6878TIP3    H142269   1.668   2.293   8.059  0.6870  1.3078  1.0346
 6878TIP3    H242270   1.589   2.330   7.936  2.3251  1.0097 -0.1419
 6879TIP3   OH242271   0.737   5.738   1.910 -0.1462  0.3192  0.0339
 6879TIP3    H142272   0.676   5.804   1.877  0.6958  0.8746 -0.4607
 6879TIP3    H242273   0.687   5.687   1.973 -1.3351  0.2815 -0.9143
 6880TIP3   OH242274   5.834   0.539   7.473  0.3563  0.2479  0.0947
 6880TIP3    H142275   5.745   0.520   7.501  0.2942  0.8249  0.2832
 6880TIP3    H242276   5.868   0.454   7.444  0.1276 -0.1855  1.0650
 6881TIP3   OH242277   4.794   2.116   1.759  0.2828 -0.2644  0.6695
 6881TIP3    H142278   4.830   2.204   1.750 -0.6631  0.2691  1.8705
 6881TIP3    H242279   4.870   2.061   1.778  0.7185  0.5274  1.2881
 6882TIP3   OH242280   5.512   4.083   7.787  0.6422  0.6264  0.1492
 6882TIP3    H142281   5.491   4.020   7.719 -0.2243 -0.6156  1.5015
 6882TIP3    H242282   5.583   4.136   7.750 -1.1478  1.3598 -2.4701
 6883TIP3   OH242283   2.981   4.692   7.910 -0.1568 -0.2463 -0.3910
 6883TIP3    H142284   3.032   4.710   7.831 -0.1968  1.2856 -0.1066
 6883TIP3    H242285   2.985   4.774   7.960  0.1485 -1.2835  1.3594
 6884TIP3   OH242286   5.927   2.177   0.996 -0.3219 -0.0861  0.0676
 6884TIP3    H142287   6.006   2.224   0.969 -1.5442  1.0279 -1.7686
 6884TIP3    H242288   5.949   2.141   1.081  2.6162 -0.9039 -0.9259
 6885TIP3   OH242289   0.921   2.650   2.285  0.3086  0.3844  0.6761
 6885TIP3    H142290   0.871   2.723   2.320  0.3265  1.5104 -1.5161
 6885TIP3    H242291   0.861   2.606   2.225  0.0274 -1.9522  2.5149
 6886TIP3   OH242292   2.016   2.660   1.389  0.3183  0.6407  0.0919
 6886TIP3    H142293   1.991   2.741   1.432 -0.9794  0.4162 -0.1961
 6886TIP3    H242294   2.109   2.649   1.411  0.2035  1.5583  1.1339
 6887TIP3   OH242295   3.979   5.950   0.204  0.6830 -0.1756 -0.3263
 6887TIP3    H142296   4.048   5.906   0.154 -0.4835  0.2374 -2.4022
 6887TIP3    H242297   4.012   6.040   0.216  1.8494 -0.7898  1.5111
 6888TIP3   OH242298   1.911   6.390   0.786 -0.0500 -0.0086  0.2735
 6888TIP3    H142299   1.831   6.339   0.801 -0.1991  0.2243  0.2613
 6888TIP3    H242300   1.961   6.337   0.723  0.4507 -0.8570  1.3395
 6889TIP3   OH242301   4.550   5.060   8.085  0.1144 -0.5246  0.1880
 6889TIP3    H142302   4.494   4.985   8.105 -0.2430 -0.0926  0.8617
 6889TIP3    H242303   4.525   5.126   8.149  0.7738 -0.0025 -0.0769
 6890TIP3   OH242304   0.455   1.588   1.802  0.0768  0.1580  0.2467
 6890TIP3    H142305   0.416   1.673   1.781  0.5467 -0.1345 -2.1086
 6890TIP3    H242306   0.380   1.533   1.825 -0.5305  0.5818 -0.6293
 6891TIP3   OH242307   0.700   2.208   0.379  0.0029  0.0403  0.7650
 6891TIP3    H142308   0.693   2.302   0.393 -1.2182  0.7978 -3.4205
 6891TIP3    H242309   0.622   2.171   0.420 -1.1755  1.3469 -0.2066
 6892TIP3   OH242310   2.644   1.594   7.216  0.1098  0.1289 -0.6799
 6892TIP3    H142311   2.735   1.578   7.241  0.4708  2.4559 -0.3184
 6892TIP3    H242312   2.646   1.671   7.160 -1.7167  0.8441  0.1342
 6893TIP3   OH242313   5.530   4.055   2.748  0.2086  0.3843 -0.5802
 6893TIP3    H142314   5.442   4.063   2.785 -1.0815 -0.7648 -3.1507
 6893TIP3    H242315   5.550   4.143   2.716  0.7916  1.0698  1.5117
 6894TIP3   OH242316   6.727   6.371   0.689 -0.1557 -0.5250  0.9103
 6894TIP3    H142317   6.633   6.380   0.701 -0.6017 -1.5182 -1.3559
 6894TIP3    H242318   6.744   6.277   0.699  0.0825 -0.7909 -1.5244
 6895TIP3   OH242319   5.238   0.804   2.605 -0.4714 -0.1736 -0.4478
 6895TIP3    H142320   5.320   0.853   2.613 -0.0100 -1.0481  0.4077
 6895TIP3    H242321   5.212   0.817   2.514 -0.6417  2.0573 -0.1383
 6896TIP3   OH242322   1.465   3.021   8.134  0.1500  0.4730  0.6370
 6896TIP3    H142323   1.381   3.002   8.175  0.2512  0.0421  0.6426
 6896TIP3    H242324   1.530   2.976   8.189  0.2086 -0.9449 -0.5552
 6897TIP3   OH242325   5.962   0.300   7.389 -0.1777  0.1358  0.1219
 6897TIP3    H142326   5.895   0.251   7.341  0.4033 -0.1059 -0.4639
 6897TIP3    H242327   6.044   0.273   7.349  0.2019  1.1913  0.1537
 6898TIP3   OH242328   4.534   1.377   8.155 -0.3472  0.0733  0.0082
 6898TIP3    H142329   4.537   1.315   8.228 -1.8113  0.4746  0.4323
 6898TIP3    H242330   4.516   1.461   8.196  0.0588  0.5233 -0.7193
 6899TIP3   OH242331   1.278   1.932   1.332 -0.2062  0.3988 -0.2242
 6899TIP3    H142332   1.283   2.015   1.285 -1.6138 -0.9348 -2.9288
 6899TIP3    H242333   1.206   1.885   1.290  1.4926 -2.7965  0.1896
 6900TIP3   OH242334   6.579   2.409   0.317  0.1112  0.8409 -0.2484
 6900TIP3    H142335   6.597   2.319   0.289 -3.9522  0.4161 -2.1178
 6900TIP3    H242336   6.631   2.463   0.258  1.6739 -0.1910  0.1143
 6901TIP3   OH242337   0.347   5.698   0.550  0.3872 -0.7471 -0.1898
 6901TIP3    H142338   0.393   5.718   0.468 -2.4060  2.3315 -1.2462
 6901TIP3    H242339   0.386   5.757   0.614 -2.1877  2.4248 -1.2602
 6902TIP3   OH242340   5.204   5.500   8.752 -0.1445 -0.2772 -0.0891
 6902TIP3    H142341   5.170   5.427   8.804  0.9445 -0.7550 -0.0102
 6902TIP3    H242342   5.218   5.571   8.814  1.6635 -1.0204  0.4207
 6903TIP3   OH242343   2.118   2.066   8.134 -0.1857 -0.1170 -0.2186
 6903TIP3    H142344   2.068   1.997   8.090 -0.4932  0.3209 -0.5636
 6903TIP3    H242345   2.112   2.044   8.227  1.2992 -1.6127 -0.4306
 6904TIP3   OH242346   0.449   0.663   1.316  0.3755 -0.1361  0.1736
 6904TIP3    H142347   0.402   0.582   1.298 -1.3459  0.9735 -0.5097
 6904TIP3    H242348   0.514   0.669   1.246  0.5080 -0.8894  0.2181
 6905TIP3   OH242349   3.217   2.154   1.087 -0.5309 -0.0851 -0.3992
 6905TIP3    H142350   3.200   2.157   0.993 -0.8838  0.1741 -0.3292
 6905TIP3    H242351   3.278   2.227   1.103 -0.7325  0.0776 -0.3740
 6906TIP3   OH242352   5.488   1.061   8.587 -0.0955  0.4995 -0.0841
 6906TIP3    H142353   5.400   1.027   8.572  0.4613 -0.7832 -0.5023
 6906TIP3    H242354   5.499   1.058   8.682 -0.2246 -0.0566 -0.0844
 6907TIP3   OH242355   1.070   4.653   8.361  0.1781 -0.0187 -0.1719
 6907TIP3    H142356   1.122   4.726   8.394 -1.0147  1.1785 -0.8271
 6907TIP3    H242357   1.013   4.629   8.435 -0.2241  0.4968 -0.3062
 6908TIP3   OH242358   2.235   2.740   8.670 -0.5284 -0.3517  0.0606
 6908TIP3    H142359   2.248   2.722   8.577  1.2345  0.6980  0.0379
 6908TIP3    H242360   2.142   2.728   8.685 -0.7180 -1.2980 -1.6625
 6909TIP3   OH242361   3.610   6.438   0.847 -0.1167 -0.1651 -0.1125
 6909TIP3    H142362   3.612   6.348   0.880 -0.6374  0.0193  0.4220
 6909TIP3    H242363   3.563   6.432   0.764  0.0963 -0.4253 -0.2184
 6910TIP3   OH242364   0.149   3.481   2.085  0.3324  0.0028 -0.1747
 6910TIP3    H142365   0.192   3.567   2.086  1.3094 -0.4110 -2.0638
 6910TIP3    H242366   0.221   3.419   2.098  0.2999 -0.6722 -2.8138
 6911TIP3   OH242367   3.542   5.275   0.884  0.5700  0.8171 -0.1361
 6911TIP3    H142368   3.550   5.293   0.977  0.0622  0.2695  0.0169
 6911TIP3    H242369   3.496   5.351   0.849 -1.5720 -0.1261  0.5077
 6912TIP3   OH242370   1.732   3.214   0.060 -0.1535  0.5305 -0.2357
 6912TIP3    H142371   1.649   3.237   0.102  0.7923 -1.5185  3.1549
 6912TIP3    H242372   1.784   3.294   0.064 -0.0559  0.4411  2.9362
 6913TIP3   OH242373   1.307   6.229   8.234  0.2739 -0.2363  0.2063
 6913TIP3    H142374   1.247   6.232   8.159  1.3953  0.1422 -0.6965
 6913TIP3    H242375   1.340   6.139   8.236 -1.8664 -1.0884  2.0079
 6914TIP3   OH242376   0.507   1.627   2.137  0.4829 -0.0160 -0.1057
 6914TIP3    H142377   0.517   1.532   2.138  2.3018  0.1408 -0.3109
 6914TIP3    H242378   0.513   1.652   2.229 -0.8491 -0.1369  0.0416
 6915TIP3   OH242379   6.425   5.734   1.929  0.0062 -0.3981  0.2443
 6915TIP3    H142380   6.337   5.768   1.945  0.1446 -0.0798  0.3579
 6915TIP3    H242381   6.432   5.657   1.986  0.4667  0.6843  1.7369
 6916TIP3   OH242382   5.508   1.452   2.649 -0.0811 -0.7888  0.0475
 6916TIP3    H142383   5.419   1.482   2.630 -0.1721 -0.8818  0.3134
 6916TIP3    H242384   5.496   1.360   2.675 -0.2180 -0.1617  2.4749
 6917TIP3   OH242385   4.662   3.823   2.973 -0.8315  0.0371 -0.0774
 6917TIP3    H142386   4.594   3.838   3.038 -1.9191 -0.7427 -0.9769
 6917TIP3    H242387   4.714   3.903   2.973 -1.4432  0.4585  0.9831
 6918TIP3   OH242388   2.327   2.217   2.297 -0.6123  0.0470  0.0369
 6918TIP3    H142389   2.367   2.221   2.210 -1.0241 -0.4562 -0.1749
 6918TIP3    H242390   2.257   2.152   2.290 -0.6648  0.0104  0.7384
 6919TIP3   OH242391   2.469   3.060   1.824  0.2961 -0.1120  0.3715
 6919TIP3    H142392   2.442   3.148   1.848  1.2001 -0.3170  2.2618
 6919TIP3    H242393   2.439   3.005   1.896  0.5884 -1.2169 -0.3203
 6920TIP3   OH242394   6.385   0.208   6.994 -0.0315  0.1245  0.4717
 6920TIP3    H142395   6.426   0.170   6.916 -2.7924 -1.8719 -0.1689
 6920TIP3    H242396   6.305   0.249   6.961 -1.4438 -1.0700  2.2472
 6921TIP3   OH242397   4.127   2.418   2.353  0.4297 -0.0891  0.1409
 6921TIP3    H142398   4.114   2.466   2.272 -1.6986 -1.0384 -0.1456
 6921TIP3    H242399   4.131   2.326   2.326  1.6980 -0.2937  0.9415
 6922TIP3   OH242400   5.715   0.849   1.061 -0.4285  0.2843 -0.2474
 6922TIP3    H142401   5.641   0.885   1.013 -1.1775  0.3542  0.9143
 6922TIP3    H242402   5.747   0.922   1.114 -0.8396 -0.2634  0.7941
 6923TIP3   OH242403   5.488   6.274   0.064 -0.1304  0.3017  0.6129
 6923TIP3    H142404   5.414   6.260   0.005  0.0461 -0.8034  0.6218
 6923TIP3    H242405   5.512   6.365   0.051 -0.3658  0.2022 -0.7259
 6924TIP3   OH242406   2.221   2.117   2.906  0.3065 -0.8510 -0.4096
 6924TIP3    H142407   2.226   2.120   2.811  0.3122  0.0918 -0.3897
 6924TIP3    H242408   2.154   2.181   2.929 -0.6698 -2.0282  0.1639
 6925TIP3   OH242409   5.568   6.754   1.773  0.3284 -0.0997  0.1289
 6925TIP3    H142410   5.577   6.731   1.865  0.1371  1.5566  0.5874
 6925TIP3    H242411   5.481   6.792   1.766  0.2118 -0.5100 -0.8104
 6926TIP3   OH242412   0.751   3.878   2.350  0.2219 -0.7153 -0.6207
 6926TIP3    H142413   0.715   3.897   2.437  0.5300 -1.4990 -0.3150
 6926TIP3    H242414   0.846   3.879   2.363  0.2751 -0.5536 -1.0132
 6927TIP3   OH242415   2.860   4.990   8.605  0.3311 -0.0737 -0.0680
 6927TIP3    H142416   2.855   5.058   8.672 -0.2151  0.1662 -0.3433
 6927TIP3    H242417   2.913   5.030   8.535 -0.8232  0.4599 -0.6627
 6928TIP3   OH242418   5.227   0.468   1.072 -0.0859  0.2678 -0.2658
 6928TIP3    H142419   5.242   0.442   1.162 -1.0617  2.0130  0.4429
 6928TIP3    H242420   5.183   0.393   1.032 -1.6447  0.2811  1.3375
 6929TIP3   OH242421   0.218   4.851   0.935 -0.0676 -0.1301 -0.3720
 6929TIP3    H142422   0.280   4.865   0.863 -1.1876  1.8080 -1.0343
 6929TIP3    H242423   0.153   4.791   0.900  0.5381 -0.9015 -0.2115
 6930TIP3   OH242424   0.529   1.452   1.385  0.0431 -0.0265 -0.5386
 6930TIP3    H142425   0.605   1.506   1.407 -0.6097  0.6917  0.0105
 6930TIP3    H242426   0.546   1.369   1.430  1.1997 -0.4259 -1.6374
 6931TIP3   OH242427   6.400   4.687   1.079 -0.0633 -0.1725  0.7133
 6931TIP3    H142428   6.405   4.598   1.045 -0.0494 -0.0890  0.4942
 6931TIP3    H242429   6.460   4.737   1.023 -0.9134  0.1980  0.1084
 6932TIP3   OH242430   5.481   3.014   7.528 -0.5765  0.0843  0.2236
 6932TIP3    H142431   5.420   2.975   7.590  0.5604 -1.4400  0.4443
 6932TIP3    H242432   5.430   3.025   7.448 -1.3941 -0.2149  0.6871
 6933TIP3   OH242433   1.440   6.756   1.758 -0.1913 -0.1485  0.0476
 6933TIP3    H142434   1.499   6.737   1.831 -2.6984 -1.5415  1.8521
 6933TIP3    H242435   1.398   6.673   1.739 -2.3046  0.9662 -0.4478
 6934TIP3   OH242436   1.383   5.122   8.385 -0.4037 -0.5279  0.5466
 6934TIP3    H142437   1.383   5.218   8.382 -2.9898 -0.4906 -0.3205
 6934TIP3    H242438   1.408   5.101   8.475  0.8777  0.9012  0.5723
 6935TIP3   OH242439   1.012   1.721   2.036  0.5481  0.5365 -0.0616
 6935TIP3    H142440   1.026   1.626   2.043  0.4459  0.5046 -0.2868
 6935TIP3    H242441   0.955   1.742   2.109 -0.8161  0.1463 -0.9827
 6936TIP3   OH242442   1.095   5.486   7.420 -0.3600  0.1089 -0.0772
 6936TIP3    H142443   1.171   5.466   7.366 -0.2153 -0.4618  0.3247
 6936TIP3    H242444   1.048   5.403   7.428 -1.2246  0.5330 -0.6162
 6937TIP3   OH242445   0.316   3.937   2.046  0.0886 -0.1536  0.6637
 6937TIP3    H142446   0.236   3.921   1.996 -0.0811 -0.4242  1.0192
 6937TIP3    H242447   0.363   4.003   1.995  0.8947 -1.8565 -0.9387
 6938TIP3   OH242448   6.146   1.626   0.982  0.1848 -0.4628  0.0035
 6938TIP3    H142449   6.089   1.632   0.904  0.3922 -0.9180 -0.1856
 6938TIP3    H242450   6.095   1.575   1.044  0.5555 -1.2553 -0.3281
 6939TIP3   OH242451   0.262   1.006   8.019 -0.2861 -0.3655 -0.0953
 6939TIP3    H142452   0.277   0.958   8.101  0.8339  0.6411  0.3342
 6939TIP3    H242453   0.204   0.950   7.968  0.0704 -1.6373  0.8383
 6940TIP3   OH242454   1.049   4.486   2.349 -0.0885  0.2489  1.2816
 6940TIP3    H142455   1.050   4.398   2.386  0.1040  0.4613  1.7868
 6940TIP3    H242456   1.133   4.495   2.305 -0.8884 -0.5541 -0.5610
 6941TIP3   OH242457   1.419   4.336   2.641 -0.9257 -0.1517  0.0485
 6941TIP3    H142458   1.423   4.263   2.703  1.3714 -0.8935 -0.8673
 6941TIP3    H242459   1.479   4.401   2.677  1.2148 -1.0010 -1.7968
 6942TIP3   OH242460   5.501   5.367   1.933 -0.1083  0.0922  0.6035
 6942TIP3    H142461   5.579   5.376   1.877  0.5568  3.0932  1.8055
 6942TIP3    H242462   5.433   5.416   1.887 -0.4843 -0.1456  0.9004
 6943TIP3   OH242463   4.592   1.851   7.508  0.0078 -0.7479  0.4509
 6943TIP3    H142464   4.687   1.862   7.512 -0.2163  1.0772  2.4069
 6943TIP3    H242465   4.562   1.922   7.450 -0.3037  0.1143  1.6313
 6944TIP3   OH242466   2.318   1.631   8.615  0.4966  0.6632  0.8350
 6944TIP3    H142467   2.363   1.672   8.541 -0.6463  0.0564 -0.2408
 6944TIP3    H242468   2.302   1.541   8.586 -0.9396  0.7220  1.3795
 6945TIP3   OH242469   4.723   0.309   7.726  0.1479  0.2612  0.1763
 6945TIP3    H142470   4.697   0.217   7.734 -1.4421  0.8384  2.1938
 6945TIP3    H242471   4.819   0.305   7.718  0.1568 -1.5487  0.6357
 6946TIP3   OH242472   4.456   0.210   0.634  0.3199 -0.3411  1.0610
 6946TIP3    H142473   4.527   0.233   0.695  1.1883 -0.1796  0.0306
 6946TIP3    H242474   4.501   0.189   0.552 -0.6502 -2.7627  1.0603
 6947TIP3   OH242475   2.441   3.205   1.396 -0.6572 -0.0885 -0.0040
 6947TIP3    H142476   2.356   3.235   1.362 -0.4721  1.8204  1.1005
 6947TIP3    H242477   2.426   3.114   1.420 -2.2985  0.1061 -0.1684
 6948TIP3   OH242478   4.608   4.387   8.102 -0.2516 -0.6508 -0.0352
 6948TIP3    H142479   4.636   4.296   8.112 -0.4502 -0.8694 -1.4081
 6948TIP3    H242480   4.558   4.389   8.021 -0.9678  0.5242  0.4018
 6949TIP3   OH242481   0.673   0.815   8.644  0.0583 -0.3260 -0.5020
 6949TIP3    H142482   0.708   0.751   8.706  0.2067 -0.1060 -0.3575
 6949TIP3    H242483   0.689   0.900   8.686 -1.2479 -0.2463 -0.1358
 6950TIP3   OH242484   0.289   1.307   1.913 -0.2469 -0.3381  0.4317
 6950TIP3    H142485   0.235   1.228   1.923 -0.1484 -0.2122  2.4665
 6950TIP3    H242486   0.291   1.346   2.001  1.8010  0.5508  0.0616
 6951TIP3   OH242487   1.162   2.390   2.135 -0.8049  0.2768 -0.6187
 6951TIP3    H142488   1.248   2.379   2.174 -1.3083  1.7150  1.0332
 6951TIP3    H242489   1.168   2.473   2.087 -1.2134  0.3107 -0.6155
 6952TIP3   OH242490   3.357   6.208   7.460 -0.1049  0.3614  0.1268
 6952TIP3    H142491   3.347   6.279   7.523  3.8936  0.4981  0.8421
 6952TIP3    H242492   3.298   6.232   7.388 -1.2089  2.7350  1.6961
 6953TIP3   OH242493   3.750   6.316   1.540  0.3565  0.3691  0.1314
 6953TIP3    H142494   3.755   6.407   1.510  0.1151 -0.1182 -1.4874
 6953TIP3    H242495   3.661   6.308   1.575  0.5244  0.8581  0.7004
 6954TIP3   OH242496   4.482   2.141   1.760  0.1919  0.8676  1.0502
 6954TIP3    H142497   4.456   2.201   1.690  0.4354  0.9791  1.0572
 6954TIP3    H242498   4.575   2.126   1.747 -0.4356 -2.2374 -1.0648
 6955TIP3   OH242499   3.530   6.748   2.743 -0.1405 -0.1684  0.0525
 6955TIP3    H142500   3.551   6.836   2.774 -0.6658 -0.7046  2.1299
 6955TIP3    H242501   3.597   6.692   2.782 -0.9694 -0.9186  0.4424
 6956TIP3   OH242502   1.262   6.258   2.735 -0.1647 -0.6461 -0.1585
 6956TIP3    H142503   1.201   6.264   2.809 -0.7695 -1.2990 -0.5933
 6956TIP3    H242504   1.340   6.217   2.772 -0.8620 -1.9666 -0.1047
 6957TIP3   OH242505   5.095   5.702   0.721  0.2140  0.3501 -0.3181
 6957TIP3    H142506   5.042   5.634   0.762  0.2202  0.6112  0.1268
 6957TIP3    H242507   5.106   5.673   0.630  2.0508 -1.3507  0.3873
 6958TIP3   OH242508   4.509   2.677   7.700  0.9135 -0.1442  0.4893
 6958TIP3    H142509   4.580   2.624   7.664  0.8359  0.5176 -0.6864
 6958TIP3    H242510   4.484   2.632   7.781  0.6048 -2.1116 -0.6319
 6959TIP3   OH242511   5.926   0.253   0.116 -0.0388 -0.1233 -0.0575
 6959TIP3    H142512   5.855   0.277   0.057  0.5797 -1.1743 -1.2663
 6959TIP3    H242513   6.000   0.236   0.059  1.2842  1.1766  1.1932
 6960TIP3   OH242514   3.509   3.527   0.046  0.3961  0.4114 -0.3999
 6960TIP3    H142515   3.425   3.494   0.015 -0.8505  1.2070  1.8552
 6960TIP3    H242516   3.558   3.549  -0.034 -1.3051 -0.5727 -1.7769
 6961TIP3   OH242517   6.519   3.954   0.534 -0.0764 -0.2798  0.4119
 6961TIP3    H142518   6.473   3.916   0.609 -2.4193 -0.4289 -0.9823
 6961TIP3    H242519   6.458   3.944   0.461  1.3614  1.4861 -1.1483
 6962TIP3   OH242520   1.399   0.730   8.657 -0.6401 -0.1822 -0.4267
 6962TIP3    H142521   1.364   0.692   8.576  2.4108 -0.8815 -1.5728
 6962TIP3    H242522   1.488   0.694   8.664  0.0782  1.7645  1.9467
 6963TIP3   OH242523   0.802   3.714   0.029  0.1037 -0.2670  0.1992
 6963TIP3    H142524   0.765   3.689   0.113  0.2329 -0.7667  0.1131
 6963TIP3    H242525   0.727   3.734  -0.026  0.0511  3.1829  1.3286
 6964TIP3   OH242526   0.192   2.246   0.073  0.3701  0.0117  0.0350
 6964TIP3    H142527   0.096   2.246   0.066  0.3393 -1.0875  0.2001
 6964TIP3    H242528   0.221   2.293  -0.005 -0.3002 -0.0031 -0.2378
 6965TIP3   OH242529   4.267   5.228   1.582 -0.6526 -0.0888 -0.4596
 6965TIP3    H142530   4.270   5.200   1.673  0.4282  0.7447 -0.2206
 6965TIP3    H242531   4.175   5.249   1.566 -0.9563 -0.8272  0.2393
 6966TIP3   OH242532   5.348   4.247   7.598 -0.5481 -0.3021  0.6546
 6966TIP3    H142533   5.415   4.179   7.605  0.0272  0.3685  1.8020
 6966TIP3    H242534   5.380   4.306   7.529 -0.8302 -0.9220 -0.0237
 6967TIP3   OH242535   6.439   1.041   1.282  0.4617 -0.0254 -0.4203
 6967TIP3    H142536   6.438   0.948   1.305 -0.0121 -0.4066 -1.9099
 6967TIP3    H242537   6.370   1.050   1.216  0.5623  1.3713 -0.3486
 6968TIP3   OH242538   1.374   1.325   1.077 -0.3125  0.1952  0.9490
 6968TIP3    H142539   1.297   1.282   1.115 -0.3962 -0.9035 -0.3785
 6968TIP3    H242540   1.351   1.418   1.074 -2.6603 -0.3280 -1.6156
 6969TIP3   OH242541   3.699   2.137   1.772  0.5939 -0.3837  0.0876
 6969TIP3    H142542   3.759   2.097   1.835  0.9500  1.5526  1.0663
 6969TIP3    H242543   3.746   2.215   1.740 -0.7091  0.2281 -0.4193
 6970TIP3   OH242544   0.203   0.199   7.643 -0.2285 -0.3164  0.7157
 6970TIP3    H142545   0.159   0.119   7.614 -0.1732  0.2034 -0.9004
 6970TIP3    H242546   0.180   0.264   7.576  2.4319  0.1608  0.1851
 6971TIP3   OH242547   1.577   6.645   7.147  0.1866 -0.3309 -0.2005
 6971TIP3    H142548   1.489   6.680   7.131  0.6222  0.3257 -1.2370
 6971TIP3    H242549   1.602   6.604   7.064  1.8118  1.6435 -0.7822
 6972TIP3   OH242550   6.793   3.956   7.555 -0.0851  0.2201 -0.0145
 6972TIP3    H142551   6.721   4.018   7.552 -0.5232 -0.2078 -4.0137
 6972TIP3    H242552   6.868   4.004   7.522  0.4384 -0.4416  0.1805
 6973TIP3   OH242553   5.954   6.048   1.895  0.0184  0.1494  0.5651
 6973TIP3    H142554   5.975   6.139   1.875 -1.9020  0.8415  1.4109
 6973TIP3    H242555   5.900   6.020   1.821  3.4947 -1.5720 -1.5518
 6974TIP3   OH242556   2.233   1.367   8.542 -0.0767  0.6078  0.2687
 6974TIP3    H142557   2.298   1.308   8.503  0.1796  0.7071  0.5382
 6974TIP3    H242558   2.243   1.353   8.636 -1.1696 -0.1484  0.2905
 6975TIP3   OH242559   6.609   1.346   7.394 -0.5912 -0.1261  0.5097
 6975TIP3    H142560   6.691   1.301   7.414 -1.0644  0.3461  4.2299
 6975TIP3    H242561   6.562   1.285   7.336  1.9665 -0.7515 -1.0530
 6976TIP3   OH242562   2.424   5.672   1.275 -0.2142  0.2535 -0.8895
 6976TIP3    H142563   2.406   5.635   1.361  0.0643  2.0559 -0.0236
 6976TIP3    H242564   2.348   5.647   1.222 -0.6257 -0.4460  0.0034
 6977TIP3   OH242565   6.125   0.873   0.623  0.6073 -0.9080  0.1960
 6977TIP3    H142566   6.088   0.866   0.535 -2.3301 -3.0617  1.4322
 6977TIP3    H242567   6.078   0.947   0.663  1.2221 -0.5519  0.2647
 6978TIP3   OH242568   3.882   3.905   8.028 -0.1661 -0.0765 -0.1916
 6978TIP3    H142569   3.929   3.981   8.062 -0.5606 -0.0402  0.2924
 6978TIP3    H242570   3.847   3.862   8.106 -1.6036  0.3471 -0.5732
 6979TIP3   OH242571   0.629   2.580   3.501  0.0965  0.1582  0.0040
 6979TIP3    H142572   0.690   2.626   3.444  2.1280 -1.5579  0.6717
 6979TIP3    H242573   0.636   2.488   3.475  0.3503 -0.5427  2.3241
 6980TIP3   OH242574   4.659   5.240   1.445  0.3430  0.4372 -0.6857
 6980TIP3    H142575   4.680   5.237   1.539  0.8521 -1.0637 -0.8133
 6980TIP3    H242576   4.683   5.153   1.413 -0.7486  0.6010 -2.0248
 6981TIP3   OH242577   0.860   5.318   8.725 -0.2927 -0.6150  0.3815
 6981TIP3    H142578   0.804   5.240   8.722  0.0059 -0.8259  0.1999
 6981TIP3    H242579   0.892   5.320   8.815  0.7013 -1.4278  0.0608
 6982TIP3   OH242580   1.361   1.704   0.094  0.4585  0.0950 -0.3739
 6982TIP3    H142581   1.425   1.647   0.136 -0.5849 -0.5514  0.3967
 6982TIP3    H242582   1.297   1.643   0.056 -0.6465  0.7368  0.4156
 6983TIP3   OH242583   4.781   1.746   8.452  0.1530  0.5497  0.1671
 6983TIP3    H142584   4.855   1.756   8.512 -0.0237  2.2508  0.1489
 6983TIP3    H242585   4.707   1.725   8.509  0.7224 -1.7752  0.1288
 6984TIP3   OH242586   6.034   2.127   1.269  0.3001  0.2938  0.2144
 6984TIP3    H142587   6.108   2.143   1.328  1.5630 -1.8617 -0.6966
 6984TIP3    H242588   6.000   2.042   1.296 -0.5715  0.3417 -0.6982
 6985TIP3   OH242589   1.530   4.820   0.722 -0.6523  0.0836 -0.7614
 6985TIP3    H142590   1.510   4.814   0.628  2.2228 -0.6824 -1.4224
 6985TIP3    H242591   1.603   4.882   0.727 -0.2128 -0.5205  0.8637
 6986TIP3   OH242592   0.868   6.576   2.642 -0.2492 -0.3842  0.7155
 6986TIP3    H142593   0.913   6.610   2.565  1.4174 -0.3058  1.6707
 6986TIP3    H242594   0.799   6.520   2.607 -0.4715  0.7971 -0.8277
 6987TIP3   OH242595   5.018   2.862   0.026 -0.5702 -0.0065 -0.6863
 6987TIP3    H142596   5.025   2.948   0.068  0.4720  0.5938 -2.0199
 6987TIP3    H242597   5.105   2.823   0.038 -0.1872  0.2525 -2.3856
 6988TIP3   OH242598   5.456   5.393   7.953  0.0013 -0.4524  0.2325
 6988TIP3    H142599   5.535   5.397   7.898 -1.1951  3.4419 -1.5590
 6988TIP3    H242600   5.486   5.419   8.040  0.7725  1.0613 -0.4356
 6989TIP3   OH242601   3.596   5.351   2.243  0.6297  0.1978  0.9417
 6989TIP3    H142602   3.642   5.269   2.229 -0.2078 -0.1489  0.1151
 6989TIP3    H242603   3.638   5.390   2.320  2.3572 -0.0328  0.1445
 6990TIP3   OH242604   4.879   1.302   2.014 -0.2415 -0.8596 -0.3880
 6990TIP3    H142605   4.946   1.358   1.974  0.0262  0.0770  1.2604
 6990TIP3    H242606   4.912   1.286   2.103 -2.0829 -0.6009  0.3756
 6991TIP3   OH242607   4.208   5.942   2.616  0.2889  0.1510 -0.5784
 6991TIP3    H142608   4.267   5.868   2.601 -0.8508 -0.7213 -0.9700
 6991TIP3    H242609   4.231   6.006   2.548  1.2007  0.1024 -0.3201
 6992TIP3   OH242610   5.466   1.187   2.713 -0.1362  0.0815 -0.0748
 6992TIP3    H142611   5.475   1.106   2.662 -0.5638  0.5664 -0.9486
 6992TIP3    H242612   5.379   1.182   2.752  1.0741 -1.4034  2.6536
 6993TIP3   OH242613   6.303   4.584   7.650 -0.1956 -0.0740 -0.2510
 6993TIP3    H142614   6.267   4.673   7.653 -2.1294 -0.8353  1.9509
 6993TIP3    H242615   6.293   4.558   7.558  0.1252  1.8260 -0.8786
 6994TIP3   OH242616   6.352   6.573   7.165  0.2676 -0.0327  0.4970
 6994TIP3    H142617   6.440   6.549   7.194  1.3071  0.9910 -1.5858
 6994TIP3    H242618   6.304   6.491   7.162  0.3493 -0.3502  3.9191
 6995TIP3   OH242619   3.126   4.649   8.717 -0.0061 -0.1332 -0.4511
 6995TIP3    H142620   3.174   4.634   8.799  0.5013 -1.2362 -0.9348
 6995TIP3    H242621   3.164   4.730   8.682 -2.0998  1.9339  1.6991
 6996TIP3   OH242622   1.101   0.487   1.694  0.0423 -0.5376 -0.4803
 6996TIP3    H142623   1.111   0.557   1.630  0.9541 -0.0335  0.1988
 6996TIP3    H242624   1.188   0.449   1.703 -0.4881 -1.9698 -1.0484
 6997TIP3   OH242625   1.788   5.075   2.006  0.0657  0.1708 -0.4838
 6997TIP3    H142626   1.848   5.145   2.032  0.0420 -0.0501  0.1877
 6997TIP3    H242627   1.757   5.101   1.920 -0.6951  1.4821  0.1600
 6998TIP3   OH242628   3.529   6.189   7.989  0.1922  0.1663 -0.4094
 6998TIP3    H142629   3.456   6.198   7.927  1.2426  2.6844 -1.4443
 6998TIP3    H242630   3.583   6.119   7.953 -0.9267 -0.6746 -0.4765
 6999TIP3   OH242631   1.488   2.302   0.026 -0.7459 -0.0513  0.5879
 6999TIP3    H142632   1.528   2.351   0.098 -1.5111 -0.5890  1.4019
 6999TIP3    H242633   1.397   2.332   0.023 -0.7597 -0.1439 -0.0585
 7000TIP3   OH242634   5.980   3.666   1.248 -0.3001 -0.2613 -0.0366
 7000TIP3    H142635   5.958   3.660   1.341  0.5794 -1.2498  0.1271
 7000TIP3    H242636   6.068   3.703   1.246 -0.1404 -0.6541 -0.4429
 7001TIP3   OH242637   5.422   4.450   0.500 -0.4422 -0.2488  0.2378
 7001TIP3    H142638   5.367   4.513   0.454 -1.4527 -2.0508 -1.1446
 7001TIP3    H242639   5.387   4.365   0.475  1.3567 -1.3990  1.4166
 7002TIP3   OH242640   4.641   0.515   8.273 -0.0259 -0.3106  0.2448
 7002TIP3    H142641   4.694   0.444   8.236 -0.2705 -0.2932 -0.1445
 7002TIP3    H242642   4.605   0.560   8.197 -0.7869 -0.4650  0.5015
 7003TIP3   OH242643   5.339   2.171   1.763  0.1128  0.6329 -0.2312
 7003TIP3    H142644   5.252   2.159   1.724  1.3101 -0.4749 -2.8217
 7003TIP3    H242645   5.389   2.217   1.695  2.0616 -0.4309  0.4223
 7004TIP3   OH242646   0.126   2.461   1.195 -0.3460 -0.0010 -0.0434
 7004TIP3    H142647   0.156   2.523   1.261 -0.1678  1.0534 -1.0799
 7004TIP3    H242648   0.154   2.499   1.112 -3.2930  0.3441 -0.9975
 7005TIP3   OH242649   5.359   5.680   7.194  0.3383  0.9501 -0.4321
 7005TIP3    H142650   5.343   5.774   7.199  3.0669  1.5171 -0.3589
 7005TIP3    H242651   5.428   5.671   7.129 -0.1218 -1.0615 -0.7045
 7006TIP3   OH242652   0.552   6.736   2.140  0.1915 -0.0208  0.3531
 7006TIP3    H142653   0.616   6.687   2.088 -1.5236  0.8670 -2.8580
 7006TIP3    H242654   0.577   6.828   2.127 -0.8567  0.2653  0.3057
 7007TIP3   OH242655   1.101   0.485   7.170 -0.3149  0.1419 -0.4339
 7007TIP3    H142656   1.112   0.468   7.264 -0.1210 -0.1288 -0.5035
 7007TIP3    H242657   1.094   0.580   7.164  0.7744  0.2527 -0.2449
 7008TIP3   OH242658   4.188   2.960   2.642 -0.3455 -0.0589 -0.5882
 7008TIP3    H142659   4.276   2.952   2.679 -0.9469  0.1930  0.9590
 7008TIP3    H242660   4.201   3.012   2.563  1.1063 -1.3952 -1.2992
 7009TIP3   OH242661   3.369   4.921   1.605  0.0830  0.0917 -0.2501
 7009TIP3    H142662   3.337   4.833   1.624  1.7433 -0.7230 -1.0346
 7009TIP3    H242663   3.337   4.940   1.517 -1.0976  0.7062  0.2871
 7010TIP3   OH242664   4.228   1.533   7.963 -0.1458  0.2936 -0.1004
 7010TIP3    H142665   4.213   1.488   7.880 -0.4751 -0.5162  0.3907
 7010TIP3    H242666   4.322   1.549   7.965 -0.0199 -0.4333 -0.2453
 7011TIP3   OH242667   0.358   2.422   8.704  0.0496 -0.2612 -0.4388
 7011TIP3    H142668   0.422   2.400   8.772  2.1571 -1.4784 -2.6693
 7011TIP3    H242669   0.392   2.501   8.663 -1.5475  0.8397  0.2553
 7012TIP3   OH242670   6.518   4.895   0.114  0.2932  0.3826  0.9305
 7012TIP3    H142671   6.427   4.907   0.088  0.5757  1.2841  0.2975
 7012TIP3    H242672   6.520   4.809   0.157 -0.7338  0.0783  0.4019
 7013TIP3   OH242673   3.884   6.794   7.083 -0.3432  0.6870 -0.5567
 7013TIP3    H142674   3.923   6.824   7.001 -0.5915  1.7742 -0.2981
 7013TIP3    H242675   3.903   6.865   7.145 -0.6416  0.1301  0.1813
 7014TIP3   OH242676   1.320   2.639   0.167  0.5977 -0.7988  0.3206
 7014TIP3    H142677   1.298   2.549   0.191 -1.4597 -0.5228 -0.3502
 7014TIP3    H242678   1.343   2.680   0.251 -1.7132 -1.1102  1.1826
 7015TIP3   OH242679   2.399   3.323   7.911 -0.1556 -0.0179 -0.0639
 7015TIP3    H142680   2.457   3.259   7.951 -2.2083 -2.8043 -1.2583
 7015TIP3    H242681   2.425   3.326   7.819 -0.9698 -0.2189 -0.3080
 7016TIP3   OH242682   4.616   4.008   1.781 -0.2772 -0.3144  0.2251
 7016TIP3    H142683   4.605   4.050   1.867 -0.9914  1.2466 -0.5925
 7016TIP3    H242684   4.565   3.927   1.787  1.1383 -1.1672  1.8460
 7017TIP3   OH242685   6.714   2.425   8.563 -1.1956 -0.0112  0.0313
 7017TIP3    H142686   6.727   2.472   8.646 -0.1637  0.5909 -0.4602
 7017TIP3    H242687   6.771   2.349   8.569 -0.3301  0.5801 -0.5389
 7018TIP3   OH242688   2.796   4.403   8.677  0.5820 -0.2868 -0.2355
 7018TIP3    H142689   2.853   4.327   8.670  0.2973 -0.5315  0.0861
 7018TIP3    H242690   2.747   4.404   8.594  1.1508  0.0078 -0.5716
 7019TIP3   OH242691   1.933   4.667   0.097 -0.5076  0.3947  0.2827
 7019TIP3    H142692   1.919   4.573   0.103  2.0378 -0.1104 -0.5205
 7019TIP3    H242693   1.863   4.705   0.150 -1.1718 -1.9634  1.2241
 7020TIP3   OH242694   1.092   3.517   2.266  0.2923 -0.0214 -0.5461
 7020TIP3    H142695   1.009   3.480   2.298  0.5346  1.0095  1.4431
 7020TIP3    H242696   1.071   3.608   2.245  0.4459 -0.3443 -2.1785
 7021TIP3   OH242697   4.283   0.873   7.405  0.2271 -0.1428  0.0715
 7021TIP3    H142698   4.221   0.945   7.415  0.2259 -0.2114  0.5814
 7021TIP3    H242699   4.322   0.862   7.492  0.7393 -0.2947 -0.1724
 7022TIP3   OH242700   4.412   5.775   2.396 -0.2396  0.2190 -0.1354
 7022TIP3    H142701   4.479   5.836   2.426  1.4851 -1.1820 -0.9598
 7022TIP3    H242702   4.400   5.715   2.469 -1.2108  0.9105  0.3010
 7023TIP3   OH242703   1.480   6.207   0.211 -0.1587  0.1509  0.1159
 7023TIP3    H142704   1.462   6.300   0.224  0.3814  0.1851  0.6754
 7023TIP3    H242705   1.551   6.205   0.146  0.3764  0.1740  0.6831
 7024TIP3   OH242706   0.372   1.960   2.257 -0.2192  0.0105  0.4962
 7024TIP3    H142707   0.345   1.897   2.191  1.1766  0.3148 -0.4133
 7024TIP3    H242708   0.357   2.046   2.218  0.4287  0.1974  0.6326
 7025TIP3   OH242709   0.266   2.817   0.562  0.6375 -0.2501 -0.1791
 7025TIP3    H142710   0.192   2.871   0.535 -0.0026 -0.7741  0.4944
 7025TIP3    H242711   0.333   2.880   0.590  0.8935  0.2602 -1.8414
 7026TIP3   OH242712   1.924   3.767   0.776  0.2152 -0.3265  0.5913
 7026TIP3    H142713   1.948   3.783   0.685  1.7544 -1.4318  0.7612
 7026TIP3    H242714   1.838   3.726   0.772  0.2298 -0.2698 -0.3749
 7027TIP3   OH242715   2.883   2.164   2.249  0.2097 -0.2724 -0.4046
 7027TIP3    H142716   2.928   2.230   2.301 -2.5794  0.5211  1.2314
 7027TIP3    H242717   2.943   2.090   2.247  1.1745  0.2899  2.6021
 7028TIP3   OH242718   3.408   4.192   8.393  0.3313  0.7332  0.1670
 7028TIP3    H142719   3.467   4.144   8.452 -0.9566  0.2624  1.1047
 7028TIP3    H242720   3.387   4.272   8.440 -0.0207  0.7624 -0.0407
 7029TIP3   OH242721   5.300   3.090   0.955  0.8478  0.1906 -0.1022
 7029TIP3    H142722   5.327   3.016   1.011  0.9676 -0.7821 -1.3944
 7029TIP3    H242723   5.248   3.146   1.012  0.9842 -0.7611  0.9909
 7030TIP3   OH242724   2.203   2.138   1.442 -0.0734 -0.2475  0.0782
 7030TIP3    H142725   2.203   2.226   1.478  1.8878 -0.2405  0.1778
 7030TIP3    H242726   2.195   2.150   1.347  1.4367  0.1552 -0.0264
 7031TIP3   OH242727   4.381   6.769   1.945 -0.5416 -0.4192 -0.4539
 7031TIP3    H142728   4.461   6.748   1.897 -1.7369 -3.1128 -1.4502
 7031TIP3    H242729   4.334   6.830   1.888  0.1884  0.1475 -0.4585
 7032TIP3   OH242730   6.311   2.218   6.728 -0.3112 -0.1792  0.0673
 7032TIP3    H142731   6.261   2.217   6.809  0.5380  0.7540  0.6200
 7032TIP3    H242732   6.263   2.279   6.671  0.2388  0.8130  0.6405
 7033TIP3   OH242733   1.065   1.847   1.181  0.0227 -0.1168  0.0627
 7033TIP3    H142734   1.117   1.853   1.101  0.1583 -0.3916  0.1271
 7033TIP3    H242735   1.006   1.923   1.178  0.2606  0.0609 -0.1299
 7034TIP3   OH242736   5.074   1.260   0.573 -0.0995 -0.1216  0.4976
 7034TIP3    H142737   5.033   1.233   0.655  0.2556  0.6302  0.9330
 7034TIP3    H242738   5.001   1.290   0.518 -0.1941  0.7715  1.0958
 7035TIP3   OH242739   1.812   5.908   1.967  0.1341 -0.4762  0.6557
 7035TIP3    H142740   1.781   5.988   1.925 -0.3921  1.0965  3.7205
 7035TIP3    H242741   1.896   5.933   2.007  0.4127 -1.7147  0.8767
 7036TIP3   OH242742   0.968   5.653   8.046  0.2059 -0.0445  0.0378
 7036TIP3    H142743   1.040   5.678   8.103 -1.5299  2.5005  1.2987
 7036TIP3    H242744   0.889   5.663   8.100 -1.2001 -2.6612 -1.2799
 7037TIP3   OH242745   4.163   0.904   1.582  0.2401 -0.0053 -0.2217
 7037TIP3    H142746   4.202   0.878   1.499  0.2322 -2.2337  0.3933
 7037TIP3    H242747   4.072   0.926   1.560  0.7924  1.5594 -1.0861
 7038TIP3   OH242748   4.164   3.168   7.679  0.3275  0.6628  0.4535
 7038TIP3    H142749   4.073   3.186   7.656  0.1636 -0.4969  0.0859
 7038TIP3    H242750   4.210   3.171   7.595  0.4146  0.1379  0.4780
 7039TIP3   OH242751   0.073   0.104   1.872  0.4902  0.3824 -0.7531
 7039TIP3    H142752   0.105   0.154   1.797  1.0845  0.9777 -0.1135
 7039TIP3    H242753   0.126   0.024   1.872  0.3583  0.2929 -1.0744
 7040TIP3   OH242754   3.718   1.714   2.236 -0.0626  0.2724 -0.3281
 7040TIP3    H142755   3.780   1.745   2.169 -0.6139 -0.3337 -1.1480
 7040TIP3    H242756   3.670   1.792   2.262  1.4404  0.8717  0.7747
 7041TIP3   OH242757   1.019   0.608   0.237  0.1039 -0.2841  0.0406
 7041TIP3    H142758   0.949   0.589   0.299  0.0666  0.0550  0.1013
 7041TIP3    H242759   1.096   0.623   0.292  0.2740 -0.8605 -0.0336
 7042TIP3   OH242760   2.477   1.808   1.523 -0.2119 -0.4930 -0.2529
 7042TIP3    H142761   2.460   1.899   1.496 -0.2962 -0.2281  0.6393
 7042TIP3    H242762   2.514   1.817   1.611  0.4881 -1.2934 -0.4624
 7043TIP3   OH242763   2.353   3.008   7.868  0.1107  0.0078  0.8207
 7043TIP3    H142764   2.305   3.021   7.951 -1.5251 -1.0136  0.0895
 7043TIP3    H242765   2.364   3.096   7.834 -0.8454  0.3191  1.2632
 7044TIP3   OH242766   1.164   5.673   6.714 -0.0747 -0.0656 -0.1326
 7044TIP3    H142767   1.089   5.707   6.666 -0.7798 -0.1906  0.8604
 7044TIP3    H242768   1.138   5.585   6.741  0.1988  0.0936  0.6892
 7045TIP3   OH242769   3.275   5.641   2.284  0.3065 -0.0428 -0.1171
 7045TIP3    H142770   3.357   5.657   2.237 -0.4845  1.4477 -1.0548
 7045TIP3    H242771   3.208   5.637   2.216 -0.5682 -0.0820  0.7227
 7046TIP3   OH242772   1.481   6.372   7.935 -0.5566  0.0400 -0.4865
 7046TIP3    H142773   1.454   6.281   7.952  1.0650 -0.3098  0.4244
 7046TIP3    H242774   1.492   6.410   8.022  0.5999  0.5424 -0.8407
 7047TIP3   OH242775   2.759   0.144   8.037 -0.1310  0.3260 -0.0364
 7047TIP3    H142776   2.737   0.204   7.966  0.8797  0.9645  0.1788
 7047TIP3    H242777   2.702   0.068   8.023 -0.2162  0.6100 -1.2904
 7048TIP3   OH242778   6.275   3.103   0.042 -0.9445 -0.4037  0.4730
 7048TIP3    H142779   6.353   3.107  -0.013 -0.4238  1.4138  1.2722
 7048TIP3    H242780   6.298   3.153   0.121 -3.0219  0.5317  0.5637
 7049TIP3   OH242781   6.095   1.278   0.993 -0.1259 -0.3940 -0.0944
 7049TIP3    H142782   6.153   1.349   1.018 -0.8205 -0.2997  1.3634
 7049TIP3    H242783   6.009   1.320   0.981 -0.4112 -0.8911  0.1706
 7050TIP3   OH242784   3.857   6.416   8.141  0.3700 -0.6375 -0.2137
 7050TIP3    H142785   3.818   6.423   8.228  0.2278 -0.8337 -0.2631
 7050TIP3    H242786   3.866   6.322   8.126 -1.0579 -0.6686 -1.0614
 7051TIP3   OH242787   3.161   6.810   7.127  0.1838 -0.0502 -0.3137
 7051TIP3    H142788   3.210   6.729   7.116  0.8174  0.1231  1.0984
 7051TIP3    H242789   3.222   6.870   7.171 -0.9198  0.5322  0.4795
 7052TIP3   OH242790   0.062   6.071   0.064 -0.0891 -0.4253  0.3774
 7052TIP3    H142791   0.016   5.987   0.061 -0.9817 -0.0039  1.4471
 7052TIP3    H242792  -0.004   6.136   0.040  0.0549  0.1448  1.4583
 7053TIP3   OH242793   6.584   2.153   6.784 -0.0333 -0.0130  0.1081
 7053TIP3    H142794   6.492   2.178   6.789  0.4171  3.4644 -3.9884
 7053TIP3    H242795   6.631   2.226   6.823  1.1132 -1.4812  1.5974
 7054TIP3   OH242796   3.561   2.530   7.797 -0.0435 -1.0159  0.1012
 7054TIP3    H142797   3.556   2.559   7.706  0.1581 -0.6412  0.2086
 7054TIP3    H242798   3.655   2.528   7.817 -0.0857 -1.1149  0.2988
 7055TIP3   OH242799   1.492   0.081   7.507  0.4553 -0.0955  0.1185
 7055TIP3    H142800   1.447   0.038   7.434  0.7749 -0.8130  0.3400
 7055TIP3    H242801   1.439   0.060   7.584  0.5668 -0.0182  0.2167
 7056TIP3   OH242802   2.023   2.947   0.348  0.0758 -0.6126 -0.1268
 7056TIP3    H142803   2.077   2.939   0.427  2.1940 -2.1347 -1.6123
 7056TIP3    H242804   1.966   2.870   0.351 -0.4360 -0.2239  0.3087
 7057TIP3   OH242805   6.792   1.248   2.190 -0.1739 -0.9293  0.0273
 7057TIP3    H142806   6.703   1.223   2.216  0.0403 -0.6131  1.1117
 7057TIP3    H242807   6.848   1.187   2.236  0.2004 -0.7108 -0.1357
 7058TIP3   OH242808   1.725   0.838   7.858  0.3110 -0.3850 -0.8330
 7058TIP3    H142809   1.661   0.882   7.803 -0.0612  0.1588  0.0229
 7058TIP3    H242810   1.699   0.859   7.948  1.0464 -1.0568 -0.4471
 7059TIP3   OH242811   1.741   1.887   0.163 -0.1821 -0.3549 -0.0053
 7059TIP3    H142812   1.695   1.804   0.167  0.4252 -0.6933  0.1093
 7059TIP3    H242813   1.680   1.947   0.120 -0.1878 -1.1519 -1.1372
 7060TIP3   OH242814   0.285   3.570   0.136 -0.1459 -0.0138  0.5343
 7060TIP3    H142815   0.307   3.633   0.066  0.2730  1.0537  1.5910
 7060TIP3    H242816   0.285   3.485   0.092  1.7429  0.4384 -0.4608
 7061TIP3   OH242817   0.210   4.308   0.807  0.3077  0.2155  0.3741
 7061TIP3    H142818   0.261   4.231   0.783  0.2376  0.4313 -0.5161
 7061TIP3    H242819   0.125   4.273   0.835  0.4182 -0.0511  0.3779
 7062TIP3   OH242820   0.878   0.487   8.462  0.3602  0.7971  0.0467
 7062TIP3    H142821   0.919   0.453   8.541  0.7969  0.1931 -0.4295
 7062TIP3    H242822   0.939   0.553   8.429 -0.4752  2.0696  0.9562
 7063TIP3   OH242823   4.142   3.053   6.909  0.2057  0.0209  0.0523
 7063TIP3    H142824   4.176   3.104   6.835 -0.4658 -0.4430 -0.5906
 7063TIP3    H242825   4.186   3.090   6.985  1.4565  0.0439 -0.6505
 7064TIP3   OH242826   1.720   3.837   8.189  0.1992 -0.5101 -0.1402
 7064TIP3    H142827   1.767   3.847   8.272  0.8575 -1.8054 -0.3311
 7064TIP3    H242828   1.630   3.859   8.210 -0.1916 -3.3046  1.6076
 7065TIP3   OH242829   5.926   0.187   1.344 -0.4344 -0.2232  0.7534
 7065TIP3    H142830   5.979   0.111   1.319 -0.7482 -0.3389  0.4344
 7065TIP3    H242831   5.964   0.216   1.427  0.5710  0.1180  0.1941
 7066TIP3   OH242832   5.372   5.396   0.847  0.3304  0.5031  0.2144
 7066TIP3    H142833   5.327   5.383   0.930 -1.2654 -0.5645 -0.7574
 7066TIP3    H242834   5.310   5.445   0.793  0.2035 -1.1066 -1.2045
 7067TIP3   OH242835   0.689   2.938   8.615 -0.2175 -0.0172  0.6106
 7067TIP3    H142836   0.705   2.969   8.526 -0.7536 -3.7454 -0.9977
 7067TIP3    H242837   0.595   2.951   8.628  0.1928  2.3630  1.5060
 7068TIP3   OH242838   2.250   6.577   1.833 -0.1972  0.0055  0.8730
 7068TIP3    H142839   2.276   6.523   1.758 -1.0446 -0.0366  0.5940
 7068TIP3    H242840   2.158   6.554   1.847 -0.3122  0.7298  1.3144
 7069TIP3   OH242841   5.520   0.444   0.879  0.2534  0.0127 -0.3486
 7069TIP3    H142842   5.583   0.475   0.944 -1.0148 -2.7294  2.4892
 7069TIP3    H242843   5.460   0.517   0.866  2.6311  1.9026 -1.4180
 7070TIP3   OH242844   3.600   0.646   1.019  0.4109 -0.4335 -0.3193
 7070TIP3    H142845   3.691   0.618   1.003  0.5645  0.4935 -1.1120
 7070TIP3    H242846   3.605   0.699   1.098  0.7967  0.7638 -1.1327
 7071TIP3   OH242847   5.486   3.273   0.139  0.2156 -0.8518 -0.1905
 7071TIP3    H142848   5.534   3.339   0.088 -0.5408  0.3918  0.6513
 7071TIP3    H242849   5.399   3.272   0.100  0.3868 -1.8190 -0.5823
 7072TIP3   OH242850   6.811   6.670   2.726 -0.4749  0.1348 -0.0318
 7072TIP3    H142851   6.769   6.588   2.700  0.4413  0.2380 -2.0276
 7072TIP3    H242852   6.743   6.736   2.719 -1.1527 -0.3636  1.3498
 7073TIP3   OH242853   5.967   2.947   2.315  0.1187  0.4371  0.0894
 7073TIP3    H142854   5.915   2.978   2.389 -0.8268  0.7112 -0.6604
 7073TIP3    H242855   6.032   2.888   2.354 -0.2033  0.7659  1.1538
 7074TIP3   OH242856   1.508   0.615   3.167  0.5899  0.3696 -0.3155
 7074TIP3    H142857   1.433   0.638   3.112 -0.5790  0.6267  1.2747
 7074TIP3    H242858   1.567   0.690   3.160  0.4916  0.3722 -1.2365
 7075TIP3   OH242859   6.762   3.132   0.980  0.6243  0.4294  0.2046
 7075TIP3    H142860   6.779   3.100   1.069  1.0734  0.1267  0.0175
 7075TIP3    H242861   6.759   3.053   0.926  2.5312  0.6919 -0.3935
 7076TIP3   OH242862   3.773   3.289   3.076 -0.2185  0.4935  0.2713
 7076TIP3    H142863   3.706   3.350   3.108 -2.0675 -0.0219 -2.2834
 7076TIP3    H242864   3.743   3.203   3.104  0.5784  0.4396  0.9845
 7077TIP3   OH242865   3.834   2.387   0.582  0.5307  0.0081  0.2328
 7077TIP3    H142866   3.867   2.306   0.623 -1.7575  0.7560  4.0923
 7077TIP3    H242867   3.870   2.457   0.637 -0.5079  1.3727 -0.7705
 7078TIP3   OH242868   6.064   5.325   0.183 -0.1527  0.1585 -0.9535
 7078TIP3    H142869   6.118   5.286   0.114  1.2000 -0.1359  0.2430
 7078TIP3    H242870   6.125   5.344   0.254 -1.7845 -1.2135  0.8982
 7079TIP3   OH242871   4.996   2.156   0.390 -0.3620 -0.2425  0.3064
 7079TIP3    H142872   4.966   2.245   0.411  1.6138 -0.0039  2.6317
 7079TIP3    H242873   5.091   2.162   0.393 -0.1757 -2.3508  0.0260
 7080TIP3   OH242874   1.479   6.126   7.678  0.1207 -0.3073  0.1417
 7080TIP3    H142875   1.457   6.182   7.603 -0.9604 -0.0025  0.6694
 7080TIP3    H242876   1.568   6.150   7.700 -0.0641  0.6699 -0.1193
 7081TIP3   OH242877   3.084   3.832   0.119  0.4474 -0.1850  0.2681
 7081TIP3    H142878   3.021   3.890   0.075  0.0356  1.6353  2.9762
 7081TIP3    H242879   3.168   3.854   0.079 -0.2891 -1.4353 -2.2190
 7082TIP3   OH242880   3.511   1.510   0.128  0.0555 -0.5696 -0.3619
 7082TIP3    H142881   3.523   1.424   0.088  0.3419 -0.7796  0.1626
 7082TIP3    H242882   3.517   1.571   0.055 -1.4076 -1.0645 -0.9195
 7083TIP3   OH242883   3.729   4.021   7.177 -0.0404  0.2375 -0.7076
 7083TIP3    H142884   3.659   3.983   7.232  0.3352  1.6366  0.8334
 7083TIP3    H242885   3.768   4.088   7.233  1.2880  0.7903 -2.2511
 7084TIP3   OH242886   6.337   0.240   0.365  0.0518 -0.6364 -0.5239
 7084TIP3    H142887   6.354   0.155   0.404 -0.5135  0.5398  2.5866
 7084TIP3    H242888   6.241   0.247   0.363  0.0755 -0.3805 -1.5549
 7085TIP3   OH242889   5.005   0.908   8.291  0.1020 -0.2295  0.2775
 7085TIP3    H142890   5.076   0.901   8.227  1.7259  0.3505  1.9271
 7085TIP3    H242891   4.972   0.818   8.300  0.2417 -0.4139 -0.9135
 7086TIP3   OH242892   1.654   4.623   7.700 -0.9414  0.2795 -0.2874
 7086TIP3    H142893   1.671   4.690   7.767  0.0384 -0.0725 -0.1574
 7086TIP3    H242894   1.563   4.599   7.712 -0.6517 -0.1568  1.2950
 7087TIP3   OH242895   1.316   6.269   2.418 -0.5568 -0.2721  0.2169
 7087TIP3    H142896   1.252   6.339   2.416 -1.0525 -0.7232 -1.0997
 7087TIP3    H242897   1.287   6.208   2.349  1.0378 -0.6898 -0.1261
 7088TIP3   OH242898   3.730   3.899   7.496  0.3564 -0.8692 -0.0708
 7088TIP3    H142899   3.634   3.903   7.503  0.3805 -1.0792  0.4002
 7088TIP3    H242900   3.752   3.974   7.440 -0.0825 -0.8212 -0.1879
 7089TIP3   OH242901   2.351   0.959   0.378  0.1557  0.6485  0.6711
 7089TIP3    H142902   2.310   0.876   0.404  0.1701  0.8565  1.3893
 7089TIP3    H242903   2.362   0.952   0.284 -0.5465  0.1449  0.6168
 7090TIP3   OH242904   6.228   2.740   1.326 -0.4222 -0.3992  0.8379
 7090TIP3    H142905   6.139   2.728   1.290 -0.1620  0.2383 -0.0701
 7090TIP3    H242906   6.280   2.674   1.282  0.4509  1.9982 -2.1196
 7091TIP3   OH242907   5.293   6.799   7.746  0.2287 -0.0715 -1.1299
 7091TIP3    H142908   5.286   6.787   7.651  1.2559 -0.4545 -1.1690
 7091TIP3    H242909   5.348   6.726   7.776  1.8052  1.2803 -0.5649
 7092TIP3   OH242910   4.956   0.511   0.585 -0.1758 -0.5126  0.1353
 7092TIP3    H142911   4.882   0.457   0.559 -0.9823  0.8706 -0.5570
 7092TIP3    H242912   5.016   0.506   0.511 -1.4786  1.6470 -1.1714
 7093TIP3   OH242913   6.543   5.785   8.661  0.0602  0.1597 -0.5474
 7093TIP3    H142914   6.465   5.733   8.640  0.0225 -0.1954  0.4475
 7093TIP3    H242915   6.610   5.752   8.601 -0.2365 -0.3443 -0.6086
 7094TIP3   OH242916   6.714   6.233   8.213 -0.9020  0.3731 -0.0555
 7094TIP3    H142917   6.618   6.235   8.214 -0.9777  0.3619 -2.2283
 7094TIP3    H242918   6.736   6.141   8.203 -0.5835  0.2158  1.7906
 7095TIP3   OH242919   4.383   3.639   1.278  0.0224 -0.2319  0.3434
 7095TIP3    H142920   4.446   3.619   1.348  0.3971 -2.0411 -0.4330
 7095TIP3    H242921   4.436   3.679   1.209 -0.0124 -0.1124  0.3858
 7096TIP3   OH242922   0.001   3.276   1.436 -0.0250 -0.6045  0.0788
 7096TIP3    H142923   0.004   3.202   1.497 -0.9045 -2.1553 -1.6499
 7096TIP3    H242924  -0.085   3.315   1.449  0.1162 -0.3992  0.4087
 7097TIP3   OH242925   6.528   1.021   7.499 -0.1562 -0.2370 -0.3090
 7097TIP3    H142926   6.448   1.017   7.446 -0.4088 -0.4861  0.0931
 7097TIP3    H242927   6.589   1.072   7.445 -0.6418  0.1091 -0.5404
 7098TIP3   OH242928   1.974   0.799   8.702  0.4286  0.5108  0.0001
 7098TIP3    H142929   2.052   0.849   8.680  1.0682 -0.7737 -0.8170
 7098TIP3    H242930   1.958   0.745   8.624 -0.3810 -0.3363  0.7303
 7099TIP3   OH242931   1.342   1.909   7.998 -0.1802  0.0855  0.4298
 7099TIP3    H142932   1.325   1.938   7.908  0.6482  0.1057  0.2780
 7099TIP3    H242933   1.261   1.930   8.044 -1.8671 -2.7862 -0.9522
 7100TIP3   OH242934   5.780   1.141   1.898  0.0521  0.1065 -0.1778
 7100TIP3    H142935   5.710   1.091   1.856  1.9922 -1.5880 -1.5998
 7100TIP3    H242936   5.739   1.225   1.920 -2.7673 -1.2431  0.3269
 7101TIP3   OH242937   5.387   5.689   8.149 -0.2099  0.1270 -0.2887
 7101TIP3    H142938   5.328   5.697   8.074 -1.1789 -1.3300  0.2629
 7101TIP3    H242939   5.366   5.604   8.187  1.1134  0.2964  0.9270
 7102TIP3   OH242940   5.641   3.296   2.940  0.4565 -0.1427  0.1292
 7102TIP3    H142941   5.551   3.288   2.908  0.6390  1.3638 -0.8762
 7102TIP3    H242942   5.693   3.313   2.861  1.7039 -1.3515  0.6392
 7103TIP3   OH242943   5.057   2.153   1.624 -0.3364  0.0147 -0.0900
 7103TIP3    H142944   5.076   2.099   1.547  3.1926 -1.4627  1.5945
 7103TIP3    H242945   5.076   2.243   1.595  2.5431 -0.6761 -0.6365
 7104TIP3   OH242946   5.469   2.027   1.075 -0.1765  0.4542 -0.4112
 7104TIP3    H142947   5.434   1.956   1.021 -3.3613  0.7662  0.9552
 7104TIP3    H242948   5.495   2.094   1.013  1.9673 -1.4163 -1.6899
 7105TIP3   OH242949   4.629   0.827   8.473 -0.4749  0.7186  0.0142
 7105TIP3    H142950   4.670   0.849   8.557  1.8567 -0.6031 -0.6712
 7105TIP3    H242951   4.611   0.733   8.480  1.9150  0.0553 -1.7210
 7106TIP3   OH242952   2.680   3.101   1.262  0.3022 -0.4773  0.1832
 7106TIP3    H142953   2.597   3.063   1.291 -0.1307  0.8567  0.7659
 7106TIP3    H242954   2.692   3.178   1.318  1.8477 -0.5467 -0.0238
 7107TIP3   OH242955   1.965   5.749   8.730 -0.0220 -0.1221 -0.2772
 7107TIP3    H142956   1.975   5.693   8.807  2.6610 -0.2856 -0.6510
 7107TIP3    H242957   1.930   5.690   8.663 -0.3337 -0.5068  0.2076
 7108TIP3   OH242958   4.450   0.554   0.315  0.2772 -0.4274  0.2494
 7108TIP3    H142959   4.363   0.521   0.336 -0.8242  1.7144 -0.7063
 7108TIP3    H242960   4.485   0.587   0.398 -0.0999 -0.6670  0.5032
 7109TIP3   OH242961   4.653   2.306   8.081  0.2768 -0.6713 -0.4931
 7109TIP3    H142962   4.622   2.385   8.127 -0.8066 -1.3555 -0.0086
 7109TIP3    H242963   4.736   2.284   8.125  0.3248 -0.1041 -0.2857
 7110TIP3   OH242964   0.783   4.499   2.422 -0.1024  0.2154  0.1121
 7110TIP3    H142965   0.868   4.510   2.380 -0.3504 -3.0115 -1.5524
 7110TIP3    H242966   0.796   4.527   2.512  2.6769 -0.0837 -0.1290
 7111TIP3   OH242967   3.513   5.988   7.368  0.1947  0.4804 -0.0465
 7111TIP3    H142968   3.473   5.927   7.305  0.4684 -0.0587  0.2914
 7111TIP3    H242969   3.442   6.048   7.391 -0.4009 -0.3888  0.4480
 7112TIP3   OH242970   4.759   1.384   1.251  0.3366  0.3431  0.2274
 7112TIP3    H142971   4.808   1.385   1.333  1.2096 -1.8530 -0.2087
 7112TIP3    H242972   4.670   1.360   1.276  0.6936 -0.7255  0.5385
 7113TIP3   OH242973   4.991   1.861   0.262  0.4710 -0.4270  0.0229
 7113TIP3    H142974   4.952   1.929   0.317 -0.8169 -2.0156  1.1798
 7113TIP3    H242975   4.992   1.900   0.174 -3.7782 -0.1383 -0.1201
 7114TIP3   OH242976   0.738   4.361   2.721  0.2681  0.7285  0.5634
 7114TIP3    H142977   0.776   4.276   2.699 -0.0168  1.1513 -1.9286
 7114TIP3    H242978   0.800   4.400   2.782  0.1800 -1.4053  2.1239
 7115TIP3   OH242979   3.373   3.644   8.262 -0.2418 -0.0951 -0.0076
 7115TIP3    H142980   3.450   3.692   8.233  0.9740 -1.3184  1.0537
 7115TIP3    H242981   3.304   3.668   8.200  0.0561  3.5315  0.8536
 7116TIP3   OH242982   3.442   4.352   0.834  0.2940  0.4844 -0.0176
 7116TIP3    H142983   3.528   4.365   0.794 -0.1780  2.5806 -0.5091
 7116TIP3    H242984   3.381   4.353   0.759 -0.2812  0.5662  0.4443
 7117TIP3   OH242985   0.760   6.594   8.057  0.0102 -0.3190 -0.1570
 7117TIP3    H142986   0.668   6.615   8.072 -0.1464 -1.1975  0.2054
 7117TIP3    H242987   0.792   6.664   8.000 -0.5381  0.7205  0.7564
 7118TIP3   OH242988   4.380   0.916   2.656  1.1066 -0.2435 -0.1085
 7118TIP3    H142989   4.304   0.962   2.692  0.5500 -0.5844 -0.8439
 7118TIP3    H242990   4.381   0.940   2.563 -0.3543 -3.2362 -0.9920
 7119TIP3   OH242991   0.700   5.958   8.516 -0.0366  0.0979 -0.0746
 7119TIP3    H142992   0.671   6.046   8.540  0.8135  0.1421  0.8805
 7119TIP3    H242993   0.642   5.899   8.563  0.4801  0.1745  0.6765
 7120TIP3   OH242994   1.464   2.931   8.489  0.2878 -0.4310 -0.1320
 7120TIP3    H142995   1.438   2.994   8.556 -1.2903 -0.7274 -0.4262
 7120TIP3    H242996   1.477   2.849   8.537  2.2214  0.0279  0.2313
 7121TIP3   OH242997   6.778   3.658   8.076 -0.5065  0.7829  0.7767
 7121TIP3    H142998   6.684   3.676   8.080 -0.3070  1.7219  1.5262
 7121TIP3    H242999   6.794   3.599   8.149 -0.5706  0.2776  0.3932
 7122TIP3   OH243000   0.781   4.246   7.796  0.2172 -0.2346  0.4056
 7122TIP3    H143001   0.816   4.332   7.817  0.4885 -1.0287  3.7567
 7122TIP3    H243002   0.727   4.223   7.872 -0.0920 -2.9026 -0.5094
 7123TIP3   OH243003   3.426   4.489   7.841  0.7341 -0.5670  0.5543
 7123TIP3    H143004   3.380   4.489   7.925  0.6350  1.1823  0.5420
 7123TIP3    H243005   3.359   4.513   7.777  1.3063  0.5927  0.3449
 7124TIP3   OH243006   0.337   4.638   1.114 -0.1831  0.7918  0.1186
 7124TIP3    H143007   0.246   4.621   1.089 -0.3930  1.9590  0.0205
 7124TIP3    H243008   0.338   4.731   1.137  0.7372  0.5170  1.2523
 7125TIP3   OH243009   1.377   3.214   7.736 -0.1523  0.2594 -0.0937
 7125TIP3    H143010   1.294   3.171   7.721 -0.1973 -0.2892  1.5482
 7125TIP3    H243011   1.438   3.172   7.675 -1.5798  2.7113 -3.5591
 7126TIP3   OH243012   6.490   1.588   8.142 -0.3049  0.4034  0.1494
 7126TIP3    H143013   6.579   1.554   8.133 -0.8887 -1.0876 -0.3324
 7126TIP3    H243014   6.455   1.547   8.221 -0.6794  0.7076  0.1484
 7127TIP3   OH243015   1.955   1.970   0.310  0.0764 -0.2308 -0.2284
 7127TIP3    H143016   1.904   1.948   0.232 -1.0013  0.1962  0.3456
 7127TIP3    H243017   1.894   1.961   0.382  0.7380  0.5816  0.4537
 7128TIP3   OH243018   3.726   0.529   0.495  0.1592  0.1641  0.2940
 7128TIP3    H143019   3.689   0.557   0.579 -0.0996  0.6091  0.0351
 7128TIP3    H243020   3.689   0.590   0.431  0.4027 -0.1354 -0.1354
 7129TIP3   OH243021   1.795   4.966   0.837  0.7678  0.4546 -0.0637
 7129TIP3    H143022   1.838   4.888   0.872  0.0195  0.1313  0.1571
 7129TIP3    H243023   1.845   5.039   0.872  0.4877  0.1176  1.0915
 7130TIP3   OH243024   0.708   2.769   2.434  0.1610  0.2020  0.2822
 7130TIP3    H143025   0.699   2.676   2.458 -0.5173  0.6390  1.8050
 7130TIP3    H243026   0.750   2.809   2.510 -0.5850  1.3433  0.1061
 7131TIP3   OH243027   3.007   4.641   2.223  0.1202 -0.2824 -0.0642
 7131TIP3    H143028   3.026   4.548   2.231  0.5424 -0.0852  1.6157
 7131TIP3    H243029   3.036   4.679   2.306  1.3394  1.6047 -1.2614
 7132TIP3   OH243030   4.776   5.217   8.683  0.0824 -0.5820 -0.1250
 7132TIP3    H143031   4.762   5.309   8.659  0.7470 -0.1828  0.9396
 7132TIP3    H243032   4.866   5.199   8.658  0.5075 -0.4129  1.2105
 7133TIP3   OH243033   3.635   3.423   1.143  1.0339  0.1748  0.2291
 7133TIP3    H143034   3.627   3.393   1.052  1.7271  1.9298 -0.4483
 7133TIP3    H243035   3.725   3.404   1.167  0.4982 -1.5299  1.0668
 7134TIP3   OH243036   0.581   3.809   1.935 -0.5751  0.7106  0.2941
 7134TIP3    H143037   0.643   3.771   1.872 -0.8038  2.6012 -1.1516
 7134TIP3    H243038   0.635   3.846   2.004 -0.1082  1.7086 -0.5929
 7135TIP3   OH243039   6.738   1.894   0.595  0.1682  0.7588  0.2228
 7135TIP3    H143040   6.763   1.808   0.629 -0.8888 -0.0178 -0.8599
 7135TIP3    H243041   6.724   1.948   0.672 -1.3221 -0.6913  1.0203
 7136TIP3   OH243042   0.558   3.374   0.259 -0.1011 -0.2319  0.2570
 7136TIP3    H143043   0.628   3.376   0.325  0.9117 -1.3883 -0.7278
 7136TIP3    H243044   0.598   3.331   0.183 -2.3435 -2.5402  0.2222
 7137TIP3   OH243045   0.744   0.994   0.094  0.5542  0.3510  0.2072
 7137TIP3    H143046   0.835   0.991   0.124  0.9644  0.2028 -0.9976
 7137TIP3    H243047   0.698   1.045   0.161  1.3683 -0.1984  1.2078
 7138TIP3   OH243048   0.876   3.131   0.227 -0.1618  0.4637 -0.2007
 7138TIP3    H143049   0.843   3.187   0.158 -0.8046 -0.3975 -0.6186
 7138TIP3    H243050   0.879   3.187   0.305 -3.8875  0.3491  0.2063
 7139TIP3   OH243051   4.305   2.501   7.929  0.5920 -0.0835  0.4362
 7139TIP3    H143052   4.362   2.430   7.898 -1.0310 -1.2121 -0.1382
 7139TIP3    H243053   4.365   2.570   7.957  2.2186 -1.0317 -0.5355
 7140TIP3   OH243054   1.140   5.798   8.629  0.1466  0.2793  0.0084
 7140TIP3    H143055   1.220   5.828   8.672 -0.8994  1.9519  0.8768
 7140TIP3    H243056   1.153   5.704   8.617  1.9435  0.3987  0.7610
 7141TIP3   OH243057   1.018   4.067   1.682  0.4230 -0.1303 -0.7743
 7141TIP3    H143058   0.944   4.050   1.625  0.2179  1.0847 -0.8766
 7141TIP3    H243059   1.092   4.024   1.639  0.1778  0.3628 -1.6933
 7142TIP3   OH243060   5.310   0.788   7.948  0.1840 -0.1910  0.2988
 7142TIP3    H143061   5.382   0.848   7.932 -1.0937  1.6083  0.9383
 7142TIP3    H243062   5.283   0.758   7.862  1.1413 -0.2445  0.0072
 7143TIP3   OH243063   1.879   6.356   1.409  0.0509  0.2231 -0.2978
 7143TIP3    H143064   1.934   6.410   1.465  2.6885 -1.1259 -1.4049
 7143TIP3    H243065   1.859   6.412   1.334  3.0482 -0.2473 -1.6020
 7144TIP3   OH243066   6.630   3.292   0.643  0.6873  0.1580  0.5478
 7144TIP3    H143067   6.541   3.308   0.611  0.7582  0.2911  0.4146
 7144TIP3    H243068   6.626   3.205   0.683  0.8385 -0.4406 -0.6931
 7145TIP3   OH243069   5.514   5.529   0.561 -0.5769 -0.3042 -0.4382
 7145TIP3    H143070   5.547   5.440   0.552 -1.0774 -0.6253  0.7358
 7145TIP3    H243071   5.590   5.585   0.548 -0.0563 -0.9418 -0.1770
 7146TIP3   OH243072   1.045   1.189   8.206  0.8117  0.2397  0.4272
 7146TIP3    H143073   0.977   1.200   8.272  1.8968  0.6712  1.5137
 7146TIP3    H243074   1.109   1.130   8.246  1.5025  0.5193 -0.2289
 7147TIP3   OH243075   6.652   1.759   1.073 -0.1364 -0.4859 -0.5295
 7147TIP3    H143076   6.587   1.736   1.007  0.0448 -1.3977 -0.3988
 7147TIP3    H243077   6.647   1.688   1.137 -0.3653  0.4186  0.4872
 7148TIP3   OH243078   0.081   6.077   1.832  0.1675  0.3680  0.5276
 7148TIP3    H143079   0.142   6.036   1.770 -0.3068  1.1700 -0.4964
 7148TIP3    H243080   0.069   6.011   1.900  2.5233  0.3404  1.0205
 7149TIP3   OH243081   6.708   1.151   6.779  0.6307 -0.3823 -0.2965
 7149TIP3    H143082   6.704   1.100   6.860  0.4439 -0.2907 -0.2456
 7149TIP3    H243083   6.624   1.135   6.737  0.7210 -0.4141 -0.4642
 7150TIP3   OH243084   5.714   0.891   8.109 -0.3500  0.4288  0.2638
 7150TIP3    H143085   5.635   0.904   8.056 -0.9138 -0.2962  0.9162
 7150TIP3    H243086   5.682   0.857   8.192  0.8151 -2.7711 -0.4522
 7151TIP3   OH243087   4.095   2.910   0.099  0.0760 -0.1187 -0.1485
 7151TIP3    H143088   4.191   2.912   0.093  0.1228  2.5459  0.3429
 7151TIP3    H243089   4.074   2.978   0.164 -2.1004 -1.6868  0.9144
 7152TIP3   OH243090   3.526   4.513   2.277  0.6730  0.0093  0.2024
 7152TIP3    H143091   3.577   4.523   2.197  0.3921 -1.2532 -0.1571
 7152TIP3    H243092   3.589   4.484   2.342  0.6149 -0.5613  0.0130
 7153TIP3   OH243093   5.545   5.764   0.895  0.0974 -0.3232 -0.2952
 7153TIP3    H143094   5.477   5.709   0.932  1.1983 -1.5239  0.0124
 7153TIP3    H243095   5.588   5.709   0.829  1.4049  0.0385  0.2140
 7154TIP3   OH243096   5.338   0.650   0.854  0.4086  0.2690 -0.7152
 7154TIP3    H143097   5.274   0.700   0.802  0.7261  0.6085 -0.7874
 7154TIP3    H243098   5.285   0.601   0.917  0.1113  1.1030 -0.2950
 7155TIP3   OH243099   6.378   5.927   7.570 -0.5315  0.7615  0.8772
 7155TIP3    H143100   6.307   5.967   7.521  0.6393  0.8704 -0.8037
 7155TIP3    H243101   6.423   6.000   7.611  0.3751  1.0268 -0.5201
 7156TIP3   OH243102   3.299   5.889   6.770  0.0423  0.0100 -0.3702
 7156TIP3    H143103   3.365   5.831   6.808  1.2566  0.7112 -1.3399
 7156TIP3    H243104   3.219   5.836   6.768  0.7037 -1.0517  0.3208
 7157TIP3   OH243105   2.455   2.818   2.255 -0.5455  0.1921  0.0533
 7157TIP3    H143106   2.422   2.747   2.309  1.7948 -0.6506  0.4863
 7157TIP3    H243107   2.550   2.803   2.250  0.0060  3.1174 -0.0793
 7158TIP3   OH243108   4.470   2.529   8.527 -0.4345  0.1837 -0.6842
 7158TIP3    H143109   4.457   2.501   8.618  0.7884 -1.3988 -0.9605
 7158TIP3    H243110   4.549   2.484   8.499 -1.6027 -0.5823 -3.0225
 7159TIP3   OH243111   4.985   0.250   1.661 -0.7919  0.0478  0.0334
 7159TIP3    H143112   4.970   0.163   1.698  0.5417 -1.1642 -2.0554
 7159TIP3    H243113   4.966   0.239   1.567  0.4993  1.7106 -0.4683
 7160TIP3   OH243114   0.874   2.893   1.556  0.5726 -0.1435  0.3749
 7160TIP3    H143115   0.864   2.832   1.628  1.7550  1.4086  1.9280
 7160TIP3    H243116   0.808   2.961   1.572  1.0739  0.3964  0.1951
 7161TIP3   OH243117   6.199   5.651   0.676  0.2992  0.2456 -0.1883
 7161TIP3    H143118   6.109   5.628   0.698  0.8755 -1.2670  0.6929
 7161TIP3    H243119   6.194   5.679   0.585 -1.1969  1.0633  0.1091
 7162TIP3   OH243120   5.053   4.959   8.063 -0.3225 -0.5663 -0.2637
 7162TIP3    H143121   5.001   4.893   8.109 -1.8178 -0.1026 -1.1824
 7162TIP3    H243122   4.999   4.982   7.987  0.4366  1.2391 -0.3132
 7163TIP3   OH243123   6.268   2.065   0.875  0.5427 -0.8681  0.1427
 7163TIP3    H143124   6.221   2.026   0.948 -0.1277 -0.5550 -0.1152
 7163TIP3    H243125   6.326   2.129   0.916 -1.4535  0.9599  0.2901
 7164TIP3   OH243126   6.201   0.598   0.076 -0.2091 -0.2928 -0.5061
 7164TIP3    H143127   6.107   0.613   0.070 -0.0290  0.8120 -0.6546
 7164TIP3    H243128   6.212   0.506   0.052 -1.4776 -1.1117  1.7780
 7165TIP3   OH243129   3.721   3.688   2.173  0.1502 -0.3416  0.3783
 7165TIP3    H143130   3.628   3.710   2.171  0.0599 -0.6837  0.7789
 7165TIP3    H243131   3.766   3.773   2.175 -0.1329 -0.1661 -0.3229
 7166TIP3   OH243132   4.667   5.240   0.636  0.3165 -0.1324 -0.0215
 7166TIP3    H143133   4.662   5.190   0.554 -0.0450 -1.4399  0.7560
 7166TIP3    H243134   4.699   5.176   0.701  2.1768  1.2918  0.5429
 7167TIP3   OH243135   0.423   2.676   8.593  0.7034  0.4799  0.2437
 7167TIP3    H143136   0.478   2.674   8.671  2.0359 -0.4112 -0.6778
 7167TIP3    H243137   0.341   2.716   8.623  1.1803  0.1912  2.0833
 7168TIP3   OH243138   3.288   0.613   1.355 -0.1830 -0.2559  0.3039
 7168TIP3    H143139   3.329   0.575   1.278 -1.3935  0.7093 -0.8595
 7168TIP3    H243140   3.361   0.655   1.402  0.5498 -0.7172 -0.3900
 7169TIP3   OH243141   4.574   0.150   0.381 -0.5241 -0.3020 -0.2546
 7169TIP3    H143142   4.485   0.132   0.350 -0.0642 -0.7119 -1.4074
 7169TIP3    H243143   4.625   0.074   0.353  0.6488  0.9398 -1.7018
 7170TIP3   OH243144   6.647   1.078   0.573  0.1991  0.0481  0.1965
 7170TIP3    H143145   6.734   1.039   0.562 -0.6849 -2.2946  0.8135
 7170TIP3    H243146   6.628   1.066   0.666 -0.7911  0.5105  0.0613
 7171LIG     C143147   3.714   5.332   5.828 -0.2011  0.6188 -1.1302
 7171LIG     N143148   3.697   5.469   5.873  0.5816 -0.9234  0.7911
 7171LIG     C243149   3.637   5.573   5.804  0.3725  0.4662 -0.5373
 7171LIG     N243150   3.651   5.689   5.869  0.0443  0.4239 -1.0500
 7171LIG     C343151   3.708   5.650   5.991  0.1046 -0.6763 -0.3520
 7171LIG     C443152   3.733   5.513   5.999 -0.3572 -0.7428 -0.6271
 7171LIG     C543153   3.788   5.453   6.116 -0.2940  0.0737  0.7210
 7171LIG     O143154   3.820   5.334   6.127  0.6599 -0.4256 -0.3363
 7171LIG     N343155   3.826   5.552   6.211 -0.1893 -0.1528 -0.4186
 7171LIG     C643156   3.801   5.688   6.200 -0.1502  0.0476 -0.1956
 7171LIG     O243157   3.841   5.760   6.293 -0.4373  0.0369 -0.2186
 7171LIG     N443158   3.743   5.741   6.087  0.2187  0.0274  0.4153
 7171LIG     C743159   3.738   5.886   6.070 -0.0878  0.2709 -0.1533
 7171LIG     C843160   3.907   5.506   6.328  0.2657 -0.7321  0.4928
 7171LIG     H143161   3.652   5.261   5.888  2.7000 -0.1988  1.1304
 7171LIG     H243162   3.814   5.290   5.850 -0.8094 -0.1350  0.3563
 7171LIG     H343163   3.691   5.348   5.721  1.2651  1.0675 -1.3895
 7171LIG     H443164   3.614   5.556   5.699 -0.0896 -0.7508 -0.2484
 7171LIG     H543165   3.814   5.938   6.133  1.0113 -1.4613  0.0159
 7171LIG     H643166   3.642   5.932   6.104 -0.7905 -1.7415  0.7299
 7171LIG     H743167   3.760   5.928   5.970  1.5724 -0.4440 -0.1111
 7171LIG     H843168   3.869   5.549   6.423  0.8320  2.3690 -0.5520
 7171LIG     H943169   4.013   5.540   6.318  0.4054 -0.9403  1.1842
 7171LIG    H1043170   3.911   5.395   6.337  2.8356 -0.7443 -0.0745
   6.87505   6.87505   8.75214
